<event>
 4    1  0.5621415E-005  0.1852921E+04  0.7818608E-02  0.8678652E-01
         -2   -1    0    0    0  501 -0.00000000000E+00  0.00000000000E+00  0.17439227610E+04  0.17439227610E+04  0.25500000000E-02 0. -1.
          2   -1    0    0  501    0  0.00000000000E+00 -0.00000000000E+00 -0.49218295745E+03  0.49218295745E+03  0.25500000000E-02 0.  1.
    5000001    1    1    2    0    0  0.58511900902E+03 -0.53504653399E+03  0.11557995765E+04  0.14146998654E+04  0.19200000000E+03 0.  0.
   -5000001    1    1    2    0    0 -0.58511900902E+03  0.53504653399E+03  0.95940227094E+02  0.82140585305E+03  0.19200000000E+03 0.  0.
<mgrwt>
<rscale>  0 0.18529210E+04</rscale>
<asrwt>0</asrwt>
<pdfrwt beam="1">  1        2 0.70311851E-01 0.18529210E+04</pdfrwt>
<pdfrwt beam="2">  1       -2 0.24913182E+00 0.18529210E+04</pdfrwt>
<totfact> 0.41932702E+00</totfact>
</mgrwt>
</event>
<event>
 4    1  0.5621415E-005  0.5023330E+03  0.7818608E-02  0.1013172E+00
         -2   -1    0    0    0  501 -0.00000000000E+00  0.00000000000E+00  0.18343300771E+03  0.18343300772E+03  0.25500000000E-02 0. -1.
          2   -1    0    0  501    0  0.00000000000E+00 -0.00000000000E+00 -0.34391087540E+03  0.34391087541E+03  0.25500000000E-02 0.  1.
    5000001    1    1    2    0    0 -0.15183654886E+02  0.15335288315E+03 -0.13244373234E+03  0.27955856700E+03  0.19200000000E+03 0.  0.
   -5000001    1    1    2    0    0  0.15183654886E+02 -0.15335288315E+03 -0.28034135352E+02  0.24778531613E+03  0.19200000000E+03 0.  0.
<mgrwt>
<rscale>  0 0.50233298E+03</rscale>
<asrwt>0</asrwt>
<pdfrwt beam="1">  1        2 0.49130125E-01 0.50233298E+03</pdfrwt>
<pdfrwt beam="2">  1       -2 0.26204715E-01 0.50233298E+03</pdfrwt>
<totfact> 0.13448065E+03</totfact>
</mgrwt>
</event>
<event>
 4    1  0.5621415E-005  0.5210553E+03  0.7818608E-02  0.1008425E+00
         -2   -1    0    0    0  501 -0.00000000000E+00  0.00000000000E+00  0.74602365771E+02  0.74602365814E+02  0.25500000000E-02 0. -1.
          2   -1    0    0  501    0  0.00000000000E+00 -0.00000000000E+00 -0.90981904653E+03  0.90981904654E+03  0.25500000000E-02 0.  1.
    5000001    1    1    2    0    0 -0.11014859850E+03  0.13602972319E+03 -0.45413822022E+03  0.52320390137E+03  0.19200000000E+03 0.  0.
   -5000001    1    1    2    0    0  0.11014859850E+03 -0.13602972319E+03 -0.38107846054E+03  0.46121751098E+03  0.19200000000E+03 0.  0.
<mgrwt>
<rscale>  0 0.52105529E+03</rscale>
<asrwt>0</asrwt>
<pdfrwt beam="1">  1        2 0.12997414E+00 0.52105529E+03</pdfrwt>
<pdfrwt beam="2">  1       -2 0.10657481E-01 0.52105529E+03</pdfrwt>
<totfact> 0.19847887E+03</totfact>
</mgrwt>
</event>
<event>
 4    1  0.5621415E-005  0.9019375E+03  0.7818608E-02  0.9423163E-01
          2   -1    0    0  501    0  0.00000000000E+00  0.00000000000E+00  0.12324008653E+04  0.12324008653E+04  0.25500000000E-02 0.  1.
         -2   -1    0    0    0  501 -0.00000000000E+00 -0.00000000000E+00 -0.16502165574E+03  0.16502165576E+03  0.25500000000E-02 0. -1.
    5000001    1    1    2    0    0  0.30306629594E+03  0.33208658783E+02  0.11348307502E+03  0.37774912716E+03  0.19200000000E+03 0.  0.
   -5000001    1    1    2    0    0 -0.30306629594E+03 -0.33208658783E+02  0.95389613455E+03  0.10196733939E+04  0.19200000000E+03 0.  0.
<mgrwt>
<rscale>  0 0.90193754E+03</rscale>
<asrwt>0</asrwt>
<pdfrwt beam="1">  1        2 0.17605727E+00 0.90193754E+03</pdfrwt>
<pdfrwt beam="2">  1       -2 0.23574522E-01 0.90193754E+03</pdfrwt>
<totfact> 0.32645657E+02</totfact>
</mgrwt>
</event>
<event>
 4    1  0.5621415E-005  0.6763046E+03  0.7818608E-02  0.9758635E-01
          2   -1    0    0  501    0  0.00000000000E+00  0.00000000000E+00  0.14568049855E+04  0.14568049855E+04  0.25500000000E-02 0.  1.
         -2   -1    0    0    0  501 -0.00000000000E+00 -0.00000000000E+00 -0.78491605596E+02  0.78491605638E+02  0.25500000000E-02 0. -1.
    5000001    1    1    2    0    0 -0.50013567400E+02  0.27382763646E+03  0.68955624279E+03  0.76800699436E+03  0.19200000000E+03 0.  0.
   -5000001    1    1    2    0    0  0.50013567400E+02 -0.27382763646E+03  0.68875713715E+03  0.76728959682E+03  0.19200000000E+03 0.  0.
<mgrwt>
<rscale>  0 0.67630455E+03</rscale>
<asrwt>0</asrwt>
<pdfrwt beam="1">  1        2 0.20811497E+00 0.67630455E+03</pdfrwt>
<pdfrwt beam="2">  1       -2 0.11213088E-01 0.67630455E+03</pdfrwt>
<totfact> 0.88774405E+02</totfact>
</mgrwt>
</event>
<event>
 4    1  0.5621415E-005  0.5138160E+03  0.7818608E-02  0.1010234E+00
          2   -1    0    0  501    0  0.00000000000E+00  0.00000000000E+00  0.34092340782E+04  0.34092340782E+04  0.25500000000E-02 0.  1.
         -2   -1    0    0    0  501 -0.00000000000E+00 -0.00000000000E+00 -0.19359691022E+02  0.19359691190E+02  0.25500000000E-02 0. -1.
    5000001    1    1    2    0    0  0.10255179871E+02  0.94952601128E+02  0.26390047311E+04  0.26477029924E+04  0.19200000000E+03 0.  0.
   -5000001    1    1    2    0    0 -0.10255179871E+02 -0.94952601128E+02  0.75086965607E+03  0.78089077699E+03  0.19200000000E+03 0.  0.
<mgrwt>
<rscale>  0 0.51381599E+03</rscale>
<asrwt>0</asrwt>
<pdfrwt beam="1">  1        2 0.48703406E+00 0.51381599E+03</pdfrwt>
<pdfrwt beam="2">  1       -2 0.27656667E-02 0.51381599E+03</pdfrwt>
<totfact> 0.76191063E+02</totfact>
</mgrwt>
</event>
<event>
 4    1  0.5621415E-005  0.4270277E+03  0.7818608E-02  0.1034803E+00
         -2   -1    0    0    0  501 -0.00000000000E+00  0.00000000000E+00  0.20765766478E+02  0.20765766635E+02  0.25500000000E-02 0. -1.
          2   -1    0    0  501    0  0.00000000000E+00 -0.00000000000E+00 -0.21953517729E+04  0.21953517729E+04  0.25500000000E-02 0.  1.
    5000001    1    1    2    0    0 -0.12464018833E+02  0.90695732291E+02 -0.99116634936E+03  0.10137335941E+04  0.19200000000E+03 0.  0.
   -5000001    1    1    2    0    0  0.12464018833E+02 -0.90695732291E+02 -0.11834196571E+04  0.12023839455E+04  0.19200000000E+03 0.  0.
<mgrwt>
<rscale>  0 0.42702769E+03</rscale>
<asrwt>0</asrwt>
<pdfrwt beam="1">  1        2 0.31362154E+00 0.42702769E+03</pdfrwt>
<pdfrwt beam="2">  1       -2 0.29665395E-02 0.42702769E+03</pdfrwt>
<totfact> 0.30356262E+03</totfact>
</mgrwt>
</event>
<event>
 4    1  0.5621415E-005  0.6810218E+03  0.7818608E-02  0.9750249E-01
         -2   -1    0    0    0  501 -0.00000000000E+00  0.00000000000E+00  0.86527178554E+02  0.86527178592E+02  0.25500000000E-02 0. -1.
          2   -1    0    0  501    0  0.00000000000E+00 -0.00000000000E+00 -0.13400146351E+04  0.13400146351E+04  0.25500000000E-02 0.  1.
    5000001    1    1    2    0    0  0.18060115872E+03  0.56675780743E+02 -0.10623964547E+04  0.10960744271E+04  0.19200000000E+03 0.  0.
   -5000001    1    1    2    0    0 -0.18060115872E+03 -0.56675780743E+02 -0.19109100183E+03  0.33046738664E+03  0.19200000000E+03 0.  0.
<mgrwt>
<rscale>  0 0.68102184E+03</rscale>
<asrwt>0</asrwt>
<pdfrwt beam="1">  1        2 0.19143065E+00 0.68102184E+03</pdfrwt>
<pdfrwt beam="2">  1       -2 0.12361026E-01 0.68102184E+03</pdfrwt>
<totfact> 0.87257476E+02</totfact>
</mgrwt>
</event>
<event>
 4    1  0.5621415E-005  0.9964454E+03  0.7818608E-02  0.9312452E-01
         -2   -1    0    0    0  501 -0.00000000000E+00  0.00000000000E+00  0.34884296382E+03  0.34884296383E+03  0.25500000000E-02 0. -1.
          2   -1    0    0  501    0  0.00000000000E+00 -0.00000000000E+00 -0.71156911760E+03  0.71156911760E+03  0.25500000000E-02 0.  1.
    5000001    1    1    2    0    0  0.50149533848E+02 -0.41521169874E+03 -0.38452717647E+03  0.59970065862E+03  0.19200000000E+03 0.  0.
   -5000001    1    1    2    0    0 -0.50149533848E+02  0.41521169874E+03  0.21801022690E+02  0.46071142281E+03  0.19200000000E+03 0.  0.
<mgrwt>
<rscale>  0 0.99644544E+03</rscale>
<asrwt>0</asrwt>
<pdfrwt beam="1">  1        2 0.10165273E+00 0.99644544E+03</pdfrwt>
<pdfrwt beam="2">  1       -2 0.49834709E-01 0.99644544E+03</pdfrwt>
<totfact> 0.16773747E+02</totfact>
</mgrwt>
</event>
<event>
 4    1  0.5621415E-005  0.4249853E+03  0.7818608E-02  0.1035456E+00
         -2   -1    0    0    0  501 -0.00000000000E+00  0.00000000000E+00  0.10140115341E+03  0.10140115344E+03  0.25500000000E-02 0. -1.
          2   -1    0    0  501    0  0.00000000000E+00 -0.00000000000E+00 -0.44529212053E+03  0.44529212054E+03  0.25500000000E-02 0.  1.
    5000001    1    1    2    0    0  0.90563300100E+02 -0.70249850054E+01 -0.17988287414E+03  0.27833955908E+03  0.19200000000E+03 0.  0.
   -5000001    1    1    2    0    0 -0.90563300100E+02  0.70249850054E+01 -0.16400809298E+03  0.26835371490E+03  0.19200000000E+03 0.  0.
<mgrwt>
<rscale>  0 0.42498534E+03</rscale>
<asrwt>0</asrwt>
<pdfrwt beam="1">  1        2 0.63613159E-01 0.42498534E+03</pdfrwt>
<pdfrwt beam="2">  1       -2 0.14485879E-01 0.42498534E+03</pdfrwt>
<totfact> 0.28133923E+03</totfact>
</mgrwt>
</event>
<event>
 4    1  0.5621415E-005  0.4094448E+03  0.7818608E-02  0.1040557E+00
          2   -1    0    0  501    0  0.00000000000E+00  0.00000000000E+00  0.59681168613E+03  0.59681168614E+03  0.25500000000E-02 0.  1.
         -2   -1    0    0    0  501 -0.00000000000E+00 -0.00000000000E+00 -0.70225265365E+02  0.70225265412E+02  0.25500000000E-02 0. -1.
    5000001    1    1    2    0    0  0.29506485673E+02  0.41173998537E+02  0.18214169222E+03  0.26945412763E+03  0.19200000000E+03 0.  0.
   -5000001    1    1    2    0    0 -0.29506485673E+02 -0.41173998537E+02  0.34444472854E+03  0.39758282391E+03  0.19200000000E+03 0.  0.
<mgrwt>
<rscale>  0 0.40944479E+03</rscale>
<asrwt>0</asrwt>
<pdfrwt beam="1">  1        2 0.85258811E-01 0.40944479E+03</pdfrwt>
<pdfrwt beam="2">  1       -2 0.10032181E-01 0.40944479E+03</pdfrwt>
<totfact> 0.36799924E+03</totfact>
</mgrwt>
</event>
<event>
 4    1  0.5621415E-005  0.4931143E+03  0.7818608E-02  0.1015592E+00
          2   -1    0    0  501    0  0.00000000000E+00  0.00000000000E+00  0.48735908930E+03  0.48735908931E+03  0.25500000000E-02 0.  1.
         -2   -1    0    0    0  501 -0.00000000000E+00 -0.00000000000E+00 -0.12473437229E+03  0.12473437232E+03  0.25500000000E-02 0. -1.
    5000001    1    1    2    0    0  0.95673323017E+02 -0.12144671677E+03  0.18736038437E+03  0.30962978439E+03  0.19200000000E+03 0.  0.
   -5000001    1    1    2    0    0 -0.95673323017E+02  0.12144671677E+03  0.17526433264E+03  0.30246367723E+03  0.19200000000E+03 0.  0.
<mgrwt>
<rscale>  0 0.49311431E+03</rscale>
<asrwt>0</asrwt>
<pdfrwt beam="1">  1        2 0.69622728E-01 0.49311431E+03</pdfrwt>
<pdfrwt beam="2">  1       -2 0.17819196E-01 0.49311431E+03</pdfrwt>
<totfact> 0.17964174E+03</totfact>
</mgrwt>
</event>
<event>
 4    1  0.5621415E-005  0.4974375E+03  0.7818608E-02  0.1014450E+00
         -2   -1    0    0    0  501 -0.00000000000E+00  0.00000000000E+00  0.21059436221E+02  0.21059436376E+02  0.25500000000E-02 0. -1.
          2   -1    0    0  501    0  0.00000000000E+00 -0.00000000000E+00 -0.29374485341E+04  0.29374485341E+04  0.25500000000E-02 0.  1.
    5000001    1    1    2    0    0 -0.21929009423E+02  0.15546250662E+03 -0.15690699772E+04  0.15885509327E+04  0.19200000000E+03 0.  0.
   -5000001    1    1    2    0    0  0.21929009423E+02 -0.15546250662E+03 -0.13473191207E+04  0.13699570378E+04  0.19200000000E+03 0.  0.
<mgrwt>
<rscale>  0 0.49743747E+03</rscale>
<asrwt>0</asrwt>
<pdfrwt beam="1">  1        2 0.41963524E+00 0.49743747E+03</pdfrwt>
<pdfrwt beam="2">  1       -2 0.30084928E-02 0.49743747E+03</pdfrwt>
<totfact> 0.12304408E+03</totfact>
</mgrwt>
</event>
<event>
 4    1  0.5621415E-005  0.4694753E+03  0.7818608E-02  0.1022068E+00
         -2   -1    0    0    0  501 -0.00000000000E+00  0.00000000000E+00  0.83591460589E+03  0.83591460589E+03  0.25500000000E-02 0. -1.
          2   -1    0    0  501    0  0.00000000000E+00 -0.00000000000E+00 -0.65917920632E+02  0.65917920682E+02  0.25500000000E-02 0.  1.
    5000001    1    1    2    0    0  0.19182478381E+02  0.12400710456E+03  0.48089185681E+03  0.53279142955E+03  0.19200000000E+03 0.  0.
   -5000001    1    1    2    0    0 -0.19182478381E+02 -0.12400710456E+03  0.28910482845E+03  0.36904109702E+03  0.19200000000E+03 0.  0.
<mgrwt>
<rscale>  0 0.46947525E+03</rscale>
<asrwt>0</asrwt>
<pdfrwt beam="1">  1        2 0.94168456E-02 0.46947525E+03</pdfrwt>
<pdfrwt beam="2">  1       -2 0.11941638E+00 0.46947525E+03</pdfrwt>
<totfact> 0.39015624E+02</totfact>
</mgrwt>
</event>
<event>
 4    1  0.5621415E-005  0.4444654E+03  0.7818608E-02  0.1029385E+00
          2   -1    0    0  501    0  0.00000000000E+00  0.00000000000E+00  0.22881929585E+04  0.22881929585E+04  0.25500000000E-02 0.  1.
         -2   -1    0    0    0  501 -0.00000000000E+00 -0.00000000000E+00 -0.21583572199E+02  0.21583572350E+02  0.25500000000E-02 0. -1.
    5000001    1    1    2    0    0 -0.76742433236E+02 -0.63902618701E+02  0.87085933931E+03  0.89734772223E+03  0.19200000000E+03 0.  0.
   -5000001    1    1    2    0    0  0.76742433236E+02  0.63902618701E+02  0.13957500470E+04  0.14124288087E+04  0.19200000000E+03 0.  0.
<mgrwt>
<rscale>  0 0.44446542E+03</rscale>
<asrwt>0</asrwt>
<pdfrwt beam="1">  1        2 0.32688479E+00 0.44446542E+03</pdfrwt>
<pdfrwt beam="2">  1       -2 0.30833667E-02 0.44446542E+03</pdfrwt>
<totfact> 0.25721600E+03</totfact>
</mgrwt>
</event>
<event>
 4    1  0.5621415E-005  0.6932607E+03  0.7818608E-02  0.9728827E-01
         -2   -1    0    0    0  501 -0.00000000000E+00  0.00000000000E+00  0.68602629441E+03  0.68602629441E+03  0.25500000000E-02 0. -1.
          2   -1    0    0  501    0  0.00000000000E+00 -0.00000000000E+00 -0.17514286675E+03  0.17514286677E+03  0.25500000000E-02 0.  1.
    5000001    1    1    2    0    0  0.22155199267E+03 -0.18090820297E+03  0.20772521024E+03  0.40227705170E+03  0.19200000000E+03 0.  0.
   -5000001    1    1    2    0    0 -0.22155199267E+03  0.18090820297E+03  0.30315821742E+03  0.45889210948E+03  0.19200000000E+03 0.  0.
<mgrwt>
<rscale>  0 0.69326074E+03</rscale>
<asrwt>0</asrwt>
<pdfrwt beam="1">  1        2 0.25020409E-01 0.69326074E+03</pdfrwt>
<pdfrwt beam="2">  1       -2 0.98003760E-01 0.69326074E+03</pdfrwt>
<totfact> 0.19160442E+02</totfact>
</mgrwt>
</event>
<event>
 4    1  0.5621415E-005  0.8747424E+03  0.7818608E-02  0.9457717E-01
         -2   -1    0    0    0  501 -0.00000000000E+00  0.00000000000E+00  0.17037618508E+03  0.17037618510E+03  0.25500000000E-02 0. -1.
          2   -1    0    0  501    0  0.00000000000E+00 -0.00000000000E+00 -0.11227717265E+04  0.11227717265E+04  0.25500000000E-02 0.  1.
    5000001    1    1    2    0    0  0.38052295417E+03 -0.72466650155E+02 -0.57404000784E+03  0.71863416606E+03  0.19200000000E+03 0.  0.
   -5000001    1    1    2    0    0 -0.38052295417E+03  0.72466650155E+02 -0.37835553360E+03  0.57451374556E+03  0.19200000000E+03 0.  0.
<mgrwt>
<rscale>  0 0.87474239E+03</rscale>
<asrwt>0</asrwt>
<pdfrwt beam="1">  1        2 0.16039596E+00 0.87474239E+03</pdfrwt>
<pdfrwt beam="2">  1       -2 0.24339455E-01 0.87474239E+03</pdfrwt>
<totfact> 0.35663631E+02</totfact>
</mgrwt>
</event>
<event>
 4    1  0.5621415E-005  0.5411715E+03  0.7818608E-02  0.1003558E+00
          2   -1    0    0  501    0  0.00000000000E+00  0.00000000000E+00  0.38461269158E+03  0.38461269159E+03  0.25500000000E-02 0.  1.
         -2   -1    0    0    0  501 -0.00000000000E+00 -0.00000000000E+00 -0.19036463742E+03  0.19036463744E+03  0.25500000000E-02 0. -1.
    5000001    1    1    2    0    0  0.59230709530E+02 -0.17382998250E+03  0.15158538325E+03  0.30588767249E+03  0.19200000000E+03 0.  0.
   -5000001    1    1    2    0    0 -0.59230709530E+02  0.17382998250E+03  0.42662670905E+02  0.26908965654E+03  0.19200000000E+03 0.  0.
<mgrwt>
<rscale>  0 0.54117153E+03</rscale>
<asrwt>0</asrwt>
<pdfrwt beam="1">  1        2 0.54944669E-01 0.54117153E+03</pdfrwt>
<pdfrwt beam="2">  1       -2 0.27194949E-01 0.54117153E+03</pdfrwt>
<totfact> 0.11117318E+03</totfact>
</mgrwt>
</event>
<event>
 4    1  0.5621415E-005  0.8298087E+03  0.7818608E-02  0.9517845E-01
         -2   -1    0    0    0  501 -0.00000000000E+00  0.00000000000E+00  0.17592732976E+03  0.17592732978E+03  0.25500000000E-02 0. -1.
          2   -1    0    0  501    0  0.00000000000E+00 -0.00000000000E+00 -0.97850414729E+03  0.97850414730E+03  0.25500000000E-02 0.  1.
    5000001    1    1    2    0    0  0.36196355042E+03 -0.64893438904E+02 -0.41140231915E+03  0.58424706969E+03  0.19200000000E+03 0.  0.
   -5000001    1    1    2    0    0 -0.36196355042E+03  0.64893438904E+02 -0.39117449838E+03  0.57018440739E+03  0.19200000000E+03 0.  0.
<mgrwt>
<rscale>  0 0.82980871E+03</rscale>
<asrwt>0</asrwt>
<pdfrwt beam="1">  1        2 0.13978630E+00 0.82980871E+03</pdfrwt>
<pdfrwt beam="2">  1       -2 0.25132476E-01 0.82980871E+03</pdfrwt>
<totfact> 0.41192620E+02</totfact>
</mgrwt>
</event>
<event>
 4    1  0.5621415E-005  0.6259080E+03  0.7818608E-02  0.9853067E-01
          2   -1    0    0  501    0  0.00000000000E+00  0.00000000000E+00  0.29934858197E+04  0.29934858197E+04  0.25500000000E-02 0.  1.
         -2   -1    0    0    0  501 -0.00000000000E+00 -0.00000000000E+00 -0.32717780899E+02  0.32717780998E+02  0.25500000000E-02 0. -1.
    5000001    1    1    2    0    0 -0.11969557194E+03  0.21082985183E+03  0.17122555771E+04  0.17399596023E+04  0.19200000000E+03 0.  0.
   -5000001    1    1    2    0    0  0.11969557194E+03 -0.21082985183E+03  0.12485124617E+04  0.12862439984E+04  0.19200000000E+03 0.  0.
<mgrwt>
<rscale>  0 0.62590802E+03</rscale>
<asrwt>0</asrwt>
<pdfrwt beam="1">  1        2 0.42764063E+00 0.62590802E+03</pdfrwt>
<pdfrwt beam="2">  1       -2 0.46739709E-02 0.62590802E+03</pdfrwt>
<totfact> 0.57792392E+02</totfact>
</mgrwt>
</event>
<event>
 4    1  0.5621415E-005  0.7221373E+03  0.7818608E-02  0.9680106E-01
          2   -1    0    0  501    0  0.00000000000E+00  0.00000000000E+00  0.21326145074E+04  0.21326145074E+04  0.25500000000E-02 0.  1.
         -2   -1    0    0    0  501 -0.00000000000E+00 -0.00000000000E+00 -0.61131809183E+02  0.61131809236E+02  0.25500000000E-02 0. -1.
    5000001    1    1    2    0    0  0.20341166617E+03 -0.17577493393E+03  0.59307461623E+03  0.67887748066E+03  0.19200000000E+03 0.  0.
   -5000001    1    1    2    0    0 -0.20341166617E+03  0.17577493393E+03  0.14784080820E+04  0.15148688360E+04  0.19200000000E+03 0.  0.
<mgrwt>
<rscale>  0 0.72213734E+03</rscale>
<asrwt>0</asrwt>
<pdfrwt beam="1">  1        2 0.30465927E+00 0.72213734E+03</pdfrwt>
<pdfrwt beam="2">  1       -2 0.87331140E-02 0.72213734E+03</pdfrwt>
<totfact> 0.60033651E+02</totfact>
</mgrwt>
</event>
<event>
 4    1  0.5621415E-005  0.8223425E+03  0.7818608E-02  0.9528229E-01
         -2   -1    0    0    0  501 -0.00000000000E+00  0.00000000000E+00  0.26814431303E+03  0.26814431304E+03  0.25500000000E-02 0. -1.
          2   -1    0    0  501    0  0.00000000000E+00 -0.00000000000E+00 -0.63048805088E+03  0.63048805089E+03  0.25500000000E-02 0.  1.
    5000001    1    1    2    0    0  0.17652394628E+03  0.31699024055E+03 -0.15544483870E+03  0.43894260911E+03  0.19200000000E+03 0.  0.
   -5000001    1    1    2    0    0 -0.17652394628E+03 -0.31699024055E+03 -0.20689889915E+03  0.45968975482E+03  0.19200000000E+03 0.  0.
<mgrwt>
<rscale>  0 0.82234247E+03</rscale>
<asrwt>0</asrwt>
<pdfrwt beam="1">  1        2 0.90069722E-01 0.82234247E+03</pdfrwt>
<pdfrwt beam="2">  1       -2 0.38306330E-01 0.82234247E+03</pdfrwt>
<totfact> 0.33035423E+02</totfact>
</mgrwt>
</event>
<event>
 4    1  0.5621415E-005  0.6571705E+03  0.7818608E-02  0.9793416E-01
          2   -1    0    0  501    0  0.00000000000E+00  0.00000000000E+00  0.28181307422E+03  0.28181307423E+03  0.25500000000E-02 0.  1.
         -2   -1    0    0    0  501 -0.00000000000E+00 -0.00000000000E+00 -0.38312016905E+03  0.38312016905E+03  0.25500000000E-02 0. -1.
    5000001    1    1    2    0    0 -0.22112622085E+03  0.74158525697E+02 -0.18143975575E+03  0.35239278858E+03  0.19200000000E+03 0.  0.
   -5000001    1    1    2    0    0  0.22112622085E+03 -0.74158525697E+02  0.80132660921E+02  0.31254045470E+03  0.19200000000E+03 0.  0.
<mgrwt>
<rscale>  0 0.65717052E+03</rscale>
<asrwt>0</asrwt>
<pdfrwt beam="1">  1        2 0.40259011E-01 0.65717052E+03</pdfrwt>
<pdfrwt beam="2">  1       -2 0.54731452E-01 0.65717052E+03</pdfrwt>
<totfact> 0.40510015E+02</totfact>
</mgrwt>
</event>
<event>
 4    1  0.5621415E-005  0.4915104E+03  0.7818608E-02  0.1016019E+00
         -2   -1    0    0    0  501 -0.00000000000E+00  0.00000000000E+00  0.45797900028E+03  0.45797900028E+03  0.25500000000E-02 0. -1.
          2   -1    0    0  501    0  0.00000000000E+00 -0.00000000000E+00 -0.13187422664E+03  0.13187422667E+03  0.25500000000E-02 0.  1.
    5000001    1    1    2    0    0  0.12627244787E+03 -0.35179270314E+01  0.58607119618E+02  0.23718326537E+03  0.19200000000E+03 0.  0.
   -5000001    1    1    2    0    0 -0.12627244787E+03  0.35179270314E+01  0.26749765401E+03  0.35266996158E+03  0.19200000000E+03 0.  0.
<mgrwt>
<rscale>  0 0.49151043E+03</rscale>
<asrwt>0</asrwt>
<pdfrwt beam="1">  1        2 0.18839175E-01 0.49151043E+03</pdfrwt>
<pdfrwt beam="2">  1       -2 0.65425572E-01 0.49151043E+03</pdfrwt>
<totfact> 0.66061628E+02</totfact>
</mgrwt>
</event>
<event>
 4    1  0.5621415E-005  0.4783400E+03  0.7818608E-02  0.1019592E+00
          2   -1    0    0  501    0  0.00000000000E+00  0.00000000000E+00  0.23461334445E+04  0.23461334445E+04  0.25500000000E-02 0.  1.
         -2   -1    0    0    0  501 -0.00000000000E+00 -0.00000000000E+00 -0.24381514322E+02  0.24381514455E+02  0.25500000000E-02 0. -1.
    5000001    1    1    2    0    0  0.96119784704E+02 -0.10534977443E+03  0.11567345993E+04  0.11812013042E+04  0.19200000000E+03 0.  0.
   -5000001    1    1    2    0    0 -0.96119784704E+02  0.10534977443E+03  0.11650173309E+04  0.11893136547E+04  0.19200000000E+03 0.  0.
<mgrwt>
<rscale>  0 0.47833999E+03</rscale>
<asrwt>0</asrwt>
<pdfrwt beam="1">  1        2 0.33516177E+00 0.47833999E+03</pdfrwt>
<pdfrwt beam="2">  1       -2 0.34830751E-02 0.47833999E+03</pdfrwt>
<totfact> 0.19964184E+03</totfact>
</mgrwt>
</event>
<event>
 4    1  0.5621415E-005  0.6542530E+03  0.7818608E-02  0.9798831E-01
         -2   -1    0    0    0  501 -0.00000000000E+00  0.00000000000E+00  0.74543235688E+02  0.74543235732E+02  0.25500000000E-02 0. -1.
          2   -1    0    0  501    0  0.00000000000E+00 -0.00000000000E+00 -0.14355661833E+04  0.14355661833E+04  0.25500000000E-02 0.  1.
    5000001    1    1    2    0    0 -0.23762634156E+03  0.34139811758E+02 -0.93873421475E+03  0.98778425322E+03  0.19200000000E+03 0.  0.
   -5000001    1    1    2    0    0  0.23762634156E+03 -0.34139811758E+02 -0.42228873287E+03  0.52232516583E+03  0.19200000000E+03 0.  0.
<mgrwt>
<rscale>  0 0.65425300E+03</rscale>
<asrwt>0</asrwt>
<pdfrwt beam="1">  1        2 0.20508087E+00 0.65425300E+03</pdfrwt>
<pdfrwt beam="2">  1       -2 0.10649035E-01 0.65425300E+03</pdfrwt>
<totfact> 0.99213883E+02</totfact>
</mgrwt>
</event>
<event>
 4    1  0.5621415E-005  0.7538880E+03  0.7818608E-02  0.9629270E-01
         -2   -1    0    0    0  501 -0.00000000000E+00  0.00000000000E+00  0.94345802958E+02  0.94345802993E+02  0.25500000000E-02 0. -1.
          2   -1    0    0  501    0  0.00000000000E+00 -0.00000000000E+00 -0.15060212105E+04  0.15060212105E+04  0.25500000000E-02 0.  1.
    5000001    1    1    2    0    0 -0.25248611266E+03  0.65681575409E+02 -0.11150489281E+04  0.11611465964E+04  0.19200000000E+03 0.  0.
   -5000001    1    1    2    0    0  0.25248611266E+03 -0.65681575409E+02 -0.29662647948E+03  0.43922041706E+03  0.19200000000E+03 0.  0.
<mgrwt>
<rscale>  0 0.75388800E+03</rscale>
<asrwt>0</asrwt>
<pdfrwt beam="1">  1        2 0.21514587E+00 0.75388800E+03</pdfrwt>
<pdfrwt beam="2">  1       -2 0.13477973E-01 0.75388800E+03</pdfrwt>
<totfact> 0.61454450E+02</totfact>
</mgrwt>
</event>
<event>
 4    1  0.5621415E-005  0.5125877E+03  0.7818608E-02  0.1010545E+00
         -2   -1    0    0    0  501 -0.00000000000E+00  0.00000000000E+00  0.13528110766E+02  0.13528111007E+02  0.25500000000E-02 0. -1.
          2   -1    0    0  501    0  0.00000000000E+00 -0.00000000000E+00 -0.48555595391E+04  0.48555595391E+04  0.25500000000E-02 0.  1.
    5000001    1    1    2    0    0 -0.10858399593E+03 -0.11643697081E+03 -0.29809347797E+04  0.29913515696E+04  0.19200000000E+03 0.  0.
   -5000001    1    1    2    0    0  0.10858399593E+03  0.11643697081E+03 -0.18610966487E+04  0.18777360805E+04  0.19200000000E+03 0.  0.
<mgrwt>
<rscale>  0 0.51258774E+03</rscale>
<asrwt>0</asrwt>
<pdfrwt beam="1">  1        2 0.69365025E+00 0.51258774E+03</pdfrwt>
<pdfrwt beam="2">  1       -2 0.19325904E-02 0.51258774E+03</pdfrwt>
<totfact> 0.12605303E+02</totfact>
</mgrwt>
</event>
<event>
 4    1  0.5621415E-005  0.4784236E+03  0.7818608E-02  0.1019569E+00
          2   -1    0    0  501    0  0.00000000000E+00  0.00000000000E+00  0.15975558937E+04  0.15975558937E+04  0.25500000000E-02 0.  1.
         -2   -1    0    0    0  501 -0.00000000000E+00 -0.00000000000E+00 -0.35818646163E+02  0.35818646253E+02  0.25500000000E-02 0. -1.
    5000001    1    1    2    0    0  0.10699393859E+02  0.11232057536E+03  0.48269056272E+03  0.53158683958E+03  0.19200000000E+03 0.  0.
   -5000001    1    1    2    0    0 -0.10699393859E+02 -0.11232057536E+03  0.10790466849E+04  0.11017877004E+04  0.19200000000E+03 0.  0.
<mgrwt>
<rscale>  0 0.47842362E+03</rscale>
<asrwt>0</asrwt>
<pdfrwt beam="1">  1        2 0.22822231E+00 0.47842362E+03</pdfrwt>
<pdfrwt beam="2">  1       -2 0.51169485E-02 0.47842362E+03</pdfrwt>
<totfact> 0.26265252E+03</totfact>
</mgrwt>
</event>
<event>
 4    1  0.5621415E-005  0.5033394E+03  0.7818608E-02  0.1012911E+00
          2   -1    0    0  501    0  0.00000000000E+00  0.00000000000E+00  0.31078147060E+03  0.31078147061E+03  0.25500000000E-02 0.  1.
         -2   -1    0    0    0  501 -0.00000000000E+00 -0.00000000000E+00 -0.20380119448E+03  0.20380119450E+03  0.25500000000E-02 0. -1.
    5000001    1    1    2    0    0 -0.12480225035E+03 -0.41579869243E+02 -0.44404458231E+02  0.23693932373E+03  0.19200000000E+03 0.  0.
   -5000001    1    1    2    0    0  0.12480225035E+03  0.41579869243E+02  0.15138473435E+03  0.27764334138E+03  0.19200000000E+03 0.  0.
<mgrwt>
<rscale>  0 0.50333939E+03</rscale>
<asrwt>0</asrwt>
<pdfrwt beam="1">  1        2 0.44397353E-01 0.50333939E+03</pdfrwt>
<pdfrwt beam="2">  1       -2 0.29114456E-01 0.50333939E+03</pdfrwt>
<totfact> 0.12413568E+03</totfact>
</mgrwt>
</event>
<event>
 4    1  0.5621415E-005  0.4443401E+03  0.7818608E-02  0.1029423E+00
          2   -1    0    0  501    0  0.00000000000E+00  0.00000000000E+00  0.12404940489E+04  0.12404940489E+04  0.25500000000E-02 0.  1.
         -2   -1    0    0    0  501 -0.00000000000E+00 -0.00000000000E+00 -0.39790214699E+02  0.39790214781E+02  0.25500000000E-02 0. -1.
    5000001    1    1    2    0    0  0.13071448479E+02  0.11085785472E+03  0.61744613146E+03  0.65617379708E+03  0.19200000000E+03 0.  0.
   -5000001    1    1    2    0    0 -0.13071448479E+02 -0.11085785472E+03  0.58325770273E+03  0.62411046660E+03  0.19200000000E+03 0.  0.
<mgrwt>
<rscale>  0 0.44434007E+03</rscale>
<asrwt>0</asrwt>
<pdfrwt beam="1">  1        2 0.17721346E+00 0.44434007E+03</pdfrwt>
<pdfrwt beam="2">  1       -2 0.56843155E-02 0.44434007E+03</pdfrwt>
<totfact> 0.34384838E+03</totfact>
</mgrwt>
</event>
<event>
 4    1  0.5621415E-005  0.5666596E+03  0.7818608E-02  0.9977098E-01
          2   -1    0    0  501    0  0.00000000000E+00  0.00000000000E+00  0.13898001395E+03  0.13898001398E+03  0.25500000000E-02 0.  1.
         -2   -1    0    0    0  501 -0.00000000000E+00 -0.00000000000E+00 -0.57760666721E+03  0.57760666722E+03  0.25500000000E-02 0. -1.
    5000001    1    1    2    0    0  0.32234963646E+02 -0.20030587947E+03 -0.27930090236E+03  0.39501206601E+03  0.19200000000E+03 0.  0.
   -5000001    1    1    2    0    0 -0.32234963646E+02  0.20030587947E+03 -0.15932575090E+03  0.32157461518E+03  0.19200000000E+03 0.  0.
<mgrwt>
<rscale>  0 0.56665963E+03</rscale>
<asrwt>0</asrwt>
<pdfrwt beam="1">  1        2 0.19854288E-01 0.56665963E+03</pdfrwt>
<pdfrwt beam="2">  1       -2 0.82515237E-01 0.56665963E+03</pdfrwt>
<totfact> 0.37318955E+02</totfact>
</mgrwt>
</event>
<event>
 4    1  0.5621415E-005  0.6702358E+03  0.7818608E-02  0.9769532E-01
         -2   -1    0    0    0  501 -0.00000000000E+00  0.00000000000E+00  0.94353033308E+02  0.94353033342E+02  0.25500000000E-02 0. -1.
          2   -1    0    0  501    0  0.00000000000E+00 -0.00000000000E+00 -0.11902531042E+04  0.11902531043E+04  0.25500000000E-02 0.  1.
    5000001    1    1    2    0    0 -0.22270730821E+02  0.26192954945E+03 -0.39537573271E+03  0.51214162528E+03  0.19200000000E+03 0.  0.
   -5000001    1    1    2    0    0  0.22270730821E+02 -0.26192954945E+03 -0.70052433823E+03  0.77246451231E+03  0.19200000000E+03 0.  0.
<mgrwt>
<rscale>  0 0.67023575E+03</rscale>
<asrwt>0</asrwt>
<pdfrwt beam="1">  1        2 0.17003615E+00 0.67023575E+03</pdfrwt>
<pdfrwt beam="2">  1       -2 0.13479006E-01 0.67023575E+03</pdfrwt>
<totfact> 0.91439921E+02</totfact>
</mgrwt>
</event>
<event>
 4    1  0.5621415E-005  0.5230580E+03  0.7818608E-02  0.1007930E+00
         -2   -1    0    0    0  501 -0.00000000000E+00  0.00000000000E+00  0.24230578755E+02  0.24230578889E+02  0.25500000000E-02 0. -1.
          2   -1    0    0  501    0  0.00000000000E+00 -0.00000000000E+00 -0.28227724004E+04  0.28227724004E+04  0.25500000000E-02 0.  1.
    5000001    1    1    2    0    0  0.13022489881E+03  0.11217394958E+03 -0.11563467190E+04  0.11847123085E+04  0.19200000000E+03 0.  0.
   -5000001    1    1    2    0    0 -0.13022489881E+03 -0.11217394958E+03 -0.16421951026E+04  0.16622906708E+04  0.19200000000E+03 0.  0.
<mgrwt>
<rscale>  0 0.52305797E+03</rscale>
<asrwt>0</asrwt>
<pdfrwt beam="1">  1        2 0.40325299E+00 0.52305797E+03</pdfrwt>
<pdfrwt beam="2">  1       -2 0.34615130E-02 0.52305797E+03</pdfrwt>
<totfact> 0.11420165E+03</totfact>
</mgrwt>
</event>
<event>
 4    1  0.5621415E-005  0.5965191E+03  0.7818608E-02  0.9912654E-01
         -2   -1    0    0    0  501 -0.00000000000E+00  0.00000000000E+00  0.62264333394E+02  0.62264333446E+02  0.25500000000E-02 0. -1.
          2   -1    0    0  501    0  0.00000000000E+00 -0.00000000000E+00 -0.14287276302E+04  0.14287276302E+04  0.25500000000E-02 0.  1.
    5000001    1    1    2    0    0 -0.59019702848E+02  0.19192077300E+03 -0.41197262019E+03  0.49689269286E+03  0.19200000000E+03 0.  0.
   -5000001    1    1    2    0    0  0.59019702848E+02 -0.19192077300E+03 -0.95449067664E+03  0.99409927081E+03  0.19200000000E+03 0.  0.
<mgrwt>
<rscale>  0 0.59651915E+03</rscale>
<asrwt>0</asrwt>
<pdfrwt beam="1">  1        2 0.20410393E+00 0.59651915E+03</pdfrwt>
<pdfrwt beam="2">  1       -2 0.88949057E-02 0.59651915E+03</pdfrwt>
<totfact> 0.13416987E+03</totfact>
</mgrwt>
</event>
<event>
 4    1  0.5621415E-005  0.4870144E+03  0.7818608E-02  0.1017225E+00
         -2   -1    0    0    0  501 -0.00000000000E+00  0.00000000000E+00  0.15057943357E+03  0.15057943359E+03  0.25500000000E-02 0. -1.
          2   -1    0    0  501    0  0.00000000000E+00 -0.00000000000E+00 -0.39378397289E+03  0.39378397289E+03  0.25500000000E-02 0.  1.
    5000001    1    1    2    0    0 -0.14001324007E+03 -0.52269211579E+02 -0.13255341247E+03  0.27707433124E+03  0.19200000000E+03 0.  0.
   -5000001    1    1    2    0    0  0.14001324007E+03  0.52269211579E+02 -0.11065112685E+03  0.26728907525E+03  0.19200000000E+03 0.  0.
<mgrwt>
<rscale>  0 0.48701445E+03</rscale>
<asrwt>0</asrwt>
<pdfrwt beam="1">  1        2 0.56254853E-01 0.48701445E+03</pdfrwt>
<pdfrwt beam="2">  1       -2 0.21511348E-01 0.48701445E+03</pdfrwt>
<totfact> 0.16444170E+03</totfact>
</mgrwt>
</event>
<event>
 4    1  0.5621415E-005  0.5629699E+03  0.7818608E-02  0.9985357E-01
         -2   -1    0    0    0  501 -0.00000000000E+00  0.00000000000E+00  0.68256012568E+02  0.68256012615E+02  0.25500000000E-02 0. -1.
          2   -1    0    0  501    0  0.00000000000E+00 -0.00000000000E+00 -0.11608322577E+04  0.11608322577E+04  0.25500000000E-02 0.  1.
    5000001    1    1    2    0    0  0.91833898192E+02 -0.16946682888E+03 -0.38859192585E+03  0.47436289461E+03  0.19200000000E+03 0.  0.
   -5000001    1    1    2    0    0 -0.91833898192E+02  0.16946682888E+03 -0.70398431933E+03  0.75472537576E+03  0.19200000000E+03 0.  0.
<mgrwt>
<rscale>  0 0.56296991E+03</rscale>
<asrwt>0</asrwt>
<pdfrwt beam="1">  1        2 0.16583317E+00 0.56296991E+03</pdfrwt>
<pdfrwt beam="2">  1       -2 0.97508596E-02 0.56296991E+03</pdfrwt>
<totfact> 0.16210324E+03</totfact>
</mgrwt>
</event>
<event>
 4    1  0.5621415E-005  0.7618306E+03  0.7818608E-02  0.9616971E-01
          2   -1    0    0  501    0  0.00000000000E+00  0.00000000000E+00  0.41759418141E+03  0.41759418142E+03  0.25500000000E-02 0.  1.
         -2   -1    0    0    0  501 -0.00000000000E+00 -0.00000000000E+00 -0.34745808317E+03  0.34745808318E+03  0.25500000000E-02 0. -1.
    5000001    1    1    2    0    0  0.25313091283E+03  0.86204809302E+02 -0.15738250852E+03  0.36488324456E+03  0.19200000000E+03 0.  0.
   -5000001    1    1    2    0    0 -0.25313091283E+03 -0.86204809302E+02  0.22751860676E+03  0.40016902004E+03  0.19200000000E+03 0.  0.
<mgrwt>
<rscale>  0 0.76183062E+03</rscale>
<asrwt>0</asrwt>
<pdfrwt beam="1">  1        2 0.59656312E-01 0.76183062E+03</pdfrwt>
<pdfrwt beam="2">  1       -2 0.49636869E-01 0.76183062E+03</pdfrwt>
<totfact> 0.31874418E+02</totfact>
</mgrwt>
</event>
<event>
 4    1  0.5621415E-005  0.4420110E+03  0.7818608E-02  0.1030132E+00
          2   -1    0    0  501    0  0.00000000000E+00  0.00000000000E+00  0.14386448608E+04  0.14386448608E+04  0.25500000000E-02 0.  1.
         -2   -1    0    0    0  501 -0.00000000000E+00 -0.00000000000E+00 -0.33950995948E+02  0.33950996044E+02  0.25500000000E-02 0. -1.
    5000001    1    1    2    0    0  0.80384289209E+02 -0.71247846086E+02  0.63234117305E+03  0.66952016300E+03  0.19200000000E+03 0.  0.
   -5000001    1    1    2    0    0 -0.80384289209E+02  0.71247846086E+02  0.77235269184E+03  0.80307569389E+03  0.19200000000E+03 0.  0.
<mgrwt>
<rscale>  0 0.44201098E+03</rscale>
<asrwt>0</asrwt>
<pdfrwt beam="1">  1        2 0.20552071E+00 0.44201098E+03</pdfrwt>
<pdfrwt beam="2">  1       -2 0.48501419E-02 0.44201098E+03</pdfrwt>
<totfact> 0.34451835E+03</totfact>
</mgrwt>
</event>
<event>
 4    1  0.5621415E-005  0.5026675E+03  0.7818608E-02  0.1013085E+00
          2   -1    0    0  501    0  0.00000000000E+00  0.00000000000E+00  0.26646855287E+04  0.26646855287E+04  0.25500000000E-02 0.  1.
         -2   -1    0    0    0  501 -0.00000000000E+00 -0.00000000000E+00 -0.23705853941E+02  0.23705854079E+02  0.25500000000E-02 0. -1.
    5000001    1    1    2    0    0 -0.70131641184E+01  0.14853171472E+03  0.16668397847E+04  0.16844375093E+04  0.19200000000E+03 0.  0.
   -5000001    1    1    2    0    0  0.70131641184E+01 -0.14853171472E+03  0.97413989005E+03  0.10039538735E+04  0.19200000000E+03 0.  0.
<mgrwt>
<rscale>  0 0.50266747E+03</rscale>
<asrwt>0</asrwt>
<pdfrwt beam="1">  1        2 0.38066930E+00 0.50266747E+03</pdfrwt>
<pdfrwt beam="2">  1       -2 0.33865511E-02 0.50266747E+03</pdfrwt>
<totfact> 0.14307558E+03</totfact>
</mgrwt>
</event>
<event>
 4    1  0.5621415E-005  0.8255996E+03  0.7818608E-02  0.9523684E-01
          2   -1    0    0  501    0  0.00000000000E+00  0.00000000000E+00  0.48039448638E+03  0.48039448639E+03  0.25500000000E-02 0.  1.
         -2   -1    0    0    0  501 -0.00000000000E+00 -0.00000000000E+00 -0.35471614497E+03  0.35471614497E+03  0.25500000000E-02 0. -1.
    5000001    1    1    2    0    0 -0.11185184035E+02  0.33432858015E+03 -0.85957374762E+02  0.39516247054E+03  0.19200000000E+03 0.  0.
   -5000001    1    1    2    0    0  0.11185184035E+02 -0.33432858015E+03  0.21163571618E+03  0.43994816082E+03  0.19200000000E+03 0.  0.
<mgrwt>
<rscale>  0 0.82559961E+03</rscale>
<asrwt>0</asrwt>
<pdfrwt beam="1">  1        2 0.68627784E-01 0.82559961E+03</pdfrwt>
<pdfrwt beam="2">  1       -2 0.50673735E-01 0.82559961E+03</pdfrwt>
<totfact> 0.26026754E+02</totfact>
</mgrwt>
</event>
<event>
 4    1  0.5621415E-005  0.1012893E+04  0.7818608E-02  0.9294516E-01
          2   -1    0    0  501    0  0.00000000000E+00  0.00000000000E+00  0.33737129001E+03  0.33737129002E+03  0.25500000000E-02 0.  1.
         -2   -1    0    0    0  501 -0.00000000000E+00 -0.00000000000E+00 -0.76025467733E+03  0.76025467733E+03  0.25500000000E-02 0. -1.
    5000001    1    1    2    0    0 -0.88738897790E+01  0.26839125592E+03  0.20475985275E+03  0.38846262300E+03  0.19200000000E+03 0.  0.
   -5000001    1    1    2    0    0  0.88738897790E+01 -0.26839125592E+03 -0.62764324007E+03  0.70916334435E+03  0.19200000000E+03 0.  0.
<mgrwt>
<rscale>  0 0.10128931E+04</rscale>
<asrwt>0</asrwt>
<pdfrwt beam="1">  1        2 0.48195899E-01 0.10128931E+04</pdfrwt>
<pdfrwt beam="2">  1       -2 0.10860781E+00 0.10128931E+04</pdfrwt>
<totfact> 0.70768144E+01</totfact>
</mgrwt>
</event>
<event>
 4    1  0.5621415E-005  0.4426014E+03  0.7818608E-02  0.1029952E+00
         -2   -1    0    0    0  501 -0.00000000000E+00  0.00000000000E+00  0.36506457265E+02  0.36506457354E+02  0.25500000000E-02 0. -1.
          2   -1    0    0  501    0  0.00000000000E+00 -0.00000000000E+00 -0.13415161057E+04  0.13415161057E+04  0.25500000000E-02 0.  1.
    5000001    1    1    2    0    0  0.71079609247E+02  0.83366498575E+02 -0.62019127349E+03  0.65840982651E+03  0.19200000000E+03 0.  0.
   -5000001    1    1    2    0    0 -0.71079609247E+02 -0.83366498575E+02 -0.68481837498E+03  0.71961273658E+03  0.19200000000E+03 0.  0.
<mgrwt>
<rscale>  0 0.44260140E+03</rscale>
<asrwt>0</asrwt>
<pdfrwt beam="1">  1        2 0.19164513E+00 0.44260140E+03</pdfrwt>
<pdfrwt beam="2">  1       -2 0.52152090E-02 0.44260140E+03</pdfrwt>
<totfact> 0.34654608E+03</totfact>
</mgrwt>
</event>
<event>
 4    1  0.5621415E-005  0.6096068E+03  0.7818608E-02  0.9885673E-01
         -2   -1    0    0    0  501 -0.00000000000E+00  0.00000000000E+00  0.93540394348E+02  0.93540394383E+02  0.25500000000E-02 0. -1.
          2   -1    0    0  501    0  0.00000000000E+00 -0.00000000000E+00 -0.99320855445E+03  0.99320855445E+03  0.25500000000E-02 0.  1.
    5000001    1    1    2    0    0  0.77262375531E+02  0.15617223329E+03 -0.73552261027E+03  0.77988252406E+03  0.19200000000E+03 0.  0.
   -5000001    1    1    2    0    0 -0.77262375531E+02 -0.15617223329E+03 -0.16414554983E+03  0.30686642477E+03  0.19200000000E+03 0.  0.
<mgrwt>
<rscale>  0 0.60960682E+03</rscale>
<asrwt>0</asrwt>
<pdfrwt beam="1">  1        2 0.14188693E+00 0.60960682E+03</pdfrwt>
<pdfrwt beam="2">  1       -2 0.13362914E-01 0.60960682E+03</pdfrwt>
<totfact> 0.12123979E+03</totfact>
</mgrwt>
</event>
<event>
 4    1  0.5621415E-005  0.7190306E+03  0.7818608E-02  0.9685230E-01
         -2   -1    0    0    0  501 -0.00000000000E+00  0.00000000000E+00  0.31355982238E+03  0.31355982239E+03  0.25500000000E-02 0. -1.
          2   -1    0    0  501    0  0.00000000000E+00 -0.00000000000E+00 -0.41220600116E+03  0.41220600117E+03  0.25500000000E-02 0.  1.
    5000001    1    1    2    0    0  0.10861005352E+02  0.28616563811E+03 -0.15215232121E+03  0.37685947344E+03  0.19200000000E+03 0.  0.
   -5000001    1    1    2    0    0 -0.10861005352E+02 -0.28616563811E+03  0.53506142437E+02  0.34890635012E+03  0.19200000000E+03 0.  0.
<mgrwt>
<rscale>  0 0.71903057E+03</rscale>
<asrwt>0</asrwt>
<pdfrwt beam="1">  1        2 0.58886571E-01 0.71903057E+03</pdfrwt>
<pdfrwt beam="2">  1       -2 0.44794261E-01 0.71903057E+03</pdfrwt>
<totfact> 0.39802709E+02</totfact>
</mgrwt>
</event>
<event>
 4    1  0.5621415E-005  0.5656050E+03  0.7818608E-02  0.9979452E-01
          2   -1    0    0  501    0  0.00000000000E+00  0.00000000000E+00  0.17735953239E+03  0.17735953241E+03  0.25500000000E-02 0.  1.
         -2   -1    0    0    0  501 -0.00000000000E+00 -0.00000000000E+00 -0.45093291944E+03  0.45093291945E+03  0.25500000000E-02 0. -1.
    5000001    1    1    2    0    0 -0.19157911099E+03  0.71455361628E+02 -0.96660762665E+02  0.29667444701E+03  0.19200000000E+03 0.  0.
   -5000001    1    1    2    0    0  0.19157911099E+03 -0.71455361628E+02 -0.17691262438E+03  0.33161800485E+03  0.19200000000E+03 0.  0.
<mgrwt>
<rscale>  0 0.56560499E+03</rscale>
<asrwt>0</asrwt>
<pdfrwt beam="1">  1        2 0.25337076E-01 0.56560499E+03</pdfrwt>
<pdfrwt beam="2">  1       -2 0.64418988E-01 0.56560499E+03</pdfrwt>
<totfact> 0.48442359E+02</totfact>
</mgrwt>
</event>
<event>
 4    1  0.5621415E-005  0.5110998E+03  0.7818608E-02  0.1010922E+00
         -2   -1    0    0    0  501 -0.00000000000E+00  0.00000000000E+00  0.31256920651E+03  0.31256920652E+03  0.25500000000E-02 0. -1.
          2   -1    0    0  501    0  0.00000000000E+00 -0.00000000000E+00 -0.20893213505E+03  0.20893213506E+03  0.25500000000E-02 0.  1.
    5000001    1    1    2    0    0 -0.12236639969E+03  0.11219639812E+03  0.82090213344E+02  0.26676650961E+03  0.19200000000E+03 0.  0.
   -5000001    1    1    2    0    0  0.12236639969E+03 -0.11219639812E+03  0.21546858120E+02  0.25473483197E+03  0.19200000000E+03 0.  0.
<mgrwt>
<rscale>  0 0.51109980E+03</rscale>
<asrwt>0</asrwt>
<pdfrwt beam="1">  1        2 0.29847448E-01 0.51109980E+03</pdfrwt>
<pdfrwt beam="2">  1       -2 0.44652743E-01 0.51109980E+03</pdfrwt>
<totfact> 0.85437104E+02</totfact>
</mgrwt>
</event>
<event>
 4    1  0.5621415E-005  0.1290997E+04  0.7818608E-02  0.9036735E-01
          2   -1    0    0  501    0  0.00000000000E+00  0.00000000000E+00  0.50656684527E+03  0.50656684528E+03  0.25500000000E-02 0.  1.
         -2   -1    0    0    0  501 -0.00000000000E+00 -0.00000000000E+00 -0.82253332652E+03  0.82253332652E+03  0.25500000000E-02 0. -1.
    5000001    1    1    2    0    0  0.36270249704E+03  0.46880745282E+03 -0.33169561939E+03  0.70584666402E+03  0.19200000000E+03 0.  0.
   -5000001    1    1    2    0    0 -0.36270249704E+03 -0.46880745282E+03  0.15729138147E+02  0.62325350779E+03  0.19200000000E+03 0.  0.
<mgrwt>
<rscale>  0 0.12909967E+04</rscale>
<asrwt>0</asrwt>
<pdfrwt beam="1">  1        2 0.72366693E-01 0.12909967E+04</pdfrwt>
<pdfrwt beam="2">  1       -2 0.11750476E+00 0.12909967E+04</pdfrwt>
<totfact> 0.36326364E+01</totfact>
</mgrwt>
</event>
<event>
 4    1  0.5621415E-005  0.4312039E+03  0.7818608E-02  0.1033480E+00
         -2   -1    0    0    0  501 -0.00000000000E+00  0.00000000000E+00  0.83308925804E+03  0.83308925804E+03  0.25500000000E-02 0. -1.
          2   -1    0    0  501    0  0.00000000000E+00 -0.00000000000E+00 -0.55797388905E+02  0.55797388963E+02  0.25500000000E-02 0.  1.
    5000001    1    1    2    0    0 -0.97951671465E+02  0.50270394688E+01  0.38995664315E+03  0.44558947991E+03  0.19200000000E+03 0.  0.
   -5000001    1    1    2    0    0  0.97951671465E+02 -0.50270394688E+01  0.38733522598E+03  0.44329716710E+03  0.19200000000E+03 0.  0.
<mgrwt>
<rscale>  0 0.43120392E+03</rscale>
<asrwt>0</asrwt>
<pdfrwt beam="1">  1        2 0.79710569E-02 0.43120392E+03</pdfrwt>
<pdfrwt beam="2">  1       -2 0.11901273E+00 0.43120392E+03</pdfrwt>
<totfact> 0.48701923E+02</totfact>
</mgrwt>
</event>
<event>
 4    1  0.5621415E-005  0.5659700E+03  0.7818608E-02  0.9978636E-01
         -2   -1    0    0    0  501 -0.00000000000E+00  0.00000000000E+00  0.76151465763E+02  0.76151465805E+02  0.25500000000E-02 0. -1.
          2   -1    0    0  501    0  0.00000000000E+00 -0.00000000000E+00 -0.10515952975E+04  0.10515952975E+04  0.25500000000E-02 0.  1.
    5000001    1    1    2    0    0 -0.12176790020E+03  0.15619126031E+03 -0.61364029201E+03  0.67278639945E+03  0.19200000000E+03 0.  0.
   -5000001    1    1    2    0    0  0.12176790020E+03 -0.15619126031E+03 -0.36180353973E+03  0.45496036385E+03  0.19200000000E+03 0.  0.
<mgrwt>
<rscale>  0 0.56597005E+03</rscale>
<asrwt>0</asrwt>
<pdfrwt beam="1">  1        2 0.15022789E+00 0.56597005E+03</pdfrwt>
<pdfrwt beam="2">  1       -2 0.10878781E-01 0.56597005E+03</pdfrwt>
<totfact> 0.15700466E+03</totfact>
</mgrwt>
</event>
<event>
 4    1  0.5621415E-005  0.5239027E+03  0.7818608E-02  0.1007722E+00
          2   -1    0    0  501    0  0.00000000000E+00  0.00000000000E+00  0.13672648862E+04  0.13672648862E+04  0.25500000000E-02 0.  1.
         -2   -1    0    0    0  501 -0.00000000000E+00 -0.00000000000E+00 -0.50186693550E+02  0.50186693615E+02  0.25500000000E-02 0. -1.
    5000001    1    1    2    0    0  0.13533035564E+03 -0.11529627317E+03  0.69133874526E+03  0.73920281145E+03  0.19200000000E+03 0.  0.
   -5000001    1    1    2    0    0 -0.13533035564E+03  0.11529627317E+03  0.62573944737E+03  0.67824876834E+03  0.19200000000E+03 0.  0.
<mgrwt>
<rscale>  0 0.52390268E+03</rscale>
<asrwt>0</asrwt>
<pdfrwt beam="1">  1        2 0.19532359E+00 0.52390268E+03</pdfrwt>
<pdfrwt beam="2">  1       -2 0.71695265E-02 0.52390268E+03</pdfrwt>
<totfact> 0.20422368E+03</totfact>
</mgrwt>
</event>
<event>
 4    1  0.5621415E-005  0.5123736E+03  0.7818608E-02  0.1010599E+00
          2   -1    0    0  501    0  0.00000000000E+00  0.00000000000E+00  0.11815659728E+03  0.11815659731E+03  0.25500000000E-02 0.  1.
         -2   -1    0    0    0  501 -0.00000000000E+00 -0.00000000000E+00 -0.55546360145E+03  0.55546360146E+03  0.25500000000E-02 0. -1.
    5000001    1    1    2    0    0 -0.14353937707E+03  0.77469513941E+02 -0.15751462051E+03  0.29711939357E+03  0.19200000000E+03 0.  0.
   -5000001    1    1    2    0    0  0.14353937707E+03 -0.77469513941E+02 -0.27979238366E+03  0.37650080520E+03  0.19200000000E+03 0.  0.
<mgrwt>
<rscale>  0 0.51237365E+03</rscale>
<asrwt>0</asrwt>
<pdfrwt beam="1">  1        2 0.16879514E-01 0.51237365E+03</pdfrwt>
<pdfrwt beam="2">  1       -2 0.79351941E-01 0.51237365E+03</pdfrwt>
<totfact> 0.49374913E+02</totfact>
</mgrwt>
</event>
<event>
 4    1  0.5621415E-005  0.5053510E+03  0.7818608E-02  0.1012392E+00
          2   -1    0    0  501    0  0.00000000000E+00  0.00000000000E+00  0.10303380444E+04  0.10303380444E+04  0.25500000000E-02 0.  1.
         -2   -1    0    0    0  501 -0.00000000000E+00 -0.00000000000E+00 -0.61964999547E+02  0.61964999599E+02  0.25500000000E-02 0. -1.
    5000001    1    1    2    0    0 -0.45411217368E+02 -0.10926033699E+03  0.23792168869E+03  0.32782728662E+03  0.19200000000E+03 0.  0.
   -5000001    1    1    2    0    0  0.45411217368E+02  0.10926033699E+03  0.73045135612E+03  0.76447575734E+03  0.19200000000E+03 0.  0.
<mgrwt>
<rscale>  0 0.50535095E+03</rscale>
<asrwt>0</asrwt>
<pdfrwt beam="1">  1        2 0.14719115E+00 0.50535095E+03</pdfrwt>
<pdfrwt beam="2">  1       -2 0.88521428E-02 0.50535095E+03</pdfrwt>
<totfact> 0.22562597E+03</totfact>
</mgrwt>
</event>
<event>
 4    1  0.5621415E-005  0.7161077E+03  0.7818608E-02  0.9690076E-01
          2   -1    0    0  501    0  0.00000000000E+00  0.00000000000E+00  0.31096348887E+03  0.31096348888E+03  0.25500000000E-02 0. -1.
         -2   -1    0    0    0  501 -0.00000000000E+00 -0.00000000000E+00 -0.41227527686E+03  0.41227527687E+03  0.25500000000E-02 0.  1.
    5000001    1    1    2    0    0  0.80267240793E+02 -0.26056529037E+03 -0.18234396552E+03  0.38006633928E+03  0.19200000000E+03 0.  0.
   -5000001    1    1    2    0    0 -0.80267240793E+02  0.26056529037E+03  0.81032177536E+02  0.34317242647E+03  0.19200000000E+03 0.  0.
<mgrwt>
<rscale>  0 0.71610770E+03</rscale>
<asrwt>0</asrwt>
<pdfrwt beam="1">  1        2 0.44423356E-01 0.71610770E+03</pdfrwt>
<pdfrwt beam="2">  1       -2 0.58896468E-01 0.71610770E+03</pdfrwt>
<totfact> 0.31130779E+02</totfact>
</mgrwt>
</event>
<event>
 4    1  0.5621415E-005  0.7121722E+03  0.7818608E-02  0.9696640E-01
          2   -1    0    0  501    0  0.00000000000E+00  0.00000000000E+00  0.41016037517E+03  0.41016037518E+03  0.25500000000E-02 0.  1.
         -2   -1    0    0    0  501 -0.00000000000E+00 -0.00000000000E+00 -0.30914077759E+03  0.30914077760E+03  0.25500000000E-02 0. -1.
    5000001    1    1    2    0    0 -0.17314944108E+03  0.24118298752E+03  0.78575221228E+01  0.35366043470E+03  0.19200000000E+03 0.  0.
   -5000001    1    1    2    0    0  0.17314944108E+03 -0.24118298752E+03  0.93162075455E+02  0.36564071808E+03  0.19200000000E+03 0.  0.
<mgrwt>
<rscale>  0 0.71217216E+03</rscale>
<asrwt>0</asrwt>
<pdfrwt beam="1">  1        2 0.58594339E-01 0.71217216E+03</pdfrwt>
<pdfrwt beam="2">  1       -2 0.44162968E-01 0.71217216E+03</pdfrwt>
<totfact> 0.41176598E+02</totfact>
</mgrwt>
</event>
<event>
 4    1  0.5621415E-005  0.5960038E+03  0.7818608E-02  0.9913732E-01
          2   -1    0    0  501    0  0.00000000000E+00  0.00000000000E+00  0.23831548502E+04  0.23831548502E+04  0.25500000000E-02 0.  1.
         -2   -1    0    0    0  501 -0.00000000000E+00 -0.00000000000E+00 -0.37263680809E+02  0.37263680896E+02  0.25500000000E-02 0. -1.
    5000001    1    1    2    0    0  0.13979384986E+03  0.52277324199E+02  0.18724172138E+04  0.18881433901E+04  0.19200000000E+03 0.  0.
   -5000001    1    1    2    0    0 -0.13979384986E+03 -0.52277324199E+02  0.47347395555E+03  0.53227514095E+03  0.19200000000E+03 0.  0.
<mgrwt>
<rscale>  0 0.59600376E+03</rscale>
<asrwt>0</asrwt>
<pdfrwt beam="1">  1        2 0.34045076E+00 0.59600376E+03</pdfrwt>
<pdfrwt beam="2">  1       -2 0.53233819E-02 0.59600376E+03</pdfrwt>
<totfact> 0.98877976E+02</totfact>
</mgrwt>
</event>
<event>
 4    1  0.5621415E-005  0.6525844E+03  0.7818608E-02  0.9801942E-01
          2   -1    0    0  501    0  0.00000000000E+00  0.00000000000E+00  0.30171230150E+04  0.30171230150E+04  0.25500000000E-02 0.  1.
         -2   -1    0    0    0  501 -0.00000000000E+00 -0.00000000000E+00 -0.35287455728E+02  0.35287455820E+02  0.25500000000E-02 0. -1.
    5000001    1    1    2    0    0 -0.10462370075E+03  0.23007834524E+03  0.18446874867E+04  0.18717954182E+04  0.19200000000E+03 0.  0.
   -5000001    1    1    2    0    0  0.10462370075E+03 -0.23007834524E+03  0.11371480726E+04  0.11806150527E+04  0.19200000000E+03 0.  0.
<mgrwt>
<rscale>  0 0.65258439E+03</rscale>
<asrwt>0</asrwt>
<pdfrwt beam="1">  1        2 0.43101760E+00 0.65258439E+03</pdfrwt>
<pdfrwt beam="2">  1       -2 0.50410648E-02 0.65258439E+03</pdfrwt>
<totfact> 0.49765372E+02</totfact>
</mgrwt>
</event>
<event>
 4    1  0.5621415E-005  0.4388695E+03  0.7818608E-02  0.1031094E+00
         -2   -1    0    0    0  501 -0.00000000000E+00  0.00000000000E+00  0.24378339512E+02  0.24378339646E+02  0.25500000000E-02 0. -1.
          2   -1    0    0  501    0  0.00000000000E+00 -0.00000000000E+00 -0.19751804748E+04  0.19751804748E+04  0.25500000000E-02 0.  1.
    5000001    1    1    2    0    0 -0.20745825564E+02 -0.10053447907E+03 -0.85062142935E+03  0.87804236049E+03  0.19200000000E+03 0.  0.
   -5000001    1    1    2    0    0  0.20745825564E+02  0.10053447907E+03 -0.11001807059E+04  0.11215164539E+04  0.19200000000E+03 0.  0.
<mgrwt>
<rscale>  0 0.43886955E+03</rscale>
<asrwt>0</asrwt>
<pdfrwt beam="1">  1        2 0.28216854E+00 0.43886955E+03</pdfrwt>
<pdfrwt beam="2">  1       -2 0.34826212E-02 0.43886955E+03</pdfrwt>
<totfact> 0.30629628E+03</totfact>
</mgrwt>
</event>
<event>
 4    1  0.5621415E-005  0.5713941E+03  0.7818608E-02  0.9966598E-01
          2   -1    0    0  501    0  0.00000000000E+00  0.00000000000E+00  0.75052313653E+03  0.75052313654E+03  0.25500000000E-02 0.  1.
         -2   -1    0    0    0  501 -0.00000000000E+00 -0.00000000000E+00 -0.10875455034E+03  0.10875455037E+03  0.25500000000E-02 0. -1.
    5000001    1    1    2    0    0 -0.22083058945E+02  0.15457374391E+03  0.53555839193E+03  0.58997245271E+03  0.19200000000E+03 0.  0.
   -5000001    1    1    2    0    0  0.22083058945E+02 -0.15457374391E+03  0.10621019427E+03  0.26930523419E+03  0.19200000000E+03 0.  0.
<mgrwt>
<rscale>  0 0.57139411E+03</rscale>
<asrwt>0</asrwt>
<pdfrwt beam="1">  1        2 0.10721759E+00 0.57139411E+03</pdfrwt>
<pdfrwt beam="2">  1       -2 0.15536364E-01 0.57139411E+03</pdfrwt>
<totfact> 0.13631005E+03</totfact>
</mgrwt>
</event>
<event>
 4    1  0.5621415E-005  0.6447927E+03  0.7818608E-02  0.9816600E-01
          2   -1    0    0  501    0  0.00000000000E+00  0.00000000000E+00  0.17965783752E+04  0.17965783752E+04  0.25500000000E-02 0.  1.
         -2   -1    0    0    0  501 -0.00000000000E+00 -0.00000000000E+00 -0.57854091430E+02  0.57854091486E+02  0.25500000000E-02 0. -1.
    5000001    1    1    2    0    0 -0.17822570815E+03 -0.18789256357E+03  0.86154322325E+03  0.91988517981E+03  0.19200000000E+03 0.  0.
   -5000001    1    1    2    0    0  0.17822570815E+03  0.18789256357E+03  0.87718106054E+03  0.93454728690E+03  0.19200000000E+03 0.  0.
<mgrwt>
<rscale>  0 0.64479271E+03</rscale>
<asrwt>0</asrwt>
<pdfrwt beam="1">  1        2 0.25665403E+00 0.64479271E+03</pdfrwt>
<pdfrwt beam="2">  1       -2 0.82648709E-02 0.64479271E+03</pdfrwt>
<totfact> 0.97387010E+02</totfact>
</mgrwt>
</event>
<event>
 4    1  0.5621415E-005  0.4957524E+03  0.7818608E-02  0.1014894E+00
         -2   -1    0    0    0  501 -0.00000000000E+00  0.00000000000E+00  0.80600571698E+02  0.80600571739E+02  0.25500000000E-02 0. -1.
          2   -1    0    0  501    0  0.00000000000E+00 -0.00000000000E+00 -0.76230995710E+03  0.76230995710E+03  0.25500000000E-02 0.  1.
    5000001    1    1    2    0    0 -0.10073247477E+03 -0.13490018447E+02 -0.54381824639E+03  0.58560336165E+03  0.19200000000E+03 0.  0.
   -5000001    1    1    2    0    0  0.10073247477E+03  0.13490018447E+02 -0.13789113901E+03  0.25730716719E+03  0.19200000000E+03 0.  0.
<mgrwt>
<rscale>  0 0.49575243E+03</rscale>
<asrwt>0</asrwt>
<pdfrwt beam="1">  1        2 0.10890142E+00 0.49575243E+03</pdfrwt>
<pdfrwt beam="2">  1       -2 0.11514368E-01 0.49575243E+03</pdfrwt>
<totfact> 0.21985233E+03</totfact>
</mgrwt>
</event>
<event>
 4    1  0.5621415E-005  0.6361905E+03  0.7818608E-02  0.9833042E-01
         -2   -1    0    0    0  501 -0.00000000000E+00  0.00000000000E+00  0.12448801424E+04  0.12448801424E+04  0.25500000000E-02 0. -1.
          2   -1    0    0  501    0  0.00000000000E+00 -0.00000000000E+00 -0.81280586020E+02  0.81280586060E+02  0.25500000000E-02 0.  1.
    5000001    1    1    2    0    0 -0.17094236084E+03 -0.15791889559E+03  0.79192369314E+03  0.84744722789E+03  0.19200000000E+03 0.  0.
   -5000001    1    1    2    0    0  0.17094236084E+03  0.15791889559E+03  0.37167586326E+03  0.47871350058E+03  0.19200000000E+03 0.  0.
<mgrwt>
<rscale>  0 0.63619050E+03</rscale>
<asrwt>0</asrwt>
<pdfrwt beam="1">  1        2 0.11611512E-01 0.63619050E+03</pdfrwt>
<pdfrwt beam="2">  1       -2 0.17784002E+00 0.63619050E+03</pdfrwt>
<totfact> 0.10530059E+02</totfact>
</mgrwt>
</event>
<event>
 4    1  0.5621415E-005  0.5981864E+03  0.7818608E-02  0.9909176E-01
          2   -1    0    0  501    0  0.00000000000E+00  0.00000000000E+00  0.27960150244E+04  0.27960150244E+04  0.25500000000E-02 0.  1.
         -2   -1    0    0    0  501 -0.00000000000E+00 -0.00000000000E+00 -0.31994370148E+02  0.31994370249E+02  0.25500000000E-02 0. -1.
    5000001    1    1    2    0    0  0.21453871552E+03 -0.80784109435E+02  0.14118383143E+04  0.14431577732E+04  0.19200000000E+03 0.  0.
   -5000001    1    1    2    0    0 -0.21453871552E+03  0.80784109435E+02  0.13521823400E+04  0.13848516215E+04  0.19200000000E+03 0.  0.
<mgrwt>
<rscale>  0 0.59818639E+03</rscale>
<asrwt>0</asrwt>
<pdfrwt beam="1">  1        2 0.39943070E+00 0.59818639E+03</pdfrwt>
<pdfrwt beam="2">  1       -2 0.45706246E-02 0.59818639E+03</pdfrwt>
<totfact> 0.76542214E+02</totfact>
</mgrwt>
</event>
<event>
 4    1  0.5621415E-005  0.1165217E+04  0.7818608E-02  0.9143859E-01
         -2   -1    0    0    0  501 -0.00000000000E+00  0.00000000000E+00  0.11606924642E+03  0.11606924645E+03  0.25500000000E-02 0. -1.
          2   -1    0    0  501    0  0.00000000000E+00 -0.00000000000E+00 -0.29243980174E+04  0.29243980174E+04  0.25500000000E-02 0.  1.
    5000001    1    1    2    0    0  0.47374384737E+03  0.27644649000E+03 -0.15121545565E+04  0.16199787954E+04  0.19200000000E+03 0.  0.
   -5000001    1    1    2    0    0 -0.47374384737E+03 -0.27644649000E+03 -0.12961742144E+04  0.14204884684E+04  0.19200000000E+03 0.  0.
<mgrwt>
<rscale>  0 0.11652170E+04</rscale>
<asrwt>0</asrwt>
<pdfrwt beam="1">  1        2 0.41777110E+00 0.11652170E+04</pdfrwt>
<pdfrwt beam="2">  1       -2 0.16581323E-01 0.11652170E+04</pdfrwt>
<totfact> 0.76968676E+01</totfact>
</mgrwt>
</event>
<event>
 4    1  0.5621415E-005  0.5722680E+03  0.7818608E-02  0.9964672E-01
          2   -1    0    0  501    0  0.00000000000E+00  0.00000000000E+00  0.72971111053E+03  0.72971111053E+03  0.25500000000E-02 0.  1.
         -2   -1    0    0    0  501 -0.00000000000E+00 -0.00000000000E+00 -0.11219871985E+03  0.11219871988E+03  0.25500000000E-02 0. -1.
    5000001    1    1    2    0    0 -0.54254894275E+02 -0.16740384582E+03  0.13442891720E+03  0.29309175172E+03  0.19200000000E+03 0.  0.
   -5000001    1    1    2    0    0  0.54254894275E+02  0.16740384582E+03  0.48308347348E+03  0.54881807869E+03  0.19200000000E+03 0.  0.
<mgrwt>
<rscale>  0 0.57226795E+03</rscale>
<asrwt>0</asrwt>
<pdfrwt beam="1">  1        2 0.10424445E+00 0.57226795E+03</pdfrwt>
<pdfrwt beam="2">  1       -2 0.16028388E-01 0.57226795E+03</pdfrwt>
<totfact> 0.13390726E+03</totfact>
</mgrwt>
</event>
<event>
 4    1  0.5621415E-005  0.6406893E+03  0.7818608E-02  0.9824409E-01
          2   -1    0    0  501    0  0.00000000000E+00  0.00000000000E+00  0.78498481929E+03  0.78498481929E+03  0.25500000000E-02 0.  1.
         -2   -1    0    0    0  501 -0.00000000000E+00 -0.00000000000E+00 -0.13072953175E+03  0.13072953177E+03  0.25500000000E-02 0. -1.
    5000001    1    1    2    0    0 -0.19659099320E+03  0.37634511814E+02  0.55622191420E+03  0.62153937359E+03  0.19200000000E+03 0.  0.
   -5000001    1    1    2    0    0  0.19659099320E+03 -0.37634511814E+02  0.98033373345E+02  0.29417497748E+03  0.19200000000E+03 0.  0.
<mgrwt>
<rscale>  0 0.64068931E+03</rscale>
<asrwt>0</asrwt>
<pdfrwt beam="1">  1        2 0.11214069E+00 0.64068931E+03</pdfrwt>
<pdfrwt beam="2">  1       -2 0.18675647E-01 0.64068931E+03</pdfrwt>
<totfact> 0.93969043E+02</totfact>
</mgrwt>
</event>
<event>
 4    1  0.5621415E-005  0.3989899E+03  0.7818608E-02  0.1044130E+00
          2   -1    0    0  501    0  0.00000000000E+00  0.00000000000E+00  0.17889199870E+03  0.17889199872E+03  0.25500000000E-02 0. -1.
         -2   -1    0    0    0  501 -0.00000000000E+00 -0.00000000000E+00 -0.22247074692E+03  0.22247074693E+03  0.25500000000E-02 0.  1.
    5000001    1    1    2    0    0 -0.33597753211E+00 -0.53058987615E+02 -0.32756851888E+02  0.20187218826E+03  0.19200000000E+03 0.  0.
   -5000001    1    1    2    0    0  0.33597753211E+00  0.53058987615E+02 -0.10821896329E+02  0.19949055739E+03  0.19200000000E+03 0.  0.
<mgrwt>
<rscale>  0 0.39898991E+03</rscale>
<asrwt>0</asrwt>
<pdfrwt beam="1">  1        2 0.25556000E-01 0.39898991E+03</pdfrwt>
<pdfrwt beam="2">  1       -2 0.31781535E-01 0.39898991E+03</pdfrwt>
<totfact> 0.19444135E+03</totfact>
</mgrwt>
</event>
<event>
 4    1  0.5621415E-005  0.7706945E+03  0.7818608E-02  0.9603432E-01
         -2   -1    0    0    0  501 -0.00000000000E+00  0.00000000000E+00  0.22761071498E+03  0.22761071499E+03  0.25500000000E-02 0. -1.
          2   -1    0    0  501    0  0.00000000000E+00 -0.00000000000E+00 -0.65239686788E+03  0.65239686789E+03  0.25500000000E-02 0.  1.
    5000001    1    1    2    0    0  0.16559023229E+03  0.25291703653E+03 -0.49941461366E+02  0.36158719828E+03  0.19200000000E+03 0.  0.
   -5000001    1    1    2    0    0 -0.16559023229E+03 -0.25291703653E+03 -0.37484469154E+03  0.51842038460E+03  0.19200000000E+03 0.  0.
<mgrwt>
<rscale>  0 0.77069454E+03</rscale>
<asrwt>0</asrwt>
<pdfrwt beam="1">  1        2 0.93199552E-01 0.77069454E+03</pdfrwt>
<pdfrwt beam="2">  1       -2 0.32515817E-01 0.77069454E+03</pdfrwt>
<totfact> 0.43412139E+02</totfact>
</mgrwt>
</event>
<event>
 4    1  0.5621415E-005  0.6294285E+03  0.7818608E-02  0.9846165E-01
         -2   -1    0    0    0  501 -0.00000000000E+00  0.00000000000E+00  0.14969279079E+03  0.14969279081E+03  0.25500000000E-02 0. -1.
          2   -1    0    0  501    0  0.00000000000E+00 -0.00000000000E+00 -0.66165547034E+03  0.66165547035E+03  0.25500000000E-02 0.  1.
    5000001    1    1    2    0    0  0.55610880486E+02  0.23059338654E+03 -0.35512037275E+03  0.46823109582E+03  0.19200000000E+03 0.  0.
   -5000001    1    1    2    0    0 -0.55610880486E+02 -0.23059338654E+03 -0.15684230680E+03  0.34311716534E+03  0.19200000000E+03 0.  0.
<mgrwt>
<rscale>  0 0.62942848E+03</rscale>
<asrwt>0</asrwt>
<pdfrwt beam="1">  1        2 0.94522208E-01 0.62942848E+03</pdfrwt>
<pdfrwt beam="2">  1       -2 0.21384685E-01 0.62942848E+03</pdfrwt>
<totfact> 0.91702687E+02</totfact>
</mgrwt>
</event>
<event>
 4    1  0.5621415E-005  0.4807605E+03  0.7818608E-02  0.1018926E+00
         -2   -1    0    0    0  501 -0.00000000000E+00  0.00000000000E+00  0.89569124500E+03  0.89569124500E+03  0.25500000000E-02 0. -1.
          2   -1    0    0  501    0  0.00000000000E+00 -0.00000000000E+00 -0.64511812122E+02  0.64511812173E+02  0.25500000000E-02 0.  1.
    5000001    1    1    2    0    0  0.18699412015E+02 -0.13908710467E+03  0.34572063567E+03  0.41962083912E+03  0.19200000000E+03 0.  0.
   -5000001    1    1    2    0    0 -0.18699412015E+02  0.13908710467E+03  0.48545879721E+03  0.54058221806E+03  0.19200000000E+03 0.  0.
<mgrwt>
<rscale>  0 0.48076050E+03</rscale>
<asrwt>0</asrwt>
<pdfrwt beam="1">  1        2 0.92159735E-02 0.48076050E+03</pdfrwt>
<pdfrwt beam="2">  1       -2 0.12795589E+00 0.48076050E+03</pdfrwt>
<totfact> 0.33789345E+02</totfact>
</mgrwt>
</event>
<event>
 4    1  0.5621415E-005  0.8763474E+03  0.7818608E-02  0.9455641E-01
         -2   -1    0    0    0  501 -0.00000000000E+00  0.00000000000E+00  0.99036683043E+03  0.99036683044E+03  0.25500000000E-02 0. -1.
          2   -1    0    0  501    0  0.00000000000E+00 -0.00000000000E+00 -0.19386370463E+03  0.19386370464E+03  0.25500000000E-02 0.  1.
    5000001    1    1    2    0    0 -0.35559802758E+03 -0.16366159924E+03  0.45710960468E+03  0.63170267292E+03  0.19200000000E+03 0.  0.
   -5000001    1    1    2    0    0  0.35559802758E+03  0.16366159924E+03  0.33939352112E+03  0.55252786216E+03  0.19200000000E+03 0.  0.
<mgrwt>
<rscale>  0 0.87634738E+03</rscale>
<asrwt>0</asrwt>
<pdfrwt beam="1">  1        2 0.27694814E-01 0.87634738E+03</pdfrwt>
<pdfrwt beam="2">  1       -2 0.14148098E+00 0.87634738E+03</pdfrwt>
<totfact> 0.68420644E+01</totfact>
</mgrwt>
</event>
<event>
 4    1  0.5621415E-005  0.8723266E+03  0.7818608E-02  0.9460851E-01
         -2   -1    0    0    0  501 -0.00000000000E+00  0.00000000000E+00  0.34601567678E+03  0.34601567679E+03  0.25500000000E-02 0. -1.
          2   -1    0    0  501    0  0.00000000000E+00 -0.00000000000E+00 -0.54979717267E+03  0.54979717267E+03  0.25500000000E-02 0.  1.
    5000001    1    1    2    0    0 -0.33663964276E+03  0.19576180468E+03 -0.59233131507E+02  0.43820257544E+03  0.19200000000E+03 0.  0.
   -5000001    1    1    2    0    0  0.33663964276E+03 -0.19576180468E+03 -0.14454836438E+03  0.45761027403E+03  0.19200000000E+03 0.  0.
<mgrwt>
<rscale>  0 0.87232664E+03</rscale>
<asrwt>0</asrwt>
<pdfrwt beam="1">  1        2 0.78542453E-01 0.87232664E+03</pdfrwt>
<pdfrwt beam="2">  1       -2 0.49430811E-01 0.87232664E+03</pdfrwt>
<totfact> 0.23388653E+02</totfact>
</mgrwt>
</event>
<event>
 4    1  0.5621415E-005  0.6098543E+03  0.7818608E-02  0.9885170E-01
         -2   -1    0    0    0  501 -0.00000000000E+00  0.00000000000E+00  0.38108059784E+02  0.38108059870E+02  0.25500000000E-02 0. -1.
          2   -1    0    0  501    0  0.00000000000E+00 -0.00000000000E+00 -0.24399187032E+04  0.24399187032E+04  0.25500000000E-02 0.  1.
    5000001    1    1    2    0    0  0.12468924984E+03  0.12120924637E+03 -0.18545487051E+04  0.18725528003E+04  0.19200000000E+03 0.  0.
   -5000001    1    1    2    0    0 -0.12468924984E+03 -0.12120924637E+03 -0.54726193833E+03  0.60547396276E+03  0.19200000000E+03 0.  0.
<mgrwt>
<rscale>  0 0.60985430E+03</rscale>
<asrwt>0</asrwt>
<pdfrwt beam="1">  1        2 0.34855972E+00 0.60985430E+03</pdfrwt>
<pdfrwt beam="2">  1       -2 0.54440101E-02 0.60985430E+03</pdfrwt>
<totfact> 0.89247497E+02</totfact>
</mgrwt>
</event>
<event>
 4    1  0.5621415E-005  0.5923370E+03  0.7818608E-02  0.9921433E-01
         -2   -1    0    0    0  501 -0.00000000000E+00  0.00000000000E+00  0.69996452811E+02  0.69996452857E+02  0.25500000000E-02 0. -1.
          2   -1    0    0  501    0  0.00000000000E+00 -0.00000000000E+00 -0.12531462711E+04  0.12531462711E+04  0.25500000000E-02 0.  1.
    5000001    1    1    2    0    0  0.10619599522E+02  0.21863343133E+03 -0.47048825982E+03  0.55329608332E+03  0.19200000000E+03 0.  0.
   -5000001    1    1    2    0    0 -0.10619599522E+02 -0.21863343133E+03 -0.71266155850E+03  0.76984664067E+03  0.19200000000E+03 0.  0.
<mgrwt>
<rscale>  0 0.59233705E+03</rscale>
<asrwt>0</asrwt>
<pdfrwt beam="1">  1        2 0.17902088E+00 0.59233705E+03</pdfrwt>
<pdfrwt beam="2">  1       -2 0.99994941E-02 0.59233705E+03</pdfrwt>
<totfact> 0.13811692E+03</totfact>
</mgrwt>
</event>
<event>
 4    1  0.5621415E-005  0.7486264E+03  0.7818608E-02  0.9637508E-01
          2   -1    0    0  501    0  0.00000000000E+00  0.00000000000E+00  0.10725267152E+04  0.10725267152E+04  0.25500000000E-02 0.  1.
         -2   -1    0    0    0  501 -0.00000000000E+00 -0.00000000000E+00 -0.13063577865E+03  0.13063577868E+03  0.25500000000E-02 0. -1.
    5000001    1    1    2    0    0  0.16358401131E+03 -0.20571911359E+03  0.17387600625E+03  0.36902160913E+03  0.19200000000E+03 0.  0.
   -5000001    1    1    2    0    0 -0.16358401131E+03  0.20571911359E+03  0.76801493029E+03  0.83414088474E+03  0.19200000000E+03 0.  0.
<mgrwt>
<rscale>  0 0.74862638E+03</rscale>
<asrwt>0</asrwt>
<pdfrwt beam="1">  1        2 0.15321810E+00 0.74862638E+03</pdfrwt>
<pdfrwt beam="2">  1       -2 0.18662254E-01 0.74862638E+03</pdfrwt>
<totfact> 0.61348235E+02</totfact>
</mgrwt>
</event>
<event>
 4    1  0.5621415E-005  0.5640265E+03  0.7818608E-02  0.9982985E-01
         -2   -1    0    0    0  501 -0.00000000000E+00  0.00000000000E+00  0.72185061703E+02  0.72185061748E+02  0.25500000000E-02 0. -1.
          2   -1    0    0  501    0  0.00000000000E+00 -0.00000000000E+00 -0.11017719495E+04  0.11017719495E+04  0.25500000000E-02 0.  1.
    5000001    1    1    2    0    0 -0.13387335774E+03  0.15423015939E+03 -0.45035585728E+03  0.53046528271E+03  0.19200000000E+03 0.  0.
   -5000001    1    1    2    0    0  0.13387335774E+03 -0.15423015939E+03 -0.57923103050E+03  0.64349172852E+03  0.19200000000E+03 0.  0.
<mgrwt>
<rscale>  0 0.56402651E+03</rscale>
<asrwt>0</asrwt>
<pdfrwt beam="1">  1        2 0.15739598E+00 0.56402651E+03</pdfrwt>
<pdfrwt beam="2">  1       -2 0.10312152E-01 0.56402651E+03</pdfrwt>
<totfact> 0.16006150E+03</totfact>
</mgrwt>
</event>
<event>
 4    1  0.5621415E-005  0.7505542E+03  0.7818608E-02  0.9634481E-01
         -2   -1    0    0    0  501 -0.00000000000E+00  0.00000000000E+00  0.60855632326E+02  0.60855632380E+02  0.25500000000E-02 0.  1.
          2   -1    0    0  501    0  0.00000000000E+00 -0.00000000000E+00 -0.23142129646E+04  0.23142129646E+04  0.25500000000E-02 0. -1.
    5000001    1    1    2    0    0 -0.29421049070E+03 -0.15254200213E+02 -0.71195381881E+03  0.79406217866E+03  0.19200000000E+03 0.  0.
   -5000001    1    1    2    0    0  0.29421049070E+03  0.15254200213E+02 -0.15414035135E+04  0.15810064184E+04  0.19200000000E+03 0.  0.
<mgrwt>
<rscale>  0 0.75055418E+03</rscale>
<asrwt>0</asrwt>
<pdfrwt beam="1">  1        2 0.33060180E+00 0.75055418E+03</pdfrwt>
<pdfrwt beam="2">  1       -2 0.86936632E-02 0.75055418E+03</pdfrwt>
<totfact> 0.48809674E+02</totfact>
</mgrwt>
</event>
<event>
 4    1  0.5621415E-005  0.4809401E+03  0.7818608E-02  0.1018877E+00
          2   -1    0    0  501    0  0.00000000000E+00  0.00000000000E+00  0.94067325107E+03  0.94067325107E+03  0.25500000000E-02 0.  1.
         -2   -1    0    0    0  501 -0.00000000000E+00 -0.00000000000E+00 -0.61472835794E+02  0.61472835847E+02  0.25500000000E-02 0. -1.
    5000001    1    1    2    0    0  0.12056997290E+03 -0.51346159992E+02  0.31134868398E+03  0.38855572255E+03  0.19200000000E+03 0.  0.
   -5000001    1    1    2    0    0 -0.12056997290E+03  0.51346159992E+02  0.56785173130E+03  0.61359036437E+03  0.19200000000E+03 0.  0.
<mgrwt>
<rscale>  0 0.48094013E+03</rscale>
<asrwt>0</asrwt>
<pdfrwt beam="1">  1        2 0.13438188E+00 0.48094013E+03</pdfrwt>
<pdfrwt beam="2">  1       -2 0.87818348E-02 0.48094013E+03</pdfrwt>
<totfact> 0.25917835E+03</totfact>
</mgrwt>
</event>
<event>
 4    1  0.5621415E-005  0.7189316E+03  0.7818608E-02  0.9685393E-01
         -2   -1    0    0    0  501 -0.00000000000E+00  0.00000000000E+00  0.10428289547E+03  0.10428289550E+03  0.25500000000E-02 0. -1.
          2   -1    0    0  501    0  0.00000000000E+00 -0.00000000000E+00 -0.12390878458E+04  0.12390878458E+04  0.25500000000E-02 0.  1.
    5000001    1    1    2    0    0 -0.16309440174E+03 -0.12939916073E+03 -0.98105972986E+03  0.10211200322E+04  0.19200000000E+03 0.  0.
   -5000001    1    1    2    0    0  0.16309440174E+03  0.12939916073E+03 -0.15374522047E+03  0.32225070907E+03  0.19200000000E+03 0.  0.
<mgrwt>
<rscale>  0 0.71893162E+03</rscale>
<asrwt>0</asrwt>
<pdfrwt beam="1">  1        2 0.17701254E+00 0.71893162E+03</pdfrwt>
<pdfrwt beam="2">  1       -2 0.14897557E-01 0.71893162E+03</pdfrwt>
<totfact> 0.72450192E+02</totfact>
</mgrwt>
</event>
<event>
 4    1  0.5621415E-005  0.6386277E+03  0.7818608E-02  0.9828356E-01
          2   -1    0    0  501    0  0.00000000000E+00  0.00000000000E+00  0.13627517425E+04  0.13627517425E+04  0.25500000000E-02 0.  1.
         -2   -1    0    0    0  501 -0.00000000000E+00 -0.00000000000E+00 -0.74820194391E+02  0.74820194434E+02  0.25500000000E-02 0. -1.
    5000001    1    1    2    0    0  0.23679432501E+03  0.17511073390E+02  0.85415920136E+03  0.90709984639E+03  0.19200000000E+03 0.  0.
   -5000001    1    1    2    0    0 -0.23679432501E+03 -0.17511073390E+02  0.43377234675E+03  0.53047209055E+03  0.19200000000E+03 0.  0.
<mgrwt>
<rscale>  0 0.63862775E+03</rscale>
<asrwt>0</asrwt>
<pdfrwt beam="1">  1        2 0.19467880E+00 0.63862775E+03</pdfrwt>
<pdfrwt beam="2">  1       -2 0.10688600E-01 0.63862775E+03</pdfrwt>
<totfact> 0.10789075E+03</totfact>
</mgrwt>
</event>
<event>
 4    1  0.5621415E-005  0.7685112E+03  0.7818608E-02  0.9606749E-01
          2   -1    0    0  501    0  0.00000000000E+00  0.00000000000E+00  0.52599579871E+03  0.52599579872E+03  0.25500000000E-02 0. -1.
         -2   -1    0    0    0  501 -0.00000000000E+00 -0.00000000000E+00 -0.28071016601E+03  0.28071016602E+03  0.25500000000E-02 0.  1.
    5000001    1    1    2    0    0 -0.10802636428E+03  0.30406969994E+03  0.20830943788E+03  0.42940062845E+03  0.19200000000E+03 0.  0.
   -5000001    1    1    2    0    0  0.10802636428E+03 -0.30406969994E+03  0.36976194819E+02  0.37730533628E+03  0.19200000000E+03 0.  0.
<mgrwt>
<rscale>  0 0.76851120E+03</rscale>
<asrwt>0</asrwt>
<pdfrwt beam="1">  1        2 0.75142256E-01 0.76851120E+03</pdfrwt>
<pdfrwt beam="2">  1       -2 0.40101453E-01 0.76851120E+03</pdfrwt>
<totfact> 0.37475425E+02</totfact>
</mgrwt>
</event>
<event>
 4    1  0.5621415E-005  0.7526132E+03  0.7818608E-02  0.9631260E-01
         -2   -1    0    0    0  501 -0.00000000000E+00  0.00000000000E+00  0.14731143292E+03  0.14731143294E+03  0.25500000000E-02 0. -1.
          2   -1    0    0  501    0  0.00000000000E+00 -0.00000000000E+00 -0.96127391925E+03  0.96127391925E+03  0.25500000000E-02 0.  1.
    5000001    1    1    2    0    0 -0.18404235915E+03  0.22363999662E+03 -0.61970447845E+03  0.71048158221E+03  0.19200000000E+03 0.  0.
   -5000001    1    1    2    0    0  0.18404235915E+03 -0.22363999662E+03 -0.19425800788E+03  0.39810376998E+03  0.19200000000E+03 0.  0.
<mgrwt>
<rscale>  0 0.75261315E+03</rscale>
<asrwt>0</asrwt>
<pdfrwt beam="1">  1        2 0.13732484E+00 0.75261315E+03</pdfrwt>
<pdfrwt beam="2">  1       -2 0.21044491E-01 0.75261315E+03</pdfrwt>
<totfact> 0.58126044E+02</totfact>
</mgrwt>
</event>
<event>
 4    1  0.5621415E-005  0.7560573E+03  0.7818608E-02  0.9625895E-01
         -2   -1    0    0    0  501 -0.00000000000E+00  0.00000000000E+00  0.63459157583E+02  0.63459157634E+02  0.25500000000E-02 0. -1.
          2   -1    0    0  501    0  0.00000000000E+00 -0.00000000000E+00 -0.22519313967E+04  0.22519313967E+04  0.25500000000E-02 0.  1.
    5000001    1    1    2    0    0 -0.15387183353E+03  0.27235684200E+03 -0.81714110302E+03  0.89578924574E+03  0.19200000000E+03 0.  0.
   -5000001    1    1    2    0    0  0.15387183353E+03 -0.27235684200E+03 -0.13713311361E+04  0.14196013086E+04  0.19200000000E+03 0.  0.
<mgrwt>
<rscale>  0 0.75605732E+03</rscale>
<asrwt>0</asrwt>
<pdfrwt beam="1">  1        2 0.32170444E+00 0.75605732E+03</pdfrwt>
<pdfrwt beam="2">  1       -2 0.90655953E-02 0.75605732E+03</pdfrwt>
<totfact> 0.49058120E+02</totfact>
</mgrwt>
</event>
<event>
 4    1  0.5621415E-005  0.4605185E+03  0.7818608E-02  0.1024631E+00
          2   -1    0    0  501    0  0.00000000000E+00  0.00000000000E+00  0.44971734516E+03  0.44971734517E+03  0.25500000000E-02 0.  1.
         -2   -1    0    0    0  501 -0.00000000000E+00 -0.00000000000E+00 -0.11789477792E+03  0.11789477795E+03  0.25500000000E-02 0. -1.
    5000001    1    1    2    0    0  0.98093169297E+02  0.71127206800E+02  0.21323185031E+03  0.31146937473E+03  0.19200000000E+03 0.  0.
   -5000001    1    1    2    0    0 -0.98093169297E+02 -0.71127206800E+02  0.11859071693E+03  0.25614274839E+03  0.19200000000E+03 0.  0.
<mgrwt>
<rscale>  0 0.46051852E+03</rscale>
<asrwt>0</asrwt>
<pdfrwt beam="1">  1        2 0.64245335E-01 0.46051852E+03</pdfrwt>
<pdfrwt beam="2">  1       -2 0.16842111E-01 0.46051852E+03</pdfrwt>
<totfact> 0.21624526E+03</totfact>
</mgrwt>
</event>
<event>
 4    1  0.5621415E-005  0.5133397E+03  0.7818608E-02  0.1010355E+00
          2   -1    0    0  501    0  0.00000000000E+00  0.00000000000E+00  0.20029093192E+04  0.20029093192E+04  0.25500000000E-02 0.  1.
         -2   -1    0    0    0  501 -0.00000000000E+00 -0.00000000000E+00 -0.32891860679E+02  0.32891860778E+02  0.25500000000E-02 0. -1.
    5000001    1    1    2    0    0 -0.45816495020E+02 -0.14562656844E+03  0.68535697386E+03  0.72793161098E+03  0.19200000000E+03 0.  0.
   -5000001    1    1    2    0    0  0.45816495020E+02  0.14562656844E+03  0.12846604847E+04  0.13078695690E+04  0.19200000000E+03 0.  0.
<mgrwt>
<rscale>  0 0.51333971E+03</rscale>
<asrwt>0</asrwt>
<pdfrwt beam="1">  1        2 0.28612992E+00 0.51333971E+03</pdfrwt>
<pdfrwt beam="2">  1       -2 0.46988370E-02 0.51333971E+03</pdfrwt>
<totfact> 0.18720178E+03</totfact>
</mgrwt>
</event>
<event>
 4    1  0.5621415E-005  0.9582475E+03  0.7818608E-02  0.9355562E-01
         -2   -1    0    0    0  501 -0.00000000000E+00  0.00000000000E+00  0.74321430959E+02  0.74321431002E+02  0.25500000000E-02 0. -1.
          2   -1    0    0  501    0  0.00000000000E+00 -0.00000000000E+00 -0.30887400274E+04  0.30887400274E+04  0.25500000000E-02 0.  1.
    5000001    1    1    2    0    0 -0.24662964761E+03 -0.34164121993E+03 -0.11009101790E+04  0.11943249677E+04  0.19200000000E+03 0.  0.
   -5000001    1    1    2    0    0  0.24662964761E+03  0.34164121993E+03 -0.19135084175E+04  0.19687364907E+04  0.19200000000E+03 0.  0.
<mgrwt>
<rscale>  0 0.95824752E+03</rscale>
<asrwt>0</asrwt>
<pdfrwt beam="1">  1        2 0.44124850E+00 0.95824752E+03</pdfrwt>
<pdfrwt beam="2">  1       -2 0.10617349E-01 0.95824752E+03</pdfrwt>
<totfact> 0.13445493E+02</totfact>
</mgrwt>
</event>
<event>
 4    1  0.5621415E-005  0.7273036E+03  0.7818608E-02  0.9671646E-01
         -2   -1    0    0    0  501 -0.00000000000E+00  0.00000000000E+00  0.38237591553E+03  0.38237591554E+03  0.25500000000E-02 0. -1.
          2   -1    0    0  501    0  0.00000000000E+00 -0.00000000000E+00 -0.34584452920E+03  0.34584452921E+03  0.25500000000E-02 0.  1.
    5000001    1    1    2    0    0  0.37102761369E+02  0.29433205750E+03  0.10422637576E+03  0.36842246454E+03  0.19200000000E+03 0.  0.
   -5000001    1    1    2    0    0 -0.37102761369E+02 -0.29433205750E+03 -0.67694989430E+02  0.35979798021E+03  0.19200000000E+03 0.  0.
<mgrwt>
<rscale>  0 0.72730356E+03</rscale>
<asrwt>0</asrwt>
<pdfrwt beam="1">  1        2 0.49406361E-01 0.72730356E+03</pdfrwt>
<pdfrwt beam="2">  1       -2 0.54625131E-01 0.72730356E+03</pdfrwt>
<totfact> 0.32358971E+02</totfact>
</mgrwt>
</event>
<event>
 4    1  0.5621415E-005  0.5443401E+03  0.7818608E-02  0.1002813E+00
          2   -1    0    0  501    0  0.00000000000E+00  0.00000000000E+00  0.81452097694E+03  0.81452097694E+03  0.25500000000E-02 0.  1.
         -2   -1    0    0    0  501 -0.00000000000E+00 -0.00000000000E+00 -0.90944892827E+02  0.90944892863E+02  0.25500000000E-02 0. -1.
    5000001    1    1    2    0    0 -0.96350650000E+02  0.16528018801E+03  0.40292312107E+03  0.48560480825E+03  0.19200000000E+03 0.  0.
   -5000001    1    1    2    0    0  0.96350650000E+02 -0.16528018801E+03  0.32065296304E+03  0.41986106155E+03  0.19200000000E+03 0.  0.
<mgrwt>
<rscale>  0 0.54434005E+03</rscale>
<asrwt>0</asrwt>
<pdfrwt beam="1">  1        2 0.11636015E+00 0.54434005E+03</pdfrwt>
<pdfrwt beam="2">  1       -2 0.12992127E-01 0.54434005E+03</pdfrwt>
<totfact> 0.16577523E+03</totfact>
</mgrwt>
</event>
<event>
 4    1  0.5621415E-005  0.9554618E+03  0.7818608E-02  0.9358789E-01
         -2   -1    0    0    0  501 -0.00000000000E+00  0.00000000000E+00  0.14411870049E+03  0.14411870051E+03  0.25500000000E-02 0. -1.
          2   -1    0    0  501    0  0.00000000000E+00 -0.00000000000E+00 -0.15836029457E+04  0.15836029457E+04  0.25500000000E-02 0.  1.
    5000001    1    1    2    0    0 -0.27645464691E+02 -0.43450829494E+03 -0.64300145362E+03  0.79992287093E+03  0.19200000000E+03 0.  0.
   -5000001    1    1    2    0    0  0.27645464691E+02  0.43450829494E+03 -0.79648279155E+03  0.92779877523E+03  0.19200000000E+03 0.  0.
<mgrwt>
<rscale>  0 0.95546177E+03</rscale>
<asrwt>0</asrwt>
<pdfrwt beam="1">  1        2 0.22622898E+00 0.95546177E+03</pdfrwt>
<pdfrwt beam="2">  1       -2 0.20588387E-01 0.95546177E+03</pdfrwt>
<totfact> 0.26771263E+02</totfact>
</mgrwt>
</event>
<event>
 4    1  0.5621415E-005  0.6584719E+03  0.7818608E-02  0.9791011E-01
         -2   -1    0    0    0  501 -0.00000000000E+00  0.00000000000E+00  0.84478610118E+02  0.84478610157E+02  0.25500000000E-02 0. -1.
          2   -1    0    0  501    0  0.00000000000E+00 -0.00000000000E+00 -0.12831214812E+04  0.12831214812E+04  0.25500000000E-02 0.  1.
    5000001    1    1    2    0    0 -0.23783609412E+03 -0.10655199288E+03 -0.72416176555E+03  0.79321724485E+03  0.19200000000E+03 0.  0.
   -5000001    1    1    2    0    0  0.23783609412E+03  0.10655199288E+03 -0.47448110554E+03  0.57438284651E+03  0.19200000000E+03 0.  0.
<mgrwt>
<rscale>  0 0.65847193E+03</rscale>
<asrwt>0</asrwt>
<pdfrwt beam="1">  1        2 0.18330306E+00 0.65847193E+03</pdfrwt>
<pdfrwt beam="2">  1       -2 0.12068374E-01 0.65847193E+03</pdfrwt>
<totfact> 0.97574555E+02</totfact>
</mgrwt>
</event>
<event>
 4    1  0.5621415E-005  0.4773713E+03  0.7818608E-02  0.1019860E+00
          2   -1    0    0  501    0  0.00000000000E+00  0.00000000000E+00  0.11397254689E+04  0.11397254689E+04  0.25500000000E-02 0.  1.
         -2   -1    0    0    0  501 -0.00000000000E+00 -0.00000000000E+00 -0.49986466981E+02  0.49986467046E+02  0.25500000000E-02 0. -1.
    5000001    1    1    2    0    0  0.11634441670E+03  0.79960891214E+02  0.57803395476E+03  0.62523357257E+03  0.19200000000E+03 0.  0.
   -5000001    1    1    2    0    0 -0.11634441670E+03 -0.79960891214E+02  0.51170504711E+03  0.56447836333E+03  0.19200000000E+03 0.  0.
<mgrwt>
<rscale>  0 0.47737134E+03</rscale>
<asrwt>0</asrwt>
<pdfrwt beam="1">  1        2 0.16281793E+00 0.47737134E+03</pdfrwt>
<pdfrwt beam="2">  1       -2 0.71409236E-02 0.47737134E+03</pdfrwt>
<totfact> 0.27402433E+03</totfact>
</mgrwt>
</event>
<event>
 4    1  0.5621415E-005  0.1842550E+04  0.7818608E-02  0.8683994E-01
          2   -1    0    0  501    0  0.00000000000E+00  0.00000000000E+00  0.38591210116E+04  0.38591210116E+04  0.25500000000E-02 0.  1.
         -2   -1    0    0    0  501 -0.00000000000E+00 -0.00000000000E+00 -0.21993277304E+03  0.21993277305E+03  0.25500000000E-02 0. -1.
    5000001    1    1    2    0    0  0.15789992238E+03  0.28313894200E+03  0.36807525885E+04  0.36999869816E+04  0.19200000000E+03 0.  0.
   -5000001    1    1    2    0    0 -0.15789992238E+03 -0.28313894200E+03 -0.41564350007E+02  0.37906680303E+03  0.19200000000E+03 0.  0.
<mgrwt>
<rscale>  0 0.18425495E+04</rscale>
<asrwt>0</asrwt>
<pdfrwt beam="1">  1        2 0.55130300E+00 0.18425495E+04</pdfrwt>
<pdfrwt beam="2">  1       -2 0.31418968E-01 0.18425495E+04</pdfrwt>
<totfact> 0.63437351E+00</totfact>
</mgrwt>
</event>
<event>
 4    1  0.5621415E-005  0.4517692E+03  0.7818608E-02  0.1027196E+00
         -2   -1    0    0    0  501 -0.00000000000E+00  0.00000000000E+00  0.35112321911E+02  0.35112322004E+02  0.25500000000E-02 0. -1.
          2   -1    0    0  501    0  0.00000000000E+00 -0.00000000000E+00 -0.14531610593E+04  0.14531610593E+04  0.25500000000E-02 0.  1.
    5000001    1    1    2    0    0  0.60900431395E+02 -0.95406228789E+02 -0.58804387182E+03  0.62886469628E+03  0.19200000000E+03 0.  0.
   -5000001    1    1    2    0    0 -0.60900431395E+02  0.95406228789E+02 -0.83000486552E+03  0.85940868498E+03  0.19200000000E+03 0.  0.
<mgrwt>
<rscale>  0 0.45176923E+03</rscale>
<asrwt>0</asrwt>
<pdfrwt beam="1">  1        2 0.20759440E+00 0.45176923E+03</pdfrwt>
<pdfrwt beam="2">  1       -2 0.50160469E-02 0.45176923E+03</pdfrwt>
<totfact> 0.32148015E+03</totfact>
</mgrwt>
</event>
<event>
 4    1  0.5621415E-005  0.9250316E+03  0.7818608E-02  0.9394821E-01
          2   -1    0    0  501    0  0.00000000000E+00  0.00000000000E+00  0.23467336558E+04  0.23467336558E+04  0.25500000000E-02 0.  1.
         -2   -1    0    0    0  501 -0.00000000000E+00 -0.00000000000E+00 -0.91156853010E+02  0.91156853046E+02  0.25500000000E-02 0. -1.
    5000001    1    1    2    0    0 -0.30641187044E+03 -0.27032153606E+03  0.13925825509E+04  0.14639372010E+04  0.19200000000E+03 0.  0.
   -5000001    1    1    2    0    0  0.30641187044E+03  0.27032153606E+03  0.86299425189E+03  0.97395330791E+03  0.19200000000E+03 0.  0.
<mgrwt>
<rscale>  0 0.92503158E+03</rscale>
<asrwt>0</asrwt>
<pdfrwt beam="1">  1        2 0.33524763E+00 0.92503158E+03</pdfrwt>
<pdfrwt beam="2">  1       -2 0.13022409E-01 0.92503158E+03</pdfrwt>
<totfact> 0.23902655E+02</totfact>
</mgrwt>
</event>
<event>
 4    1  0.5621415E-005  0.8494566E+03  0.7818608E-02  0.9491067E-01
          2   -1    0    0  501    0  0.00000000000E+00  0.00000000000E+00  0.15893097150E+04  0.15893097150E+04  0.25500000000E-02 0.  1.
         -2   -1    0    0    0  501 -0.00000000000E+00 -0.00000000000E+00 -0.11350471172E+03  0.11350471175E+03  0.25500000000E-02 0. -1.
    5000001    1    1    2    0    0 -0.27162442573E+03 -0.24870437996E+03  0.91603447758E+03  0.10057916590E+04  0.19200000000E+03 0.  0.
   -5000001    1    1    2    0    0  0.27162442573E+03  0.24870437996E+03  0.55977052569E+03  0.69702276770E+03  0.19200000000E+03 0.  0.
<mgrwt>
<rscale>  0 0.84945663E+03</rscale>
<asrwt>0</asrwt>
<pdfrwt beam="1">  1        2 0.22704424E+00 0.84945663E+03</pdfrwt>
<pdfrwt beam="2">  1       -2 0.16214959E-01 0.84945663E+03</pdfrwt>
<totfact> 0.40471783E+02</totfact>
</mgrwt>
</event>
<event>
 4    1  0.5621415E-005  0.5559984E+03  0.7818608E-02  0.1000115E+00
          2   -1    0    0  501    0  0.00000000000E+00  0.00000000000E+00  0.26676776574E+04  0.26676776574E+04  0.25500000000E-02 0.  1.
         -2   -1    0    0    0  501 -0.00000000000E+00 -0.00000000000E+00 -0.28970346894E+02  0.28970347006E+02  0.25500000000E-02 0. -1.
    5000001    1    1    2    0    0  0.14865377625E+03 -0.12197144490E+03  0.10346990798E+04  0.10697855693E+04  0.19200000000E+03 0.  0.
   -5000001    1    1    2    0    0 -0.14865377625E+03  0.12197144490E+03  0.16040082307E+04  0.16268624351E+04  0.19200000000E+03 0.  0.
<mgrwt>
<rscale>  0 0.55599837E+03</rscale>
<asrwt>0</asrwt>
<pdfrwt beam="1">  1        2 0.38109675E+00 0.55599837E+03</pdfrwt>
<pdfrwt beam="2">  1       -2 0.41386217E-02 0.55599837E+03</pdfrwt>
<totfact> 0.10451642E+03</totfact>
</mgrwt>
</event>
<event>
 4    1  0.5621415E-005  0.5235594E+03  0.7818608E-02  0.1007806E+00
         -2   -1    0    0    0  501 -0.00000000000E+00  0.00000000000E+00  0.52016353737E+02  0.52016353800E+02  0.25500000000E-02 0. -1.
          2   -1    0    0  501    0  0.00000000000E+00 -0.00000000000E+00 -0.13174434673E+04  0.13174434673E+04  0.25500000000E-02 0.  1.
    5000001    1    1    2    0    0  0.15307046108E+02 -0.17348040664E+03 -0.72827865514E+03  0.77303528812E+03  0.19200000000E+03 0.  0.
   -5000001    1    1    2    0    0 -0.15307046108E+02  0.17348040664E+03 -0.53714845838E+03  0.59642453294E+03  0.19200000000E+03 0.  0.
<mgrwt>
<rscale>  0 0.52355938E+03</rscale>
<asrwt>0</asrwt>
<pdfrwt beam="1">  1        2 0.18820619E+00 0.52355938E+03</pdfrwt>
<pdfrwt beam="2">  1       -2 0.74309085E-02 0.52355938E+03</pdfrwt>
<totfact> 0.20521861E+03</totfact>
</mgrwt>
</event>
<event>
 4    1  0.5621415E-005  0.4292649E+03  0.7818608E-02  0.1034092E+00
         -2   -1    0    0    0  501 -0.00000000000E+00  0.00000000000E+00  0.29410450545E+02  0.29410450656E+02  0.25500000000E-02 0. -1.
          2   -1    0    0  501    0  0.00000000000E+00 -0.00000000000E+00 -0.15663512264E+04  0.15663512264E+04  0.25500000000E-02 0.  1.
    5000001    1    1    2    0    0 -0.72688544439E+02  0.47533811580E+01 -0.10005307296E+04  0.10213872723E+04  0.19200000000E+03 0.  0.
   -5000001    1    1    2    0    0  0.72688544439E+02 -0.47533811580E+01 -0.53641004621E+03  0.57437440472E+03  0.19200000000E+03 0.  0.
<mgrwt>
<rscale>  0 0.42926493E+03</rscale>
<asrwt>0</asrwt>
<pdfrwt beam="1">  1        2 0.22376441E+00 0.42926493E+03</pdfrwt>
<pdfrwt beam="2">  1       -2 0.42014939E-02 0.42926493E+03</pdfrwt>
<totfact> 0.36899117E+03</totfact>
</mgrwt>
</event>
<event>
 4    1  0.5621415E-005  0.4371784E+03  0.7818608E-02  0.1031616E+00
          2   -1    0    0  501    0  0.00000000000E+00  0.00000000000E+00  0.10615540216E+04  0.10615540216E+04  0.25500000000E-02 0.  1.
         -2   -1    0    0    0  501 -0.00000000000E+00 -0.00000000000E+00 -0.45010653777E+02  0.45010653850E+02  0.25500000000E-02 0. -1.
    5000001    1    1    2    0    0 -0.14622069934E+02 -0.79744709766E+02  0.34144180036E+03  0.40002440763E+03  0.19200000000E+03 0.  0.
   -5000001    1    1    2    0    0  0.14622069934E+02  0.79744709766E+02  0.67510156742E+03  0.70654026779E+03  0.19200000000E+03 0.  0.
<mgrwt>
<rscale>  0 0.43717841E+03</rscale>
<asrwt>0</asrwt>
<pdfrwt beam="1">  1        2 0.15165056E+00 0.43717841E+03</pdfrwt>
<pdfrwt beam="2">  1       -2 0.64300939E-02 0.43717841E+03</pdfrwt>
<totfact> 0.35812277E+03</totfact>
</mgrwt>
</event>
<event>
 4    1  0.5621415E-005  0.7007968E+03  0.7818608E-02  0.9715871E-01
         -2   -1    0    0    0  501 -0.00000000000E+00  0.00000000000E+00  0.67778237631E+02  0.67778237679E+02  0.25500000000E-02 0. -1.
          2   -1    0    0  501    0  0.00000000000E+00 -0.00000000000E+00 -0.18114817461E+04  0.18114817461E+04  0.25500000000E-02 0.  1.
    5000001    1    1    2    0    0 -0.18125563348E+02  0.19218664900E+03 -0.14633312982E+04  0.14884444002E+04  0.19200000000E+03 0.  0.
   -5000001    1    1    2    0    0  0.18125563348E+02 -0.19218664900E+03 -0.28037221026E+03  0.39081558360E+03  0.19200000000E+03 0.  0.
<mgrwt>
<rscale>  0 0.70079680E+03</rscale>
<asrwt>0</asrwt>
<pdfrwt beam="1">  1        2 0.25878308E+00 0.70079680E+03</pdfrwt>
<pdfrwt beam="2">  1       -2 0.96826065E-02 0.70079680E+03</pdfrwt>
<totfact> 0.73946005E+02</totfact>
</mgrwt>
</event>
<event>
 4    1  0.5621415E-005  0.5764634E+03  0.7818608E-02  0.9955477E-01
          2   -1    0    0  501    0  0.00000000000E+00  0.00000000000E+00  0.35451937731E+03  0.35451937732E+03  0.25500000000E-02 0.  1.
         -2   -1    0    0    0  501 -0.00000000000E+00 -0.00000000000E+00 -0.23433841788E+03  0.23433841789E+03  0.25500000000E-02 0. -1.
    5000001    1    1    2    0    0  0.16482049528E+03  0.27725078740E+02  0.19819736207E+03  0.32261535919E+03  0.19200000000E+03 0.  0.
   -5000001    1    1    2    0    0 -0.16482049528E+03 -0.27725078740E+02 -0.78016402638E+02  0.26624243602E+03  0.19200000000E+03 0.  0.
<mgrwt>
<rscale>  0 0.57646339E+03</rscale>
<asrwt>0</asrwt>
<pdfrwt beam="1">  1        2 0.50645625E-01 0.57646339E+03</pdfrwt>
<pdfrwt beam="2">  1       -2 0.33476917E-01 0.57646339E+03</pdfrwt>
<totfact> 0.82860242E+02</totfact>
</mgrwt>
</event>
<event>
 4    1  0.5621415E-005  0.5577476E+03  0.7818608E-02  0.9997164E-01
          2   -1    0    0  501    0  0.00000000000E+00  0.00000000000E+00  0.14612452856E+04  0.14612452856E+04  0.25500000000E-02 0.  1.
         -2   -1    0    0    0  501 -0.00000000000E+00 -0.00000000000E+00 -0.53222140972E+02  0.53222141034E+02  0.25500000000E-02 0. -1.
    5000001    1    1    2    0    0  0.16159544275E+03  0.10351801066E+03  0.53062272330E+03  0.59603149256E+03  0.19200000000E+03 0.  0.
   -5000001    1    1    2    0    0 -0.16159544275E+03 -0.10351801066E+03  0.87740042135E+03  0.91843593410E+03  0.19200000000E+03 0.  0.
<mgrwt>
<rscale>  0 0.55774762E+03</rscale>
<asrwt>0</asrwt>
<pdfrwt beam="1">  1        2 0.20874930E+00 0.55774762E+03</pdfrwt>
<pdfrwt beam="2">  1       -2 0.76031640E-02 0.55774762E+03</pdfrwt>
<totfact> 0.16589084E+03</totfact>
</mgrwt>
</event>
<event>
 4    1  0.5621415E-005  0.7767781E+03  0.7818608E-02  0.9594252E-01
         -2   -1    0    0    0  501 -0.00000000000E+00  0.00000000000E+00  0.62558070427E+03  0.62558070427E+03  0.25500000000E-02 0. -1.
          2   -1    0    0  501    0  0.00000000000E+00 -0.00000000000E+00 -0.24112966257E+03  0.24112966258E+03  0.25500000000E-02 0.  1.
    5000001    1    1    2    0    0  0.12984558654E+03  0.28806602448E+03  0.32490509336E+03  0.49220852339E+03  0.19200000000E+03 0.  0.
   -5000001    1    1    2    0    0 -0.12984558654E+03 -0.28806602448E+03  0.59545948333E+02  0.37450184347E+03  0.19200000000E+03 0.  0.
<mgrwt>
<rscale>  0 0.77677813E+03</rscale>
<asrwt>0</asrwt>
<pdfrwt beam="1">  1        2 0.34447095E-01 0.77677813E+03</pdfrwt>
<pdfrwt beam="2">  1       -2 0.89368670E-01 0.77677813E+03</pdfrwt>
<totfact> 0.16485565E+02</totfact>
</mgrwt>
</event>
<event>
 4    1  0.5621415E-005  0.5963976E+03  0.7818608E-02  0.9912908E-01
         -2   -1    0    0    0  501 -0.00000000000E+00  0.00000000000E+00  0.11632408854E+03  0.11632408857E+03  0.25500000000E-02 0. -1.
          2   -1    0    0  501    0  0.00000000000E+00 -0.00000000000E+00 -0.76443776825E+03  0.76443776826E+03  0.25500000000E-02 0.  1.
    5000001    1    1    2    0    0 -0.11220406860E+03 -0.14400681615E+03 -0.12194074842E+03  0.29165263968E+03  0.19200000000E+03 0.  0.
   -5000001    1    1    2    0    0  0.11220406860E+03  0.14400681615E+03 -0.52617293129E+03  0.58910921715E+03  0.19200000000E+03 0.  0.
<mgrwt>
<rscale>  0 0.59639761E+03</rscale>
<asrwt>0</asrwt>
<pdfrwt beam="1">  1        2 0.10920539E+00 0.59639761E+03</pdfrwt>
<pdfrwt beam="2">  1       -2 0.16617727E-01 0.59639761E+03</pdfrwt>
<totfact> 0.11881493E+03</totfact>
</mgrwt>
</event>
<event>
 4    1  0.5621415E-005  0.5331147E+03  0.7818608E-02  0.1005480E+00
          2   -1    0    0  501    0  0.00000000000E+00  0.00000000000E+00  0.18479101809E+04  0.18479101809E+04  0.25500000000E-02 0.  1.
         -2   -1    0    0    0  501 -0.00000000000E+00 -0.00000000000E+00 -0.38450366950E+02  0.38450367035E+02  0.25500000000E-02 0. -1.
    5000001    1    1    2    0    0 -0.13003429717E+03 -0.11437003494E+03  0.11340265648E+04  0.11631292589E+04  0.19200000000E+03 0.  0.
   -5000001    1    1    2    0    0  0.13003429717E+03  0.11437003494E+03  0.67543324924E+03  0.72323128908E+03  0.19200000000E+03 0.  0.
<mgrwt>
<rscale>  0 0.53311471E+03</rscale>
<asrwt>0</asrwt>
<pdfrwt beam="1">  1        2 0.26398719E+00 0.53311471E+03</pdfrwt>
<pdfrwt beam="2">  1       -2 0.54929091E-02 0.53311471E+03</pdfrwt>
<totfact> 0.17560502E+03</totfact>
</mgrwt>
</event>
<event>
 4    1  0.5621415E-005  0.4449117E+03  0.7818608E-02  0.1029250E+00
         -2   -1    0    0    0  501 -0.00000000000E+00  0.00000000000E+00  0.95358781555E+02  0.95358781589E+02  0.25500000000E-02 0. -1.
          2   -1    0    0  501    0  0.00000000000E+00 -0.00000000000E+00 -0.51895169414E+03  0.51895169414E+03  0.25500000000E-02 0.  1.
    5000001    1    1    2    0    0  0.91542649010E+02 -0.21209184960E+02 -0.29682979365E+03  0.36578930070E+03  0.19200000000E+03 0.  0.
   -5000001    1    1    2    0    0 -0.91542649010E+02  0.21209184960E+02 -0.12676311893E+03  0.24852117503E+03  0.19200000000E+03 0.  0.
<mgrwt>
<rscale>  0 0.44491168E+03</rscale>
<asrwt>0</asrwt>
<pdfrwt beam="1">  1        2 0.74135955E-01 0.44491168E+03</pdfrwt>
<pdfrwt beam="2">  1       -2 0.13622683E-01 0.44491168E+03</pdfrwt>
<totfact> 0.26260608E+03</totfact>
</mgrwt>
</event>
<event>
 4    1  0.5621415E-005  0.6482988E+03  0.7818608E-02  0.9809977E-01
          2   -1    0    0  501    0  0.00000000000E+00  0.00000000000E+00  0.25037127640E+04  0.25037127640E+04  0.25500000000E-02 0.  1.
         -2   -1    0    0    0  501 -0.00000000000E+00 -0.00000000000E+00 -0.41966809793E+02  0.41966809870E+02  0.25500000000E-02 0. -1.
    5000001    1    1    2    0    0 -0.39490880651E+02 -0.17415709984E+03  0.48254301265E+03  0.54918301515E+03  0.19200000000E+03 0.  0.
   -5000001    1    1    2    0    0  0.39490880651E+02  0.17415709984E+03  0.19792029415E+04  0.19964965587E+04  0.19200000000E+03 0.  0.
<mgrwt>
<rscale>  0 0.64829881E+03</rscale>
<asrwt>0</asrwt>
<pdfrwt beam="1">  1        2 0.35767331E+00 0.64829881E+03</pdfrwt>
<pdfrwt beam="2">  1       -2 0.59952576E-02 0.64829881E+03</pdfrwt>
<totfact> 0.70985318E+02</totfact>
</mgrwt>
</event>
<event>
 4    1  0.5621415E-005  0.5837229E+03  0.7818608E-02  0.9939763E-01
          2   -1    0    0  501    0  0.00000000000E+00  0.00000000000E+00  0.31298256979E+04  0.31298256979E+04  0.25500000000E-02 0.  1.
         -2   -1    0    0    0  501 -0.00000000000E+00 -0.00000000000E+00 -0.27216569830E+02  0.27216569949E+02  0.25500000000E-02 0. -1.
    5000001    1    1    2    0    0 -0.11761733592E+03 -0.99808278221E+02  0.23982699285E+04  0.24108832779E+04  0.19200000000E+03 0.  0.
   -5000001    1    1    2    0    0  0.11761733592E+03  0.99808278221E+02  0.70433919958E+03  0.74615898988E+03  0.19200000000E+03 0.  0.
<mgrwt>
<rscale>  0 0.58372295E+03</rscale>
<asrwt>0</asrwt>
<pdfrwt beam="1">  1        2 0.44711797E+00 0.58372295E+03</pdfrwt>
<pdfrwt beam="2">  1       -2 0.38880813E-02 0.58372295E+03</pdfrwt>
<totfact> 0.64854605E+02</totfact>
</mgrwt>
</event>
<event>
 4    1  0.5621415E-005  0.4493554E+03  0.7818608E-02  0.1027914E+00
         -2   -1    0    0    0  501 -0.00000000000E+00  0.00000000000E+00  0.67681285423E+02  0.67681285471E+02  0.25500000000E-02 0.  1.
          2   -1    0    0  501    0  0.00000000000E+00 -0.00000000000E+00 -0.74584974137E+03  0.74584974137E+03  0.25500000000E-02 0. -1.
    5000001    1    1    2    0    0  0.79119269455E+02 -0.85483986351E+02 -0.35171826288E+03  0.41729738456E+03  0.19200000000E+03 0.  0.
   -5000001    1    1    2    0    0 -0.79119269455E+02  0.85483986351E+02 -0.32645019307E+03  0.39623364228E+03  0.19200000000E+03 0.  0.
<mgrwt>
<rscale>  0 0.44935540E+03</rscale>
<asrwt>0</asrwt>
<pdfrwt beam="1">  1        2 0.10654996E+00 0.44935540E+03</pdfrwt>
<pdfrwt beam="2">  1       -2 0.96687555E-02 0.44935540E+03</pdfrwt>
<totfact> 0.29955087E+03</totfact>
</mgrwt>
</event>
<event>
 4    1  0.5621415E-005  0.7783714E+03  0.7818608E-02  0.9591862E-01
          2   -1    0    0  501    0  0.00000000000E+00  0.00000000000E+00  0.22656487790E+04  0.22656487790E+04  0.25500000000E-02 0.  1.
         -2   -1    0    0    0  501 -0.00000000000E+00 -0.00000000000E+00 -0.66853039084E+02  0.66853039133E+02  0.25500000000E-02 0. -1.
    5000001    1    1    2    0    0  0.32354588094E+03  0.90943838235E+02  0.97771835007E+03  0.10515464283E+04  0.19200000000E+03 0.  0.
   -5000001    1    1    2    0    0 -0.32354588094E+03 -0.90943838235E+02  0.12210773899E+04  0.12809553899E+04  0.19200000000E+03 0.  0.
<mgrwt>
<rscale>  0 0.77837139E+03</rscale>
<asrwt>0</asrwt>
<pdfrwt beam="1">  1        2 0.32366408E+00 0.77837139E+03</pdfrwt>
<pdfrwt beam="2">  1       -2 0.95504349E-02 0.77837139E+03</pdfrwt>
<totfact> 0.44298971E+02</totfact>
</mgrwt>
</event>
<event>
 4    1  0.5621415E-005  0.1036899E+04  0.7818608E-02  0.9268976E-01
         -2   -1    0    0    0  501 -0.00000000000E+00  0.00000000000E+00  0.91562020600E+02  0.91562020635E+02  0.25500000000E-02 0. -1.
          2   -1    0    0  501    0  0.00000000000E+00 -0.00000000000E+00 -0.29356034526E+04  0.29356034526E+04  0.25500000000E-02 0.  1.
    5000001    1    1    2    0    0  0.12100383228E+03 -0.45884002920E+03 -0.11821697300E+04  0.12882411926E+04  0.19200000000E+03 0.  0.
   -5000001    1    1    2    0    0 -0.12100383228E+03  0.45884002920E+03 -0.16618717020E+04  0.17389242806E+04  0.19200000000E+03 0.  0.
<mgrwt>
<rscale>  0 0.10368988E+04</rscale>
<asrwt>0</asrwt>
<pdfrwt beam="1">  1        2 0.41937186E+00 0.10368988E+04</pdfrwt>
<pdfrwt beam="2">  1       -2 0.13080291E-01 0.10368988E+04</pdfrwt>
<totfact> 0.11477705E+02</totfact>
</mgrwt>
</event>
<event>
 4    1  0.5621415E-005  0.5565891E+03  0.7818608E-02  0.9999802E-01
         -2   -1    0    0    0  501 -0.00000000000E+00  0.00000000000E+00  0.36082687403E+02  0.36082687493E+02  0.25500000000E-02 0. -1.
          2   -1    0    0  501    0  0.00000000000E+00 -0.00000000000E+00 -0.21463990366E+04  0.21463990366E+04  0.25500000000E-02 0.  1.
    5000001    1    1    2    0    0 -0.18657215322E+02 -0.20042922792E+03 -0.10864977621E+04  0.11215441829E+04  0.19200000000E+03 0.  0.
   -5000001    1    1    2    0    0  0.18657215322E+02  0.20042922792E+03 -0.10238185871E+04  0.10609375412E+04  0.19200000000E+03 0.  0.
<mgrwt>
<rscale>  0 0.55658906E+03</rscale>
<asrwt>0</asrwt>
<pdfrwt beam="1">  1        2 0.30662835E+00 0.55658906E+03</pdfrwt>
<pdfrwt beam="2">  1       -2 0.51546710E-02 0.55658906E+03</pdfrwt>
<totfact> 0.13721486E+03</totfact>
</mgrwt>
</event>
<event>
 4    1  0.5621415E-005  0.6779272E+03  0.7818608E-02  0.9755742E-01
         -2   -1    0    0    0  501 -0.00000000000E+00  0.00000000000E+00  0.15882612684E+03  0.15882612686E+03  0.25500000000E-02 0. -1.
          2   -1    0    0  501    0  0.00000000000E+00 -0.00000000000E+00 -0.72340955079E+03  0.72340955080E+03  0.25500000000E-02 0.  1.
    5000001    1    1    2    0    0  0.88508894077E+02  0.26410891860E+03 -0.30974393804E+03  0.45868578827E+03  0.19200000000E+03 0.  0.
   -5000001    1    1    2    0    0 -0.88508894077E+02 -0.26410891860E+03 -0.25483948592E+03  0.42354988938E+03  0.19200000000E+03 0.  0.
<mgrwt>
<rscale>  0 0.67792724E+03</rscale>
<asrwt>0</asrwt>
<pdfrwt beam="1">  1        2 0.10334422E+00 0.67792724E+03</pdfrwt>
<pdfrwt beam="2">  1       -2 0.22689447E-01 0.67792724E+03</pdfrwt>
<totfact> 0.73973008E+02</totfact>
</mgrwt>
</event>
<event>
 4    1  0.5621415E-005  0.5172910E+03  0.7818608E-02  0.1009362E+00
          2   -1    0    0  501    0  0.00000000000E+00  0.00000000000E+00  0.31509976169E+03  0.31509976170E+03  0.25500000000E-02 0.  1.
         -2   -1    0    0    0  501 -0.00000000000E+00 -0.00000000000E+00 -0.21230572097E+03  0.21230572098E+03  0.25500000000E-02 0. -1.
    5000001    1    1    2    0    0  0.10485559988E+03  0.85097983821E+02  0.16213528867E+03  0.28528619930E+03  0.19200000000E+03 0.  0.
   -5000001    1    1    2    0    0 -0.10485559988E+03 -0.85097983821E+02 -0.59341247951E+02  0.24211928338E+03  0.19200000000E+03 0.  0.
<mgrwt>
<rscale>  0 0.51729095E+03</rscale>
<asrwt>0</asrwt>
<pdfrwt beam="1">  1        2 0.45014252E-01 0.51729095E+03</pdfrwt>
<pdfrwt beam="2">  1       -2 0.30329389E-01 0.51729095E+03</pdfrwt>
<totfact> 0.11341875E+03</totfact>
</mgrwt>
</event>
<event>
 4    1  0.5621415E-005  0.9742772E+03  0.7818608E-02  0.9337216E-01
         -2   -1    0    0    0  501 -0.00000000000E+00  0.00000000000E+00  0.76818003590E+02  0.76818003632E+02  0.25500000000E-02 0. -1.
          2   -1    0    0  501    0  0.00000000000E+00 -0.00000000000E+00 -0.30891719949E+04  0.30891719949E+04  0.25500000000E-02 0.  1.
    5000001    1    1    2    0    0  0.34543866629E+03  0.79484288398E+02 -0.23948899997E+04  0.24285814244E+04  0.19200000000E+03 0.  0.
   -5000001    1    1    2    0    0 -0.34543866629E+03 -0.79484288398E+02 -0.61746399160E+03  0.73740857413E+03  0.19200000000E+03 0.  0.
<mgrwt>
<rscale>  0 0.97427722E+03</rscale>
<asrwt>0</asrwt>
<pdfrwt beam="1">  1        2 0.44131021E+00 0.97427722E+03</pdfrwt>
<pdfrwt beam="2">  1       -2 0.10974002E-01 0.97427722E+03</pdfrwt>
<totfact> 0.12707922E+02</totfact>
</mgrwt>
</event>
<event>
 4    1  0.5621415E-005  0.5785368E+03  0.7818608E-02  0.9950964E-01
          2   -1    0    0  501    0  0.00000000000E+00  0.00000000000E+00  0.10850332668E+04  0.10850332668E+04  0.25500000000E-02 0.  1.
         -2   -1    0    0    0  501 -0.00000000000E+00 -0.00000000000E+00 -0.77118559049E+02  0.77118559091E+02  0.25500000000E-02 0. -1.
    5000001    1    1    2    0    0 -0.13783207678E+01 -0.14980868096E+03  0.19038423975E+03  0.30911923170E+03  0.19200000000E+03 0.  0.
   -5000001    1    1    2    0    0  0.13783207678E+01  0.14980868096E+03  0.81753046795E+03  0.85303259415E+03  0.19200000000E+03 0.  0.
<mgrwt>
<rscale>  0 0.57853678E+03</rscale>
<asrwt>0</asrwt>
<pdfrwt beam="1">  1        2 0.15500474E+00 0.57853678E+03</pdfrwt>
<pdfrwt beam="2">  1       -2 0.11016938E-01 0.57853678E+03</pdfrwt>
<totfact> 0.14695571E+03</totfact>
</mgrwt>
</event>
<event>
 4    1  0.5621415E-005  0.5877282E+03  0.7818608E-02  0.9931198E-01
         -2   -1    0    0    0  501 -0.00000000000E+00  0.00000000000E+00  0.15277393377E+03  0.15277393379E+03  0.25500000000E-02 0. -1.
          2   -1    0    0  501    0  0.00000000000E+00 -0.00000000000E+00 -0.56525426083E+03  0.56525426084E+03  0.25500000000E-02 0.  1.
    5000001    1    1    2    0    0  0.13359105411E+03  0.75573752765E+01 -0.42337474347E+03  0.48374978767E+03  0.19200000000E+03 0.  0.
   -5000001    1    1    2    0    0 -0.13359105411E+03 -0.75573752765E+01  0.10894416410E+02  0.23427840696E+03  0.19200000000E+03 0.  0.
<mgrwt>
<rscale>  0 0.58772823E+03</rscale>
<asrwt>0</asrwt>
<pdfrwt beam="1">  1        2 0.80750608E-01 0.58772823E+03</pdfrwt>
<pdfrwt beam="2">  1       -2 0.21824848E-01 0.58772823E+03</pdfrwt>
<totfact> 0.10665229E+03</totfact>
</mgrwt>
</event>
<event>
 4    1  0.5621415E-005  0.5907747E+03  0.7818608E-02  0.9924733E-01
         -2   -1    0    0    0  501 -0.00000000000E+00  0.00000000000E+00  0.40847253941E+02  0.40847254021E+02  0.25500000000E-02 0. -1.
          2   -1    0    0  501    0  0.00000000000E+00 -0.00000000000E+00 -0.21360964214E+04  0.21360964215E+04  0.25500000000E-02 0.  1.
    5000001    1    1    2    0    0 -0.59198956292E+02 -0.19994697260E+03 -0.13538562479E+04  0.13832114980E+04  0.19200000000E+03 0.  0.
   -5000001    1    1    2    0    0  0.59198956292E+02  0.19994697260E+03 -0.74139291964E+03  0.79373217748E+03  0.19200000000E+03 0.  0.
<mgrwt>
<rscale>  0 0.59077465E+03</rscale>
<asrwt>0</asrwt>
<pdfrwt beam="1">  1        2 0.30515656E+00 0.59077465E+03</pdfrwt>
<pdfrwt beam="2">  1       -2 0.58353233E-02 0.59077465E+03</pdfrwt>
<totfact> 0.11424891E+03</totfact>
</mgrwt>
</event>
<event>
 4    1  0.5621415E-005  0.1267426E+04  0.7818608E-02  0.9055803E-01
         -2   -1    0    0    0  501 -0.00000000000E+00  0.00000000000E+00  0.31456527496E+03  0.31456527497E+03  0.25500000000E-02 0. -1.
          2   -1    0    0  501    0  0.00000000000E+00 -0.00000000000E+00 -0.12766569085E+04  0.12766569085E+04  0.25500000000E-02 0.  1.
    5000001    1    1    2    0    0 -0.48657761909E+03  0.16401203058E+03 -0.88018091088E+03  0.10369378773E+04  0.19200000000E+03 0.  0.
   -5000001    1    1    2    0    0  0.48657761909E+03 -0.16401203058E+03 -0.81910722674E+02  0.55428430616E+03  0.19200000000E+03 0.  0.
<mgrwt>
<rscale>  0 0.12674256E+04</rscale>
<asrwt>0</asrwt>
<pdfrwt beam="1">  1        2 0.18237956E+00 0.12674256E+04</pdfrwt>
<pdfrwt beam="2">  1       -2 0.44937897E-01 0.12674256E+04</pdfrwt>
<totfact> 0.89231136E+01</totfact>
</mgrwt>
</event>
<event>
 4    1  0.5621415E-005  0.6852195E+03  0.7818608E-02  0.9742848E-01
         -2   -1    0    0    0  501 -0.00000000000E+00  0.00000000000E+00  0.80529382595E+02  0.80529382635E+02  0.25500000000E-02 0. -1.
          2   -1    0    0  501    0  0.00000000000E+00 -0.00000000000E+00 -0.14576223394E+04  0.14576223394E+04  0.25500000000E-02 0.  1.
    5000001    1    1    2    0    0  0.30506769223E+02 -0.27702231674E+03 -0.80828700448E+03  0.87627844236E+03  0.19200000000E+03 0.  0.
   -5000001    1    1    2    0    0 -0.30506769223E+02  0.27702231674E+03 -0.56880595231E+03  0.66187327966E+03  0.19200000000E+03 0.  0.
<mgrwt>
<rscale>  0 0.68521946E+03</rscale>
<asrwt>0</asrwt>
<pdfrwt beam="1">  1        2 0.20823175E+00 0.68521946E+03</pdfrwt>
<pdfrwt beam="2">  1       -2 0.11504198E-01 0.68521946E+03</pdfrwt>
<totfact> 0.84998370E+02</totfact>
</mgrwt>
</event>
<event>
 4    1  0.5621415E-005  0.7806199E+03  0.7818608E-02  0.9588501E-01
          2   -1    0    0  501    0  0.00000000000E+00  0.00000000000E+00  0.30132764882E+04  0.30132764882E+04  0.25500000000E-02 0.  1.
         -2   -1    0    0    0  501 -0.00000000000E+00 -0.00000000000E+00 -0.50556876120E+02  0.50556876184E+02  0.25500000000E-02 0. -1.
    5000001    1    1    2    0    0 -0.27444778840E+03 -0.19961409466E+03  0.15505167793E+04  0.15987913117E+04  0.19200000000E+03 0.  0.
   -5000001    1    1    2    0    0  0.27444778840E+03  0.19961409466E+03  0.14122028328E+04  0.14650420527E+04  0.19200000000E+03 0.  0.
<mgrwt>
<rscale>  0 0.78061987E+03</rscale>
<asrwt>0</asrwt>
<pdfrwt beam="1">  1        2 0.43046816E+00 0.78061987E+03</pdfrwt>
<pdfrwt beam="2">  1       -2 0.72224093E-02 0.78061987E+03</pdfrwt>
<totfact> 0.28062337E+02</totfact>
</mgrwt>
</event>
<event>
 4    1  0.5621415E-005  0.7412065E+03  0.7818608E-02  0.9649248E-01
          2   -1    0    0  501    0  0.00000000000E+00  0.00000000000E+00  0.27784911555E+04  0.27784911555E+04  0.25500000000E-02 0.  1.
         -2   -1    0    0    0  501 -0.00000000000E+00 -0.00000000000E+00 -0.49432148408E+02  0.49432148474E+02  0.25500000000E-02 0. -1.
    5000001    1    1    2    0    0 -0.11550948204E+03  0.18457116323E+03  0.22434884752E+04  0.22621921874E+04  0.19200000000E+03 0.  0.
   -5000001    1    1    2    0    0  0.11550948204E+03 -0.18457116323E+03  0.48557053195E+03  0.56573111655E+03  0.19200000000E+03 0.  0.
<mgrwt>
<rscale>  0 0.74120655E+03</rscale>
<asrwt>0</asrwt>
<pdfrwt beam="1">  1        2 0.39692736E+00 0.74120655E+03</pdfrwt>
<pdfrwt beam="2">  1       -2 0.70617346E-02 0.74120655E+03</pdfrwt>
<totfact> 0.39085672E+02</totfact>
</mgrwt>
</event>
<event>
 4    1  0.5621415E-005  0.6490346E+03  0.7818608E-02  0.9808592E-01
         -2   -1    0    0    0  501 -0.00000000000E+00  0.00000000000E+00  0.15890179281E+03  0.15890179283E+03  0.25500000000E-02 0. -1.
          2   -1    0    0  501    0  0.00000000000E+00 -0.00000000000E+00 -0.66274569274E+03  0.66274569275E+03  0.25500000000E-02 0.  1.
    5000001    1    1    2    0    0 -0.19134828850E+03  0.14995293161E+03 -0.12952692091E+03  0.33576967173E+03  0.19200000000E+03 0.  0.
   -5000001    1    1    2    0    0  0.19134828850E+03 -0.14995293161E+03 -0.37431697902E+03  0.48587781385E+03  0.19200000000E+03 0.  0.
<mgrwt>
<rscale>  0 0.64903460E+03</rscale>
<asrwt>0</asrwt>
<pdfrwt beam="1">  1        2 0.94677955E-01 0.64903460E+03</pdfrwt>
<pdfrwt beam="2">  1       -2 0.22700256E-01 0.64903460E+03</pdfrwt>
<totfact> 0.82329909E+02</totfact>
</mgrwt>
</event>
<event>
 4    1  0.5621415E-005  0.8680790E+03  0.7818608E-02  0.9466388E-01
         -2   -1    0    0    0  501 -0.00000000000E+00  0.00000000000E+00  0.43771447923E+03  0.43771447924E+03  0.25500000000E-02 0. -1.
          2   -1    0    0  501    0  0.00000000000E+00 -0.00000000000E+00 -0.43039537715E+03  0.43039537715E+03  0.25500000000E-02 0.  1.
    5000001    1    1    2    0    0  0.13025741830E+03  0.36649434749E+03 -0.11871184979E+02  0.43392398735E+03  0.19200000000E+03 0.  0.
   -5000001    1    1    2    0    0 -0.13025741830E+03 -0.36649434749E+03  0.19190287067E+02  0.43418586905E+03  0.19200000000E+03 0.  0.
<mgrwt>
<rscale>  0 0.86807900E+03</rscale>
<asrwt>0</asrwt>
<pdfrwt beam="1">  1        2 0.61485054E-01 0.86807900E+03</pdfrwt>
<pdfrwt beam="2">  1       -2 0.62530640E-01 0.86807900E+03</pdfrwt>
<totfact> 0.18984598E+02</totfact>
</mgrwt>
</event>
<event>
 4    1  0.5621415E-005  0.7025081E+03  0.7818608E-02  0.9712953E-01
         -2   -1    0    0    0  501 -0.00000000000E+00  0.00000000000E+00  0.63523974593E+03  0.63523974593E+03  0.25500000000E-02 0. -1.
          2   -1    0    0  501    0  0.00000000000E+00 -0.00000000000E+00 -0.19422497293E+03  0.19422497295E+03  0.25500000000E-02 0.  1.
    5000001    1    1    2    0    0  0.10124223547E+03 -0.27540781240E+03  0.24458852899E+03  0.42753596561E+03  0.19200000000E+03 0.  0.
   -5000001    1    1    2    0    0 -0.10124223547E+03  0.27540781240E+03  0.19642624400E+03  0.40192875328E+03  0.19200000000E+03 0.  0.
<mgrwt>
<rscale>  0 0.70250814E+03</rscale>
<asrwt>0</asrwt>
<pdfrwt beam="1">  1        2 0.27746424E-01 0.70250814E+03</pdfrwt>
<pdfrwt beam="2">  1       -2 0.90748536E-01 0.70250814E+03</pdfrwt>
<totfact> 0.20359746E+02</totfact>
</mgrwt>
</event>
<event>
 4    1  0.5621415E-005  0.1104005E+04  0.7818608E-02  0.9201297E-01
         -2   -1    0    0    0  501 -0.00000000000E+00  0.00000000000E+00  0.94122356513E+02  0.94122356548E+02  0.25500000000E-02 0.  1.
          2   -1    0    0  501    0  0.00000000000E+00 -0.00000000000E+00 -0.32373470497E+04  0.32373470497E+04  0.25500000000E-02 0. -1.
    5000001    1    1    2    0    0 -0.22358760605E+03  0.44115855120E+03 -0.20315443225E+04  0.20996782180E+04  0.19200000000E+03 0.  0.
   -5000001    1    1    2    0    0  0.22358760605E+03 -0.44115855120E+03 -0.11116803707E+04  0.12317911883E+04  0.19200000000E+03 0.  0.
<mgrwt>
<rscale>  0 0.11040050E+04</rscale>
<asrwt>0</asrwt>
<pdfrwt beam="1">  1        2 0.46247808E+00 0.11040050E+04</pdfrwt>
<pdfrwt beam="2">  1       -2 0.13446053E-01 0.11040050E+04</pdfrwt>
<totfact> 0.73785940E+01</totfact>
</mgrwt>
</event>
<event>
 4    1  0.5621415E-005  0.8226079E+03  0.7818608E-02  0.9527858E-01
         -2   -1    0    0    0  501 -0.00000000000E+00  0.00000000000E+00  0.45444556960E+03  0.45444556961E+03  0.25500000000E-02 0. -1.
          2   -1    0    0  501    0  0.00000000000E+00 -0.00000000000E+00 -0.37225783067E+03  0.37225783068E+03  0.25500000000E-02 0.  1.
    5000001    1    1    2    0    0 -0.10656269927E+03 -0.16486448181E+03 -0.26665125431E+03  0.38275683882E+03  0.19200000000E+03 0.  0.
   -5000001    1    1    2    0    0  0.10656269927E+03  0.16486448181E+03  0.34883899324E+03  0.44394656147E+03  0.19200000000E+03 0.  0.
<mgrwt>
<rscale>  0 0.82260786E+03</rscale>
<asrwt>0</asrwt>
<pdfrwt beam="1">  1        2 0.53179690E-01 0.82260786E+03</pdfrwt>
<pdfrwt beam="2">  1       -2 0.64920796E-01 0.82260786E+03</pdfrwt>
<totfact> 0.20652674E+02</totfact>
</mgrwt>
</event>
<event>
 4    1  0.5621415E-005  0.7030539E+03  0.7818608E-02  0.9712024E-01
          2   -1    0    0  501    0  0.00000000000E+00  0.00000000000E+00  0.23461633217E+04  0.23461633217E+04  0.25500000000E-02 0.  1.
         -2   -1    0    0    0  501 -0.00000000000E+00 -0.00000000000E+00 -0.52669471961E+02  0.52669472023E+02  0.25500000000E-02 0. -1.
    5000001    1    1    2    0    0  0.89258800097E+02 -0.22211568706E+03  0.17318327076E+04  0.17588095516E+04  0.19200000000E+03 0.  0.
   -5000001    1    1    2    0    0 -0.89258800097E+02  0.22211568706E+03  0.56166114223E+03  0.64002324218E+03  0.19200000000E+03 0.  0.
<mgrwt>
<rscale>  0 0.70305386E+03</rscale>
<asrwt>0</asrwt>
<pdfrwt beam="1">  1        2 0.33516625E+00 0.70305386E+03</pdfrwt>
<pdfrwt beam="2">  1       -2 0.75242089E-02 0.70305386E+03</pdfrwt>
<totfact> 0.59452485E+02</totfact>
</mgrwt>
</event>
<event>
 4    1  0.5621415E-005  0.8267607E+03  0.7818608E-02  0.9522070E-01
          2   -1    0    0  501    0  0.00000000000E+00  0.00000000000E+00  0.11887409391E+04  0.11887409391E+04  0.25500000000E-02 0.  1.
         -2   -1    0    0    0  501 -0.00000000000E+00 -0.00000000000E+00 -0.14375152937E+03  0.14375152939E+03  0.25500000000E-02 0. -1.
    5000001    1    1    2    0    0 -0.20412042065E+02 -0.36548706777E+03  0.53003359316E+03  0.67215850664E+03  0.19200000000E+03 0.  0.
   -5000001    1    1    2    0    0  0.20412042065E+02  0.36548706777E+03  0.51495581660E+03  0.66033396189E+03  0.19200000000E+03 0.  0.
<mgrwt>
<rscale>  0 0.82676073E+03</rscale>
<asrwt>0</asrwt>
<pdfrwt beam="1">  1        2 0.16982013E+00 0.82676073E+03</pdfrwt>
<pdfrwt beam="2">  1       -2 0.20535934E-01 0.82676073E+03</pdfrwt>
<totfact> 0.44301664E+02</totfact>
</mgrwt>
</event>
<event>
 4    1  0.5621415E-005  0.8201685E+03  0.7818608E-02  0.9531274E-01
         -2   -1    0    0    0  501 -0.00000000000E+00  0.00000000000E+00  0.16158413645E+03  0.16158413647E+03  0.25500000000E-02 0. -1.
          2   -1    0    0  501    0  0.00000000000E+00 -0.00000000000E+00 -0.10407525021E+04  0.10407525021E+04  0.25500000000E-02 0.  1.
    5000001    1    1    2    0    0  0.29455326112E+03 -0.59777820898E+02 -0.73631073755E+03  0.81813966640E+03  0.19200000000E+03 0.  0.
   -5000001    1    1    2    0    0 -0.29455326112E+03  0.59777820898E+02 -0.14285762810E+03  0.38419697216E+03  0.19200000000E+03 0.  0.
<mgrwt>
<rscale>  0 0.82016851E+03</rscale>
<asrwt>0</asrwt>
<pdfrwt beam="1">  1        2 0.14867892E+00 0.82016851E+03</pdfrwt>
<pdfrwt beam="2">  1       -2 0.23083449E-01 0.82016851E+03</pdfrwt>
<totfact> 0.43970931E+02</totfact>
</mgrwt>
</event>
<event>
 4    1  0.5621415E-005  0.5772455E+03  0.7818608E-02  0.9953772E-01
         -2   -1    0    0    0  501 -0.00000000000E+00  0.00000000000E+00  0.30972127550E+03  0.30972127551E+03  0.25500000000E-02 0. -1.
          2   -1    0    0  501    0  0.00000000000E+00 -0.00000000000E+00 -0.26896147554E+03  0.26896147555E+03  0.25500000000E-02 0.  1.
    5000001    1    1    2    0    0 -0.16002459707E+03 -0.13065978104E+03  0.81845210484E+02  0.29367071446E+03  0.19200000000E+03 0.  0.
   -5000001    1    1    2    0    0  0.16002459707E+03  0.13065978104E+03 -0.41085410529E+02  0.28501203660E+03  0.19200000000E+03 0.  0.
<mgrwt>
<rscale>  0 0.57724550E+03</rscale>
<asrwt>0</asrwt>
<pdfrwt beam="1">  1        2 0.38423068E-01 0.57724550E+03</pdfrwt>
<pdfrwt beam="2">  1       -2 0.44245896E-01 0.57724550E+03</pdfrwt>
<totfact> 0.65660447E+02</totfact>
</mgrwt>
</event>
<event>
 4    1  0.5621415E-005  0.8209307E+03  0.7818608E-02  0.9530205E-01
         -2   -1    0    0    0  501 -0.00000000000E+00  0.00000000000E+00  0.10148985904E+04  0.10148985904E+04  0.25500000000E-02 0. -1.
          2   -1    0    0  501    0  0.00000000000E+00 -0.00000000000E+00 -0.16600849181E+03  0.16600849183E+03  0.25500000000E-02 0.  1.
    5000001    1    1    2    0    0 -0.46746054011E+02  0.27503536766E+03  0.90824719523E+02  0.35063196760E+03  0.19200000000E+03 0.  0.
   -5000001    1    1    2    0    0  0.46746054011E+02 -0.27503536766E+03  0.75806537908E+03  0.83027511464E+03  0.19200000000E+03 0.  0.
<mgrwt>
<rscale>  0 0.82093065E+03</rscale>
<asrwt>0</asrwt>
<pdfrwt beam="1">  1        2 0.23715499E-01 0.82093065E+03</pdfrwt>
<pdfrwt beam="2">  1       -2 0.14498551E+00 0.82093065E+03</pdfrwt>
<totfact> 0.76909702E+01</totfact>
</mgrwt>
</event>
<event>
 4    1  0.5621415E-005  0.6840873E+03  0.7818608E-02  0.9744839E-01
          2   -1    0    0  501    0  0.00000000000E+00  0.00000000000E+00  0.12506524349E+03  0.12506524352E+03  0.25500000000E-02 0.  1.
         -2   -1    0    0    0  501 -0.00000000000E+00 -0.00000000000E+00 -0.93546248412E+03  0.93546248413E+03  0.25500000000E-02 0. -1.
    5000001    1    1    2    0    0  0.18201980243E+03 -0.73498450315E+02 -0.89014895659E+02  0.28865356801E+03  0.19200000000E+03 0.  0.
   -5000001    1    1    2    0    0 -0.18201980243E+03  0.73498450315E+02 -0.72138234497E+03  0.77187415963E+03  0.19200000000E+03 0.  0.
<mgrwt>
<rscale>  0 0.68408726E+03</rscale>
<asrwt>0</asrwt>
<pdfrwt beam="1">  1        2 0.17866464E-01 0.68408726E+03</pdfrwt>
<pdfrwt beam="2">  1       -2 0.13363749E+00 0.68408726E+03</pdfrwt>
<totfact> 0.13312423E+02</totfact>
</mgrwt>
</event>
<event>
 4    1  0.5621415E-005  0.5112114E+03  0.7818608E-02  0.1010893E+00
         -2   -1    0    0    0  501 -0.00000000000E+00  0.00000000000E+00  0.18982834579E+02  0.18982834750E+02  0.25500000000E-02 0. -1.
          2   -1    0    0  501    0  0.00000000000E+00 -0.00000000000E+00 -0.34417558628E+04  0.34417558628E+04  0.25500000000E-02 0.  1.
    5000001    1    1    2    0    0 -0.66557826102E+02 -0.53007421248E+02 -0.26977770331E+04  0.27059387745E+04  0.19200000000E+03 0.  0.
   -5000001    1    1    2    0    0  0.66557826102E+02  0.53007421248E+02 -0.72499599510E+03  0.75479992305E+03  0.19200000000E+03 0.  0.
<mgrwt>
<rscale>  0 0.51121143E+03</rscale>
<asrwt>0</asrwt>
<pdfrwt beam="1">  1        2 0.49167901E+00 0.51121143E+03</pdfrwt>
<pdfrwt beam="2">  1       -2 0.27118357E-02 0.51121143E+03</pdfrwt>
<totfact> 0.75160325E+02</totfact>
</mgrwt>
</event>
<event>
 4    1  0.5621415E-005  0.4801282E+03  0.7818608E-02  0.1019100E+00
          2   -1    0    0  501    0  0.00000000000E+00  0.00000000000E+00  0.13142162504E+03  0.13142162507E+03  0.25500000000E-02 0.  1.
         -2   -1    0    0    0  501 -0.00000000000E+00 -0.00000000000E+00 -0.43851823556E+03  0.43851823556E+03  0.25500000000E-02 0. -1.
    5000001    1    1    2    0    0  0.81302376634E+02 -0.10843032206E+03 -0.95399831954E+02  0.25363820518E+03  0.19200000000E+03 0.  0.
   -5000001    1    1    2    0    0 -0.81302376634E+02  0.10843032206E+03 -0.21169677856E+03  0.31630165545E+03  0.19200000000E+03 0.  0.
<mgrwt>
<rscale>  0 0.48012823E+03</rscale>
<asrwt>0</asrwt>
<pdfrwt beam="1">  1        2 0.18774518E-01 0.48012823E+03</pdfrwt>
<pdfrwt beam="2">  1       -2 0.62645462E-01 0.48012823E+03</pdfrwt>
<totfact> 0.72735325E+02</totfact>
</mgrwt>
</event>
<event>
 4    1  0.5621415E-005  0.8179382E+03  0.7818608E-02  0.9534409E-01
          2   -1    0    0  501    0  0.00000000000E+00  0.00000000000E+00  0.10218802748E+04  0.10218802748E+04  0.25500000000E-02 0.  1.
         -2   -1    0    0    0  501 -0.00000000000E+00 -0.00000000000E+00 -0.16367448554E+03  0.16367448556E+03  0.25500000000E-02 0. -1.
    5000001    1    1    2    0    0 -0.16885254053E+03 -0.24920337112E+03  0.71818674937E+03  0.80204096379E+03  0.19200000000E+03 0.  0.
   -5000001    1    1    2    0    0  0.16885254053E+03  0.24920337112E+03  0.14001903987E+03  0.38351379656E+03  0.19200000000E+03 0.  0.
<mgrwt>
<rscale>  0 0.81793821E+03</rscale>
<asrwt>0</asrwt>
<pdfrwt beam="1">  1        2 0.14598289E+00 0.81793821E+03</pdfrwt>
<pdfrwt beam="2">  1       -2 0.23382070E-01 0.81793821E+03</pdfrwt>
<totfact> 0.44123820E+02</totfact>
</mgrwt>
</event>
<event>
 4    1  0.5621415E-005  0.6092602E+03  0.7818608E-02  0.9886378E-01
          2   -1    0    0  501    0  0.00000000000E+00  0.00000000000E+00  0.10457879494E+04  0.10457879495E+04  0.25500000000E-02 0.  1.
         -2   -1    0    0    0  501 -0.00000000000E+00 -0.00000000000E+00 -0.88736441167E+02  0.88736441204E+02  0.25500000000E-02 0. -1.
    5000001    1    1    2    0    0  0.21687120793E+03 -0.66989142031E+02  0.35479767961E+03  0.46288881973E+03  0.19200000000E+03 0.  0.
   -5000001    1    1    2    0    0 -0.21687120793E+03  0.66989142031E+02  0.60225382867E+03  0.67163557092E+03  0.19200000000E+03 0.  0.
<mgrwt>
<rscale>  0 0.60926021E+03</rscale>
<asrwt>0</asrwt>
<pdfrwt beam="1">  1        2 0.14939826E+00 0.60926021E+03</pdfrwt>
<pdfrwt beam="2">  1       -2 0.12676636E-01 0.60926021E+03</pdfrwt>
<totfact> 0.12299879E+03</totfact>
</mgrwt>
</event>
<event>
 4    1  0.5621415E-005  0.6866913E+03  0.7818608E-02  0.9740266E-01
          2   -1    0    0  501    0  0.00000000000E+00  0.00000000000E+00  0.16638244240E+04  0.16638244240E+04  0.25500000000E-02 0.  1.
         -2   -1    0    0    0  501 -0.00000000000E+00 -0.00000000000E+00 -0.70852565679E+02  0.70852565725E+02  0.25500000000E-02 0. -1.
    5000001    1    1    2    0    0  0.27885590353E+03 -0.22872141921E+01  0.65233255052E+03  0.73496095321E+03  0.19200000000E+03 0.  0.
   -5000001    1    1    2    0    0 -0.27885590353E+03  0.22872141921E+01  0.94063930781E+03  0.99971603652E+03  0.19200000000E+03 0.  0.
<mgrwt>
<rscale>  0 0.68669128E+03</rscale>
<asrwt>0</asrwt>
<pdfrwt beam="1">  1        2 0.23768926E+00 0.68669128E+03</pdfrwt>
<pdfrwt beam="2">  1       -2 0.10121793E-01 0.68669128E+03</pdfrwt>
<totfact> 0.81887545E+02</totfact>
</mgrwt>
</event>
<event>
 4    1  0.5621415E-005  0.5647890E+03  0.7818608E-02  0.9981277E-01
          2   -1    0    0  501    0  0.00000000000E+00  0.00000000000E+00  0.18744231555E+04  0.18744231555E+04  0.25500000000E-02 0.  1.
         -2   -1    0    0    0  501 -0.00000000000E+00 -0.00000000000E+00 -0.42544638505E+02  0.42544638582E+02  0.25500000000E-02 0. -1.
    5000001    1    1    2    0    0 -0.13972755617E+03  0.15271883386E+03  0.93625404973E+03  0.97789696687E+03  0.19200000000E+03 0.  0.
   -5000001    1    1    2    0    0  0.13972755617E+03 -0.15271883386E+03  0.89562446725E+03  0.93907082721E+03  0.19200000000E+03 0.  0.
<mgrwt>
<rscale>  0 0.56478901E+03</rscale>
<asrwt>0</asrwt>
<pdfrwt beam="1">  1        2 0.26777468E+00 0.56478901E+03</pdfrwt>
<pdfrwt beam="2">  1       -2 0.60778068E-02 0.56478901E+03</pdfrwt>
<totfact> 0.14524478E+03</totfact>
</mgrwt>
</event>
<event>
 4    1  0.5621415E-005  0.5420754E+03  0.7818608E-02  0.1003345E+00
         -2   -1    0    0    0  501 -0.00000000000E+00  0.00000000000E+00  0.15851549674E+02  0.15851549879E+02  0.25500000000E-02 0. -1.
          2   -1    0    0  501    0  0.00000000000E+00 -0.00000000000E+00 -0.46343373448E+04  0.46343373448E+04  0.25500000000E-02 0.  1.
    5000001    1    1    2    0    0  0.97944539646E+02 -0.35655952686E+01 -0.89987268347E+03  0.92533274705E+03  0.19200000000E+03 0.  0.
   -5000001    1    1    2    0    0 -0.97944539646E+02  0.35655952686E+01 -0.37186131117E+04  0.37248561477E+04  0.19200000000E+03 0.  0.
<mgrwt>
<rscale>  0 0.54207538E+03</rscale>
<asrwt>0</asrwt>
<pdfrwt beam="1">  1        2 0.66204733E+00 0.54207538E+03</pdfrwt>
<pdfrwt beam="2">  1       -2 0.22645101E-02 0.54207538E+03</pdfrwt>
<totfact> 0.15181780E+02</totfact>
</mgrwt>
</event>
<event>
 4    1  0.5621415E-005  0.1301914E+04  0.7818608E-02  0.9028049E-01
          2   -1    0    0  501    0  0.00000000000E+00  0.00000000000E+00  0.67124249173E+03  0.67124249173E+03  0.25500000000E-02 0.  1.
         -2   -1    0    0    0  501 -0.00000000000E+00 -0.00000000000E+00 -0.63128435875E+03  0.63128435875E+03  0.25500000000E-02 0. -1.
    5000001    1    1    2    0    0 -0.53984129500E+03  0.30448926357E+03 -0.32376737705E+02  0.64965728546E+03  0.19200000000E+03 0.  0.
   -5000001    1    1    2    0    0  0.53984129500E+03 -0.30448926357E+03  0.72334870682E+02  0.65286956502E+03  0.19200000000E+03 0.  0.
<mgrwt>
<rscale>  0 0.13019138E+04</rscale>
<asrwt>0</asrwt>
<pdfrwt beam="1">  1        2 0.95891785E-01 0.13019138E+04</pdfrwt>
<pdfrwt beam="2">  1       -2 0.90183480E-01 0.13019138E+04</pdfrwt>
<totfact> 0.48936743E+01</totfact>
</mgrwt>
</event>
<event>
 4    1  0.5621415E-005  0.6860924E+03  0.7818608E-02  0.9741316E-01
          2   -1    0    0  501    0  0.00000000000E+00  0.00000000000E+00  0.11414459712E+04  0.11414459712E+04  0.25500000000E-02 0. -1.
         -2   -1    0    0    0  501 -0.00000000000E+00 -0.00000000000E+00 -0.10309790280E+03  0.10309790283E+03  0.25500000000E-02 0.  1.
    5000001    1    1    2    0    0  0.17257866369E+03 -0.33950512717E+02  0.92430336537E+03  0.96027951333E+03  0.19200000000E+03 0.  0.
   -5000001    1    1    2    0    0 -0.17257866369E+03  0.33950512717E+02  0.11404470303E+03  0.28426436070E+03  0.19200000000E+03 0.  0.
<mgrwt>
<rscale>  0 0.68609237E+03</rscale>
<asrwt>0</asrwt>
<pdfrwt beam="1">  1        2 0.16306371E+00 0.68609237E+03</pdfrwt>
<pdfrwt beam="2">  1       -2 0.14728272E-01 0.68609237E+03</pdfrwt>
<totfact> 0.83977088E+02</totfact>
</mgrwt>
</event>
<event>
 4    1  0.5621415E-005  0.5839674E+03  0.7818608E-02  0.9939238E-01
         -2   -1    0    0    0  501 -0.00000000000E+00  0.00000000000E+00  0.41679718995E+02  0.41679719073E+02  0.25500000000E-02 0. -1.
          2   -1    0    0  501    0  0.00000000000E+00 -0.00000000000E+00 -0.20454667827E+04  0.20454667827E+04  0.25500000000E-02 0.  1.
    5000001    1    1    2    0    0 -0.15295332615E+03 -0.14761631305E+03 -0.79954927675E+03  0.84931050966E+03  0.19200000000E+03 0.  0.
   -5000001    1    1    2    0    0  0.15295332615E+03  0.14761631305E+03 -0.12042377870E+04  0.12378359921E+04  0.19200000000E+03 0.  0.
<mgrwt>
<rscale>  0 0.58396740E+03</rscale>
<asrwt>0</asrwt>
<pdfrwt beam="1">  1        2 0.29220948E+00 0.58396740E+03</pdfrwt>
<pdfrwt beam="2">  1       -2 0.59542469E-02 0.58396740E+03</pdfrwt>
<totfact> 0.12297685E+03</totfact>
</mgrwt>
</event>
<event>
 4    1  0.5621415E-005  0.4428301E+03  0.7818608E-02  0.1029882E+00
          2   -1    0    0  501    0  0.00000000000E+00  0.00000000000E+00  0.33366952987E+03  0.33366952988E+03  0.25500000000E-02 0.  1.
         -2   -1    0    0    0  501 -0.00000000000E+00 -0.00000000000E+00 -0.14692566205E+03  0.14692566207E+03  0.25500000000E-02 0. -1.
    5000001    1    1    2    0    0 -0.43465868184E+02 -0.86762193096E+02  0.36524978351E+02  0.21820869344E+03  0.19200000000E+03 0.  0.
   -5000001    1    1    2    0    0  0.43465868184E+02  0.86762193096E+02  0.15021888947E+03  0.26238649851E+03  0.19200000000E+03 0.  0.
<mgrwt>
<rscale>  0 0.44283006E+03</rscale>
<asrwt>0</asrwt>
<pdfrwt beam="1">  1        2 0.47667076E-01 0.44283006E+03</pdfrwt>
<pdfrwt beam="2">  1       -2 0.20989380E-01 0.44283006E+03</pdfrwt>
<totfact> 0.20573473E+03</totfact>
</mgrwt>
</event>
<event>
 4    1  0.5621415E-005  0.5792422E+03  0.7818608E-02  0.9949433E-01
          2   -1    0    0  501    0  0.00000000000E+00  0.00000000000E+00  0.44732173983E+03  0.44732173984E+03  0.25500000000E-02 0.  1.
         -2   -1    0    0    0  501 -0.00000000000E+00 -0.00000000000E+00 -0.18751688921E+03  0.18751688923E+03  0.25500000000E-02 0. -1.
    5000001    1    1    2    0    0 -0.12583306246E+03 -0.17021609238E+03  0.78392429288E+02  0.29633908058E+03  0.19200000000E+03 0.  0.
   -5000001    1    1    2    0    0  0.12583306246E+03  0.17021609238E+03  0.18141242133E+03  0.33849954849E+03  0.19200000000E+03 0.  0.
<mgrwt>
<rscale>  0 0.57924220E+03</rscale>
<asrwt>0</asrwt>
<pdfrwt beam="1">  1        2 0.63903105E-01 0.57924220E+03</pdfrwt>
<pdfrwt beam="2">  1       -2 0.26788127E-01 0.57924220E+03</pdfrwt>
<totfact> 0.96562079E+02</totfact>
</mgrwt>
</event>
<event>
 4    1  0.5621415E-005  0.5503568E+03  0.7818608E-02  0.1001411E+00
          2   -1    0    0  501    0  0.00000000000E+00  0.00000000000E+00  0.15075137131E+04  0.15075137131E+04  0.25500000000E-02 0.  1.
         -2   -1    0    0    0  501 -0.00000000000E+00 -0.00000000000E+00 -0.50230487928E+02  0.50230487992E+02  0.25500000000E-02 0. -1.
    5000001    1    1    2    0    0 -0.29549339682E+02  0.19254349721E+03  0.81416487491E+03  0.85887985500E+03  0.19200000000E+03 0.  0.
   -5000001    1    1    2    0    0  0.29549339682E+02 -0.19254349721E+03  0.64311835029E+03  0.69886434612E+03  0.19200000000E+03 0.  0.
<mgrwt>
<rscale>  0 0.55035679E+03</rscale>
<asrwt>0</asrwt>
<pdfrwt beam="1">  1        2 0.21535904E+00 0.55035679E+03</pdfrwt>
<pdfrwt beam="2">  1       -2 0.71757861E-02 0.55035679E+03</pdfrwt>
<totfact> 0.17201783E+03</totfact>
</mgrwt>
</event>
<event>
 4    1  0.5621415E-005  0.7274134E+03  0.7818608E-02  0.9671467E-01
          2   -1    0    0  501    0  0.00000000000E+00  0.00000000000E+00  0.25923732360E+04  0.25923732360E+04  0.25500000000E-02 0.  1.
         -2   -1    0    0    0  501 -0.00000000000E+00 -0.00000000000E+00 -0.51027597595E+02  0.51027597659E+02  0.25500000000E-02 0. -1.
    5000001    1    1    2    0    0  0.26357744566E+03 -0.49150531078E+02  0.71324298557E+03  0.78579157607E+03  0.19200000000E+03 0.  0.
   -5000001    1    1    2    0    0 -0.26357744566E+03  0.49150531078E+02  0.18281026529E+04  0.18576092576E+04  0.19200000000E+03 0.  0.
<mgrwt>
<rscale>  0 0.72741344E+03</rscale>
<asrwt>0</asrwt>
<pdfrwt beam="1">  1        2 0.37033912E+00 0.72741344E+03</pdfrwt>
<pdfrwt beam="2">  1       -2 0.72896551E-02 0.72741344E+03</pdfrwt>
<totfact> 0.46608210E+02</totfact>
</mgrwt>
</event>
<event>
 4    1  0.5621415E-005  0.4239581E+03  0.7818608E-02  0.1035786E+00
          2   -1    0    0  501    0  0.00000000000E+00  0.00000000000E+00  0.16422313743E+04  0.16422313743E+04  0.25500000000E-02 0.  1.
         -2   -1    0    0    0  501 -0.00000000000E+00 -0.00000000000E+00 -0.27362230182E+02  0.27362230301E+02  0.25500000000E-02 0. -1.
    5000001    1    1    2    0    0  0.48371249130E+02 -0.19501630688E+02  0.10955099971E+04  0.11134299462E+04  0.19200000000E+03 0.  0.
   -5000001    1    1    2    0    0 -0.48371249130E+02  0.19501630688E+02  0.51935914704E+03  0.55616365843E+03  0.19200000000E+03 0.  0.
<mgrwt>
<rscale>  0 0.42395808E+03</rscale>
<asrwt>0</asrwt>
<pdfrwt beam="1">  1        2 0.23460458E+00 0.42395808E+03</pdfrwt>
<pdfrwt beam="2">  1       -2 0.39088883E-02 0.42395808E+03</pdfrwt>
<totfact> 0.37698974E+03</totfact>
</mgrwt>
</event>
<event>
 4    1  0.5621415E-005  0.5501856E+03  0.7818608E-02  0.1001451E+00
          2   -1    0    0  501    0  0.00000000000E+00  0.00000000000E+00  0.19398341077E+04  0.19398341077E+04  0.25500000000E-02 0.  1.
         -2   -1    0    0    0  501 -0.00000000000E+00 -0.00000000000E+00 -0.39011607100E+02  0.39011607183E+02  0.25500000000E-02 0. -1.
    5000001    1    1    2    0    0  0.18892571000E+03  0.67147431986E+00  0.11512685076E+04  0.11823605844E+04  0.19200000000E+03 0.  0.
   -5000001    1    1    2    0    0 -0.18892571000E+03 -0.67147431986E+00  0.74955399299E+03  0.79648513055E+03  0.19200000000E+03 0.  0.
<mgrwt>
<rscale>  0 0.55018559E+03</rscale>
<asrwt>0</asrwt>
<pdfrwt beam="1">  1        2 0.27711915E+00 0.55018559E+03</pdfrwt>
<pdfrwt beam="2">  1       -2 0.55730869E-02 0.55018559E+03</pdfrwt>
<totfact> 0.15429371E+03</totfact>
</mgrwt>
</event>
<event>
 4    1  0.5621415E-005  0.9094576E+03  0.7818608E-02  0.9413836E-01
          2   -1    0    0  501    0  0.00000000000E+00  0.00000000000E+00  0.10009487236E+04  0.10009487236E+04  0.25500000000E-02 0.  1.
         -2   -1    0    0    0  501 -0.00000000000E+00 -0.00000000000E+00 -0.20658229081E+03  0.20658229082E+03  0.25500000000E-02 0. -1.
    5000001    1    1    2    0    0 -0.30733979605E+03 -0.23684979402E+03  0.21244617186E+03  0.48223744266E+03  0.19200000000E+03 0.  0.
   -5000001    1    1    2    0    0  0.30733979605E+03  0.23684979402E+03  0.58192026095E+03  0.72529357178E+03  0.19200000000E+03 0.  0.
<mgrwt>
<rscale>  0 0.90945760E+03</rscale>
<asrwt>0</asrwt>
<pdfrwt beam="1">  1        2 0.14299267E+00 0.90945760E+03</pdfrwt>
<pdfrwt beam="2">  1       -2 0.29511756E-01 0.90945760E+03</pdfrwt>
<totfact> 0.29628484E+02</totfact>
</mgrwt>
</event>
<event>
 4    1  0.5621415E-005  0.5414304E+03  0.7818608E-02  0.1003497E+00
         -2   -1    0    0    0  501 -0.00000000000E+00  0.00000000000E+00  0.57609864471E+03  0.57609864471E+03  0.25500000000E-02 0. -1.
          2   -1    0    0  501    0  0.00000000000E+00 -0.00000000000E+00 -0.12721208217E+03  0.12721208220E+03  0.25500000000E-02 0.  1.
    5000001    1    1    2    0    0 -0.10106208467E+03 -0.72544398687E+02  0.41244425370E+03  0.47164658076E+03  0.19200000000E+03 0.  0.
   -5000001    1    1    2    0    0  0.10106208467E+03  0.72544398687E+02  0.36442308834E+02  0.23166414615E+03  0.19200000000E+03 0.  0.
<mgrwt>
<rscale>  0 0.54143036E+03</rscale>
<asrwt>0</asrwt>
<pdfrwt beam="1">  1        2 0.18173155E-01 0.54143036E+03</pdfrwt>
<pdfrwt beam="2">  1       -2 0.82299807E-01 0.54143036E+03</pdfrwt>
<totfact> 0.41672143E+02</totfact>
</mgrwt>
</event>
<event>
 4    1  0.5621415E-005  0.6514006E+03  0.7818608E-02  0.9804155E-01
          2   -1    0    0  501    0  0.00000000000E+00  0.00000000000E+00  0.17040631814E+04  0.17040631814E+04  0.25500000000E-02 0.  1.
         -2   -1    0    0    0  501 -0.00000000000E+00 -0.00000000000E+00 -0.62251622980E+02  0.62251623032E+02  0.25500000000E-02 0. -1.
    5000001    1    1    2    0    0 -0.22021585855E+03 -0.14077491893E+03  0.73937392034E+03  0.80737252631E+03  0.19200000000E+03 0.  0.
   -5000001    1    1    2    0    0  0.22021585855E+03  0.14077491893E+03  0.90243763811E+03  0.95894227816E+03  0.19200000000E+03 0.  0.
<mgrwt>
<rscale>  0 0.65140064E+03</rscale>
<asrwt>0</asrwt>
<pdfrwt beam="1">  1        2 0.24343763E+00 0.65140064E+03</pdfrwt>
<pdfrwt beam="2">  1       -2 0.88930879E-02 0.65140064E+03</pdfrwt>
<totfact> 0.96454837E+02</totfact>
</mgrwt>
</event>
<event>
 4    1  0.5621415E-005  0.5269689E+03  0.7818608E-02  0.1006970E+00
         -2   -1    0    0    0  501 -0.00000000000E+00  0.00000000000E+00  0.19582483416E+02  0.19582483582E+02  0.25500000000E-02 0. -1.
          2   -1    0    0  501    0  0.00000000000E+00 -0.00000000000E+00 -0.35452125834E+04  0.35452125834E+04  0.25500000000E-02 0.  1.
    5000001    1    1    2    0    0 -0.14642784240E+03  0.38273526713E+02 -0.10981463286E+04  0.11250312595E+04  0.19200000000E+03 0.  0.
   -5000001    1    1    2    0    0  0.14642784240E+03 -0.38273526713E+02 -0.24274837714E+04  0.24397638075E+04  0.19200000000E+03 0.  0.
<mgrwt>
<rscale>  0 0.52696894E+03</rscale>
<asrwt>0</asrwt>
<pdfrwt beam="1">  1        2 0.50645853E+00 0.52696894E+03</pdfrwt>
<pdfrwt beam="2">  1       -2 0.27974999E-02 0.52696894E+03</pdfrwt>
<totfact> 0.62184006E+02</totfact>
</mgrwt>
</event>
<event>
 4    1  0.5621415E-005  0.4517030E+03  0.7818608E-02  0.1027215E+00
          2   -1    0    0  501    0  0.00000000000E+00  0.00000000000E+00  0.36623214270E+03  0.36623214271E+03  0.25500000000E-02 0.  1.
         -2   -1    0    0    0  501 -0.00000000000E+00 -0.00000000000E+00 -0.13928024435E+03  0.13928024437E+03  0.25500000000E-02 0. -1.
    5000001    1    1    2    0    0  0.34985975537E+02  0.67910861065E+02  0.11463502129E+02  0.20695727921E+03  0.19200000000E+03 0.  0.
   -5000001    1    1    2    0    0 -0.34985975537E+02 -0.67910861065E+02  0.21548839623E+03  0.29855510788E+03  0.19200000000E+03 0.  0.
<mgrwt>
<rscale>  0 0.45170301E+03</rscale>
<asrwt>0</asrwt>
<pdfrwt beam="1">  1        2 0.52318877E-01 0.45170301E+03</pdfrwt>
<pdfrwt beam="2">  1       -2 0.19897178E-01 0.45170301E+03</pdfrwt>
<totfact> 0.20387936E+03</totfact>
</mgrwt>
</event>
<event>
 4    1  0.5621415E-005  0.6140281E+03  0.7818608E-02  0.9876722E-01
          2   -1    0    0  501    0  0.00000000000E+00  0.00000000000E+00  0.17502477408E+04  0.17502477408E+04  0.25500000000E-02 0.  1.
         -2   -1    0    0    0  501 -0.00000000000E+00 -0.00000000000E+00 -0.53853875162E+02  0.53853875223E+02  0.25500000000E-02 0. -1.
    5000001    1    1    2    0    0  0.17804174732E+02  0.21772668684E+03  0.11371482762E+04  0.11737512943E+04  0.19200000000E+03 0.  0.
   -5000001    1    1    2    0    0 -0.17804174732E+02 -0.21772668684E+03  0.55924558946E+03  0.63035032175E+03  0.19200000000E+03 0.  0.
<mgrwt>
<rscale>  0 0.61402809E+03</rscale>
<asrwt>0</asrwt>
<pdfrwt beam="1">  1        2 0.25003544E+00 0.61402809E+03</pdfrwt>
<pdfrwt beam="2">  1       -2 0.76934092E-02 0.61402809E+03</pdfrwt>
<totfact> 0.11541442E+03</totfact>
</mgrwt>
</event>
<event>
 4    1  0.5621415E-005  0.7614081E+03  0.7818608E-02  0.9617621E-01
         -2   -1    0    0    0  501 -0.00000000000E+00  0.00000000000E+00  0.55947520286E+02  0.55947520344E+02  0.25500000000E-02 0. -1.
          2   -1    0    0  501    0  0.00000000000E+00 -0.00000000000E+00 -0.25905626570E+04  0.25905626570E+04  0.25500000000E-02 0.  1.
    5000001    1    1    2    0    0  0.29705335835E+03 -0.10379342935E+03 -0.15981087572E+04  0.16400699295E+04  0.19200000000E+03 0.  0.
   -5000001    1    1    2    0    0 -0.29705335835E+03  0.10379342935E+03 -0.93650637947E+03  0.10064402478E+04  0.19200000000E+03 0.  0.
<mgrwt>
<rscale>  0 0.76140806E+03</rscale>
<asrwt>0</asrwt>
<pdfrwt beam="1">  1        2 0.37008030E+00 0.76140806E+03</pdfrwt>
<pdfrwt beam="2">  1       -2 0.79925045E-02 0.76140806E+03</pdfrwt>
<totfact> 0.40218030E+02</totfact>
</mgrwt>
</event>
<event>
 4    1  0.5621415E-005  0.7401253E+03  0.7818608E-02  0.9650971E-01
         -2   -1    0    0    0  501 -0.00000000000E+00  0.00000000000E+00  0.12489727544E+03  0.12489727547E+03  0.25500000000E-02 0. -1.
          2   -1    0    0  501    0  0.00000000000E+00 -0.00000000000E+00 -0.10964718854E+04  0.10964718854E+04  0.25500000000E-02 0.  1.
    5000001    1    1    2    0    0 -0.46356287675E+02  0.61095317656E+02  0.20700549457E+02  0.20778367596E+03  0.19200000000E+03 0.  0.
   -5000001    1    1    2    0    0  0.46356287675E+02 -0.61095317656E+02 -0.99227515944E+03  0.10135854849E+04  0.19200000000E+03 0.  0.
<mgrwt>
<rscale>  0 0.74012526E+03</rscale>
<asrwt>0</asrwt>
<pdfrwt beam="1">  1        2 0.15663884E+00 0.74012526E+03</pdfrwt>
<pdfrwt beam="2">  1       -2 0.17842469E-01 0.74012526E+03</pdfrwt>
<totfact> 0.64198940E+02</totfact>
</mgrwt>
</event>
<event>
 4    1  0.5621415E-005  0.4917109E+03  0.7818608E-02  0.1015965E+00
         -2   -1    0    0    0  501 -0.00000000000E+00  0.00000000000E+00  0.22688266380E+02  0.22688266523E+02  0.25500000000E-02 0. -1.
          2   -1    0    0  501    0  0.00000000000E+00 -0.00000000000E+00 -0.26641482887E+04  0.26641482887E+04  0.25500000000E-02 0.  1.
    5000001    1    1    2    0    0  0.34702601535E+02 -0.13650122128E+03 -0.16550807989E+04  0.16721223953E+04  0.19200000000E+03 0.  0.
   -5000001    1    1    2    0    0 -0.34702601535E+02  0.13650122128E+03 -0.98637922342E+03  0.10147141599E+04  0.19200000000E+03 0.  0.
<mgrwt>
<rscale>  0 0.49171092E+03</rscale>
<asrwt>0</asrwt>
<pdfrwt beam="1">  1        2 0.38059241E+00 0.49171092E+03</pdfrwt>
<pdfrwt beam="2">  1       -2 0.32411826E-02 0.49171092E+03</pdfrwt>
<totfact> 0.15315380E+03</totfact>
</mgrwt>
</event>
<event>
 4    1  0.5621415E-005  0.6039919E+03  0.7818608E-02  0.9897159E-01
         -2   -1    0    0    0  501 -0.00000000000E+00  0.00000000000E+00  0.33194258358E+03  0.33194258359E+03  0.25500000000E-02 0.  1.
          2   -1    0    0  501    0  0.00000000000E+00 -0.00000000000E+00 -0.27475102126E+03  0.27475102127E+03  0.25500000000E-02 0. -1.
    5000001    1    1    2    0    0  0.83476237873E+02 -0.25024539820E+02 -0.18857271332E+03  0.28287484528E+03  0.19200000000E+03 0.  0.
   -5000001    1    1    2    0    0 -0.83476237873E+02  0.25024539820E+02  0.24576427564E+03  0.32381875959E+03  0.19200000000E+03 0.  0.
<mgrwt>
<rscale>  0 0.60399193E+03</rscale>
<asrwt>0</asrwt>
<pdfrwt beam="1">  1        2 0.39250146E-01 0.60399193E+03</pdfrwt>
<pdfrwt beam="2">  1       -2 0.47420369E-01 0.60399193E+03</pdfrwt>
<totfact> 0.55846062E+02</totfact>
</mgrwt>
</event>
<event>
 4    1  0.5621415E-005  0.7885014E+03  0.7818608E-02  0.9576812E-01
         -2   -1    0    0    0  501 -0.00000000000E+00  0.00000000000E+00  0.60126690907E+03  0.60126690907E+03  0.25500000000E-02 0.  1.
          2   -1    0    0  501    0  0.00000000000E+00 -0.00000000000E+00 -0.25851016917E+03  0.25851016918E+03  0.25500000000E-02 0. -1.
    5000001    1    1    2    0    0  0.23365089540E+03  0.21660590481E+03  0.31379379174E+03  0.48666354153E+03  0.19200000000E+03 0.  0.
   -5000001    1    1    2    0    0 -0.23365089540E+03 -0.21660590481E+03  0.28962948152E+02  0.37311353672E+03  0.19200000000E+03 0.  0.
<mgrwt>
<rscale>  0 0.78850139E+03</rscale>
<asrwt>0</asrwt>
<pdfrwt beam="1">  1        2 0.36930024E-01 0.78850139E+03</pdfrwt>
<pdfrwt beam="2">  1       -2 0.85895273E-01 0.78850139E+03</pdfrwt>
<totfact> 0.16694233E+02</totfact>
</mgrwt>
</event>
<event>
 4    1  0.5621415E-005  0.1357040E+04  0.7818608E-02  0.8985516E-01
          2   -1    0    0  501    0  0.00000000000E+00  0.00000000000E+00  0.23444843448E+04  0.23444843448E+04  0.25500000000E-02 0.  1.
         -2   -1    0    0    0  501 -0.00000000000E+00 -0.00000000000E+00 -0.19637134440E+03  0.19637134442E+03  0.25500000000E-02 0. -1.
    5000001    1    1    2    0    0  0.27396108239E+03 -0.28839011445E+03  0.10965572963E+03  0.45509549747E+03  0.19200000000E+03 0.  0.
   -5000001    1    1    2    0    0 -0.27396108239E+03  0.28839011445E+03  0.20384572708E+04  0.20857601918E+04  0.19200000000E+03 0.  0.
<mgrwt>
<rscale>  0 0.13570402E+04</rscale>
<asrwt>0</asrwt>
<pdfrwt beam="1">  1        2 0.33492633E+00 0.13570402E+04</pdfrwt>
<pdfrwt beam="2">  1       -2 0.28053050E-01 0.13570402E+04</pdfrwt>
<totfact> 0.60476871E+01</totfact>
</mgrwt>
</event>
<event>
 4    1  0.5621415E-005  0.5105774E+03  0.7818608E-02  0.1011054E+00
          2   -1    0    0  501    0  0.00000000000E+00  0.00000000000E+00  0.14430364571E+04  0.14430364571E+04  0.25500000000E-02 0.  1.
         -2   -1    0    0    0  501 -0.00000000000E+00 -0.00000000000E+00 -0.45163326543E+02  0.45163326615E+02  0.25500000000E-02 0. -1.
    5000001    1    1    2    0    0  0.18428111346E+02 -0.35028376453E+02  0.22229216587E+03  0.29638554191E+03  0.19200000000E+03 0.  0.
   -5000001    1    1    2    0    0 -0.18428111346E+02  0.35028376453E+02  0.11755809647E+04  0.11918142418E+04  0.19200000000E+03 0.  0.
<mgrwt>
<rscale>  0 0.51057743E+03</rscale>
<asrwt>0</asrwt>
<pdfrwt beam="1">  1        2 0.20614799E+00 0.51057743E+03</pdfrwt>
<pdfrwt beam="2">  1       -2 0.64519063E-02 0.51057743E+03</pdfrwt>
<totfact> 0.21991582E+03</totfact>
</mgrwt>
</event>
<event>
 4    1  0.5621415E-005  0.4875800E+03  0.7818608E-02  0.1017073E+00
          2   -1    0    0  501    0  0.00000000000E+00  0.00000000000E+00  0.77235050567E+03  0.77235050568E+03  0.25500000000E-02 0. -1.
         -2   -1    0    0    0  501 -0.00000000000E+00 -0.00000000000E+00 -0.76951543088E+02  0.76951543130E+02  0.25500000000E-02 0.  1.
    5000001    1    1    2    0    0  0.81627495658E+02 -0.11547814161E+03  0.43602655635E+03  0.49697223975E+03  0.19200000000E+03 0.  0.
   -5000001    1    1    2    0    0 -0.81627495658E+02  0.11547814161E+03  0.25937240623E+03  0.35232980906E+03  0.19200000000E+03 0.  0.
<mgrwt>
<rscale>  0 0.48758000E+03</rscale>
<asrwt>0</asrwt>
<pdfrwt beam="1">  1        2 0.11033578E+00 0.48758000E+03</pdfrwt>
<pdfrwt beam="2">  1       -2 0.10993078E-01 0.48758000E+03</pdfrwt>
<totfact> 0.23323041E+03</totfact>
</mgrwt>
</event>
<event>
 4    1  0.5621415E-005  0.7316645E+03  0.7818608E-02  0.9664563E-01
          2   -1    0    0  501    0  0.00000000000E+00  0.00000000000E+00  0.15715603103E+04  0.15715603103E+04  0.25500000000E-02 0.  1.
         -2   -1    0    0    0  501 -0.00000000000E+00 -0.00000000000E+00 -0.85159461801E+02  0.85159461839E+02  0.25500000000E-02 0. -1.
    5000001    1    1    2    0    0  0.57913651594E+01  0.30080155344E+03  0.56129089257E+03  0.66515154705E+03  0.19200000000E+03 0.  0.
   -5000001    1    1    2    0    0 -0.57913651594E+01 -0.30080155344E+03  0.92510995596E+03  0.99156822513E+03  0.19200000000E+03 0.  0.
<mgrwt>
<rscale>  0 0.73166449E+03</rscale>
<asrwt>0</asrwt>
<pdfrwt beam="1">  1        2 0.22450860E+00 0.73166449E+03</pdfrwt>
<pdfrwt beam="2">  1       -2 0.12165638E-01 0.73166449E+03</pdfrwt>
<totfact> 0.67424187E+02</totfact>
</mgrwt>
</event>
<event>
 4    1  0.5621415E-005  0.6160404E+03  0.7818608E-02  0.9872675E-01
          2   -1    0    0  501    0  0.00000000000E+00  0.00000000000E+00  0.97964882166E+03  0.97964882167E+03  0.25500000000E-02 0.  1.
         -2   -1    0    0    0  501 -0.00000000000E+00 -0.00000000000E+00 -0.96847412328E+02  0.96847412362E+02  0.25500000000E-02 0. -1.
    5000001    1    1    2    0    0  0.23212332575E+03 -0.36390061135E+02  0.34881949734E+03  0.46232512005E+03  0.19200000000E+03 0.  0.
   -5000001    1    1    2    0    0 -0.23212332575E+03  0.36390061135E+02  0.53398191200E+03  0.61417111398E+03  0.19200000000E+03 0.  0.
<mgrwt>
<rscale>  0 0.61604043E+03</rscale>
<asrwt>0</asrwt>
<pdfrwt beam="1">  1        2 0.13994984E+00 0.61604043E+03</pdfrwt>
<pdfrwt beam="2">  1       -2 0.13835344E-01 0.61604043E+03</pdfrwt>
<totfact> 0.11661452E+03</totfact>
</mgrwt>
</event>
<event>
 4    1  0.5621415E-005  0.8820794E+03  0.7818608E-02  0.9448264E-01
         -2   -1    0    0    0  501 -0.00000000000E+00  0.00000000000E+00  0.19758162538E+03  0.19758162540E+03  0.25500000000E-02 0. -1.
          2   -1    0    0  501    0  0.00000000000E+00 -0.00000000000E+00 -0.98448443574E+03  0.98448443575E+03  0.25500000000E-02 0.  1.
    5000001    1    1    2    0    0 -0.24491177721E+03 -0.21147659624E+03 -0.70181169235E+03  0.79630884768E+03  0.19200000000E+03 0.  0.
   -5000001    1    1    2    0    0  0.24491177721E+03  0.21147659624E+03 -0.85091118007E+02  0.38575721346E+03  0.19200000000E+03 0.  0.
<mgrwt>
<rscale>  0 0.88207944E+03</rscale>
<asrwt>0</asrwt>
<pdfrwt beam="1">  1        2 0.14064063E+00 0.88207944E+03</pdfrwt>
<pdfrwt beam="2">  1       -2 0.28225947E-01 0.88207944E+03</pdfrwt>
<totfact> 0.32975838E+02</totfact>
</mgrwt>
</event>
<event>
 4    1  0.5621415E-005  0.5308812E+03  0.7818608E-02  0.1006019E+00
         -2   -1    0    0    0  501 -0.00000000000E+00  0.00000000000E+00  0.34330557838E+03  0.34330557838E+03  0.25500000000E-02 0. -1.
          2   -1    0    0  501    0  0.00000000000E+00 -0.00000000000E+00 -0.20523612550E+03  0.20523612552E+03  0.25500000000E-02 0.  1.
    5000001    1    1    2    0    0 -0.15436525741E+03 -0.45110518297E+02 -0.21817043938E+02  0.25140321192E+03  0.19200000000E+03 0.  0.
   -5000001    1    1    2    0    0  0.15436525741E+03  0.45110518297E+02  0.15988649681E+03  0.29713849198E+03  0.19200000000E+03 0.  0.
<mgrwt>
<rscale>  0 0.53088118E+03</rscale>
<asrwt>0</asrwt>
<pdfrwt beam="1">  1        2 0.29319447E-01 0.53088118E+03</pdfrwt>
<pdfrwt beam="2">  1       -2 0.49043654E-01 0.53088118E+03</pdfrwt>
<totfact> 0.72284089E+02</totfact>
</mgrwt>
</event>
<event>
 4    1  0.5621415E-005  0.1309547E+04  0.7818608E-02  0.9022029E-01
          2   -1    0    0  501    0  0.00000000000E+00  0.00000000000E+00  0.34881983766E+04  0.34881983767E+04  0.25500000000E-02 0.  1.
         -2   -1    0    0    0  501 -0.00000000000E+00 -0.00000000000E+00 -0.12290819306E+03  0.12290819309E+03  0.25500000000E-02 0. -1.
    5000001    1    1    2    0    0 -0.49226330013E+03  0.30431837098E+03  0.23405982521E+04  0.24187180500E+04  0.19200000000E+03 0.  0.
   -5000001    1    1    2    0    0  0.49226330013E+03 -0.30431837098E+03  0.10246919315E+04  0.11923885197E+04  0.19200000000E+03 0.  0.
<mgrwt>
<rscale>  0 0.13095467E+04</rscale>
<asrwt>0</asrwt>
<pdfrwt beam="1">  1        2 0.49831410E+00 0.13095467E+04</pdfrwt>
<pdfrwt beam="2">  1       -2 0.17558312E-01 0.13095467E+04</pdfrwt>
<totfact> 0.32653421E+01</totfact>
</mgrwt>
</event>
<event>
 4    1  0.5621415E-005  0.4315937E+03  0.7818608E-02  0.1033358E+00
          2   -1    0    0  501    0  0.00000000000E+00  0.00000000000E+00  0.16337590541E+03  0.16337590543E+03  0.25500000000E-02 0.  1.
         -2   -1    0    0    0  501 -0.00000000000E+00 -0.00000000000E+00 -0.28503766350E+03  0.28503766352E+03  0.25500000000E-02 0. -1.
    5000001    1    1    2    0    0  0.80686663715E+02  0.10325106178E+02 -0.31016296727E+01  0.20854391774E+03  0.19200000000E+03 0.  0.
   -5000001    1    1    2    0    0 -0.80686663715E+02 -0.10325106178E+02 -0.11856012842E+03  0.23986965121E+03  0.19200000000E+03 0.  0.
<mgrwt>
<rscale>  0 0.43159373E+03</rscale>
<asrwt>0</asrwt>
<pdfrwt beam="1">  1        2 0.23339415E-01 0.43159373E+03</pdfrwt>
<pdfrwt beam="2">  1       -2 0.40719666E-01 0.43159373E+03</pdfrwt>
<totfact> 0.13500706E+03</totfact>
</mgrwt>
</event>
<event>
 4    1  0.5621415E-005  0.6793831E+03  0.7818608E-02  0.9753154E-01
         -2   -1    0    0    0  501 -0.00000000000E+00  0.00000000000E+00  0.91232053975E+03  0.91232053975E+03  0.25500000000E-02 0. -1.
          2   -1    0    0  501    0  0.00000000000E+00 -0.00000000000E+00 -0.12648004331E+03  0.12648004334E+03  0.25500000000E-02 0.  1.
    5000001    1    1    2    0    0 -0.15230477988E+03 -0.20235660789E+03  0.57628591525E+03  0.65811427492E+03  0.19200000000E+03 0.  0.
   -5000001    1    1    2    0    0  0.15230477988E+03  0.20235660789E+03  0.20955458119E+03  0.38068630817E+03  0.19200000000E+03 0.  0.
<mgrwt>
<rscale>  0 0.67938308E+03</rscale>
<asrwt>0</asrwt>
<pdfrwt beam="1">  1        2 0.18068578E-01 0.67938308E+03</pdfrwt>
<pdfrwt beam="2">  1       -2 0.13033150E+00 0.67938308E+03</pdfrwt>
<totfact> 0.13997774E+02</totfact>
</mgrwt>
</event>
<event>
 4    1  0.5621415E-005  0.5984056E+03  0.7818608E-02  0.9908719E-01
         -2   -1    0    0    0  501 -0.00000000000E+00  0.00000000000E+00  0.86023533058E+02  0.86023533096E+02  0.25500000000E-02 0. -1.
          2   -1    0    0  501    0  0.00000000000E+00 -0.00000000000E+00 -0.10406725567E+04  0.10406725567E+04  0.25500000000E-02 0.  1.
    5000001    1    1    2    0    0  0.22615498639E+03 -0.33205311770E+02 -0.51543307918E+03  0.59563741463E+03  0.19200000000E+03 0.  0.
   -5000001    1    1    2    0    0 -0.22615498639E+03  0.33205311770E+02 -0.43921594449E+03  0.53105867519E+03  0.19200000000E+03 0.  0.
<mgrwt>
<rscale>  0 0.59840565E+03</rscale>
<asrwt>0</asrwt>
<pdfrwt beam="1">  1        2 0.14866750E+00 0.59840565E+03</pdfrwt>
<pdfrwt beam="2">  1       -2 0.12289077E-01 0.59840565E+03</pdfrwt>
<totfact> 0.13041972E+03</totfact>
</mgrwt>
</event>
<event>
 4    1  0.5621415E-005  0.1051334E+04  0.7818608E-02  0.9253967E-01
          2   -1    0    0  501    0  0.00000000000E+00  0.00000000000E+00  0.50991051247E+03  0.50991051248E+03  0.25500000000E-02 0.  1.
         -2   -1    0    0    0  501 -0.00000000000E+00 -0.00000000000E+00 -0.54191074658E+03  0.54191074659E+03  0.25500000000E-02 0. -1.
    5000001    1    1    2    0    0  0.28962162482E+03  0.37440830515E+03  0.10815297044E+03  0.52213344036E+03  0.19200000000E+03 0.  0.
   -5000001    1    1    2    0    0 -0.28962162482E+03 -0.37440830515E+03 -0.14015320456E+03  0.52968781870E+03  0.19200000000E+03 0.  0.
<mgrwt>
<rscale>  0 0.10513344E+04</rscale>
<asrwt>0</asrwt>
<pdfrwt beam="1">  1        2 0.72844360E-01 0.10513344E+04</pdfrwt>
<pdfrwt beam="2">  1       -2 0.77415820E-01 0.10513344E+04</pdfrwt>
<totfact> 0.97351503E+01</totfact>
</mgrwt>
</event>
<event>
 4    1  0.5621415E-005  0.5872226E+03  0.7818608E-02  0.9932276E-01
          2   -1    0    0  501    0  0.00000000000E+00  0.00000000000E+00  0.10404765251E+04  0.10404765251E+04  0.25500000000E-02 0.  1.
         -2   -1    0    0    0  501 -0.00000000000E+00 -0.00000000000E+00 -0.82853949952E+02  0.82853949991E+02  0.25500000000E-02 0. -1.
    5000001    1    1    2    0    0 -0.13221512349E+03 -0.35279422429E+02  0.81354080182E+03  0.84701718563E+03  0.19200000000E+03 0.  0.
   -5000001    1    1    2    0    0  0.13221512349E+03  0.35279422429E+02  0.14408177332E+03  0.27631328945E+03  0.19200000000E+03 0.  0.
<mgrwt>
<rscale>  0 0.58722258E+03</rscale>
<asrwt>0</asrwt>
<pdfrwt beam="1">  1        2 0.14863949E+00 0.58722258E+03</pdfrwt>
<pdfrwt beam="2">  1       -2 0.11836280E-01 0.58722258E+03</pdfrwt>
<totfact> 0.13880456E+03</totfact>
</mgrwt>
</event>
<event>
 4    1  0.5621415E-005  0.5489527E+03  0.7818608E-02  0.1001737E+00
         -2   -1    0    0    0  501 -0.00000000000E+00  0.00000000000E+00  0.73723439178E+02  0.73723439222E+02  0.25500000000E-02 0. -1.
          2   -1    0    0  501    0  0.00000000000E+00 -0.00000000000E+00 -0.10218902965E+04  0.10218902965E+04  0.25500000000E-02 0.  1.
    5000001    1    1    2    0    0  0.13520303660E+03 -0.70637878239E+02 -0.72017522307E+03  0.76077981234E+03  0.19200000000E+03 0.  0.
   -5000001    1    1    2    0    0 -0.13520303660E+03  0.70637878239E+02 -0.22799163421E+03  0.33483392334E+03  0.19200000000E+03 0.  0.
<mgrwt>
<rscale>  0 0.54895270E+03</rscale>
<asrwt>0</asrwt>
<pdfrwt beam="1">  1        2 0.14598432E+00 0.54895270E+03</pdfrwt>
<pdfrwt beam="2">  1       -2 0.10531921E-01 0.54895270E+03</pdfrwt>
<totfact> 0.17244465E+03</totfact>
</mgrwt>
</event>
<event>
 4    1  0.5621415E-005  0.5254152E+03  0.7818608E-02  0.1007350E+00
         -2   -1    0    0    0  501 -0.00000000000E+00  0.00000000000E+00  0.32002803960E+03  0.32002803961E+03  0.25500000000E-02 0. -1.
          2   -1    0    0  501    0  0.00000000000E+00 -0.00000000000E+00 -0.21565384121E+03  0.21565384122E+03  0.25500000000E-02 0.  1.
    5000001    1    1    2    0    0 -0.14150105911E+03  0.11005740173E+03  0.56277302686E+02  0.26863789048E+03  0.19200000000E+03 0.  0.
   -5000001    1    1    2    0    0  0.14150105911E+03 -0.11005740173E+03  0.48096895710E+02  0.26704399035E+03  0.19200000000E+03 0.  0.
<mgrwt>
<rscale>  0 0.52541517E+03</rscale>
<asrwt>0</asrwt>
<pdfrwt beam="1">  1        2 0.30807691E-01 0.52541517E+03</pdfrwt>
<pdfrwt beam="2">  1       -2 0.45718292E-01 0.52541517E+03</pdfrwt>
<totfact> 0.78696019E+02</totfact>
</mgrwt>
</event>
<event>
 4    1  0.5621415E-005  0.5450191E+03  0.7818608E-02  0.1002653E+00
         -2   -1    0    0    0  501 -0.00000000000E+00  0.00000000000E+00  0.13839491107E+03  0.13839491110E+03  0.25500000000E-02 0. -1.
          2   -1    0    0  501    0  0.00000000000E+00 -0.00000000000E+00 -0.53659094398E+03  0.53659094398E+03  0.25500000000E-02 0.  1.
    5000001    1    1    2    0    0  0.14364484601E+03  0.11250572564E+03 -0.11973897151E+03  0.29067645482E+03  0.19200000000E+03 0.  0.
   -5000001    1    1    2    0    0 -0.14364484601E+03 -0.11250572564E+03 -0.27845706139E+03  0.38430940026E+03  0.19200000000E+03 0.  0.
<mgrwt>
<rscale>  0 0.54501910E+03</rscale>
<asrwt>0</asrwt>
<pdfrwt beam="1">  1        2 0.76655848E-01 0.54501910E+03</pdfrwt>
<pdfrwt beam="2">  1       -2 0.19770702E-01 0.54501910E+03</pdfrwt>
<totfact> 0.13465699E+03</totfact>
</mgrwt>
</event>
<event>
 4    1  0.5621415E-005  0.6734866E+03  0.7818608E-02  0.9763680E-01
         -2   -1    0    0    0  501 -0.00000000000E+00  0.00000000000E+00  0.21080164166E+03  0.21080164168E+03  0.25500000000E-02 0. -1.
          2   -1    0    0  501    0  0.00000000000E+00 -0.00000000000E+00 -0.53792766445E+03  0.53792766446E+03  0.25500000000E-02 0.  1.
    5000001    1    1    2    0    0 -0.26749752452E+03 -0.31683290541E+02 -0.23363918697E+03  0.40498151342E+03  0.19200000000E+03 0.  0.
   -5000001    1    1    2    0    0  0.26749752452E+03  0.31683290541E+02 -0.93486835816E+02  0.34374779271E+03  0.19200000000E+03 0.  0.
<mgrwt>
<rscale>  0 0.67348655E+03</rscale>
<asrwt>0</asrwt>
<pdfrwt beam="1">  1        2 0.76846808E-01 0.67348655E+03</pdfrwt>
<pdfrwt beam="2">  1       -2 0.30114521E-01 0.67348655E+03</pdfrwt>
<totfact> 0.63081282E+02</totfact>
</mgrwt>
</event>
<event>
 4    1  0.5621415E-005  0.4371819E+03  0.7818608E-02  0.1031615E+00
          2   -1    0    0  501    0  0.00000000000E+00  0.00000000000E+00  0.10330519401E+04  0.10330519401E+04  0.25500000000E-02 0.  1.
         -2   -1    0    0    0  501 -0.00000000000E+00 -0.00000000000E+00 -0.46253246935E+02  0.46253247005E+02  0.25500000000E-02 0. -1.
    5000001    1    1    2    0    0  0.85493672973E+02  0.59879739662E+02  0.48149400253E+03  0.52876764823E+03  0.19200000000E+03 0.  0.
   -5000001    1    1    2    0    0 -0.85493672973E+02 -0.59879739662E+02  0.50530469065E+03  0.55053753889E+03  0.19200000000E+03 0.  0.
<mgrwt>
<rscale>  0 0.43718191E+03</rscale>
<asrwt>0</asrwt>
<pdfrwt beam="1">  1        2 0.14757885E+00 0.43718191E+03</pdfrwt>
<pdfrwt beam="2">  1       -2 0.66076068E-02 0.43718191E+03</pdfrwt>
<totfact> 0.35672092E+03</totfact>
</mgrwt>
</event>
<event>
 4    1  0.5621415E-005  0.7846304E+03  0.7818608E-02  0.9582534E-01
         -2   -1    0    0    0  501 -0.00000000000E+00  0.00000000000E+00  0.21085942424E+03  0.21085942425E+03  0.25500000000E-02 0. -1.
          2   -1    0    0  501    0  0.00000000000E+00 -0.00000000000E+00 -0.72992331822E+03  0.72992331822E+03  0.25500000000E-02 0.  1.
    5000001    1    1    2    0    0  0.12997999446E+03 -0.29388999017E+03 -0.11877626658E+03  0.39273136720E+03  0.19200000000E+03 0.  0.
   -5000001    1    1    2    0    0 -0.12997999446E+03  0.29388999017E+03 -0.40028762740E+03  0.54805137527E+03  0.19200000000E+03 0.  0.
<mgrwt>
<rscale>  0 0.78463039E+03</rscale>
<asrwt>0</asrwt>
<pdfrwt beam="1">  1        2 0.10427476E+00 0.78463039E+03</pdfrwt>
<pdfrwt beam="2">  1       -2 0.30122775E-01 0.78463039E+03</pdfrwt>
<totfact> 0.43601417E+02</totfact>
</mgrwt>
</event>
<event>
 4    1  0.5621415E-005  0.7800613E+03  0.7818608E-02  0.9589335E-01
          2   -1    0    0  501    0  0.00000000000E+00  0.00000000000E+00  0.28309084016E+04  0.28309084016E+04  0.25500000000E-02 0.  1.
         -2   -1    0    0    0  501 -0.00000000000E+00 -0.00000000000E+00 -0.53736779917E+02  0.53736779978E+02  0.25500000000E-02 0. -1.
    5000001    1    1    2    0    0 -0.32871039255E+03 -0.77975597099E+02  0.15128501185E+04  0.15619571687E+04  0.19200000000E+03 0.  0.
   -5000001    1    1    2    0    0  0.32871039255E+03  0.77975597099E+02  0.12643215032E+04  0.13226880129E+04  0.19200000000E+03 0.  0.
<mgrwt>
<rscale>  0 0.78006128E+03</rscale>
<asrwt>0</asrwt>
<pdfrwt beam="1">  1        2 0.40441542E+00 0.78006128E+03</pdfrwt>
<pdfrwt beam="2">  1       -2 0.76766841E-02 0.78006128E+03</pdfrwt>
<totfact> 0.31974582E+02</totfact>
</mgrwt>
</event>
<event>
 4    1  0.5621415E-005  0.5473573E+03  0.7818608E-02  0.1002107E+00
          2   -1    0    0  501    0  0.00000000000E+00  0.00000000000E+00  0.90917065388E+03  0.90917065388E+03  0.25500000000E-02 0.  1.
         -2   -1    0    0    0  501 -0.00000000000E+00 -0.00000000000E+00 -0.82382771070E+02  0.82382771109E+02  0.25500000000E-02 0. -1.
    5000001    1    1    2    0    0 -0.61948101364E+02  0.18375468156E+03  0.45107406963E+03  0.52719556765E+03  0.19200000000E+03 0.  0.
   -5000001    1    1    2    0    0  0.61948101364E+02 -0.18375468156E+03  0.37571381318E+03  0.46435785734E+03  0.19200000000E+03 0.  0.
<mgrwt>
<rscale>  0 0.54735728E+03</rscale>
<asrwt>0</asrwt>
<pdfrwt beam="1">  1        2 0.12988151E+00 0.54735728E+03</pdfrwt>
<pdfrwt beam="2">  1       -2 0.11768968E-01 0.54735728E+03</pdfrwt>
<totfact> 0.16894090E+03</totfact>
</mgrwt>
</event>
<event>
 4    1  0.5621415E-005  0.1200444E+04  0.7818608E-02  0.9112468E-01
          2   -1    0    0  501    0  0.00000000000E+00  0.00000000000E+00  0.33255958143E+04  0.33255958143E+04  0.25500000000E-02 0.  1.
         -2   -1    0    0    0  501 -0.00000000000E+00 -0.00000000000E+00 -0.10833136588E+03  0.10833136591E+03  0.25500000000E-02 0. -1.
    5000001    1    1    2    0    0 -0.55482639210E+03 -0.20290017097E+02  0.19608204856E+04  0.20469306259E+04  0.19200000000E+03 0.  0.
   -5000001    1    1    2    0    0  0.55482639210E+03  0.20290017097E+02  0.12564439628E+04  0.13869965543E+04  0.19200000000E+03 0.  0.
<mgrwt>
<rscale>  0 0.12004438E+04</rscale>
<asrwt>0</asrwt>
<pdfrwt beam="1">  1        2 0.47508513E+00 0.12004438E+04</pdfrwt>
<pdfrwt beam="2">  1       -2 0.15475909E-01 0.12004438E+04</pdfrwt>
<totfact> 0.51214935E+01</totfact>
</mgrwt>
</event>
<event>
 4    1  0.5621415E-005  0.8989643E+03  0.7818608E-02  0.9426877E-01
          2   -1    0    0  501    0  0.00000000000E+00  0.00000000000E+00  0.69791181407E+03  0.69791181408E+03  0.25500000000E-02 0.  1.
         -2   -1    0    0    0  501 -0.00000000000E+00 -0.00000000000E+00 -0.28948385987E+03  0.28948385988E+03  0.25500000000E-02 0. -1.
    5000001    1    1    2    0    0  0.19180319282E+03 -0.25498752371E+03  0.48069606049E+03  0.60806233610E+03  0.19200000000E+03 0.  0.
   -5000001    1    1    2    0    0 -0.19180319282E+03  0.25498752371E+03 -0.72268106282E+02  0.37933333786E+03  0.19200000000E+03 0.  0.
<mgrwt>
<rscale>  0 0.89896431E+03</rscale>
<asrwt>0</asrwt>
<pdfrwt beam="1">  1        2 0.99701687E-01 0.89896431E+03</pdfrwt>
<pdfrwt beam="2">  1       -2 0.41354837E-01 0.89896431E+03</pdfrwt>
<totfact> 0.25064614E+02</totfact>
</mgrwt>
</event>
<event>
 4    1  0.5621415E-005  0.4087311E+03  0.7818608E-02  0.1040798E+00
          2   -1    0    0  501    0  0.00000000000E+00  0.00000000000E+00  0.22957958234E+04  0.22957958234E+04  0.25500000000E-02 0.  1.
         -2   -1    0    0    0  501 -0.00000000000E+00 -0.00000000000E+00 -0.18192065660E+02  0.18192065838E+02  0.25500000000E-02 0. -1.
    5000001    1    1    2    0    0 -0.45409637580E+02 -0.90533741942E+01  0.84152366790E+03  0.86439000596E+03  0.19200000000E+03 0.  0.
   -5000001    1    1    2    0    0  0.45409637580E+02  0.90533741942E+01  0.14360800898E+04  0.14495978833E+04  0.19200000000E+03 0.  0.
<mgrwt>
<rscale>  0 0.40873105E+03</rscale>
<asrwt>0</asrwt>
<pdfrwt beam="1">  1        2 0.32797086E+00 0.40873105E+03</pdfrwt>
<pdfrwt beam="2">  1       -2 0.25988663E-02 0.40873105E+03</pdfrwt>
<totfact> 0.33024919E+03</totfact>
</mgrwt>
</event>
<event>
 4    1  0.5621415E-005  0.5714294E+03  0.7818608E-02  0.9966521E-01
         -2   -1    0    0    0  501 -0.00000000000E+00  0.00000000000E+00  0.12935386672E+03  0.12935386675E+03  0.25500000000E-02 0. -1.
          2   -1    0    0  501    0  0.00000000000E+00 -0.00000000000E+00 -0.63108191878E+03  0.63108191878E+03  0.25500000000E-02 0.  1.
    5000001    1    1    2    0    0 -0.80917661638E+02  0.19500522516E+03 -0.23232004752E+03  0.36798275813E+03  0.19200000000E+03 0.  0.
   -5000001    1    1    2    0    0  0.80917661638E+02 -0.19500522516E+03 -0.26940800454E+03  0.39245302740E+03  0.19200000000E+03 0.  0.
<mgrwt>
<rscale>  0 0.57142939E+03</rscale>
<asrwt>0</asrwt>
<pdfrwt beam="1">  1        2 0.90154558E-01 0.57142939E+03</pdfrwt>
<pdfrwt beam="2">  1       -2 0.18479124E-01 0.57142939E+03</pdfrwt>
<totfact> 0.12522956E+03</totfact>
</mgrwt>
</event>
<event>
 4    1  0.5621415E-005  0.7620787E+03  0.7818608E-02  0.9616589E-01
          2   -1    0    0  501    0  0.00000000000E+00  0.00000000000E+00  0.19661989602E+03  0.19661989603E+03  0.25500000000E-02 0.  1.
         -2   -1    0    0    0  501 -0.00000000000E+00 -0.00000000000E+00 -0.73843477335E+03  0.73843477335E+03  0.25500000000E-02 0. -1.
    5000001    1    1    2    0    0  0.30363317140E+03 -0.12539251037E+03 -0.29576955985E+03  0.48193362299E+03  0.19200000000E+03 0.  0.
   -5000001    1    1    2    0    0 -0.30363317140E+03  0.12539251037E+03 -0.24604531748E+03  0.45312104640E+03  0.19200000000E+03 0.  0.
<mgrwt>
<rscale>  0 0.76207865E+03</rscale>
<asrwt>0</asrwt>
<pdfrwt beam="1">  1        2 0.28088557E-01 0.76207865E+03</pdfrwt>
<pdfrwt beam="2">  1       -2 0.10549068E+00 0.76207865E+03</pdfrwt>
<totfact> 0.14059603E+02</totfact>
</mgrwt>
</event>
<event>
 4    1  0.5621415E-005  0.7921299E+03  0.7818608E-02  0.9571479E-01
          2   -1    0    0  501    0  0.00000000000E+00  0.00000000000E+00  0.42182972771E+04  0.42182972771E+04  0.25500000000E-02 0.  1.
         -2   -1    0    0    0  501 -0.00000000000E+00 -0.00000000000E+00 -0.37187385173E+02  0.37187385261E+02  0.25500000000E-02 0. -1.
    5000001    1    1    2    0    0 -0.13721005369E+03  0.31801475867E+03  0.20551390122E+04  0.20929453755E+04  0.19200000000E+03 0.  0.
   -5000001    1    1    2    0    0  0.13721005369E+03 -0.31801475867E+03  0.21259708797E+04  0.21625392868E+04  0.19200000000E+03 0.  0.
<mgrwt>
<rscale>  0 0.79212990E+03</rscale>
<asrwt>0</asrwt>
<pdfrwt beam="1">  1        2 0.60261341E+00 0.79212990E+03</pdfrwt>
<pdfrwt beam="2">  1       -2 0.53124879E-02 0.79212990E+03</pdfrwt>
<totfact> 0.81661911E+01</totfact>
</mgrwt>
</event>
<event>
 4    1  0.5621415E-005  0.5132028E+03  0.7818608E-02  0.1010389E+00
         -2   -1    0    0    0  501 -0.00000000000E+00  0.00000000000E+00  0.12493640503E+04  0.12493640503E+04  0.25500000000E-02 0. -1.
          2   -1    0    0  501    0  0.00000000000E+00 -0.00000000000E+00 -0.52702237498E+02  0.52702237560E+02  0.25500000000E-02 0.  1.
    5000001    1    1    2    0    0 -0.14543020488E+03 -0.14168391042E+02  0.81994366467E+03  0.85470597344E+03  0.19200000000E+03 0.  0.
   -5000001    1    1    2    0    0  0.14543020488E+03  0.14168391042E+02  0.37671814818E+03  0.44736031447E+03  0.19200000000E+03 0.  0.
<mgrwt>
<rscale>  0 0.51320281E+03</rscale>
<asrwt>0</asrwt>
<pdfrwt beam="1">  1        2 0.75288909E-02 0.51320281E+03</pdfrwt>
<pdfrwt beam="2">  1       -2 0.17848058E+00 0.51320281E+03</pdfrwt>
<totfact> 0.18222517E+02</totfact>
</mgrwt>
</event>
<event>
 4    1  0.5621415E-005  0.5036719E+03  0.7818608E-02  0.1012825E+00
         -2   -1    0    0    0  501 -0.00000000000E+00  0.00000000000E+00  0.17257640435E+03  0.17257640437E+03  0.25500000000E-02 0. -1.
          2   -1    0    0  501    0  0.00000000000E+00 -0.00000000000E+00 -0.36749723816E+03  0.36749723817E+03  0.25500000000E-02 0.  1.
    5000001    1    1    2    0    0  0.13681938759E+03  0.80585344949E+02 -0.58153039724E+02  0.25585018794E+03  0.19200000000E+03 0.  0.
   -5000001    1    1    2    0    0 -0.13681938759E+03 -0.80585344949E+02 -0.13676779409E+03  0.28422345459E+03  0.19200000000E+03 0.  0.
<mgrwt>
<rscale>  0 0.50367192E+03</rscale>
<asrwt>0</asrwt>
<pdfrwt beam="1">  1        2 0.52499605E-01 0.50367192E+03</pdfrwt>
<pdfrwt beam="2">  1       -2 0.24653772E-01 0.50367192E+03</pdfrwt>
<totfact> 0.13947139E+03</totfact>
</mgrwt>
</event>
<event>
 4    1  0.5621415E-005  0.6985178E+03  0.7818608E-02  0.9719770E-01
          2   -1    0    0  501    0  0.00000000000E+00  0.00000000000E+00  0.42433095935E+03  0.42433095936E+03  0.25500000000E-02 0.  1.
         -2   -1    0    0    0  501 -0.00000000000E+00 -0.00000000000E+00 -0.28746845047E+03  0.28746845048E+03  0.25500000000E-02 0. -1.
    5000001    1    1    2    0    0 -0.21747169246E+03 -0.16699105735E+03 -0.33152810442E+02  0.33636744655E+03  0.19200000000E+03 0.  0.
   -5000001    1    1    2    0    0  0.21747169246E+03  0.16699105735E+03  0.17001531932E+03  0.37543196329E+03  0.19200000000E+03 0.  0.
<mgrwt>
<rscale>  0 0.69851775E+03</rscale>
<asrwt>0</asrwt>
<pdfrwt beam="1">  1        2 0.60618708E-01 0.69851775E+03</pdfrwt>
<pdfrwt beam="2">  1       -2 0.41066922E-01 0.69851775E+03</pdfrwt>
<totfact> 0.45756223E+02</totfact>
</mgrwt>
</event>
<event>
 4    1  0.5621415E-005  0.8732164E+03  0.7818608E-02  0.9459696E-01
         -2   -1    0    0    0  501 -0.00000000000E+00  0.00000000000E+00  0.13229906170E+03  0.13229906172E+03  0.25500000000E-02 0. -1.
          2   -1    0    0  501    0  0.00000000000E+00 -0.00000000000E+00 -0.14408773099E+04  0.14408773099E+04  0.25500000000E-02 0.  1.
    5000001    1    1    2    0    0 -0.99944690905E+02 -0.36268685133E+03 -0.45503621244E+03  0.62084832930E+03  0.19200000000E+03 0.  0.
   -5000001    1    1    2    0    0  0.99944690905E+02  0.36268685133E+03 -0.85354203571E+03  0.95232804227E+03  0.19200000000E+03 0.  0.
<mgrwt>
<rscale>  0 0.87321639E+03</rscale>
<asrwt>0</asrwt>
<pdfrwt beam="1">  1        2 0.20583961E+00 0.87321639E+03</pdfrwt>
<pdfrwt beam="2">  1       -2 0.18899867E-01 0.87321639E+03</pdfrwt>
<totfact> 0.37157736E+02</totfact>
</mgrwt>
</event>
<event>
 4    1  0.5621415E-005  0.5829258E+03  0.7818608E-02  0.9941477E-01
         -2   -1    0    0    0  501 -0.00000000000E+00  0.00000000000E+00  0.30051493412E+03  0.30051493413E+03  0.25500000000E-02 0. -1.
          2   -1    0    0  501    0  0.00000000000E+00 -0.00000000000E+00 -0.28268350315E+03  0.28268350317E+03  0.25500000000E-02 0.  1.
    5000001    1    1    2    0    0  0.18387699579E+03  0.11530332863E+03  0.40251399731E+02  0.29255731465E+03  0.19200000000E+03 0.  0.
   -5000001    1    1    2    0    0 -0.18387699579E+03 -0.11530332863E+03 -0.22419968765E+02  0.29064112265E+03  0.19200000000E+03 0.  0.
<mgrwt>
<rscale>  0 0.58292577E+03</rscale>
<asrwt>0</asrwt>
<pdfrwt beam="1">  1        2 0.40383357E-01 0.58292577E+03</pdfrwt>
<pdfrwt beam="2">  1       -2 0.42930705E-01 0.58292577E+03</pdfrwt>
<totfact> 0.65950880E+02</totfact>
</mgrwt>
</event>
<event>
 4    1  0.5621415E-005  0.6596165E+03  0.7818608E-02  0.9788900E-01
         -2   -1    0    0    0  501 -0.00000000000E+00  0.00000000000E+00  0.10078352413E+03  0.10078352416E+03  0.25500000000E-02 0. -1.
          2   -1    0    0  501    0  0.00000000000E+00 -0.00000000000E+00 -0.10792783179E+04  0.10792783179E+04  0.25500000000E-02 0.  1.
    5000001    1    1    2    0    0  0.11765367314E+03  0.21745528067E+03 -0.30349756591E+03  0.43600912652E+03  0.19200000000E+03 0.  0.
   -5000001    1    1    2    0    0 -0.11765367314E+03 -0.21745528067E+03 -0.67499722790E+03  0.74405271558E+03  0.19200000000E+03 0.  0.
<mgrwt>
<rscale>  0 0.65961647E+03</rscale>
<asrwt>0</asrwt>
<pdfrwt beam="1">  1        2 0.15418261E+00 0.65961647E+03</pdfrwt>
<pdfrwt beam="2">  1       -2 0.14397647E-01 0.65961647E+03</pdfrwt>
<totfact> 0.94903414E+02</totfact>
</mgrwt>
</event>
<event>
 4    1  0.5621415E-005  0.5956508E+03  0.7818608E-02  0.9914471E-01
         -2   -1    0    0    0  501 -0.00000000000E+00  0.00000000000E+00  0.36449737573E+03  0.36449737574E+03  0.25500000000E-02 0. -1.
          2   -1    0    0  501    0  0.00000000000E+00 -0.00000000000E+00 -0.24334870006E+03  0.24334870008E+03  0.25500000000E-02 0.  1.
    5000001    1    1    2    0    0  0.39803182642E+02  0.20234901395E+03 -0.37871228614E+02  0.28430203438E+03  0.19200000000E+03 0.  0.
   -5000001    1    1    2    0    0 -0.39803182642E+02 -0.20234901395E+03  0.15901990428E+03  0.32354404144E+03  0.19200000000E+03 0.  0.
<mgrwt>
<rscale>  0 0.59565078E+03</rscale>
<asrwt>0</asrwt>
<pdfrwt beam="1">  1        2 0.34764100E-01 0.59565078E+03</pdfrwt>
<pdfrwt beam="2">  1       -2 0.52071054E-01 0.59565078E+03</pdfrwt>
<totfact> 0.52885345E+02</totfact>
</mgrwt>
</event>
<event>
 4    1  0.5621415E-005  0.7472479E+03  0.7818608E-02  0.9639678E-01
          2   -1    0    0  501    0  0.00000000000E+00  0.00000000000E+00  0.13264551980E+04  0.13264551980E+04  0.25500000000E-02 0.  1.
         -2   -1    0    0    0  501 -0.00000000000E+00 -0.00000000000E+00 -0.10523902651E+03  0.10523902654E+03  0.25500000000E-02 0. -1.
    5000001    1    1    2    0    0  0.15219777599E+03 -0.12360089622E+02  0.11505336457E+04  0.11763964488E+04  0.19200000000E+03 0.  0.
   -5000001    1    1    2    0    0 -0.15219777599E+03  0.12360089622E+02  0.70682525724E+02  0.25529777569E+03  0.19200000000E+03 0.  0.
<mgrwt>
<rscale>  0 0.74724789E+03</rscale>
<asrwt>0</asrwt>
<pdfrwt beam="1">  1        2 0.18949359E+00 0.74724789E+03</pdfrwt>
<pdfrwt beam="2">  1       -2 0.15034147E-01 0.74724789E+03</pdfrwt>
<totfact> 0.63788387E+02</totfact>
</mgrwt>
</event>
<event>
 4    1  0.5621415E-005  0.9142421E+03  0.7818608E-02  0.9407951E-01
         -2   -1    0    0    0  501 -0.00000000000E+00  0.00000000000E+00  0.99866520554E+02  0.99866520587E+02  0.25500000000E-02 0. -1.
          2   -1    0    0  501    0  0.00000000000E+00 -0.00000000000E+00 -0.20923894403E+04  0.20923894403E+04  0.25500000000E-02 0.  1.
    5000001    1    1    2    0    0 -0.27008842871E+03 -0.19404506762E+03 -0.40163004679E+03  0.55567251333E+03  0.19200000000E+03 0.  0.
   -5000001    1    1    2    0    0  0.27008842871E+03  0.19404506762E+03 -0.15908928729E+04  0.16365834475E+04  0.19200000000E+03 0.  0.
<mgrwt>
<rscale>  0 0.91424210E+03</rscale>
<asrwt>0</asrwt>
<pdfrwt beam="1">  1        2 0.29891275E+00 0.91424210E+03</pdfrwt>
<pdfrwt beam="2">  1       -2 0.14266647E-01 0.91424210E+03</pdfrwt>
<totfact> 0.27684775E+02</totfact>
</mgrwt>
</event>
<event>
 4    1  0.5621415E-005  0.4707374E+03  0.7818608E-02  0.1021712E+00
          2   -1    0    0  501    0  0.00000000000E+00  0.00000000000E+00  0.45173698598E+03  0.45173698599E+03  0.25500000000E-02 0.  1.
         -2   -1    0    0    0  501 -0.00000000000E+00 -0.00000000000E+00 -0.12263427132E+03  0.12263427134E+03  0.25500000000E-02 0. -1.
    5000001    1    1    2    0    0 -0.12405093869E+03 -0.48243332686E+02  0.19945669730E+03  0.30718565825E+03  0.19200000000E+03 0.  0.
   -5000001    1    1    2    0    0  0.12405093869E+03  0.48243332686E+02  0.12964601736E+03  0.26718559908E+03  0.19200000000E+03 0.  0.
<mgrwt>
<rscale>  0 0.47073745E+03</rscale>
<asrwt>0</asrwt>
<pdfrwt beam="1">  1        2 0.64533856E-01 0.47073745E+03</pdfrwt>
<pdfrwt beam="2">  1       -2 0.17519181E-01 0.47073745E+03</pdfrwt>
<totfact> 0.20126860E+03</totfact>
</mgrwt>
</event>
<event>
 4    1  0.5621415E-005  0.9430628E+03  0.7818608E-02  0.9373296E-01
         -2   -1    0    0    0  501 -0.00000000000E+00  0.00000000000E+00  0.82660349685E+02  0.82660349724E+02  0.25500000000E-02 0. -1.
          2   -1    0    0  501    0  0.00000000000E+00 -0.00000000000E+00 -0.26898249834E+04  0.26898249834E+04  0.25500000000E-02 0.  1.
    5000001    1    1    2    0    0  0.67744219302E+02 -0.42199951269E+03 -0.11478798426E+04  0.12398245848E+04  0.19200000000E+03 0.  0.
   -5000001    1    1    2    0    0 -0.67744219302E+02  0.42199951269E+03 -0.14592847911E+04  0.15326607483E+04  0.19200000000E+03 0.  0.
<mgrwt>
<rscale>  0 0.94306283E+03</rscale>
<asrwt>0</asrwt>
<pdfrwt beam="1">  1        2 0.38426066E+00 0.94306283E+03</pdfrwt>
<pdfrwt beam="2">  1       -2 0.11808623E-01 0.94306283E+03</pdfrwt>
<totfact> 0.18608127E+02</totfact>
</mgrwt>
</event>
<event>
 4    1  0.5621415E-005  0.4124318E+03  0.7818608E-02  0.1039558E+00
          2   -1    0    0  501    0  0.00000000000E+00  0.00000000000E+00  0.59911098882E+03  0.59911098883E+03  0.25500000000E-02 0.  1.
         -2   -1    0    0    0  501 -0.00000000000E+00 -0.00000000000E+00 -0.70980174240E+02  0.70980174286E+02  0.25500000000E-02 0. -1.
    5000001    1    1    2    0    0 -0.62274771980E+02  0.42209412451E+02  0.26227034084E+03  0.33363080404E+03  0.19200000000E+03 0.  0.
   -5000001    1    1    2    0    0  0.62274771980E+02 -0.42209412451E+02  0.26586047375E+03  0.33646035907E+03  0.19200000000E+03 0.  0.
<mgrwt>
<rscale>  0 0.41243182E+03</rscale>
<asrwt>0</asrwt>
<pdfrwt beam="1">  1        2 0.85587287E-01 0.41243182E+03</pdfrwt>
<pdfrwt beam="2">  1       -2 0.10140025E-01 0.41243182E+03</pdfrwt>
<totfact> 0.36015823E+03</totfact>
</mgrwt>
</event>
<event>
 4    1  0.5621415E-005  0.6652158E+03  0.7818608E-02  0.9778639E-01
          2   -1    0    0  501    0  0.00000000000E+00  0.00000000000E+00  0.51395829340E+03  0.51395829341E+03  0.25500000000E-02 0.  1.
         -2   -1    0    0    0  501 -0.00000000000E+00 -0.00000000000E+00 -0.21524705217E+03  0.21524705218E+03  0.25500000000E-02 0. -1.
    5000001    1    1    2    0    0 -0.23936389535E+03 -0.11925938280E+03  0.97403291941E+02  0.34332095198E+03  0.19200000000E+03 0.  0.
   -5000001    1    1    2    0    0  0.23936389535E+03  0.11925938280E+03  0.20130794929E+03  0.38588439361E+03  0.19200000000E+03 0.  0.
<mgrwt>
<rscale>  0 0.66521578E+03</rscale>
<asrwt>0</asrwt>
<pdfrwt beam="1">  1        2 0.73422612E-01 0.66521578E+03</pdfrwt>
<pdfrwt beam="2">  1       -2 0.30749580E-01 0.66521578E+03</pdfrwt>
<totfact> 0.63966255E+02</totfact>
</mgrwt>
</event>
<event>
 4    1  0.5621415E-005  0.5331450E+03  0.7818608E-02  0.1005472E+00
          2   -1    0    0  501    0  0.00000000000E+00  0.00000000000E+00  0.15834629849E+04  0.15834629849E+04  0.25500000000E-02 0.  1.
         -2   -1    0    0    0  501 -0.00000000000E+00 -0.00000000000E+00 -0.44876895454E+02  0.44876895527E+02  0.25500000000E-02 0. -1.
    5000001    1    1    2    0    0  0.16008924825E+03 -0.89485086997E+02  0.69696842463E+03  0.74583183971E+03  0.19200000000E+03 0.  0.
   -5000001    1    1    2    0    0 -0.16008924825E+03  0.89485086997E+02  0.84161766483E+03  0.88250804073E+03  0.19200000000E+03 0.  0.
<mgrwt>
<rscale>  0 0.53314502E+03</rscale>
<asrwt>0</asrwt>
<pdfrwt beam="1">  1        2 0.22620900E+00 0.53314502E+03</pdfrwt>
<pdfrwt beam="2">  1       -2 0.64109849E-02 0.53314502E+03</pdfrwt>
<totfact> 0.18777941E+03</totfact>
</mgrwt>
</event>
<event>
 4    1  0.5621415E-005  0.8347980E+03  0.7818608E-02  0.9510971E-01
         -2   -1    0    0    0  501 -0.00000000000E+00  0.00000000000E+00  0.21489383180E+03  0.21489383182E+03  0.25500000000E-02 0. -1.
          2   -1    0    0  501    0  0.00000000000E+00 -0.00000000000E+00 -0.81073487467E+03  0.81073487467E+03  0.25500000000E-02 0.  1.
    5000001    1    1    2    0    0  0.96290747759E+02 -0.34319424008E+03 -0.42263187397E+03  0.58526566226E+03  0.19200000000E+03 0.  0.
   -5000001    1    1    2    0    0 -0.96290747759E+02  0.34319424008E+03 -0.17320916890E+03  0.44036304422E+03  0.19200000000E+03 0.  0.
<mgrwt>
<rscale>  0 0.83479800E+03</rscale>
<asrwt>0</asrwt>
<pdfrwt beam="1">  1        2 0.11581927E+00 0.83479800E+03</pdfrwt>
<pdfrwt beam="2">  1       -2 0.30699119E-01 0.83479800E+03</pdfrwt>
<totfact> 0.36758144E+02</totfact>
</mgrwt>
</event>
<event>
 4    1  0.5621415E-005  0.5728428E+03  0.7818608E-02  0.9963407E-01
          2   -1    0    0  501    0  0.00000000000E+00  0.00000000000E+00  0.17760276431E+04  0.17760276431E+04  0.25500000000E-02 0.  1.
         -2   -1    0    0    0  501 -0.00000000000E+00 -0.00000000000E+00 -0.46191414271E+02  0.46191414341E+02  0.25500000000E-02 0. -1.
    5000001    1    1    2    0    0 -0.41965899813E+02 -0.20372359946E+03  0.72594082793E+03  0.77917811018E+03  0.19200000000E+03 0.  0.
   -5000001    1    1    2    0    0  0.41965899813E+02  0.20372359946E+03  0.10038954009E+04  0.10430409473E+04  0.19200000000E+03 0.  0.
<mgrwt>
<rscale>  0 0.57284284E+03</rscale>
<asrwt>0</asrwt>
<pdfrwt beam="1">  1        2 0.25371822E+00 0.57284284E+03</pdfrwt>
<pdfrwt beam="2">  1       -2 0.65987738E-02 0.57284284E+03</pdfrwt>
<totfact> 0.14303564E+03</totfact>
</mgrwt>
</event>
<event>
 4    1  0.5621415E-005  0.6337704E+03  0.7818608E-02  0.9837719E-01
          2   -1    0    0  501    0  0.00000000000E+00  0.00000000000E+00  0.28414531216E+04  0.28414531216E+04  0.25500000000E-02 0.  1.
         -2   -1    0    0    0  501 -0.00000000000E+00 -0.00000000000E+00 -0.35339750471E+02  0.35339750563E+02  0.25500000000E-02 0. -1.
    5000001    1    1    2    0    0 -0.19226801509E+03  0.62931849533E+02  0.20858186851E+04  0.21043837564E+04  0.19200000000E+03 0.  0.
   -5000001    1    1    2    0    0  0.19226801509E+03 -0.62931849533E+02  0.72029468605E+03  0.77240911573E+03  0.19200000000E+03 0.  0.
<mgrwt>
<rscale>  0 0.63377045E+03</rscale>
<asrwt>0</asrwt>
<pdfrwt beam="1">  1        2 0.40592189E+00 0.63377045E+03</pdfrwt>
<pdfrwt beam="2">  1       -2 0.50485356E-02 0.63377045E+03</pdfrwt>
<totfact> 0.61873992E+02</totfact>
</mgrwt>
</event>
<event>
 4    1  0.5621415E-005  0.4838719E+03  0.7818608E-02  0.1018076E+00
          2   -1    0    0  501    0  0.00000000000E+00  0.00000000000E+00  0.26614950134E+03  0.26614950136E+03  0.25500000000E-02 0.  1.
         -2   -1    0    0    0  501 -0.00000000000E+00 -0.00000000000E+00 -0.21992527281E+03  0.21992527283E+03  0.25500000000E-02 0. -1.
    5000001    1    1    2    0    0  0.65682861436E+01  0.75319356368E+02 -0.10376750970E+03  0.23097152183E+03  0.19200000000E+03 0.  0.
   -5000001    1    1    2    0    0 -0.65682861436E+01 -0.75319356368E+02  0.14999173823E+03  0.25510325236E+03  0.19200000000E+03 0.  0.
<mgrwt>
<rscale>  0 0.48387189E+03</rscale>
<asrwt>0</asrwt>
<pdfrwt beam="1">  1        2 0.38021357E-01 0.48387189E+03</pdfrwt>
<pdfrwt beam="2">  1       -2 0.31417896E-01 0.48387189E+03</pdfrwt>
<totfact> 0.12790715E+03</totfact>
</mgrwt>
</event>
<event>
 4    1  0.5621415E-005  0.5662237E+03  0.7818608E-02  0.9978070E-01
         -2   -1    0    0    0  501 -0.00000000000E+00  0.00000000000E+00  0.39621637049E+02  0.39621637131E+02  0.25500000000E-02 0. -1.
          2   -1    0    0  501    0  0.00000000000E+00 -0.00000000000E+00 -0.20229432879E+04  0.20229432879E+04  0.25500000000E-02 0.  1.
    5000001    1    1    2    0    0  0.14134791803E+03 -0.15053552392E+03 -0.10843985211E+04  0.11204571970E+04  0.19200000000E+03 0.  0.
   -5000001    1    1    2    0    0 -0.14134791803E+03  0.15053552392E+03 -0.89892312974E+03  0.94210772796E+03  0.19200000000E+03 0.  0.
<mgrwt>
<rscale>  0 0.56622372E+03</rscale>
<asrwt>0</asrwt>
<pdfrwt beam="1">  1        2 0.28899183E+00 0.56622372E+03</pdfrwt>
<pdfrwt beam="2">  1       -2 0.56602351E-02 0.56622372E+03</pdfrwt>
<totfact> 0.13673272E+03</totfact>
</mgrwt>
</event>
<event>
 4    1  0.5621415E-005  0.9581143E+03  0.7818608E-02  0.9355716E-01
         -2   -1    0    0    0  501 -0.00000000000E+00  0.00000000000E+00  0.19584609760E+03  0.19584609762E+03  0.25500000000E-02 0. -1.
          2   -1    0    0  501    0  0.00000000000E+00 -0.00000000000E+00 -0.11718168450E+04  0.11718168450E+04  0.25500000000E-02 0.  1.
    5000001    1    1    2    0    0 -0.42755368450E+03  0.85424487018E+02 -0.41615371247E+03  0.63257205797E+03  0.19200000000E+03 0.  0.
   -5000001    1    1    2    0    0  0.42755368450E+03 -0.85424487018E+02 -0.55981703491E+03  0.73509088465E+03  0.19200000000E+03 0.  0.
<mgrwt>
<rscale>  0 0.95811431E+03</rscale>
<asrwt>0</asrwt>
<pdfrwt beam="1">  1        2 0.16740240E+00 0.95811431E+03</pdfrwt>
<pdfrwt beam="2">  1       -2 0.27978014E-01 0.95811431E+03</pdfrwt>
<totfact> 0.25821415E+02</totfact>
</mgrwt>
</event>
<event>
 4    1  0.5621415E-005  0.6800734E+03  0.7818608E-02  0.9751929E-01
          2   -1    0    0  501    0  0.00000000000E+00  0.00000000000E+00  0.22554710214E+04  0.22554710214E+04  0.25500000000E-02 0.  1.
         -2   -1    0    0    0  501 -0.00000000000E+00 -0.00000000000E+00 -0.51264221599E+02  0.51264221662E+02  0.25500000000E-02 0. -1.
    5000001    1    1    2    0    0 -0.27853778465E+03  0.22320533511E+02  0.10136886477E+04  0.10688826774E+04  0.19200000000E+03 0.  0.
   -5000001    1    1    2    0    0  0.27853778465E+03 -0.22320533511E+02  0.11905181521E+04  0.12378525656E+04  0.19200000000E+03 0.  0.
<mgrwt>
<rscale>  0 0.68007343E+03</rscale>
<asrwt>0</asrwt>
<pdfrwt beam="1">  1        2 0.32221015E+00 0.68007343E+03</pdfrwt>
<pdfrwt beam="2">  1       -2 0.73234602E-02 0.68007343E+03</pdfrwt>
<totfact> 0.69131655E+02</totfact>
</mgrwt>
</event>
<event>
 4    1  0.5621415E-005  0.5331053E+03  0.7818608E-02  0.1005482E+00
          2   -1    0    0  501    0  0.00000000000E+00  0.00000000000E+00  0.31791820474E+03  0.31791820475E+03  0.25500000000E-02 0.  1.
         -2   -1    0    0    0  501 -0.00000000000E+00 -0.00000000000E+00 -0.22348615158E+03  0.22348615160E+03  0.25500000000E-02 0. -1.
    5000001    1    1    2    0    0 -0.10418372372E+03  0.46351910809E+02 -0.10059549937E+03  0.24492080846E+03  0.19200000000E+03 0.  0.
   -5000001    1    1    2    0    0  0.10418372372E+03 -0.46351910809E+02  0.19502755252E+03  0.29648354789E+03  0.19200000000E+03 0.  0.
<mgrwt>
<rscale>  0 0.53310530E+03</rscale>
<asrwt>0</asrwt>
<pdfrwt beam="1">  1        2 0.45416886E-01 0.53310530E+03</pdfrwt>
<pdfrwt beam="2">  1       -2 0.31926593E-01 0.53310530E+03</pdfrwt>
<totfact> 0.10212175E+03</totfact>
</mgrwt>
</event>
<event>
 4    1  0.5621415E-005  0.4200968E+03  0.7818608E-02  0.1037035E+00
         -2   -1    0    0    0  501 -0.00000000000E+00  0.00000000000E+00  0.64418622596E+02  0.64418622647E+02  0.25500000000E-02 0. -1.
          2   -1    0    0  501    0  0.00000000000E+00 -0.00000000000E+00 -0.68490012290E+03  0.68490012291E+03  0.25500000000E-02 0.  1.
    5000001    1    1    2    0    0 -0.37289749723E+02 -0.72072683548E+02 -0.35645584023E+03  0.41292827850E+03  0.19200000000E+03 0.  0.
   -5000001    1    1    2    0    0  0.37289749723E+02  0.72072683548E+02 -0.26402566007E+03  0.33639046705E+03  0.19200000000E+03 0.  0.
<mgrwt>
<rscale>  0 0.42009676E+03</rscale>
<asrwt>0</asrwt>
<pdfrwt beam="1">  1        2 0.97842871E-01 0.42009676E+03</pdfrwt>
<pdfrwt beam="2">  1       -2 0.92026608E-02 0.42009676E+03</pdfrwt>
<totfact> 0.35938590E+03</totfact>
</mgrwt>
</event>
<event>
 4    1  0.5621415E-005  0.7865864E+03  0.7818608E-02  0.9579638E-01
          2   -1    0    0  501    0  0.00000000000E+00  0.00000000000E+00  0.11981561405E+04  0.11981561405E+04  0.25500000000E-02 0.  1.
         -2   -1    0    0    0  501 -0.00000000000E+00 -0.00000000000E+00 -0.12909799190E+03  0.12909799193E+03  0.25500000000E-02 0. -1.
    5000001    1    1    2    0    0  0.12936225238E+03  0.28675438100E+03  0.30284480888E+03  0.47701325519E+03  0.19200000000E+03 0.  0.
   -5000001    1    1    2    0    0 -0.12936225238E+03 -0.28675438100E+03  0.76621333970E+03  0.85024087722E+03  0.19200000000E+03 0.  0.
<mgrwt>
<rscale>  0 0.78658643E+03</rscale>
<asrwt>0</asrwt>
<pdfrwt beam="1">  1        2 0.17116516E+00 0.78658643E+03</pdfrwt>
<pdfrwt beam="2">  1       -2 0.18442570E-01 0.78658643E+03</pdfrwt>
<totfact> 0.52883909E+02</totfact>
</mgrwt>
</event>
<event>
 4    1  0.5621415E-005  0.8006804E+03  0.7818608E-02  0.9559033E-01
         -2   -1    0    0    0  501 -0.00000000000E+00  0.00000000000E+00  0.20769622215E+03  0.20769622216E+03  0.25500000000E-02 0. -1.
          2   -1    0    0  501    0  0.00000000000E+00 -0.00000000000E+00 -0.77166683625E+03  0.77166683626E+03  0.25500000000E-02 0.  1.
    5000001    1    1    2    0    0  0.19907994623E+03  0.26548685953E+03 -0.14096464106E+03  0.40847414557E+03  0.19200000000E+03 0.  0.
   -5000001    1    1    2    0    0 -0.19907994623E+03 -0.26548685953E+03 -0.42300597304E+03  0.57088891284E+03  0.19200000000E+03 0.  0.
<mgrwt>
<rscale>  0 0.80068043E+03</rscale>
<asrwt>0</asrwt>
<pdfrwt beam="1">  1        2 0.11023812E+00 0.80068043E+03</pdfrwt>
<pdfrwt beam="2">  1       -2 0.29670889E-01 0.80068043E+03</pdfrwt>
<totfact> 0.41779975E+02</totfact>
</mgrwt>
</event>
<event>
 4    1  0.5621415E-005  0.5796755E+03  0.7818608E-02  0.9948494E-01
          2   -1    0    0  501    0  0.00000000000E+00  0.00000000000E+00  0.32045764808E+04  0.32045764808E+04  0.25500000000E-02 0.  1.
         -2   -1    0    0    0  501 -0.00000000000E+00 -0.00000000000E+00 -0.26214360032E+02  0.26214360156E+02  0.25500000000E-02 0. -1.
    5000001    1    1    2    0    0 -0.18039215589E+03 -0.10880305071E+03  0.12962441464E+04  0.13272122365E+04  0.19200000000E+03 0.  0.
   -5000001    1    1    2    0    0  0.18039215589E+03  0.10880305071E+03  0.18821179743E+04  0.19035786044E+04  0.19200000000E+03 0.  0.
<mgrwt>
<rscale>  0 0.57967550E+03</rscale>
<asrwt>0</asrwt>
<pdfrwt beam="1">  1        2 0.45779665E+00 0.57967550E+03</pdfrwt>
<pdfrwt beam="2">  1       -2 0.37449085E-02 0.57967550E+03</pdfrwt>
<totfact> 0.62428579E+02</totfact>
</mgrwt>
</event>
<event>
 4    1  0.5621415E-005  0.7121038E+03  0.7818608E-02  0.9696754E-01
         -2   -1    0    0    0  501 -0.00000000000E+00  0.00000000000E+00  0.10646676722E+03  0.10646676726E+03  0.25500000000E-02 0. -1.
          2   -1    0    0  501    0  0.00000000000E+00 -0.00000000000E+00 -0.11907277840E+04  0.11907277840E+04  0.25500000000E-02 0.  1.
    5000001    1    1    2    0    0 -0.25759795835E+03 -0.52834298357E+02 -0.80460284388E+03  0.86798496969E+03  0.19200000000E+03 0.  0.
   -5000001    1    1    2    0    0  0.25759795835E+03  0.52834298357E+02 -0.27965817285E+03  0.42920958152E+03  0.19200000000E+03 0.  0.
<mgrwt>
<rscale>  0 0.71210375E+03</rscale>
<asrwt>0</asrwt>
<pdfrwt beam="1">  1        2 0.17010396E+00 0.71210375E+03</pdfrwt>
<pdfrwt beam="2">  1       -2 0.15209539E-01 0.71210375E+03</pdfrwt>
<totfact> 0.74487347E+02</totfact>
</mgrwt>
</event>
<event>
 4    1  0.5621415E-005  0.7699654E+03  0.7818608E-02  0.9604538E-01
         -2   -1    0    0    0  501 -0.00000000000E+00  0.00000000000E+00  0.71732599903E+02  0.71732599948E+02  0.25500000000E-02 0. -1.
          2   -1    0    0  501    0  0.00000000000E+00 -0.00000000000E+00 -0.20661690047E+04  0.20661690047E+04  0.25500000000E-02 0.  1.
    5000001    1    1    2    0    0 -0.21736851937E+03  0.10175477427E+03 -0.16409186273E+04  0.16694553150E+04  0.19200000000E+03 0.  0.
   -5000001    1    1    2    0    0  0.21736851937E+03 -0.10175477427E+03 -0.35351777750E+03  0.46844628967E+03  0.19200000000E+03 0.  0.
<mgrwt>
<rscale>  0 0.76996539E+03</rscale>
<asrwt>0</asrwt>
<pdfrwt beam="1">  1        2 0.29516696E+00 0.76996539E+03</pdfrwt>
<pdfrwt beam="2">  1       -2 0.10247516E-01 0.76996539E+03</pdfrwt>
<totfact> 0.49899833E+02</totfact>
</mgrwt>
</event>
<event>
 4    1  0.5621415E-005  0.5833384E+03  0.7818608E-02  0.9940589E-01
         -2   -1    0    0    0  501 -0.00000000000E+00  0.00000000000E+00  0.16233925978E+03  0.16233925980E+03  0.25500000000E-02 0. -1.
          2   -1    0    0  501    0  0.00000000000E+00 -0.00000000000E+00 -0.52403174499E+03  0.52403174499E+03  0.25500000000E-02 0.  1.
    5000001    1    1    2    0    0  0.12164832508E+03 -0.14037761716E+03 -0.31858050470E+03  0.41576643488E+03  0.19200000000E+03 0.  0.
   -5000001    1    1    2    0    0 -0.12164832508E+03  0.14037761716E+03 -0.43111980501E+02  0.27060456991E+03  0.19200000000E+03 0.  0.
<mgrwt>
<rscale>  0 0.58333841E+03</rscale>
<asrwt>0</asrwt>
<pdfrwt beam="1">  1        2 0.74861677E-01 0.58333841E+03</pdfrwt>
<pdfrwt beam="2">  1       -2 0.23191323E-01 0.58333841E+03</pdfrwt>
<totfact> 0.10453998E+03</totfact>
</mgrwt>
</event>
<event>
 4    1  0.5621415E-005  0.6499311E+03  0.7818608E-02  0.9806908E-01
          2   -1    0    0  501    0  0.00000000000E+00  0.00000000000E+00  0.37863228816E+04  0.37863228816E+04  0.25500000000E-02 0.  1.
         -2   -1    0    0    0  501 -0.00000000000E+00 -0.00000000000E+00 -0.27890545731E+02  0.27890545847E+02  0.25500000000E-02 0. -1.
    5000001    1    1    2    0    0 -0.24202110217E+03  0.32956756860E+02  0.24383795645E+04  0.24580926065E+04  0.19200000000E+03 0.  0.
   -5000001    1    1    2    0    0  0.24202110217E+03 -0.32956756860E+02  0.13200527713E+04  0.13561208209E+04  0.19200000000E+03 0.  0.
<mgrwt>
<rscale>  0 0.64993111E+03</rscale>
<asrwt>0</asrwt>
<pdfrwt beam="1">  1        2 0.54090304E+00 0.64993111E+03</pdfrwt>
<pdfrwt beam="2">  1       -2 0.39843653E-02 0.64993111E+03</pdfrwt>
<totfact> 0.25373406E+02</totfact>
</mgrwt>
</event>
<event>
 4    1  0.5621415E-005  0.5230090E+03  0.7818608E-02  0.1007942E+00
          2   -1    0    0  501    0  0.00000000000E+00  0.00000000000E+00  0.81363979137E+03  0.81363979138E+03  0.25500000000E-02 0.  1.
         -2   -1    0    0    0  501 -0.00000000000E+00 -0.00000000000E+00 -0.84047777748E+02  0.84047777787E+02  0.25500000000E-02 0. -1.
    5000001    1    1    2    0    0  0.78410973550E+02  0.12286738607E+03  0.19080499648E+03  0.30743328059E+03  0.19200000000E+03 0.  0.
   -5000001    1    1    2    0    0 -0.78410973550E+02 -0.12286738607E+03  0.53878701715E+03  0.59025428857E+03  0.19200000000E+03 0.  0.
<mgrwt>
<rscale>  0 0.52300905E+03</rscale>
<asrwt>0</asrwt>
<pdfrwt beam="1">  1        2 0.11623426E+00 0.52300905E+03</pdfrwt>
<pdfrwt beam="2">  1       -2 0.12006825E-01 0.52300905E+03</pdfrwt>
<totfact> 0.18906655E+03</totfact>
</mgrwt>
</event>
<event>
 4    1  0.5621415E-005  0.4922618E+03  0.7818608E-02  0.1015819E+00
          2   -1    0    0  501    0  0.00000000000E+00  0.00000000000E+00  0.13491977572E+04  0.13491977572E+04  0.25500000000E-02 0.  1.
         -2   -1    0    0    0  501 -0.00000000000E+00 -0.00000000000E+00 -0.44901064430E+02  0.44901064502E+02  0.25500000000E-02 0. -1.
    5000001    1    1    2    0    0 -0.32643338170E+02  0.66305309170E+02  0.26951604871E+03  0.33906471663E+03  0.19200000000E+03 0.  0.
   -5000001    1    1    2    0    0  0.32643338170E+02 -0.66305309170E+02  0.10347806441E+04  0.10550341051E+04  0.19200000000E+03 0.  0.
<mgrwt>
<rscale>  0 0.49226178E+03</rscale>
<asrwt>0</asrwt>
<pdfrwt beam="1">  1        2 0.19274252E+00 0.49226178E+03</pdfrwt>
<pdfrwt beam="2">  1       -2 0.64144384E-02 0.49226178E+03</pdfrwt>
<totfact> 0.24882759E+03</totfact>
</mgrwt>
</event>
<event>
 4    1  0.5621415E-005  0.7738035E+03  0.7818608E-02  0.9598729E-01
         -2   -1    0    0    0  501 -0.00000000000E+00  0.00000000000E+00  0.22612046968E+03  0.22612046969E+03  0.25500000000E-02 0. -1.
          2   -1    0    0  501    0  0.00000000000E+00 -0.00000000000E+00 -0.66200539852E+03  0.66200539852E+03  0.25500000000E-02 0.  1.
    5000001    1    1    2    0    0 -0.75250452606E+02 -0.21436778213E+03 -0.50190753616E+03  0.58343067411E+03  0.19200000000E+03 0.  0.
   -5000001    1    1    2    0    0  0.75250452606E+02  0.21436778213E+03  0.66022607323E+02  0.30469519411E+03  0.19200000000E+03 0.  0.
<mgrwt>
<rscale>  0 0.77380352E+03</rscale>
<asrwt>0</asrwt>
<pdfrwt beam="1">  1        2 0.94572199E-01 0.77380352E+03</pdfrwt>
<pdfrwt beam="2">  1       -2 0.32302925E-01 0.77380352E+03</pdfrwt>
<totfact> 0.43174825E+02</totfact>
</mgrwt>
</event>
<event>
 4    1  0.5621415E-005  0.7260818E+03  0.7818608E-02  0.9673640E-01
          2   -1    0    0  501    0  0.00000000000E+00  0.00000000000E+00  0.19800537643E+04  0.19800537643E+04  0.25500000000E-02 0.  1.
         -2   -1    0    0    0  501 -0.00000000000E+00 -0.00000000000E+00 -0.66563185569E+02  0.66563185618E+02  0.25500000000E-02 0. -1.
    5000001    1    1    2    0    0  0.29880674691E+03  0.46907204930E+02  0.11222815403E+04  0.11780770830E+04  0.19200000000E+03 0.  0.
   -5000001    1    1    2    0    0 -0.29880674691E+03 -0.46907204930E+02  0.79120903848E+03  0.86853986693E+03  0.19200000000E+03 0.  0.
<mgrwt>
<rscale>  0 0.72608178E+03</rscale>
<asrwt>0</asrwt>
<pdfrwt beam="1">  1        2 0.28286485E+00 0.72608178E+03</pdfrwt>
<pdfrwt beam="2">  1       -2 0.95090255E-02 0.72608178E+03</pdfrwt>
<totfact> 0.62472372E+02</totfact>
</mgrwt>
</event>
<event>
 4    1  0.5621415E-005  0.6954163E+03  0.7818608E-02  0.9725103E-01
         -2   -1    0    0    0  501 -0.00000000000E+00  0.00000000000E+00  0.11590077759E+04  0.11590077759E+04  0.25500000000E-02 0. -1.
          2   -1    0    0  501    0  0.00000000000E+00 -0.00000000000E+00 -0.10431419284E+03  0.10431419287E+03  0.25500000000E-02 0.  1.
    5000001    1    1    2    0    0 -0.25061640948E+03  0.97599789965E+02  0.33082468344E+03  0.46759306547E+03  0.19200000000E+03 0.  0.
   -5000001    1    1    2    0    0  0.25061640948E+03 -0.97599789965E+02  0.72386889961E+03  0.79572890329E+03  0.19200000000E+03 0.  0.
<mgrwt>
<rscale>  0 0.69541631E+03</rscale>
<asrwt>0</asrwt>
<pdfrwt beam="1">  1        2 0.14902028E-01 0.69541631E+03</pdfrwt>
<pdfrwt beam="2">  1       -2 0.16557254E+00 0.69541631E+03</pdfrwt>
<totfact> 0.94109286E+01</totfact>
</mgrwt>
</event>
<event>
 4    1  0.5621415E-005  0.9194343E+03  0.7818608E-02  0.9401608E-01
          2   -1    0    0  501    0  0.00000000000E+00  0.00000000000E+00  0.30637764497E+04  0.30637764497E+04  0.25500000000E-02 0.  1.
         -2   -1    0    0    0  501 -0.00000000000E+00 -0.00000000000E+00 -0.68980179159E+02  0.68980179206E+02  0.25500000000E-02 0. -1.
    5000001    1    1    2    0    0 -0.37624859275E+03  0.11812562480E+03  0.19665524993E+04  0.20148720553E+04  0.19200000000E+03 0.  0.
   -5000001    1    1    2    0    0  0.37624859275E+03 -0.11812562480E+03  0.10282437712E+04  0.11178845736E+04  0.19200000000E+03 0.  0.
<mgrwt>
<rscale>  0 0.91943428E+03</rscale>
<asrwt>0</asrwt>
<pdfrwt beam="1">  1        2 0.43768237E+00 0.91943428E+03</pdfrwt>
<pdfrwt beam="2">  1       -2 0.98543108E-02 0.91943428E+03</pdfrwt>
<totfact> 0.15743515E+02</totfact>
</mgrwt>
</event>
<event>
 4    1  0.5621415E-005  0.9509688E+03  0.7818608E-02  0.9364019E-01
         -2   -1    0    0    0  501 -0.00000000000E+00  0.00000000000E+00  0.81707409059E+03  0.81707409059E+03  0.25500000000E-02 0. -1.
          2   -1    0    0  501    0  0.00000000000E+00 -0.00000000000E+00 -0.27670122219E+03  0.27670122220E+03  0.25500000000E-02 0.  1.
    5000001    1    1    2    0    0 -0.40466024850E+03  0.78570736183E+02  0.11040754819E+03  0.46794989475E+03  0.19200000000E+03 0.  0.
   -5000001    1    1    2    0    0  0.40466024850E+03 -0.78570736183E+02  0.42996532021E+03  0.62582541805E+03  0.19200000000E+03 0.  0.
<mgrwt>
<rscale>  0 0.95096877E+03</rscale>
<asrwt>0</asrwt>
<pdfrwt beam="1">  1        2 0.39528746E-01 0.95096877E+03</pdfrwt>
<pdfrwt beam="2">  1       -2 0.11672487E+00 0.95096877E+03</pdfrwt>
<totfact> 0.74274418E+01</totfact>
</mgrwt>
</event>
<event>
 4    1  0.5621415E-005  0.4636075E+03  0.7818608E-02  0.1023740E+00
         -2   -1    0    0    0  501 -0.00000000000E+00  0.00000000000E+00  0.32443778935E+02  0.32443779035E+02  0.25500000000E-02 0. -1.
          2   -1    0    0  501    0  0.00000000000E+00 -0.00000000000E+00 -0.16561875762E+04  0.16561875762E+04  0.25500000000E-02 0.  1.
    5000001    1    1    2    0    0  0.11724287411E+03 -0.26239732935E+00 -0.60832148581E+03  0.64858691822E+03  0.19200000000E+03 0.  0.
   -5000001    1    1    2    0    0 -0.11724287411E+03  0.26239732935E+00 -0.10154223115E+04  0.10400444371E+04  0.19200000000E+03 0.  0.
<mgrwt>
<rscale>  0 0.46360752E+03</rscale>
<asrwt>0</asrwt>
<pdfrwt beam="1">  1        2 0.23659817E+00 0.46360752E+03</pdfrwt>
<pdfrwt beam="2">  1       -2 0.46348266E-02 0.46360752E+03</pdfrwt>
<totfact> 0.28572527E+03</totfact>
</mgrwt>
</event>
<event>
 4    1  0.5621415E-005  0.1161868E+04  0.7818608E-02  0.9146905E-01
         -2   -1    0    0    0  501 -0.00000000000E+00  0.00000000000E+00  0.45468719113E+03  0.45468719114E+03  0.25500000000E-02 0. -1.
          2   -1    0    0  501    0  0.00000000000E+00 -0.00000000000E+00 -0.74223340936E+03  0.74223340936E+03  0.25500000000E-02 0.  1.
    5000001    1    1    2    0    0 -0.48655137140E+02  0.54611247417E+03 -0.13993688406E+03  0.59753869191E+03  0.19200000000E+03 0.  0.
   -5000001    1    1    2    0    0  0.48655137140E+02 -0.54611247417E+03 -0.14760933417E+03  0.59938190859E+03  0.19200000000E+03 0.  0.
<mgrwt>
<rscale>  0 0.11618675E+04</rscale>
<asrwt>0</asrwt>
<pdfrwt beam="1">  1        2 0.10603334E+00 0.11618675E+04</pdfrwt>
<pdfrwt beam="2">  1       -2 0.64955314E-01 0.11618675E+04</pdfrwt>
<totfact> 0.90549601E+01</totfact>
</mgrwt>
</event>
<event>
 4    1  0.5621415E-005  0.4268820E+03  0.7818608E-02  0.1034849E+00
          2   -1    0    0  501    0  0.00000000000E+00  0.00000000000E+00  0.22293940532E+04  0.22293940532E+04  0.25500000000E-02 0.  1.
         -2   -1    0    0    0  501 -0.00000000000E+00 -0.00000000000E+00 -0.20434723856E+02  0.20434724015E+02  0.25500000000E-02 0. -1.
    5000001    1    1    2    0    0  0.26050192127E+02 -0.61802625021E+02  0.76312866421E+03  0.78976422755E+03  0.19200000000E+03 0.  0.
   -5000001    1    1    2    0    0 -0.26050192127E+02  0.61802625021E+02  0.14458306651E+04  0.14600645496E+04  0.19200000000E+03 0.  0.
<mgrwt>
<rscale>  0 0.42688196E+03</rscale>
<asrwt>0</asrwt>
<pdfrwt beam="1">  1        2 0.31848464E+00 0.42688196E+03</pdfrwt>
<pdfrwt beam="2">  1       -2 0.29192484E-02 0.42688196E+03</pdfrwt>
<totfact> 0.29909766E+03</totfact>
</mgrwt>
</event>
<event>
 4    1  0.5621415E-005  0.7176958E+03  0.7818608E-02  0.9687440E-01
         -2   -1    0    0    0  501 -0.00000000000E+00  0.00000000000E+00  0.13856980569E+04  0.13856980569E+04  0.25500000000E-02 0. -1.
          2   -1    0    0  501    0  0.00000000000E+00 -0.00000000000E+00 -0.92929214775E+02  0.92929214810E+02  0.25500000000E-02 0.  1.
    5000001    1    1    2    0    0 -0.69747335630E+01 -0.28922673025E+03  0.45974098671E+03  0.57613064774E+03  0.19200000000E+03 0.  0.
   -5000001    1    1    2    0    0  0.69747335630E+01  0.28922673025E+03  0.83302785546E+03  0.90249662402E+03  0.19200000000E+03 0.  0.
<mgrwt>
<rscale>  0 0.71769585E+03</rscale>
<asrwt>0</asrwt>
<pdfrwt beam="1">  1        2 0.13275603E-01 0.71769585E+03</pdfrwt>
<pdfrwt beam="2">  1       -2 0.19795685E+00 0.71769585E+03</pdfrwt>
<totfact> 0.65126466E+01</totfact>
</mgrwt>
</event>
<event>
 4    1  0.5621415E-005  0.5084260E+03  0.7818608E-02  0.1011603E+00
         -2   -1    0    0    0  501 -0.00000000000E+00  0.00000000000E+00  0.68026418560E+02  0.68026418607E+02  0.25500000000E-02 0. -1.
          2   -1    0    0  501    0  0.00000000000E+00 -0.00000000000E+00 -0.94998764743E+03  0.94998764743E+03  0.25500000000E-02 0.  1.
    5000001    1    1    2    0    0 -0.13462570722E+03  0.83638933074E+02 -0.33808758371E+03  0.41986517649E+03  0.19200000000E+03 0.  0.
   -5000001    1    1    2    0    0  0.13462570722E+03 -0.83638933074E+02 -0.54387364516E+03  0.59814888955E+03  0.19200000000E+03 0.  0.
<mgrwt>
<rscale>  0 0.50842603E+03</rscale>
<asrwt>0</asrwt>
<pdfrwt beam="1">  1        2 0.13571251E+00 0.50842603E+03</pdfrwt>
<pdfrwt beam="2">  1       -2 0.97180604E-02 0.50842603E+03</pdfrwt>
<totfact> 0.21739464E+03</totfact>
</mgrwt>
</event>
<event>
 4    1  0.5621415E-005  0.1441464E+04  0.7818608E-02  0.8924340E-01
          2   -1    0    0  501    0  0.00000000000E+00  0.00000000000E+00  0.39097183150E+04  0.39097183150E+04  0.25500000000E-02 0.  1.
         -2   -1    0    0    0  501 -0.00000000000E+00 -0.00000000000E+00 -0.13286249156E+03  0.13286249159E+03  0.25500000000E-02 0. -1.
    5000001    1    1    2    0    0 -0.46881266417E+03 -0.19100851657E+03  0.55423832967E+03  0.77479913111E+03  0.19200000000E+03 0.  0.
   -5000001    1    1    2    0    0  0.46881266417E+03  0.19100851657E+03  0.32226174938E+04  0.32677816755E+04  0.19200000000E+03 0.  0.
<mgrwt>
<rscale>  0 0.14414644E+04</rscale>
<asrwt>0</asrwt>
<pdfrwt beam="1">  1        2 0.55853114E+00 0.14414644E+04</pdfrwt>
<pdfrwt beam="2">  1       -2 0.18980358E-01 0.14414644E+04</pdfrwt>
<totfact> 0.15218415E+01</totfact>
</mgrwt>
</event>
<event>
 4    1  0.5621415E-005  0.4032680E+03  0.7818608E-02  0.1042654E+00
         -2   -1    0    0    0  501 -0.00000000000E+00  0.00000000000E+00  0.48029191380E+02  0.48029191448E+02  0.25500000000E-02 0. -1.
          2   -1    0    0  501    0  0.00000000000E+00 -0.00000000000E+00 -0.84649086750E+03  0.84649086750E+03  0.25500000000E-02 0.  1.
    5000001    1    1    2    0    0 -0.55446927919E+02 -0.25712362254E+02 -0.41594602709E+03  0.46218025146E+03  0.19200000000E+03 0.  0.
   -5000001    1    1    2    0    0  0.55446927919E+02  0.25712362254E+02 -0.38251564903E+03  0.43233980749E+03  0.19200000000E+03 0.  0.
<mgrwt>
<rscale>  0 0.40326801E+03</rscale>
<asrwt>0</asrwt>
<pdfrwt beam="1">  1        2 0.12092726E+00 0.40326801E+03</pdfrwt>
<pdfrwt beam="2">  1       -2 0.68613135E-02 0.40326801E+03</pdfrwt>
<totfact> 0.43912303E+03</totfact>
</mgrwt>
</event>
<event>
 4    1  0.5621415E-005  0.5775632E+03  0.7818608E-02  0.9953081E-01
         -2   -1    0    0    0  501 -0.00000000000E+00  0.00000000000E+00  0.58665418139E+02  0.58665418194E+02  0.25500000000E-02 0. -1.
          2   -1    0    0  501    0  0.00000000000E+00 -0.00000000000E+00 -0.14215328170E+04  0.14215328170E+04  0.25500000000E-02 0.  1.
    5000001    1    1    2    0    0 -0.19126132948E+03 -0.93397204683E+02 -0.77120178391E+03  0.82275155758E+03  0.19200000000E+03 0.  0.
   -5000001    1    1    2    0    0  0.19126132948E+03  0.93397204683E+02 -0.59166561500E+03  0.65744667766E+03  0.19200000000E+03 0.  0.
<mgrwt>
<rscale>  0 0.57756322E+03</rscale>
<asrwt>0</asrwt>
<pdfrwt beam="1">  1        2 0.20307610E+00 0.57756322E+03</pdfrwt>
<pdfrwt beam="2">  1       -2 0.83807749E-02 0.57756322E+03</pdfrwt>
<totfact> 0.14897975E+03</totfact>
</mgrwt>
</event>
<event>
 4    1  0.5621415E-005  0.9257832E+03  0.7818608E-02  0.9393913E-01
          2   -1    0    0  501    0  0.00000000000E+00  0.00000000000E+00  0.35993579493E+03  0.35993579493E+03  0.25500000000E-02 0.  1.
         -2   -1    0    0    0  501 -0.00000000000E+00 -0.00000000000E+00 -0.59529679011E+03  0.59529679011E+03  0.25500000000E-02 0. -1.
    5000001    1    1    2    0    0  0.41269314454E+03 -0.74165536852E+02 -0.76557130779E+02  0.46748385285E+03  0.19200000000E+03 0.  0.
   -5000001    1    1    2    0    0 -0.41269314454E+03  0.74165536852E+02 -0.15880386440E+03  0.48774873219E+03  0.19200000000E+03 0.  0.
<mgrwt>
<rscale>  0 0.92578318E+03</rscale>
<asrwt>0</asrwt>
<pdfrwt beam="1">  1        2 0.51419399E-01 0.92578318E+03</pdfrwt>
<pdfrwt beam="2">  1       -2 0.85042398E-01 0.92578318E+03</pdfrwt>
<totfact> 0.11746867E+02</totfact>
</mgrwt>
</event>
<event>
 4    1  0.5621415E-005  0.9274166E+03  0.7818608E-02  0.9391944E-01
         -2   -1    0    0    0  501 -0.00000000000E+00  0.00000000000E+00  0.39013920365E+03  0.39013920366E+03  0.25500000000E-02 0. -1.
          2   -1    0    0  501    0  0.00000000000E+00 -0.00000000000E+00 -0.55115040796E+03  0.55115040797E+03  0.25500000000E-02 0.  1.
    5000001    1    1    2    0    0  0.98531123954E+02 -0.31255669428E+03 -0.35049477252E+03  0.51682749065E+03  0.19200000000E+03 0.  0.
   -5000001    1    1    2    0    0 -0.98531123954E+02  0.31255669428E+03  0.18948356821E+03  0.42446212098E+03  0.19200000000E+03 0.  0.
<mgrwt>
<rscale>  0 0.92741659E+03</rscale>
<asrwt>0</asrwt>
<pdfrwt beam="1">  1        2 0.78735772E-01 0.92741659E+03</pdfrwt>
<pdfrwt beam="2">  1       -2 0.55734172E-01 0.92741659E+03</pdfrwt>
<totfact> 0.18176287E+02</totfact>
</mgrwt>
</event>
<event>
 4    1  0.5621415E-005  0.5009642E+03  0.7818608E-02  0.1013528E+00
          2   -1    0    0  501    0  0.00000000000E+00  0.00000000000E+00  0.18410319708E+03  0.18410319710E+03  0.25500000000E-02 0.  1.
         -2   -1    0    0    0  501 -0.00000000000E+00 -0.00000000000E+00 -0.34079408959E+03  0.34079408960E+03  0.25500000000E-02 0. -1.
    5000001    1    1    2    0    0  0.61059330722E+02 -0.12681966839E+03  0.32586740434E+01  0.23808840609E+03  0.19200000000E+03 0.  0.
   -5000001    1    1    2    0    0 -0.61059330722E+02  0.12681966839E+03 -0.15994956654E+03  0.28680888061E+03  0.19200000000E+03 0.  0.
<mgrwt>
<rscale>  0 0.50096420E+03</rscale>
<asrwt>0</asrwt>
<pdfrwt beam="1">  1        2 0.26300457E-01 0.50096420E+03</pdfrwt>
<pdfrwt beam="2">  1       -2 0.48684870E-01 0.50096420E+03</pdfrwt>
<totfact> 0.82927996E+02</totfact>
</mgrwt>
</event>
<event>
 4    1  0.5621415E-005  0.8975332E+03  0.7818608E-02  0.9428670E-01
         -2   -1    0    0    0  501 -0.00000000000E+00  0.00000000000E+00  0.28137207804E+03  0.28137207805E+03  0.25500000000E-02 0. -1.
          2   -1    0    0  501    0  0.00000000000E+00 -0.00000000000E+00 -0.71574779291E+03  0.71574779292E+03  0.25500000000E-02 0.  1.
    5000001    1    1    2    0    0  0.26968862371E+03 -0.29300800692E+03 -0.13155196888E+03  0.46125434024E+03  0.19200000000E+03 0.  0.
   -5000001    1    1    2    0    0 -0.26968862371E+03  0.29300800692E+03 -0.30282374599E+03  0.53586553072E+03  0.19200000000E+03 0.  0.
<mgrwt>
<rscale>  0 0.89753316E+03</rscale>
<asrwt>0</asrwt>
<pdfrwt beam="1">  1        2 0.10224968E+00 0.89753316E+03</pdfrwt>
<pdfrwt beam="2">  1       -2 0.40196012E-01 0.89753316E+03</pdfrwt>
<totfact> 0.25684331E+02</totfact>
</mgrwt>
</event>
<event>
 4    1  0.5621415E-005  0.7255841E+03  0.7818608E-02  0.9674453E-01
         -2   -1    0    0    0  501 -0.00000000000E+00  0.00000000000E+00  0.72685875288E+02  0.72685875333E+02  0.25500000000E-02 0. -1.
          2   -1    0    0  501    0  0.00000000000E+00 -0.00000000000E+00 -0.18107793433E+04  0.18107793433E+04  0.25500000000E-02 0.  1.
    5000001    1    1    2    0    0 -0.25177067080E+03  0.15055088786E+03 -0.11111666317E+04  0.11651649342E+04  0.19200000000E+03 0.  0.
   -5000001    1    1    2    0    0  0.25177067080E+03 -0.15055088786E+03 -0.62692683628E+03  0.71830028439E+03  0.19200000000E+03 0.  0.
<mgrwt>
<rscale>  0 0.72558413E+03</rscale>
<asrwt>0</asrwt>
<pdfrwt beam="1">  1        2 0.25868274E+00 0.72558413E+03</pdfrwt>
<pdfrwt beam="2">  1       -2 0.10383698E-01 0.72558413E+03</pdfrwt>
<totfact> 0.65959929E+02</totfact>
</mgrwt>
</event>
<event>
 4    1  0.5621415E-005  0.9222176E+03  0.7818608E-02  0.9398227E-01
          2   -1    0    0  501    0  0.00000000000E+00  0.00000000000E+00  0.58671435621E+03  0.58671435621E+03  0.25500000000E-02 0.  1.
         -2   -1    0    0    0  501 -0.00000000000E+00 -0.00000000000E+00 -0.36239327900E+03  0.36239327900E+03  0.25500000000E-02 0. -1.
    5000001    1    1    2    0    0 -0.61808552742E+02  0.22684934264E+03 -0.24505724365E+03  0.39012558762E+03  0.19200000000E+03 0.  0.
   -5000001    1    1    2    0    0  0.61808552742E+02 -0.22684934264E+03  0.46937832086E+03  0.55898204760E+03  0.19200000000E+03 0.  0.
<mgrwt>
<rscale>  0 0.92221763E+03</rscale>
<asrwt>0</asrwt>
<pdfrwt beam="1">  1        2 0.83816337E-01 0.92221763E+03</pdfrwt>
<pdfrwt beam="2">  1       -2 0.51770468E-01 0.92221763E+03</pdfrwt>
<totfact> 0.19674298E+02</totfact>
</mgrwt>
</event>
<event>
 4    1  0.5621415E-005  0.9078506E+03  0.7818608E-02  0.9415821E-01
         -2   -1    0    0    0  501 -0.00000000000E+00  0.00000000000E+00  0.12729309201E+04  0.12729309201E+04  0.25500000000E-02 0. -1.
          2   -1    0    0  501    0  0.00000000000E+00 -0.00000000000E+00 -0.16186911116E+03  0.16186911118E+03  0.25500000000E-02 0.  1.
    5000001    1    1    2    0    0 -0.33115634024E+02  0.35861768612E+03  0.86956046491E+03  0.96057414714E+03  0.19200000000E+03 0.  0.
   -5000001    1    1    2    0    0  0.33115634024E+02 -0.35861768612E+03  0.24150134401E+03  0.47422588412E+03  0.19200000000E+03 0.  0.
<mgrwt>
<rscale>  0 0.90785064E+03</rscale>
<asrwt>0</asrwt>
<pdfrwt beam="1">  1        2 0.23124158E-01 0.90785064E+03</pdfrwt>
<pdfrwt beam="2">  1       -2 0.18184728E+00 0.90785064E+03</pdfrwt>
<totfact> 0.42457384E+01</totfact>
</mgrwt>
</event>
<event>
 4    1  0.5621415E-005  0.9472844E+03  0.7818608E-02  0.9368330E-01
         -2   -1    0    0    0  501 -0.00000000000E+00  0.00000000000E+00  0.79561338776E+02  0.79561338817E+02  0.25500000000E-02 0. -1.
          2   -1    0    0  501    0  0.00000000000E+00 -0.00000000000E+00 -0.28196724696E+04  0.28196724696E+04  0.25500000000E-02 0.  1.
    5000001    1    1    2    0    0  0.72810474472E+02  0.27235975644E+03 -0.36428692658E+03  0.49904926310E+03  0.19200000000E+03 0.  0.
   -5000001    1    1    2    0    0 -0.72810474472E+02 -0.27235975644E+03 -0.23758242042E+04  0.24001845453E+04  0.19200000000E+03 0.  0.
<mgrwt>
<rscale>  0 0.94728436E+03</rscale>
<asrwt>0</asrwt>
<pdfrwt beam="1">  1        2 0.40281029E+00 0.94728436E+03</pdfrwt>
<pdfrwt beam="2">  1       -2 0.11365907E-01 0.94728436E+03</pdfrwt>
<totfact> 0.16892555E+02</totfact>
</mgrwt>
</event>
<event>
 4    1  0.5621415E-005  0.5251027E+03  0.7818608E-02  0.1007427E+00
          2   -1    0    0  501    0  0.00000000000E+00  0.00000000000E+00  0.20805938103E+04  0.20805938103E+04  0.25500000000E-02 0.  1.
         -2   -1    0    0    0  501 -0.00000000000E+00 -0.00000000000E+00 -0.33131510045E+02  0.33131510143E+02  0.25500000000E-02 0. -1.
    5000001    1    1    2    0    0 -0.95747465148E+02  0.10230976432E+03  0.57486606082E+03  0.62206900971E+03  0.19200000000E+03 0.  0.
   -5000001    1    1    2    0    0  0.95747465148E+02 -0.10230976432E+03  0.14725962394E+04  0.14916563107E+04  0.19200000000E+03 0.  0.
<mgrwt>
<rscale>  0 0.52510271E+03</rscale>
<asrwt>0</asrwt>
<pdfrwt beam="1">  1        2 0.29722764E+00 0.52510271E+03</pdfrwt>
<pdfrwt beam="2">  1       -2 0.47330736E-02 0.52510271E+03</pdfrwt>
<totfact> 0.16919959E+03</totfact>
</mgrwt>
</event>
<event>
 4    1  0.5621415E-005  0.6909169E+03  0.7818608E-02  0.9732893E-01
         -2   -1    0    0    0  501 -0.00000000000E+00  0.00000000000E+00  0.75592459423E+02  0.75592459466E+02  0.25500000000E-02 0. -1.
          2   -1    0    0  501    0  0.00000000000E+00 -0.00000000000E+00 -0.15787492951E+04  0.15787492951E+04  0.25500000000E-02 0.  1.
    5000001    1    1    2    0    0 -0.15908621142E+03  0.43969266156E+02 -0.13143210631E+04  0.13384863003E+04  0.19200000000E+03 0.  0.
   -5000001    1    1    2    0    0  0.15908621142E+03 -0.43969266156E+02 -0.18883577261E+03  0.31585545436E+03  0.19200000000E+03 0.  0.
<mgrwt>
<rscale>  0 0.69091690E+03</rscale>
<asrwt>0</asrwt>
<pdfrwt beam="1">  1        2 0.22553559E+00 0.69091690E+03</pdfrwt>
<pdfrwt beam="2">  1       -2 0.10798924E-01 0.69091690E+03</pdfrwt>
<totfact> 0.81485729E+02</totfact>
</mgrwt>
</event>
<event>
 4    1  0.5621415E-005  0.7590005E+03  0.7818608E-02  0.9621335E-01
         -2   -1    0    0    0  501 -0.00000000000E+00  0.00000000000E+00  0.15072264799E+03  0.15072264801E+03  0.25500000000E-02 0. -1.
          2   -1    0    0  501    0  0.00000000000E+00 -0.00000000000E+00 -0.95553281091E+03  0.95553281092E+03  0.25500000000E-02 0.  1.
    5000001    1    1    2    0    0  0.89074013117E+02 -0.28970413222E+03 -0.58265317067E+03  0.68425973236E+03  0.19200000000E+03 0.  0.
   -5000001    1    1    2    0    0 -0.89074013117E+02  0.28970413222E+03 -0.22215699225E+03  0.42199572657E+03  0.19200000000E+03 0.  0.
<mgrwt>
<rscale>  0 0.75900049E+03</rscale>
<asrwt>0</asrwt>
<pdfrwt beam="1">  1        2 0.13650468E+00 0.75900049E+03</pdfrwt>
<pdfrwt beam="2">  1       -2 0.21531807E-01 0.75900049E+03</pdfrwt>
<totfact> 0.56278816E+02</totfact>
</mgrwt>
</event>
<event>
 4    1  0.5621415E-005  0.1192562E+04  0.7818608E-02  0.9119392E-01
         -2   -1    0    0    0  501 -0.00000000000E+00  0.00000000000E+00  0.43595290195E+03  0.43595290196E+03  0.25500000000E-02 0. -1.
          2   -1    0    0  501    0  0.00000000000E+00 -0.00000000000E+00 -0.81557197606E+03  0.81557197607E+03  0.25500000000E-02 0.  1.
    5000001    1    1    2    0    0 -0.27587964624E+03 -0.42166268879E+03  0.77289434565E+02  0.54474458145E+03  0.19200000000E+03 0.  0.
   -5000001    1    1    2    0    0  0.27587964624E+03  0.42166268879E+03 -0.45690850868E+03  0.70678029658E+03  0.19200000000E+03 0.  0.
<mgrwt>
<rscale>  0 0.11925619E+04</rscale>
<asrwt>0</asrwt>
<pdfrwt beam="1">  1        2 0.11651028E+00 0.11925619E+04</pdfrwt>
<pdfrwt beam="2">  1       -2 0.62278987E-01 0.11925619E+04</pdfrwt>
<totfact> 0.87638425E+01</totfact>
</mgrwt>
</event>
<event>
 4    1  0.5621415E-005  0.7538432E+03  0.7818608E-02  0.9629340E-01
          2   -1    0    0  501    0  0.00000000000E+00  0.00000000000E+00  0.37215748470E+04  0.37215748470E+04  0.25500000000E-02 0.  1.
         -2   -1    0    0    0  501 -0.00000000000E+00 -0.00000000000E+00 -0.38174665549E+02  0.38174665634E+02  0.25500000000E-02 0. -1.
    5000001    1    1    2    0    0 -0.31404865015E+03 -0.20952653759E+02  0.22325166488E+04  0.22627549924E+04  0.19200000000E+03 0.  0.
   -5000001    1    1    2    0    0  0.31404865015E+03  0.20952653759E+02  0.14508835326E+04  0.14969945202E+04  0.19200000000E+03 0.  0.
<mgrwt>
<rscale>  0 0.75384315E+03</rscale>
<asrwt>0</asrwt>
<pdfrwt beam="1">  1        2 0.53165366E+00 0.75384315E+03</pdfrwt>
<pdfrwt beam="2">  1       -2 0.54535225E-02 0.75384315E+03</pdfrwt>
<totfact> 0.16902819E+02</totfact>
</mgrwt>
</event>
<event>
 4    1  0.5621415E-005  0.5087097E+03  0.7818608E-02  0.1011530E+00
         -2   -1    0    0    0  501 -0.00000000000E+00  0.00000000000E+00  0.45871208800E+02  0.45871208871E+02  0.25500000000E-02 0. -1.
          2   -1    0    0  501    0  0.00000000000E+00 -0.00000000000E+00 -0.14103920273E+04  0.14103920273E+04  0.25500000000E-02 0.  1.
    5000001    1    1    2    0    0  0.72091285949E+02 -0.10986190490E+03 -0.38801014150E+03  0.45241867951E+03  0.19200000000E+03 0.  0.
   -5000001    1    1    2    0    0 -0.72091285949E+02  0.10986190490E+03 -0.97651067702E+03  0.10038445567E+04  0.19200000000E+03 0.  0.
<mgrwt>
<rscale>  0 0.50870969E+03</rscale>
<asrwt>0</asrwt>
<pdfrwt beam="1">  1        2 0.20148455E+00 0.50870969E+03</pdfrwt>
<pdfrwt beam="2">  1       -2 0.65530307E-02 0.50870969E+03</pdfrwt>
<totfact> 0.22326608E+03</totfact>
</mgrwt>
</event>
<event>
 4    1  0.5621415E-005  0.4556085E+03  0.7818608E-02  0.1026063E+00
          2   -1    0    0  501    0  0.00000000000E+00  0.00000000000E+00  0.14822938612E+04  0.14822938612E+04  0.25500000000E-02 0.  1.
         -2   -1    0    0    0  501 -0.00000000000E+00 -0.00000000000E+00 -0.35009771213E+02  0.35009771306E+02  0.25500000000E-02 0. -1.
    5000001    1    1    2    0    0  0.77322716916E+02 -0.34235912615E+02  0.42801769555E+03  0.47666974727E+03  0.19200000000E+03 0.  0.
   -5000001    1    1    2    0    0 -0.77322716916E+02  0.34235912615E+02  0.10192663944E+04  0.10406338852E+04  0.19200000000E+03 0.  0.
<mgrwt>
<rscale>  0 0.45560847E+03</rscale>
<asrwt>0</asrwt>
<pdfrwt beam="1">  1        2 0.21175631E+00 0.45560847E+03</pdfrwt>
<pdfrwt beam="2">  1       -2 0.50013949E-02 0.45560847E+03</pdfrwt>
<totfact> 0.31188306E+03</totfact>
</mgrwt>
</event>
<event>
 4    1  0.5621415E-005  0.5148293E+03  0.7818608E-02  0.1009979E+00
          2   -1    0    0  501    0  0.00000000000E+00  0.00000000000E+00  0.22045049151E+04  0.22045049151E+04  0.25500000000E-02 0.  1.
         -2   -1    0    0    0  501 -0.00000000000E+00 -0.00000000000E+00 -0.30057673970E+02  0.30057674079E+02  0.25500000000E-02 0. -1.
    5000001    1    1    2    0    0  0.14542666173E+03 -0.79008041732E+02  0.12816765143E+04  0.13065029169E+04  0.19200000000E+03 0.  0.
   -5000001    1    1    2    0    0 -0.14542666173E+03  0.79008041732E+02  0.89277072683E+03  0.92805967226E+03  0.19200000000E+03 0.  0.
<mgrwt>
<rscale>  0 0.51482925E+03</rscale>
<asrwt>0</asrwt>
<pdfrwt beam="1">  1        2 0.31492935E+00 0.51482925E+03</pdfrwt>
<pdfrwt beam="2">  1       -2 0.42939524E-02 0.51482925E+03</pdfrwt>
<totfact> 0.17048803E+03</totfact>
</mgrwt>
</event>
<event>
 4    1  0.5621415E-005  0.1259843E+04  0.7818608E-02  0.9062031E-01
         -2   -1    0    0    0  501 -0.00000000000E+00  0.00000000000E+00  0.19013797064E+03  0.19013797066E+03  0.25500000000E-02 0. -1.
          2   -1    0    0  501    0  0.00000000000E+00 -0.00000000000E+00 -0.20869106620E+04  0.20869106620E+04  0.25500000000E-02 0.  1.
    5000001    1    1    2    0    0 -0.52035308301E+03  0.29681662568E+03 -0.88927783887E+03  0.10892871591E+04  0.19200000000E+03 0.  0.
   -5000001    1    1    2    0    0  0.52035308301E+03 -0.29681662568E+03 -0.10074948525E+04  0.11877614736E+04  0.19200000000E+03 0.  0.
<mgrwt>
<rscale>  0 0.12598428E+04</rscale>
<asrwt>0</asrwt>
<pdfrwt beam="1">  1        2 0.29813008E+00 0.12598428E+04</pdfrwt>
<pdfrwt beam="2">  1       -2 0.27162568E-01 0.12598428E+04</pdfrwt>
<totfact> 0.87763924E+01</totfact>
</mgrwt>
</event>
<event>
 4    1  0.5621415E-005  0.4814070E+03  0.7818608E-02  0.1018749E+00
          2   -1    0    0  501    0  0.00000000000E+00  0.00000000000E+00  0.39803239518E+03  0.39803239519E+03  0.25500000000E-02 0.  1.
         -2   -1    0    0    0  501 -0.00000000000E+00 -0.00000000000E+00 -0.14556147373E+03  0.14556147375E+03  0.25500000000E-02 0. -1.
    5000001    1    1    2    0    0  0.14472310497E+03 -0.68855177975E+01  0.11601066395E+03  0.26704805114E+03  0.19200000000E+03 0.  0.
   -5000001    1    1    2    0    0 -0.14472310497E+03  0.68855177975E+01  0.13646025750E+03  0.27654581780E+03  0.19200000000E+03 0.  0.
<mgrwt>
<rscale>  0 0.48140703E+03</rscale>
<asrwt>0</asrwt>
<pdfrwt beam="1">  1        2 0.56861771E-01 0.48140703E+03</pdfrwt>
<pdfrwt beam="2">  1       -2 0.20794496E-01 0.48140703E+03</pdfrwt>
<totfact> 0.17240019E+03</totfact>
</mgrwt>
</event>
<event>
 4    1  0.5621415E-005  0.6335242E+03  0.7818608E-02  0.9838196E-01
         -2   -1    0    0    0  501 -0.00000000000E+00  0.00000000000E+00  0.61921896744E+03  0.61921896745E+03  0.25500000000E-02 0. -1.
          2   -1    0    0  501    0  0.00000000000E+00 -0.00000000000E+00 -0.16203999420E+03  0.16203999422E+03  0.25500000000E-02 0.  1.
    5000001    1    1    2    0    0 -0.86974330690E+02 -0.23643369346E+03  0.22492868382E+03  0.38848724356E+03  0.19200000000E+03 0.  0.
   -5000001    1    1    2    0    0  0.86974330690E+02  0.23643369346E+03  0.23225028943E+03  0.39277171811E+03  0.19200000000E+03 0.  0.
<mgrwt>
<rscale>  0 0.63352423E+03</rscale>
<asrwt>0</asrwt>
<pdfrwt beam="1">  1        2 0.23148570E-01 0.63352423E+03</pdfrwt>
<pdfrwt beam="2">  1       -2 0.88459853E-01 0.63352423E+03</pdfrwt>
<totfact> 0.26621269E+02</totfact>
</mgrwt>
</event>
<event>
 4    1  0.5621415E-005  0.4521117E+03  0.7818608E-02  0.1027094E+00
         -2   -1    0    0    0  501 -0.00000000000E+00  0.00000000000E+00  0.48288143589E+02  0.48288143656E+02  0.25500000000E-02 0. -1.
          2   -1    0    0  501    0  0.00000000000E+00 -0.00000000000E+00 -0.10582565068E+04  0.10582565068E+04  0.25500000000E-02 0.  1.
    5000001    1    1    2    0    0 -0.10959202505E+03 -0.40662046724E+02 -0.56359296951E+03  0.60676589331E+03  0.19200000000E+03 0.  0.
   -5000001    1    1    2    0    0  0.10959202505E+03  0.40662046724E+02 -0.44637539369E+03  0.49977875714E+03  0.19200000000E+03 0.  0.
<mgrwt>
<rscale>  0 0.45211168E+03</rscale>
<asrwt>0</asrwt>
<pdfrwt beam="1">  1        2 0.15117949E+00 0.45211168E+03</pdfrwt>
<pdfrwt beam="2">  1       -2 0.68983069E-02 0.45211168E+03</pdfrwt>
<totfact> 0.32232155E+03</totfact>
</mgrwt>
</event>
<event>
 4    1  0.5621415E-005  0.5787102E+03  0.7818608E-02  0.9950587E-01
         -2   -1    0    0    0  501 -0.00000000000E+00  0.00000000000E+00  0.43699658947E+02  0.43699659022E+02  0.25500000000E-02 0. -1.
          2   -1    0    0  501    0  0.00000000000E+00 -0.00000000000E+00 -0.19159504262E+04  0.19159504262E+04  0.25500000000E-02 0.  1.
    5000001    1    1    2    0    0  0.14489359645E+03  0.15777535833E+03 -0.83038136226E+03  0.87879714655E+03  0.19200000000E+03 0.  0.
   -5000001    1    1    2    0    0 -0.14489359645E+03 -0.15777535833E+03 -0.10418694050E+04  0.10808529387E+04  0.19200000000E+03 0.  0.
<mgrwt>
<rscale>  0 0.57871022E+03</rscale>
<asrwt>0</asrwt>
<pdfrwt beam="1">  1        2 0.27370715E+00 0.57871022E+03</pdfrwt>
<pdfrwt beam="2">  1       -2 0.62428097E-02 0.57871022E+03</pdfrwt>
<totfact> 0.13265797E+03</totfact>
</mgrwt>
</event>
<event>
 4    1  0.5621415E-005  0.6262087E+03  0.7818608E-02  0.9852475E-01
         -2   -1    0    0    0  501 -0.00000000000E+00  0.00000000000E+00  0.20850003258E+03  0.20850003259E+03  0.25500000000E-02 0. -1.
          2   -1    0    0  501    0  0.00000000000E+00 -0.00000000000E+00 -0.47018860070E+03  0.47018860071E+03  0.25500000000E-02 0.  1.
    5000001    1    1    2    0    0  0.24453218972E+03 -0.24073625023E+01 -0.17093852722E+03  0.35480384340E+03  0.19200000000E+03 0.  0.
   -5000001    1    1    2    0    0 -0.24453218972E+03  0.24073625023E+01 -0.90750040906E+02  0.32388478990E+03  0.19200000000E+03 0.  0.
<mgrwt>
<rscale>  0 0.62620871E+03</rscale>
<asrwt>0</asrwt>
<pdfrwt beam="1">  1        2 0.67169800E-01 0.62620871E+03</pdfrwt>
<pdfrwt beam="2">  1       -2 0.29785719E-01 0.62620871E+03</pdfrwt>
<totfact> 0.75142189E+02</totfact>
</mgrwt>
</event>
<event>
 4    1  0.5621415E-005  0.1087460E+04  0.7818608E-02  0.9217501E-01
          2   -1    0    0  501    0  0.00000000000E+00  0.00000000000E+00  0.64997617423E+03  0.64997617423E+03  0.25500000000E-02 0.  1.
         -2   -1    0    0    0  501 -0.00000000000E+00 -0.00000000000E+00 -0.45485126060E+03  0.45485126060E+03  0.25500000000E-02 0. -1.
    5000001    1    1    2    0    0  0.23659096246E+03  0.43945876602E+03  0.19751654901E+03  0.57006673090E+03  0.19200000000E+03 0.  0.
   -5000001    1    1    2    0    0 -0.23659096246E+03 -0.43945876602E+03 -0.23916353766E+01  0.53476070393E+03  0.19200000000E+03 0.  0.
<mgrwt>
<rscale>  0 0.10874603E+04</rscale>
<asrwt>0</asrwt>
<pdfrwt beam="1">  1        2 0.92853739E-01 0.10874603E+04</pdfrwt>
<pdfrwt beam="2">  1       -2 0.64978751E-01 0.10874603E+04</pdfrwt>
<totfact> 0.10708579E+02</totfact>
</mgrwt>
</event>
<event>
 4    1  0.5621415E-005  0.6239284E+03  0.7818608E-02  0.9856969E-01
          2   -1    0    0  501    0  0.00000000000E+00  0.00000000000E+00  0.78866527142E+03  0.78866527142E+03  0.25500000000E-02 0.  1.
         -2   -1    0    0    0  501 -0.00000000000E+00 -0.00000000000E+00 -0.12340045402E+03  0.12340045405E+03  0.25500000000E-02 0. -1.
    5000001    1    1    2    0    0 -0.13124471021E+02  0.22887202605E+03  0.46258570445E+03  0.55082137759E+03  0.19200000000E+03 0.  0.
   -5000001    1    1    2    0    0  0.13124471021E+02 -0.22887202605E+03  0.20267911294E+03  0.36124434788E+03  0.19200000000E+03 0.  0.
<mgrwt>
<rscale>  0 0.62392837E+03</rscale>
<asrwt>0</asrwt>
<pdfrwt beam="1">  1        2 0.11266646E+00 0.62392837E+03</pdfrwt>
<pdfrwt beam="2">  1       -2 0.17628637E-01 0.62392837E+03</pdfrwt>
<totfact> 0.10320271E+03</totfact>
</mgrwt>
</event>
<event>
 4    1  0.5621415E-005  0.4430307E+03  0.7818608E-02  0.1029821E+00
          2   -1    0    0  501    0  0.00000000000E+00  0.00000000000E+00  0.57412508202E+03  0.57412508203E+03  0.25500000000E-02 0.  1.
         -2   -1    0    0    0  501 -0.00000000000E+00 -0.00000000000E+00 -0.85467512913E+02  0.85467512951E+02  0.25500000000E-02 0. -1.
    5000001    1    1    2    0    0  0.93890470270E+02 -0.52883084674E+02  0.28058395879E+03  0.35665585511E+03  0.19200000000E+03 0.  0.
   -5000001    1    1    2    0    0 -0.93890470270E+02  0.52883084674E+02  0.20807361031E+03  0.30293673987E+03  0.19200000000E+03 0.  0.
<mgrwt>
<rscale>  0 0.44303067E+03</rscale>
<asrwt>0</asrwt>
<pdfrwt beam="1">  1        2 0.82017868E-01 0.44303067E+03</pdfrwt>
<pdfrwt beam="2">  1       -2 0.12209645E-01 0.44303067E+03</pdfrwt>
<totfact> 0.28017314E+03</totfact>
</mgrwt>
</event>
<event>
 4    1  0.5621415E-005  0.7391234E+03  0.7818608E-02  0.9652570E-01
          2   -1    0    0  501    0  0.00000000000E+00  0.00000000000E+00  0.17393104444E+04  0.17393104444E+04  0.25500000000E-02 0.  1.
         -2   -1    0    0    0  501 -0.00000000000E+00 -0.00000000000E+00 -0.78522996179E+02  0.78522996221E+02  0.25500000000E-02 0. -1.
    5000001    1    1    2    0    0  0.72401368555E+00 -0.24792335384E+03  0.34941435246E+03  0.46949004599E+03  0.19200000000E+03 0.  0.
   -5000001    1    1    2    0    0 -0.72401368555E+00  0.24792335384E+03  0.13113730957E+04  0.13483433946E+04  0.19200000000E+03 0.  0.
<mgrwt>
<rscale>  0 0.73912345E+03</rscale>
<asrwt>0</asrwt>
<pdfrwt beam="1">  1        2 0.24847293E+00 0.73912345E+03</pdfrwt>
<pdfrwt beam="2">  1       -2 0.11217571E-01 0.73912345E+03</pdfrwt>
<totfact> 0.63157178E+02</totfact>
</mgrwt>
</event>
<event>
 4    1  0.5621415E-005  0.8720765E+03  0.7818608E-02  0.9461176E-01
         -2   -1    0    0    0  501 -0.00000000000E+00  0.00000000000E+00  0.18228687257E+03  0.18228687258E+03  0.25500000000E-02 0. -1.
          2   -1    0    0  501    0  0.00000000000E+00 -0.00000000000E+00 -0.10430228167E+04  0.10430228167E+04  0.25500000000E-02 0.  1.
    5000001    1    1    2    0    0  0.37389488654E+03  0.10443717751E+03 -0.50147031950E+03  0.66260168394E+03  0.19200000000E+03 0.  0.
   -5000001    1    1    2    0    0 -0.37389488654E+03 -0.10443717751E+03 -0.35926562461E+03  0.56270800532E+03  0.19200000000E+03 0.  0.
<mgrwt>
<rscale>  0 0.87207653E+03</rscale>
<asrwt>0</asrwt>
<pdfrwt beam="1">  1        2 0.14900326E+00 0.87207653E+03</pdfrwt>
<pdfrwt beam="2">  1       -2 0.26040982E-01 0.87207653E+03</pdfrwt>
<totfact> 0.35198530E+02</totfact>
</mgrwt>
</event>
<event>
 4    1  0.5621415E-005  0.5261030E+03  0.7818608E-02  0.1007182E+00
          2   -1    0    0  501    0  0.00000000000E+00  0.00000000000E+00  0.35111130209E+04  0.35111130209E+04  0.25500000000E-02 0.  1.
         -2   -1    0    0    0  501 -0.00000000000E+00 -0.00000000000E+00 -0.19707733282E+02  0.19707733447E+02  0.25500000000E-02 0. -1.
    5000001    1    1    2    0    0 -0.15871377831E+03 -0.78492496673E+01  0.23104237038E+04  0.23238273097E+04  0.19200000000E+03 0.  0.
   -5000001    1    1    2    0    0  0.15871377831E+03  0.78492496673E+01  0.11809815837E+04  0.12069934446E+04  0.19200000000E+03 0.  0.
<mgrwt>
<rscale>  0 0.52610295E+03</rscale>
<asrwt>0</asrwt>
<pdfrwt beam="1">  1        2 0.50158740E+00 0.52610295E+03</pdfrwt>
<pdfrwt beam="2">  1       -2 0.28153915E-02 0.52610295E+03</pdfrwt>
<totfact> 0.64539307E+02</totfact>
</mgrwt>
</event>
<event>
 4    1  0.5621415E-005  0.5740740E+03  0.7818608E-02  0.9960704E-01
         -2   -1    0    0    0  501 -0.00000000000E+00  0.00000000000E+00  0.75513973893E+02  0.75513973936E+02  0.25500000000E-02 0. -1.
          2   -1    0    0  501    0  0.00000000000E+00 -0.00000000000E+00 -0.10910595587E+04  0.10910595587E+04  0.25500000000E-02 0.  1.
    5000001    1    1    2    0    0  0.49403246522E+02 -0.20712233759E+03 -0.53547940377E+03  0.60740640049E+03  0.19200000000E+03 0.  0.
   -5000001    1    1    2    0    0 -0.49403246522E+02  0.20712233759E+03 -0.48006618101E+03  0.55916713212E+03  0.19200000000E+03 0.  0.
<mgrwt>
<rscale>  0 0.57407401E+03</rscale>
<asrwt>0</asrwt>
<pdfrwt beam="1">  1        2 0.15586564E+00 0.57407401E+03</pdfrwt>
<pdfrwt beam="2">  1       -2 0.10787711E-01 0.57407401E+03</pdfrwt>
<totfact> 0.15086850E+03</totfact>
</mgrwt>
</event>
<event>
 4    1  0.5621415E-005  0.6294796E+03  0.7818608E-02  0.9846065E-01
         -2   -1    0    0    0  501 -0.00000000000E+00  0.00000000000E+00  0.28928155585E+02  0.28928155697E+02  0.25500000000E-02 0. -1.
          2   -1    0    0  501    0  0.00000000000E+00 -0.00000000000E+00 -0.34243850430E+04  0.34243850430E+04  0.25500000000E-02 0.  1.
    5000001    1    1    2    0    0 -0.21828522250E+03 -0.19396424387E+02 -0.10446320435E+04  0.10845020820E+04  0.19200000000E+03 0.  0.
   -5000001    1    1    2    0    0  0.21828522250E+03  0.19396424387E+02 -0.23508248439E+04  0.23688111167E+04  0.19200000000E+03 0.  0.
<mgrwt>
<rscale>  0 0.62947961E+03</rscale>
<asrwt>0</asrwt>
<pdfrwt beam="1">  1        2 0.48919760E+00 0.62947961E+03</pdfrwt>
<pdfrwt beam="2">  1       -2 0.41325958E-02 0.62947961E+03</pdfrwt>
<totfact> 0.39933250E+02</totfact>
</mgrwt>
</event>
<event>
 4    1  0.5621415E-005  0.5019644E+03  0.7818608E-02  0.1013267E+00
         -2   -1    0    0    0  501 -0.00000000000E+00  0.00000000000E+00  0.23127040553E+02  0.23127040694E+02  0.25500000000E-02 0. -1.
          2   -1    0    0  501    0  0.00000000000E+00 -0.00000000000E+00 -0.27237407182E+04  0.27237407182E+04  0.25500000000E-02 0.  1.
    5000001    1    1    2    0    0 -0.14478601091E+03 -0.37176632054E+02 -0.16868814611E+04  0.17043409737E+04  0.19200000000E+03 0.  0.
   -5000001    1    1    2    0    0  0.14478601091E+03  0.37176632054E+02 -0.10137322166E+04  0.10425267852E+04  0.19200000000E+03 0.  0.
<mgrwt>
<rscale>  0 0.50196439E+03</rscale>
<asrwt>0</asrwt>
<pdfrwt beam="1">  1        2 0.38910561E+00 0.50196439E+03</pdfrwt>
<pdfrwt beam="2">  1       -2 0.33038647E-02 0.50196439E+03</pdfrwt>
<totfact> 0.13841823E+03</totfact>
</mgrwt>
</event>
<event>
 4    1  0.5621415E-005  0.4805776E+03  0.7818608E-02  0.1018977E+00
         -2   -1    0    0    0  501 -0.00000000000E+00  0.00000000000E+00  0.13146155237E+03  0.13146155239E+03  0.25500000000E-02 0. -1.
          2   -1    0    0  501    0  0.00000000000E+00 -0.00000000000E+00 -0.43920595849E+03  0.43920595850E+03  0.25500000000E-02 0.  1.
    5000001    1    1    2    0    0 -0.64278292655E+02 -0.27676927058E+02 -0.37769045661E+01  0.20439172245E+03  0.19200000000E+03 0.  0.
   -5000001    1    1    2    0    0  0.64278292655E+02  0.27676927058E+02 -0.30396750156E+03  0.36627578844E+03  0.19200000000E+03 0.  0.
<mgrwt>
<rscale>  0 0.48057756E+03</rscale>
<asrwt>0</asrwt>
<pdfrwt beam="1">  1        2 0.62743708E-01 0.48057756E+03</pdfrwt>
<pdfrwt beam="2">  1       -2 0.18780222E-01 0.48057756E+03</pdfrwt>
<totfact> 0.18441160E+03</totfact>
</mgrwt>
</event>
<event>
 4    1  0.5621415E-005  0.4096687E+03  0.7818608E-02  0.1040482E+00
          2   -1    0    0  501    0  0.00000000000E+00  0.00000000000E+00  0.34407989737E+03  0.34407989738E+03  0.25500000000E-02 0.  1.
         -2   -1    0    0    0  501 -0.00000000000E+00 -0.00000000000E+00 -0.12194000066E+03  0.12194000069E+03  0.25500000000E-02 0. -1.
    5000001    1    1    2    0    0 -0.14775167837E+02  0.52150924526E+02  0.16387837837E+03  0.25818239175E+03  0.19200000000E+03 0.  0.
   -5000001    1    1    2    0    0  0.14775167837E+02 -0.52150924526E+02  0.58261518334E+02  0.20783750632E+03  0.19200000000E+03 0.  0.
<mgrwt>
<rscale>  0 0.40966866E+03</rscale>
<asrwt>0</asrwt>
<pdfrwt beam="1">  1        2 0.49154271E-01 0.40966866E+03</pdfrwt>
<pdfrwt beam="2">  1       -2 0.17420000E-01 0.40966866E+03</pdfrwt>
<totfact> 0.27379527E+03</totfact>
</mgrwt>
</event>
<event>
 4    1  0.5621415E-005  0.5761921E+03  0.7818608E-02  0.9956069E-01
          2   -1    0    0  501    0  0.00000000000E+00  0.00000000000E+00  0.24485541005E+04  0.24485541005E+04  0.25500000000E-02 0.  1.
         -2   -1    0    0    0  501 -0.00000000000E+00 -0.00000000000E+00 -0.33897280044E+02  0.33897280139E+02  0.25500000000E-02 0. -1.
    5000001    1    1    2    0    0 -0.96327456020E+02  0.18805497588E+03  0.13737271618E+04  0.14030801716E+04  0.19200000000E+03 0.  0.
   -5000001    1    1    2    0    0  0.96327456020E+02 -0.18805497588E+03  0.10409296586E+04  0.10793712091E+04  0.19200000000E+03 0.  0.
<mgrwt>
<rscale>  0 0.57619207E+03</rscale>
<asrwt>0</asrwt>
<pdfrwt beam="1">  1        2 0.34979337E+00 0.57619207E+03</pdfrwt>
<pdfrwt beam="2">  1       -2 0.48424696E-02 0.57619207E+03</pdfrwt>
<totfact> 0.10622002E+03</totfact>
</mgrwt>
</event>
<event>
 4    1  0.5621415E-005  0.6901967E+03  0.7818608E-02  0.9734146E-01
         -2   -1    0    0    0  501 -0.00000000000E+00  0.00000000000E+00  0.56150799513E+03  0.56150799514E+03  0.25500000000E-02 0.  1.
          2   -1    0    0  501    0  0.00000000000E+00 -0.00000000000E+00 -0.21209468451E+03  0.21209468453E+03  0.25500000000E-02 0. -1.
    5000001    1    1    2    0    0 -0.13043761452E+03 -0.24457310145E+03  0.92350273463E+02  0.34960341280E+03  0.19200000000E+03 0.  0.
   -5000001    1    1    2    0    0  0.13043761452E+03  0.24457310145E+03  0.25706303715E+03  0.42399926687E+03  0.19200000000E+03 0.  0.
<mgrwt>
<rscale>  0 0.69019667E+03</rscale>
<asrwt>0</asrwt>
<pdfrwt beam="1">  1        2 0.30299241E-01 0.69019667E+03</pdfrwt>
<pdfrwt beam="2">  1       -2 0.80215427E-01 0.69019667E+03</pdfrwt>
<totfact> 0.24411979E+02</totfact>
</mgrwt>
</event>
<event>
 4    1  0.5621415E-005  0.1186077E+04  0.7818608E-02  0.9125131E-01
         -2   -1    0    0    0  501 -0.00000000000E+00  0.00000000000E+00  0.21164853172E+03  0.21164853174E+03  0.25500000000E-02 0. -1.
          2   -1    0    0  501    0  0.00000000000E+00 -0.00000000000E+00 -0.16616929916E+04  0.16616929916E+04  0.25500000000E-02 0.  1.
    5000001    1    1    2    0    0 -0.46853847555E+03 -0.20338993173E+03 -0.35821343333E+03  0.65274545668E+03  0.19200000000E+03 0.  0.
   -5000001    1    1    2    0    0  0.46853847555E+03  0.20338993173E+03 -0.10918310266E+04  0.12205960667E+04  0.19200000000E+03 0.  0.
<mgrwt>
<rscale>  0 0.11860774E+04</rscale>
<asrwt>0</asrwt>
<pdfrwt beam="1">  1        2 0.23738471E+00 0.11860774E+04</pdfrwt>
<pdfrwt beam="2">  1       -2 0.30235506E-01 0.11860774E+04</pdfrwt>
<totfact> 0.11977769E+02</totfact>
</mgrwt>
</event>
<event>
 4    1  0.5621415E-005  0.5691986E+03  0.7818608E-02  0.9971454E-01
         -2   -1    0    0    0  501 -0.00000000000E+00  0.00000000000E+00  0.54766551855E+02  0.54766551915E+02  0.25500000000E-02 0. -1.
          2   -1    0    0  501    0  0.00000000000E+00 -0.00000000000E+00 -0.14789457293E+04  0.14789457293E+04  0.25500000000E-02 0.  1.
    5000001    1    1    2    0    0  0.12803346953E+03  0.13193025826E+03 -0.98601153333E+03  0.10212154064E+04  0.19200000000E+03 0.  0.
   -5000001    1    1    2    0    0 -0.12803346953E+03 -0.13193025826E+03 -0.43816764408E+03  0.51249687481E+03  0.19200000000E+03 0.  0.
<mgrwt>
<rscale>  0 0.56919859E+03</rscale>
<asrwt>0</asrwt>
<pdfrwt beam="1">  1        2 0.21127794E+00 0.56919859E+03</pdfrwt>
<pdfrwt beam="2">  1       -2 0.78237940E-02 0.56919859E+03</pdfrwt>
<totfact> 0.15512972E+03</totfact>
</mgrwt>
</event>
<event>
 4    1  0.5621415E-005  0.5607277E+03  0.7818608E-02  0.9990409E-01
          2   -1    0    0  501    0  0.00000000000E+00  0.00000000000E+00  0.24531508317E+04  0.24531508317E+04  0.25500000000E-02 0.  1.
         -2   -1    0    0    0  501 -0.00000000000E+00 -0.00000000000E+00 -0.32042012762E+02  0.32042012864E+02  0.25500000000E-02 0. -1.
    5000001    1    1    2    0    0 -0.35136442782E+02  0.20095186802E+03  0.11612670114E+04  0.11945799658E+04  0.19200000000E+03 0.  0.
   -5000001    1    1    2    0    0  0.35136442782E+02 -0.20095186802E+03  0.12598418075E+04  0.12906128787E+04  0.19200000000E+03 0.  0.
<mgrwt>
<rscale>  0 0.56072771E+03</rscale>
<asrwt>0</asrwt>
<pdfrwt beam="1">  1        2 0.35045031E+00 0.56072771E+03</pdfrwt>
<pdfrwt beam="2">  1       -2 0.45774279E-02 0.56072771E+03</pdfrwt>
<totfact> 0.11537456E+03</totfact>
</mgrwt>
</event>
<event>
 4    1  0.5621415E-005  0.7042740E+03  0.7818608E-02  0.9709951E-01
         -2   -1    0    0    0  501 -0.00000000000E+00  0.00000000000E+00  0.94572044966E+02  0.94572045000E+02  0.25500000000E-02 0. -1.
          2   -1    0    0  501    0  0.00000000000E+00 -0.00000000000E+00 -0.13111746121E+04  0.13111746121E+04  0.25500000000E-02 0.  1.
    5000001    1    1    2    0    0 -0.34460734232E+02 -0.29316764829E+03 -0.61086692465E+03  0.70509376102E+03  0.19200000000E+03 0.  0.
   -5000001    1    1    2    0    0  0.34460734232E+02  0.29316764829E+03 -0.60573564250E+03  0.70065289609E+03  0.19200000000E+03 0.  0.
<mgrwt>
<rscale>  0 0.70427399E+03</rscale>
<asrwt>0</asrwt>
<pdfrwt beam="1">  1        2 0.18731065E+00 0.70427399E+03</pdfrwt>
<pdfrwt beam="2">  1       -2 0.13510293E-01 0.70427399E+03</pdfrwt>
<totfact> 0.77958668E+02</totfact>
</mgrwt>
</event>
<event>
 4    1  0.5621415E-005  0.8482769E+03  0.7818608E-02  0.9492653E-01
         -2   -1    0    0    0  501 -0.00000000000E+00  0.00000000000E+00  0.86262008613E+02  0.86262008651E+02  0.25500000000E-02 0.  1.
          2   -1    0    0  501    0  0.00000000000E+00 -0.00000000000E+00 -0.20854305160E+04  0.20854305160E+04  0.25500000000E-02 0. -1.
    5000001    1    1    2    0    0  0.15314907745E+03 -0.33776350066E+03 -0.80988277697E+03  0.91121508697E+03  0.19200000000E+03 0.  0.
   -5000001    1    1    2    0    0 -0.15314907745E+03  0.33776350066E+03 -0.11892857304E+04  0.12604774376E+04  0.19200000000E+03 0.  0.
<mgrwt>
<rscale>  0 0.84827690E+03</rscale>
<asrwt>0</asrwt>
<pdfrwt beam="1">  1        2 0.29791861E+00 0.84827690E+03</pdfrwt>
<pdfrwt beam="2">  1       -2 0.12323145E-01 0.84827690E+03</pdfrwt>
<totfact> 0.35826001E+02</totfact>
</mgrwt>
</event>
<event>
 4    1  0.5621415E-005  0.4969194E+03  0.7818608E-02  0.1014586E+00
          2   -1    0    0  501    0  0.00000000000E+00  0.00000000000E+00  0.69436560884E+03  0.69436560884E+03  0.25500000000E-02 0.  1.
         -2   -1    0    0    0  501 -0.00000000000E+00 -0.00000000000E+00 -0.88904503832E+02  0.88904503868E+02  0.25500000000E-02 0. -1.
    5000001    1    1    2    0    0 -0.90554882705E+01  0.15119917782E+03  0.37188897601E+03  0.44509392685E+03  0.19200000000E+03 0.  0.
   -5000001    1    1    2    0    0  0.90554882705E+01 -0.15119917782E+03  0.23357212900E+03  0.33817618586E+03  0.19200000000E+03 0.  0.
<mgrwt>
<rscale>  0 0.49691943E+03</rscale>
<asrwt>0</asrwt>
<pdfrwt beam="1">  1        2 0.99195094E-01 0.49691943E+03</pdfrwt>
<pdfrwt beam="2">  1       -2 0.12700643E-01 0.49691943E+03</pdfrwt>
<totfact> 0.20996272E+03</totfact>
</mgrwt>
</event>
<event>
 4    1  0.5621415E-005  0.9021756E+03  0.7818608E-02  0.9422866E-01
          2   -1    0    0  501    0  0.00000000000E+00  0.00000000000E+00  0.22370416144E+04  0.22370416144E+04  0.25500000000E-02 0.  1.
         -2   -1    0    0    0  501 -0.00000000000E+00 -0.00000000000E+00 -0.90959517363E+02  0.90959517398E+02  0.25500000000E-02 0. -1.
    5000001    1    1    2    0    0  0.31075407740E+03 -0.22284200078E+03  0.70457613642E+03  0.82432893067E+03  0.19200000000E+03 0.  0.
   -5000001    1    1    2    0    0 -0.31075407740E+03  0.22284200078E+03  0.14415059606E+04  0.15036722011E+04  0.19200000000E+03 0.  0.
<mgrwt>
<rscale>  0 0.90217565E+03</rscale>
<asrwt>0</asrwt>
<pdfrwt beam="1">  1        2 0.31957736E+00 0.90217565E+03</pdfrwt>
<pdfrwt beam="2">  1       -2 0.12994217E-01 0.90217565E+03</pdfrwt>
<totfact> 0.27351050E+02</totfact>
</mgrwt>
</event>
<event>
 4    1  0.5621415E-005  0.5003341E+03  0.7818608E-02  0.1013692E+00
          2   -1    0    0  501    0  0.00000000000E+00  0.00000000000E+00  0.33624659748E+04  0.33624659748E+04  0.25500000000E-02 0.  1.
         -2   -1    0    0    0  501 -0.00000000000E+00 -0.00000000000E+00 -0.18612396513E+02  0.18612396688E+02  0.25500000000E-02 0. -1.
    5000001    1    1    2    0    0 -0.64260935916E+01 -0.15506844227E+03  0.13989286291E+04  0.14205466644E+04  0.19200000000E+03 0.  0.
   -5000001    1    1    2    0    0  0.64260935916E+01  0.15506844227E+03  0.19449249492E+04  0.19605317071E+04  0.19200000000E+03 0.  0.
<mgrwt>
<rscale>  0 0.50033409E+03</rscale>
<asrwt>0</asrwt>
<pdfrwt beam="1">  1        2 0.48035172E+00 0.50033409E+03</pdfrwt>
<pdfrwt beam="2">  1       -2 0.26589169E-02 0.50033409E+03</pdfrwt>
<totfact> 0.86174643E+02</totfact>
</mgrwt>
</event>
<event>
 4    1  0.5621415E-005  0.5059711E+03  0.7818608E-02  0.1012232E+00
         -2   -1    0    0    0  501 -0.00000000000E+00  0.00000000000E+00  0.70000142649E+02  0.70000142695E+02  0.25500000000E-02 0. -1.
          2   -1    0    0  501    0  0.00000000000E+00 -0.00000000000E+00 -0.91430809309E+03  0.91430809309E+03  0.25500000000E-02 0.  1.
    5000001    1    1    2    0    0  0.19007087564E+01 -0.14825629789E+03 -0.28249009903E+03  0.37235493633E+03  0.19200000000E+03 0.  0.
   -5000001    1    1    2    0    0 -0.19007087564E+01  0.14825629789E+03 -0.56181785141E+03  0.61195329946E+03  0.19200000000E+03 0.  0.
<mgrwt>
<rscale>  0 0.50597113E+03</rscale>
<asrwt>0</asrwt>
<pdfrwt beam="1">  1        2 0.13061543E+00 0.50597113E+03</pdfrwt>
<pdfrwt beam="2">  1       -2 0.10000021E-01 0.50597113E+03</pdfrwt>
<totfact> 0.21860367E+03</totfact>
</mgrwt>
</event>
<event>
 4    1  0.5621415E-005  0.6431509E+03  0.7818608E-02  0.9819717E-01
         -2   -1    0    0    0  501 -0.00000000000E+00  0.00000000000E+00  0.44958276653E+02  0.44958276725E+02  0.25500000000E-02 0. -1.
          2   -1    0    0  501    0  0.00000000000E+00 -0.00000000000E+00 -0.23001496188E+04  0.23001496188E+04  0.25500000000E-02 0.  1.
    5000001    1    1    2    0    0  0.12470316861E+03  0.22577248912E+03 -0.11102362071E+04  0.11558600835E+04  0.19200000000E+03 0.  0.
   -5000001    1    1    2    0    0 -0.12470316861E+03 -0.22577248912E+03 -0.11449551350E+04  0.11892478120E+04  0.19200000000E+03 0.  0.
<mgrwt>
<rscale>  0 0.64315088E+03</rscale>
<asrwt>0</asrwt>
<pdfrwt beam="1">  1        2 0.32859273E+00 0.64315088E+03</pdfrwt>
<pdfrwt beam="2">  1       -2 0.64226124E-02 0.64315088E+03</pdfrwt>
<totfact> 0.80962001E+02</totfact>
</mgrwt>
</event>
<event>
 4    1  0.5621415E-005  0.5885812E+03  0.7818608E-02  0.9929384E-01
          2   -1    0    0  501    0  0.00000000000E+00  0.00000000000E+00  0.12322972759E+03  0.12322972761E+03  0.25500000000E-02 0.  1.
         -2   -1    0    0    0  501 -0.00000000000E+00 -0.00000000000E+00 -0.70280895783E+03  0.70280895784E+03  0.25500000000E-02 0. -1.
    5000001    1    1    2    0    0 -0.15926945774E+03 -0.15353692139E+03 -0.32954960774E+03  0.44091642106E+03  0.19200000000E+03 0.  0.
   -5000001    1    1    2    0    0  0.15926945774E+03  0.15353692139E+03 -0.25002962250E+03  0.38512226439E+03  0.19200000000E+03 0.  0.
<mgrwt>
<rscale>  0 0.58858120E+03</rscale>
<asrwt>0</asrwt>
<pdfrwt beam="1">  1        2 0.17604247E-01 0.58858120E+03</pdfrwt>
<pdfrwt beam="2">  1       -2 0.10040128E+00 0.58858120E+03</pdfrwt>
<totfact> 0.27363655E+02</totfact>
</mgrwt>
</event>
<event>
 4    1  0.5621415E-005  0.4521892E+03  0.7818608E-02  0.1027071E+00
         -2   -1    0    0    0  501 -0.00000000000E+00  0.00000000000E+00  0.29144541607E+02  0.29144541718E+02  0.25500000000E-02 0. -1.
          2   -1    0    0  501    0  0.00000000000E+00 -0.00000000000E+00 -0.17539739087E+04  0.17539739087E+04  0.25500000000E-02 0.  1.
    5000001    1    1    2    0    0  0.31527399808E+02 -0.10967158920E+03 -0.10008763160E+04  0.10254946291E+04  0.19200000000E+03 0.  0.
   -5000001    1    1    2    0    0 -0.31527399808E+02  0.10967158920E+03 -0.72395305105E+03  0.75762382126E+03  0.19200000000E+03 0.  0.
<mgrwt>
<rscale>  0 0.45218919E+03</rscale>
<asrwt>0</asrwt>
<pdfrwt beam="1">  1        2 0.25056763E+00 0.45218919E+03</pdfrwt>
<pdfrwt beam="2">  1       -2 0.41635071E-02 0.45218919E+03</pdfrwt>
<totfact> 0.30073956E+03</totfact>
</mgrwt>
</event>
<event>
 4    1  0.5621415E-005  0.6853733E+03  0.7818608E-02  0.9742578E-01
         -2   -1    0    0    0  501 -0.00000000000E+00  0.00000000000E+00  0.21678683240E+03  0.21678683242E+03  0.25500000000E-02 0.  1.
          2   -1    0    0  501    0  0.00000000000E+00 -0.00000000000E+00 -0.54170321031E+03  0.54170321032E+03  0.25500000000E-02 0. -1.
    5000001    1    1    2    0    0 -0.13447033637E+03  0.23735560273E+03 -0.24924750752E+03  0.41642319041E+03  0.19200000000E+03 0.  0.
   -5000001    1    1    2    0    0  0.13447033637E+03 -0.23735560273E+03 -0.75668870394E+02  0.34206685232E+03  0.19200000000E+03 0.  0.
<mgrwt>
<rscale>  0 0.68537325E+03</rscale>
<asrwt>0</asrwt>
<pdfrwt beam="1">  1        2 0.77386172E-01 0.68537325E+03</pdfrwt>
<pdfrwt beam="2">  1       -2 0.30969548E-01 0.68537325E+03</pdfrwt>
<totfact> 0.59387180E+02</totfact>
</mgrwt>
</event>
<event>
 4    1  0.5621415E-005  0.7732582E+03  0.7818608E-02  0.9599552E-01
         -2   -1    0    0    0  501 -0.00000000000E+00  0.00000000000E+00  0.65976136789E+02  0.65976136839E+02  0.25500000000E-02 0. -1.
          2   -1    0    0  501    0  0.00000000000E+00 -0.00000000000E+00 -0.22656989585E+04  0.22656989585E+04  0.25500000000E-02 0.  1.
    5000001    1    1    2    0    0  0.21734655893E+03  0.23910500590E+03 -0.82668414937E+03  0.90811971311E+03  0.19200000000E+03 0.  0.
   -5000001    1    1    2    0    0 -0.21734655893E+03 -0.23910500590E+03 -0.13730386723E+04  0.14235553822E+04  0.19200000000E+03 0.  0.
<mgrwt>
<rscale>  0 0.77325821E+03</rscale>
<asrwt>0</asrwt>
<pdfrwt beam="1">  1        2 0.32367123E+00 0.77325821E+03</pdfrwt>
<pdfrwt beam="2">  1       -2 0.94251638E-02 0.77325821E+03</pdfrwt>
<totfact> 0.45272009E+02</totfact>
</mgrwt>
</event>
<event>
 4    1  0.5621415E-005  0.4082721E+03  0.7818608E-02  0.1040952E+00
         -2   -1    0    0    0  501 -0.00000000000E+00  0.00000000000E+00  0.43966525733E+02  0.43966525807E+02  0.25500000000E-02 0. -1.
          2   -1    0    0  501    0  0.00000000000E+00 -0.00000000000E+00 -0.94780102239E+03  0.94780102240E+03  0.25500000000E-02 0.  1.
    5000001    1    1    2    0    0  0.28966477456E+02  0.59431250978E+02 -0.50266262407E+03  0.54212991436E+03  0.19200000000E+03 0.  0.
   -5000001    1    1    2    0    0 -0.28966477456E+02 -0.59431250978E+02 -0.40117187259E+03  0.44963763385E+03  0.19200000000E+03 0.  0.
<mgrwt>
<rscale>  0 0.40827206E+03</rscale>
<asrwt>0</asrwt>
<pdfrwt beam="1">  1        2 0.13540013E+00 0.40827206E+03</pdfrwt>
<pdfrwt beam="2">  1       -2 0.62809328E-02 0.40827206E+03</pdfrwt>
<totfact> 0.43442655E+03</totfact>
</mgrwt>
</event>
<event>
 4    1  0.5621415E-005  0.5741047E+03  0.7818608E-02  0.9960637E-01
         -2   -1    0    0    0  501 -0.00000000000E+00  0.00000000000E+00  0.12440517970E+03  0.12440517972E+03  0.25500000000E-02 0. -1.
          2   -1    0    0  501    0  0.00000000000E+00 -0.00000000000E+00 -0.66234410501E+03  0.66234410502E+03  0.25500000000E-02 0.  1.
    5000001    1    1    2    0    0  0.18322120554E+03 -0.74734825730E+02 -0.15951170515E+03  0.31853302563E+03  0.19200000000E+03 0.  0.
   -5000001    1    1    2    0    0 -0.18322120554E+03  0.74734825730E+02 -0.37842722016E+03  0.46821625911E+03  0.19200000000E+03 0.  0.
<mgrwt>
<rscale>  0 0.57410465E+03</rscale>
<asrwt>0</asrwt>
<pdfrwt beam="1">  1        2 0.94620585E-01 0.57410465E+03</pdfrwt>
<pdfrwt beam="2">  1       -2 0.17772169E-01 0.57410465E+03</pdfrwt>
<totfact> 0.12638394E+03</totfact>
</mgrwt>
</event>
<event>
 4    1  0.5621415E-005  0.8756074E+03  0.7818608E-02  0.9456598E-01
          2   -1    0    0  501    0  0.00000000000E+00  0.00000000000E+00  0.45586039778E+03  0.45586039779E+03  0.25500000000E-02 0.  1.
         -2   -1    0    0    0  501 -0.00000000000E+00 -0.00000000000E+00 -0.42046224816E+03  0.42046224817E+03  0.25500000000E-02 0. -1.
    5000001    1    1    2    0    0  0.18746994050E+03  0.30770625614E+03  0.17587870307E+03  0.44455082595E+03  0.19200000000E+03 0.  0.
   -5000001    1    1    2    0    0 -0.18746994050E+03 -0.30770625614E+03 -0.14048055345E+03  0.43177182001E+03  0.19200000000E+03 0.  0.
<mgrwt>
<rscale>  0 0.87560742E+03</rscale>
<asrwt>0</asrwt>
<pdfrwt beam="1">  1        2 0.65122914E-01 0.87560742E+03</pdfrwt>
<pdfrwt beam="2">  1       -2 0.60066035E-01 0.87560742E+03</pdfrwt>
<totfact> 0.19368733E+02</totfact>
</mgrwt>
</event>
<event>
 4    1  0.5621415E-005  0.6813960E+03  0.7818608E-02  0.9749587E-01
         -2   -1    0    0    0  501 -0.00000000000E+00  0.00000000000E+00  0.63650330212E+02  0.63650330263E+02  0.25500000000E-02 0. -1.
          2   -1    0    0  501    0  0.00000000000E+00 -0.00000000000E+00 -0.18236374976E+04  0.18236374976E+04  0.25500000000E-02 0.  1.
    5000001    1    1    2    0    0 -0.85585621960E+02 -0.23665438506E+03 -0.12290346712E+04  0.12691416074E+04  0.19200000000E+03 0.  0.
   -5000001    1    1    2    0    0  0.85585621960E+02  0.23665438506E+03 -0.53095249622E+03  0.61814622048E+03  0.19200000000E+03 0.  0.
<mgrwt>
<rscale>  0 0.68139601E+03</rscale>
<asrwt>0</asrwt>
<pdfrwt beam="1">  1        2 0.26051961E+00 0.68139601E+03</pdfrwt>
<pdfrwt beam="2">  1       -2 0.90929055E-02 0.68139601E+03</pdfrwt>
<totfact> 0.80789223E+02</totfact>
</mgrwt>
</event>
<event>
 4    1  0.5621415E-005  0.4709825E+03  0.7818608E-02  0.1021643E+00
          2   -1    0    0  501    0  0.00000000000E+00  0.00000000000E+00  0.19440350167E+03  0.19440350168E+03  0.25500000000E-02 0.  1.
         -2   -1    0    0    0  501 -0.00000000000E+00 -0.00000000000E+00 -0.28526305205E+03  0.28526305206E+03  0.25500000000E-02 0. -1.
    5000001    1    1    2    0    0 -0.11740234569E+02 -0.13036886035E+03 -0.84321089497E+02  0.24720015977E+03  0.19200000000E+03 0.  0.
   -5000001    1    1    2    0    0  0.11740234569E+02  0.13036886035E+03 -0.65384608848E+01  0.23246639397E+03  0.19200000000E+03 0.  0.
<mgrwt>
<rscale>  0 0.47098253E+03</rscale>
<asrwt>0</asrwt>
<pdfrwt beam="1">  1        2 0.27771929E-01 0.47098253E+03</pdfrwt>
<pdfrwt beam="2">  1       -2 0.40751864E-01 0.47098253E+03</pdfrwt>
<totfact> 0.11076244E+03</totfact>
</mgrwt>
</event>
<event>
 4    1  0.5621415E-005  0.4335581E+03  0.7818608E-02  0.1032742E+00
         -2   -1    0    0    0  501 -0.00000000000E+00  0.00000000000E+00  0.36111782789E+03  0.36111782790E+03  0.25500000000E-02 0. -1.
          2   -1    0    0  501    0  0.00000000000E+00 -0.00000000000E+00 -0.13013246872E+03  0.13013246874E+03  0.25500000000E-02 0.  1.
    5000001    1    1    2    0    0  0.55410633332E+02  0.68462848946E+01  0.20612659664E+02  0.20101266538E+03  0.19200000000E+03 0.  0.
   -5000001    1    1    2    0    0 -0.55410633332E+02 -0.68462848946E+01  0.21037269951E+03  0.29023763126E+03  0.19200000000E+03 0.  0.
<mgrwt>
<rscale>  0 0.43355809E+03</rscale>
<asrwt>0</asrwt>
<pdfrwt beam="1">  1        2 0.18590353E-01 0.43355809E+03</pdfrwt>
<pdfrwt beam="2">  1       -2 0.51588261E-01 0.43355809E+03</pdfrwt>
<totfact> 0.10993455E+03</totfact>
</mgrwt>
</event>
<event>
 4    1  0.5621415E-005  0.4694694E+03  0.7818608E-02  0.1022070E+00
          2   -1    0    0  501    0  0.00000000000E+00  0.00000000000E+00  0.27138937112E+04  0.27138937112E+04  0.25500000000E-02 0.  1.
         -2   -1    0    0    0  501 -0.00000000000E+00 -0.00000000000E+00 -0.20303071854E+02  0.20303072014E+02  0.25500000000E-02 0. -1.
    5000001    1    1    2    0    0  0.12176912920E+03  0.10949162774E+02  0.10128006698E+04  0.10380639681E+04  0.19200000000E+03 0.  0.
   -5000001    1    1    2    0    0 -0.12176912920E+03 -0.10949162774E+02  0.16807899695E+04  0.16961328151E+04  0.19200000000E+03 0.  0.
<mgrwt>
<rscale>  0 0.46946940E+03</rscale>
<asrwt>0</asrwt>
<pdfrwt beam="1">  1        2 0.38769902E+00 0.46946940E+03</pdfrwt>
<pdfrwt beam="2">  1       -2 0.29004394E-02 0.46946940E+03</pdfrwt>
<totfact> 0.17101954E+03</totfact>
</mgrwt>
</event>
<event>
 4    1  0.5621415E-005  0.6421827E+03  0.7818608E-02  0.9821559E-01
          2   -1    0    0  501    0  0.00000000000E+00  0.00000000000E+00  0.58750371005E+03  0.58750371006E+03  0.25500000000E-02 0.  1.
         -2   -1    0    0    0  501 -0.00000000000E+00 -0.00000000000E+00 -0.17548764701E+03  0.17548764702E+03  0.25500000000E-02 0. -1.
    5000001    1    1    2    0    0  0.13354501433E+03 -0.17563452499E+03  0.48592462627E+02  0.29649112068E+03  0.19200000000E+03 0.  0.
   -5000001    1    1    2    0    0 -0.13354501433E+03  0.17563452499E+03  0.36342360042E+03  0.46650023640E+03  0.19200000000E+03 0.  0.
<mgrwt>
<rscale>  0 0.64218266E+03</rscale>
<asrwt>0</asrwt>
<pdfrwt beam="1">  1        2 0.83929103E-01 0.64218266E+03</pdfrwt>
<pdfrwt beam="2">  1       -2 0.25069663E-01 0.64218266E+03</pdfrwt>
<totfact> 0.79598769E+02</totfact>
</mgrwt>
</event>
<event>
 4    1  0.5621415E-005  0.5788329E+03  0.7818608E-02  0.9950321E-01
          2   -1    0    0  501    0  0.00000000000E+00  0.00000000000E+00  0.20568853689E+03  0.20568853690E+03  0.25500000000E-02 0.  1.
         -2   -1    0    0    0  501 -0.00000000000E+00 -0.00000000000E+00 -0.40722672238E+03  0.40722672238E+03  0.25500000000E-02 0. -1.
    5000001    1    1    2    0    0 -0.16919269376E+03  0.34834866009E+02  0.37528392421E+02  0.26098278822E+03  0.19200000000E+03 0.  0.
   -5000001    1    1    2    0    0  0.16919269376E+03 -0.34834866009E+02 -0.23906657791E+03  0.35193247106E+03  0.19200000000E+03 0.  0.
<mgrwt>
<rscale>  0 0.57883286E+03</rscale>
<asrwt>0</asrwt>
<pdfrwt beam="1">  1        2 0.29384077E-01 0.57883286E+03</pdfrwt>
<pdfrwt beam="2">  1       -2 0.58175246E-01 0.57883286E+03</pdfrwt>
<totfact> 0.50778735E+02</totfact>
</mgrwt>
</event>
<event>
 4    1  0.5621415E-005  0.6311895E+03  0.7818608E-02  0.9842730E-01
         -2   -1    0    0    0  501 -0.00000000000E+00  0.00000000000E+00  0.19415514775E+03  0.19415514777E+03  0.25500000000E-02 0. -1.
          2   -1    0    0  501    0  0.00000000000E+00 -0.00000000000E+00 -0.51299196870E+03  0.51299196870E+03  0.25500000000E-02 0.  1.
    5000001    1    1    2    0    0  0.18868541605E+03  0.13317624511E+02  0.24523918597E+02  0.27063807555E+03  0.19200000000E+03 0.  0.
   -5000001    1    1    2    0    0 -0.18868541605E+03 -0.13317624511E+02 -0.34336073954E+03  0.43650904093E+03  0.19200000000E+03 0.  0.
<mgrwt>
<rscale>  0 0.63118945E+03</rscale>
<asrwt>0</asrwt>
<pdfrwt beam="1">  1        2 0.73284566E-01 0.63118945E+03</pdfrwt>
<pdfrwt beam="2">  1       -2 0.27736450E-01 0.63118945E+03</pdfrwt>
<totfact> 0.77567017E+02</totfact>
</mgrwt>
</event>
<event>
 4    1  0.5621415E-005  0.7021413E+03  0.7818608E-02  0.9713577E-01
          2   -1    0    0  501    0  0.00000000000E+00  0.00000000000E+00  0.10897208362E+04  0.10897208362E+04  0.25500000000E-02 0.  1.
         -2   -1    0    0    0  501 -0.00000000000E+00 -0.00000000000E+00 -0.11310290465E+03  0.11310290468E+03  0.25500000000E-02 0. -1.
    5000001    1    1    2    0    0  0.18916473639E+03 -0.16337522664E+03  0.75321014609E+03  0.81649512329E+03  0.19200000000E+03 0.  0.
   -5000001    1    1    2    0    0 -0.18916473639E+03  0.16337522664E+03  0.22340778545E+03  0.38632861760E+03  0.19200000000E+03 0.  0.
<mgrwt>
<rscale>  0 0.70214127E+03</rscale>
<asrwt>0</asrwt>
<pdfrwt beam="1">  1        2 0.15567440E+00 0.70214127E+03</pdfrwt>
<pdfrwt beam="2">  1       -2 0.16157558E-01 0.70214127E+03</pdfrwt>
<totfact> 0.76889458E+02</totfact>
</mgrwt>
</event>
<event>
 4    1  0.5621415E-005  0.4512654E+03  0.7818608E-02  0.1027345E+00
         -2   -1    0    0    0  501 -0.00000000000E+00  0.00000000000E+00  0.14454215354E+03  0.14454215356E+03  0.25500000000E-02 0. -1.
          2   -1    0    0  501    0  0.00000000000E+00 -0.00000000000E+00 -0.35221645210E+03  0.35221645211E+03  0.25500000000E-02 0.  1.
    5000001    1    1    2    0    0 -0.10190615335E+03 -0.48780401796E+02 -0.14324766116E+03  0.26485521350E+03  0.19200000000E+03 0.  0.
   -5000001    1    1    2    0    0  0.10190615335E+03  0.48780401796E+02 -0.64426637400E+02  0.23190339216E+03  0.19200000000E+03 0.  0.
<mgrwt>
<rscale>  0 0.45126544E+03</rscale>
<asrwt>0</asrwt>
<pdfrwt beam="1">  1        2 0.50316636E-01 0.45126544E+03</pdfrwt>
<pdfrwt beam="2">  1       -2 0.20648879E-01 0.45126544E+03</pdfrwt>
<totfact> 0.19953920E+03</totfact>
</mgrwt>
</event>
<event>
 4    1  0.5621415E-005  0.5387713E+03  0.7818608E-02  0.1004127E+00
         -2   -1    0    0    0  501 -0.00000000000E+00  0.00000000000E+00  0.11733253615E+03  0.11733253617E+03  0.25500000000E-02 0. -1.
          2   -1    0    0  501    0  0.00000000000E+00 -0.00000000000E+00 -0.61848679424E+03  0.61848679424E+03  0.25500000000E-02 0.  1.
    5000001    1    1    2    0    0  0.14862533091E+03 -0.11591907414E+03 -0.23236088250E+03  0.35550288389E+03  0.19200000000E+03 0.  0.
   -5000001    1    1    2    0    0 -0.14862533091E+03  0.11591907414E+03 -0.26879337559E+03  0.38031644653E+03  0.19200000000E+03 0.  0.
<mgrwt>
<rscale>  0 0.53877128E+03</rscale>
<asrwt>0</asrwt>
<pdfrwt beam="1">  1        2 0.88355255E-01 0.53877128E+03</pdfrwt>
<pdfrwt beam="2">  1       -2 0.16761791E-01 0.53877128E+03</pdfrwt>
<totfact> 0.15157393E+03</totfact>
</mgrwt>
</event>
<event>
 4    1  0.5621415E-005  0.4424958E+03  0.7818608E-02  0.1029984E+00
         -2   -1    0    0    0  501 -0.00000000000E+00  0.00000000000E+00  0.35727252227E+03  0.35727252228E+03  0.25500000000E-02 0. -1.
          2   -1    0    0  501    0  0.00000000000E+00 -0.00000000000E+00 -0.13701202584E+03  0.13701202586E+03  0.25500000000E-02 0.  1.
    5000001    1    1    2    0    0 -0.39416989059E+01  0.10986747132E+03  0.10959010943E+03  0.24690158025E+03  0.19200000000E+03 0.  0.
   -5000001    1    1    2    0    0  0.39416989059E+01 -0.10986747132E+03  0.11067038700E+03  0.24738296789E+03  0.19200000000E+03 0.  0.
<mgrwt>
<rscale>  0 0.44249579E+03</rscale>
<asrwt>0</asrwt>
<pdfrwt beam="1">  1        2 0.19573147E-01 0.44249579E+03</pdfrwt>
<pdfrwt beam="2">  1       -2 0.51038932E-01 0.44249579E+03</pdfrwt>
<totfact> 0.10579726E+03</totfact>
</mgrwt>
</event>
<event>
 4    1  0.5621415E-005  0.6030163E+03  0.7818608E-02  0.9899168E-01
         -2   -1    0    0    0  501 -0.00000000000E+00  0.00000000000E+00  0.10488296495E+03  0.10488296498E+03  0.25500000000E-02 0. -1.
          2   -1    0    0  501    0  0.00000000000E+00 -0.00000000000E+00 -0.86674872536E+03  0.86674872536E+03  0.25500000000E-02 0.  1.
    5000001    1    1    2    0    0  0.12141066907E+03 -0.98001547826E+02 -0.10325674927E+03  0.26808731826E+03  0.19200000000E+03 0.  0.
   -5000001    1    1    2    0    0 -0.12141066907E+03  0.98001547826E+02 -0.65860901113E+03  0.70354437208E+03  0.19200000000E+03 0.  0.
<mgrwt>
<rscale>  0 0.60301634E+03</rscale>
<asrwt>0</asrwt>
<pdfrwt beam="1">  1        2 0.12382124E+00 0.60301634E+03</pdfrwt>
<pdfrwt beam="2">  1       -2 0.14983281E-01 0.60301634E+03</pdfrwt>
<totfact> 0.12043789E+03</totfact>
</mgrwt>
</event>
<event>
 4    1  0.5621415E-005  0.5237177E+03  0.7818608E-02  0.1007767E+00
         -2   -1    0    0    0  501 -0.00000000000E+00  0.00000000000E+00  0.13913489665E+03  0.13913489667E+03  0.25500000000E-02 0. -1.
          2   -1    0    0  501    0  0.00000000000E+00 -0.00000000000E+00 -0.49283154570E+03  0.49283154570E+03  0.25500000000E-02 0.  1.
    5000001    1    1    2    0    0 -0.69426302286E+02 -0.16169108730E+03 -0.20971928933E+03  0.33438032161E+03  0.19200000000E+03 0.  0.
   -5000001    1    1    2    0    0  0.69426302286E+02  0.16169108730E+03 -0.14397735972E+03  0.29758612077E+03  0.19200000000E+03 0.  0.
<mgrwt>
<rscale>  0 0.52371773E+03</rscale>
<asrwt>0</asrwt>
<pdfrwt beam="1">  1        2 0.70404506E-01 0.52371773E+03</pdfrwt>
<pdfrwt beam="2">  1       -2 0.19876414E-01 0.52371773E+03</pdfrwt>
<totfact> 0.14699063E+03</totfact>
</mgrwt>
</event>
<event>
 4    1  0.5621415E-005  0.1113448E+04  0.7818608E-02  0.9192183E-01
          2   -1    0    0  501    0  0.00000000000E+00  0.00000000000E+00  0.18432221772E+04  0.18432221772E+04  0.25500000000E-02 0.  1.
         -2   -1    0    0    0  501 -0.00000000000E+00 -0.00000000000E+00 -0.16815198726E+03  0.16815198728E+03  0.25500000000E-02 0. -1.
    5000001    1    1    2    0    0  0.15822826984E+03 -0.43029651055E+03  0.12905377020E+04  0.13829471547E+04  0.19200000000E+03 0.  0.
   -5000001    1    1    2    0    0 -0.15822826984E+03  0.43029651055E+03  0.38453248797E+03  0.62842700982E+03  0.19200000000E+03 0.  0.
<mgrwt>
<rscale>  0 0.11134477E+04</rscale>
<asrwt>0</asrwt>
<pdfrwt beam="1">  1        2 0.26331743E+00 0.11134477E+04</pdfrwt>
<pdfrwt beam="2">  1       -2 0.24021714E-01 0.11134477E+04</pdfrwt>
<totfact> 0.14782641E+02</totfact>
</mgrwt>
</event>
<event>
 4    1  0.5621415E-005  0.4296011E+03  0.7818608E-02  0.1033986E+00
         -2   -1    0    0    0  501 -0.00000000000E+00  0.00000000000E+00  0.29795698210E+03  0.29795698211E+03  0.25500000000E-02 0. -1.
          2   -1    0    0  501    0  0.00000000000E+00 -0.00000000000E+00 -0.15485216873E+03  0.15485216875E+03  0.25500000000E-02 0.  1.
    5000001    1    1    2    0    0 -0.54421988885E+02  0.75975807595E+02  0.47031747653E+02  0.21865512000E+03  0.19200000000E+03 0.  0.
   -5000001    1    1    2    0    0  0.54421988885E+02 -0.75975807595E+02  0.96073065717E+02  0.23415403086E+03  0.19200000000E+03 0.  0.
<mgrwt>
<rscale>  0 0.42960114E+03</rscale>
<asrwt>0</asrwt>
<pdfrwt beam="1">  1        2 0.22121739E-01 0.42960114E+03</pdfrwt>
<pdfrwt beam="2">  1       -2 0.42565282E-01 0.42960114E+03</pdfrwt>
<totfact> 0.13169390E+03</totfact>
</mgrwt>
</event>
<event>
 4    1  0.5621415E-005  0.5931412E+03  0.7818608E-02  0.9919739E-01
          2   -1    0    0  501    0  0.00000000000E+00  0.00000000000E+00  0.17465188332E+03  0.17465188334E+03  0.25500000000E-02 0.  1.
         -2   -1    0    0    0  501 -0.00000000000E+00 -0.00000000000E+00 -0.50359680544E+03  0.50359680545E+03  0.25500000000E-02 0. -1.
    5000001    1    1    2    0    0 -0.21267572685E+03 -0.98329961948E+01 -0.77669311341E+02  0.29702554525E+03  0.19200000000E+03 0.  0.
   -5000001    1    1    2    0    0  0.21267572685E+03  0.98329961948E+01 -0.25127561078E+03  0.38122314355E+03  0.19200000000E+03 0.  0.
<mgrwt>
<rscale>  0 0.59314123E+03</rscale>
<asrwt>0</asrwt>
<pdfrwt beam="1">  1        2 0.24950269E-01 0.59314123E+03</pdfrwt>
<pdfrwt beam="2">  1       -2 0.71942400E-01 0.59314123E+03</pdfrwt>
<totfact> 0.38823794E+02</totfact>
</mgrwt>
</event>
<event>
 4    1  0.5621415E-005  0.4491419E+03  0.7818608E-02  0.1027978E+00
         -2   -1    0    0    0  501 -0.00000000000E+00  0.00000000000E+00  0.37816873591E+03  0.37816873592E+03  0.25500000000E-02 0. -1.
          2   -1    0    0  501    0  0.00000000000E+00 -0.00000000000E+00 -0.13335875169E+03  0.13335875172E+03  0.25500000000E-02 0.  1.
    5000001    1    1    2    0    0 -0.10727626059E+03  0.11871763533E+02  0.72514229010E+02  0.23188671429E+03  0.19200000000E+03 0.  0.
   -5000001    1    1    2    0    0  0.10727626059E+03 -0.11871763533E+02  0.17229575520E+03  0.27964077335E+03  0.19200000000E+03 0.  0.
<mgrwt>
<rscale>  0 0.44914190E+03</rscale>
<asrwt>0</asrwt>
<pdfrwt beam="1">  1        2 0.19051250E-01 0.44914190E+03</pdfrwt>
<pdfrwt beam="2">  1       -2 0.54024105E-01 0.44914190E+03</pdfrwt>
<totfact> 0.97265854E+02</totfact>
</mgrwt>
</event>
<event>
 4    1  0.5621415E-005  0.6624385E+03  0.7818608E-02  0.9783715E-01
          2   -1    0    0  501    0  0.00000000000E+00  0.00000000000E+00  0.35887533096E+04  0.35887533096E+04  0.25500000000E-02 0.  1.
         -2   -1    0    0    0  501 -0.00000000000E+00 -0.00000000000E+00 -0.30569447876E+02  0.30569447983E+02  0.25500000000E-02 0. -1.
    5000001    1    1    2    0    0  0.11145069784E+03  0.23251295518E+03  0.22147693317E+04  0.22379791610E+04  0.19200000000E+03 0.  0.
   -5000001    1    1    2    0    0 -0.11145069784E+03 -0.23251295518E+03  0.13434145300E+04  0.13813435966E+04  0.19200000000E+03 0.  0.
<mgrwt>
<rscale>  0 0.66243855E+03</rscale>
<asrwt>0</asrwt>
<pdfrwt beam="1">  1        2 0.51267911E+00 0.66243855E+03</pdfrwt>
<pdfrwt beam="2">  1       -2 0.43670634E-02 0.66243855E+03</pdfrwt>
<totfact> 0.29156521E+02</totfact>
</mgrwt>
</event>
<event>
 4    1  0.5621415E-005  0.5193704E+03  0.7818608E-02  0.1008843E+00
          2   -1    0    0  501    0  0.00000000000E+00  0.00000000000E+00  0.13563790189E+04  0.13563790189E+04  0.25500000000E-02 0.  1.
         -2   -1    0    0    0  501 -0.00000000000E+00 -0.00000000000E+00 -0.49717954869E+02  0.49717954935E+02  0.25500000000E-02 0. -1.
    5000001    1    1    2    0    0  0.43024699138E+02  0.71099263723E+02  0.23684298144E+03  0.31601396788E+03  0.19200000000E+03 0.  0.
   -5000001    1    1    2    0    0 -0.43024699138E+02 -0.71099263723E+02  0.10698180825E+04  0.10900830059E+04  0.19200000000E+03 0.  0.
<mgrwt>
<rscale>  0 0.51937035E+03</rscale>
<asrwt>0</asrwt>
<pdfrwt beam="1">  1        2 0.19376843E+00 0.51937035E+03</pdfrwt>
<pdfrwt beam="2">  1       -2 0.71025649E-02 0.51937035E+03</pdfrwt>
<totfact> 0.21007330E+03</totfact>
</mgrwt>
</event>
<event>
 4    1  0.5621415E-005  0.6697306E+03  0.7818608E-02  0.9770445E-01
         -2   -1    0    0    0  501 -0.00000000000E+00  0.00000000000E+00  0.25672785947E+03  0.25672785948E+03  0.25500000000E-02 0. -1.
          2   -1    0    0  501    0  0.00000000000E+00 -0.00000000000E+00 -0.43678456164E+03  0.43678456165E+03  0.25500000000E-02 0.  1.
    5000001    1    1    2    0    0  0.17234709926E+03  0.17604302304E+03 -0.21504698043E+03  0.37921481033E+03  0.19200000000E+03 0.  0.
   -5000001    1    1    2    0    0 -0.17234709926E+03 -0.17604302304E+03  0.34990278256E+02  0.31429761080E+03  0.19200000000E+03 0.  0.
<mgrwt>
<rscale>  0 0.66973059E+03</rscale>
<asrwt>0</asrwt>
<pdfrwt beam="1">  1        2 0.62397794E-01 0.66973059E+03</pdfrwt>
<pdfrwt beam="2">  1       -2 0.36675409E-01 0.66973059E+03</pdfrwt>
<totfact> 0.55167420E+02</totfact>
</mgrwt>
</event>
<event>
 4    1  0.5621415E-005  0.5595430E+03  0.7818608E-02  0.9993089E-01
         -2   -1    0    0    0  501 -0.00000000000E+00  0.00000000000E+00  0.11004412737E+03  0.11004412740E+03  0.25500000000E-02 0. -1.
          2   -1    0    0  501    0  0.00000000000E+00 -0.00000000000E+00 -0.71127923303E+03  0.71127923303E+03  0.25500000000E-02 0.  1.
    5000001    1    1    2    0    0  0.71061986097E+01 -0.22696786421E+02 -0.59726227635E+03  0.62781515506E+03  0.19200000000E+03 0.  0.
   -5000001    1    1    2    0    0 -0.71061986097E+01  0.22696786421E+02 -0.39728293145E+01  0.19350820537E+03  0.19200000000E+03 0.  0.
<mgrwt>
<rscale>  0 0.55954304E+03</rscale>
<asrwt>0</asrwt>
<pdfrwt beam="1">  1        2 0.10161132E+00 0.55954304E+03</pdfrwt>
<pdfrwt beam="2">  1       -2 0.15720590E-01 0.55954304E+03</pdfrwt>
<totfact> 0.14281804E+03</totfact>
</mgrwt>
</event>
<event>
 4    1  0.5621415E-005  0.6989434E+03  0.7818608E-02  0.9719041E-01
         -2   -1    0    0    0  501 -0.00000000000E+00  0.00000000000E+00  0.94376303621E+02  0.94376303655E+02  0.25500000000E-02 0. -1.
          2   -1    0    0  501    0  0.00000000000E+00 -0.00000000000E+00 -0.12940797251E+04  0.12940797251E+04  0.25500000000E-02 0.  1.
    5000001    1    1    2    0    0  0.10942336064E+02 -0.28894558252E+03 -0.51898411251E+03  0.62435390078E+03  0.19200000000E+03 0.  0.
   -5000001    1    1    2    0    0 -0.10942336064E+02  0.28894558252E+03 -0.68071930892E+03  0.76410212793E+03  0.19200000000E+03 0.  0.
<mgrwt>
<rscale>  0 0.69894338E+03</rscale>
<asrwt>0</asrwt>
<pdfrwt beam="1">  1        2 0.18486852E+00 0.69894338E+03</pdfrwt>
<pdfrwt beam="2">  1       -2 0.13482330E-01 0.69894338E+03</pdfrwt>
<totfact> 0.79947013E+02</totfact>
</mgrwt>
</event>
<event>
 4    1  0.5621415E-005  0.4428752E+03  0.7818608E-02  0.1029868E+00
         -2   -1    0    0    0  501 -0.00000000000E+00  0.00000000000E+00  0.56863624987E+02  0.56863625044E+02  0.25500000000E-02 0. -1.
          2   -1    0    0  501    0  0.00000000000E+00 -0.00000000000E+00 -0.86231965848E+03  0.86231965848E+03  0.25500000000E-02 0.  1.
    5000001    1    1    2    0    0 -0.41474600984E+02 -0.95013902199E+02 -0.48101658834E+03  0.52819384926E+03  0.19200000000E+03 0.  0.
   -5000001    1    1    2    0    0  0.41474600984E+02  0.95013902199E+02 -0.32443944515E+03  0.39098943426E+03  0.19200000000E+03 0.  0.
<mgrwt>
<rscale>  0 0.44287525E+03</rscale>
<asrwt>0</asrwt>
<pdfrwt beam="1">  1        2 0.12318851E+00 0.44287525E+03</pdfrwt>
<pdfrwt beam="2">  1       -2 0.81233755E-02 0.44287525E+03</pdfrwt>
<totfact> 0.32906048E+03</totfact>
</mgrwt>
</event>
<event>
 4    1  0.5621415E-005  0.6400683E+03  0.7818608E-02  0.9825596E-01
          2   -1    0    0  501    0  0.00000000000E+00  0.00000000000E+00  0.80315202257E+02  0.80315202297E+02  0.25500000000E-02 0.  1.
         -2   -1    0    0    0  501 -0.00000000000E+00 -0.00000000000E+00 -0.12752488171E+04  0.12752488171E+04  0.25500000000E-02 0. -1.
    5000001    1    1    2    0    0  0.24947920686E+03  0.32522728088E+02 -0.49677983151E+03  0.58902614839E+03  0.19200000000E+03 0.  0.
   -5000001    1    1    2    0    0 -0.24947920686E+03 -0.32522728088E+02 -0.69815378330E+03  0.76653787097E+03  0.19200000000E+03 0.  0.
<mgrwt>
<rscale>  0 0.64006833E+03</rscale>
<asrwt>0</asrwt>
<pdfrwt beam="1">  1        2 0.11473601E-01 0.64006833E+03</pdfrwt>
<pdfrwt beam="2">  1       -2 0.18217839E+00 0.64006833E+03</pdfrwt>
<totfact> 0.99817096E+01</totfact>
</mgrwt>
</event>
<event>
 4    1  0.5621415E-005  0.7713739E+03  0.7818608E-02  0.9602402E-01
          2   -1    0    0  501    0  0.00000000000E+00  0.00000000000E+00  0.64046906212E+03  0.64046906212E+03  0.25500000000E-02 0.  1.
         -2   -1    0    0    0  501 -0.00000000000E+00 -0.00000000000E+00 -0.23225857472E+03  0.23225857474E+03  0.25500000000E-02 0. -1.
    5000001    1    1    2    0    0  0.15682469265E+03 -0.24151984530E+03  0.11553421918E+02  0.34629943901E+03  0.19200000000E+03 0.  0.
   -5000001    1    1    2    0    0 -0.15682469265E+03  0.24151984530E+03  0.39665706548E+03  0.52642819785E+03  0.19200000000E+03 0.  0.
<mgrwt>
<rscale>  0 0.77137392E+03</rscale>
<asrwt>0</asrwt>
<pdfrwt beam="1">  1        2 0.91495580E-01 0.77137392E+03</pdfrwt>
<pdfrwt beam="2">  1       -2 0.33179797E-01 0.77137392E+03</pdfrwt>
<totfact> 0.42730899E+02</totfact>
</mgrwt>
</event>
<event>
 4    1  0.5621415E-005  0.5618784E+03  0.7818608E-02  0.9987813E-01
          2   -1    0    0  501    0  0.00000000000E+00  0.00000000000E+00  0.15785428459E+03  0.15785428461E+03  0.25500000000E-02 0.  1.
         -2   -1    0    0    0  501 -0.00000000000E+00 -0.00000000000E+00 -0.49999806405E+03  0.49999806406E+03  0.25500000000E-02 0. -1.
    5000001    1    1    2    0    0 -0.50696205170E+02  0.19682287707E+03 -0.13893352041E+03  0.31221126381E+03  0.19200000000E+03 0.  0.
   -5000001    1    1    2    0    0  0.50696205170E+02 -0.19682287707E+03 -0.20321025905E+03  0.34564108486E+03  0.19200000000E+03 0.  0.
<mgrwt>
<rscale>  0 0.56187841E+03</rscale>
<asrwt>0</asrwt>
<pdfrwt beam="1">  1        2 0.22550612E-01 0.56187841E+03</pdfrwt>
<pdfrwt beam="2">  1       -2 0.71428294E-01 0.56187841E+03</pdfrwt>
<totfact> 0.44316354E+02</totfact>
</mgrwt>
</event>
<event>
 4    1  0.5621415E-005  0.6765544E+03  0.7818608E-02  0.9758189E-01
          2   -1    0    0  501    0  0.00000000000E+00  0.00000000000E+00  0.20556452834E+04  0.20556452834E+04  0.25500000000E-02 0.  1.
         -2   -1    0    0    0  501 -0.00000000000E+00 -0.00000000000E+00 -0.55666934058E+02  0.55666934116E+02  0.25500000000E-02 0. -1.
    5000001    1    1    2    0    0 -0.18340496041E+03 -0.16797738989E+03  0.13911801089E+04  0.14262187344E+04  0.19200000000E+03 0.  0.
   -5000001    1    1    2    0    0  0.18340496041E+03  0.16797738989E+03  0.60879824047E+03  0.68509348312E+03  0.19200000000E+03 0.  0.
<mgrwt>
<rscale>  0 0.67655442E+03</rscale>
<asrwt>0</asrwt>
<pdfrwt beam="1">  1        2 0.29366355E+00 0.67655442E+03</pdfrwt>
<pdfrwt beam="2">  1       -2 0.79524209E-02 0.67655442E+03</pdfrwt>
<totfact> 0.76515114E+02</totfact>
</mgrwt>
</event>
<event>
 4    1  0.5621415E-005  0.4328568E+03  0.7818608E-02  0.1032961E+00
         -2   -1    0    0    0  501 -0.00000000000E+00  0.00000000000E+00  0.24717652534E+03  0.24717652535E+03  0.25500000000E-02 0. -1.
          2   -1    0    0  501    0  0.00000000000E+00 -0.00000000000E+00 -0.18950522983E+03  0.18950522985E+03  0.25500000000E-02 0.  1.
    5000001    1    1    2    0    0 -0.18066001390E+02 -0.96254237695E+02  0.90155234457E+01  0.21572329115E+03  0.19200000000E+03 0.  0.
   -5000001    1    1    2    0    0  0.18066001390E+02  0.96254237695E+02  0.48655772065E+02  0.22095846405E+03  0.19200000000E+03 0.  0.
<mgrwt>
<rscale>  0 0.43285676E+03</rscale>
<asrwt>0</asrwt>
<pdfrwt beam="1">  1        2 0.27072176E-01 0.43285676E+03</pdfrwt>
<pdfrwt beam="2">  1       -2 0.35310932E-01 0.43285676E+03</pdfrwt>
<totfact> 0.14982990E+03</totfact>
</mgrwt>
</event>
<event>
 4    1  0.5621415E-005  0.7180349E+03  0.7818608E-02  0.9686878E-01
          2   -1    0    0  501    0  0.00000000000E+00  0.00000000000E+00  0.29112212726E+04  0.29112212726E+04  0.25500000000E-02 0.  1.
         -2   -1    0    0    0  501 -0.00000000000E+00 -0.00000000000E+00 -0.44274728787E+02  0.44274728860E+02  0.25500000000E-02 0. -1.
    5000001    1    1    2    0    0  0.51882669069E+02  0.28832247491E+03  0.17577801630E+04  0.17923383504E+04  0.19200000000E+03 0.  0.
   -5000001    1    1    2    0    0 -0.51882669069E+02 -0.28832247491E+03  0.11091663808E+04  0.11631576510E+04  0.19200000000E+03 0.  0.
<mgrwt>
<rscale>  0 0.71803491E+03</rscale>
<asrwt>0</asrwt>
<pdfrwt beam="1">  1        2 0.41588893E+00 0.71803491E+03</pdfrwt>
<pdfrwt beam="2">  1       -2 0.63249585E-02 0.71803491E+03</pdfrwt>
<totfact> 0.39584127E+02</totfact>
</mgrwt>
</event>
<event>
 4    1  0.5621415E-005  0.6434400E+03  0.7818608E-02  0.9819167E-01
          2   -1    0    0  501    0  0.00000000000E+00  0.00000000000E+00  0.80267660075E+03  0.80267660076E+03  0.25500000000E-02 0.  1.
         -2   -1    0    0    0  501 -0.00000000000E+00 -0.00000000000E+00 -0.12894826296E+03  0.12894826299E+03  0.25500000000E-02 0. -1.
    5000001    1    1    2    0    0 -0.36736827891E+02  0.23036797880E+03  0.17680446368E+03  0.35006116402E+03  0.19200000000E+03 0.  0.
   -5000001    1    1    2    0    0  0.36736827891E+02 -0.23036797880E+03  0.49692387411E+03  0.58156369972E+03  0.19200000000E+03 0.  0.
<mgrwt>
<rscale>  0 0.64343998E+03</rscale>
<asrwt>0</asrwt>
<pdfrwt beam="1">  1        2 0.11466809E+00 0.64343998E+03</pdfrwt>
<pdfrwt beam="2">  1       -2 0.18421180E-01 0.64343998E+03</pdfrwt>
<totfact> 0.93516144E+02</totfact>
</mgrwt>
</event>
<event>
 4    1  0.5621415E-005  0.6547438E+03  0.7818608E-02  0.9797918E-01
         -2   -1    0    0    0  501 -0.00000000000E+00  0.00000000000E+00  0.47804170968E+02  0.47804171036E+02  0.25500000000E-02 0. -1.
          2   -1    0    0  501    0  0.00000000000E+00 -0.00000000000E+00 -0.22419037324E+04  0.22419037324E+04  0.25500000000E-02 0.  1.
    5000001    1    1    2    0    0 -0.23273272227E+03  0.12579276364E+03 -0.10344906816E+04  0.10849070511E+04  0.19200000000E+03 0.  0.
   -5000001    1    1    2    0    0  0.23273272227E+03 -0.12579276364E+03 -0.11596088799E+04  0.12048008523E+04  0.19200000000E+03 0.  0.
<mgrwt>
<rscale>  0 0.65474376E+03</rscale>
<asrwt>0</asrwt>
<pdfrwt beam="1">  1        2 0.32027190E+00 0.65474376E+03</pdfrwt>
<pdfrwt beam="2">  1       -2 0.68291687E-02 0.65474376E+03</pdfrwt>
<totfact> 0.78594862E+02</totfact>
</mgrwt>
</event>
<event>
 4    1  0.5621415E-005  0.5462260E+03  0.7818608E-02  0.1002371E+00
          2   -1    0    0  501    0  0.00000000000E+00  0.00000000000E+00  0.58300263344E+03  0.58300263345E+03  0.25500000000E-02 0.  1.
         -2   -1    0    0    0  501 -0.00000000000E+00 -0.00000000000E+00 -0.12794232005E+03  0.12794232008E+03  0.25500000000E-02 0. -1.
    5000001    1    1    2    0    0  0.82585659851E+02  0.17579900837E+03  0.22621116100E+03  0.35462821647E+03  0.19200000000E+03 0.  0.
   -5000001    1    1    2    0    0 -0.82585659851E+02 -0.17579900837E+03  0.22884915239E+03  0.35631673706E+03  0.19200000000E+03 0.  0.
<mgrwt>
<rscale>  0 0.54622600E+03</rscale>
<asrwt>0</asrwt>
<pdfrwt beam="1">  1        2 0.83286090E-01 0.54622600E+03</pdfrwt>
<pdfrwt beam="2">  1       -2 0.18277474E-01 0.54622600E+03</pdfrwt>
<totfact> 0.14010720E+03</totfact>
</mgrwt>
</event>
<event>
 4    1  0.5621415E-005  0.5923469E+03  0.7818608E-02  0.9921412E-01
         -2   -1    0    0    0  501 -0.00000000000E+00  0.00000000000E+00  0.40227247931E+02  0.40227248012E+02  0.25500000000E-02 0. -1.
          2   -1    0    0  501    0  0.00000000000E+00 -0.00000000000E+00 -0.21805793732E+04  0.21805793732E+04  0.25500000000E-02 0.  1.
    5000001    1    1    2    0    0 -0.13672433443E+03 -0.16108987418E+03 -0.77469955829E+03  0.82563121114E+03  0.19200000000E+03 0.  0.
   -5000001    1    1    2    0    0  0.13672433443E+03  0.16108987418E+03 -0.13656525669E+04  0.13951754100E+04  0.19200000000E+03 0.  0.
<mgrwt>
<rscale>  0 0.59234688E+03</rscale>
<asrwt>0</asrwt>
<pdfrwt beam="1">  1        2 0.31151126E+00 0.59234688E+03</pdfrwt>
<pdfrwt beam="2">  1       -2 0.57467511E-02 0.59234688E+03</pdfrwt>
<totfact> 0.11112680E+03</totfact>
</mgrwt>
</event>
<event>
 4    1  0.5621415E-005  0.6042350E+03  0.7818608E-02  0.9896659E-01
          2   -1    0    0  501    0  0.00000000000E+00  0.00000000000E+00  0.14913136499E+04  0.14913136499E+04  0.25500000000E-02 0.  1.
         -2   -1    0    0    0  501 -0.00000000000E+00 -0.00000000000E+00 -0.61204416917E+02  0.61204416970E+02  0.25500000000E-02 0. -1.
    5000001    1    1    2    0    0  0.91723291104E+02 -0.15884416384E+03  0.34479112437E+03  0.43518909679E+03  0.19200000000E+03 0.  0.
   -5000001    1    1    2    0    0 -0.91723291104E+02  0.15884416384E+03  0.10853181086E+04  0.11173289701E+04  0.19200000000E+03 0.  0.
<mgrwt>
<rscale>  0 0.60423500E+03</rscale>
<asrwt>0</asrwt>
<pdfrwt beam="1">  1        2 0.21304482E+00 0.60423500E+03</pdfrwt>
<pdfrwt beam="2">  1       -2 0.87434878E-02 0.60423500E+03</pdfrwt>
<totfact> 0.12783545E+03</totfact>
</mgrwt>
</event>
<event>
 4    1  0.5621415E-005  0.3971658E+03  0.7818608E-02  0.1044766E+00
         -2   -1    0    0    0  501 -0.00000000000E+00  0.00000000000E+00  0.64739778457E+03  0.64739778458E+03  0.25500000000E-02 0. -1.
          2   -1    0    0  501    0  0.00000000000E+00 -0.00000000000E+00 -0.60913343933E+02  0.60913343987E+02  0.25500000000E-02 0.  1.
    5000001    1    1    2    0    0  0.95092760762E+01  0.30958261844E+02  0.36282563515E+03  0.41177090940E+03  0.19200000000E+03 0.  0.
   -5000001    1    1    2    0    0 -0.95092760762E+01 -0.30958261844E+02  0.22365880549E+03  0.29654021916E+03  0.19200000000E+03 0.  0.
<mgrwt>
<rscale>  0 0.39716578E+03</rscale>
<asrwt>0</asrwt>
<pdfrwt beam="1">  1        2 0.87019069E-02 0.39716578E+03</pdfrwt>
<pdfrwt beam="2">  1       -2 0.92485391E-01 0.39716578E+03</pdfrwt>
<totfact> 0.79046161E+02</totfact>
</mgrwt>
</event>
<event>
 4    1  0.5621415E-005  0.7214624E+03  0.7818608E-02  0.9681217E-01
         -2   -1    0    0    0  501 -0.00000000000E+00  0.00000000000E+00  0.77793704577E+02  0.77793704619E+02  0.25500000000E-02 0. -1.
          2   -1    0    0  501    0  0.00000000000E+00 -0.00000000000E+00 -0.16727191073E+04  0.16727191073E+04  0.25500000000E-02 0.  1.
    5000001    1    1    2    0    0 -0.25297623078E+03 -0.33821976056E+02 -0.12043513420E+04  0.12459803587E+04  0.19200000000E+03 0.  0.
   -5000001    1    1    2    0    0  0.25297623078E+03  0.33821976056E+02 -0.39057406075E+03  0.50453245321E+03  0.19200000000E+03 0.  0.
<mgrwt>
<rscale>  0 0.72146245E+03</rscale>
<asrwt>0</asrwt>
<pdfrwt beam="1">  1        2 0.23895985E+00 0.72146245E+03</pdfrwt>
<pdfrwt beam="2">  1       -2 0.11113387E-01 0.72146245E+03</pdfrwt>
<totfact> 0.69433648E+02</totfact>
</mgrwt>
</event>
<event>
 4    1  0.5621415E-005  0.6489968E+03  0.7818608E-02  0.9808664E-01
          2   -1    0    0  501    0  0.00000000000E+00  0.00000000000E+00  0.63215310412E+03  0.63215310413E+03  0.25500000000E-02 0. -1.
         -2   -1    0    0    0  501 -0.00000000000E+00 -0.00000000000E+00 -0.16657230192E+03  0.16657230194E+03  0.25500000000E-02 0.  1.
    5000001    1    1    2    0    0 -0.16385270953E+03 -0.10491613147E+03  0.44800630952E+03  0.52481306999E+03  0.19200000000E+03 0.  0.
   -5000001    1    1    2    0    0  0.16385270953E+03  0.10491613147E+03  0.17574492690E+02  0.27391233608E+03  0.19200000000E+03 0.  0.
<mgrwt>
<rscale>  0 0.64899676E+03</rscale>
<asrwt>0</asrwt>
<pdfrwt beam="1">  1        2 0.90307587E-01 0.64899676E+03</pdfrwt>
<pdfrwt beam="2">  1       -2 0.23796043E-01 0.64899676E+03</pdfrwt>
<totfact> 0.80125977E+02</totfact>
</mgrwt>
</event>
<event>
 4    1  0.5621415E-005  0.1072073E+04  0.7818608E-02  0.9232847E-01
         -2   -1    0    0    0  501 -0.00000000000E+00  0.00000000000E+00  0.28020227906E+03  0.28020227907E+03  0.25500000000E-02 0. -1.
          2   -1    0    0  501    0  0.00000000000E+00 -0.00000000000E+00 -0.10254564526E+04  0.10254564526E+04  0.25500000000E-02 0.  1.
    5000001    1    1    2    0    0 -0.33908503180E+03  0.30784637581E+03 -0.61839552449E+03  0.79311101026E+03  0.19200000000E+03 0.  0.
   -5000001    1    1    2    0    0  0.33908503180E+03 -0.30784637581E+03 -0.12685864905E+03  0.51254772142E+03  0.19200000000E+03 0.  0.
<mgrwt>
<rscale>  0 0.10720732E+04</rscale>
<asrwt>0</asrwt>
<pdfrwt beam="1">  1        2 0.14649378E+00 0.10720732E+04</pdfrwt>
<pdfrwt beam="2">  1       -2 0.40028898E-01 0.10720732E+04</pdfrwt>
<totfact> 0.15889520E+02</totfact>
</mgrwt>
</event>
<event>
 4    1  0.5621415E-005  0.6453718E+03  0.7818608E-02  0.9815503E-01
          2   -1    0    0  501    0  0.00000000000E+00  0.00000000000E+00  0.83403249643E+03  0.83403249644E+03  0.25500000000E-02 0.  1.
         -2   -1    0    0    0  501 -0.00000000000E+00 -0.00000000000E+00 -0.12484666927E+03  0.12484666930E+03  0.25500000000E-02 0. -1.
    5000001    1    1    2    0    0 -0.59654327270E+02  0.21122213303E+03  0.14931478634E+03  0.32761613768E+03  0.19200000000E+03 0.  0.
   -5000001    1    1    2    0    0  0.59654327270E+02 -0.21122213303E+03  0.55987104082E+03  0.63126302806E+03  0.19200000000E+03 0.  0.
<mgrwt>
<rscale>  0 0.64537177E+03</rscale>
<asrwt>0</asrwt>
<pdfrwt beam="1">  1        2 0.11914750E+00 0.64537177E+03</pdfrwt>
<pdfrwt beam="2">  1       -2 0.17835238E-01 0.64537177E+03</pdfrwt>
<totfact> 0.94092169E+02</totfact>
</mgrwt>
</event>
<event>
 4    1  0.5621415E-005  0.5348450E+03  0.7818608E-02  0.1005064E+00
          2   -1    0    0  501    0  0.00000000000E+00  0.00000000000E+00  0.28019813514E+03  0.28019813515E+03  0.25500000000E-02 0.  1.
         -2   -1    0    0    0  501 -0.00000000000E+00 -0.00000000000E+00 -0.25522938722E+03  0.25522938723E+03  0.25500000000E-02 0. -1.
    5000001    1    1    2    0    0 -0.38457167165E+02 -0.17821775952E+03 -0.25110151964E+02  0.26596060469E+03  0.19200000000E+03 0.  0.
   -5000001    1    1    2    0    0  0.38457167165E+02  0.17821775952E+03  0.50078899880E+02  0.26946691769E+03  0.19200000000E+03 0.  0.
<mgrwt>
<rscale>  0 0.53484502E+03</rscale>
<asrwt>0</asrwt>
<pdfrwt beam="1">  1        2 0.40028305E-01 0.53484502E+03</pdfrwt>
<pdfrwt beam="2">  1       -2 0.36461341E-01 0.53484502E+03</pdfrwt>
<totfact> 0.91381386E+02</totfact>
</mgrwt>
</event>
<event>
 4    1  0.5621415E-005  0.1034478E+04  0.7818608E-02  0.9271518E-01
          2   -1    0    0  501    0  0.00000000000E+00  0.00000000000E+00  0.83168848123E+03  0.83168848123E+03  0.25500000000E-02 0.  1.
         -2   -1    0    0    0  501 -0.00000000000E+00 -0.00000000000E+00 -0.32167839608E+03  0.32167839609E+03  0.25500000000E-02 0. -1.
    5000001    1    1    2    0    0  0.42278155160E+03 -0.17556372334E+03  0.93032080938E+02  0.50506022355E+03  0.19200000000E+03 0.  0.
   -5000001    1    1    2    0    0 -0.42278155160E+03  0.17556372334E+03  0.41697800421E+03  0.64830665377E+03  0.19200000000E+03 0.  0.
<mgrwt>
<rscale>  0 0.10344781E+04</rscale>
<asrwt>0</asrwt>
<pdfrwt beam="1">  1        2 0.11881264E+00 0.10344781E+04</pdfrwt>
<pdfrwt beam="2">  1       -2 0.45954057E-01 0.10344781E+04</pdfrwt>
<totfact> 0.16157306E+02</totfact>
</mgrwt>
</event>
<event>
 4    1  0.5621415E-005  0.4177325E+03  0.7818608E-02  0.1037807E+00
          2   -1    0    0  501    0  0.00000000000E+00  0.00000000000E+00  0.18761897478E+04  0.18761897478E+04  0.25500000000E-02 0.  1.
         -2   -1    0    0    0  501 -0.00000000000E+00 -0.00000000000E+00 -0.23251976768E+02  0.23251976908E+02  0.25500000000E-02 0. -1.
    5000001    1    1    2    0    0  0.28732718179E+02 -0.76966515104E+02  0.94202678143E+03  0.96489785494E+03  0.19200000000E+03 0.  0.
   -5000001    1    1    2    0    0 -0.28732718179E+02  0.76966515104E+02  0.91091098958E+03  0.93454386975E+03  0.19200000000E+03 0.  0.
<mgrwt>
<rscale>  0 0.41773255E+03</rscale>
<asrwt>0</asrwt>
<pdfrwt beam="1">  1        2 0.26802710E+00 0.41773255E+03</pdfrwt>
<pdfrwt beam="2">  1       -2 0.33217111E-02 0.41773255E+03</pdfrwt>
<totfact> 0.36863561E+03</totfact>
</mgrwt>
</event>
<event>
 4    1  0.5621415E-005  0.5442380E+03  0.7818608E-02  0.1002836E+00
          2   -1    0    0  501    0  0.00000000000E+00  0.00000000000E+00  0.22769291582E+04  0.22769291582E+04  0.25500000000E-02 0.  1.
         -2   -1    0    0    0  501 -0.00000000000E+00 -0.00000000000E+00 -0.32521322145E+02  0.32521322245E+02  0.25500000000E-02 0. -1.
    5000001    1    1    2    0    0 -0.92866806481E+01 -0.19118349143E+03  0.10229236250E+04  0.10582410464E+04  0.19200000000E+03 0.  0.
   -5000001    1    1    2    0    0  0.92866806481E+01  0.19118349143E+03  0.12214842110E+04  0.12512094340E+04  0.19200000000E+03 0.  0.
<mgrwt>
<rscale>  0 0.54423799E+03</rscale>
<asrwt>0</asrwt>
<pdfrwt beam="1">  1        2 0.32527567E+00 0.54423799E+03</pdfrwt>
<pdfrwt beam="2">  1       -2 0.46459021E-02 0.54423799E+03</pdfrwt>
<totfact> 0.13865065E+03</totfact>
</mgrwt>
</event>
<event>
 4    1  0.5621415E-005  0.5536736E+03  0.7818608E-02  0.1000647E+00
         -2   -1    0    0    0  501 -0.00000000000E+00  0.00000000000E+00  0.19720280132E+02  0.19720280297E+02  0.25500000000E-02 0. -1.
          2   -1    0    0  501    0  0.00000000000E+00 -0.00000000000E+00 -0.38862848692E+04  0.38862848692E+04  0.25500000000E-02 0.  1.
    5000001    1    1    2    0    0 -0.53625849560E+02  0.17329093288E+03 -0.13485859499E+04  0.13742101526E+04  0.19200000000E+03 0.  0.
   -5000001    1    1    2    0    0  0.53625849560E+02 -0.17329093288E+03 -0.25179786391E+04  0.25317949969E+04  0.19200000000E+03 0.  0.
<mgrwt>
<rscale>  0 0.55367365E+03</rscale>
<asrwt>0</asrwt>
<pdfrwt beam="1">  1        2 0.55518306E+00 0.55367365E+03</pdfrwt>
<pdfrwt beam="2">  1       -2 0.28171854E-02 0.55367365E+03</pdfrwt>
<totfact> 0.37655877E+02</totfact>
</mgrwt>
</event>
<event>
 4    1  0.5621415E-005  0.1172952E+04  0.7818608E-02  0.9136867E-01
         -2   -1    0    0    0  501 -0.00000000000E+00  0.00000000000E+00  0.36074834949E+03  0.36074834950E+03  0.25500000000E-02 0. -1.
          2   -1    0    0  501    0  0.00000000000E+00 -0.00000000000E+00 -0.95344607163E+03  0.95344607163E+03  0.25500000000E-02 0.  1.
    5000001    1    1    2    0    0  0.13033545355E+03 -0.27052438739E+03  0.22548048587E+03  0.42175374822E+03  0.19200000000E+03 0.  0.
   -5000001    1    1    2    0    0 -0.13033545355E+03  0.27052438739E+03 -0.81817820800E+03  0.89244067292E+03  0.19200000000E+03 0.  0.
<mgrwt>
<rscale>  0 0.11729520E+04</rscale>
<asrwt>0</asrwt>
<pdfrwt beam="1">  1        2 0.13620658E+00 0.11729520E+04</pdfrwt>
<pdfrwt beam="2">  1       -2 0.51535479E-01 0.11729520E+04</pdfrwt>
<totfact> 0.10561578E+02</totfact>
</mgrwt>
</event>
<event>
 4    1  0.5621415E-005  0.6502049E+03  0.7818608E-02  0.9806395E-01
          2   -1    0    0  501    0  0.00000000000E+00  0.00000000000E+00  0.26257073991E+03  0.26257073992E+03  0.25500000000E-02 0.  1.
         -2   -1    0    0    0  501 -0.00000000000E+00 -0.00000000000E+00 -0.40252617769E+03  0.40252617769E+03  0.25500000000E-02 0. -1.
    5000001    1    1    2    0    0  0.15749660025E+03 -0.16020394275E+03  0.68613882427E+02  0.30338481706E+03  0.19200000000E+03 0.  0.
   -5000001    1    1    2    0    0 -0.15749660025E+03  0.16020394275E+03 -0.20856932020E+03  0.36171210056E+03  0.19200000000E+03 0.  0.
<mgrwt>
<rscale>  0 0.65020488E+03</rscale>
<asrwt>0</asrwt>
<pdfrwt beam="1">  1        2 0.37510106E-01 0.65020488E+03</pdfrwt>
<pdfrwt beam="2">  1       -2 0.57503740E-01 0.65020488E+03</pdfrwt>
<totfact> 0.39549912E+02</totfact>
</mgrwt>
</event>
<event>
 4    1  0.5621415E-005  0.5708121E+03  0.7818608E-02  0.9967883E-01
          2   -1    0    0  501    0  0.00000000000E+00  0.00000000000E+00  0.34897288522E+04  0.34897288522E+04  0.25500000000E-02 0.  1.
         -2   -1    0    0    0  501 -0.00000000000E+00 -0.00000000000E+00 -0.23341817499E+02  0.23341817638E+02  0.25500000000E-02 0. -1.
    5000001    1    1    2    0    0 -0.18400098504E+03 -0.83054839365E+02  0.13519043870E+04  0.13803129864E+04  0.19200000000E+03 0.  0.
   -5000001    1    1    2    0    0  0.18400098504E+03  0.83054839365E+02  0.21144826477E+04  0.21327576835E+04  0.19200000000E+03 0.  0.
<mgrwt>
<rscale>  0 0.57081210E+03</rscale>
<asrwt>0</asrwt>
<pdfrwt beam="1">  1        2 0.49853286E+00 0.57081210E+03</pdfrwt>
<pdfrwt beam="2">  1       -2 0.33345443E-02 0.57081210E+03</pdfrwt>
<totfact> 0.51117220E+02</totfact>
</mgrwt>
</event>
<event>
 4    1  0.5621415E-005  0.4631131E+03  0.7818608E-02  0.1023882E+00
          2   -1    0    0  501    0  0.00000000000E+00  0.00000000000E+00  0.12367039482E+04  0.12367039482E+04  0.25500000000E-02 0.  1.
         -2   -1    0    0    0  501 -0.00000000000E+00 -0.00000000000E+00 -0.43355923381E+02  0.43355923456E+02  0.25500000000E-02 0. -1.
    5000001    1    1    2    0    0 -0.11205056682E+02  0.11749875507E+03  0.44981746285E+03  0.50312151676E+03  0.19200000000E+03 0.  0.
   -5000001    1    1    2    0    0  0.11205056682E+02 -0.11749875507E+03  0.74353056197E+03  0.77693835491E+03  0.19200000000E+03 0.  0.
<mgrwt>
<rscale>  0 0.46311313E+03</rscale>
<asrwt>0</asrwt>
<pdfrwt beam="1">  1        2 0.17667195E+00 0.46311313E+03</pdfrwt>
<pdfrwt beam="2">  1       -2 0.61937047E-02 0.46311313E+03</pdfrwt>
<totfact> 0.30235954E+03</totfact>
</mgrwt>
</event>
<event>
 4    1  0.5621415E-005  0.7998000E+03  0.7818608E-02  0.9560307E-01
         -2   -1    0    0    0  501 -0.00000000000E+00  0.00000000000E+00  0.66813118167E+02  0.66813118216E+02  0.25500000000E-02 0. -1.
          2   -1    0    0  501    0  0.00000000000E+00 -0.00000000000E+00 -0.23935420878E+04  0.23935420878E+04  0.25500000000E-02 0.  1.
    5000001    1    1    2    0    0 -0.87291881157E+02 -0.25447015471E+03 -0.47083330055E+03  0.57525901041E+03  0.19200000000E+03 0.  0.
   -5000001    1    1    2    0    0  0.87291881157E+02  0.25447015471E+03 -0.18558956691E+04  0.18850961956E+04  0.19200000000E+03 0.  0.
<mgrwt>
<rscale>  0 0.79980000E+03</rscale>
<asrwt>0</asrwt>
<pdfrwt beam="1">  1        2 0.34193453E+00 0.79980000E+03</pdfrwt>
<pdfrwt beam="2">  1       -2 0.95447326E-02 0.79980000E+03</pdfrwt>
<totfact> 0.38082318E+02</totfact>
</mgrwt>
</event>
<event>
 4    1  0.5621415E-005  0.4550077E+03  0.7818608E-02  0.1026239E+00
          2   -1    0    0  501    0  0.00000000000E+00  0.00000000000E+00  0.20042610493E+04  0.20042610493E+04  0.25500000000E-02 0. -1.
         -2   -1    0    0    0  501 -0.00000000000E+00 -0.00000000000E+00 -0.25823984684E+02  0.25823984810E+02  0.25500000000E-02 0.  1.
    5000001    1    1    2    0    0 -0.11960899744E+03 -0.13251107230E+01  0.88121909060E+03  0.90979071979E+03  0.19200000000E+03 0.  0.
   -5000001    1    1    2    0    0  0.11960899744E+03  0.13251107230E+01  0.10972179740E+04  0.11202943143E+04  0.19200000000E+03 0.  0.
<mgrwt>
<rscale>  0 0.45500772E+03</rscale>
<asrwt>0</asrwt>
<pdfrwt beam="1">  1        2 0.28632295E+00 0.45500772E+03</pdfrwt>
<pdfrwt beam="2">  1       -2 0.36891414E-02 0.45500772E+03</pdfrwt>
<totfact> 0.27132029E+03</totfact>
</mgrwt>
</event>
<event>
 4    1  0.5621415E-005  0.6882382E+03  0.7818608E-02  0.9737560E-01
         -2   -1    0    0    0  501 -0.00000000000E+00  0.00000000000E+00  0.13580161510E+03  0.13580161512E+03  0.25500000000E-02 0. -1.
          2   -1    0    0  501    0  0.00000000000E+00 -0.00000000000E+00 -0.87199235287E+03  0.87199235287E+03  0.25500000000E-02 0.  1.
    5000001    1    1    2    0    0 -0.18300956703E+03 -0.14521720698E+03 -0.60858759901E+03  0.67957590046E+03  0.19200000000E+03 0.  0.
   -5000001    1    1    2    0    0  0.18300956703E+03  0.14521720698E+03 -0.12760313877E+03  0.32821806753E+03  0.19200000000E+03 0.  0.
<mgrwt>
<rscale>  0 0.68823824E+03</rscale>
<asrwt>0</asrwt>
<pdfrwt beam="1">  1        2 0.12457033E+00 0.68823824E+03</pdfrwt>
<pdfrwt beam="2">  1       -2 0.19400231E-01 0.68823824E+03</pdfrwt>
<totfact> 0.76652370E+02</totfact>
</mgrwt>
</event>
<event>
 4    1  0.5621415E-005  0.5060341E+03  0.7818608E-02  0.1012216E+00
          2   -1    0    0  501    0  0.00000000000E+00  0.00000000000E+00  0.31322644369E+04  0.31322644369E+04  0.25500000000E-02 0. -1.
         -2   -1    0    0    0  501 -0.00000000000E+00 -0.00000000000E+00 -0.20438132285E+02  0.20438132444E+02  0.25500000000E-02 0.  1.
    5000001    1    1    2    0    0 -0.96839361771E+02 -0.10192047324E+03  0.20914216295E+04  0.21049166437E+04  0.19200000000E+03 0.  0.
   -5000001    1    1    2    0    0  0.96839361771E+02  0.10192047324E+03  0.10204046752E+04  0.10477859256E+04  0.19200000000E+03 0.  0.
<mgrwt>
<rscale>  0 0.50603413E+03</rscale>
<asrwt>0</asrwt>
<pdfrwt beam="1">  1        2 0.44746699E+00 0.50603413E+03</pdfrwt>
<pdfrwt beam="2">  1       -2 0.29197290E-02 0.50603413E+03</pdfrwt>
<totfact> 0.10079175E+03</totfact>
</mgrwt>
</event>
<event>
 4    1  0.5621415E-005  0.4733304E+03  0.7818608E-02  0.1020984E+00
         -2   -1    0    0    0  501 -0.00000000000E+00  0.00000000000E+00  0.17986116844E+03  0.17986116845E+03  0.25500000000E-02 0. -1.
          2   -1    0    0  501    0  0.00000000000E+00 -0.00000000000E+00 -0.31140914395E+03  0.31140914396E+03  0.25500000000E-02 0.  1.
    5000001    1    1    2    0    0  0.91707151103E+02  0.44078026695E+02 -0.16310092008E+03  0.27169649268E+03  0.19200000000E+03 0.  0.
   -5000001    1    1    2    0    0 -0.91707151103E+02 -0.44078026695E+02  0.31552944573E+02  0.21957381973E+03  0.19200000000E+03 0.  0.
<mgrwt>
<rscale>  0 0.47333038E+03</rscale>
<asrwt>0</asrwt>
<pdfrwt beam="1">  1        2 0.44487021E-01 0.47333038E+03</pdfrwt>
<pdfrwt beam="2">  1       -2 0.25694453E-01 0.47333038E+03</pdfrwt>
<totfact> 0.15530421E+03</totfact>
</mgrwt>
</event>
<event>
 4    1  0.5621415E-005  0.6957591E+03  0.7818608E-02  0.9724512E-01
         -2   -1    0    0    0  501 -0.00000000000E+00  0.00000000000E+00  0.84656436533E+02  0.84656436571E+02  0.25500000000E-02 0. -1.
          2   -1    0    0  501    0  0.00000000000E+00 -0.00000000000E+00 -0.14295447689E+04  0.14295447689E+04  0.25500000000E-02 0.  1.
    5000001    1    1    2    0    0  0.49069579580E+02  0.54660204757E+02 -0.61671996529E+02  0.21462291765E+03  0.19200000000E+03 0.  0.
   -5000001    1    1    2    0    0 -0.49069579580E+02 -0.54660204757E+02 -0.12832163359E+04  0.12995782879E+04  0.19200000000E+03 0.  0.
<mgrwt>
<rscale>  0 0.69575906E+03</rscale>
<asrwt>0</asrwt>
<pdfrwt beam="1">  1        2 0.20422067E+00 0.69575906E+03</pdfrwt>
<pdfrwt beam="2">  1       -2 0.12093777E-01 0.69575906E+03</pdfrwt>
<totfact> 0.80964231E+02</totfact>
</mgrwt>
</event>
<event>
 4    1  0.5621415E-005  0.5531616E+03  0.7818608E-02  0.1000765E+00
         -2   -1    0    0    0  501 -0.00000000000E+00  0.00000000000E+00  0.20232530205E+03  0.20232530206E+03  0.25500000000E-02 0. -1.
          2   -1    0    0  501    0  0.00000000000E+00 -0.00000000000E+00 -0.37808890660E+03  0.37808890661E+03  0.25500000000E-02 0.  1.
    5000001    1    1    2    0    0 -0.38443468893E+02  0.14330592423E+03  0.51392180614E+02  0.24803153922E+03  0.19200000000E+03 0.  0.
   -5000001    1    1    2    0    0  0.38443468893E+02 -0.14330592423E+03 -0.22715578517E+03  0.33238266945E+03  0.19200000000E+03 0.  0.
<mgrwt>
<rscale>  0 0.55316165E+03</rscale>
<asrwt>0</asrwt>
<pdfrwt beam="1">  1        2 0.54012701E-01 0.55316165E+03</pdfrwt>
<pdfrwt beam="2">  1       -2 0.28903615E-01 0.55316165E+03</pdfrwt>
<totfact> 0.10137345E+03</totfact>
</mgrwt>
</event>
<event>
 4    1  0.5621415E-005  0.6472395E+03  0.7818608E-02  0.9811973E-01
          2   -1    0    0  501    0  0.00000000000E+00  0.00000000000E+00  0.11163946632E+04  0.11163946632E+04  0.25500000000E-02 0.  1.
         -2   -1    0    0    0  501 -0.00000000000E+00 -0.00000000000E+00 -0.93810692553E+02  0.93810692588E+02  0.25500000000E-02 0. -1.
    5000001    1    1    2    0    0  0.89749304264E+02  0.57718379895E+02  0.66927753381E+02  0.22962942574E+03  0.19200000000E+03 0.  0.
   -5000001    1    1    2    0    0 -0.89749304264E+02 -0.57718379895E+02  0.95565621724E+03  0.98057593002E+03  0.19200000000E+03 0.  0.
<mgrwt>
<rscale>  0 0.64723954E+03</rscale>
<asrwt>0</asrwt>
<pdfrwt beam="1">  1        2 0.15948494E+00 0.64723954E+03</pdfrwt>
<pdfrwt beam="2">  1       -2 0.13401528E-01 0.64723954E+03</pdfrwt>
<totfact> 0.10182588E+03</totfact>
</mgrwt>
</event>
<event>
 4    1  0.5621415E-005  0.5319417E+03  0.7818608E-02  0.1005762E+00
          2   -1    0    0  501    0  0.00000000000E+00  0.00000000000E+00  0.45455555654E+03  0.45455555654E+03  0.25500000000E-02 0.  1.
         -2   -1    0    0    0  501 -0.00000000000E+00 -0.00000000000E+00 -0.15562565310E+03  0.15562565312E+03  0.25500000000E-02 0. -1.
    5000001    1    1    2    0    0  0.14590284267E+03  0.81283032262E+02  0.60746167285E+02  0.26162696281E+03  0.19200000000E+03 0.  0.
   -5000001    1    1    2    0    0 -0.14590284267E+03 -0.81283032262E+02  0.23818373615E+03  0.34855424685E+03  0.19200000000E+03 0.  0.
<mgrwt>
<rscale>  0 0.53194175E+03</rscale>
<asrwt>0</asrwt>
<pdfrwt beam="1">  1        2 0.64936507E-01 0.53194175E+03</pdfrwt>
<pdfrwt beam="2">  1       -2 0.22232236E-01 0.53194175E+03</pdfrwt>
<totfact> 0.13235487E+03</totfact>
</mgrwt>
</event>
<event>
 4    1  0.5621415E-005  0.1065228E+04  0.7818608E-02  0.9239762E-01
         -2   -1    0    0    0  501 -0.00000000000E+00  0.00000000000E+00  0.17672897098E+03  0.17672897100E+03  0.25500000000E-02 0. -1.
          2   -1    0    0  501    0  0.00000000000E+00 -0.00000000000E+00 -0.16051555953E+04  0.16051555953E+04  0.25500000000E-02 0.  1.
    5000001    1    1    2    0    0  0.11976024631E+03 -0.34343629774E+03 -0.14812717755E+03  0.43714604874E+03  0.19200000000E+03 0.  0.
   -5000001    1    1    2    0    0 -0.11976024631E+03  0.34343629774E+03 -0.12802994468E+04  0.13447385175E+04  0.19200000000E+03 0.  0.
<mgrwt>
<rscale>  0 0.10652277E+04</rscale>
<asrwt>0</asrwt>
<pdfrwt beam="1">  1        2 0.22930793E+00 0.10652277E+04</pdfrwt>
<pdfrwt beam="2">  1       -2 0.25246997E-01 0.10652277E+04</pdfrwt>
<totfact> 0.17998268E+02</totfact>
</mgrwt>
</event>
<event>
 4    1  0.5621415E-005  0.5616755E+03  0.7818608E-02  0.9988271E-01
          2   -1    0    0  501    0  0.00000000000E+00  0.00000000000E+00  0.73781916510E+03  0.73781916511E+03  0.25500000000E-02 0. -1.
         -2   -1    0    0    0  501 -0.00000000000E+00 -0.00000000000E+00 -0.10689589354E+03  0.10689589357E+03  0.25500000000E-02 0.  1.
    5000001    1    1    2    0    0  0.19221326845E+03  0.60060461866E+02  0.25814196889E+03  0.37954509054E+03  0.19200000000E+03 0.  0.
   -5000001    1    1    2    0    0 -0.19221326845E+03 -0.60060461866E+02  0.37278130266E+03  0.46516996814E+03  0.19200000000E+03 0.  0.
<mgrwt>
<rscale>  0 0.56167549E+03</rscale>
<asrwt>0</asrwt>
<pdfrwt beam="1">  1        2 0.10540274E+00 0.56167549E+03</pdfrwt>
<pdfrwt beam="2">  1       -2 0.15270842E-01 0.56167549E+03</pdfrwt>
<totfact> 0.14335555E+03</totfact>
</mgrwt>
</event>
<event>
 4    1  0.5621415E-005  0.5654488E+03  0.7818608E-02  0.9979801E-01
         -2   -1    0    0    0  501 -0.00000000000E+00  0.00000000000E+00  0.20453889452E+03  0.20453889453E+03  0.25500000000E-02 0. -1.
          2   -1    0    0  501    0  0.00000000000E+00 -0.00000000000E+00 -0.39079645056E+03  0.39079645057E+03  0.25500000000E-02 0.  1.
    5000001    1    1    2    0    0 -0.16472574201E+03  0.12569245607E+03 -0.10540302179E+03  0.30150781184E+03  0.19200000000E+03 0.  0.
   -5000001    1    1    2    0    0  0.16472574201E+03 -0.12569245607E+03 -0.80854534261E+02  0.29382753327E+03  0.19200000000E+03 0.  0.
<mgrwt>
<rscale>  0 0.56544876E+03</rscale>
<asrwt>0</asrwt>
<pdfrwt beam="1">  1        2 0.55828064E-01 0.56544876E+03</pdfrwt>
<pdfrwt beam="2">  1       -2 0.29219842E-01 0.56544876E+03</pdfrwt>
<totfact> 0.95789793E+02</totfact>
</mgrwt>
</event>
<event>
 4    1  0.5621415E-005  0.6063851E+03  0.7818608E-02  0.9892247E-01
         -2   -1    0    0    0  501 -0.00000000000E+00  0.00000000000E+00  0.91903587109E+02  0.91903587145E+02  0.25500000000E-02 0. -1.
          2   -1    0    0  501    0  0.00000000000E+00 -0.00000000000E+00 -0.10002407145E+04  0.10002407145E+04  0.25500000000E-02 0.  1.
    5000001    1    1    2    0    0 -0.20648807972E+03 -0.29202948738E+02 -0.64791230557E+03  0.70720894719E+03  0.19200000000E+03 0.  0.
   -5000001    1    1    2    0    0  0.20648807972E+03  0.29202948738E+02 -0.26042482179E+03  0.38493535442E+03  0.19200000000E+03 0.  0.
<mgrwt>
<rscale>  0 0.60638506E+03</rscale>
<asrwt>0</asrwt>
<pdfrwt beam="1">  1        2 0.14289152E+00 0.60638506E+03</pdfrwt>
<pdfrwt beam="2">  1       -2 0.13129084E-01 0.60638506E+03</pdfrwt>
<totfact> 0.12363159E+03</totfact>
</mgrwt>
</event>
<event>
 4    1  0.5621415E-005  0.5004122E+03  0.7818608E-02  0.1013671E+00
          2   -1    0    0  501    0  0.00000000000E+00  0.00000000000E+00  0.23301032351E+04  0.23301032351E+04  0.25500000000E-02 0.  1.
         -2   -1    0    0    0  501 -0.00000000000E+00 -0.00000000000E+00 -0.26867085694E+02  0.26867085815E+02  0.25500000000E-02 0. -1.
    5000001    1    1    2    0    0  0.89520786729E+02  0.80325784579E+02  0.65153321311E+03  0.68980122551E+03  0.19200000000E+03 0.  0.
   -5000001    1    1    2    0    0 -0.89520786729E+02 -0.80325784579E+02  0.16517029363E+04  0.16671690954E+04  0.19200000000E+03 0.  0.
<mgrwt>
<rscale>  0 0.50041216E+03</rscale>
<asrwt>0</asrwt>
<pdfrwt beam="1">  1        2 0.33287181E+00 0.50041216E+03</pdfrwt>
<pdfrwt beam="2">  1       -2 0.38381560E-02 0.50041216E+03</pdfrwt>
<totfact> 0.17520720E+03</totfact>
</mgrwt>
</event>
<event>
 4    1  0.5621415E-005  0.8298602E+03  0.7818608E-02  0.9517774E-01
         -2   -1    0    0    0  501 -0.00000000000E+00  0.00000000000E+00  0.32189564077E+03  0.32189564078E+03  0.25500000000E-02 0. -1.
          2   -1    0    0  501    0  0.00000000000E+00 -0.00000000000E+00 -0.53485346828E+03  0.53485346828E+03  0.25500000000E-02 0.  1.
    5000001    1    1    2    0    0 -0.10565523638E+03 -0.35226960003E+03 -0.99469231661E+02  0.42663219303E+03  0.19200000000E+03 0.  0.
   -5000001    1    1    2    0    0  0.10565523638E+03  0.35226960003E+03 -0.11348859584E+03  0.43011691604E+03  0.19200000000E+03 0.  0.
<mgrwt>
<rscale>  0 0.82986023E+03</rscale>
<asrwt>0</asrwt>
<pdfrwt beam="1">  1        2 0.76407638E-01 0.82986023E+03</pdfrwt>
<pdfrwt beam="2">  1       -2 0.45985092E-01 0.82986023E+03</pdfrwt>
<totfact> 0.27986467E+02</totfact>
</mgrwt>
</event>
<event>
 4    1  0.5621415E-005  0.4824142E+03  0.7818608E-02  0.1018474E+00
         -2   -1    0    0    0  501 -0.00000000000E+00  0.00000000000E+00  0.19202353824E+02  0.19202353994E+02  0.25500000000E-02 0. -1.
          2   -1    0    0  501    0  0.00000000000E+00 -0.00000000000E+00 -0.30298820039E+04  0.30298820039E+04  0.25500000000E-02 0.  1.
    5000001    1    1    2    0    0 -0.22571090946E+02  0.72275810871E+02 -0.22943516651E+04  0.23036160292E+04  0.19200000000E+03 0.  0.
   -5000001    1    1    2    0    0  0.22571090946E+02 -0.72275810871E+02 -0.71632798502E+03  0.74546832871E+03  0.19200000000E+03 0.  0.
<mgrwt>
<rscale>  0 0.48241421E+03</rscale>
<asrwt>0</asrwt>
<pdfrwt beam="1">  1        2 0.43283998E+00 0.48241421E+03</pdfrwt>
<pdfrwt beam="2">  1       -2 0.27431953E-02 0.48241421E+03</pdfrwt>
<totfact> 0.12629260E+03</totfact>
</mgrwt>
</event>
<event>
 4    1  0.5621415E-005  0.5995175E+03  0.7818608E-02  0.9906408E-01
         -2   -1    0    0    0  501 -0.00000000000E+00  0.00000000000E+00  0.15589914623E+03  0.15589914625E+03  0.25500000000E-02 0. -1.
          2   -1    0    0  501    0  0.00000000000E+00 -0.00000000000E+00 -0.57636817520E+03  0.57636817521E+03  0.25500000000E-02 0.  1.
    5000001    1    1    2    0    0  0.13516766254E+03 -0.17164427748E+03 -0.12165572099E+03  0.31527158045E+03  0.19200000000E+03 0.  0.
   -5000001    1    1    2    0    0 -0.13516766254E+03  0.17164427748E+03 -0.29881330798E+03  0.41699574101E+03  0.19200000000E+03 0.  0.
<mgrwt>
<rscale>  0 0.59951749E+03</rscale>
<asrwt>0</asrwt>
<pdfrwt beam="1">  1        2 0.82338310E-01 0.59951749E+03</pdfrwt>
<pdfrwt beam="2">  1       -2 0.22271307E-01 0.59951749E+03</pdfrwt>
<totfact> 0.10059027E+03</totfact>
</mgrwt>
</event>
<event>
 4    1  0.5621415E-005  0.5043908E+03  0.7818608E-02  0.1012639E+00
          2   -1    0    0  501    0  0.00000000000E+00  0.00000000000E+00  0.49423247848E+02  0.49423247914E+02  0.25500000000E-02 0.  1.
         -2   -1    0    0    0  501 -0.00000000000E+00 -0.00000000000E+00 -0.12868945729E+04  0.12868945729E+04  0.25500000000E-02 0. -1.
    5000001    1    1    2    0    0  0.97373693324E+02 -0.12457746657E+03 -0.50830655391E+03  0.56589816582E+03  0.19200000000E+03 0.  0.
   -5000001    1    1    2    0    0 -0.97373693324E+02  0.12457746657E+03 -0.72916477113E+03  0.77041965499E+03  0.19200000000E+03 0.  0.
<mgrwt>
<rscale>  0 0.50439076E+03</rscale>
<asrwt>0</asrwt>
<pdfrwt beam="1">  1        2 0.70604648E-02 0.50439076E+03</pdfrwt>
<pdfrwt beam="2">  1       -2 0.18384206E+00 0.50439076E+03</pdfrwt>
<totfact> 0.18233339E+02</totfact>
</mgrwt>
</event>
<event>
 4    1  0.5621415E-005  0.5984610E+03  0.7818608E-02  0.9908604E-01
          2   -1    0    0  501    0  0.00000000000E+00  0.00000000000E+00  0.14357571740E+04  0.14357571740E+04  0.25500000000E-02 0.  1.
         -2   -1    0    0    0  501 -0.00000000000E+00 -0.00000000000E+00 -0.62363539007E+02  0.62363539059E+02  0.25500000000E-02 0. -1.
    5000001    1    1    2    0    0  0.11447119940E+03  0.94073360659E+02  0.24793203164E+03  0.34682523695E+03  0.19200000000E+03 0.  0.
   -5000001    1    1    2    0    0 -0.11447119940E+03 -0.94073360659E+02  0.11254616034E+04  0.11512954761E+04  0.19200000000E+03 0.  0.
<mgrwt>
<rscale>  0 0.59846102E+03</rscale>
<asrwt>0</asrwt>
<pdfrwt beam="1">  1        2 0.20510815E+00 0.59846102E+03</pdfrwt>
<pdfrwt beam="2">  1       -2 0.89090777E-02 0.59846102E+03</pdfrwt>
<totfact> 0.13268070E+03</totfact>
</mgrwt>
</event>
<event>
 4    1  0.5621415E-005  0.6615778E+03  0.7818608E-02  0.9785294E-01
         -2   -1    0    0    0  501 -0.00000000000E+00  0.00000000000E+00  0.55985147397E+02  0.55985147456E+02  0.25500000000E-02 0. -1.
          2   -1    0    0  501    0  0.00000000000E+00 -0.00000000000E+00 -0.19544701682E+04  0.19544701682E+04  0.25500000000E-02 0.  1.
    5000001    1    1    2    0    0 -0.26807712995E+03 -0.24503587338E+02 -0.97831541221E+03  0.10326813735E+04  0.19200000000E+03 0.  0.
   -5000001    1    1    2    0    0  0.26807712995E+03  0.24503587338E+02 -0.92016960859E+03  0.97777394216E+03  0.19200000000E+03 0.  0.
<mgrwt>
<rscale>  0 0.66157781E+03</rscale>
<asrwt>0</asrwt>
<pdfrwt beam="1">  1        2 0.27920998E+00 0.66157781E+03</pdfrwt>
<pdfrwt beam="2">  1       -2 0.79978794E-02 0.66157781E+03</pdfrwt>
<totfact> 0.85344506E+02</totfact>
</mgrwt>
</event>
<event>
 4    1  0.5621415E-005  0.5428309E+03  0.7818608E-02  0.1003167E+00
          2   -1    0    0  501    0  0.00000000000E+00  0.00000000000E+00  0.12897992143E+04  0.12897992143E+04  0.25500000000E-02 0.  1.
         -2   -1    0    0    0  501 -0.00000000000E+00 -0.00000000000E+00 -0.57114589410E+02  0.57114589467E+02  0.25500000000E-02 0. -1.
    5000001    1    1    2    0    0 -0.15018932901E+03 -0.55428152720E+01  0.91217457050E+03  0.94420019298E+03  0.19200000000E+03 0.  0.
   -5000001    1    1    2    0    0  0.15018932901E+03  0.55428152720E+01  0.32051005437E+03  0.40271361077E+03  0.19200000000E+03 0.  0.
<mgrwt>
<rscale>  0 0.54283092E+03</rscale>
<asrwt>0</asrwt>
<pdfrwt beam="1">  1        2 0.18425705E+00 0.54283092E+03</pdfrwt>
<pdfrwt beam="2">  1       -2 0.81592264E-02 0.54283092E+03</pdfrwt>
<totfact> 0.18305189E+03</totfact>
</mgrwt>
</event>
<event>
 4    1  0.5621415E-005  0.9385419E+03  0.7818608E-02  0.9378645E-01
          2   -1    0    0  501    0  0.00000000000E+00  0.00000000000E+00  0.39482661828E+03  0.39482661829E+03  0.25500000000E-02 0.  1.
         -2   -1    0    0    0  501 -0.00000000000E+00 -0.00000000000E+00 -0.55775171262E+03  0.55775171262E+03  0.25500000000E-02 0. -1.
    5000001    1    1    2    0    0  0.23963286515E+03  0.35485984645E+03 -0.80100137531E+02  0.47605614450E+03  0.19200000000E+03 0.  0.
   -5000001    1    1    2    0    0 -0.23963286515E+03 -0.35485984645E+03 -0.82824956801E+02  0.47652218642E+03  0.19200000000E+03 0.  0.
<mgrwt>
<rscale>  0 0.93854190E+03</rscale>
<asrwt>0</asrwt>
<pdfrwt beam="1">  1        2 0.56403803E-01 0.93854190E+03</pdfrwt>
<pdfrwt beam="2">  1       -2 0.79678816E-01 0.93854190E+03</pdfrwt>
<totfact> 0.12268106E+02</totfact>
</mgrwt>
</event>
<event>
 4    1  0.5621415E-005  0.8189115E+03  0.7818608E-02  0.9533040E-01
          2   -1    0    0  501    0  0.00000000000E+00  0.00000000000E+00  0.29423173058E+04  0.29423173058E+04  0.25500000000E-02 0.  1.
         -2   -1    0    0    0  501 -0.00000000000E+00 -0.00000000000E+00 -0.56980262342E+02  0.56980262399E+02  0.25500000000E-02 0. -1.
    5000001    1    1    2    0    0  0.33064864416E+01  0.34935872619E+03  0.11005087110E+04  0.11704895879E+04  0.19200000000E+03 0.  0.
   -5000001    1    1    2    0    0 -0.33064864416E+01 -0.34935872619E+03  0.17848283325E+04  0.18288079803E+04  0.19200000000E+03 0.  0.
<mgrwt>
<rscale>  0 0.81891150E+03</rscale>
<asrwt>0</asrwt>
<pdfrwt beam="1">  1        2 0.42033115E+00 0.81891150E+03</pdfrwt>
<pdfrwt beam="2">  1       -2 0.81400355E-02 0.81891150E+03</pdfrwt>
<totfact> 0.25254228E+02</totfact>
</mgrwt>
</event>
<event>
 4    1  0.5621415E-005  0.5800286E+03  0.7818608E-02  0.9947729E-01
          2   -1    0    0  501    0  0.00000000000E+00  0.00000000000E+00  0.19909627132E+04  0.19909627132E+04  0.25500000000E-02 0.  1.
         -2   -1    0    0    0  501 -0.00000000000E+00 -0.00000000000E+00 -0.42245043918E+02  0.42245043995E+02  0.25500000000E-02 0. -1.
    5000001    1    1    2    0    0  0.89556584221E+01  0.16711878868E+03  0.48819451209E+03  0.55064214784E+03  0.19200000000E+03 0.  0.
   -5000001    1    1    2    0    0 -0.89556584221E+01 -0.16711878868E+03  0.14605231572E+04  0.14825656093E+04  0.19200000000E+03 0.  0.
<mgrwt>
<rscale>  0 0.58002865E+03</rscale>
<asrwt>0</asrwt>
<pdfrwt beam="1">  1        2 0.28442324E+00 0.58002865E+03</pdfrwt>
<pdfrwt beam="2">  1       -2 0.60350064E-02 0.58002865E+03</pdfrwt>
<totfact> 0.12826229E+03</totfact>
</mgrwt>
</event>
<event>
 4    1  0.5621415E-005  0.4934367E+03  0.7818608E-02  0.1015506E+00
          2   -1    0    0  501    0  0.00000000000E+00  0.00000000000E+00  0.16232934646E+04  0.16232934646E+04  0.25500000000E-02 0. -1.
         -2   -1    0    0    0  501 -0.00000000000E+00 -0.00000000000E+00 -0.37497806380E+02  0.37497806467E+02  0.25500000000E-02 0.  1.
    5000001    1    1    2    0    0 -0.13840823718E+03  0.68802630008E+02  0.82903899848E+03  0.86490479419E+03  0.19200000000E+03 0.  0.
   -5000001    1    1    2    0    0  0.13840823718E+03 -0.68802630008E+02  0.75675665975E+03  0.79588647689E+03  0.19200000000E+03 0.  0.
<mgrwt>
<rscale>  0 0.49343670E+03</rscale>
<asrwt>0</asrwt>
<pdfrwt beam="1">  1        2 0.23189904E+00 0.49343670E+03</pdfrwt>
<pdfrwt beam="2">  1       -2 0.53568300E-02 0.49343670E+03</pdfrwt>
<totfact> 0.23732846E+03</totfact>
</mgrwt>
</event>
<event>
 4    1  0.5621415E-005  0.5694912E+03  0.7818608E-02  0.9970805E-01
         -2   -1    0    0    0  501 -0.00000000000E+00  0.00000000000E+00  0.34770444465E+02  0.34770444558E+02  0.25500000000E-02 0. -1.
          2   -1    0    0  501    0  0.00000000000E+00 -0.00000000000E+00 -0.23318668431E+04  0.23318668431E+04  0.25500000000E-02 0.  1.
    5000001    1    1    2    0    0 -0.61142756289E+02  0.55906204956E+02 -0.34538784912E+03  0.40375822805E+03  0.19200000000E+03 0.  0.
   -5000001    1    1    2    0    0  0.61142756289E+02 -0.55906204956E+02 -0.19517085495E+04  0.19628790596E+04  0.19200000000E+03 0.  0.
<mgrwt>
<rscale>  0 0.56949116E+03</rscale>
<asrwt>0</asrwt>
<pdfrwt beam="1">  1        2 0.33312374E+00 0.56949116E+03</pdfrwt>
<pdfrwt beam="2">  1       -2 0.49672078E-02 0.56949116E+03</pdfrwt>
<totfact> 0.11711012E+03</totfact>
</mgrwt>
</event>
<event>
 4    1  0.5621415E-005  0.6692909E+03  0.7818608E-02  0.9771240E-01
         -2   -1    0    0    0  501 -0.00000000000E+00  0.00000000000E+00  0.84398065924E+02  0.84398065962E+02  0.25500000000E-02 0. -1.
          2   -1    0    0  501    0  0.00000000000E+00 -0.00000000000E+00 -0.13268973537E+04  0.13268973537E+04  0.25500000000E-02 0.  1.
    5000001    1    1    2    0    0 -0.26443354631E+03 -0.54116239353E+02 -0.52078653014E+03  0.61720035463E+03  0.19200000000E+03 0.  0.
   -5000001    1    1    2    0    0  0.26443354631E+03  0.54116239353E+02 -0.72171275762E+03  0.79409506502E+03  0.19200000000E+03 0.  0.
<mgrwt>
<rscale>  0 0.66929088E+03</rscale>
<asrwt>0</asrwt>
<pdfrwt beam="1">  1        2 0.18955675E+00 0.66929088E+03</pdfrwt>
<pdfrwt beam="2">  1       -2 0.12056867E-01 0.66929088E+03</pdfrwt>
<totfact> 0.92466340E+02</totfact>
</mgrwt>
</event>
<event>
 4    1  0.5621415E-005  0.4481351E+03  0.7818608E-02  0.1028280E+00
         -2   -1    0    0    0  501 -0.00000000000E+00  0.00000000000E+00  0.33983959851E+03  0.33983959852E+03  0.25500000000E-02 0. -1.
          2   -1    0    0  501    0  0.00000000000E+00 -0.00000000000E+00 -0.14773521734E+03  0.14773521736E+03  0.25500000000E-02 0.  1.
    5000001    1    1    2    0    0  0.21193751531E+02 -0.10573705237E+03  0.51024181083E+02  0.22604638109E+03  0.19200000000E+03 0.  0.
   -5000001    1    1    2    0    0 -0.21193751531E+02  0.10573705237E+03  0.14108020009E+03  0.26152843479E+03  0.19200000000E+03 0.  0.
<mgrwt>
<rscale>  0 0.44813514E+03</rscale>
<asrwt>0</asrwt>
<pdfrwt beam="1">  1        2 0.21105031E-01 0.44813514E+03</pdfrwt>
<pdfrwt beam="2">  1       -2 0.48548515E-01 0.44813514E+03</pdfrwt>
<totfact> 0.10722336E+03</totfact>
</mgrwt>
</event>
<event>
 4    1  0.5621415E-005  0.6065424E+03  0.7818608E-02  0.9891925E-01
         -2   -1    0    0    0  501 -0.00000000000E+00  0.00000000000E+00  0.17173841963E+03  0.17173841965E+03  0.25500000000E-02 0. -1.
          2   -1    0    0  501    0  0.00000000000E+00 -0.00000000000E+00 -0.53554356913E+03  0.53554356914E+03  0.25500000000E-02 0.  1.
    5000001    1    1    2    0    0 -0.13046922098E+03  0.15709052982E+03 -0.31693618331E+03  0.42309832956E+03  0.19200000000E+03 0.  0.
   -5000001    1    1    2    0    0  0.13046922098E+03 -0.15709052982E+03 -0.46868966188E+02  0.28418365923E+03  0.19200000000E+03 0.  0.
<mgrwt>
<rscale>  0 0.60654235E+03</rscale>
<asrwt>0</asrwt>
<pdfrwt beam="1">  1        2 0.76506224E-01 0.60654235E+03</pdfrwt>
<pdfrwt beam="2">  1       -2 0.24534060E-01 0.60654235E+03</pdfrwt>
<totfact> 0.92202090E+02</totfact>
</mgrwt>
</event>
<event>
 4    1  0.5621415E-005  0.4166133E+03  0.7818608E-02  0.1038174E+00
         -2   -1    0    0    0  501 -0.00000000000E+00  0.00000000000E+00  0.13311509548E+03  0.13311509550E+03  0.25500000000E-02 0. -1.
          2   -1    0    0  501    0  0.00000000000E+00 -0.00000000000E+00 -0.32597104497E+03  0.32597104498E+03  0.25500000000E-02 0.  1.
    5000001    1    1    2    0    0 -0.61145558999E+02  0.51534488381E+02 -0.10914026459E+03  0.23488333324E+03  0.19200000000E+03 0.  0.
   -5000001    1    1    2    0    0  0.61145558999E+02 -0.51534488381E+02 -0.83715684902E+02  0.22420280725E+03  0.19200000000E+03 0.  0.
<mgrwt>
<rscale>  0 0.41661333E+03</rscale>
<asrwt>0</asrwt>
<pdfrwt beam="1">  1        2 0.46567292E-01 0.41661333E+03</pdfrwt>
<pdfrwt beam="2">  1       -2 0.19016442E-01 0.41661333E+03</pdfrwt>
<totfact> 0.25013545E+03</totfact>
</mgrwt>
</event>
<event>
 4    1  0.5621415E-005  0.6644061E+03  0.7818608E-02  0.9780117E-01
          2   -1    0    0  501    0  0.00000000000E+00  0.00000000000E+00  0.69856430516E+03  0.69856430516E+03  0.25500000000E-02 0.  1.
         -2   -1    0    0    0  501 -0.00000000000E+00 -0.00000000000E+00 -0.15797951971E+03  0.15797951973E+03  0.25500000000E-02 0. -1.
    5000001    1    1    2    0    0 -0.52282700059E+01  0.25910573381E+03  0.16770890798E+03  0.36352908263E+03  0.19200000000E+03 0.  0.
   -5000001    1    1    2    0    0  0.52282700059E+01 -0.25910573381E+03  0.37287587746E+03  0.49301474227E+03  0.19200000000E+03 0.  0.
<mgrwt>
<rscale>  0 0.66440606E+03</rscale>
<asrwt>0</asrwt>
<pdfrwt beam="1">  1        2 0.99794901E-01 0.66440606E+03</pdfrwt>
<pdfrwt beam="2">  1       -2 0.22568503E-01 0.66440606E+03</pdfrwt>
<totfact> 0.77993872E+02</totfact>
</mgrwt>
</event>
<event>
 4    1  0.5621415E-005  0.8897990E+03  0.7818608E-02  0.9438424E-01
         -2   -1    0    0    0  501 -0.00000000000E+00  0.00000000000E+00  0.10369930316E+03  0.10369930319E+03  0.25500000000E-02 0. -1.
          2   -1    0    0  501    0  0.00000000000E+00 -0.00000000000E+00 -0.19087451939E+04  0.19087451939E+04  0.25500000000E-02 0.  1.
    5000001    1    1    2    0    0 -0.12696248252E+03  0.35506521124E+03 -0.12132949387E+04  0.12849666862E+04  0.19200000000E+03 0.  0.
   -5000001    1    1    2    0    0  0.12696248252E+03 -0.35506521124E+03 -0.59175095201E+03  0.72747781093E+03  0.19200000000E+03 0.  0.
<mgrwt>
<rscale>  0 0.88979896E+03</rscale>
<asrwt>0</asrwt>
<pdfrwt beam="1">  1        2 0.27267786E+00 0.88979896E+03</pdfrwt>
<pdfrwt beam="2">  1       -2 0.14814187E-01 0.88979896E+03</pdfrwt>
<totfact> 0.32267341E+02</totfact>
</mgrwt>
</event>
<event>
 4    1  0.5621415E-005  0.4567370E+03  0.7818608E-02  0.1025732E+00
         -2   -1    0    0    0  501 -0.00000000000E+00  0.00000000000E+00  0.15643528071E+02  0.15643528279E+02  0.25500000000E-02 0. -1.
          2   -1    0    0  501    0  0.00000000000E+00 -0.00000000000E+00 -0.33337859984E+04  0.33337859984E+04  0.25500000000E-02 0.  1.
    5000001    1    1    2    0    0 -0.20129764913E+02 -0.94066875570E+02 -0.10894038609E+04  0.11103686580E+04  0.19200000000E+03 0.  0.
   -5000001    1    1    2    0    0  0.20129764913E+02  0.94066875570E+02 -0.22287386094E+04  0.22390608687E+04  0.19200000000E+03 0.  0.
<mgrwt>
<rscale>  0 0.45673701E+03</rscale>
<asrwt>0</asrwt>
<pdfrwt beam="1">  1        2 0.47625469E+00 0.45673701E+03</pdfrwt>
<pdfrwt beam="2">  1       -2 0.22347919E-02 0.45673701E+03</pdfrwt>
<totfact> 0.11676856E+03</totfact>
</mgrwt>
</event>
<event>
 4    1  0.5621415E-005  0.4353194E+03  0.7818608E-02  0.1032193E+00
         -2   -1    0    0    0  501 -0.00000000000E+00  0.00000000000E+00  0.59958720056E+02  0.59958720110E+02  0.25500000000E-02 0. -1.
          2   -1    0    0  501    0  0.00000000000E+00 -0.00000000000E+00 -0.79013936844E+03  0.79013936844E+03  0.25500000000E-02 0.  1.
    5000001    1    1    2    0    0  0.26693895322E+02 -0.98749405339E+02 -0.37858258026E+03  0.43663804138E+03  0.19200000000E+03 0.  0.
   -5000001    1    1    2    0    0 -0.26693895322E+02  0.98749405339E+02 -0.35159806812E+03  0.41346004718E+03  0.19200000000E+03 0.  0.
<mgrwt>
<rscale>  0 0.43531940E+03</rscale>
<asrwt>0</asrwt>
<pdfrwt beam="1">  1        2 0.11287705E+00 0.43531940E+03</pdfrwt>
<pdfrwt beam="2">  1       -2 0.85655319E-02 0.43531940E+03</pdfrwt>
<totfact> 0.33821103E+03</totfact>
</mgrwt>
</event>
<event>
 4    1  0.5621415E-005  0.4954108E+03  0.7818608E-02  0.1014984E+00
         -2   -1    0    0    0  501 -0.00000000000E+00  0.00000000000E+00  0.11994403441E+03  0.11994403444E+03  0.25500000000E-02 0. -1.
          2   -1    0    0  501    0  0.00000000000E+00 -0.00000000000E+00 -0.51155491973E+03  0.51155491974E+03  0.25500000000E-02 0.  1.
    5000001    1    1    2    0    0  0.67185286387E+02 -0.13639026559E+03 -0.14849039629E+03  0.28640803942E+03  0.19200000000E+03 0.  0.
   -5000001    1    1    2    0    0 -0.67185286387E+02  0.13639026559E+03 -0.24312048904E+03  0.34509091475E+03  0.19200000000E+03 0.  0.
<mgrwt>
<rscale>  0 0.49541078E+03</rscale>
<asrwt>0</asrwt>
<pdfrwt beam="1">  1        2 0.73079273E-01 0.49541078E+03</pdfrwt>
<pdfrwt beam="2">  1       -2 0.17134862E-01 0.49541078E+03</pdfrwt>
<totfact> 0.18181192E+03</totfact>
</mgrwt>
</event>
<event>
 4    1  0.5621415E-005  0.6929631E+03  0.7818608E-02  0.9729343E-01
          2   -1    0    0  501    0  0.00000000000E+00  0.00000000000E+00  0.36453399756E+04  0.36453399756E+04  0.25500000000E-02 0.  1.
         -2   -1    0    0    0  501 -0.00000000000E+00 -0.00000000000E+00 -0.32932307465E+02  0.32932307564E+02  0.25500000000E-02 0. -1.
    5000001    1    1    2    0    0  0.95047979003E+02 -0.26395140832E+03  0.14508828123E+04  0.14901776402E+04  0.19200000000E+03 0.  0.
   -5000001    1    1    2    0    0 -0.95047979003E+02  0.26395140832E+03  0.21615248558E+04  0.21880946430E+04  0.19200000000E+03 0.  0.
<mgrwt>
<rscale>  0 0.69296308E+03</rscale>
<asrwt>0</asrwt>
<pdfrwt beam="1">  1        2 0.52076278E+00 0.69296308E+03</pdfrwt>
<pdfrwt beam="2">  1       -2 0.47046160E-02 0.69296308E+03</pdfrwt>
<totfact> 0.23904787E+02</totfact>
</mgrwt>
</event>
<event>
 4    1  0.5621415E-005  0.6435580E+03  0.7818608E-02  0.9818943E-01
         -2   -1    0    0    0  501 -0.00000000000E+00  0.00000000000E+00  0.72054280576E+02  0.72054280621E+02  0.25500000000E-02 0. -1.
          2   -1    0    0  501    0  0.00000000000E+00 -0.00000000000E+00 -0.14369963383E+04  0.14369963383E+04  0.25500000000E-02 0.  1.
    5000001    1    1    2    0    0 -0.15974706777E+03  0.19961710117E+03 -0.59754890016E+03  0.67771291918E+03  0.19200000000E+03 0.  0.
   -5000001    1    1    2    0    0  0.15974706777E+03 -0.19961710117E+03 -0.76739315758E+03  0.83133769976E+03  0.19200000000E+03 0.  0.
<mgrwt>
<rscale>  0 0.64355804E+03</rscale>
<asrwt>0</asrwt>
<pdfrwt beam="1">  1        2 0.20528517E+00 0.64355804E+03</pdfrwt>
<pdfrwt beam="2">  1       -2 0.10293470E-01 0.64355804E+03</pdfrwt>
<totfact> 0.10472055E+03</totfact>
</mgrwt>
</event>
<event>
 4    1  0.5621415E-005  0.6906594E+03  0.7818608E-02  0.9733340E-01
         -2   -1    0    0    0  501 -0.00000000000E+00  0.00000000000E+00  0.40034831855E+03  0.40034831856E+03  0.25500000000E-02 0. -1.
          2   -1    0    0  501    0  0.00000000000E+00 -0.00000000000E+00 -0.29787215712E+03  0.29787215713E+03  0.25500000000E-02 0.  1.
    5000001    1    1    2    0    0 -0.16484415274E+03  0.23342457439E+03  0.23961400082E+02  0.34510690419E+03  0.19200000000E+03 0.  0.
   -5000001    1    1    2    0    0  0.16484415274E+03 -0.23342457439E+03  0.78514761353E+02  0.35311357150E+03  0.19200000000E+03 0.  0.
<mgrwt>
<rscale>  0 0.69065945E+03</rscale>
<asrwt>0</asrwt>
<pdfrwt beam="1">  1        2 0.42553165E-01 0.69065945E+03</pdfrwt>
<pdfrwt beam="2">  1       -2 0.57192617E-01 0.69065945E+03</pdfrwt>
<totfact> 0.34743275E+02</totfact>
</mgrwt>
</event>
<event>
 4    1  0.5621415E-005  0.4898089E+03  0.7818608E-02  0.1016474E+00
          2   -1    0    0  501    0  0.00000000000E+00  0.00000000000E+00  0.18659586015E+04  0.18659586015E+04  0.25500000000E-02 0.  1.
         -2   -1    0    0    0  501 -0.00000000000E+00 -0.00000000000E+00 -0.32143359211E+02  0.32143359313E+02  0.25500000000E-02 0. -1.
    5000001    1    1    2    0    0  0.55615505887E+02 -0.12633155405E+03  0.11638709574E+04  0.11876499280E+04  0.19200000000E+03 0.  0.
   -5000001    1    1    2    0    0 -0.55615505887E+02  0.12633155405E+03  0.66994428483E+03  0.71045203273E+03  0.19200000000E+03 0.  0.
<mgrwt>
<rscale>  0 0.48980885E+03</rscale>
<asrwt>0</asrwt>
<pdfrwt beam="1">  1        2 0.26656550E+00 0.48980885E+03</pdfrwt>
<pdfrwt beam="2">  1       -2 0.45919086E-02 0.48980885E+03</pdfrwt>
<totfact> 0.22724553E+03</totfact>
</mgrwt>
</event>
<event>
 4    1  0.5621415E-005  0.5920983E+03  0.7818608E-02  0.9921937E-01
         -2   -1    0    0    0  501 -0.00000000000E+00  0.00000000000E+00  0.15383099038E+03  0.15383099040E+03  0.25500000000E-02 0. -1.
          2   -1    0    0  501    0  0.00000000000E+00 -0.00000000000E+00 -0.56974926942E+03  0.56974926943E+03  0.25500000000E-02 0.  1.
    5000001    1    1    2    0    0 -0.16497648933E+03 -0.15172704124E+03 -0.23642968258E+03  0.37815516905E+03  0.19200000000E+03 0.  0.
   -5000001    1    1    2    0    0  0.16497648933E+03  0.15172704124E+03 -0.17948859647E+03  0.34542509077E+03  0.19200000000E+03 0.  0.
<mgrwt>
<rscale>  0 0.59209828E+03</rscale>
<asrwt>0</asrwt>
<pdfrwt beam="1">  1        2 0.81392752E-01 0.59209828E+03</pdfrwt>
<pdfrwt beam="2">  1       -2 0.21975856E-01 0.59209828E+03</pdfrwt>
<totfact> 0.10439392E+03</totfact>
</mgrwt>
</event>
<event>
 4    1  0.5621415E-005  0.4716885E+03  0.7818608E-02  0.1021445E+00
         -2   -1    0    0    0  501 -0.00000000000E+00  0.00000000000E+00  0.21195383843E+03  0.21195383845E+03  0.25500000000E-02 0. -1.
          2   -1    0    0  501    0  0.00000000000E+00 -0.00000000000E+00 -0.26242743207E+03  0.26242743208E+03  0.25500000000E-02 0.  1.
    5000001    1    1    2    0    0  0.64441100379E+02  0.11763707373E+03  0.26227004779E+01  0.23422641843E+03  0.19200000000E+03 0.  0.
   -5000001    1    1    2    0    0 -0.64441100379E+02 -0.11763707373E+03 -0.53096294110E+02  0.24015485209E+03  0.19200000000E+03 0.  0.
<mgrwt>
<rscale>  0 0.47168846E+03</rscale>
<asrwt>0</asrwt>
<pdfrwt beam="1">  1        2 0.37489633E-01 0.47168846E+03</pdfrwt>
<pdfrwt beam="2">  1       -2 0.30279120E-01 0.47168846E+03</pdfrwt>
<totfact> 0.13905523E+03</totfact>
</mgrwt>
</event>
<event>
 4    1  0.5621415E-005  0.5091189E+03  0.7818608E-02  0.1011426E+00
         -2   -1    0    0    0  501 -0.00000000000E+00  0.00000000000E+00  0.27759569699E+03  0.27759569700E+03  0.25500000000E-02 0. -1.
          2   -1    0    0  501    0  0.00000000000E+00 -0.00000000000E+00 -0.23343486192E+03  0.23343486194E+03  0.25500000000E-02 0.  1.
    5000001    1    1    2    0    0 -0.35091078077E+01 -0.15988402374E+03  0.70856069345E+02  0.25973023976E+03  0.19200000000E+03 0.  0.
   -5000001    1    1    2    0    0  0.35091078077E+01  0.15988402374E+03 -0.26695234277E+02  0.25130031918E+03  0.19200000000E+03 0.  0.
<mgrwt>
<rscale>  0 0.50911890E+03</rscale>
<asrwt>0</asrwt>
<pdfrwt beam="1">  1        2 0.33347838E-01 0.50911890E+03</pdfrwt>
<pdfrwt beam="2">  1       -2 0.39656528E-01 0.50911890E+03</pdfrwt>
<totfact> 0.95198861E+02</totfact>
</mgrwt>
</event>
<event>
 4    1  0.5621415E-005  0.4339745E+03  0.7818608E-02  0.1032612E+00
          2   -1    0    0  501    0  0.00000000000E+00  0.00000000000E+00  0.29302525636E+04  0.29302525636E+04  0.25500000000E-02 0.  1.
         -2   -1    0    0    0  501 -0.00000000000E+00 -0.00000000000E+00 -0.16068057394E+02  0.16068057597E+02  0.25500000000E-02 0. -1.
    5000001    1    1    2    0    0  0.48436999019E+02 -0.88662746020E+02  0.14333386786E+04  0.14496658212E+04  0.19200000000E+03 0.  0.
   -5000001    1    1    2    0    0 -0.48436999019E+02  0.88662746020E+02  0.14808458276E+04  0.14966548001E+04  0.19200000000E+03 0.  0.
<mgrwt>
<rscale>  0 0.43397450E+03</rscale>
<asrwt>0</asrwt>
<pdfrwt beam="1">  1        2 0.41860712E+00 0.43397450E+03</pdfrwt>
<pdfrwt beam="2">  1       -2 0.22954389E-02 0.43397450E+03</pdfrwt>
<totfact> 0.18752623E+03</totfact>
</mgrwt>
</event>
<event>
 4    1  0.5621415E-005  0.4527587E+03  0.7818608E-02  0.1026903E+00
          2   -1    0    0  501    0  0.00000000000E+00  0.00000000000E+00  0.42714144394E+03  0.42714144395E+03  0.25500000000E-02 0.  1.
         -2   -1    0    0    0  501 -0.00000000000E+00 -0.00000000000E+00 -0.11997809696E+03  0.11997809699E+03  0.25500000000E-02 0. -1.
    5000001    1    1    2    0    0  0.10284781892E+03 -0.56943766547E+02  0.12489996649E+03  0.25745731304E+03  0.19200000000E+03 0.  0.
   -5000001    1    1    2    0    0 -0.10284781892E+03  0.56943766547E+02  0.18226338049E+03  0.28966222790E+03  0.19200000000E+03 0.  0.
<mgrwt>
<rscale>  0 0.45275873E+03</rscale>
<asrwt>0</asrwt>
<pdfrwt beam="1">  1        2 0.61020206E-01 0.45275873E+03</pdfrwt>
<pdfrwt beam="2">  1       -2 0.17139728E-01 0.45275873E+03</pdfrwt>
<totfact> 0.22222384E+03</totfact>
</mgrwt>
</event>
<event>
 4    1  0.5621415E-005  0.4766047E+03  0.7818608E-02  0.1020072E+00
          2   -1    0    0  501    0  0.00000000000E+00  0.00000000000E+00  0.34262615336E+04  0.34262615336E+04  0.25500000000E-02 0.  1.
         -2   -1    0    0    0  501 -0.00000000000E+00 -0.00000000000E+00 -0.16574333654E+02  0.16574333850E+02  0.25500000000E-02 0. -1.
    5000001    1    1    2    0    0 -0.59558036231E+02 -0.11899510193E+03  0.13647161526E+04  0.13845653365E+04  0.19200000000E+03 0.  0.
   -5000001    1    1    2    0    0  0.59558036231E+02  0.11899510193E+03  0.20449710473E+04  0.20582705309E+04  0.19200000000E+03 0.  0.
<mgrwt>
<rscale>  0 0.47660467E+03</rscale>
<asrwt>0</asrwt>
<pdfrwt beam="1">  1        2 0.48946598E+00 0.47660467E+03</pdfrwt>
<pdfrwt beam="2">  1       -2 0.23677617E-02 0.47660467E+03</pdfrwt>
<totfact> 0.94508463E+02</totfact>
</mgrwt>
</event>
<event>
 4    1  0.5621415E-005  0.4649271E+03  0.7818608E-02  0.1023362E+00
         -2   -1    0    0    0  501 -0.00000000000E+00  0.00000000000E+00  0.30314002608E+02  0.30314002716E+02  0.25500000000E-02 0. -1.
          2   -1    0    0  501    0  0.00000000000E+00 -0.00000000000E+00 -0.17826513536E+04  0.17826513536E+04  0.25500000000E-02 0.  1.
    5000001    1    1    2    0    0  0.10309051441E+02  0.12669645010E+03 -0.75181124815E+03  0.78628393081E+03  0.19200000000E+03 0.  0.
   -5000001    1    1    2    0    0 -0.10309051441E+02 -0.12669645010E+03 -0.10005261029E+04  0.10266814255E+04  0.19200000000E+03 0.  0.
<mgrwt>
<rscale>  0 0.46492708E+03</rscale>
<asrwt>0</asrwt>
<pdfrwt beam="1">  1        2 0.25466441E+00 0.46492708E+03</pdfrwt>
<pdfrwt beam="2">  1       -2 0.43305729E-02 0.46492708E+03</pdfrwt>
<totfact> 0.27387690E+03</totfact>
</mgrwt>
</event>
<event>
 4    1  0.5621415E-005  0.6274190E+03  0.7818608E-02  0.9850098E-01
          2   -1    0    0  501    0  0.00000000000E+00  0.00000000000E+00  0.10259983675E+04  0.10259983675E+04  0.25500000000E-02 0.  1.
         -2   -1    0    0    0  501 -0.00000000000E+00 -0.00000000000E+00 -0.95919904363E+02  0.95919904397E+02  0.25500000000E-02 0. -1.
    5000001    1    1    2    0    0  0.57496235646E+02  0.17366511970E+03  0.76470361344E+03  0.80938310294E+03  0.19200000000E+03 0.  0.
   -5000001    1    1    2    0    0 -0.57496235646E+02 -0.17366511970E+03  0.16537484967E+03  0.31253516893E+03  0.19200000000E+03 0.  0.
<mgrwt>
<rscale>  0 0.62741905E+03</rscale>
<asrwt>0</asrwt>
<pdfrwt beam="1">  1        2 0.14657120E+00 0.62741905E+03</pdfrwt>
<pdfrwt beam="2">  1       -2 0.13702843E-01 0.62741905E+03</pdfrwt>
<totfact> 0.11101146E+03</totfact>
</mgrwt>
</event>
<event>
 4    1  0.5621415E-005  0.6484980E+03  0.7818608E-02  0.9809602E-01
          2   -1    0    0  501    0  0.00000000000E+00  0.00000000000E+00  0.27485093306E+03  0.27485093307E+03  0.25500000000E-02 0.  1.
         -2   -1    0    0    0  501 -0.00000000000E+00 -0.00000000000E+00 -0.38252522677E+03  0.38252522678E+03  0.25500000000E-02 0. -1.
    5000001    1    1    2    0    0  0.47349338534E+02 -0.21532249774E+03 -0.19599859747E+03  0.35197327754E+03  0.19200000000E+03 0.  0.
   -5000001    1    1    2    0    0 -0.47349338534E+02  0.21532249774E+03  0.88324303759E+02  0.30540288232E+03  0.19200000000E+03 0.  0.
<mgrwt>
<rscale>  0 0.64849800E+03</rscale>
<asrwt>0</asrwt>
<pdfrwt beam="1">  1        2 0.39264419E-01 0.64849800E+03</pdfrwt>
<pdfrwt beam="2">  1       -2 0.54646461E-01 0.64849800E+03</pdfrwt>
<totfact> 0.41790738E+02</totfact>
</mgrwt>
</event>
<event>
 4    1  0.5621415E-005  0.9148183E+03  0.7818608E-02  0.9407245E-01
         -2   -1    0    0    0  501 -0.00000000000E+00  0.00000000000E+00  0.80731282402E+02  0.80731282442E+02  0.25500000000E-02 0. -1.
          2   -1    0    0  501    0  0.00000000000E+00 -0.00000000000E+00 -0.25915995019E+04  0.25915995019E+04  0.25500000000E-02 0.  1.
    5000001    1    1    2    0    0 -0.30832001005E+03  0.24734946292E+03 -0.88459441556E+03  0.98773187933E+03  0.19200000000E+03 0.  0.
   -5000001    1    1    2    0    0  0.30832001005E+03 -0.24734946292E+03 -0.16262738039E+04  0.16845989050E+04  0.19200000000E+03 0.  0.
<mgrwt>
<rscale>  0 0.91481835E+03</rscale>
<asrwt>0</asrwt>
<pdfrwt beam="1">  1        2 0.37022845E+00 0.91481835E+03</pdfrwt>
<pdfrwt beam="2">  1       -2 0.11533042E-01 0.91481835E+03</pdfrwt>
<totfact> 0.21849302E+02</totfact>
</mgrwt>
</event>
<event>
 4    1  0.5621415E-005  0.8075859E+03  0.7818608E-02  0.9549101E-01
         -2   -1    0    0    0  501 -0.00000000000E+00  0.00000000000E+00  0.13970475843E+03  0.13970475845E+03  0.25500000000E-02 0. -1.
          2   -1    0    0  501    0  0.00000000000E+00 -0.00000000000E+00 -0.11670950381E+04  0.11670950381E+04  0.25500000000E-02 0.  1.
    5000001    1    1    2    0    0 -0.75465474184E+02 -0.32718610805E+03 -0.32610806448E+03  0.50592119625E+03  0.19200000000E+03 0.  0.
   -5000001    1    1    2    0    0  0.75465474184E+02  0.32718610805E+03 -0.70128221519E+03  0.80087860031E+03  0.19200000000E+03 0.  0.
<mgrwt>
<rscale>  0 0.80758586E+03</rscale>
<asrwt>0</asrwt>
<pdfrwt beam="1">  1        2 0.16672786E+00 0.80758586E+03</pdfrwt>
<pdfrwt beam="2">  1       -2 0.19957823E-01 0.80758586E+03</pdfrwt>
<totfact> 0.47961642E+02</totfact>
</mgrwt>
</event>
<event>
 4    1  0.5621415E-005  0.7158436E+03  0.7818608E-02  0.9690515E-01
          2   -1    0    0  501    0  0.00000000000E+00  0.00000000000E+00  0.48195203180E+03  0.48195203181E+03  0.25500000000E-02 0.  1.
         -2   -1    0    0    0  501 -0.00000000000E+00 -0.00000000000E+00 -0.26581068641E+03  0.26581068642E+03  0.25500000000E-02 0. -1.
    5000001    1    1    2    0    0  0.14482519121E+03 -0.65997395752E+02  0.37625571206E+03  0.45140043543E+03  0.19200000000E+03 0.  0.
   -5000001    1    1    2    0    0 -0.14482519121E+03  0.65997395752E+02 -0.16011436666E+03  0.29636228280E+03  0.19200000000E+03 0.  0.
<mgrwt>
<rscale>  0 0.71584356E+03</rscale>
<asrwt>0</asrwt>
<pdfrwt beam="1">  1        2 0.68850290E-01 0.71584356E+03</pdfrwt>
<pdfrwt beam="2">  1       -2 0.37972955E-01 0.71584356E+03</pdfrwt>
<totfact> 0.46120488E+02</totfact>
</mgrwt>
</event>
<event>
 4    1  0.5621415E-005  0.5085148E+03  0.7818608E-02  0.1011580E+00
         -2   -1    0    0    0  501 -0.00000000000E+00  0.00000000000E+00  0.12120955707E+03  0.12120955710E+03  0.25500000000E-02 0. -1.
          2   -1    0    0  501    0  0.00000000000E+00 -0.00000000000E+00 -0.53334765936E+03  0.53334765937E+03  0.25500000000E-02 0.  1.
    5000001    1    1    2    0    0 -0.16448554010E+03 -0.23911562062E+02 -0.19001377072E+03  0.31716949533E+03  0.19200000000E+03 0.  0.
   -5000001    1    1    2    0    0  0.16448554010E+03  0.23911562062E+02 -0.22212433157E+03  0.33738772114E+03  0.19200000000E+03 0.  0.
<mgrwt>
<rscale>  0 0.50851483E+03</rscale>
<asrwt>0</asrwt>
<pdfrwt beam="1">  1        2 0.76192522E-01 0.50851483E+03</pdfrwt>
<pdfrwt beam="2">  1       -2 0.17315651E-01 0.50851483E+03</pdfrwt>
<totfact> 0.17031576E+03</totfact>
</mgrwt>
</event>
<event>
 4    1  0.5621415E-005  0.6642216E+03  0.7818608E-02  0.9780453E-01
          2   -1    0    0  501    0  0.00000000000E+00  0.00000000000E+00  0.81905822261E+02  0.81905822301E+02  0.25500000000E-02 0.  1.
         -2   -1    0    0    0  501 -0.00000000000E+00 -0.00000000000E+00 -0.13466389650E+04  0.13466389650E+04  0.25500000000E-02 0. -1.
    5000001    1    1    2    0    0 -0.29623986434E+02 -0.26603767852E+03 -0.72310351681E+03  0.79460450728E+03  0.19200000000E+03 0.  0.
   -5000001    1    1    2    0    0  0.29623986434E+02  0.26603767852E+03 -0.54162962597E+03  0.63394028006E+03  0.19200000000E+03 0.  0.
<mgrwt>
<rscale>  0 0.66422156E+03</rscale>
<asrwt>0</asrwt>
<pdfrwt beam="1">  1        2 0.11700833E-01 0.66422156E+03</pdfrwt>
<pdfrwt beam="2">  1       -2 0.19237698E+00 0.66422156E+03</pdfrwt>
<totfact> 0.83143638E+01</totfact>
</mgrwt>
</event>
<event>
 4    1  0.5621415E-005  0.5545874E+03  0.7818608E-02  0.1000438E+00
         -2   -1    0    0    0  501 -0.00000000000E+00  0.00000000000E+00  0.42742472914E+02  0.42742472991E+02  0.25500000000E-02 0. -1.
          2   -1    0    0  501    0  0.00000000000E+00 -0.00000000000E+00 -0.17989553831E+04  0.17989553831E+04  0.25500000000E-02 0.  1.
    5000001    1    1    2    0    0  0.87414612763E+02 -0.15986724350E+03 -0.11525325399E+04  0.11825371477E+04  0.19200000000E+03 0.  0.
   -5000001    1    1    2    0    0 -0.87414612763E+02  0.15986724350E+03 -0.60368037022E+03  0.65916070837E+03  0.19200000000E+03 0.  0.
<mgrwt>
<rscale>  0 0.55458742E+03</rscale>
<asrwt>0</asrwt>
<pdfrwt beam="1">  1        2 0.25699358E+00 0.55458742E+03</pdfrwt>
<pdfrwt beam="2">  1       -2 0.61060687E-02 0.55458742E+03</pdfrwt>
<totfact> 0.15743286E+03</totfact>
</mgrwt>
</event>
<event>
 4    1  0.5621415E-005  0.6980896E+03  0.7818608E-02  0.9720505E-01
         -2   -1    0    0    0  501 -0.00000000000E+00  0.00000000000E+00  0.15728369631E+03  0.15728369633E+03  0.25500000000E-02 0. -1.
          2   -1    0    0  501    0  0.00000000000E+00 -0.00000000000E+00 -0.77460198234E+03  0.77460198235E+03  0.25500000000E-02 0.  1.
    5000001    1    1    2    0    0 -0.14909561437E+03 -0.24967943244E+03 -0.28199631358E+03  0.44828031641E+03  0.19200000000E+03 0.  0.
   -5000001    1    1    2    0    0  0.14909561437E+03  0.24967943244E+03 -0.33532197246E+03  0.48360536227E+03  0.19200000000E+03 0.  0.
<mgrwt>
<rscale>  0 0.69808957E+03</rscale>
<asrwt>0</asrwt>
<pdfrwt beam="1">  1        2 0.11065742E+00 0.69808957E+03</pdfrwt>
<pdfrwt beam="2">  1       -2 0.22469100E-01 0.69808957E+03</pdfrwt>
<totfact> 0.69040027E+02</totfact>
</mgrwt>
</event>
<event>
 4    1  0.5621415E-005  0.4800653E+03  0.7818608E-02  0.1019117E+00
         -2   -1    0    0    0  501 -0.00000000000E+00  0.00000000000E+00  0.76142827674E+02  0.76142827717E+02  0.25500000000E-02 0. -1.
          2   -1    0    0  501    0  0.00000000000E+00 -0.00000000000E+00 -0.75667879794E+03  0.75667879794E+03  0.25500000000E-02 0.  1.
    5000001    1    1    2    0    0 -0.29033145163E+02  0.13117727921E+03 -0.25010360354E+03  0.34273344541E+03  0.19200000000E+03 0.  0.
   -5000001    1    1    2    0    0  0.29033145163E+02 -0.13117727921E+03 -0.43043236673E+03  0.49008818025E+03  0.19200000000E+03 0.  0.
<mgrwt>
<rscale>  0 0.48006526E+03</rscale>
<asrwt>0</asrwt>
<pdfrwt beam="1">  1        2 0.10809697E+00 0.48006526E+03</pdfrwt>
<pdfrwt beam="2">  1       -2 0.10877547E-01 0.48006526E+03</pdfrwt>
<totfact> 0.24339854E+03</totfact>
</mgrwt>
</event>
<event>
 4    1  0.5621415E-005  0.5276539E+03  0.7818608E-02  0.1006803E+00
         -2   -1    0    0    0  501 -0.00000000000E+00  0.00000000000E+00  0.59455701802E+02  0.59455701857E+02  0.25500000000E-02 0. -1.
          2   -1    0    0  501    0  0.00000000000E+00 -0.00000000000E+00 -0.11706977314E+04  0.11706977314E+04  0.25500000000E-02 0.  1.
    5000001    1    1    2    0    0  0.10703929762E+03 -0.68464879433E+02 -0.85595833158E+03  0.88638226311E+03  0.19200000000E+03 0.  0.
   -5000001    1    1    2    0    0 -0.10703929762E+03  0.68464879433E+02 -0.25528369801E+03  0.34377117014E+03  0.19200000000E+03 0.  0.
<mgrwt>
<rscale>  0 0.52765388E+03</rscale>
<asrwt>0</asrwt>
<pdfrwt beam="1">  1        2 0.16724252E+00 0.52765388E+03</pdfrwt>
<pdfrwt beam="2">  1       -2 0.84936724E-02 0.52765388E+03</pdfrwt>
<totfact> 0.19985821E+03</totfact>
</mgrwt>
</event>
<event>
 4    1  0.5621415E-005  0.5327670E+03  0.7818608E-02  0.1005563E+00
         -2   -1    0    0    0  501 -0.00000000000E+00  0.00000000000E+00  0.50157765790E+03  0.50157765791E+03  0.25500000000E-02 0. -1.
          2   -1    0    0  501    0  0.00000000000E+00 -0.00000000000E+00 -0.14147392595E+03  0.14147392598E+03  0.25500000000E-02 0.  1.
    5000001    1    1    2    0    0 -0.12186851490E+03  0.59767506121E+02  0.28949343734E+02  0.23690959080E+03  0.19200000000E+03 0.  0.
   -5000001    1    1    2    0    0  0.12186851490E+03 -0.59767506121E+02  0.33115438821E+03  0.40614199308E+03  0.19200000000E+03 0.  0.
<mgrwt>
<rscale>  0 0.53276697E+03</rscale>
<asrwt>0</asrwt>
<pdfrwt beam="1">  1        2 0.20210561E-01 0.53276697E+03</pdfrwt>
<pdfrwt beam="2">  1       -2 0.71653952E-01 0.53276697E+03</pdfrwt>
<totfact> 0.49995768E+02</totfact>
</mgrwt>
</event>
<event>
 4    1  0.5621415E-005  0.6438671E+03  0.7818608E-02  0.9818356E-01
         -2   -1    0    0    0  501 -0.00000000000E+00  0.00000000000E+00  0.71123858954E+02  0.71123858999E+02  0.25500000000E-02 0. -1.
          2   -1    0    0  501    0  0.00000000000E+00 -0.00000000000E+00 -0.14571933600E+04  0.14571933600E+04  0.25500000000E-02 0.  1.
    5000001    1    1    2    0    0  0.13110293098E+02 -0.14251159540E+03 -0.12037607505E+04  0.12273489231E+04  0.19200000000E+03 0.  0.
   -5000001    1    1    2    0    0 -0.13110293098E+02  0.14251159540E+03 -0.18230875055E+03  0.30096829590E+03  0.19200000000E+03 0.  0.
<mgrwt>
<rscale>  0 0.64386711E+03</rscale>
<asrwt>0</asrwt>
<pdfrwt beam="1">  1        2 0.20817046E+00 0.64386711E+03</pdfrwt>
<pdfrwt beam="2">  1       -2 0.10160552E-01 0.64386711E+03</pdfrwt>
<totfact> 0.10436446E+03</totfact>
</mgrwt>
</event>
<event>
 4    1  0.5621415E-005  0.3990443E+03  0.7818608E-02  0.1044111E+00
          2   -1    0    0  501    0  0.00000000000E+00  0.00000000000E+00  0.86075835357E+02  0.86075835395E+02  0.25500000000E-02 0.  1.
         -2   -1    0    0    0  501 -0.00000000000E+00 -0.00000000000E+00 -0.46248859692E+03  0.46248859693E+03  0.25500000000E-02 0. -1.
    5000001    1    1    2    0    0  0.38382135983E+01 -0.27165128902E+02 -0.25257408442E+03  0.31844990851E+03  0.19200000000E+03 0.  0.
   -5000001    1    1    2    0    0 -0.38382135983E+01  0.27165128902E+02 -0.12383867715E+03  0.23011452381E+03  0.19200000000E+03 0.  0.
<mgrwt>
<rscale>  0 0.39904432E+03</rscale>
<asrwt>0</asrwt>
<pdfrwt beam="1">  1        2 0.12296548E-01 0.39904432E+03</pdfrwt>
<pdfrwt beam="2">  1       -2 0.66069798E-01 0.39904432E+03</pdfrwt>
<totfact> 0.10787293E+03</totfact>
</mgrwt>
</event>
<event>
 4    1  0.5621415E-005  0.6450305E+03  0.7818608E-02  0.9816149E-01
         -2   -1    0    0    0  501 -0.00000000000E+00  0.00000000000E+00  0.44146278586E+02  0.44146278659E+02  0.25500000000E-02 0. -1.
          2   -1    0    0  501    0  0.00000000000E+00 -0.00000000000E+00 -0.23561688418E+04  0.23561688418E+04  0.25500000000E-02 0.  1.
    5000001    1    1    2    0    0 -0.16112937547E+03 -0.91699926153E+01 -0.19104727023E+04  0.19268670714E+04  0.19200000000E+03 0.  0.
   -5000001    1    1    2    0    0  0.16112937547E+03  0.91699926153E+01 -0.40154986088E+03  0.47344804908E+03  0.19200000000E+03 0.  0.
<mgrwt>
<rscale>  0 0.64503050E+03</rscale>
<asrwt>0</asrwt>
<pdfrwt beam="1">  1        2 0.33659547E+00 0.64503050E+03</pdfrwt>
<pdfrwt beam="2">  1       -2 0.63066127E-02 0.64503050E+03</pdfrwt>
<totfact> 0.78022720E+02</totfact>
</mgrwt>
</event>
<event>
 4    1  0.5621415E-005  0.8567269E+03  0.7818608E-02  0.9481353E-01
          2   -1    0    0  501    0  0.00000000000E+00  0.00000000000E+00  0.17172423567E+04  0.17172423567E+04  0.25500000000E-02 0.  1.
         -2   -1    0    0    0  501 -0.00000000000E+00 -0.00000000000E+00 -0.10685460020E+03  0.10685460023E+03  0.25500000000E-02 0. -1.
    5000001    1    1    2    0    0 -0.17281831545E+03 -0.33138091174E+03  0.98271625715E+03  0.10687725300E+04  0.19200000000E+03 0.  0.
   -5000001    1    1    2    0    0  0.17281831545E+03  0.33138091174E+03  0.62767149940E+03  0.75532442697E+03  0.19200000000E+03 0.  0.
<mgrwt>
<rscale>  0 0.85672690E+03</rscale>
<asrwt>0</asrwt>
<pdfrwt beam="1">  1        2 0.24532036E+00 0.85672690E+03</pdfrwt>
<pdfrwt beam="2">  1       -2 0.15264941E-01 0.85672690E+03</pdfrwt>
<totfact> 0.38501130E+02</totfact>
</mgrwt>
</event>
<event>
 4    1  0.5621415E-005  0.1018346E+04  0.7818608E-02  0.9288649E-01
         -2   -1    0    0    0  501 -0.00000000000E+00  0.00000000000E+00  0.13394054850E+03  0.13394054852E+03  0.25500000000E-02 0. -1.
          2   -1    0    0  501    0  0.00000000000E+00 -0.00000000000E+00 -0.19356143492E+04  0.19356143492E+04  0.25500000000E-02 0.  1.
    5000001    1    1    2    0    0 -0.14428340872E+03 -0.40376435991E+03 -0.50181837556E+03  0.68740747916E+03  0.19200000000E+03 0.  0.
   -5000001    1    1    2    0    0  0.14428340872E+03  0.40376435991E+03 -0.12998554252E+04  0.13821474186E+04  0.19200000000E+03 0.  0.
<mgrwt>
<rscale>  0 0.10183462E+04</rscale>
<asrwt>0</asrwt>
<pdfrwt beam="1">  1        2 0.27651632E+00 0.10183462E+04</pdfrwt>
<pdfrwt beam="2">  1       -2 0.19134365E-01 0.10183462E+04</pdfrwt>
<totfact> 0.19969997E+02</totfact>
</mgrwt>
</event>
<event>
 4    1  0.5621415E-005  0.1091493E+04  0.7818608E-02  0.9213523E-01
         -2   -1    0    0    0  501 -0.00000000000E+00  0.00000000000E+00  0.57592930655E+03  0.57592930656E+03  0.25500000000E-02 0. -1.
          2   -1    0    0  501    0  0.00000000000E+00 -0.00000000000E+00 -0.51714539136E+03  0.51714539137E+03  0.25500000000E-02 0.  1.
    5000001    1    1    2    0    0  0.24934257428E+02 -0.50600485461E+03  0.95157185446E+02  0.55007410412E+03  0.19200000000E+03 0.  0.
   -5000001    1    1    2    0    0 -0.24934257428E+02  0.50600485461E+03 -0.36373270254E+02  0.54300059380E+03  0.19200000000E+03 0.  0.
<mgrwt>
<rscale>  0 0.10914929E+04</rscale>
<asrwt>0</asrwt>
<pdfrwt beam="1">  1        2 0.73877913E-01 0.10914929E+04</pdfrwt>
<pdfrwt beam="2">  1       -2 0.82275615E-01 0.10914929E+04</pdfrwt>
<totfact> 0.83334046E+01</totfact>
</mgrwt>
</event>
<event>
 4    1  0.5621415E-005  0.6801697E+03  0.7818608E-02  0.9751759E-01
          2   -1    0    0  501    0  0.00000000000E+00  0.00000000000E+00  0.18641391806E+04  0.18641391806E+04  0.25500000000E-02 0.  1.
         -2   -1    0    0    0  501 -0.00000000000E+00 -0.00000000000E+00 -0.62043490919E+02  0.62043490972E+02  0.25500000000E-02 0. -1.
    5000001    1    1    2    0    0  0.67795215343E+01 -0.18616108559E+03  0.14956946146E+04  0.15194302524E+04  0.19200000000E+03 0.  0.
   -5000001    1    1    2    0    0 -0.67795215343E+01  0.18616108559E+03  0.30640107504E+03  0.40675241915E+03  0.19200000000E+03 0.  0.
<mgrwt>
<rscale>  0 0.68016969E+03</rscale>
<asrwt>0</asrwt>
<pdfrwt beam="1">  1        2 0.26630564E+00 0.68016969E+03</pdfrwt>
<pdfrwt beam="2">  1       -2 0.88633546E-02 0.68016969E+03</pdfrwt>
<totfact> 0.80311355E+02</totfact>
</mgrwt>
</event>
<event>
 4    1  0.5621415E-005  0.4747299E+03  0.7818608E-02  0.1020594E+00
          2   -1    0    0  501    0  0.00000000000E+00  0.00000000000E+00  0.29843305654E+03  0.29843305655E+03  0.25500000000E-02 0.  1.
         -2   -1    0    0    0  501 -0.00000000000E+00 -0.00000000000E+00 -0.18879315894E+03  0.18879315896E+03  0.25500000000E-02 0. -1.
    5000001    1    1    2    0    0  0.84100161474E+02 -0.94671484428E+02  0.11503802296E+03  0.25716390464E+03  0.19200000000E+03 0.  0.
   -5000001    1    1    2    0    0 -0.84100161474E+02  0.94671484428E+02 -0.53981253667E+01  0.23006231087E+03  0.19200000000E+03 0.  0.
<mgrwt>
<rscale>  0 0.47472990E+03</rscale>
<asrwt>0</asrwt>
<pdfrwt beam="1">  1        2 0.42633294E-01 0.47472990E+03</pdfrwt>
<pdfrwt beam="2">  1       -2 0.26970451E-01 0.47472990E+03</pdfrwt>
<totfact> 0.14912562E+03</totfact>
</mgrwt>
</event>
<event>
 4    1  0.5621415E-005  0.6963400E+03  0.7818608E-02  0.9723512E-01
         -2   -1    0    0    0  501 -0.00000000000E+00  0.00000000000E+00  0.21276706398E+03  0.21276706400E+03  0.25500000000E-02 0. -1.
          2   -1    0    0  501    0  0.00000000000E+00 -0.00000000000E+00 -0.56974201588E+03  0.56974201589E+03  0.25500000000E-02 0.  1.
    5000001    1    1    2    0    0 -0.11460780066E+03 -0.26687648490E+03 -0.17913281350E+03  0.39154893824E+03  0.19200000000E+03 0.  0.
   -5000001    1    1    2    0    0  0.11460780066E+03  0.26687648490E+03 -0.17784213840E+03  0.39096014164E+03  0.19200000000E+03 0.  0.
<mgrwt>
<rscale>  0 0.69633996E+03</rscale>
<asrwt>0</asrwt>
<pdfrwt beam="1">  1        2 0.81391716E-01 0.69633996E+03</pdfrwt>
<pdfrwt beam="2">  1       -2 0.30395295E-01 0.69633996E+03</pdfrwt>
<totfact> 0.57967574E+02</totfact>
</mgrwt>
</event>
<event>
 4    1  0.5621415E-005  0.1314264E+04  0.7818608E-02  0.9018330E-01
          2   -1    0    0  501    0  0.00000000000E+00  0.00000000000E+00  0.14140988021E+03  0.14140988023E+03  0.25500000000E-02 0.  1.
         -2   -1    0    0    0  501 -0.00000000000E+00 -0.00000000000E+00 -0.30536918765E+04  0.30536918765E+04  0.25500000000E-02 0. -1.
    5000001    1    1    2    0    0  0.28261629816E+03 -0.54659130241E+03 -0.11455292459E+04  0.13144334434E+04  0.19200000000E+03 0.  0.
   -5000001    1    1    2    0    0 -0.28261629816E+03  0.54659130241E+03 -0.17667527503E+04  0.18806683133E+04  0.19200000000E+03 0.  0.
<mgrwt>
<rscale>  0 0.13142636E+04</rscale>
<asrwt>0</asrwt>
<pdfrwt beam="1">  1        2 0.20201413E-01 0.13142636E+04</pdfrwt>
<pdfrwt beam="2">  1       -2 0.43624166E+00 0.13142636E+04</pdfrwt>
<totfact> 0.11991905E+00</totfact>
</mgrwt>
</event>
<event>
 4    1  0.5621415E-005  0.4753532E+03  0.7818608E-02  0.1020420E+00
          2   -1    0    0  501    0  0.00000000000E+00  0.00000000000E+00  0.17249592187E+04  0.17249592187E+04  0.25500000000E-02 0. -1.
         -2   -1    0    0    0  501 -0.00000000000E+00 -0.00000000000E+00 -0.32748702472E+02  0.32748702571E+02  0.25500000000E-02 0.  1.
    5000001    1    1    2    0    0  0.99023289744E+02  0.42202176060E+02  0.51455767274E+03  0.55966082064E+03  0.19200000000E+03 0.  0.
   -5000001    1    1    2    0    0 -0.99023289744E+02 -0.42202176060E+02  0.11776528435E+04  0.11980471006E+04  0.19200000000E+03 0.  0.
<mgrwt>
<rscale>  0 0.47535324E+03</rscale>
<asrwt>0</asrwt>
<pdfrwt beam="1">  1        2 0.24642276E+00 0.47535324E+03</pdfrwt>
<pdfrwt beam="2">  1       -2 0.46783859E-02 0.47535324E+03</pdfrwt>
<totfact> 0.25995597E+03</totfact>
</mgrwt>
</event>
<event>
 4    1  0.5621415E-005  0.5547208E+03  0.7818608E-02  0.1000407E+00
         -2   -1    0    0    0  501 -0.00000000000E+00  0.00000000000E+00  0.34422778596E+02  0.34422778691E+02  0.25500000000E-02 0. -1.
          2   -1    0    0  501    0  0.00000000000E+00 -0.00000000000E+00 -0.22348225456E+04  0.22348225456E+04  0.25500000000E-02 0.  1.
    5000001    1    1    2    0    0  0.16674828060E+03 -0.68912810607E+02 -0.14547283770E+04  0.14783952838E+04  0.19200000000E+03 0.  0.
   -5000001    1    1    2    0    0 -0.16674828060E+03  0.68912810607E+02 -0.74567139001E+03  0.79085004042E+03  0.19200000000E+03 0.  0.
<mgrwt>
<rscale>  0 0.55472084E+03</rscale>
<asrwt>0</asrwt>
<pdfrwt beam="1">  1        2 0.31926027E+00 0.55472084E+03</pdfrwt>
<pdfrwt beam="2">  1       -2 0.49175412E-02 0.55472084E+03</pdfrwt>
<totfact> 0.13326521E+03</totfact>
</mgrwt>
</event>
<event>
 4    1  0.5621415E-005  0.4216952E+03  0.7818608E-02  0.1036516E+00
          2   -1    0    0  501    0  0.00000000000E+00  0.00000000000E+00  0.54276222824E+03  0.54276222824E+03  0.25500000000E-02 0.  1.
         -2   -1    0    0    0  501 -0.00000000000E+00 -0.00000000000E+00 -0.81908251175E+02  0.81908251214E+02  0.25500000000E-02 0. -1.
    5000001    1    1    2    0    0 -0.69622707002E+02 -0.49380353044E+02  0.25638051116E+03  0.33148258943E+03  0.19200000000E+03 0.  0.
   -5000001    1    1    2    0    0  0.69622707002E+02  0.49380353044E+02  0.20447346591E+03  0.29318789003E+03  0.19200000000E+03 0.  0.
<mgrwt>
<rscale>  0 0.42169517E+03</rscale>
<asrwt>0</asrwt>
<pdfrwt beam="1">  1        2 0.77537459E-01 0.42169517E+03</pdfrwt>
<pdfrwt beam="2">  1       -2 0.11701179E-01 0.42169517E+03</pdfrwt>
<totfact> 0.32010699E+03</totfact>
</mgrwt>
</event>
<event>
 4    1  0.5621415E-005  0.5437198E+03  0.7818608E-02  0.1002958E+00
         -2   -1    0    0    0  501 -0.00000000000E+00  0.00000000000E+00  0.33000120363E+03  0.33000120364E+03  0.25500000000E-02 0. -1.
          2   -1    0    0  501    0  0.00000000000E+00 -0.00000000000E+00 -0.22396225887E+03  0.22396225889E+03  0.25500000000E-02 0.  1.
    5000001    1    1    2    0    0 -0.18434471450E+03 -0.55051291664E+02  0.58618136717E+02  0.27805342010E+03  0.19200000000E+03 0.  0.
   -5000001    1    1    2    0    0  0.18434471450E+03  0.55051291664E+02  0.47420808040E+02  0.27591004243E+03  0.19200000000E+03 0.  0.
<mgrwt>
<rscale>  0 0.54371984E+03</rscale>
<asrwt>0</asrwt>
<pdfrwt beam="1">  1        2 0.31994608E-01 0.54371984E+03</pdfrwt>
<pdfrwt beam="2">  1       -2 0.47143029E-01 0.54371984E+03</pdfrwt>
<totfact> 0.70960040E+02</totfact>
</mgrwt>
</event>
<event>
 4    1  0.5621415E-005  0.7932103E+03  0.7818608E-02  0.9569897E-01
          2   -1    0    0  501    0  0.00000000000E+00  0.00000000000E+00  0.74657358214E+03  0.74657358214E+03  0.25500000000E-02 0.  1.
         -2   -1    0    0    0  501 -0.00000000000E+00 -0.00000000000E+00 -0.21069005296E+03  0.21069005298E+03  0.25500000000E-02 0. -1.
    5000001    1    1    2    0    0 -0.30884985334E+03 -0.13329866902E+03  0.37087498845E+03  0.53625462621E+03  0.19200000000E+03 0.  0.
   -5000001    1    1    2    0    0  0.30884985334E+03  0.13329866902E+03  0.16500854073E+03  0.42100900891E+03  0.19200000000E+03 0.  0.
<mgrwt>
<rscale>  0 0.79321026E+03</rscale>
<asrwt>0</asrwt>
<pdfrwt beam="1">  1        2 0.10665337E+00 0.79321026E+03</pdfrwt>
<pdfrwt beam="2">  1       -2 0.30098578E-01 0.79321026E+03</pdfrwt>
<totfact> 0.42435699E+02</totfact>
</mgrwt>
</event>
<event>
 4    1  0.5621415E-005  0.8989877E+03  0.7818608E-02  0.9426848E-01
          2   -1    0    0  501    0  0.00000000000E+00  0.00000000000E+00  0.17413665466E+04  0.17413665466E+04  0.25500000000E-02 0.  1.
         -2   -1    0    0    0  501 -0.00000000000E+00 -0.00000000000E+00 -0.11602652108E+03  0.11602652111E+03  0.25500000000E-02 0. -1.
    5000001    1    1    2    0    0 -0.40457454765E+03  0.17501426433E+02  0.74128241640E+03  0.86622773298E+03  0.19200000000E+03 0.  0.
   -5000001    1    1    2    0    0  0.40457454765E+03 -0.17501426433E+02  0.88405760916E+03  0.99116533477E+03  0.19200000000E+03 0.  0.
<mgrwt>
<rscale>  0 0.89898766E+03</rscale>
<asrwt>0</asrwt>
<pdfrwt beam="1">  1        2 0.24876662E+00 0.89898766E+03</pdfrwt>
<pdfrwt beam="2">  1       -2 0.16575219E-01 0.89898766E+03</pdfrwt>
<totfact> 0.32433014E+02</totfact>
</mgrwt>
</event>
<event>
 4    1  0.5621415E-005  0.8352246E+03  0.7818608E-02  0.9510385E-01
         -2   -1    0    0    0  501 -0.00000000000E+00  0.00000000000E+00  0.18712480402E+03  0.18712480404E+03  0.25500000000E-02 0. -1.
          2   -1    0    0  501    0  0.00000000000E+00 -0.00000000000E+00 -0.93199842389E+03  0.93199842390E+03  0.25500000000E-02 0.  1.
    5000001    1    1    2    0    0  0.23433195856E+03 -0.16489928918E+03 -0.68790674459E+03  0.76953423032E+03  0.19200000000E+03 0.  0.
   -5000001    1    1    2    0    0 -0.23433195856E+03  0.16489928918E+03 -0.56966875282E+02  0.34958899762E+03  0.19200000000E+03 0.  0.
<mgrwt>
<rscale>  0 0.83522457E+03</rscale>
<asrwt>0</asrwt>
<pdfrwt beam="1">  1        2 0.13314263E+00 0.83522457E+03</pdfrwt>
<pdfrwt beam="2">  1       -2 0.26732115E-01 0.83522457E+03</pdfrwt>
<totfact> 0.39394188E+02</totfact>
</mgrwt>
</event>
<event>
 4    1  0.5621415E-005  0.7308725E+03  0.7818608E-02  0.9665846E-01
         -2   -1    0    0    0  501 -0.00000000000E+00  0.00000000000E+00  0.18941319162E+03  0.18941319164E+03  0.25500000000E-02 0. -1.
          2   -1    0    0  501    0  0.00000000000E+00 -0.00000000000E+00 -0.70503881061E+03  0.70503881061E+03  0.25500000000E-02 0.  1.
    5000001    1    1    2    0    0 -0.43643089517E+02 -0.19782889030E+03  0.30858592441E+02  0.28081531623E+03  0.19200000000E+03 0.  0.
   -5000001    1    1    2    0    0  0.43643089517E+02  0.19782889030E+03 -0.54648421142E+03  0.61363668603E+03  0.19200000000E+03 0.  0.
<mgrwt>
<rscale>  0 0.73087250E+03</rscale>
<asrwt>0</asrwt>
<pdfrwt beam="1">  1        2 0.10071983E+00 0.73087250E+03</pdfrwt>
<pdfrwt beam="2">  1       -2 0.27059028E-01 0.73087250E+03</pdfrwt>
<totfact> 0.55551399E+02</totfact>
</mgrwt>
</event>
<event>
 4    1  0.5621415E-005  0.4378648E+03  0.7818608E-02  0.1031404E+00
         -2   -1    0    0    0  501 -0.00000000000E+00  0.00000000000E+00  0.22275235238E+02  0.22275235384E+02  0.25500000000E-02 0. -1.
          2   -1    0    0  501    0  0.00000000000E+00 -0.00000000000E+00 -0.21517794836E+04  0.21517794836E+04  0.25500000000E-02 0.  1.
    5000001    1    1    2    0    0  0.16272077649E+02  0.10240007982E+03 -0.97637319822E+03  0.10004594840E+04  0.19200000000E+03 0.  0.
   -5000001    1    1    2    0    0 -0.16272077649E+02 -0.10240007982E+03 -0.11531310501E+04  0.11735952350E+04  0.19200000000E+03 0.  0.
<mgrwt>
<rscale>  0 0.43786479E+03</rscale>
<asrwt>0</asrwt>
<pdfrwt beam="1">  1        2 0.30739694E+00 0.43786479E+03</pdfrwt>
<pdfrwt beam="2">  1       -2 0.31821778E-02 0.43786479E+03</pdfrwt>
<totfact> 0.28691929E+03</totfact>
</mgrwt>
</event>
<event>
 4    1  0.5621415E-005  0.9043951E+03  0.7818608E-02  0.9420104E-01
         -2   -1    0    0    0  501 -0.00000000000E+00  0.00000000000E+00  0.26933620724E+03  0.26933620725E+03  0.25500000000E-02 0.  1.
          2   -1    0    0  501    0  0.00000000000E+00 -0.00000000000E+00 -0.75920963230E+03  0.75920963231E+03  0.25500000000E-02 0. -1.
    5000001    1    1    2    0    0  0.48767859181E+01 -0.40771927725E+03 -0.28687503552E+03  0.53424720691E+03  0.19200000000E+03 0.  0.
   -5000001    1    1    2    0    0 -0.48767859181E+01  0.40771927725E+03 -0.20299838954E+03  0.49429863265E+03  0.19200000000E+03 0.  0.
<mgrwt>
<rscale>  0 0.90439514E+03</rscale>
<asrwt>0</asrwt>
<pdfrwt beam="1">  1        2 0.10845852E+00 0.90439514E+03</pdfrwt>
<pdfrwt beam="2">  1       -2 0.38476601E-01 0.90439514E+03</pdfrwt>
<totfact> 0.25959534E+02</totfact>
</mgrwt>
</event>
<event>
 4    1  0.5621415E-005  0.5757808E+03  0.7818608E-02  0.9956968E-01
          2   -1    0    0  501    0  0.00000000000E+00  0.00000000000E+00  0.10628682753E+04  0.10628682753E+04  0.25500000000E-02 0.  1.
         -2   -1    0    0    0  501 -0.00000000000E+00 -0.00000000000E+00 -0.77978508415E+02  0.77978508457E+02  0.25500000000E-02 0. -1.
    5000001    1    1    2    0    0  0.57821781006E+02 -0.13657180135E+03  0.79953915707E+03  0.83553700036E+03  0.19200000000E+03 0.  0.
   -5000001    1    1    2    0    0 -0.57821781006E+02  0.13657180135E+03  0.18535060982E+03  0.30530978341E+03  0.19200000000E+03 0.  0.
<mgrwt>
<rscale>  0 0.57578080E+03</rscale>
<asrwt>0</asrwt>
<pdfrwt beam="1">  1        2 0.15183831E+00 0.57578080E+03</pdfrwt>
<pdfrwt beam="2">  1       -2 0.11139788E-01 0.57578080E+03</pdfrwt>
<totfact> 0.14871840E+03</totfact>
</mgrwt>
</event>
<event>
 4    1  0.5621415E-005  0.7498322E+03  0.7818608E-02  0.9635614E-01
         -2   -1    0    0    0  501 -0.00000000000E+00  0.00000000000E+00  0.44098563132E+03  0.44098563133E+03  0.25500000000E-02 0. -1.
          2   -1    0    0  501    0  0.00000000000E+00 -0.00000000000E+00 -0.31874525155E+03  0.31874525156E+03  0.25500000000E-02 0.  1.
    5000001    1    1    2    0    0 -0.81495691538E+02  0.17858230205E+03  0.31976426590E+03  0.42148116458E+03  0.19200000000E+03 0.  0.
   -5000001    1    1    2    0    0  0.81495691538E+02 -0.17858230205E+03 -0.19752388613E+03  0.33824971831E+03  0.19200000000E+03 0.  0.
<mgrwt>
<rscale>  0 0.74983218E+03</rscale>
<asrwt>0</asrwt>
<pdfrwt beam="1">  1        2 0.45535036E-01 0.74983218E+03</pdfrwt>
<pdfrwt beam="2">  1       -2 0.62997948E-01 0.74983218E+03</pdfrwt>
<totfact> 0.26241144E+02</totfact>
</mgrwt>
</event>
<event>
 4    1  0.5621415E-005  0.1245893E+04  0.7818608E-02  0.9073608E-01
          2   -1    0    0  501    0  0.00000000000E+00  0.00000000000E+00  0.67325628906E+03  0.67325628907E+03  0.25500000000E-02 0.  1.
         -2   -1    0    0    0  501 -0.00000000000E+00 -0.00000000000E+00 -0.57639624659E+03  0.57639624659E+03  0.25500000000E-02 0. -1.
    5000001    1    1    2    0    0  0.48950453313E+03 -0.27917094586E+03  0.23241550660E+03  0.63908690542E+03  0.19200000000E+03 0.  0.
   -5000001    1    1    2    0    0 -0.48950453313E+03  0.27917094586E+03 -0.13555546413E+03  0.61056563024E+03  0.19200000000E+03 0.  0.
<mgrwt>
<rscale>  0 0.12458931E+04</rscale>
<asrwt>0</asrwt>
<pdfrwt beam="1">  1        2 0.96179469E-01 0.12458931E+04</pdfrwt>
<pdfrwt beam="2">  1       -2 0.82342322E-01 0.12458931E+04</pdfrwt>
<totfact> 0.60251452E+01</totfact>
</mgrwt>
</event>
<event>
 4    1  0.5621415E-005  0.9421125E+03  0.7818608E-02  0.9374418E-01
         -2   -1    0    0    0  501 -0.00000000000E+00  0.00000000000E+00  0.40704017931E+03  0.40704017931E+03  0.25500000000E-02 0. -1.
          2   -1    0    0  501    0  0.00000000000E+00 -0.00000000000E+00 -0.54514030482E+03  0.54514030482E+03  0.25500000000E-02 0.  1.
    5000001    1    1    2    0    0  0.32723322027E+03  0.25815524607E+03  0.38407813253E+02  0.46050501804E+03  0.19200000000E+03 0.  0.
   -5000001    1    1    2    0    0 -0.32723322027E+03 -0.25815524607E+03 -0.17650793876E+03  0.49167546610E+03  0.19200000000E+03 0.  0.
<mgrwt>
<rscale>  0 0.94211254E+03</rscale>
<asrwt>0</asrwt>
<pdfrwt beam="1">  1        2 0.77877187E-01 0.94211254E+03</pdfrwt>
<pdfrwt beam="2">  1       -2 0.58148597E-01 0.94211254E+03</pdfrwt>
<totfact> 0.16836612E+02</totfact>
</mgrwt>
</event>
<event>
 4    1  0.5621415E-005  0.6574150E+03  0.7818608E-02  0.9792964E-01
         -2   -1    0    0    0  501 -0.00000000000E+00  0.00000000000E+00  0.51650120938E+03  0.51650120938E+03  0.25500000000E-02 0. -1.
          2   -1    0    0  501    0  0.00000000000E+00 -0.00000000000E+00 -0.20919338228E+03  0.20919338229E+03  0.25500000000E-02 0.  1.
    5000001    1    1    2    0    0  0.22501543461E+03 -0.76873115758E+01  0.31167801029E+03  0.42976531115E+03  0.19200000000E+03 0.  0.
   -5000001    1    1    2    0    0 -0.22501543461E+03  0.76873115758E+01 -0.43701831940E+01  0.29592928052E+03  0.19200000000E+03 0.  0.
<mgrwt>
<rscale>  0 0.65741504E+03</rscale>
<asrwt>0</asrwt>
<pdfrwt beam="1">  1        2 0.29884769E-01 0.65741504E+03</pdfrwt>
<pdfrwt beam="2">  1       -2 0.73785886E-01 0.65741504E+03</pdfrwt>
<totfact> 0.29881826E+02</totfact>
</mgrwt>
</event>
<event>
 4    1  0.5621415E-005  0.4838289E+03  0.7818608E-02  0.1018088E+00
         -2   -1    0    0    0  501 -0.00000000000E+00  0.00000000000E+00  0.35135799714E+02  0.35135799806E+02  0.25500000000E-02 0. -1.
          2   -1    0    0  501    0  0.00000000000E+00 -0.00000000000E+00 -0.16656115862E+04  0.16656115862E+04  0.25500000000E-02 0.  1.
    5000001    1    1    2    0    0 -0.70705557904E+02  0.39706126549E+02 -0.12469439983E+04  0.12642425350E+04  0.19200000000E+03 0.  0.
   -5000001    1    1    2    0    0  0.70705557904E+02 -0.39706126549E+02 -0.38353178817E+03  0.43650485099E+03  0.19200000000E+03 0.  0.
<mgrwt>
<rscale>  0 0.48382888E+03</rscale>
<asrwt>0</asrwt>
<pdfrwt beam="1">  1        2 0.23794446E+00 0.48382888E+03</pdfrwt>
<pdfrwt beam="2">  1       -2 0.50194010E-02 0.48382888E+03</pdfrwt>
<totfact> 0.24984825E+03</totfact>
</mgrwt>
</event>
<event>
 4    1  0.5621415E-005  0.4577048E+03  0.7818608E-02  0.1025449E+00
         -2   -1    0    0    0  501 -0.00000000000E+00  0.00000000000E+00  0.16072524618E+03  0.16072524620E+03  0.25500000000E-02 0. -1.
          2   -1    0    0  501    0  0.00000000000E+00 -0.00000000000E+00 -0.32585686586E+03  0.32585686587E+03  0.25500000000E-02 0.  1.
    5000001    1    1    2    0    0 -0.12109811126E+03  0.28641442365E+02 -0.77320961873E+02  0.24151110930E+03  0.19200000000E+03 0.  0.
   -5000001    1    1    2    0    0  0.12109811126E+03 -0.28641442365E+02 -0.87810657806E+02  0.24507100277E+03  0.19200000000E+03 0.  0.
<mgrwt>
<rscale>  0 0.45770482E+03</rscale>
<asrwt>0</asrwt>
<pdfrwt beam="1">  1        2 0.46550981E-01 0.45770482E+03</pdfrwt>
<pdfrwt beam="2">  1       -2 0.22960750E-01 0.45770482E+03</pdfrwt>
<totfact> 0.18046353E+03</totfact>
</mgrwt>
</event>
<event>
 4    1  0.5621415E-005  0.7460135E+03  0.7818608E-02  0.9641625E-01
          2   -1    0    0  501    0  0.00000000000E+00  0.00000000000E+00  0.26021363281E+04  0.26021363281E+04  0.25500000000E-02 0.  1.
         -2   -1    0    0    0  501 -0.00000000000E+00 -0.00000000000E+00 -0.53469150731E+02  0.53469150792E+02  0.25500000000E-02 0. -1.
    5000001    1    1    2    0    0  0.26633372597E+03  0.15671131129E+03  0.98126757003E+03  0.10465381659E+04  0.19200000000E+03 0.  0.
   -5000001    1    1    2    0    0 -0.26633372597E+03 -0.15671131129E+03  0.15673996073E+04  0.16090673130E+04  0.19200000000E+03 0.  0.
<mgrwt>
<rscale>  0 0.74601346E+03</rscale>
<asrwt>0</asrwt>
<pdfrwt beam="1">  1        2 0.37173392E+00 0.74601346E+03</pdfrwt>
<pdfrwt beam="2">  1       -2 0.76384469E-02 0.74601346E+03</pdfrwt>
<totfact> 0.42695818E+02</totfact>
</mgrwt>
</event>
<event>
 4    1  0.5621415E-005  0.4605277E+03  0.7818608E-02  0.1024628E+00
         -2   -1    0    0    0  501 -0.00000000000E+00  0.00000000000E+00  0.18509078631E+02  0.18509078807E+02  0.25500000000E-02 0. -1.
          2   -1    0    0  501    0  0.00000000000E+00 -0.00000000000E+00 -0.28646175733E+04  0.28646175733E+04  0.25500000000E-02 0.  1.
    5000001    1    1    2    0    0 -0.12237379619E+03  0.30744843798E+02 -0.13267076870E+04  0.13464538158E+04  0.19200000000E+03 0.  0.
   -5000001    1    1    2    0    0  0.12237379619E+03 -0.30744843798E+02 -0.15194008077E+04  0.15366728363E+04  0.19200000000E+03 0.  0.
<mgrwt>
<rscale>  0 0.46052766E+03</rscale>
<asrwt>0</asrwt>
<pdfrwt beam="1">  1        2 0.40923080E+00 0.46052766E+03</pdfrwt>
<pdfrwt beam="2">  1       -2 0.26441559E-02 0.46052766E+03</pdfrwt>
<totfact> 0.16399755E+03</totfact>
</mgrwt>
</event>
<event>
 4    1  0.5621415E-005  0.7356432E+03  0.7818608E-02  0.9658147E-01
         -2   -1    0    0    0  501 -0.00000000000E+00  0.00000000000E+00  0.68515680144E+02  0.68515680192E+02  0.25500000000E-02 0. -1.
          2   -1    0    0  501    0  0.00000000000E+00 -0.00000000000E+00 -0.19746243202E+04  0.19746243202E+04  0.25500000000E-02 0.  1.
    5000001    1    1    2    0    0  0.27712301154E+03  0.16824815873E+02 -0.54725203442E+03  0.64298446881E+03  0.19200000000E+03 0.  0.
   -5000001    1    1    2    0    0 -0.27712301154E+03 -0.16824815873E+02 -0.13588566056E+04  0.14001555316E+04  0.19200000000E+03 0.  0.
<mgrwt>
<rscale>  0 0.73564320E+03</rscale>
<asrwt>0</asrwt>
<pdfrwt beam="1">  1        2 0.28208915E+00 0.73564320E+03</pdfrwt>
<pdfrwt beam="2">  1       -2 0.97879555E-02 0.73564320E+03</pdfrwt>
<totfact> 0.59952276E+02</totfact>
</mgrwt>
</event>
<event>
 4    1  0.5621415E-005  0.7709102E+03  0.7818608E-02  0.9603105E-01
          2   -1    0    0  501    0  0.00000000000E+00  0.00000000000E+00  0.38017071048E+03  0.38017071049E+03  0.25500000000E-02 0.  1.
         -2   -1    0    0    0  501 -0.00000000000E+00 -0.00000000000E+00 -0.39081296548E+03  0.39081296549E+03  0.25500000000E-02 0. -1.
    5000001    1    1    2    0    0  0.16605810260E+03 -0.25963628065E+03 -0.13465997888E+03  0.38727716377E+03  0.19200000000E+03 0.  0.
   -5000001    1    1    2    0    0 -0.16605810260E+03  0.25963628065E+03  0.12401772389E+03  0.38370651220E+03  0.19200000000E+03 0.  0.
<mgrwt>
<rscale>  0 0.77091022E+03</rscale>
<asrwt>0</asrwt>
<pdfrwt beam="1">  1        2 0.54310102E-01 0.77091022E+03</pdfrwt>
<pdfrwt beam="2">  1       -2 0.55830423E-01 0.77091022E+03</pdfrwt>
<totfact> 0.27796331E+02</totfact>
</mgrwt>
</event>
<event>
 4    1  0.5621415E-005  0.1286090E+04  0.7818608E-02  0.9040670E-01
         -2   -1    0    0    0  501 -0.00000000000E+00  0.00000000000E+00  0.60457909716E+03  0.60457909716E+03  0.25500000000E-02 0. -1.
          2   -1    0    0  501    0  0.00000000000E+00 -0.00000000000E+00 -0.68395783522E+03  0.68395783523E+03  0.25500000000E-02 0.  1.
    5000001    1    1    2    0    0 -0.32999887114E+02 -0.41101210577E+03 -0.49511202132E+03  0.67232422037E+03  0.19200000000E+03 0.  0.
   -5000001    1    1    2    0    0  0.32999887114E+02  0.41101210577E+03  0.41573328326E+03  0.61621271202E+03  0.19200000000E+03 0.  0.
<mgrwt>
<rscale>  0 0.12860896E+04</rscale>
<asrwt>0</asrwt>
<pdfrwt beam="1">  1        2 0.97708261E-01 0.12860896E+04</pdfrwt>
<pdfrwt beam="2">  1       -2 0.86368443E-01 0.12860896E+04</pdfrwt>
<totfact> 0.52874790E+01</totfact>
</mgrwt>
</event>
<event>
 4    1  0.5621415E-005  0.4907032E+03  0.7818608E-02  0.1016234E+00
          2   -1    0    0  501    0  0.00000000000E+00  0.00000000000E+00  0.14032380063E+04  0.14032380063E+04  0.25500000000E-02 0.  1.
         -2   -1    0    0    0  501 -0.00000000000E+00 -0.00000000000E+00 -0.42898926587E+02  0.42898926662E+02  0.25500000000E-02 0. -1.
    5000001    1    1    2    0    0  0.11797785672E+03 -0.93108929648E+02  0.59971090619E+03  0.64738336282E+03  0.19200000000E+03 0.  0.
   -5000001    1    1    2    0    0 -0.11797785672E+03  0.93108929648E+02  0.76062817353E+03  0.79875357015E+03  0.19200000000E+03 0.  0.
<mgrwt>
<rscale>  0 0.49070319E+03</rscale>
<asrwt>0</asrwt>
<pdfrwt beam="1">  1        2 0.20046250E+00 0.49070319E+03</pdfrwt>
<pdfrwt beam="2">  1       -2 0.61284204E-02 0.49070319E+03</pdfrwt>
<totfact> 0.25016937E+03</totfact>
</mgrwt>
</event>
<event>
 4    1  0.5621415E-005  0.8954928E+03  0.7818608E-02  0.9431233E-01
         -2   -1    0    0    0  501 -0.00000000000E+00  0.00000000000E+00  0.12540360164E+03  0.12540360167E+03  0.25500000000E-02 0. -1.
          2   -1    0    0  501    0  0.00000000000E+00 -0.00000000000E+00 -0.15986531256E+04  0.15986531256E+04  0.25500000000E-02 0.  1.
    5000001    1    1    2    0    0  0.38413182993E+03  0.12445085166E+03 -0.78249214155E+03  0.90122318481E+03  0.19200000000E+03 0.  0.
   -5000001    1    1    2    0    0 -0.38413182993E+03 -0.12445085166E+03 -0.69075738236E+03  0.82283354242E+03  0.19200000000E+03 0.  0.
<mgrwt>
<rscale>  0 0.89549285E+03</rscale>
<asrwt>0</asrwt>
<pdfrwt beam="1">  1        2 0.22837901E+00 0.89549285E+03</pdfrwt>
<pdfrwt beam="2">  1       -2 0.17914801E-01 0.89549285E+03</pdfrwt>
<totfact> 0.33632033E+02</totfact>
</mgrwt>
</event>
<event>
 4    1  0.5621415E-005  0.6281619E+03  0.7818608E-02  0.9848642E-01
         -2   -1    0    0    0  501 -0.00000000000E+00  0.00000000000E+00  0.38962201398E+03  0.38962201399E+03  0.25500000000E-02 0. -1.
          2   -1    0    0  501    0  0.00000000000E+00 -0.00000000000E+00 -0.25318600969E+03  0.25318600970E+03  0.25500000000E-02 0.  1.
    5000001    1    1    2    0    0  0.15105578205E+03 -0.18525472629E+03  0.13796641812E+03  0.33620811327E+03  0.19200000000E+03 0.  0.
   -5000001    1    1    2    0    0 -0.15105578205E+03  0.18525472629E+03 -0.15304138297E+01  0.30659991042E+03  0.19200000000E+03 0.  0.
<mgrwt>
<rscale>  0 0.62816190E+03</rscale>
<asrwt>0</asrwt>
<pdfrwt beam="1">  1        2 0.36169430E-01 0.62816190E+03</pdfrwt>
<pdfrwt beam="2">  1       -2 0.55660287E-01 0.62816190E+03</pdfrwt>
<totfact> 0.44091999E+02</totfact>
</mgrwt>
</event>
<event>
 4    1  0.5621415E-005  0.6915895E+03  0.7818608E-02  0.9731724E-01
          2   -1    0    0  501    0  0.00000000000E+00  0.00000000000E+00  0.15259815187E+04  0.15259815187E+04  0.25500000000E-02 0.  1.
         -2   -1    0    0    0  501 -0.00000000000E+00 -0.00000000000E+00 -0.78358758465E+02  0.78358758506E+02  0.25500000000E-02 0. -1.
    5000001    1    1    2    0    0 -0.65553158554E+02 -0.25246668180E+03  0.10048157625E+04  0.10557250393E+04  0.19200000000E+03 0.  0.
   -5000001    1    1    2    0    0  0.65553158554E+02  0.25246668180E+03  0.44280699764E+03  0.54861523783E+03  0.19200000000E+03 0.  0.
<mgrwt>
<rscale>  0 0.69158952E+03</rscale>
<asrwt>0</asrwt>
<pdfrwt beam="1">  1        2 0.21799735E+00 0.69158952E+03</pdfrwt>
<pdfrwt beam="2">  1       -2 0.11194109E-01 0.69158952E+03</pdfrwt>
<totfact> 0.81831933E+02</totfact>
</mgrwt>
</event>
<event>
 4    1  0.5621415E-005  0.4640650E+03  0.7818608E-02  0.1023609E+00
          2   -1    0    0  501    0  0.00000000000E+00  0.00000000000E+00  0.43318250442E+02  0.43318250517E+02  0.25500000000E-02 0.  1.
         -2   -1    0    0    0  501 -0.00000000000E+00 -0.00000000000E+00 -0.12428729496E+04  0.12428729496E+04  0.25500000000E-02 0. -1.
    5000001    1    1    2    0    0  0.60933960988E+01 -0.10514365856E+03 -0.81235490316E+03  0.84135415082E+03  0.19200000000E+03 0.  0.
   -5000001    1    1    2    0    0 -0.60933960988E+01  0.10514365856E+03 -0.38719979603E+03  0.44483704933E+03  0.19200000000E+03 0.  0.
<mgrwt>
<rscale>  0 0.46406500E+03</rscale>
<asrwt>0</asrwt>
<pdfrwt beam="1">  1        2 0.61883222E-02 0.46406500E+03</pdfrwt>
<pdfrwt beam="2">  1       -2 0.17755326E+00 0.46406500E+03</pdfrwt>
<totfact> 0.23950317E+02</totfact>
</mgrwt>
</event>
<event>
 4    1  0.5621415E-005  0.6377401E+03  0.7818608E-02  0.9830060E-01
         -2   -1    0    0    0  501 -0.00000000000E+00  0.00000000000E+00  0.27668988240E+02  0.27668988358E+02  0.25500000000E-02 0. -1.
          2   -1    0    0  501    0  0.00000000000E+00 -0.00000000000E+00 -0.36748037775E+04  0.36748037775E+04  0.25500000000E-02 0.  1.
    5000001    1    1    2    0    0  0.24916081080E+03 -0.38433149371E+02 -0.20293095521E+04  0.20539034726E+04  0.19200000000E+03 0.  0.
   -5000001    1    1    2    0    0 -0.24916081080E+03  0.38433149371E+02 -0.16178252372E+04  0.16485692933E+04  0.19200000000E+03 0.  0.
<mgrwt>
<rscale>  0 0.63774008E+03</rscale>
<asrwt>0</asrwt>
<pdfrwt beam="1">  1        2 0.52497166E+00 0.63774008E+03</pdfrwt>
<pdfrwt beam="2">  1       -2 0.39527150E-02 0.63774008E+03</pdfrwt>
<totfact> 0.30208415E+02</totfact>
</mgrwt>
</event>
<event>
 4    1  0.5621415E-005  0.5614675E+03  0.7818608E-02  0.9988740E-01
          2   -1    0    0  501    0  0.00000000000E+00  0.00000000000E+00  0.38961456407E+04  0.38961456407E+04  0.25500000000E-02 0.  1.
         -2   -1    0    0    0  501 -0.00000000000E+00 -0.00000000000E+00 -0.20228055281E+02  0.20228055441E+02  0.25500000000E-02 0. -1.
    5000001    1    1    2    0    0 -0.17478210638E+03  0.93881028705E+02  0.15833159403E+04  0.16072074536E+04  0.19200000000E+03 0.  0.
   -5000001    1    1    2    0    0  0.17478210638E+03 -0.93881028705E+02  0.22926016452E+04  0.23091662425E+04  0.19200000000E+03 0.  0.
<mgrwt>
<rscale>  0 0.56146754E+03</rscale>
<asrwt>0</asrwt>
<pdfrwt beam="1">  1        2 0.55659199E+00 0.56146754E+03</pdfrwt>
<pdfrwt beam="2">  1       -2 0.28897235E-02 0.56146754E+03</pdfrwt>
<totfact> 0.35664568E+02</totfact>
</mgrwt>
</event>
<event>
 4    1  0.5621415E-005  0.9092399E+03  0.7818608E-02  0.9414104E-01
         -2   -1    0    0    0  501 -0.00000000000E+00  0.00000000000E+00  0.14279676797E+03  0.14279676800E+03  0.25500000000E-02 0. -1.
          2   -1    0    0  501    0  0.00000000000E+00 -0.00000000000E+00 -0.14473667263E+04  0.14473667263E+04  0.25500000000E-02 0.  1.
    5000001    1    1    2    0    0  0.33017518729E+03 -0.24592097400E+03 -0.68369263126E+03  0.82084858153E+03  0.19200000000E+03 0.  0.
   -5000001    1    1    2    0    0 -0.33017518729E+03  0.24592097400E+03 -0.62087732709E+03  0.76931491279E+03  0.19200000000E+03 0.  0.
<mgrwt>
<rscale>  0 0.90923988E+03</rscale>
<asrwt>0</asrwt>
<pdfrwt beam="1">  1        2 0.20676667E+00 0.90923988E+03</pdfrwt>
<pdfrwt beam="2">  1       -2 0.20399539E-01 0.90923988E+03</pdfrwt>
<totfact> 0.32191097E+02</totfact>
</mgrwt>
</event>
<event>
 4    1  0.5621415E-005  0.4453751E+03  0.7818608E-02  0.1029110E+00
         -2   -1    0    0    0  501 -0.00000000000E+00  0.00000000000E+00  0.21688054473E+02  0.21688054623E+02  0.25500000000E-02 0.  1.
          2   -1    0    0  501    0  0.00000000000E+00 -0.00000000000E+00 -0.22865003148E+04  0.22865003148E+04  0.25500000000E-02 0. -1.
    5000001    1    1    2    0    0 -0.50617513744E+02 -0.10005888637E+03 -0.11962654494E+04  0.12167534421E+04  0.19200000000E+03 0.  0.
   -5000001    1    1    2    0    0  0.50617513744E+02  0.10005888637E+03 -0.10685468109E+04  0.10914349273E+04  0.19200000000E+03 0.  0.
<mgrwt>
<rscale>  0 0.44537509E+03</rscale>
<asrwt>0</asrwt>
<pdfrwt beam="1">  1        2 0.32664275E+00 0.44537509E+03</pdfrwt>
<pdfrwt beam="2">  1       -2 0.30982950E-02 0.44537509E+03</pdfrwt>
<totfact> 0.25583436E+03</totfact>
</mgrwt>
</event>
<event>
 4    1  0.5621415E-005  0.4509929E+03  0.7818608E-02  0.1027426E+00
          2   -1    0    0  501    0  0.00000000000E+00  0.00000000000E+00  0.86136685996E+03  0.86136685996E+03  0.25500000000E-02 0.  1.
         -2   -1    0    0    0  501 -0.00000000000E+00 -0.00000000000E+00 -0.59032521667E+02  0.59032521722E+02  0.25500000000E-02 0. -1.
    5000001    1    1    2    0    0  0.10255642135E+03  0.38348530561E+02  0.30998462603E+03  0.38071366896E+03  0.19200000000E+03 0.  0.
   -5000001    1    1    2    0    0 -0.10255642135E+03 -0.38348530561E+02  0.49234971227E+03  0.53968571273E+03  0.19200000000E+03 0.  0.
<mgrwt>
<rscale>  0 0.45099294E+03</rscale>
<asrwt>0</asrwt>
<pdfrwt beam="1">  1        2 0.12305240E+00 0.45099294E+03</pdfrwt>
<pdfrwt beam="2">  1       -2 0.84332181E-02 0.45099294E+03</pdfrwt>
<totfact> 0.31057875E+03</totfact>
</mgrwt>
</event>
<event>
 4    1  0.5621415E-005  0.4654081E+03  0.7818608E-02  0.1023224E+00
         -2   -1    0    0    0  501 -0.00000000000E+00  0.00000000000E+00  0.19141620467E+03  0.19141620468E+03  0.25500000000E-02 0. -1.
          2   -1    0    0  501    0  0.00000000000E+00 -0.00000000000E+00 -0.28289754222E+03  0.28289754223E+03  0.25500000000E-02 0.  1.
    5000001    1    1    2    0    0 -0.15871407542E+02 -0.13039538964E+03 -0.39947297300E+02  0.23603950046E+03  0.19200000000E+03 0.  0.
   -5000001    1    1    2    0    0  0.15871407542E+02  0.13039538964E+03 -0.51534040255E+02  0.23827424645E+03  0.19200000000E+03 0.  0.
<mgrwt>
<rscale>  0 0.46540810E+03</rscale>
<asrwt>0</asrwt>
<pdfrwt beam="1">  1        2 0.40413935E-01 0.46540810E+03</pdfrwt>
<pdfrwt beam="2">  1       -2 0.27345172E-01 0.46540810E+03</pdfrwt>
<totfact> 0.15420789E+03</totfact>
</mgrwt>
</event>
<event>
 4    1  0.5621415E-005  0.7749355E+03  0.7818608E-02  0.9597023E-01
         -2   -1    0    0    0  501 -0.00000000000E+00  0.00000000000E+00  0.43106969879E+02  0.43106969954E+02  0.25500000000E-02 0. -1.
          2   -1    0    0  501    0  0.00000000000E+00 -0.00000000000E+00 -0.34827606001E+04  0.34827606001E+04  0.25500000000E-02 0.  1.
    5000001    1    1    2    0    0  0.46953202749E+00 -0.16016958479E+03 -0.30665677863E+04  0.30767444652E+04  0.19200000000E+03 0.  0.
   -5000001    1    1    2    0    0 -0.46953202749E+00  0.16016958479E+03 -0.37308584392E+03  0.44912310483E+03  0.19200000000E+03 0.  0.
<mgrwt>
<rscale>  0 0.77493550E+03</rscale>
<asrwt>0</asrwt>
<pdfrwt beam="1">  1        2 0.49753705E+00 0.77493550E+03</pdfrwt>
<pdfrwt beam="2">  1       -2 0.61581408E-02 0.77493550E+03</pdfrwt>
<totfact> 0.19493973E+02</totfact>
</mgrwt>
</event>
<event>
 4    1  0.5621415E-005  0.5333514E+03  0.7818608E-02  0.1005423E+00
          2   -1    0    0  501    0  0.00000000000E+00  0.00000000000E+00  0.35180947905E+03  0.35180947906E+03  0.25500000000E-02 0.  1.
         -2   -1    0    0    0  501 -0.00000000000E+00 -0.00000000000E+00 -0.20214330924E+03  0.20214330926E+03  0.25500000000E-02 0. -1.
    5000001    1    1    2    0    0  0.26494731416E+02  0.15237076014E+03  0.18041144018E+03  0.30550140275E+03  0.19200000000E+03 0.  0.
   -5000001    1    1    2    0    0 -0.26494731416E+02 -0.15237076014E+03 -0.30745270370E+02  0.24845138556E+03  0.19200000000E+03 0.  0.
<mgrwt>
<rscale>  0 0.53335141E+03</rscale>
<asrwt>0</asrwt>
<pdfrwt beam="1">  1        2 0.50258497E-01 0.53335141E+03</pdfrwt>
<pdfrwt beam="2">  1       -2 0.28877616E-01 0.53335141E+03</pdfrwt>
<totfact> 0.10995188E+03</totfact>
</mgrwt>
</event>
<event>
 4    1  0.5621415E-005  0.4670612E+03  0.7818608E-02  0.1022753E+00
          2   -1    0    0  501    0  0.00000000000E+00  0.00000000000E+00  0.47489274751E+03  0.47489274752E+03  0.25500000000E-02 0.  1.
         -2   -1    0    0    0  501 -0.00000000000E+00 -0.00000000000E+00 -0.11483967754E+03  0.11483967757E+03  0.25500000000E-02 0. -1.
    5000001    1    1    2    0    0  0.68157183292E+02  0.91141127109E+02  0.93276085430E+02  0.24190191152E+03  0.19200000000E+03 0.  0.
   -5000001    1    1    2    0    0 -0.68157183292E+02 -0.91141127109E+02  0.26677698454E+03  0.34783051356E+03  0.19200000000E+03 0.  0.
<mgrwt>
<rscale>  0 0.46706115E+03</rscale>
<asrwt>0</asrwt>
<pdfrwt beam="1">  1        2 0.67841820E-01 0.46706115E+03</pdfrwt>
<pdfrwt beam="2">  1       -2 0.16405669E-01 0.46706115E+03</pdfrwt>
<totfact> 0.21275888E+03</totfact>
</mgrwt>
</event>
<event>
 4    1  0.5621415E-005  0.4948660E+03  0.7818608E-02  0.1015128E+00
         -2   -1    0    0    0  501 -0.00000000000E+00  0.00000000000E+00  0.26765992766E+02  0.26765992888E+02  0.25500000000E-02 0. -1.
          2   -1    0    0  501    0  0.00000000000E+00 -0.00000000000E+00 -0.22873460799E+04  0.22873460799E+04  0.25500000000E-02 0.  1.
    5000001    1    1    2    0    0  0.13880905271E+03 -0.71338324660E+02 -0.11237115016E+04  0.11506296748E+04  0.19200000000E+03 0.  0.
   -5000001    1    1    2    0    0 -0.13880905271E+03  0.71338324660E+02 -0.11368685855E+04  0.11634823980E+04  0.19200000000E+03 0.  0.
<mgrwt>
<rscale>  0 0.49486600E+03</rscale>
<asrwt>0</asrwt>
<pdfrwt beam="1">  1        2 0.32676360E+00 0.49486600E+03</pdfrwt>
<pdfrwt beam="2">  1       -2 0.38237147E-02 0.49486600E+03</pdfrwt>
<totfact> 0.18522291E+03</totfact>
</mgrwt>
</event>
<event>
 4    1  0.5621415E-005  0.5765600E+03  0.7818608E-02  0.9955267E-01
         -2   -1    0    0    0  501 -0.00000000000E+00  0.00000000000E+00  0.19747786289E+03  0.19747786290E+03  0.25500000000E-02 0. -1.
          2   -1    0    0  501    0  0.00000000000E+00 -0.00000000000E+00 -0.42083373644E+03  0.42083373645E+03  0.25500000000E-02 0.  1.
    5000001    1    1    2    0    0  0.15477121841E+03  0.14597189250E+03 -0.14523996255E+03  0.32127958256E+03  0.19200000000E+03 0.  0.
   -5000001    1    1    2    0    0 -0.15477121841E+03 -0.14597189250E+03 -0.78115911006E+02  0.29703201679E+03  0.19200000000E+03 0.  0.
<mgrwt>
<rscale>  0 0.57655996E+03</rscale>
<asrwt>0</asrwt>
<pdfrwt beam="1">  1        2 0.60119105E-01 0.57655996E+03</pdfrwt>
<pdfrwt beam="2">  1       -2 0.28211123E-01 0.57655996E+03</pdfrwt>
<totfact> 0.94083527E+02</totfact>
</mgrwt>
</event>
<event>
 4    1  0.5621415E-005  0.8818179E+03  0.7818608E-02  0.9448600E-01
          2   -1    0    0  501    0  0.00000000000E+00  0.00000000000E+00  0.17881599821E+04  0.17881599821E+04  0.25500000000E-02 0.  1.
         -2   -1    0    0    0  501 -0.00000000000E+00 -0.00000000000E+00 -0.10871548915E+03  0.10871548918E+03  0.25500000000E-02 0. -1.
    5000001    1    1    2    0    0 -0.25720376456E+03  0.17967693204E+03  0.31678400729E+03  0.48544174078E+03  0.19200000000E+03 0.  0.
   -5000001    1    1    2    0    0  0.25720376456E+03 -0.17967693204E+03  0.13626604857E+04  0.14114337305E+04  0.19200000000E+03 0.  0.
<mgrwt>
<rscale>  0 0.88181787E+03</rscale>
<asrwt>0</asrwt>
<pdfrwt beam="1">  1        2 0.25545142E+00 0.88181787E+03</pdfrwt>
<pdfrwt beam="2">  1       -2 0.15530784E-01 0.88181787E+03</pdfrwt>
<totfact> 0.34332871E+02</totfact>
</mgrwt>
</event>
<event>
 4    1  0.5621415E-005  0.5788100E+03  0.7818608E-02  0.9950371E-01
          2   -1    0    0  501    0  0.00000000000E+00  0.00000000000E+00  0.11723120431E+04  0.11723120431E+04  0.25500000000E-02 0.  1.
         -2   -1    0    0    0  501 -0.00000000000E+00 -0.00000000000E+00 -0.71444511457E+02  0.71444511502E+02  0.25500000000E-02 0. -1.
    5000001    1    1    2    0    0  0.18428819551E+02 -0.21204365145E+03  0.63609395160E+03  0.69769738911E+03  0.19200000000E+03 0.  0.
   -5000001    1    1    2    0    0 -0.18428819551E+02  0.21204365145E+03  0.46477358004E+03  0.54605916549E+03  0.19200000000E+03 0.  0.
<mgrwt>
<rscale>  0 0.57881002E+03</rscale>
<asrwt>0</asrwt>
<pdfrwt beam="1">  1        2 0.16747314E+00 0.57881002E+03</pdfrwt>
<pdfrwt beam="2">  1       -2 0.10206359E-01 0.57881002E+03</pdfrwt>
<totfact> 0.14827022E+03</totfact>
</mgrwt>
</event>
<event>
 4    1  0.5621415E-005  0.1004945E+04  0.7818608E-02  0.9303137E-01
          2   -1    0    0  501    0  0.00000000000E+00  0.00000000000E+00  0.17694573802E+04  0.17694573802E+04  0.25500000000E-02 0.  1.
         -2   -1    0    0    0  501 -0.00000000000E+00 -0.00000000000E+00 -0.14268714857E+03  0.14268714859E+03  0.25500000000E-02 0. -1.
    5000001    1    1    2    0    0  0.80249066415E+02 -0.32757460524E+03  0.20608837631E+03  0.43941034752E+03  0.19200000000E+03 0.  0.
   -5000001    1    1    2    0    0 -0.80249066415E+02  0.32757460524E+03  0.14206818553E+04  0.14727341813E+04  0.19200000000E+03 0.  0.
<mgrwt>
<rscale>  0 0.10049454E+04</rscale>
<asrwt>0</asrwt>
<pdfrwt beam="1">  1        2 0.25277963E+00 0.10049454E+04</pdfrwt>
<pdfrwt beam="2">  1       -2 0.20383878E-01 0.10049454E+04</pdfrwt>
<totfact> 0.21762489E+02</totfact>
</mgrwt>
</event>
<event>
 4    1  0.5621415E-005  0.6708965E+03  0.7818608E-02  0.9768340E-01
          2   -1    0    0  501    0  0.00000000000E+00  0.00000000000E+00  0.13241348694E+04  0.13241348694E+04  0.25500000000E-02 0.  1.
         -2   -1    0    0    0  501 -0.00000000000E+00 -0.00000000000E+00 -0.84980405524E+02  0.84980405562E+02  0.25500000000E-02 0. -1.
    5000001    1    1    2    0    0  0.27312447362E+02 -0.20486529050E+03  0.23834396641E+03  0.36930692298E+03  0.19200000000E+03 0.  0.
   -5000001    1    1    2    0    0 -0.27312447362E+02  0.20486529050E+03  0.10008104975E+04  0.10398083520E+04  0.19200000000E+03 0.  0.
<mgrwt>
<rscale>  0 0.67089647E+03</rscale>
<asrwt>0</asrwt>
<pdfrwt beam="1">  1        2 0.18916213E+00 0.67089647E+03</pdfrwt>
<pdfrwt beam="2">  1       -2 0.12140057E-01 0.67089647E+03</pdfrwt>
<totfact> 0.91732903E+02</totfact>
</mgrwt>
</event>
<event>
 4    1  0.5621415E-005  0.6320407E+03  0.7818608E-02  0.9841075E-01
          2   -1    0    0  501    0  0.00000000000E+00  0.00000000000E+00  0.35350375335E+03  0.35350375336E+03  0.25500000000E-02 0.  1.
         -2   -1    0    0    0  501 -0.00000000000E+00 -0.00000000000E+00 -0.28251146971E+03  0.28251146972E+03  0.25500000000E-02 0. -1.
    5000001    1    1    2    0    0 -0.13907157078E+03 -0.19797035480E+03 -0.31795150990E+02  0.31049652946E+03  0.19200000000E+03 0.  0.
   -5000001    1    1    2    0    0  0.13907157078E+03  0.19797035480E+03  0.10278743463E+03  0.32551869362E+03  0.19200000000E+03 0.  0.
<mgrwt>
<rscale>  0 0.63204071E+03</rscale>
<asrwt>0</asrwt>
<pdfrwt beam="1">  1        2 0.50500536E-01 0.63204071E+03</pdfrwt>
<pdfrwt beam="2">  1       -2 0.40358781E-01 0.63204071E+03</pdfrwt>
<totfact> 0.58093797E+02</totfact>
</mgrwt>
</event>
<event>
 4    1  0.5621415E-005  0.5214502E+03  0.7818608E-02  0.1008327E+00
          2   -1    0    0  501    0  0.00000000000E+00  0.00000000000E+00  0.31300663627E+03  0.31300663628E+03  0.25500000000E-02 0.  1.
         -2   -1    0    0    0  501 -0.00000000000E+00 -0.00000000000E+00 -0.21717617111E+03  0.21717617113E+03  0.25500000000E-02 0. -1.
    5000001    1    1    2    0    0 -0.50619723284E+02 -0.13223409363E+03 -0.59038457709E+02  0.24575953978E+03  0.19200000000E+03 0.  0.
   -5000001    1    1    2    0    0  0.50619723284E+02  0.13223409363E+03  0.15486892287E+03  0.28442326763E+03  0.19200000000E+03 0.  0.
<mgrwt>
<rscale>  0 0.52145022E+03</rscale>
<asrwt>0</asrwt>
<pdfrwt beam="1">  1        2 0.44715234E-01 0.52145022E+03</pdfrwt>
<pdfrwt beam="2">  1       -2 0.31025167E-01 0.52145022E+03</pdfrwt>
<totfact> 0.10956102E+03</totfact>
</mgrwt>
</event>
<event>
 4    1  0.5621415E-005  0.5508229E+03  0.7818608E-02  0.1001304E+00
         -2   -1    0    0    0  501 -0.00000000000E+00  0.00000000000E+00  0.22501028403E+03  0.22501028404E+03  0.25500000000E-02 0.  1.
          2   -1    0    0  501    0  0.00000000000E+00 -0.00000000000E+00 -0.33710219343E+03  0.33710219344E+03  0.25500000000E-02 0. -1.
    5000001    1    1    2    0    0 -0.34312587712E+02 -0.19383700732E+03 -0.71766931960E+02  0.28419118847E+03  0.19200000000E+03 0.  0.
   -5000001    1    1    2    0    0  0.34312587712E+02  0.19383700732E+03 -0.40324977448E+02  0.27792128902E+03  0.19200000000E+03 0.  0.
<mgrwt>
<rscale>  0 0.55082288E+03</rscale>
<asrwt>0</asrwt>
<pdfrwt beam="1">  1        2 0.48157456E-01 0.55082288E+03</pdfrwt>
<pdfrwt beam="2">  1       -2 0.32144326E-01 0.55082288E+03</pdfrwt>
<totfact> 0.94533233E+02</totfact>
</mgrwt>
</event>
<event>
 4    1  0.5621415E-005  0.4887393E+03  0.7818608E-02  0.1016761E+00
          2   -1    0    0  501    0  0.00000000000E+00  0.00000000000E+00  0.12351256768E+04  0.12351256769E+04  0.25500000000E-02 0.  1.
         -2   -1    0    0    0  501 -0.00000000000E+00 -0.00000000000E+00 -0.48348537018E+02  0.48348537085E+02  0.25500000000E-02 0. -1.
    5000001    1    1    2    0    0 -0.12126917892E+03  0.88546170434E+02  0.54745962027E+03  0.59926844893E+03  0.19200000000E+03 0.  0.
   -5000001    1    1    2    0    0  0.12126917892E+03 -0.88546170434E+02  0.63931751956E+03  0.68420576500E+03  0.19200000000E+03 0.  0.
<mgrwt>
<rscale>  0 0.48873927E+03</rscale>
<asrwt>0</asrwt>
<pdfrwt beam="1">  1        2 0.17644653E+00 0.48873927E+03</pdfrwt>
<pdfrwt beam="2">  1       -2 0.69069338E-02 0.48873927E+03</pdfrwt>
<totfact> 0.25542074E+03</totfact>
</mgrwt>
</event>
<event>
 4    1  0.5621415E-005  0.4467720E+03  0.7818608E-02  0.1028689E+00
          2   -1    0    0  501    0  0.00000000000E+00  0.00000000000E+00  0.10061079789E+04  0.10061079789E+04  0.25500000000E-02 0.  1.
         -2   -1    0    0    0  501 -0.00000000000E+00 -0.00000000000E+00 -0.49598348506E+02  0.49598348572E+02  0.25500000000E-02 0. -1.
    5000001    1    1    2    0    0  0.29294574918E+02  0.97774985937E+02  0.59918630902E+03  0.63742164453E+03  0.19200000000E+03 0.  0.
   -5000001    1    1    2    0    0 -0.29294574918E+02 -0.97774985937E+02  0.35732332140E+03  0.41828468298E+03  0.19200000000E+03 0.  0.
<mgrwt>
<rscale>  0 0.44677195E+03</rscale>
<asrwt>0</asrwt>
<pdfrwt beam="1">  1        2 0.14372971E+00 0.44677195E+03</pdfrwt>
<pdfrwt beam="2">  1       -2 0.70854786E-02 0.44677195E+03</pdfrwt>
<totfact> 0.33185657E+03</totfact>
</mgrwt>
</event>
<event>
 4    1  0.5621415E-005  0.7574217E+03  0.7818608E-02  0.9623778E-01
          2   -1    0    0  501    0  0.00000000000E+00  0.00000000000E+00  0.45260592540E+04  0.45260592540E+04  0.25500000000E-02 0.  1.
         -2   -1    0    0    0  501 -0.00000000000E+00 -0.00000000000E+00 -0.31688028065E+02  0.31688028168E+02  0.25500000000E-02 0. -1.
    5000001    1    1    2    0    0  0.24834704839E+03 -0.11801981620E+03  0.11885082928E+04  0.12349173638E+04  0.19200000000E+03 0.  0.
   -5000001    1    1    2    0    0 -0.24834704839E+03  0.11801981620E+03  0.33058629331E+04  0.33228299183E+04  0.19200000000E+03 0.  0.
<mgrwt>
<rscale>  0 0.75742166E+03</rscale>
<asrwt>0</asrwt>
<pdfrwt beam="1">  1        2 0.64658036E+00 0.75742166E+03</pdfrwt>
<pdfrwt beam="2">  1       -2 0.45268579E-02 0.75742166E+03</pdfrwt>
<totfact> 0.61974782E+01</totfact>
</mgrwt>
</event>
<event>
 4    1  0.5621415E-005  0.8071763E+03  0.7818608E-02  0.9549687E-01
         -2   -1    0    0    0  501 -0.00000000000E+00  0.00000000000E+00  0.10984702965E+03  0.10984702968E+03  0.25500000000E-02 0. -1.
          2   -1    0    0  501    0  0.00000000000E+00 -0.00000000000E+00 -0.14828200828E+04  0.14828200828E+04  0.25500000000E-02 0.  1.
    5000001    1    1    2    0    0  0.35240011132E+03  0.38530780967E+02 -0.64962945188E+03  0.76456058248E+03  0.19200000000E+03 0.  0.
   -5000001    1    1    2    0    0 -0.35240011132E+03 -0.38530780967E+02 -0.72334360130E+03  0.82810653004E+03  0.19200000000E+03 0.  0.
<mgrwt>
<rscale>  0 0.80717627E+03</rscale>
<asrwt>0</asrwt>
<pdfrwt beam="1">  1        2 0.21183143E+00 0.80717627E+03</pdfrwt>
<pdfrwt beam="2">  1       -2 0.15692434E-01 0.80717627E+03</pdfrwt>
<totfact> 0.48774786E+02</totfact>
</mgrwt>
</event>
<event>
 4    1  0.5621415E-005  0.4884489E+03  0.7818608E-02  0.1016839E+00
         -2   -1    0    0    0  501 -0.00000000000E+00  0.00000000000E+00  0.14245772550E+03  0.14245772552E+03  0.25500000000E-02 0. -1.
          2   -1    0    0  501    0  0.00000000000E+00 -0.00000000000E+00 -0.41868971302E+03  0.41868971302E+03  0.25500000000E-02 0.  1.
    5000001    1    1    2    0    0  0.12178294184E+03  0.86746014084E+02 -0.16181734492E+03  0.29224101184E+03  0.19200000000E+03 0.  0.
   -5000001    1    1    2    0    0 -0.12178294184E+03 -0.86746014084E+02 -0.11441464260E+03  0.26890642671E+03  0.19200000000E+03 0.  0.
<mgrwt>
<rscale>  0 0.48844891E+03</rscale>
<asrwt>0</asrwt>
<pdfrwt beam="1">  1        2 0.59812816E-01 0.48844891E+03</pdfrwt>
<pdfrwt beam="2">  1       -2 0.20351104E-01 0.48844891E+03</pdfrwt>
<totfact> 0.16926882E+03</totfact>
</mgrwt>
</event>
<event>
 4    1  0.5621415E-005  0.8027489E+03  0.7818608E-02  0.9556047E-01
          2   -1    0    0  501    0  0.00000000000E+00  0.00000000000E+00  0.13456655086E+04  0.13456655087E+04  0.25500000000E-02 0.  1.
         -2   -1    0    0    0  501 -0.00000000000E+00 -0.00000000000E+00 -0.11971877762E+03  0.11971877764E+03  0.25500000000E-02 0. -1.
    5000001    1    1    2    0    0  0.26268743649E+03  0.20110646739E+03  0.83496683728E+03  0.91841282649E+03  0.19200000000E+03 0.  0.
   -5000001    1    1    2    0    0 -0.26268743649E+03 -0.20110646739E+03  0.39097989376E+03  0.54697145980E+03  0.19200000000E+03 0.  0.
<mgrwt>
<rscale>  0 0.80274885E+03</rscale>
<asrwt>0</asrwt>
<pdfrwt beam="1">  1        2 0.19223792E+00 0.80274885E+03</pdfrwt>
<pdfrwt beam="2">  1       -2 0.17102683E-01 0.80274885E+03</pdfrwt>
<totfact> 0.49866348E+02</totfact>
</mgrwt>
</event>
<event>
 4    1  0.5621415E-005  0.6281429E+03  0.7818608E-02  0.9848679E-01
         -2   -1    0    0    0  501 -0.00000000000E+00  0.00000000000E+00  0.17975517102E+03  0.17975517104E+03  0.25500000000E-02 0. -1.
          2   -1    0    0  501    0  0.00000000000E+00 -0.00000000000E+00 -0.54875131979E+03  0.54875131979E+03  0.25500000000E-02 0.  1.
    5000001    1    1    2    0    0 -0.21088813338E+03  0.10668107243E+03 -0.27375000689E+03  0.40946028170E+03  0.19200000000E+03 0.  0.
   -5000001    1    1    2    0    0  0.21088813338E+03 -0.10668107243E+03 -0.95246141874E+02  0.31904620913E+03  0.19200000000E+03 0.  0.
<mgrwt>
<rscale>  0 0.62814294E+03</rscale>
<asrwt>0</asrwt>
<pdfrwt beam="1">  1        2 0.78393045E-01 0.62814294E+03</pdfrwt>
<pdfrwt beam="2">  1       -2 0.25679310E-01 0.62814294E+03</pdfrwt>
<totfact> 0.82558497E+02</totfact>
</mgrwt>
</event>
<event>
 4    1  0.5621415E-005  0.7013612E+03  0.7818608E-02  0.9714907E-01
         -2   -1    0    0    0  501 -0.00000000000E+00  0.00000000000E+00  0.27204269865E+03  0.27204269866E+03  0.25500000000E-02 0. -1.
          2   -1    0    0  501    0  0.00000000000E+00 -0.00000000000E+00 -0.45204989851E+03  0.45204989852E+03  0.25500000000E-02 0.  1.
    5000001    1    1    2    0    0 -0.27240213058E+03 -0.10555166973E+03 -0.61377731130E+02  0.35492999536E+03  0.19200000000E+03 0.  0.
   -5000001    1    1    2    0    0  0.27240213058E+03  0.10555166973E+03 -0.11862946873E+03  0.36916260182E+03  0.19200000000E+03 0.  0.
<mgrwt>
<rscale>  0 0.70136117E+03</rscale>
<asrwt>0</asrwt>
<pdfrwt beam="1">  1        2 0.64578557E-01 0.70136117E+03</pdfrwt>
<pdfrwt beam="2">  1       -2 0.38863243E-01 0.70136117E+03</pdfrwt>
<totfact> 0.47437789E+02</totfact>
</mgrwt>
</event>
<event>
 4    1  0.5621415E-005  0.7712196E+03  0.7818608E-02  0.9602636E-01
         -2   -1    0    0    0  501 -0.00000000000E+00  0.00000000000E+00  0.93750533068E+02  0.93750533103E+02  0.25500000000E-02 0. -1.
          2   -1    0    0  501    0  0.00000000000E+00 -0.00000000000E+00 -0.15860701053E+04  0.15860701053E+04  0.25500000000E-02 0.  1.
    5000001    1    1    2    0    0  0.21873742055E+03 -0.25239379761E+03 -0.70956778273E+03  0.80740270405E+03  0.19200000000E+03 0.  0.
   -5000001    1    1    2    0    0 -0.21873742055E+03  0.25239379761E+03 -0.78275178951E+03  0.87241793436E+03  0.19200000000E+03 0.  0.
<mgrwt>
<rscale>  0 0.77121960E+03</rscale>
<asrwt>0</asrwt>
<pdfrwt beam="1">  1        2 0.22658143E+00 0.77121960E+03</pdfrwt>
<pdfrwt beam="2">  1       -2 0.13392934E-01 0.77121960E+03</pdfrwt>
<totfact> 0.56362268E+02</totfact>
</mgrwt>
</event>
<event>
 4    1  0.5621415E-005  0.1070750E+04  0.7818608E-02  0.9234180E-01
          2   -1    0    0  501    0  0.00000000000E+00  0.00000000000E+00  0.18518858018E+04  0.18518858018E+04  0.25500000000E-02 0.  1.
         -2   -1    0    0    0  501 -0.00000000000E+00 -0.00000000000E+00 -0.15477528998E+03  0.15477529000E+03  0.25500000000E-02 0. -1.
    5000001    1    1    2    0    0  0.44693367333E+03 -0.44991955098E+02  0.12590931487E+04  0.13505382414E+04  0.19200000000E+03 0.  0.
   -5000001    1    1    2    0    0 -0.44693367333E+03  0.44991955098E+02  0.43801736302E+03  0.65612285030E+03  0.19200000000E+03 0.  0.
<mgrwt>
<rscale>  0 0.10707496E+04</rscale>
<asrwt>0</asrwt>
<pdfrwt beam="1">  1        2 0.26455510E+00 0.10707496E+04</pdfrwt>
<pdfrwt beam="2">  1       -2 0.22110757E-01 0.10707496E+04</pdfrwt>
<totfact> 0.17021544E+02</totfact>
</mgrwt>
</event>
<event>
 4    1  0.5621415E-005  0.5485946E+03  0.7818608E-02  0.1001820E+00
          2   -1    0    0  501    0  0.00000000000E+00  0.00000000000E+00  0.39401500535E+03  0.39401500535E+03  0.25500000000E-02 0.  1.
         -2   -1    0    0    0  501 -0.00000000000E+00 -0.00000000000E+00 -0.19095467169E+03  0.19095467171E+03  0.25500000000E-02 0. -1.
    5000001    1    1    2    0    0  0.18484176580E+03 -0.10835807890E+02  0.33327310208E+02  0.26880960310E+03  0.19200000000E+03 0.  0.
   -5000001    1    1    2    0    0 -0.18484176580E+03  0.10835807890E+02  0.16973302345E+03  0.31616007396E+03  0.19200000000E+03 0.  0.
<mgrwt>
<rscale>  0 0.54859459E+03</rscale>
<asrwt>0</asrwt>
<pdfrwt beam="1">  1        2 0.56287857E-01 0.54859459E+03</pdfrwt>
<pdfrwt beam="2">  1       -2 0.27279239E-01 0.54859459E+03</pdfrwt>
<totfact> 0.10762977E+03</totfact>
</mgrwt>
</event>
<event>
 4    1  0.5621415E-005  0.4886793E+03  0.7818608E-02  0.1016777E+00
         -2   -1    0    0    0  501 -0.00000000000E+00  0.00000000000E+00  0.37300171679E+03  0.37300171680E+03  0.25500000000E-02 0. -1.
          2   -1    0    0  501    0  0.00000000000E+00 -0.00000000000E+00 -0.16005788586E+03  0.16005788588E+03  0.25500000000E-02 0.  1.
    5000001    1    1    2    0    0  0.11204972885E+03 -0.97950107148E+02  0.13509418772E+03  0.27796367529E+03  0.19200000000E+03 0.  0.
   -5000001    1    1    2    0    0 -0.11204972885E+03  0.97950107148E+02  0.77849643214E+02  0.25509592740E+03  0.19200000000E+03 0.  0.
<mgrwt>
<rscale>  0 0.48867931E+03</rscale>
<asrwt>0</asrwt>
<pdfrwt beam="1">  1        2 0.22865413E-01 0.48867931E+03</pdfrwt>
<pdfrwt beam="2">  1       -2 0.53285959E-01 0.48867931E+03</pdfrwt>
<totfact> 0.81005174E+02</totfact>
</mgrwt>
</event>
<event>
 4    1  0.5621415E-005  0.5482482E+03  0.7818608E-02  0.1001900E+00
         -2   -1    0    0    0  501 -0.00000000000E+00  0.00000000000E+00  0.17306204848E+03  0.17306204850E+03  0.25500000000E-02 0. -1.
          2   -1    0    0  501    0  0.00000000000E+00 -0.00000000000E+00 -0.43420284487E+03  0.43420284488E+03  0.25500000000E-02 0.  1.
    5000001    1    1    2    0    0 -0.18145387538E+03 -0.68486067716E+02 -0.10202441880E+03  0.29135688149E+03  0.19200000000E+03 0.  0.
   -5000001    1    1    2    0    0  0.18145387538E+03  0.68486067716E+02 -0.15911637759E+03  0.31590801189E+03  0.19200000000E+03 0.  0.
<mgrwt>
<rscale>  0 0.54824824E+03</rscale>
<asrwt>0</asrwt>
<pdfrwt beam="1">  1        2 0.62028978E-01 0.54824824E+03</pdfrwt>
<pdfrwt beam="2">  1       -2 0.24723150E-01 0.54824824E+03</pdfrwt>
<totfact> 0.11536610E+03</totfact>
</mgrwt>
</event>
<event>
 4    1  0.5621415E-005  0.4838267E+03  0.7818608E-02  0.1018089E+00
         -2   -1    0    0    0  501 -0.00000000000E+00  0.00000000000E+00  0.94851672471E+02  0.94851672505E+02  0.25500000000E-02 0. -1.
          2   -1    0    0  501    0  0.00000000000E+00 -0.00000000000E+00 -0.61698499798E+03  0.61698499799E+03  0.25500000000E-02 0.  1.
    5000001    1    1    2    0    0 -0.11777287952E+03 -0.33555918724E+02 -0.38114926856E+03  0.44399911684E+03  0.19200000000E+03 0.  0.
   -5000001    1    1    2    0    0  0.11777287952E+03  0.33555918724E+02 -0.14098405695E+03  0.26783755365E+03  0.19200000000E+03 0.  0.
<mgrwt>
<rscale>  0 0.48382666E+03</rscale>
<asrwt>0</asrwt>
<pdfrwt beam="1">  1        2 0.88140712E-01 0.48382666E+03</pdfrwt>
<pdfrwt beam="2">  1       -2 0.13550239E-01 0.48382666E+03</pdfrwt>
<totfact> 0.21718418E+03</totfact>
</mgrwt>
</event>
<event>
 4    1  0.5621415E-005  0.5224233E+03  0.7818608E-02  0.1008086E+00
          2   -1    0    0  501    0  0.00000000000E+00  0.00000000000E+00  0.85997524259E+03  0.85997524260E+03  0.25500000000E-02 0.  1.
         -2   -1    0    0    0  501 -0.00000000000E+00 -0.00000000000E+00 -0.79341263999E+02  0.79341264040E+02  0.25500000000E-02 0. -1.
    5000001    1    1    2    0    0 -0.13519438907E+03  0.11092119288E+03  0.44074080746E+03  0.51156377239E+03  0.19200000000E+03 0.  0.
   -5000001    1    1    2    0    0  0.13519438907E+03 -0.11092119288E+03  0.33989317113E+03  0.42775273424E+03  0.19200000000E+03 0.  0.
<mgrwt>
<rscale>  0 0.52242329E+03</rscale>
<asrwt>0</asrwt>
<pdfrwt beam="1">  1        2 0.12285360E+00 0.52242329E+03</pdfrwt>
<pdfrwt beam="2">  1       -2 0.11334467E-01 0.52242329E+03</pdfrwt>
<totfact> 0.19341625E+03</totfact>
</mgrwt>
</event>
<event>
 4    1  0.5621415E-005  0.6605345E+03  0.7818608E-02  0.9787210E-01
         -2   -1    0    0    0  501 -0.00000000000E+00  0.00000000000E+00  0.71607229346E+02  0.71607229391E+02  0.25500000000E-02 0. -1.
          2   -1    0    0  501    0  0.00000000000E+00 -0.00000000000E+00 -0.15232605884E+04  0.15232605884E+04  0.25500000000E-02 0.  1.
    5000001    1    1    2    0    0  0.91379657459E+02 -0.14213703698E+03 -0.12303340342E+04  0.12566379808E+04  0.19200000000E+03 0.  0.
   -5000001    1    1    2    0    0 -0.91379657459E+02  0.14213703698E+03 -0.22131932485E+03  0.33822983699E+03  0.19200000000E+03 0.  0.
<mgrwt>
<rscale>  0 0.66053454E+03</rscale>
<asrwt>0</asrwt>
<pdfrwt beam="1">  1        2 0.21760864E+00 0.66053454E+03</pdfrwt>
<pdfrwt beam="2">  1       -2 0.10229605E-01 0.66053454E+03</pdfrwt>
<totfact> 0.95251572E+02</totfact>
</mgrwt>
</event>
<event>
 4    1  0.5621415E-005  0.5095020E+03  0.7818608E-02  0.1011328E+00
         -2   -1    0    0    0  501 -0.00000000000E+00  0.00000000000E+00  0.96369407861E+02  0.96369407895E+02  0.25500000000E-02 0. -1.
          2   -1    0    0  501    0  0.00000000000E+00 -0.00000000000E+00 -0.67343033740E+03  0.67343033740E+03  0.25500000000E-02 0.  1.
    5000001    1    1    2    0    0  0.11729592156E+03  0.11613553355E+03 -0.24611012403E+03  0.35310053599E+03  0.19200000000E+03 0.  0.
   -5000001    1    1    2    0    0 -0.11729592156E+03 -0.11613553355E+03 -0.33095080551E+03  0.41669920930E+03  0.19200000000E+03 0.  0.
<mgrwt>
<rscale>  0 0.50950204E+03</rscale>
<asrwt>0</asrwt>
<pdfrwt beam="1">  1        2 0.96204331E-01 0.50950204E+03</pdfrwt>
<pdfrwt beam="2">  1       -2 0.13767059E-01 0.50950204E+03</pdfrwt>
<totfact> 0.19066128E+03</totfact>
</mgrwt>
</event>
<event>
 4    1  0.5621415E-005  0.1529945E+04  0.7818608E-02  0.8864781E-01
          2   -1    0    0  501    0  0.00000000000E+00  0.00000000000E+00  0.12021137440E+04  0.12021137440E+04  0.25500000000E-02 0.  1.
         -2   -1    0    0    0  501 -0.00000000000E+00 -0.00000000000E+00 -0.48679471644E+03  0.48679471645E+03  0.25500000000E-02 0. -1.
    5000001    1    1    2    0    0 -0.52742369543E+03  0.44617293051E+03  0.65195354167E+03  0.96909930292E+03  0.19200000000E+03 0.  0.
   -5000001    1    1    2    0    0  0.52742369543E+03 -0.44617293051E+03  0.63365485864E+02  0.71980915750E+03  0.19200000000E+03 0.  0.
<mgrwt>
<rscale>  0 0.15299446E+04</rscale>
<asrwt>0</asrwt>
<pdfrwt beam="1">  1        2 0.17173053E+00 0.15299446E+04</pdfrwt>
<pdfrwt beam="2">  1       -2 0.69542102E-01 0.15299446E+04</pdfrwt>
<totfact> 0.38818512E+01</totfact>
</mgrwt>
</event>
<event>
 4    1  0.5621415E-005  0.5655766E+03  0.7818608E-02  0.9979515E-01
         -2   -1    0    0    0  501 -0.00000000000E+00  0.00000000000E+00  0.86320030801E+02  0.86320030839E+02  0.25500000000E-02 0. -1.
          2   -1    0    0  501    0  0.00000000000E+00 -0.00000000000E+00 -0.92642721269E+03  0.92642721269E+03  0.25500000000E-02 0.  1.
    5000001    1    1    2    0    0  0.18058498840E+03  0.55995514034E+02 -0.57366123620E+03  0.63379622084E+03  0.19200000000E+03 0.  0.
   -5000001    1    1    2    0    0 -0.18058498840E+03 -0.55995514034E+02 -0.26644594569E+03  0.37895102270E+03  0.19200000000E+03 0.  0.
<mgrwt>
<rscale>  0 0.56557661E+03</rscale>
<asrwt>0</asrwt>
<pdfrwt beam="1">  1        2 0.13234674E+00 0.56557661E+03</pdfrwt>
<pdfrwt beam="2">  1       -2 0.12331434E-01 0.56557661E+03</pdfrwt>
<totfact> 0.15251981E+03</totfact>
</mgrwt>
</event>
<event>
 4    1  0.5621415E-005  0.6857778E+03  0.7818608E-02  0.9741868E-01
          2   -1    0    0  501    0  0.00000000000E+00  0.00000000000E+00  0.17824551996E+03  0.17824551998E+03  0.25500000000E-02 0.  1.
         -2   -1    0    0    0  501 -0.00000000000E+00 -0.00000000000E+00 -0.65961146447E+03  0.65961146448E+03  0.25500000000E-02 0. -1.
    5000001    1    1    2    0    0 -0.15262664995E+03 -0.23666364364E+03 -0.19490008961E+03  0.39262529138E+03  0.19200000000E+03 0.  0.
   -5000001    1    1    2    0    0  0.15262664995E+03  0.23666364364E+03 -0.28646585490E+03  0.44523169308E+03  0.19200000000E+03 0.  0.
<mgrwt>
<rscale>  0 0.68577777E+03</rscale>
<asrwt>0</asrwt>
<pdfrwt beam="1">  1        2 0.25463646E-01 0.68577777E+03</pdfrwt>
<pdfrwt beam="2">  1       -2 0.94230209E-01 0.68577777E+03</pdfrwt>
<totfact> 0.20589168E+02</totfact>
</mgrwt>
</event>
<event>
 4    1  0.5621415E-005  0.5011745E+03  0.7818608E-02  0.1013473E+00
         -2   -1    0    0    0  501 -0.00000000000E+00  0.00000000000E+00  0.14991468093E+03  0.14991468095E+03  0.25500000000E-02 0.  1.
          2   -1    0    0  501    0  0.00000000000E+00 -0.00000000000E+00 -0.41886478928E+03  0.41886478928E+03  0.25500000000E-02 0. -1.
    5000001    1    1    2    0    0 -0.69337736349E+02  0.58470536896E+02  0.16527374971E+02  0.21298751017E+03  0.19200000000E+03 0.  0.
   -5000001    1    1    2    0    0  0.69337736349E+02 -0.58470536896E+02 -0.28547748332E+03  0.35579196006E+03  0.19200000000E+03 0.  0.
<mgrwt>
<rscale>  0 0.50117455E+03</rscale>
<asrwt>0</asrwt>
<pdfrwt beam="1">  1        2 0.59837826E-01 0.50117455E+03</pdfrwt>
<pdfrwt beam="2">  1       -2 0.21416383E-01 0.50117455E+03</pdfrwt>
<totfact> 0.15480165E+03</totfact>
</mgrwt>
</event>
<event>
 4    1  0.5621415E-005  0.5916302E+03  0.7818608E-02  0.9922925E-01
          2   -1    0    0  501    0  0.00000000000E+00  0.00000000000E+00  0.53256303019E+03  0.53256303019E+03  0.25500000000E-02 0.  1.
         -2   -1    0    0    0  501 -0.00000000000E+00 -0.00000000000E+00 -0.16431211911E+03  0.16431211913E+03  0.25500000000E-02 0. -1.
    5000001    1    1    2    0    0 -0.17990908928E+03  0.97748201240E+02  0.29412150376E+03  0.40656297203E+03  0.19200000000E+03 0.  0.
   -5000001    1    1    2    0    0  0.17990908928E+03 -0.97748201240E+02  0.74129407313E+02  0.29031217729E+03  0.19200000000E+03 0.  0.
<mgrwt>
<rscale>  0 0.59163015E+03</rscale>
<asrwt>0</asrwt>
<pdfrwt beam="1">  1        2 0.76080434E-01 0.59163015E+03</pdfrwt>
<pdfrwt beam="2">  1       -2 0.23473159E-01 0.59163015E+03</pdfrwt>
<totfact> 0.10043341E+03</totfact>
</mgrwt>
</event>
<event>
 4    1  0.5621415E-005  0.1163533E+04  0.7818608E-02  0.9145388E-01
          2   -1    0    0  501    0  0.00000000000E+00  0.00000000000E+00  0.12333724969E+04  0.12333724969E+04  0.25500000000E-02 0.  1.
         -2   -1    0    0    0  501 -0.00000000000E+00 -0.00000000000E+00 -0.27441222243E+03  0.27441222244E+03  0.25500000000E-02 0. -1.
    5000001    1    1    2    0    0  0.77948434039E+02  0.54032033827E+03  0.55686914282E+03  0.80311223907E+03  0.19200000000E+03 0.  0.
   -5000001    1    1    2    0    0 -0.77948434039E+02 -0.54032033827E+03  0.40209113168E+03  0.70467248030E+03  0.19200000000E+03 0.  0.
<mgrwt>
<rscale>  0 0.11635334E+04</rscale>
<asrwt>0</asrwt>
<pdfrwt beam="1">  1        2 0.17619607E+00 0.11635334E+04</pdfrwt>
<pdfrwt beam="2">  1       -2 0.39201745E-01 0.11635334E+04</pdfrwt>
<totfact> 0.12435909E+02</totfact>
</mgrwt>
</event>
<event>
 4    1  0.5621415E-005  0.6512718E+03  0.7818608E-02  0.9804396E-01
         -2   -1    0    0    0  501 -0.00000000000E+00  0.00000000000E+00  0.14050638277E+03  0.14050638280E+03  0.25500000000E-02 0. -1.
          2   -1    0    0  501    0  0.00000000000E+00 -0.00000000000E+00 -0.75468987339E+03  0.75468987339E+03  0.25500000000E-02 0.  1.
    5000001    1    1    2    0    0  0.14606265657E+03  0.20243097931E+03 -0.42095559478E+03  0.52571875923E+03  0.19200000000E+03 0.  0.
   -5000001    1    1    2    0    0 -0.14606265657E+03 -0.20243097931E+03 -0.19322789583E+03  0.36947749696E+03  0.19200000000E+03 0.  0.
<mgrwt>
<rscale>  0 0.65127181E+03</rscale>
<asrwt>0</asrwt>
<pdfrwt beam="1">  1        2 0.10781284E+00 0.65127181E+03</pdfrwt>
<pdfrwt beam="2">  1       -2 0.20072341E-01 0.65127181E+03</pdfrwt>
<totfact> 0.87111624E+02</totfact>
</mgrwt>
</event>
<event>
 4    1  0.5621415E-005  0.7343187E+03  0.7818608E-02  0.9660278E-01
          2   -1    0    0  501    0  0.00000000000E+00  0.00000000000E+00  0.66279359847E+03  0.66279359848E+03  0.25500000000E-02 0.  1.
         -2   -1    0    0    0  501 -0.00000000000E+00 -0.00000000000E+00 -0.20339059730E+03  0.20339059731E+03  0.25500000000E-02 0. -1.
    5000001    1    1    2    0    0  0.85706025006E+02  0.28033470157E+03  0.10043749318E+03  0.36453361665E+03  0.19200000000E+03 0.  0.
   -5000001    1    1    2    0    0 -0.85706025006E+02 -0.28033470157E+03  0.35896550799E+03  0.50165057914E+03  0.19200000000E+03 0.  0.
<mgrwt>
<rscale>  0 0.73431869E+03</rscale>
<asrwt>0</asrwt>
<pdfrwt beam="1">  1        2 0.94684800E-01 0.73431869E+03</pdfrwt>
<pdfrwt beam="2">  1       -2 0.29055799E-01 0.73431869E+03</pdfrwt>
<totfact> 0.52573499E+02</totfact>
</mgrwt>
</event>
<event>
 4    1  0.5621415E-005  0.5296667E+03  0.7818608E-02  0.1006313E+00
          2   -1    0    0  501    0  0.00000000000E+00  0.00000000000E+00  0.11477448569E+04  0.11477448569E+04  0.25500000000E-02 0.  1.
         -2   -1    0    0    0  501 -0.00000000000E+00 -0.00000000000E+00 -0.61108278534E+02  0.61108278587E+02  0.25500000000E-02 0. -1.
    5000001    1    1    2    0    0 -0.14041400168E+03 -0.72153619740E+02  0.75187609638E+03  0.79189892096E+03  0.19200000000E+03 0.  0.
   -5000001    1    1    2    0    0  0.14041400168E+03  0.72153619740E+02  0.33476048196E+03  0.41695421450E+03  0.19200000000E+03 0.  0.
<mgrwt>
<rscale>  0 0.52966673E+03</rscale>
<asrwt>0</asrwt>
<pdfrwt beam="1">  1        2 0.16396353E+00 0.52966673E+03</pdfrwt>
<pdfrwt beam="2">  1       -2 0.87297552E-02 0.52966673E+03</pdfrwt>
<totfact> 0.19709549E+03</totfact>
</mgrwt>
</event>
<event>
 4    1  0.5621415E-005  0.4688795E+03  0.7818608E-02  0.1022237E+00
         -2   -1    0    0    0  501 -0.00000000000E+00  0.00000000000E+00  0.29568097734E+02  0.29568097844E+02  0.25500000000E-02 0. -1.
          2   -1    0    0  501    0  0.00000000000E+00 -0.00000000000E+00 -0.18588275542E+04  0.18588275542E+04  0.25500000000E-02 0.  1.
    5000001    1    1    2    0    0  0.12492122001E+03  0.14804180390E+02 -0.11066650580E+04  0.11302194590E+04  0.19200000000E+03 0.  0.
   -5000001    1    1    2    0    0 -0.12492122001E+03 -0.14804180390E+02 -0.72259439847E+03  0.75817619302E+03  0.19200000000E+03 0.  0.
<mgrwt>
<rscale>  0 0.46887949E+03</rscale>
<asrwt>0</asrwt>
<pdfrwt beam="1">  1        2 0.26554672E+00 0.46887949E+03</pdfrwt>
<pdfrwt beam="2">  1       -2 0.42240152E-02 0.46887949E+03</pdfrwt>
<totfact> 0.26061325E+03</totfact>
</mgrwt>
</event>
<event>
 4    1  0.5621415E-005  0.4813397E+03  0.7818608E-02  0.1018768E+00
         -2   -1    0    0    0  501 -0.00000000000E+00  0.00000000000E+00  0.77520870819E+02  0.77520870861E+02  0.25500000000E-02 0. -1.
          2   -1    0    0  501    0  0.00000000000E+00 -0.00000000000E+00 -0.74717917199E+03  0.74717917199E+03  0.25500000000E-02 0.  1.
    5000001    1    1    2    0    0  0.10632557498E+03  0.84048038486E+02 -0.24598641771E+03  0.34020952128E+03  0.19200000000E+03 0.  0.
   -5000001    1    1    2    0    0 -0.10632557498E+03 -0.84048038486E+02 -0.42367188346E+03  0.48449052158E+03  0.19200000000E+03 0.  0.
<mgrwt>
<rscale>  0 0.48133971E+03</rscale>
<asrwt>0</asrwt>
<pdfrwt beam="1">  1        2 0.10673988E+00 0.48133971E+03</pdfrwt>
<pdfrwt beam="2">  1       -2 0.11074411E-01 0.48133971E+03</pdfrwt>
<totfact> 0.24014527E+03</totfact>
</mgrwt>
</event>
<event>
 4    1  0.5621415E-005  0.4576662E+03  0.7818608E-02  0.1025460E+00
         -2   -1    0    0    0  501 -0.00000000000E+00  0.00000000000E+00  0.29257203603E+03  0.29257203604E+03  0.25500000000E-02 0. -1.
          2   -1    0    0  501    0  0.00000000000E+00 -0.00000000000E+00 -0.17898018706E+03  0.17898018708E+03  0.25500000000E-02 0.  1.
    5000001    1    1    2    0    0  0.66504399131E+02 -0.10301777703E+03  0.34575405201E+02  0.23042342792E+03  0.19200000000E+03 0.  0.
   -5000001    1    1    2    0    0 -0.66504399131E+02  0.10301777703E+03  0.79016443767E+02  0.24112879520E+03  0.19200000000E+03 0.  0.
<mgrwt>
<rscale>  0 0.45766624E+03</rscale>
<asrwt>0</asrwt>
<pdfrwt beam="1">  1        2 0.25568598E-01 0.45766624E+03</pdfrwt>
<pdfrwt beam="2">  1       -2 0.41796005E-01 0.45766624E+03</pdfrwt>
<totfact> 0.11574268E+03</totfact>
</mgrwt>
</event>
<event>
 4    1  0.5621415E-005  0.4151280E+03  0.7818608E-02  0.1038664E+00
          2   -1    0    0  501    0  0.00000000000E+00  0.00000000000E+00  0.31071641368E+03  0.31071641369E+03  0.25500000000E-02 0.  1.
         -2   -1    0    0    0  501 -0.00000000000E+00 -0.00000000000E+00 -0.13865636345E+03  0.13865636348E+03  0.25500000000E-02 0. -1.
    5000001    1    1    2    0    0  0.44628284289E+02 -0.28327137876E+02  0.22681592905E+02  0.20043094860E+03  0.19200000000E+03 0.  0.
   -5000001    1    1    2    0    0 -0.44628284289E+02  0.28327137876E+02  0.14937845732E+03  0.24894182857E+03  0.19200000000E+03 0.  0.
<mgrwt>
<rscale>  0 0.41512797E+03</rscale>
<asrwt>0</asrwt>
<pdfrwt beam="1">  1        2 0.44388059E-01 0.41512797E+03</pdfrwt>
<pdfrwt beam="2">  1       -2 0.19808052E-01 0.41512797E+03</pdfrwt>
<totfact> 0.24568660E+03</totfact>
</mgrwt>
</event>
<event>
 4    1  0.5621415E-005  0.1499340E+04  0.7818608E-02  0.8884892E-01
         -2   -1    0    0    0  501 -0.00000000000E+00  0.00000000000E+00  0.11259421897E+04  0.11259421897E+04  0.25500000000E-02 0. -1.
          2   -1    0    0  501    0  0.00000000000E+00 -0.00000000000E+00 -0.49914212469E+03  0.49914212470E+03  0.25500000000E-02 0.  1.
    5000001    1    1    2    0    0  0.38589852183E+03 -0.51131671276E+03  0.68060322350E+03  0.95417356793E+03  0.19200000000E+03 0.  0.
   -5000001    1    1    2    0    0 -0.38589852183E+03  0.51131671276E+03 -0.53803158464E+02  0.67091074649E+03  0.19200000000E+03 0.  0.
<mgrwt>
<rscale>  0 0.14993401E+04</rscale>
<asrwt>0</asrwt>
<pdfrwt beam="1">  1        2 0.71306017E-01 0.14993401E+04</pdfrwt>
<pdfrwt beam="2">  1       -2 0.16084889E+00 0.14993401E+04</pdfrwt>
<totfact> 0.16156837E+01</totfact>
</mgrwt>
</event>
<event>
 4    1  0.5621415E-005  0.6292747E+03  0.7818608E-02  0.9846465E-01
         -2   -1    0    0    0  501 -0.00000000000E+00  0.00000000000E+00  0.78168030522E+02  0.78168030563E+02  0.25500000000E-02 0. -1.
          2   -1    0    0  501    0  0.00000000000E+00 -0.00000000000E+00 -0.12664598606E+04  0.12664598606E+04  0.25500000000E-02 0.  1.
    5000001    1    1    2    0    0  0.77911000308E+02  0.23543580435E+03 -0.64788654753E+03  0.71980630756E+03  0.19200000000E+03 0.  0.
   -5000001    1    1    2    0    0 -0.77911000308E+02 -0.23543580435E+03 -0.54040528258E+03  0.62482158364E+03  0.19200000000E+03 0.  0.
<mgrwt>
<rscale>  0 0.62927474E+03</rscale>
<asrwt>0</asrwt>
<pdfrwt beam="1">  1        2 0.18092283E+00 0.62927474E+03</pdfrwt>
<pdfrwt beam="2">  1       -2 0.11166862E-01 0.62927474E+03</pdfrwt>
<totfact> 0.11332756E+03</totfact>
</mgrwt>
</event>
<event>
 4    1  0.5621415E-005  0.8130940E+03  0.7818608E-02  0.9541255E-01
          2   -1    0    0  501    0  0.00000000000E+00  0.00000000000E+00  0.30820986518E+04  0.30820986518E+04  0.25500000000E-02 0.  1.
         -2   -1    0    0    0  501 -0.00000000000E+00 -0.00000000000E+00 -0.53625946050E+02  0.53625946110E+02  0.25500000000E-02 0. -1.
    5000001    1    1    2    0    0 -0.31679564334E+03 -0.83453718277E+02  0.20743300878E+04  0.21087990221E+04  0.19200000000E+03 0.  0.
   -5000001    1    1    2    0    0  0.31679564334E+03  0.83453718277E+02  0.95414261798E+03  0.10269255758E+04  0.19200000000E+03 0.  0.
<mgrwt>
<rscale>  0 0.81309398E+03</rscale>
<asrwt>0</asrwt>
<pdfrwt beam="1">  1        2 0.44029983E+00 0.81309398E+03</pdfrwt>
<pdfrwt beam="2">  1       -2 0.76608490E-02 0.81309398E+03</pdfrwt>
<totfact> 0.23329850E+02</totfact>
</mgrwt>
</event>
<event>
 4    1  0.5621415E-005  0.4500709E+03  0.7818608E-02  0.1027701E+00
          2   -1    0    0  501    0  0.00000000000E+00  0.00000000000E+00  0.87855232637E+03  0.87855232638E+03  0.25500000000E-02 0.  1.
         -2   -1    0    0    0  501 -0.00000000000E+00 -0.00000000000E+00 -0.57641364899E+02  0.57641364955E+02  0.25500000000E-02 0. -1.
    5000001    1    1    2    0    0 -0.48752394055E+02  0.10369141379E+03  0.46341646463E+03  0.51453622312E+03  0.19200000000E+03 0.  0.
   -5000001    1    1    2    0    0  0.48752394055E+02 -0.10369141379E+03  0.35749449685E+03  0.42165746821E+03  0.19200000000E+03 0.  0.
<mgrwt>
<rscale>  0 0.45007091E+03</rscale>
<asrwt>0</asrwt>
<pdfrwt beam="1">  1        2 0.12550747E+00 0.45007091E+03</pdfrwt>
<pdfrwt beam="2">  1       -2 0.82344811E-02 0.45007091E+03</pdfrwt>
<totfact> 0.31434827E+03</totfact>
</mgrwt>
</event>
<event>
 4    1  0.5621415E-005  0.4404570E+03  0.7818608E-02  0.1030607E+00
         -2   -1    0    0    0  501 -0.00000000000E+00  0.00000000000E+00  0.20416434039E+03  0.20416434041E+03  0.25500000000E-02 0. -1.
          2   -1    0    0  501    0  0.00000000000E+00 -0.00000000000E+00 -0.23755660294E+03  0.23755660296E+03  0.25500000000E-02 0.  1.
    5000001    1    1    2    0    0  0.79402481924E+02  0.72499572330E+02 -0.79737575440E+01  0.22020109658E+03  0.19200000000E+03 0.  0.
   -5000001    1    1    2    0    0 -0.79402481924E+02 -0.72499572330E+02 -0.25418505009E+02  0.22151984679E+03  0.19200000000E+03 0.  0.
<mgrwt>
<rscale>  0 0.44045698E+03</rscale>
<asrwt>0</asrwt>
<pdfrwt beam="1">  1        2 0.33936657E-01 0.44045698E+03</pdfrwt>
<pdfrwt beam="2">  1       -2 0.29166334E-01 0.44045698E+03</pdfrwt>
<totfact> 0.16614252E+03</totfact>
</mgrwt>
</event>
<event>
 4    1  0.5621415E-005  0.1308096E+04  0.7818608E-02  0.9023169E-01
         -2   -1    0    0    0  501 -0.00000000000E+00  0.00000000000E+00  0.59410541995E+03  0.59410541995E+03  0.25500000000E-02 0. -1.
          2   -1    0    0  501    0  0.00000000000E+00 -0.00000000000E+00 -0.72003890033E+03  0.72003890034E+03  0.25500000000E-02 0.  1.
    5000001    1    1    2    0    0  0.15232163757E+03  0.89011265331E+02  0.53963162643E+03  0.59932560338E+03  0.19200000000E+03 0.  0.
   -5000001    1    1    2    0    0 -0.15232163757E+03 -0.89011265331E+02 -0.66556510682E+03  0.71481871691E+03  0.19200000000E+03 0.  0.
<mgrwt>
<rscale>  0 0.13080963E+04</rscale>
<asrwt>0</asrwt>
<pdfrwt beam="1">  1        2 0.10286270E+00 0.13080963E+04</pdfrwt>
<pdfrwt beam="2">  1       -2 0.84872204E-01 0.13080963E+04</pdfrwt>
<totfact> 0.51554225E+01</totfact>
</mgrwt>
</event>
<event>
 4    1  0.5621415E-005  0.4473251E+03  0.7818608E-02  0.1028523E+00
          2   -1    0    0  501    0  0.00000000000E+00  0.00000000000E+00  0.81157108126E+03  0.81157108126E+03  0.25500000000E-02 0.  1.
         -2   -1    0    0    0  501 -0.00000000000E+00 -0.00000000000E+00 -0.61639617995E+02  0.61639618047E+02  0.25500000000E-02 0. -1.
    5000001    1    1    2    0    0 -0.21940482577E+02  0.10350768329E+03  0.46151334623E+03  0.51093423649E+03  0.19200000000E+03 0.  0.
   -5000001    1    1    2    0    0  0.21940482577E+02 -0.10350768329E+03  0.28841811704E+03  0.36227646282E+03  0.19200000000E+03 0.  0.
<mgrwt>
<rscale>  0 0.44732508E+03</rscale>
<asrwt>0</asrwt>
<pdfrwt beam="1">  1        2 0.11593873E+00 0.44732508E+03</pdfrwt>
<pdfrwt beam="2">  1       -2 0.88056597E-02 0.44732508E+03</pdfrwt>
<totfact> 0.31297233E+03</totfact>
</mgrwt>
</event>
<event>
 4    1  0.5621415E-005  0.4394671E+03  0.7818608E-02  0.1030910E+00
          2   -1    0    0  501    0  0.00000000000E+00  0.00000000000E+00  0.20543504573E+03  0.20543504574E+03  0.25500000000E-02 0.  1.
         -2   -1    0    0    0  501 -0.00000000000E+00 -0.00000000000E+00 -0.23502728430E+03  0.23502728432E+03  0.25500000000E-02 0. -1.
    5000001    1    1    2    0    0 -0.90222311011E+02  0.14896697424E+02 -0.70210236688E+02  0.22395413444E+03  0.19200000000E+03 0.  0.
   -5000001    1    1    2    0    0  0.90222311011E+02 -0.14896697424E+02  0.40617998109E+02  0.21650819562E+03  0.19200000000E+03 0.  0.
<mgrwt>
<rscale>  0 0.43946714E+03</rscale>
<asrwt>0</asrwt>
<pdfrwt beam="1">  1        2 0.29347864E-01 0.43946714E+03</pdfrwt>
<pdfrwt beam="2">  1       -2 0.33575326E-01 0.43946714E+03</pdfrwt>
<totfact> 0.15049012E+03</totfact>
</mgrwt>
</event>
<event>
 4    1  0.5621415E-005  0.5932516E+03  0.7818608E-02  0.9919507E-01
         -2   -1    0    0    0  501 -0.00000000000E+00  0.00000000000E+00  0.44655693465E+03  0.44655693466E+03  0.25500000000E-02 0. -1.
          2   -1    0    0  501    0  0.00000000000E+00 -0.00000000000E+00 -0.19703393225E+03  0.19703393227E+03  0.25500000000E-02 0.  1.
    5000001    1    1    2    0    0 -0.16993392763E+03  0.14126468461E+03  0.17667167167E+03  0.34192123427E+03  0.19200000000E+03 0.  0.
   -5000001    1    1    2    0    0  0.16993392763E+03 -0.14126468461E+03  0.72851330733E+02  0.30166963266E+03  0.19200000000E+03 0.  0.
<mgrwt>
<rscale>  0 0.59325161E+03</rscale>
<asrwt>0</asrwt>
<pdfrwt beam="1">  1        2 0.28147705E-01 0.59325161E+03</pdfrwt>
<pdfrwt beam="2">  1       -2 0.63793848E-01 0.59325161E+03</pdfrwt>
<totfact> 0.43874291E+02</totfact>
</mgrwt>
</event>
<event>
 4    1  0.5621415E-005  0.5208792E+03  0.7818608E-02  0.1008468E+00
          2   -1    0    0  501    0  0.00000000000E+00  0.00000000000E+00  0.27580419835E+04  0.27580419835E+04  0.25500000000E-02 0.  1.
         -2   -1    0    0    0  501 -0.00000000000E+00 -0.00000000000E+00 -0.24593090888E+02  0.24593091021E+02  0.25500000000E-02 0. -1.
    5000001    1    1    2    0    0 -0.12385359299E+03 -0.78946880524E+01  0.20331663230E+04  0.20459793096E+04  0.19200000000E+03 0.  0.
   -5000001    1    1    2    0    0  0.12385359299E+03  0.78946880524E+01  0.70028256962E+03  0.73665576486E+03  0.19200000000E+03 0.  0.
<mgrwt>
<rscale>  0 0.52087917E+03</rscale>
<asrwt>0</asrwt>
<pdfrwt beam="1">  1        2 0.39400593E+00 0.52087917E+03</pdfrwt>
<pdfrwt beam="2">  1       -2 0.35132993E-02 0.52087917E+03</pdfrwt>
<totfact> 0.12078352E+03</totfact>
</mgrwt>
</event>
<event>
 4    1  0.5621415E-005  0.4866962E+03  0.7818608E-02  0.1017311E+00
          2   -1    0    0  501    0  0.00000000000E+00  0.00000000000E+00  0.76948290705E+03  0.76948290706E+03  0.25500000000E-02 0.  1.
         -2   -1    0    0    0  501 -0.00000000000E+00 -0.00000000000E+00 -0.76958569401E+02  0.76958569443E+02  0.25500000000E-02 0. -1.
    5000001    1    1    2    0    0  0.86189243132E+02 -0.11828664800E+03  0.29311142165E+03  0.37973493680E+03  0.19200000000E+03 0.  0.
   -5000001    1    1    2    0    0 -0.86189243132E+02  0.11828664800E+03  0.39941291600E+03  0.46670653970E+03  0.19200000000E+03 0.  0.
<mgrwt>
<rscale>  0 0.48669622E+03</rscale>
<asrwt>0</asrwt>
<pdfrwt beam="1">  1        2 0.10992613E+00 0.48669622E+03</pdfrwt>
<pdfrwt beam="2">  1       -2 0.10994082E-01 0.48669622E+03</pdfrwt>
<totfact> 0.23428225E+03</totfact>
</mgrwt>
</event>
<event>
 4    1  0.5621415E-005  0.6351250E+03  0.7818608E-02  0.9835098E-01
          2   -1    0    0  501    0  0.00000000000E+00  0.00000000000E+00  0.40749560535E+03  0.40749560536E+03  0.25500000000E-02 0.  1.
         -2   -1    0    0    0  501 -0.00000000000E+00 -0.00000000000E+00 -0.24747739465E+03  0.24747739466E+03  0.25500000000E-02 0. -1.
    5000001    1    1    2    0    0 -0.20638858907E+03 -0.14553032897E+03  0.94832749353E+02  0.33110810424E+03  0.19200000000E+03 0.  0.
   -5000001    1    1    2    0    0  0.20638858907E+03  0.14553032897E+03  0.65185461352E+02  0.32386489578E+03  0.19200000000E+03 0.  0.
<mgrwt>
<rscale>  0 0.63512503E+03</rscale>
<asrwt>0</asrwt>
<pdfrwt beam="1">  1        2 0.58213658E-01 0.63512503E+03</pdfrwt>
<pdfrwt beam="2">  1       -2 0.35353914E-01 0.63512503E+03</pdfrwt>
<totfact> 0.63988079E+02</totfact>
</mgrwt>
</event>
<event>
 4    1  0.5621415E-005  0.4572825E+03  0.7818608E-02  0.1025572E+00
          2   -1    0    0  501    0  0.00000000000E+00  0.00000000000E+00  0.67699992087E+02  0.67699992135E+02  0.25500000000E-02 0.  1.
         -2   -1    0    0    0  501 -0.00000000000E+00 -0.00000000000E+00 -0.77218343799E+03  0.77218343799E+03  0.25500000000E-02 0. -1.
    5000001    1    1    2    0    0  0.11907573782E+03 -0.35024921447E+02 -0.35711368267E+03  0.42402825237E+03  0.19200000000E+03 0.  0.
   -5000001    1    1    2    0    0 -0.11907573782E+03  0.35024921447E+02 -0.34736976323E+03  0.41585517776E+03  0.19200000000E+03 0.  0.
<mgrwt>
<rscale>  0 0.45728246E+03</rscale>
<asrwt>0</asrwt>
<pdfrwt beam="1">  1        2 0.96714279E-02 0.45728246E+03</pdfrwt>
<pdfrwt beam="2">  1       -2 0.11031191E+00 0.45728246E+03</pdfrwt>
<totfact> 0.45701997E+02</totfact>
</mgrwt>
</event>
<event>
 4    1  0.5621415E-005  0.6247309E+03  0.7818608E-02  0.9855385E-01
          2   -1    0    0  501    0  0.00000000000E+00  0.00000000000E+00  0.78833449220E+03  0.78833449221E+03  0.25500000000E-02 0.  1.
         -2   -1    0    0    0  501 -0.00000000000E+00 -0.00000000000E+00 -0.12377002969E+03  0.12377002971E+03  0.25500000000E-02 0. -1.
    5000001    1    1    2    0    0 -0.54873893725E+02  0.22111045703E+03  0.46929803295E+03  0.55588274137E+03  0.19200000000E+03 0.  0.
   -5000001    1    1    2    0    0  0.54873893725E+02 -0.22111045703E+03  0.19526642957E+03  0.35622178055E+03  0.19200000000E+03 0.  0.
<mgrwt>
<rscale>  0 0.62473093E+03</rscale>
<asrwt>0</asrwt>
<pdfrwt beam="1">  1        2 0.11261921E+00 0.62473093E+03</pdfrwt>
<pdfrwt beam="2">  1       -2 0.17681433E-01 0.62473093E+03</pdfrwt>
<totfact> 0.10272778E+03</totfact>
</mgrwt>
</event>
<event>
 4    1  0.5621415E-005  0.6029491E+03  0.7818608E-02  0.9899307E-01
          2   -1    0    0  501    0  0.00000000000E+00  0.00000000000E+00  0.31586535858E+04  0.31586535858E+04  0.25500000000E-02 0. -1.
         -2   -1    0    0    0  501 -0.00000000000E+00 -0.00000000000E+00 -0.28773934734E+02  0.28773934847E+02  0.25500000000E-02 0.  1.
    5000001    1    1    2    0    0 -0.15465488383E+03 -0.15925604035E+03  0.19289830592E+04  0.19511843229E+04  0.19200000000E+03 0.  0.
   -5000001    1    1    2    0    0  0.15465488383E+03  0.15925604035E+03  0.12008965919E+04  0.12362431977E+04  0.19200000000E+03 0.  0.
<mgrwt>
<rscale>  0 0.60294906E+03</rscale>
<asrwt>0</asrwt>
<pdfrwt beam="1">  1        2 0.45123602E+00 0.60294906E+03</pdfrwt>
<pdfrwt beam="2">  1       -2 0.41105640E-02 0.60294906E+03</pdfrwt>
<totfact> 0.57271660E+02</totfact>
</mgrwt>
</event>
<event>
 4    1  0.5621415E-005  0.1793479E+04  0.7818608E-02  0.8709775E-01
          2   -1    0    0  501    0  0.00000000000E+00  0.00000000000E+00  0.22443674555E+04  0.22443674555E+04  0.25500000000E-02 0.  1.
         -2   -1    0    0    0  501 -0.00000000000E+00 -0.00000000000E+00 -0.35829315623E+03  0.35829315624E+03  0.25500000000E-02 0. -1.
    5000001    1    1    2    0    0 -0.56828252803E+03  0.65816767297E+03  0.10962571782E+04  0.14123645132E+04  0.19200000000E+03 0.  0.
   -5000001    1    1    2    0    0  0.56828252803E+03 -0.65816767297E+03  0.78981712101E+03  0.11902960985E+04  0.19200000000E+03 0.  0.
<mgrwt>
<rscale>  0 0.17934787E+04</rscale>
<asrwt>0</asrwt>
<pdfrwt beam="1">  1        2 0.32062392E+00 0.17934787E+04</pdfrwt>
<pdfrwt beam="2">  1       -2 0.51184737E-01 0.17934787E+04</pdfrwt>
<totfact> 0.20494239E+01</totfact>
</mgrwt>
</event>
<event>
 4    1  0.5621415E-005  0.1409203E+04  0.7818608E-02  0.8947184E-01
          2   -1    0    0  501    0  0.00000000000E+00  0.00000000000E+00  0.31666337808E+04  0.31666337808E+04  0.25500000000E-02 0. -1.
         -2   -1    0    0    0  501 -0.00000000000E+00 -0.00000000000E+00 -0.15677947431E+03  0.15677947433E+03  0.25500000000E-02 0.  1.
    5000001    1    1    2    0    0  0.52148983474E+03  0.42852447337E+03  0.16543497050E+04  0.17970313905E+04  0.19200000000E+03 0.  0.
   -5000001    1    1    2    0    0 -0.52148983474E+03 -0.42852447337E+03  0.13555046015E+04  0.15263818647E+04  0.19200000000E+03 0.  0.
<mgrwt>
<rscale>  0 0.14092029E+04</rscale>
<asrwt>0</asrwt>
<pdfrwt beam="1">  1        2 0.45237625E+00 0.14092029E+04</pdfrwt>
<pdfrwt beam="2">  1       -2 0.22397068E-01 0.14092029E+04</pdfrwt>
<totfact> 0.32561627E+01</totfact>
</mgrwt>
</event>
<event>
 4    1  0.5621415E-005  0.4170042E+03  0.7818608E-02  0.1038046E+00
         -2   -1    0    0    0  501 -0.00000000000E+00  0.00000000000E+00  0.16710815811E+03  0.16710815813E+03  0.25500000000E-02 0. -1.
          2   -1    0    0  501    0  0.00000000000E+00 -0.00000000000E+00 -0.26014960646E+03  0.26014960647E+03  0.25500000000E-02 0.  1.
    5000001    1    1    2    0    0 -0.41827186279E+02  0.69087389247E+02 -0.56052191933E+02  0.21570449482E+03  0.19200000000E+03 0.  0.
   -5000001    1    1    2    0    0  0.41827186279E+02 -0.69087389247E+02 -0.36989256409E+02  0.21155326978E+03  0.19200000000E+03 0.  0.
<mgrwt>
<rscale>  0 0.41700418E+03</rscale>
<asrwt>0</asrwt>
<pdfrwt beam="1">  1        2 0.37164229E-01 0.41700418E+03</pdfrwt>
<pdfrwt beam="2">  1       -2 0.23872594E-01 0.41700418E+03</pdfrwt>
<totfact> 0.21534816E+03</totfact>
</mgrwt>
</event>
<event>
 4    1  0.5621415E-005  0.1569169E+04  0.7818608E-02  0.8839716E-01
         -2   -1    0    0    0  501 -0.00000000000E+00  0.00000000000E+00  0.27398097686E+03  0.27398097687E+03  0.25500000000E-02 0. -1.
          2   -1    0    0  501    0  0.00000000000E+00 -0.00000000000E+00 -0.22467717515E+04  0.22467717515E+04  0.25500000000E-02 0.  1.
    5000001    1    1    2    0    0  0.67089529855E+03  0.33551267400E+03 -0.11898443515E+04  0.14195995340E+04  0.19200000000E+03 0.  0.
   -5000001    1    1    2    0    0 -0.67089529855E+03 -0.33551267400E+03 -0.78294642314E+03  0.11011531944E+04  0.19200000000E+03 0.  0.
<mgrwt>
<rscale>  0 0.15691688E+04</rscale>
<asrwt>0</asrwt>
<pdfrwt beam="1">  1        2 0.32096738E+00 0.15691688E+04</pdfrwt>
<pdfrwt beam="2">  1       -2 0.39140141E-01 0.15691688E+04</pdfrwt>
<totfact> 0.35552682E+01</totfact>
</mgrwt>
</event>
<event>
 4    1  0.5621415E-005  0.6735765E+03  0.7818608E-02  0.9763518E-01
          2   -1    0    0  501    0  0.00000000000E+00  0.00000000000E+00  0.87193294138E+03  0.87193294138E+03  0.25500000000E-02 0.  1.
         -2   -1    0    0    0  501 -0.00000000000E+00 -0.00000000000E+00 -0.13008606255E+03  0.13008606258E+03  0.25500000000E-02 0. -1.
    5000001    1    1    2    0    0 -0.23785689465E+03 -0.14035228669E+03  0.34569292537E+03  0.48233003780E+03  0.19200000000E+03 0.  0.
   -5000001    1    1    2    0    0  0.23785689465E+03  0.14035228669E+03  0.39615395346E+03  0.51968896616E+03  0.19200000000E+03 0.  0.
<mgrwt>
<rscale>  0 0.67357649E+03</rscale>
<asrwt>0</asrwt>
<pdfrwt beam="1">  1        2 0.12456185E+00 0.67357649E+03</pdfrwt>
<pdfrwt beam="2">  1       -2 0.18583723E-01 0.67357649E+03</pdfrwt>
<totfact> 0.82628270E+02</totfact>
</mgrwt>
</event>
<event>
 4    1  0.5621415E-005  0.1010317E+04  0.7818608E-02  0.9297301E-01
          2   -1    0    0  501    0  0.00000000000E+00  0.00000000000E+00  0.18599736916E+04  0.18599736916E+04  0.25500000000E-02 0.  1.
         -2   -1    0    0    0  501 -0.00000000000E+00 -0.00000000000E+00 -0.13719832748E+03  0.13719832750E+03  0.25500000000E-02 0. -1.
    5000001    1    1    2    0    0  0.28310389008E+03 -0.37128028025E+03  0.89699275447E+03  0.10292992085E+04  0.19200000000E+03 0.  0.
   -5000001    1    1    2    0    0 -0.28310389008E+03  0.37128028025E+03  0.82578260965E+03  0.96787281059E+03  0.19200000000E+03 0.  0.
<mgrwt>
<rscale>  0 0.10103173E+04</rscale>
<asrwt>0</asrwt>
<pdfrwt beam="1">  1        2 0.26571055E+00 0.10103173E+04</pdfrwt>
<pdfrwt beam="2">  1       -2 0.19599759E-01 0.10103173E+04</pdfrwt>
<totfact> 0.20942770E+02</totfact>
</mgrwt>
</event>
<event>
 4    1  0.5621415E-005  0.6647118E+03  0.7818608E-02  0.9779559E-01
         -2   -1    0    0    0  501 -0.00000000000E+00  0.00000000000E+00  0.69467769006E+03  0.69467769006E+03  0.25500000000E-02 0. -1.
          2   -1    0    0  501    0  0.00000000000E+00 -0.00000000000E+00 -0.15900961716E+03  0.15900961718E+03  0.25500000000E-02 0.  1.
    5000001    1    1    2    0    0  0.21377621013E+03  0.38687161127E+02  0.47650549590E+03  0.55777993158E+03  0.19200000000E+03 0.  0.
   -5000001    1    1    2    0    0 -0.21377621013E+03 -0.38687161127E+02  0.59162577004E+02  0.29590737566E+03  0.19200000000E+03 0.  0.
<mgrwt>
<rscale>  0 0.66471177E+03</rscale>
<asrwt>0</asrwt>
<pdfrwt beam="1">  1        2 0.22715660E-01 0.66471177E+03</pdfrwt>
<pdfrwt beam="2">  1       -2 0.99239670E-01 0.66471177E+03</pdfrwt>
<totfact> 0.20814053E+02</totfact>
</mgrwt>
</event>
<event>
 4    1  0.5621415E-005  0.8897482E+03  0.7818608E-02  0.9438488E-01
          2   -1    0    0  501    0  0.00000000000E+00  0.00000000000E+00  0.16869106381E+04  0.16869106381E+04  0.25500000000E-02 0.  1.
         -2   -1    0    0    0  501 -0.00000000000E+00 -0.00000000000E+00 -0.11732273191E+03  0.11732273194E+03  0.25500000000E-02 0. -1.
    5000001    1    1    2    0    0  0.32792669036E+03  0.15294271714E+03  0.11367305546E+04  0.12082829729E+04  0.19200000000E+03 0.  0.
   -5000001    1    1    2    0    0 -0.32792669036E+03 -0.15294271714E+03  0.43285735163E+03  0.59595039713E+03  0.19200000000E+03 0.  0.
<mgrwt>
<rscale>  0 0.88974820E+03</rscale>
<asrwt>0</asrwt>
<pdfrwt beam="1">  1        2 0.24098724E+00 0.88974820E+03</pdfrwt>
<pdfrwt beam="2">  1       -2 0.16760390E-01 0.88974820E+03</pdfrwt>
<totfact> 0.33961315E+02</totfact>
</mgrwt>
</event>
<event>
 4    1  0.5621415E-005  0.9697345E+03  0.7818608E-02  0.9342377E-01
          2   -1    0    0  501    0  0.00000000000E+00  0.00000000000E+00  0.11642308614E+04  0.11642308614E+04  0.25500000000E-02 0.  1.
         -2   -1    0    0    0  501 -0.00000000000E+00 -0.00000000000E+00 -0.20193267716E+03  0.20193267718E+03  0.25500000000E-02 0. -1.
    5000001    1    1    2    0    0 -0.11903997267E+03  0.24581489247E+03 -0.14214038323E+02  0.33415791976E+03  0.19200000000E+03 0.  0.
   -5000001    1    1    2    0    0  0.11903997267E+03 -0.24581489247E+03  0.97651222254E+03  0.10320056188E+04  0.19200000000E+03 0.  0.
<mgrwt>
<rscale>  0 0.96973451E+03</rscale>
<asrwt>0</asrwt>
<pdfrwt beam="1">  1        2 0.16631869E+00 0.96973451E+03</pdfrwt>
<pdfrwt beam="2">  1       -2 0.28847526E-01 0.96973451E+03</pdfrwt>
<totfact> 0.24635780E+02</totfact>
</mgrwt>
</event>
<event>
 4    1  0.5621415E-005  0.9448412E+03  0.7818608E-02  0.9371201E-01
          2   -1    0    0  501    0  0.00000000000E+00  0.00000000000E+00  0.17031349213E+04  0.17031349213E+04  0.25500000000E-02 0.  1.
         -2   -1    0    0    0  501 -0.00000000000E+00 -0.00000000000E+00 -0.13104141990E+03  0.13104141993E+03  0.25500000000E-02 0. -1.
    5000001    1    1    2    0    0  0.27623043720E+02  0.25821377047E+03  0.14553707010E+04  0.14907733769E+04  0.19200000000E+03 0.  0.
   -5000001    1    1    2    0    0 -0.27623043720E+02 -0.25821377047E+03  0.11672280039E+03  0.34340296437E+03  0.19200000000E+03 0.  0.
<mgrwt>
<rscale>  0 0.94484119E+03</rscale>
<asrwt>0</asrwt>
<pdfrwt beam="1">  1        2 0.24330495E+00 0.94484119E+03</pdfrwt>
<pdfrwt beam="2">  1       -2 0.18720206E-01 0.94484119E+03</pdfrwt>
<totfact> 0.27429550E+02</totfact>
</mgrwt>
</event>
<event>
 4    1  0.5621415E-005  0.6564320E+03  0.7818608E-02  0.9794784E-01
         -2   -1    0    0    0  501 -0.00000000000E+00  0.00000000000E+00  0.92154679077E+02  0.92154679112E+02  0.25500000000E-02 0. -1.
          2   -1    0    0  501    0  0.00000000000E+00 -0.00000000000E+00 -0.11689667487E+04  0.11689667487E+04  0.25500000000E-02 0.  1.
    5000001    1    1    2    0    0 -0.10872384975E+02 -0.14657807282E+03 -0.96479637107E+03  0.99463529890E+03  0.19200000000E+03 0.  0.
   -5000001    1    1    2    0    0  0.10872384975E+02  0.14657807282E+03 -0.11201569857E+03  0.26648612893E+03  0.19200000000E+03 0.  0.
<mgrwt>
<rscale>  0 0.65643204E+03</rscale>
<asrwt>0</asrwt>
<pdfrwt beam="1">  1        2 0.16699524E+00 0.65643204E+03</pdfrwt>
<pdfrwt beam="2">  1       -2 0.13164955E-01 0.65643204E+03</pdfrwt>
<totfact> 0.97825952E+02</totfact>
</mgrwt>
</event>
<event>
 4    1  0.5621415E-005  0.8186677E+03  0.7818608E-02  0.9533383E-01
          2   -1    0    0  501    0  0.00000000000E+00  0.00000000000E+00  0.52720621392E+03  0.52720621392E+03  0.25500000000E-02 0.  1.
         -2   -1    0    0    0  501 -0.00000000000E+00 -0.00000000000E+00 -0.31781527853E+03  0.31781527854E+03  0.25500000000E-02 0. -1.
    5000001    1    1    2    0    0  0.10734911890E+03 -0.33487314783E+03  0.18173891263E+02  0.40107125152E+03  0.19200000000E+03 0.  0.
   -5000001    1    1    2    0    0 -0.10734911890E+03  0.33487314783E+03  0.19121704412E+03  0.44395024094E+03  0.19200000000E+03 0.  0.
<mgrwt>
<rscale>  0 0.81866767E+03</rscale>
<asrwt>0</asrwt>
<pdfrwt beam="1">  1        2 0.75315173E-01 0.81866767E+03</pdfrwt>
<pdfrwt beam="2">  1       -2 0.45402183E-01 0.81866767E+03</pdfrwt>
<totfact> 0.29204778E+02</totfact>
</mgrwt>
</event>
<event>
 4    1  0.5621415E-005  0.4595766E+03  0.7818608E-02  0.1024904E+00
         -2   -1    0    0    0  501 -0.00000000000E+00  0.00000000000E+00  0.23526711630E+02  0.23526711768E+02  0.25500000000E-02 0. -1.
          2   -1    0    0  501    0  0.00000000000E+00 -0.00000000000E+00 -0.22443704631E+04  0.22443704631E+04  0.25500000000E-02 0.  1.
    5000001    1    1    2    0    0 -0.25180770379E+01  0.11932759717E+03 -0.13134820821E+04  0.13327957819E+04  0.19200000000E+03 0.  0.
   -5000001    1    1    2    0    0  0.25180770379E+01 -0.11932759717E+03 -0.90736166938E+03  0.93510139301E+03  0.19200000000E+03 0.  0.
<mgrwt>
<rscale>  0 0.45957657E+03</rscale>
<asrwt>0</asrwt>
<pdfrwt beam="1">  1        2 0.32062422E+00 0.45957657E+03</pdfrwt>
<pdfrwt beam="2">  1       -2 0.33609602E-02 0.45957657E+03</pdfrwt>
<totfact> 0.23727605E+03</totfact>
</mgrwt>
</event>
<event>
 4    1  0.5621415E-005  0.4628973E+03  0.7818608E-02  0.1023944E+00
          2   -1    0    0  501    0  0.00000000000E+00  0.00000000000E+00  0.74850523028E+03  0.74850523029E+03  0.25500000000E-02 0.  1.
         -2   -1    0    0    0  501 -0.00000000000E+00 -0.00000000000E+00 -0.71567284094E+02  0.71567284140E+02  0.25500000000E-02 0. -1.
    5000001    1    1    2    0    0  0.88889558835E+02  0.65924838053E+02  0.45674350952E+03  0.50766728419E+03  0.19200000000E+03 0.  0.
   -5000001    1    1    2    0    0 -0.88889558835E+02 -0.65924838053E+02  0.22019443666E+03  0.31240523024E+03  0.19200000000E+03 0.  0.
<mgrwt>
<rscale>  0 0.46289734E+03</rscale>
<asrwt>0</asrwt>
<pdfrwt beam="1">  1        2 0.10692932E+00 0.46289734E+03</pdfrwt>
<pdfrwt beam="2">  1       -2 0.10223898E-01 0.46289734E+03</pdfrwt>
<totfact> 0.27267038E+03</totfact>
</mgrwt>
</event>
<event>
 4    1  0.5621415E-005  0.6104608E+03  0.7818608E-02  0.9883938E-01
         -2   -1    0    0    0  501 -0.00000000000E+00  0.00000000000E+00  0.53340489153E+02  0.53340489214E+02  0.25500000000E-02 0. -1.
          2   -1    0    0  501    0  0.00000000000E+00 -0.00000000000E+00 -0.17466208579E+04  0.17466208580E+04  0.25500000000E-02 0.  1.
    5000001    1    1    2    0    0 -0.91893207439E+02  0.20401013928E+03 -0.61377897252E+03  0.68092079247E+03  0.19200000000E+03 0.  0.
   -5000001    1    1    2    0    0  0.91893207439E+02 -0.20401013928E+03 -0.10795013963E+04  0.11190405547E+04  0.19200000000E+03 0.  0.
<mgrwt>
<rscale>  0 0.61046085E+03</rscale>
<asrwt>0</asrwt>
<pdfrwt beam="1">  1        2 0.24951723E+00 0.61046085E+03</pdfrwt>
<pdfrwt beam="2">  1       -2 0.76200710E-02 0.61046085E+03</pdfrwt>
<totfact> 0.11770215E+03</totfact>
</mgrwt>
</event>
<event>
 4    1  0.5621415E-005  0.4578757E+03  0.7818608E-02  0.1025399E+00
          2   -1    0    0  501    0  0.00000000000E+00  0.00000000000E+00  0.57953711756E+02  0.57953711812E+02  0.25500000000E-02 0.  1.
         -2   -1    0    0    0  501 -0.00000000000E+00 -0.00000000000E+00 -0.90438627843E+03  0.90438627843E+03  0.25500000000E-02 0. -1.
    5000001    1    1    2    0    0  0.10470161630E+03 -0.12594622859E+02 -0.28336718842E+03  0.35816478952E+03  0.19200000000E+03 0.  0.
   -5000001    1    1    2    0    0 -0.10470161630E+03  0.12594622859E+02 -0.56306537825E+03  0.60417520072E+03  0.19200000000E+03 0.  0.
<mgrwt>
<rscale>  0 0.45787571E+03</rscale>
<asrwt>0</asrwt>
<pdfrwt beam="1">  1        2 0.82791022E-02 0.45787571E+03</pdfrwt>
<pdfrwt beam="2">  1       -2 0.12919803E+00 0.45787571E+03</pdfrwt>
<totfact> 0.37844187E+02</totfact>
</mgrwt>
</event>
<event>
 4    1  0.5621415E-005  0.6219765E+03  0.7818608E-02  0.9860832E-01
         -2   -1    0    0    0  501 -0.00000000000E+00  0.00000000000E+00  0.70049838630E+02  0.70049838676E+02  0.25500000000E-02 0. -1.
          2   -1    0    0  501    0  0.00000000000E+00 -0.00000000000E+00 -0.13806410605E+04  0.13806410605E+04  0.25500000000E-02 0.  1.
    5000001    1    1    2    0    0 -0.22713607652E+03 -0.72396196130E+02 -0.52716959876E+03  0.60959313671E+03  0.19200000000E+03 0.  0.
   -5000001    1    1    2    0    0  0.22713607652E+03  0.72396196130E+02 -0.78342162310E+03  0.84109776245E+03  0.19200000000E+03 0.  0.
<mgrwt>
<rscale>  0 0.62197647E+03</rscale>
<asrwt>0</asrwt>
<pdfrwt beam="1">  1        2 0.19723442E+00 0.62197647E+03</pdfrwt>
<pdfrwt beam="2">  1       -2 0.10007121E-01 0.62197647E+03</pdfrwt>
<totfact> 0.11754788E+03</totfact>
</mgrwt>
</event>
<event>
 4    1  0.5621415E-005  0.7641476E+03  0.7818608E-02  0.9613413E-01
         -2   -1    0    0    0  501 -0.00000000000E+00  0.00000000000E+00  0.57332309025E+02  0.57332309081E+02  0.25500000000E-02 0. -1.
          2   -1    0    0  501    0  0.00000000000E+00 -0.00000000000E+00 -0.25462150623E+04  0.25462150623E+04  0.25500000000E-02 0.  1.
    5000001    1    1    2    0    0 -0.30096900375E+03 -0.13608467888E+03 -0.12312421910E+04  0.12891558145E+04  0.19200000000E+03 0.  0.
   -5000001    1    1    2    0    0  0.30096900375E+03  0.13608467888E+03 -0.12576405622E+04  0.13143915569E+04  0.19200000000E+03 0.  0.
<mgrwt>
<rscale>  0 0.76414760E+03</rscale>
<asrwt>0</asrwt>
<pdfrwt beam="1">  1        2 0.36374494E+00 0.76414760E+03</pdfrwt>
<pdfrwt beam="2">  1       -2 0.81903315E-02 0.76414760E+03</pdfrwt>
<totfact> 0.40773162E+02</totfact>
</mgrwt>
</event>
<event>
 4    1  0.5621415E-005  0.1211630E+04  0.7818608E-02  0.9102738E-01
         -2   -1    0    0    0  501 -0.00000000000E+00  0.00000000000E+00  0.19964442652E+03  0.19964442654E+03  0.25500000000E-02 0. -1.
          2   -1    0    0  501    0  0.00000000000E+00 -0.00000000000E+00 -0.18383264955E+04  0.18383264955E+04  0.25500000000E-02 0.  1.
    5000001    1    1    2    0    0 -0.56782551438E+03  0.85378878215E+02 -0.85431189241E+03  0.10471046639E+04  0.19200000000E+03 0.  0.
   -5000001    1    1    2    0    0  0.56782551438E+03 -0.85378878215E+02 -0.78437017653E+03  0.99086625811E+03  0.19200000000E+03 0.  0.
<mgrwt>
<rscale>  0 0.12116297E+04</rscale>
<asrwt>0</asrwt>
<pdfrwt beam="1">  1        2 0.26261806E+00 0.12116297E+04</pdfrwt>
<pdfrwt beam="2">  1       -2 0.28520633E-01 0.12116297E+04</pdfrwt>
<totfact> 0.10798373E+02</totfact>
</mgrwt>
</event>
<event>
 4    1  0.5621415E-005  0.7528856E+03  0.7818608E-02  0.9630834E-01
         -2   -1    0    0    0  501 -0.00000000000E+00  0.00000000000E+00  0.35587796446E+03  0.35587796447E+03  0.25500000000E-02 0. -1.
          2   -1    0    0  501    0  0.00000000000E+00 -0.00000000000E+00 -0.39819600561E+03  0.39819600561E+03  0.25500000000E-02 0.  1.
    5000001    1    1    2    0    0  0.18570240017E+03 -0.19878316319E+03 -0.19706384096E+03  0.38690862592E+03  0.19200000000E+03 0.  0.
   -5000001    1    1    2    0    0 -0.18570240017E+03  0.19878316319E+03  0.15474579982E+03  0.36716534417E+03  0.19200000000E+03 0.  0.
<mgrwt>
<rscale>  0 0.75288561E+03</rscale>
<asrwt>0</asrwt>
<pdfrwt beam="1">  1        2 0.56885143E-01 0.75288561E+03</pdfrwt>
<pdfrwt beam="2">  1       -2 0.50839709E-01 0.75288561E+03</pdfrwt>
<totfact> 0.32027887E+02</totfact>
</mgrwt>
</event>
<event>
 4    1  0.5621415E-005  0.7528310E+03  0.7818608E-02  0.9630919E-01
          2   -1    0    0  501    0  0.00000000000E+00  0.00000000000E+00  0.12041043567E+04  0.12041043567E+04  0.25500000000E-02 0.  1.
         -2   -1    0    0    0  501 -0.00000000000E+00 -0.00000000000E+00 -0.11767140068E+03  0.11767140071E+03  0.25500000000E-02 0. -1.
    5000001    1    1    2    0    0  0.20075031212E+03 -0.24587098570E+03  0.65524614477E+03  0.75297061009E+03  0.19200000000E+03 0.  0.
   -5000001    1    1    2    0    0 -0.20075031212E+03  0.24587098570E+03  0.43118681122E+03  0.56880514730E+03  0.19200000000E+03 0.  0.
<mgrwt>
<rscale>  0 0.75283105E+03</rscale>
<asrwt>0</asrwt>
<pdfrwt beam="1">  1        2 0.17201491E+00 0.75283105E+03</pdfrwt>
<pdfrwt beam="2">  1       -2 0.16810200E-01 0.75283105E+03</pdfrwt>
<totfact> 0.61642337E+02</totfact>
</mgrwt>
</event>
<event>
 4    1  0.5621415E-005  0.5766110E+03  0.7818608E-02  0.9955155E-01
          2   -1    0    0  501    0  0.00000000000E+00  0.00000000000E+00  0.24190217891E+04  0.24190217891E+04  0.25500000000E-02 0.  1.
         -2   -1    0    0    0  501 -0.00000000000E+00 -0.00000000000E+00 -0.34361022902E+02  0.34361022997E+02  0.25500000000E-02 0. -1.
    5000001    1    1    2    0    0 -0.20047671366E+03  0.10778533832E+02  0.15205038120E+04  0.15456723236E+04  0.19200000000E+03 0.  0.
   -5000001    1    1    2    0    0  0.20047671366E+03 -0.10778533832E+02  0.86415695415E+03  0.90771048849E+03  0.19200000000E+03 0.  0.
<mgrwt>
<rscale>  0 0.57661101E+03</rscale>
<asrwt>0</asrwt>
<pdfrwt beam="1">  1        2 0.34557469E+00 0.57661101E+03</pdfrwt>
<pdfrwt beam="2">  1       -2 0.49087154E-02 0.57661101E+03</pdfrwt>
<totfact> 0.10767418E+03</totfact>
</mgrwt>
</event>
<event>
 4    1  0.5621415E-005  0.4051168E+03  0.7818608E-02  0.1042022E+00
          2   -1    0    0  501    0  0.00000000000E+00  0.00000000000E+00  0.49306967765E+03  0.49306967766E+03  0.25500000000E-02 0.  1.
         -2   -1    0    0    0  501 -0.00000000000E+00 -0.00000000000E+00 -0.83213219379E+02  0.83213219418E+02  0.25500000000E-02 0. -1.
    5000001    1    1    2    0    0  0.61158946963E+02 -0.79752405547E+01  0.17786708687E+03  0.26889537342E+03  0.19200000000E+03 0.  0.
   -5000001    1    1    2    0    0 -0.61158946963E+02  0.79752405547E+01  0.23198937140E+03  0.30738752366E+03  0.19200000000E+03 0.  0.
<mgrwt>
<rscale>  0 0.40511685E+03</rscale>
<asrwt>0</asrwt>
<pdfrwt beam="1">  1        2 0.70438528E-01 0.40511685E+03</pdfrwt>
<pdfrwt beam="2">  1       -2 0.11887602E-01 0.40511685E+03</pdfrwt>
<totfact> 0.34749434E+03</totfact>
</mgrwt>
</event>
<event>
 4    1  0.5621415E-005  0.6462572E+03  0.7818608E-02  0.9813828E-01
         -2   -1    0    0    0  501 -0.00000000000E+00  0.00000000000E+00  0.63322180509E+02  0.63322180561E+02  0.25500000000E-02 0. -1.
          2   -1    0    0  501    0  0.00000000000E+00 -0.00000000000E+00 -0.16489025213E+04  0.16489025213E+04  0.25500000000E-02 0.  1.
    5000001    1    1    2    0    0 -0.25088593494E+03 -0.53303028424E+02 -0.90403977793E+03  0.95913340327E+03  0.19200000000E+03 0.  0.
   -5000001    1    1    2    0    0  0.25088593494E+03  0.53303028424E+02 -0.68154056288E+03  0.75309129861E+03  0.19200000000E+03 0.  0.
<mgrwt>
<rscale>  0 0.64625723E+03</rscale>
<asrwt>0</asrwt>
<pdfrwt beam="1">  1        2 0.23555748E+00 0.64625723E+03</pdfrwt>
<pdfrwt beam="2">  1       -2 0.90460268E-02 0.64625723E+03</pdfrwt>
<totfact> 0.10016165E+03</totfact>
</mgrwt>
</event>
<event>
 4    1  0.5621415E-005  0.6642101E+03  0.7818608E-02  0.9780474E-01
          2   -1    0    0  501    0  0.00000000000E+00  0.00000000000E+00  0.35860477863E+03  0.35860477864E+03  0.25500000000E-02 0.  1.
         -2   -1    0    0    0  501 -0.00000000000E+00 -0.00000000000E+00 -0.30756353889E+03  0.30756353890E+03  0.25500000000E-02 0. -1.
    5000001    1    1    2    0    0  0.18559598450E+03  0.19171344543E+03  0.72881022337E+02  0.33671287181E+03  0.19200000000E+03 0.  0.
   -5000001    1    1    2    0    0 -0.18559598450E+03 -0.19171344543E+03 -0.21839782600E+02  0.32945544574E+03  0.19200000000E+03 0.  0.
<mgrwt>
<rscale>  0 0.66421007E+03</rscale>
<asrwt>0</asrwt>
<pdfrwt beam="1">  1        2 0.51229254E-01 0.66421007E+03</pdfrwt>
<pdfrwt beam="2">  1       -2 0.43937648E-01 0.66421007E+03</pdfrwt>
<totfact> 0.48365573E+02</totfact>
</mgrwt>
</event>
<event>
 4    1  0.5621415E-005  0.4738129E+03  0.7818608E-02  0.1020850E+00
         -2   -1    0    0    0  501 -0.00000000000E+00  0.00000000000E+00  0.65688332935E+02  0.65688332985E+02  0.25500000000E-02 0. -1.
          2   -1    0    0  501    0  0.00000000000E+00 -0.00000000000E+00 -0.85440840266E+03  0.85440840267E+03  0.25500000000E-02 0.  1.
    5000001    1    1    2    0    0  0.84119341721E+02  0.48171699080E+02 -0.20149430089E+03  0.29472110466E+03  0.19200000000E+03 0.  0.
   -5000001    1    1    2    0    0 -0.84119341721E+02 -0.48171699080E+02 -0.58722576884E+03  0.62537563099E+03  0.19200000000E+03 0.  0.
<mgrwt>
<rscale>  0 0.47381289E+03</rscale>
<asrwt>0</asrwt>
<pdfrwt beam="1">  1        2 0.12205834E+00 0.47381289E+03</pdfrwt>
<pdfrwt beam="2">  1       -2 0.93840481E-02 0.47381289E+03</pdfrwt>
<totfact> 0.26473623E+03</totfact>
</mgrwt>
</event>
<event>
 4    1  0.5621415E-005  0.6374235E+03  0.7818608E-02  0.9830668E-01
         -2   -1    0    0    0  501 -0.00000000000E+00  0.00000000000E+00  0.94893525820E+02  0.94893525854E+02  0.25500000000E-02 0. -1.
          2   -1    0    0  501    0  0.00000000000E+00 -0.00000000000E+00 -0.10704333028E+04  0.10704333028E+04  0.25500000000E-02 0.  1.
    5000001    1    1    2    0    0 -0.32710246017E+02  0.24483656032E+03 -0.37659157968E+03  0.48959178849E+03  0.19200000000E+03 0.  0.
   -5000001    1    1    2    0    0  0.32710246017E+02 -0.24483656032E+03 -0.59894819725E+03  0.67573504013E+03  0.19200000000E+03 0.  0.
<mgrwt>
<rscale>  0 0.63742353E+03</rscale>
<asrwt>0</asrwt>
<pdfrwt beam="1">  1        2 0.15291904E+00 0.63742353E+03</pdfrwt>
<pdfrwt beam="2">  1       -2 0.13556219E-01 0.63742353E+03</pdfrwt>
<totfact> 0.10630415E+03</totfact>
</mgrwt>
</event>
<event>
 4    1  0.5621415E-005  0.7327880E+03  0.7818608E-02  0.9662747E-01
          2   -1    0    0  501    0  0.00000000000E+00  0.00000000000E+00  0.89481172819E+03  0.89481172819E+03  0.25500000000E-02 0.  1.
         -2   -1    0    0    0  501 -0.00000000000E+00 -0.00000000000E+00 -0.15002548170E+03  0.15002548172E+03  0.25500000000E-02 0. -1.
    5000001    1    1    2    0    0 -0.12854045900E+03  0.27982028986E+03  0.44451456242E+03  0.57382858105E+03  0.19200000000E+03 0.  0.
   -5000001    1    1    2    0    0  0.12854045900E+03 -0.27982028986E+03  0.30027168406E+03  0.47100862887E+03  0.19200000000E+03 0.  0.
<mgrwt>
<rscale>  0 0.73278799E+03</rscale>
<asrwt>0</asrwt>
<pdfrwt beam="1">  1        2 0.12783025E+00 0.73278799E+03</pdfrwt>
<pdfrwt beam="2">  1       -2 0.21432211E-01 0.73278799E+03</pdfrwt>
<totfact> 0.62112123E+02</totfact>
</mgrwt>
</event>
<event>
 4    1  0.5621415E-005  0.6564178E+03  0.7818608E-02  0.9794811E-01
         -2   -1    0    0    0  501 -0.00000000000E+00  0.00000000000E+00  0.18016797446E+03  0.18016797448E+03  0.25500000000E-02 0. -1.
          2   -1    0    0  501    0  0.00000000000E+00 -0.00000000000E+00 -0.59789259242E+03  0.59789259243E+03  0.25500000000E-02 0.  1.
    5000001    1    1    2    0    0  0.18626085338E+03  0.11527694452E+03 -0.38813562222E+03  0.48527841563E+03  0.19200000000E+03 0.  0.
   -5000001    1    1    2    0    0 -0.18626085338E+03 -0.11527694452E+03 -0.29588995740E+02  0.29278215128E+03  0.19200000000E+03 0.  0.
<mgrwt>
<rscale>  0 0.65641785E+03</rscale>
<asrwt>0</asrwt>
<pdfrwt beam="1">  1        2 0.85413226E-01 0.65641785E+03</pdfrwt>
<pdfrwt beam="2">  1       -2 0.25738282E-01 0.65641785E+03</pdfrwt>
<totfact> 0.74340433E+02</totfact>
</mgrwt>
</event>
<event>
 4    1  0.5621415E-005  0.5859778E+03  0.7818608E-02  0.9934932E-01
         -2   -1    0    0    0  501 -0.00000000000E+00  0.00000000000E+00  0.24354363902E+02  0.24354364036E+02  0.25500000000E-02 0. -1.
          2   -1    0    0  501    0  0.00000000000E+00 -0.00000000000E+00 -0.35247279748E+04  0.35247279748E+04  0.25500000000E-02 0.  1.
    5000001    1    1    2    0    0  0.20067465374E+03  0.67257090769E+02 -0.21419879967E+04  0.21609651573E+04  0.19200000000E+03 0.  0.
   -5000001    1    1    2    0    0 -0.20067465374E+03 -0.67257090769E+02 -0.13583856142E+04  0.13881171816E+04  0.19200000000E+03 0.  0.
<mgrwt>
<rscale>  0 0.58597784E+03</rscale>
<asrwt>0</asrwt>
<pdfrwt beam="1">  1        2 0.50353224E+00 0.58597784E+03</pdfrwt>
<pdfrwt beam="2">  1       -2 0.34791971E-02 0.58597784E+03</pdfrwt>
<totfact> 0.45586432E+02</totfact>
</mgrwt>
</event>
<event>
 4    1  0.5621415E-005  0.5359474E+03  0.7818608E-02  0.1004800E+00
         -2   -1    0    0    0  501 -0.00000000000E+00  0.00000000000E+00  0.60358552191E+02  0.60358552244E+02  0.25500000000E-02 0. -1.
          2   -1    0    0  501    0  0.00000000000E+00 -0.00000000000E+00 -0.11897221471E+04  0.11897221471E+04  0.25500000000E-02 0.  1.
    5000001    1    1    2    0    0 -0.34398241393E+02  0.12331552077E+03 -0.24695235032E+03  0.33799322479E+03  0.19200000000E+03 0.  0.
   -5000001    1    1    2    0    0  0.34398241393E+02 -0.12331552077E+03 -0.88241124459E+03  0.91208747456E+03  0.19200000000E+03 0.  0.
<mgrwt>
<rscale>  0 0.53594741E+03</rscale>
<asrwt>0</asrwt>
<pdfrwt beam="1">  1        2 0.16996029E+00 0.53594741E+03</pdfrwt>
<pdfrwt beam="2">  1       -2 0.86226510E-02 0.53594741E+03</pdfrwt>
<totfact> 0.19033972E+03</totfact>
</mgrwt>
</event>
<event>
 4    1  0.5621415E-005  0.7426647E+03  0.7818608E-02  0.9646929E-01
          2   -1    0    0  501    0  0.00000000000E+00  0.00000000000E+00  0.16884451138E+04  0.16884451138E+04  0.25500000000E-02 0.  1.
         -2   -1    0    0    0  501 -0.00000000000E+00 -0.00000000000E+00 -0.81665504623E+02  0.81665504663E+02  0.25500000000E-02 0. -1.
    5000001    1    1    2    0    0 -0.65527043862E+02 -0.19368026272E+03  0.22338170601E+03  0.35856550897E+03  0.19200000000E+03 0.  0.
   -5000001    1    1    2    0    0  0.65527043862E+02  0.19368026272E+03  0.13833979032E+04  0.14115451095E+04  0.19200000000E+03 0.  0.
<mgrwt>
<rscale>  0 0.74266472E+03</rscale>
<asrwt>0</asrwt>
<pdfrwt beam="1">  1        2 0.24120645E+00 0.74266472E+03</pdfrwt>
<pdfrwt beam="2">  1       -2 0.11666501E-01 0.74266472E+03</pdfrwt>
<totfact> 0.62852232E+02</totfact>
</mgrwt>
</event>
<event>
 4    1  0.5621415E-005  0.8835806E+03  0.7818608E-02  0.9446342E-01
         -2   -1    0    0    0  501 -0.00000000000E+00  0.00000000000E+00  0.25002544731E+03  0.25002544732E+03  0.25500000000E-02 0. -1.
          2   -1    0    0  501    0  0.00000000000E+00 -0.00000000000E+00 -0.78063515488E+03  0.78063515488E+03  0.25500000000E-02 0.  1.
    5000001    1    1    2    0    0 -0.12901080720E+03  0.37614665404E+03 -0.28115153769E+03  0.52348856804E+03  0.19200000000E+03 0.  0.
   -5000001    1    1    2    0    0  0.12901080720E+03 -0.37614665404E+03 -0.24945816988E+03  0.50717203417E+03  0.19200000000E+03 0.  0.
<mgrwt>
<rscale>  0 0.88358057E+03</rscale>
<asrwt>0</asrwt>
<pdfrwt beam="1">  1        2 0.11151931E+00 0.88358057E+03</pdfrwt>
<pdfrwt beam="2">  1       -2 0.35717921E-01 0.88358057E+03</pdfrwt>
<totfact> 0.28939837E+02</totfact>
</mgrwt>
</event>
<event>
 4    1  0.5621415E-005  0.8229436E+03  0.7818608E-02  0.9527388E-01
         -2   -1    0    0    0  501 -0.00000000000E+00  0.00000000000E+00  0.74793707564E+02  0.74793707607E+02  0.25500000000E-02 0. -1.
          2   -1    0    0  501    0  0.00000000000E+00 -0.00000000000E+00 -0.22636803392E+04  0.22636803392E+04  0.25500000000E-02 0.  1.
    5000001    1    1    2    0    0  0.41978257522E+02 -0.29584134491E+03 -0.16847899204E+04  0.17218203598E+04  0.19200000000E+03 0.  0.
   -5000001    1    1    2    0    0 -0.41978257522E+02  0.29584134491E+03 -0.50409671128E+03  0.61665368708E+03  0.19200000000E+03 0.  0.
<mgrwt>
<rscale>  0 0.82294361E+03</rscale>
<asrwt>0</asrwt>
<pdfrwt beam="1">  1        2 0.32338286E+00 0.82294361E+03</pdfrwt>
<pdfrwt beam="2">  1       -2 0.10684817E-01 0.82294361E+03</pdfrwt>
<totfact> 0.36854168E+02</totfact>
</mgrwt>
</event>
<event>
 4    1  0.5621415E-005  0.8185948E+03  0.7818608E-02  0.9533485E-01
         -2   -1    0    0    0  501 -0.00000000000E+00  0.00000000000E+00  0.10001681983E+03  0.10001681986E+03  0.25500000000E-02 0. -1.
          2   -1    0    0  501    0  0.00000000000E+00 -0.00000000000E+00 -0.16749619505E+04  0.16749619505E+04  0.25500000000E-02 0.  1.
    5000001    1    1    2    0    0  0.18881641826E+03 -0.29122020163E+03 -0.10064574221E+04  0.10817954466E+04  0.19200000000E+03 0.  0.
   -5000001    1    1    2    0    0 -0.18881641826E+03  0.29122020163E+03 -0.56848770854E+03  0.69318332381E+03  0.19200000000E+03 0.  0.
<mgrwt>
<rscale>  0 0.81859481E+03</rscale>
<asrwt>0</asrwt>
<pdfrwt beam="1">  1        2 0.23928026E+00 0.81859481E+03</pdfrwt>
<pdfrwt beam="2">  1       -2 0.14288118E-01 0.81859481E+03</pdfrwt>
<totfact> 0.45367987E+02</totfact>
</mgrwt>
</event>
<event>
 4    1  0.5621415E-005  0.8260647E+03  0.7818608E-02  0.9523037E-01
          2   -1    0    0  501    0  0.00000000000E+00  0.00000000000E+00  0.23481164595E+04  0.23481164595E+04  0.25500000000E-02 0.  1.
         -2   -1    0    0    0  501 -0.00000000000E+00 -0.00000000000E+00 -0.72652162480E+02  0.72652162525E+02  0.25500000000E-02 0. -1.
    5000001    1    1    2    0    0 -0.21085108142E+03  0.14746497760E+03  0.37621448047E+03  0.49457601384E+03  0.19200000000E+03 0.  0.
   -5000001    1    1    2    0    0  0.21085108142E+03 -0.14746497760E+03  0.18992498165E+04  0.19261926082E+04  0.19200000000E+03 0.  0.
<mgrwt>
<rscale>  0 0.82606474E+03</rscale>
<asrwt>0</asrwt>
<pdfrwt beam="1">  1        2 0.33544519E+00 0.82606474E+03</pdfrwt>
<pdfrwt beam="2">  1       -2 0.10378881E-01 0.82606474E+03</pdfrwt>
<totfact> 0.34983807E+02</totfact>
</mgrwt>
</event>
<event>
 4    1  0.5621415E-005  0.6130014E+03  0.7818608E-02  0.9878793E-01
          2   -1    0    0  501    0  0.00000000000E+00  0.00000000000E+00  0.12170927304E+04  0.12170927304E+04  0.25500000000E-02 0.  1.
         -2   -1    0    0    0  501 -0.00000000000E+00 -0.00000000000E+00 -0.77186139052E+02  0.77186139094E+02  0.25500000000E-02 0. -1.
    5000001    1    1    2    0    0 -0.19532265197E+03  0.11031262884E+03  0.74353484365E+03  0.80001742367E+03  0.19200000000E+03 0.  0.
   -5000001    1    1    2    0    0  0.19532265197E+03 -0.11031262884E+03  0.39637174768E+03  0.49426144581E+03  0.19200000000E+03 0.  0.
<mgrwt>
<rscale>  0 0.61300143E+03</rscale>
<asrwt>0</asrwt>
<pdfrwt beam="1">  1        2 0.17387039E+00 0.61300143E+03</pdfrwt>
<pdfrwt beam="2">  1       -2 0.11026591E-01 0.61300143E+03</pdfrwt>
<totfact> 0.12327318E+03</totfact>
</mgrwt>
</event>
<event>
 4    1  0.5621415E-005  0.4511652E+03  0.7818608E-02  0.1027375E+00
         -2   -1    0    0    0  501 -0.00000000000E+00  0.00000000000E+00  0.15179223699E+02  0.15179223913E+02  0.25500000000E-02 0. -1.
          2   -1    0    0  501    0  0.00000000000E+00 -0.00000000000E+00 -0.33524447692E+04  0.33524447692E+04  0.25500000000E-02 0.  1.
    5000001    1    1    2    0    0 -0.10903150324E+03 -0.46156210462E+02 -0.16515381187E+04  0.16668714474E+04  0.19200000000E+03 0.  0.
   -5000001    1    1    2    0    0  0.10903150324E+03  0.46156210462E+02 -0.16857274267E+04  0.17007525457E+04  0.19200000000E+03 0.  0.
<mgrwt>
<rscale>  0 0.45116520E+03</rscale>
<asrwt>0</asrwt>
<pdfrwt beam="1">  1        2 0.47892021E+00 0.45116520E+03</pdfrwt>
<pdfrwt beam="2">  1       -2 0.21684627E-02 0.45116520E+03</pdfrwt>
<totfact> 0.11926602E+03</totfact>
</mgrwt>
</event>
<event>
 4    1  0.5621415E-005  0.6806904E+03  0.7818608E-02  0.9750836E-01
         -2   -1    0    0    0  501 -0.00000000000E+00  0.00000000000E+00  0.31272946106E+03  0.31272946107E+03  0.25500000000E-02 0.  1.
          2   -1    0    0  501    0  0.00000000000E+00 -0.00000000000E+00 -0.37039961434E+03  0.37039961435E+03  0.25500000000E-02 0. -1.
    5000001    1    1    2    0    0  0.16911947122E+03  0.10916500730E+03  0.16796047448E+03  0.32495094299E+03  0.19200000000E+03 0.  0.
   -5000001    1    1    2    0    0 -0.16911947122E+03 -0.10916500730E+03 -0.22563062776E+03  0.35817813243E+03  0.19200000000E+03 0.  0.
<mgrwt>
<rscale>  0 0.68069045E+03</rscale>
<asrwt>0</asrwt>
<pdfrwt beam="1">  1        2 0.52914231E-01 0.68069045E+03</pdfrwt>
<pdfrwt beam="2">  1       -2 0.44675637E-01 0.68069045E+03</pdfrwt>
<totfact> 0.45125694E+02</totfact>
</mgrwt>
</event>
<event>
 4    1  0.5621415E-005  0.1216617E+04  0.7818608E-02  0.9098435E-01
         -2   -1    0    0    0  501 -0.00000000000E+00  0.00000000000E+00  0.16560081445E+03  0.16560081447E+03  0.25500000000E-02 0. -1.
          2   -1    0    0  501    0  0.00000000000E+00 -0.00000000000E+00 -0.22345256111E+04  0.22345256111E+04  0.25500000000E-02 0.  1.
    5000001    1    1    2    0    0 -0.38041330709E+03 -0.38369755061E+03 -0.63384977583E+03  0.85473249200E+03  0.19200000000E+03 0.  0.
   -5000001    1    1    2    0    0  0.38041330709E+03  0.38369755061E+03 -0.14350750209E+04  0.15453939336E+04  0.19200000000E+03 0.  0.
<mgrwt>
<rscale>  0 0.12166170E+04</rscale>
<asrwt>0</asrwt>
<pdfrwt beam="1">  1        2 0.31921793E+00 0.12166170E+04</pdfrwt>
<pdfrwt beam="2">  1       -2 0.23657261E-01 0.12166170E+04</pdfrwt>
<totfact> 0.95027897E+01</totfact>
</mgrwt>
</event>
<event>
 4    1  0.5621415E-005  0.4538023E+03  0.7818608E-02  0.1026594E+00
         -2   -1    0    0    0  501 -0.00000000000E+00  0.00000000000E+00  0.38399550861E+02  0.38399550945E+02  0.25500000000E-02 0. -1.
          2   -1    0    0  501    0  0.00000000000E+00 -0.00000000000E+00 -0.13407484440E+04  0.13407484440E+04  0.25500000000E-02 0.  1.
    5000001    1    1    2    0    0  0.94760679108E+02 -0.58551834234E+02 -0.50823248529E+03  0.55459188842E+03  0.19200000000E+03 0.  0.
   -5000001    1    1    2    0    0 -0.94760679108E+02  0.58551834234E+02 -0.79411640784E+03  0.82455610652E+03  0.19200000000E+03 0.  0.
<mgrwt>
<rscale>  0 0.45380233E+03</rscale>
<asrwt>0</asrwt>
<pdfrwt beam="1">  1        2 0.19153546E+00 0.45380233E+03</pdfrwt>
<pdfrwt beam="2">  1       -2 0.54856510E-02 0.45380233E+03</pdfrwt>
<totfact> 0.32079918E+03</totfact>
</mgrwt>
</event>
<event>
 4    1  0.5621415E-005  0.7517772E+03  0.7818608E-02  0.9632566E-01
         -2   -1    0    0    0  501 -0.00000000000E+00  0.00000000000E+00  0.13927261109E+03  0.13927261112E+03  0.25500000000E-02 0. -1.
          2   -1    0    0  501    0  0.00000000000E+00 -0.00000000000E+00 -0.10145012493E+04  0.10145012493E+04  0.25500000000E-02 0.  1.
    5000001    1    1    2    0    0 -0.28984431616E+03 -0.12850425784E+03 -0.34170709944E+03  0.50413372601E+03  0.19200000000E+03 0.  0.
   -5000001    1    1    2    0    0  0.28984431616E+03  0.12850425784E+03 -0.53352153873E+03  0.64964013437E+03  0.19200000000E+03 0.  0.
<mgrwt>
<rscale>  0 0.75177720E+03</rscale>
<asrwt>0</asrwt>
<pdfrwt beam="1">  1        2 0.14492875E+00 0.75177720E+03</pdfrwt>
<pdfrwt beam="2">  1       -2 0.19896088E-01 0.75177720E+03</pdfrwt>
<totfact> 0.59461353E+02</totfact>
</mgrwt>
</event>
<event>
 4    1  0.5621415E-005  0.5306593E+03  0.7818608E-02  0.1006072E+00
          2   -1    0    0  501    0  0.00000000000E+00  0.00000000000E+00  0.39474590539E+04  0.39474590539E+04  0.25500000000E-02 0.  1.
         -2   -1    0    0    0  501 -0.00000000000E+00 -0.00000000000E+00 -0.17834211517E+02  0.17834211699E+02  0.25500000000E-02 0. -1.
    5000001    1    1    2    0    0  0.14786473045E+03  0.22502601424E+02  0.11752287940E+04  0.12001654318E+04  0.19200000000E+03 0.  0.
   -5000001    1    1    2    0    0 -0.14786473045E+03 -0.22502601424E+02  0.27543960484E+04  0.27651278338E+04  0.19200000000E+03 0.  0.
<mgrwt>
<rscale>  0 0.53065929E+03</rscale>
<asrwt>0</asrwt>
<pdfrwt beam="1">  1        2 0.56392305E+00 0.53065929E+03</pdfrwt>
<pdfrwt beam="2">  1       -2 0.25477430E-02 0.53065929E+03</pdfrwt>
<totfact> 0.40125668E+02</totfact>
</mgrwt>
</event>
<event>
 4    1  0.5621415E-005  0.1577369E+04  0.7818608E-02  0.8834573E-01
         -2   -1    0    0    0  501 -0.00000000000E+00  0.00000000000E+00  0.70360659500E+03  0.70360659500E+03  0.25500000000E-02 0.  1.
          2   -1    0    0  501    0  0.00000000000E+00 -0.00000000000E+00 -0.88405000874E+03  0.88405000875E+03  0.25500000000E-02 0. -1.
    5000001    1    1    2    0    0 -0.73435630652E+03  0.35514611618E+01  0.12534232995E+03  0.76932860175E+03  0.19200000000E+03 0.  0.
   -5000001    1    1    2    0    0  0.73435630652E+03 -0.35514611618E+01 -0.30578574370E+03  0.81832800199E+03  0.19200000000E+03 0.  0.
<mgrwt>
<rscale>  0 0.15773692E+04</rscale>
<asrwt>0</asrwt>
<pdfrwt beam="1">  1        2 0.12629286E+00 0.15773692E+04</pdfrwt>
<pdfrwt beam="2">  1       -2 0.10051523E+00 0.15773692E+04</pdfrwt>
<totfact> 0.26175954E+01</totfact>
</mgrwt>
</event>
<event>
 4    1  0.5621415E-005  0.9076755E+03  0.7818608E-02  0.9416037E-01
         -2   -1    0    0    0  501 -0.00000000000E+00  0.00000000000E+00  0.14187153625E+03  0.14187153627E+03  0.25500000000E-02 0. -1.
          2   -1    0    0  501    0  0.00000000000E+00 -0.00000000000E+00 -0.14517971706E+04  0.14517971706E+04  0.25500000000E-02 0.  1.
    5000001    1    1    2    0    0  0.14633917493E+02  0.38981833928E+03 -0.88343020128E+03  0.98462450189E+03  0.19200000000E+03 0.  0.
   -5000001    1    1    2    0    0 -0.14633917493E+02 -0.38981833928E+03 -0.42649543305E+03  0.60904420496E+03  0.19200000000E+03 0.  0.
<mgrwt>
<rscale>  0 0.90767548E+03</rscale>
<asrwt>0</asrwt>
<pdfrwt beam="1">  1        2 0.20739959E+00 0.90767548E+03</pdfrwt>
<pdfrwt beam="2">  1       -2 0.20267363E-01 0.90767548E+03</pdfrwt>
<totfact> 0.32387154E+02</totfact>
</mgrwt>
</event>
<event>
 4    1  0.5621415E-005  0.4947288E+03  0.7818608E-02  0.1015164E+00
          2   -1    0    0  501    0  0.00000000000E+00  0.00000000000E+00  0.34291975982E+03  0.34291975983E+03  0.25500000000E-02 0.  1.
         -2   -1    0    0    0  501 -0.00000000000E+00 -0.00000000000E+00 -0.17843578572E+03  0.17843578574E+03  0.25500000000E-02 0. -1.
    5000001    1    1    2    0    0 -0.17754153019E+02 -0.11091775360E+03 -0.31781223076E+02  0.22470425931E+03  0.19200000000E+03 0.  0.
   -5000001    1    1    2    0    0  0.17754153019E+02  0.11091775360E+03  0.19626519718E+03  0.29665128625E+03  0.19200000000E+03 0.  0.
<mgrwt>
<rscale>  0 0.49472884E+03</rscale>
<asrwt>0</asrwt>
<pdfrwt beam="1">  1        2 0.48988536E-01 0.49472884E+03</pdfrwt>
<pdfrwt beam="2">  1       -2 0.25490827E-01 0.49472884E+03</pdfrwt>
<totfact> 0.14176857E+03</totfact>
</mgrwt>
</event>
<event>
 4    1  0.5621415E-005  0.6438488E+03  0.7818608E-02  0.9818390E-01
          2   -1    0    0  501    0  0.00000000000E+00  0.00000000000E+00  0.29084517479E+03  0.29084517481E+03  0.25500000000E-02 0. -1.
         -2   -1    0    0    0  501 -0.00000000000E+00 -0.00000000000E+00 -0.35632472953E+03  0.35632472954E+03  0.25500000000E-02 0.  1.
    5000001    1    1    2    0    0 -0.10815783500E+03  0.22903249111E+03 -0.84163505771E+02  0.32878791791E+03  0.19200000000E+03 0.  0.
   -5000001    1    1    2    0    0  0.10815783500E+03 -0.22903249111E+03  0.18683951037E+02  0.31838198643E+03  0.19200000000E+03 0.  0.
<mgrwt>
<rscale>  0 0.64384883E+03</rscale>
<asrwt>0</asrwt>
<pdfrwt beam="1">  1        2 0.41549311E-01 0.64384883E+03</pdfrwt>
<pdfrwt beam="2">  1       -2 0.50903533E-01 0.64384883E+03</pdfrwt>
<totfact> 0.45406347E+02</totfact>
</mgrwt>
</event>
<event>
 4    1  0.5621415E-005  0.5321622E+03  0.7818608E-02  0.1005709E+00
         -2   -1    0    0    0  501 -0.00000000000E+00  0.00000000000E+00  0.23958898524E+03  0.23958898526E+03  0.25500000000E-02 0. -1.
          2   -1    0    0  501    0  0.00000000000E+00 -0.00000000000E+00 -0.29550256347E+03  0.29550256348E+03  0.25500000000E-02 0.  1.
    5000001    1    1    2    0    0  0.10511787621E+03 -0.34921298990E+02 -0.17596041519E+03  0.28301118836E+03  0.19200000000E+03 0.  0.
   -5000001    1    1    2    0    0 -0.10511787621E+03  0.34921298990E+02  0.12004683696E+03  0.25208036038E+03  0.19200000000E+03 0.  0.
<mgrwt>
<rscale>  0 0.53216223E+03</rscale>
<asrwt>0</asrwt>
<pdfrwt beam="1">  1        2 0.42214651E-01 0.53216223E+03</pdfrwt>
<pdfrwt beam="2">  1       -2 0.34226998E-01 0.53216223E+03</pdfrwt>
<totfact> 0.97153366E+02</totfact>
</mgrwt>
</event>
<event>
 4    1  0.5621415E-005  0.5885950E+03  0.7818608E-02  0.9929354E-01
         -2   -1    0    0    0  501 -0.00000000000E+00  0.00000000000E+00  0.31822830250E+02  0.31822830353E+02  0.25500000000E-02 0. -1.
          2   -1    0    0  501    0  0.00000000000E+00 -0.00000000000E+00 -0.27216626761E+04  0.27216626761E+04  0.25500000000E-02 0.  1.
    5000001    1    1    2    0    0 -0.21553711538E+03  0.52134709916E+02 -0.12329651782E+04  0.12673757954E+04  0.19200000000E+03 0.  0.
   -5000001    1    1    2    0    0  0.21553711538E+03 -0.52134709916E+02 -0.14568746677E+04  0.14861097111E+04  0.19200000000E+03 0.  0.
<mgrwt>
<rscale>  0 0.58859497E+03</rscale>
<asrwt>0</asrwt>
<pdfrwt beam="1">  1        2 0.38880880E+00 0.58859497E+03</pdfrwt>
<pdfrwt beam="2">  1       -2 0.45461204E-02 0.58859497E+03</pdfrwt>
<totfact> 0.84533189E+02</totfact>
</mgrwt>
</event>
<event>
 4    1  0.5621415E-005  0.6940138E+03  0.7818608E-02  0.9727525E-01
         -2   -1    0    0    0  501 -0.00000000000E+00  0.00000000000E+00  0.87159894234E+03  0.87159894234E+03  0.25500000000E-02 0.  1.
          2   -1    0    0  501    0  0.00000000000E+00 -0.00000000000E+00 -0.13815273232E+03  0.13815273234E+03  0.25500000000E-02 0. -1.
    5000001    1    1    2    0    0  0.20502408568E+03  0.18030323421E+03  0.22865165905E+03  0.40458585388E+03  0.19200000000E+03 0.  0.
   -5000001    1    1    2    0    0 -0.20502408568E+03 -0.18030323421E+03  0.50479455097E+03  0.60516582080E+03  0.19200000000E+03 0.  0.
<mgrwt>
<rscale>  0 0.69401376E+03</rscale>
<asrwt>0</asrwt>
<pdfrwt beam="1">  1        2 0.19736105E-01 0.69401376E+03</pdfrwt>
<pdfrwt beam="2">  1       -2 0.12451413E+00 0.69401376E+03</pdfrwt>
<totfact> 0.14134618E+02</totfact>
</mgrwt>
</event>
<event>
 4    1  0.5621415E-005  0.1725602E+04  0.7818608E-02  0.8746896E-01
          2   -1    0    0  501    0  0.00000000000E+00  0.00000000000E+00  0.18023907869E+04  0.18023907869E+04  0.25500000000E-02 0.  1.
         -2   -1    0    0    0  501 -0.00000000000E+00 -0.00000000000E+00 -0.41302139799E+03  0.41302139800E+03  0.25500000000E-02 0. -1.
    5000001    1    1    2    0    0  0.59574790644E+03  0.56179776441E+03  0.94173687353E+03  0.12626419267E+04  0.19200000000E+03 0.  0.
   -5000001    1    1    2    0    0 -0.59574790644E+03 -0.56179776441E+03  0.44763251542E+03  0.95277025824E+03  0.19200000000E+03 0.  0.
<mgrwt>
<rscale>  0 0.17256025E+04</rscale>
<asrwt>0</asrwt>
<pdfrwt beam="1">  1        2 0.25748440E+00 0.17256025E+04</pdfrwt>
<pdfrwt beam="2">  1       -2 0.59003057E-01 0.17256025E+04</pdfrwt>
<totfact> 0.25922836E+01</totfact>
</mgrwt>
</event>
<event>
 4    1  0.5621415E-005  0.7156144E+03  0.7818608E-02  0.9690896E-01
          2   -1    0    0  501    0  0.00000000000E+00  0.00000000000E+00  0.18015180424E+03  0.18015180426E+03  0.25500000000E-02 0.  1.
         -2   -1    0    0    0  501 -0.00000000000E+00 -0.00000000000E+00 -0.71065626283E+03  0.71065626283E+03  0.25500000000E-02 0. -1.
    5000001    1    1    2    0    0  0.54789979036E+02 -0.29690846573E+03 -0.26235174884E+03  0.44367670543E+03  0.19200000000E+03 0.  0.
   -5000001    1    1    2    0    0 -0.54789979036E+02  0.29690846573E+03 -0.26815270975E+03  0.44713136165E+03  0.19200000000E+03 0.  0.
<mgrwt>
<rscale>  0 0.71561444E+03</rscale>
<asrwt>0</asrwt>
<pdfrwt beam="1">  1        2 0.25735972E-01 0.71561444E+03</pdfrwt>
<pdfrwt beam="2">  1       -2 0.10152232E+00 0.71561444E+03</pdfrwt>
<totfact> 0.17054522E+02</totfact>
</mgrwt>
</event>
<event>
 4    1  0.5621415E-005  0.4108568E+03  0.7818608E-02  0.1040084E+00
         -2   -1    0    0    0  501 -0.00000000000E+00  0.00000000000E+00  0.14256787075E+03  0.14256787078E+03  0.25500000000E-02 0. -1.
          2   -1    0    0  501    0  0.00000000000E+00 -0.00000000000E+00 -0.29600522712E+03  0.29600522713E+03  0.25500000000E-02 0.  1.
    5000001    1    1    2    0    0 -0.34712117339E+02  0.59969976225E+02 -0.52016595395E+02  0.21064438121E+03  0.19200000000E+03 0.  0.
   -5000001    1    1    2    0    0  0.34712117339E+02 -0.59969976225E+02 -0.10142076097E+03  0.22792871670E+03  0.19200000000E+03 0.  0.
<mgrwt>
<rscale>  0 0.41085684E+03</rscale>
<asrwt>0</asrwt>
<pdfrwt beam="1">  1        2 0.42286461E-01 0.41085684E+03</pdfrwt>
<pdfrwt beam="2">  1       -2 0.20366839E-01 0.41085684E+03</pdfrwt>
<totfact> 0.24684301E+03</totfact>
</mgrwt>
</event>
<event>
 4    1  0.5621415E-005  0.1174212E+04  0.7818608E-02  0.9135733E-01
          2   -1    0    0  501    0  0.00000000000E+00  0.00000000000E+00  0.40785700319E+04  0.40785700319E+04  0.25500000000E-02 0.  1.
         -2   -1    0    0    0  501 -0.00000000000E+00 -0.00000000000E+00 -0.84513279102E+02  0.84513279140E+02  0.25500000000E-02 0. -1.
    5000001    1    1    2    0    0  0.38792955738E+03 -0.33847617802E+03  0.27302882251E+04  0.27850302075E+04  0.19200000000E+03 0.  0.
   -5000001    1    1    2    0    0 -0.38792955738E+03  0.33847617802E+03  0.12637685277E+04  0.13780531036E+04  0.19200000000E+03 0.  0.
<mgrwt>
<rscale>  0 0.11742118E+04</rscale>
<asrwt>0</asrwt>
<pdfrwt beam="1">  1        2 0.58265274E+00 0.11742118E+04</pdfrwt>
<pdfrwt beam="2">  1       -2 0.12073328E-01 0.11742118E+04</pdfrwt>
<totfact> 0.26017225E+01</totfact>
</mgrwt>
</event>
<event>
 4    1  0.5621415E-005  0.4220244E+03  0.7818608E-02  0.1036409E+00
         -2   -1    0    0    0  501 -0.00000000000E+00  0.00000000000E+00  0.53930218986E+03  0.53930218987E+03  0.25500000000E-02 0. -1.
          2   -1    0    0  501    0  0.00000000000E+00 -0.00000000000E+00 -0.82562518461E+02  0.82562518501E+02  0.25500000000E-02 0.  1.
    5000001    1    1    2    0    0 -0.55121600204E+02 -0.67747329869E+02  0.21977075479E+03  0.30461660522E+03  0.19200000000E+03 0.  0.
   -5000001    1    1    2    0    0  0.55121600204E+02  0.67747329869E+02  0.23696891661E+03  0.31724810315E+03  0.19200000000E+03 0.  0.
<mgrwt>
<rscale>  0 0.42202439E+03</rscale>
<asrwt>0</asrwt>
<pdfrwt beam="1">  1        2 0.11794646E-01 0.42202439E+03</pdfrwt>
<pdfrwt beam="2">  1       -2 0.77043169E-01 0.42202439E+03</pdfrwt>
<totfact> 0.81418963E+02</totfact>
</mgrwt>
</event>
<event>
 4    1  0.5621415E-005  0.6262049E+03  0.7818608E-02  0.9852483E-01
         -2   -1    0    0    0  501 -0.00000000000E+00  0.00000000000E+00  0.14064338413E+03  0.14064338416E+03  0.25500000000E-02 0. -1.
          2   -1    0    0  501    0  0.00000000000E+00 -0.00000000000E+00 -0.69703355942E+03  0.69703355943E+03  0.25500000000E-02 0.  1.
    5000001    1    1    2    0    0  0.25453253008E+02  0.13380949347E+03 -0.20432166907E+01  0.23541670155E+03  0.19200000000E+03 0.  0.
   -5000001    1    1    2    0    0 -0.25453253008E+02 -0.13380949347E+03 -0.55434695860E+03  0.60226024204E+03  0.19200000000E+03 0.  0.
<mgrwt>
<rscale>  0 0.62620495E+03</rscale>
<asrwt>0</asrwt>
<pdfrwt beam="1">  1        2 0.99576221E-01 0.62620495E+03</pdfrwt>
<pdfrwt beam="2">  1       -2 0.20091912E-01 0.62620495E+03</pdfrwt>
<totfact> 0.96016739E+02</totfact>
</mgrwt>
</event>
<event>
 4    1  0.5621415E-005  0.5701741E+03  0.7818608E-02  0.9969293E-01
         -2   -1    0    0    0  501 -0.00000000000E+00  0.00000000000E+00  0.77593363404E+03  0.77593363404E+03  0.25500000000E-02 0. -1.
          2   -1    0    0  501    0  0.00000000000E+00 -0.00000000000E+00 -0.10474430671E+03  0.10474430674E+03  0.25500000000E-02 0.  1.
    5000001    1    1    2    0    0 -0.13919139667E+03 -0.23050502128E+01  0.57996548514E+03  0.62658081850E+03  0.19200000000E+03 0.  0.
   -5000001    1    1    2    0    0  0.13919139667E+03  0.23050502128E+01  0.91223842192E+02  0.25409712227E+03  0.19200000000E+03 0.  0.
<mgrwt>
<rscale>  0 0.57017412E+03</rscale>
<asrwt>0</asrwt>
<pdfrwt beam="1">  1        2 0.14963472E-01 0.57017412E+03</pdfrwt>
<pdfrwt beam="2">  1       -2 0.11084766E+00 0.57017412E+03</pdfrwt>
<totfact> 0.26262405E+02</totfact>
</mgrwt>
</event>
<event>
 4    1  0.5621415E-005  0.4980964E+03  0.7818608E-02  0.1014277E+00
          2   -1    0    0  501    0  0.00000000000E+00  0.00000000000E+00  0.33646101196E+04  0.33646101196E+04  0.25500000000E-02 0.  1.
         -2   -1    0    0    0  501 -0.00000000000E+00 -0.00000000000E+00 -0.18434527956E+02  0.18434528132E+02  0.25500000000E-02 0. -1.
    5000001    1    1    2    0    0 -0.92690747935E+02 -0.11801438347E+03  0.13239770367E+04  0.13462162394E+04  0.19200000000E+03 0.  0.
   -5000001    1    1    2    0    0  0.92690747935E+02  0.11801438347E+03  0.20221985550E+04  0.20368284084E+04  0.19200000000E+03 0.  0.
<mgrwt>
<rscale>  0 0.49809637E+03</rscale>
<asrwt>0</asrwt>
<pdfrwt beam="1">  1        2 0.48065826E+00 0.49809637E+03</pdfrwt>
<pdfrwt beam="2">  1       -2 0.26335058E-02 0.49809637E+03</pdfrwt>
<totfact> 0.87204462E+02</totfact>
</mgrwt>
</event>
<event>
 4    1  0.5621415E-005  0.7872771E+03  0.7818608E-02  0.9578618E-01
          2   -1    0    0  501    0  0.00000000000E+00  0.00000000000E+00  0.29184137406E+03  0.29184137408E+03  0.25500000000E-02 0.  1.
         -2   -1    0    0    0  501 -0.00000000000E+00 -0.00000000000E+00 -0.53094356289E+03  0.53094356289E+03  0.25500000000E-02 0. -1.
    5000001    1    1    2    0    0 -0.23402633009E+02 -0.22311556989E+03  0.15249494430E+03  0.33233559664E+03  0.19200000000E+03 0.  0.
   -5000001    1    1    2    0    0  0.23402633009E+02  0.22311556989E+03 -0.39159713312E+03  0.49044934033E+03  0.19200000000E+03 0.  0.
<mgrwt>
<rscale>  0 0.78727708E+03</rscale>
<asrwt>0</asrwt>
<pdfrwt beam="1">  1        2 0.41691625E-01 0.78727708E+03</pdfrwt>
<pdfrwt beam="2">  1       -2 0.75849081E-01 0.78727708E+03</pdfrwt>
<totfact> 0.19299615E+02</totfact>
</mgrwt>
</event>
<event>
 4    1  0.5621415E-005  0.5144306E+03  0.7818608E-02  0.1010079E+00
          2   -1    0    0  501    0  0.00000000000E+00  0.00000000000E+00  0.91995124606E+02  0.91995124641E+02  0.25500000000E-02 0.  1.
         -2   -1    0    0    0  501 -0.00000000000E+00 -0.00000000000E+00 -0.71916538211E+03  0.71916538211E+03  0.25500000000E-02 0. -1.
    5000001    1    1    2    0    0  0.11450924119E+03 -0.11276290464E+03 -0.22072882074E+03  0.33378593632E+03  0.19200000000E+03 0.  0.
   -5000001    1    1    2    0    0 -0.11450924119E+03  0.11276290464E+03 -0.40644143676E+03  0.47737457043E+03  0.19200000000E+03 0.  0.
<mgrwt>
<rscale>  0 0.51443059E+03</rscale>
<asrwt>0</asrwt>
<pdfrwt beam="1">  1        2 0.13142161E-01 0.51443059E+03</pdfrwt>
<pdfrwt beam="2">  1       -2 0.10273791E+00 0.51443059E+03</pdfrwt>
<totfact> 0.36933433E+02</totfact>
</mgrwt>
</event>
<event>
 4    1  0.5621415E-005  0.1124227E+04  0.7818608E-02  0.9181895E-01
          2   -1    0    0  501    0  0.00000000000E+00  0.00000000000E+00  0.86604777105E+03  0.86604777106E+03  0.25500000000E-02 0.  1.
         -2   -1    0    0    0  501 -0.00000000000E+00 -0.00000000000E+00 -0.36484294697E+03  0.36484294698E+03  0.25500000000E-02 0. -1.
    5000001    1    1    2    0    0 -0.44059514687E+03  0.27268494893E+03  0.13773833340E+03  0.56948837856E+03  0.19200000000E+03 0.  0.
   -5000001    1    1    2    0    0  0.44059514687E+03 -0.27268494893E+03  0.36346649069E+03  0.66140233948E+03  0.19200000000E+03 0.  0.
<mgrwt>
<rscale>  0 0.11242267E+04</rscale>
<asrwt>0</asrwt>
<pdfrwt beam="1">  1        2 0.12372111E+00 0.11242267E+04</pdfrwt>
<pdfrwt beam="2">  1       -2 0.52120421E-01 0.11242267E+04</pdfrwt>
<totfact> 0.11800040E+02</totfact>
</mgrwt>
</event>
<event>
 4    1  0.5621415E-005  0.7997288E+03  0.7818608E-02  0.9560410E-01
          2   -1    0    0  501    0  0.00000000000E+00  0.00000000000E+00  0.26962970028E+03  0.26962970030E+03  0.25500000000E-02 0.  1.
         -2   -1    0    0    0  501 -0.00000000000E+00 -0.00000000000E+00 -0.59300423954E+03  0.59300423954E+03  0.25500000000E-02 0. -1.
    5000001    1    1    2    0    0 -0.46827136561E+02 -0.34760948959E+03 -0.16336436994E+03  0.43194566248E+03  0.19200000000E+03 0.  0.
   -5000001    1    1    2    0    0  0.46827136561E+02  0.34760948959E+03 -0.16001016931E+03  0.43068827736E+03  0.19200000000E+03 0.  0.
<mgrwt>
<rscale>  0 0.79972884E+03</rscale>
<asrwt>0</asrwt>
<pdfrwt beam="1">  1        2 0.38518529E-01 0.79972884E+03</pdfrwt>
<pdfrwt beam="2">  1       -2 0.84714891E-01 0.79972884E+03</pdfrwt>
<totfact> 0.16431017E+02</totfact>
</mgrwt>
</event>
<event>
 4    1  0.5621415E-005  0.5823986E+03  0.7818608E-02  0.9942612E-01
          2   -1    0    0  501    0  0.00000000000E+00  0.00000000000E+00  0.27612744597E+04  0.27612744597E+04  0.25500000000E-02 0.  1.
         -2   -1    0    0    0  501 -0.00000000000E+00 -0.00000000000E+00 -0.30709376888E+02  0.30709376993E+02  0.25500000000E-02 0. -1.
    5000001    1    1    2    0    0 -0.19461212561E+01  0.10465374602E+03  0.22871265094E+04  0.22975569337E+04  0.19200000000E+03 0.  0.
   -5000001    1    1    2    0    0  0.19461212561E+01 -0.10465374602E+03  0.44343857346E+03  0.49442690297E+03  0.19200000000E+03 0.  0.
<mgrwt>
<rscale>  0 0.58239855E+03</rscale>
<asrwt>0</asrwt>
<pdfrwt beam="1">  1        2 0.39446756E+00 0.58239855E+03</pdfrwt>
<pdfrwt beam="2">  1       -2 0.43870563E-02 0.58239855E+03</pdfrwt>
<totfact> 0.85173920E+02</totfact>
</mgrwt>
</event>
<event>
 4    1  0.5621415E-005  0.3956783E+03  0.7818608E-02  0.1045286E+00
          2   -1    0    0  501    0  0.00000000000E+00  0.00000000000E+00  0.25159844098E+04  0.25159844098E+04  0.25500000000E-02 0.  1.
         -2   -1    0    0    0  501 -0.00000000000E+00 -0.00000000000E+00 -0.15556669661E+02  0.15556669870E+02  0.25500000000E-02 0. -1.
    5000001    1    1    2    0    0  0.86223178017E+01  0.34136503055E+02  0.14562141735E+04  0.14692390426E+04  0.19200000000E+03 0.  0.
   -5000001    1    1    2    0    0 -0.86223178017E+01 -0.34136503055E+02  0.10442135666E+04  0.10623020370E+04  0.19200000000E+03 0.  0.
<mgrwt>
<rscale>  0 0.39567835E+03</rscale>
<asrwt>0</asrwt>
<pdfrwt beam="1">  1        2 0.35942617E+00 0.39567835E+03</pdfrwt>
<pdfrwt beam="2">  1       -2 0.22223825E-02 0.39567835E+03</pdfrwt>
<totfact> 0.32362998E+03</totfact>
</mgrwt>
</event>
<event>
 4    1  0.5621415E-005  0.9886756E+03  0.7818608E-02  0.9321053E-01
         -2   -1    0    0    0  501 -0.00000000000E+00  0.00000000000E+00  0.50656578269E+03  0.50656578270E+03  0.25500000000E-02 0. -1.
          2   -1    0    0  501    0  0.00000000000E+00 -0.00000000000E+00 -0.48240494485E+03  0.48240494486E+03  0.25500000000E-02 0.  1.
    5000001    1    1    2    0    0  0.44572222655E+03  0.93912517031E+02  0.16321304552E+02  0.49458896983E+03  0.19200000000E+03 0.  0.
   -5000001    1    1    2    0    0 -0.44572222655E+03 -0.93912517031E+02  0.78395332914E+01  0.49438175773E+03  0.19200000000E+03 0.  0.
<mgrwt>
<rscale>  0 0.98867556E+03</rscale>
<asrwt>0</asrwt>
<pdfrwt beam="1">  1        2 0.68914992E-01 0.98867556E+03</pdfrwt>
<pdfrwt beam="2">  1       -2 0.72366540E-01 0.98867556E+03</pdfrwt>
<totfact> 0.12088474E+02</totfact>
</mgrwt>
</event>
<event>
 4    1  0.5621415E-005  0.5615473E+03  0.7818608E-02  0.9988560E-01
          2   -1    0    0  501    0  0.00000000000E+00  0.00000000000E+00  0.12050731035E+04  0.12050731035E+04  0.25500000000E-02 0.  1.
         -2   -1    0    0    0  501 -0.00000000000E+00 -0.00000000000E+00 -0.65418298103E+02  0.65418298153E+02  0.25500000000E-02 0. -1.
    5000001    1    1    2    0    0  0.11631191820E+03  0.39397252695E+02  0.94082796293E+03  0.96804021697E+03  0.19200000000E+03 0.  0.
   -5000001    1    1    2    0    0 -0.11631191820E+03 -0.39397252695E+02  0.19882684247E+03  0.30245118469E+03  0.19200000000E+03 0.  0.
<mgrwt>
<rscale>  0 0.56154726E+03</rscale>
<asrwt>0</asrwt>
<pdfrwt beam="1">  1        2 0.17215329E+00 0.56154726E+03</pdfrwt>
<pdfrwt beam="2">  1       -2 0.93454716E-02 0.56154726E+03</pdfrwt>
<totfact> 0.16393210E+03</totfact>
</mgrwt>
</event>
<event>
 4    1  0.5621415E-005  0.7727037E+03  0.7818608E-02  0.9600390E-01
         -2   -1    0    0    0  501 -0.00000000000E+00  0.00000000000E+00  0.99411278464E+02  0.99411278497E+02  0.25500000000E-02 0. -1.
          2   -1    0    0  501    0  0.00000000000E+00 -0.00000000000E+00 -0.15015170976E+04  0.15015170976E+04  0.25500000000E-02 0.  1.
    5000001    1    1    2    0    0  0.39322535587E+02 -0.26453595325E+03 -0.11199475741E+04  0.11673354707E+04  0.19200000000E+03 0.  0.
   -5000001    1    1    2    0    0 -0.39322535587E+02  0.26453595325E+03 -0.28215824495E+03  0.43359290534E+03  0.19200000000E+03 0.  0.
<mgrwt>
<rscale>  0 0.77270365E+03</rscale>
<asrwt>0</asrwt>
<pdfrwt beam="1">  1        2 0.21450243E+00 0.77270365E+03</pdfrwt>
<pdfrwt beam="2">  1       -2 0.14201612E-01 0.77270365E+03</pdfrwt>
<totfact> 0.56548640E+02</totfact>
</mgrwt>
</event>
<event>
 4    1  0.5621415E-005  0.4763600E+03  0.7818608E-02  0.1020140E+00
         -2   -1    0    0    0  501 -0.00000000000E+00  0.00000000000E+00  0.18603601110E+02  0.18603601285E+02  0.25500000000E-02 0. -1.
          2   -1    0    0  501    0  0.00000000000E+00 -0.00000000000E+00 -0.30493945885E+04  0.30493945885E+04  0.25500000000E-02 0.  1.
    5000001    1    1    2    0    0  0.27113332184E+02  0.66577017396E+02 -0.73457677974E+03  0.76264977373E+03  0.19200000000E+03 0.  0.
   -5000001    1    1    2    0    0 -0.27113332184E+02 -0.66577017396E+02 -0.22962142076E+04  0.23053484160E+04  0.19200000000E+03 0.  0.
<mgrwt>
<rscale>  0 0.47636004E+03</rscale>
<asrwt>0</asrwt>
<pdfrwt beam="1">  1        2 0.43562748E+00 0.47636004E+03</pdfrwt>
<pdfrwt beam="2">  1       -2 0.26576593E-02 0.47636004E+03</pdfrwt>
<totfact> 0.12934703E+03</totfact>
</mgrwt>
</event>
<event>
 4    1  0.5621415E-005  0.5399130E+03  0.7818608E-02  0.1003856E+00
         -2   -1    0    0    0  501 -0.00000000000E+00  0.00000000000E+00  0.58015960204E+02  0.58015960260E+02  0.25500000000E-02 0. -1.
          2   -1    0    0  501    0  0.00000000000E+00 -0.00000000000E+00 -0.12561457956E+04  0.12561457956E+04  0.25500000000E-02 0.  1.
    5000001    1    1    2    0    0 -0.11086490776E+02  0.17722227843E+03 -0.76201482643E+03  0.80564337144E+03  0.19200000000E+03 0.  0.
   -5000001    1    1    2    0    0  0.11086490776E+02 -0.17722227843E+03 -0.43611500897E+03  0.50851838442E+03  0.19200000000E+03 0.  0.
<mgrwt>
<rscale>  0 0.53991297E+03</rscale>
<asrwt>0</asrwt>
<pdfrwt beam="1">  1        2 0.17944938E+00 0.53991297E+03</pdfrwt>
<pdfrwt beam="2">  1       -2 0.82879951E-02 0.53991297E+03</pdfrwt>
<totfact> 0.18626643E+03</totfact>
</mgrwt>
</event>
<event>
 4    1  0.5621415E-005  0.5580404E+03  0.7818608E-02  0.9996498E-01
         -2   -1    0    0    0  501 -0.00000000000E+00  0.00000000000E+00  0.31247687969E+02  0.31247688073E+02  0.25500000000E-02 0. -1.
          2   -1    0    0  501    0  0.00000000000E+00 -0.00000000000E+00 -0.24914571472E+04  0.24914571472E+04  0.25500000000E-02 0.  1.
    5000001    1    1    2    0    0 -0.16778244363E+03  0.68146240042E+02 -0.82090689807E+03  0.86229171034E+03  0.19200000000E+03 0.  0.
   -5000001    1    1    2    0    0  0.16778244363E+03 -0.68146240042E+02 -0.16393025611E+04  0.16604131249E+04  0.19200000000E+03 0.  0.
<mgrwt>
<rscale>  0 0.55804041E+03</rscale>
<asrwt>0</asrwt>
<pdfrwt beam="1">  1        2 0.35592232E+00 0.55804041E+03</pdfrwt>
<pdfrwt beam="2">  1       -2 0.44639570E-02 0.55804041E+03</pdfrwt>
<totfact> 0.11466622E+03</totfact>
</mgrwt>
</event>
<event>
 4    1  0.5621415E-005  0.4849532E+03  0.7818608E-02  0.1017783E+00
          2   -1    0    0  501    0  0.00000000000E+00  0.00000000000E+00  0.13492659461E+04  0.13492659461E+04  0.25500000000E-02 0.  1.
         -2   -1    0    0    0  501 -0.00000000000E+00 -0.00000000000E+00 -0.43575476303E+02  0.43575476377E+02  0.25500000000E-02 0. -1.
    5000001    1    1    2    0    0  0.12796493231E+03 -0.51552930273E+02  0.80746476146E+03  0.84136559802E+03  0.19200000000E+03 0.  0.
   -5000001    1    1    2    0    0 -0.12796493231E+03  0.51552930273E+02  0.49822570832E+03  0.55147582444E+03  0.19200000000E+03 0.  0.
<mgrwt>
<rscale>  0 0.48495322E+03</rscale>
<asrwt>0</asrwt>
<pdfrwt beam="1">  1        2 0.19275225E+00 0.48495322E+03</pdfrwt>
<pdfrwt beam="2">  1       -2 0.62250690E-02 0.48495322E+03</pdfrwt>
<totfact> 0.26076087E+03</totfact>
</mgrwt>
</event>
<event>
 4    1  0.5621415E-005  0.5876415E+03  0.7818608E-02  0.9931383E-01
         -2   -1    0    0    0  501 -0.00000000000E+00  0.00000000000E+00  0.35145849158E+02  0.35145849250E+02  0.25500000000E-02 0. -1.
          2   -1    0    0  501    0  0.00000000000E+00 -0.00000000000E+00 -0.24563531858E+04  0.24563531858E+04  0.25500000000E-02 0.  1.
    5000001    1    1    2    0    0 -0.15584987647E+03  0.12290427422E+03 -0.16361095818E+04  0.16592507973E+04  0.19200000000E+03 0.  0.
   -5000001    1    1    2    0    0  0.15584987647E+03 -0.12290427422E+03 -0.78509775487E+03  0.83224823780E+03  0.19200000000E+03 0.  0.
<mgrwt>
<rscale>  0 0.58764145E+03</rscale>
<asrwt>0</asrwt>
<pdfrwt beam="1">  1        2 0.35090749E+00 0.58764145E+03</pdfrwt>
<pdfrwt beam="2">  1       -2 0.50208372E-02 0.58764145E+03</pdfrwt>
<totfact> 0.99431869E+02</totfact>
</mgrwt>
</event>
<event>
 4    1  0.5621415E-005  0.4346761E+03  0.7818608E-02  0.1032393E+00
          2   -1    0    0  501    0  0.00000000000E+00  0.00000000000E+00  0.13743966689E+04  0.13743966689E+04  0.25500000000E-02 0.  1.
         -2   -1    0    0    0  501 -0.00000000000E+00 -0.00000000000E+00 -0.34368412856E+02  0.34368412950E+02  0.25500000000E-02 0. -1.
    5000001    1    1    2    0    0 -0.65198943562E+02 -0.67064067369E+02  0.80059442578E+03  0.82859153143E+03  0.19200000000E+03 0.  0.
   -5000001    1    1    2    0    0  0.65198943562E+02  0.67064067369E+02  0.53943383029E+03  0.58017355044E+03  0.19200000000E+03 0.  0.
<mgrwt>
<rscale>  0 0.43467612E+03</rscale>
<asrwt>0</asrwt>
<pdfrwt beam="1">  1        2 0.19634236E+00 0.43467612E+03</pdfrwt>
<pdfrwt beam="2">  1       -2 0.49097737E-02 0.43467612E+03</pdfrwt>
<totfact> 0.36535772E+03</totfact>
</mgrwt>
</event>
<event>
 4    1  0.5621415E-005  0.8473802E+03  0.7818608E-02  0.9493860E-01
         -2   -1    0    0    0  501 -0.00000000000E+00  0.00000000000E+00  0.31508280166E+03  0.31508280167E+03  0.25500000000E-02 0. -1.
          2   -1    0    0  501    0  0.00000000000E+00 -0.00000000000E+00 -0.56973379874E+03  0.56973379875E+03  0.25500000000E-02 0.  1.
    5000001    1    1    2    0    0 -0.32093957694E+03  0.11175433041E+03  0.44752144754E+02  0.39288420288E+03  0.19200000000E+03 0.  0.
   -5000001    1    1    2    0    0  0.32093957694E+03 -0.11175433041E+03 -0.29940314183E+03  0.49193239754E+03  0.19200000000E+03 0.  0.
<mgrwt>
<rscale>  0 0.84738025E+03</rscale>
<asrwt>0</asrwt>
<pdfrwt beam="1">  1        2 0.81390542E-01 0.84738025E+03</pdfrwt>
<pdfrwt beam="2">  1       -2 0.45011829E-01 0.84738025E+03</pdfrwt>
<totfact> 0.27114096E+02</totfact>
</mgrwt>
</event>
<event>
 4    1  0.5621415E-005  0.5209318E+03  0.7818608E-02  0.1008455E+00
          2   -1    0    0  501    0  0.00000000000E+00  0.00000000000E+00  0.81942266595E+03  0.81942266595E+03  0.25500000000E-02 0.  1.
         -2   -1    0    0    0  501 -0.00000000000E+00 -0.00000000000E+00 -0.82793027377E+02  0.82793027416E+02  0.25500000000E-02 0. -1.
    5000001    1    1    2    0    0  0.10889574495E+03  0.80906284989E+02  0.56252530889E+03  0.60967436666E+03  0.19200000000E+03 0.  0.
   -5000001    1    1    2    0    0 -0.10889574495E+03 -0.80906284989E+02  0.17410432968E+03  0.29254132671E+03  0.19200000000E+03 0.  0.
<mgrwt>
<rscale>  0 0.52093179E+03</rscale>
<asrwt>0</asrwt>
<pdfrwt beam="1">  1        2 0.11706038E+00 0.52093179E+03</pdfrwt>
<pdfrwt beam="2">  1       -2 0.11827576E-01 0.52093179E+03</pdfrwt>
<totfact> 0.19204007E+03</totfact>
</mgrwt>
</event>
<event>
 4    1  0.5621415E-005  0.7130655E+03  0.7818608E-02  0.9695146E-01
         -2   -1    0    0    0  501 -0.00000000000E+00  0.00000000000E+00  0.13213735377E+03  0.13213735380E+03  0.25500000000E-02 0. -1.
          2   -1    0    0  501    0  0.00000000000E+00 -0.00000000000E+00 -0.96199602840E+03  0.96199602840E+03  0.25500000000E-02 0.  1.
    5000001    1    1    2    0    0  0.25048329333E+03  0.29233612142E+02 -0.66544287179E+03  0.73707170610E+03  0.19200000000E+03 0.  0.
   -5000001    1    1    2    0    0 -0.25048329333E+03 -0.29233612142E+02 -0.16441580283E+03  0.35706167609E+03  0.19200000000E+03 0.  0.
<mgrwt>
<rscale>  0 0.71306552E+03</rscale>
<asrwt>0</asrwt>
<pdfrwt beam="1">  1        2 0.13742800E+00 0.71306552E+03</pdfrwt>
<pdfrwt beam="2">  1       -2 0.18876765E-01 0.71306552E+03</pdfrwt>
<totfact> 0.70309486E+02</totfact>
</mgrwt>
</event>
<event>
 4    1  0.5621415E-005  0.9239450E+03  0.7818608E-02  0.9396134E-01
         -2   -1    0    0    0  501 -0.00000000000E+00  0.00000000000E+00  0.19483504178E+03  0.19483504179E+03  0.25500000000E-02 0. -1.
          2   -1    0    0  501    0  0.00000000000E+00 -0.00000000000E+00 -0.10953809925E+04  0.10953809925E+04  0.25500000000E-02 0.  1.
    5000001    1    1    2    0    0  0.83595362818E+02  0.40523676199E+03 -0.34813757650E+03  0.57381947521E+03  0.19200000000E+03 0.  0.
   -5000001    1    1    2    0    0 -0.83595362818E+02 -0.40523676199E+03 -0.55240837420E+03  0.71639655907E+03  0.19200000000E+03 0.  0.
<mgrwt>
<rscale>  0 0.92394502E+03</rscale>
<asrwt>0</asrwt>
<pdfrwt beam="1">  1        2 0.15648299E+00 0.92394502E+03</pdfrwt>
<pdfrwt beam="2">  1       -2 0.27833578E-01 0.92394502E+03</pdfrwt>
<totfact> 0.28931067E+02</totfact>
</mgrwt>
</event>
<event>
 4    1  0.5621415E-005  0.4868929E+03  0.7818608E-02  0.1017258E+00
         -2   -1    0    0    0  501 -0.00000000000E+00  0.00000000000E+00  0.83274257147E+03  0.83274257147E+03  0.25500000000E-02 0. -1.
          2   -1    0    0  501    0  0.00000000000E+00 -0.00000000000E+00 -0.71169874589E+02  0.71169874635E+02  0.25500000000E-02 0.  1.
    5000001    1    1    2    0    0 -0.21971169743E+02  0.14092294961E+03  0.29652180404E+03  0.38096087764E+03  0.19200000000E+03 0.  0.
   -5000001    1    1    2    0    0  0.21971169743E+02 -0.14092294961E+03  0.46505089284E+03  0.52295156846E+03  0.19200000000E+03 0.  0.
<mgrwt>
<rscale>  0 0.48689294E+03</rscale>
<asrwt>0</asrwt>
<pdfrwt beam="1">  1        2 0.10167125E-01 0.48689294E+03</pdfrwt>
<pdfrwt beam="2">  1       -2 0.11896322E+00 0.48689294E+03</pdfrwt>
<totfact> 0.35734320E+02</totfact>
</mgrwt>
</event>
<event>
 4    1  0.5621415E-005  0.8431578E+03  0.7818608E-02  0.9499567E-01
          2   -1    0    0  501    0  0.00000000000E+00  0.00000000000E+00  0.24786769125E+04  0.24786769125E+04  0.25500000000E-02 0.  1.
         -2   -1    0    0    0  501 -0.00000000000E+00 -0.00000000000E+00 -0.71703087967E+02  0.71703088013E+02  0.25500000000E-02 0. -1.
    5000001    1    1    2    0    0  0.26148253393E+03  0.79893742746E+02  0.19812103641E+04  0.20091825782E+04  0.19200000000E+03 0.  0.
   -5000001    1    1    2    0    0 -0.26148253393E+03 -0.79893742746E+02  0.42576346039E+03  0.54119742228E+03  0.19200000000E+03 0.  0.
<mgrwt>
<rscale>  0 0.84315785E+03</rscale>
<asrwt>0</asrwt>
<pdfrwt beam="1">  1        2 0.35409662E+00 0.84315785E+03</pdfrwt>
<pdfrwt beam="2">  1       -2 0.10243301E-01 0.84315785E+03</pdfrwt>
<totfact> 0.30576490E+02</totfact>
</mgrwt>
</event>
<event>
 4    1  0.5621415E-005  0.6418709E+03  0.7818608E-02  0.9822154E-01
         -2   -1    0    0    0  501 -0.00000000000E+00  0.00000000000E+00  0.75152964693E+02  0.75152964736E+02  0.25500000000E-02 0. -1.
          2   -1    0    0  501    0  0.00000000000E+00 -0.00000000000E+00 -0.13705321705E+04  0.13705321705E+04  0.25500000000E-02 0.  1.
    5000001    1    1    2    0    0  0.25656103570E+03  0.56034543593E+01 -0.68541760191E+03  0.75664803757E+03  0.19200000000E+03 0.  0.
   -5000001    1    1    2    0    0 -0.25656103570E+03 -0.56034543593E+01 -0.60996160391E+03  0.68903709768E+03  0.19200000000E+03 0.  0.
<mgrwt>
<rscale>  0 0.64187088E+03</rscale>
<asrwt>0</asrwt>
<pdfrwt beam="1">  1        2 0.19579029E+00 0.64187088E+03</pdfrwt>
<pdfrwt beam="2">  1       -2 0.10736139E-01 0.64187088E+03</pdfrwt>
<totfact> 0.10607563E+03</totfact>
</mgrwt>
</event>
<event>
 4    1  0.5621415E-005  0.6192438E+03  0.7818608E-02  0.9866266E-01
          2   -1    0    0  501    0  0.00000000000E+00  0.00000000000E+00  0.24904512566E+04  0.24904512566E+04  0.25500000000E-02 0.  1.
         -2   -1    0    0    0  501 -0.00000000000E+00 -0.00000000000E+00 -0.38493315656E+02  0.38493315740E+02  0.25500000000E-02 0. -1.
    5000001    1    1    2    0    0  0.23690148170E+03  0.49860945586E+02  0.11449873859E+04  0.11859462634E+04  0.19200000000E+03 0.  0.
   -5000001    1    1    2    0    0 -0.23690148170E+03 -0.49860945586E+02  0.13069705551E+04  0.13429983089E+04  0.19200000000E+03 0.  0.
<mgrwt>
<rscale>  0 0.61924382E+03</rscale>
<asrwt>0</asrwt>
<pdfrwt beam="1">  1        2 0.35577869E+00 0.61924382E+03</pdfrwt>
<pdfrwt beam="2">  1       -2 0.54990460E-02 0.61924382E+03</pdfrwt>
<totfact> 0.82720254E+02</totfact>
</mgrwt>
</event>
<event>
 4    1  0.5621415E-005  0.7219353E+03  0.7818608E-02  0.9680438E-01
          2   -1    0    0  501    0  0.00000000000E+00  0.00000000000E+00  0.19513422483E+04  0.19513422483E+04  0.25500000000E-02 0.  1.
         -2   -1    0    0    0  501 -0.00000000000E+00 -0.00000000000E+00 -0.66773348988E+02  0.66773349037E+02  0.25500000000E-02 0. -1.
    5000001    1    1    2    0    0  0.26562079251E+03 -0.15094297726E+03  0.96959807634E+03  0.10345639745E+04  0.19200000000E+03 0.  0.
   -5000001    1    1    2    0    0 -0.26562079251E+03  0.15094297726E+03  0.91497082300E+03  0.98355162282E+03  0.19200000000E+03 0.  0.
<mgrwt>
<rscale>  0 0.72193534E+03</rscale>
<asrwt>0</asrwt>
<pdfrwt beam="1">  1        2 0.27876320E+00 0.72193534E+03</pdfrwt>
<pdfrwt beam="2">  1       -2 0.95390490E-02 0.72193534E+03</pdfrwt>
<totfact> 0.64282294E+02</totfact>
</mgrwt>
</event>
<event>
 4    1  0.5621415E-005  0.6298244E+03  0.7818608E-02  0.9845391E-01
          2   -1    0    0  501    0  0.00000000000E+00  0.00000000000E+00  0.81729787354E+03  0.81729787354E+03  0.25500000000E-02 0.  1.
         -2   -1    0    0    0  501 -0.00000000000E+00 -0.00000000000E+00 -0.12133851255E+03  0.12133851258E+03  0.25500000000E-02 0. -1.
    5000001    1    1    2    0    0  0.16981020158E+03  0.11386393901E+03  0.13457204580E+03  0.31108541701E+03  0.19200000000E+03 0.  0.
   -5000001    1    1    2    0    0 -0.16981020158E+03 -0.11386393901E+03  0.56138731519E+03  0.62755096910E+03  0.19200000000E+03 0.  0.
<mgrwt>
<rscale>  0 0.62982445E+03</rscale>
<asrwt>0</asrwt>
<pdfrwt beam="1">  1        2 0.11675684E+00 0.62982445E+03</pdfrwt>
<pdfrwt beam="2">  1       -2 0.17334074E-01 0.62982445E+03</pdfrwt>
<totfact> 0.10147025E+03</totfact>
</mgrwt>
</event>
<event>
 4    1  0.5621415E-005  0.6989501E+03  0.7818608E-02  0.9719029E-01
         -2   -1    0    0    0  501 -0.00000000000E+00  0.00000000000E+00  0.37379895925E+02  0.37379896012E+02  0.25500000000E-02 0. -1.
          2   -1    0    0  501    0  0.00000000000E+00 -0.00000000000E+00 -0.32673392497E+04  0.32673392497E+04  0.25500000000E-02 0.  1.
    5000001    1    1    2    0    0  0.77621943888E+02  0.27837031156E+03 -0.14169846627E+04  0.14588436279E+04  0.19200000000E+03 0.  0.
   -5000001    1    1    2    0    0 -0.77621943888E+02 -0.27837031156E+03 -0.18129746911E+04  0.18458755178E+04  0.19200000000E+03 0.  0.
<mgrwt>
<rscale>  0 0.69895007E+03</rscale>
<asrwt>0</asrwt>
<pdfrwt beam="1">  1        2 0.46676257E+00 0.69895007E+03</pdfrwt>
<pdfrwt beam="2">  1       -2 0.53399872E-02 0.69895007E+03</pdfrwt>
<totfact> 0.32823787E+02</totfact>
</mgrwt>
</event>
<event>
 4    1  0.5621415E-005  0.5843599E+03  0.7818608E-02  0.9938396E-01
         -2   -1    0    0    0  501 -0.00000000000E+00  0.00000000000E+00  0.57108223278E+02  0.57108223335E+02  0.25500000000E-02 0. -1.
          2   -1    0    0  501    0  0.00000000000E+00 -0.00000000000E+00 -0.14948657000E+04  0.14948657000E+04  0.25500000000E-02 0.  1.
    5000001    1    1    2    0    0  0.10927962254E+02  0.19567073802E+03 -0.45198645428E+03  0.52873643049E+03  0.19200000000E+03 0.  0.
   -5000001    1    1    2    0    0 -0.10927962254E+02 -0.19567073802E+03 -0.98577102240E+03  0.10232374928E+04  0.19200000000E+03 0.  0.
<mgrwt>
<rscale>  0 0.58435990E+03</rscale>
<asrwt>0</asrwt>
<pdfrwt beam="1">  1        2 0.21355222E+00 0.58435990E+03</pdfrwt>
<pdfrwt beam="2">  1       -2 0.81583186E-02 0.58435990E+03</pdfrwt>
<totfact> 0.14230557E+03</totfact>
</mgrwt>
</event>
<event>
 4    1  0.5621415E-005  0.5727968E+03  0.7818608E-02  0.9963509E-01
         -2   -1    0    0    0  501 -0.00000000000E+00  0.00000000000E+00  0.72109950948E+02  0.72109950993E+02  0.25500000000E-02 0. -1.
          2   -1    0    0  501    0  0.00000000000E+00 -0.00000000000E+00 -0.11374855915E+04  0.11374855915E+04  0.25500000000E-02 0.  1.
    5000001    1    1    2    0    0 -0.58315022693E+02  0.20081486543E+03 -0.45275426863E+03  0.53439468543E+03  0.19200000000E+03 0.  0.
   -5000001    1    1    2    0    0  0.58315022693E+02 -0.20081486543E+03 -0.61262137193E+03  0.67520085708E+03  0.19200000000E+03 0.  0.
<mgrwt>
<rscale>  0 0.57279675E+03</rscale>
<asrwt>0</asrwt>
<pdfrwt beam="1">  1        2 0.16249793E+00 0.57279675E+03</pdfrwt>
<pdfrwt beam="2">  1       -2 0.10301422E-01 0.57279675E+03</pdfrwt>
<totfact> 0.15288912E+03</totfact>
</mgrwt>
</event>
<event>
 4    1  0.5621415E-005  0.1225616E+04  0.7818608E-02  0.9090726E-01
         -2   -1    0    0    0  501 -0.00000000000E+00  0.00000000000E+00  0.33619269218E+03  0.33619269219E+03  0.25500000000E-02 0. -1.
          2   -1    0    0  501    0  0.00000000000E+00 -0.00000000000E+00 -0.11170190776E+04  0.11170190776E+04  0.25500000000E-02 0.  1.
    5000001    1    1    2    0    0  0.39359872124E+03  0.18909997092E+03 -0.84654670876E+03  0.97169135145E+03  0.19200000000E+03 0.  0.
   -5000001    1    1    2    0    0 -0.39359872124E+03 -0.18909997092E+03  0.65720323355E+02  0.48152041833E+03  0.19200000000E+03 0.  0.
<mgrwt>
<rscale>  0 0.12256160E+04</rscale>
<asrwt>0</asrwt>
<pdfrwt beam="1">  1        2 0.15957415E+00 0.12256160E+04</pdfrwt>
<pdfrwt beam="2">  1       -2 0.48027528E-01 0.12256160E+04</pdfrwt>
<totfact> 0.96590874E+01</totfact>
</mgrwt>
</event>
<event>
 4    1  0.5621415E-005  0.1121355E+04  0.7818608E-02  0.9184624E-01
         -2   -1    0    0    0  501 -0.00000000000E+00  0.00000000000E+00  0.16230393155E+03  0.16230393157E+03  0.25500000000E-02 0. -1.
          2   -1    0    0  501    0  0.00000000000E+00 -0.00000000000E+00 -0.19368556285E+04  0.19368556285E+04  0.25500000000E-02 0.  1.
    5000001    1    1    2    0    0  0.44384750339E+03  0.27708965304E+03 -0.10013901923E+04  0.11460478172E+04  0.19200000000E+03 0.  0.
   -5000001    1    1    2    0    0 -0.44384750339E+03 -0.27708965304E+03 -0.77316150458E+03  0.95311174279E+03  0.19200000000E+03 0.  0.
<mgrwt>
<rscale>  0 0.11213550E+04</rscale>
<asrwt>0</asrwt>
<pdfrwt beam="1">  1        2 0.27669365E+00 0.11213550E+04</pdfrwt>
<pdfrwt beam="2">  1       -2 0.23186277E-01 0.11213550E+04</pdfrwt>
<totfact> 0.14097206E+02</totfact>
</mgrwt>
</event>
<event>
 4    1  0.5621415E-005  0.4645079E+03  0.7818608E-02  0.1023482E+00
          2   -1    0    0  501    0  0.00000000000E+00  0.00000000000E+00  0.12256128989E+04  0.12256128989E+04  0.25500000000E-02 0.  1.
         -2   -1    0    0    0  501 -0.00000000000E+00 -0.00000000000E+00 -0.44012179100E+02  0.44012179174E+02  0.25500000000E-02 0. -1.
    5000001    1    1    2    0    0 -0.92540005813E+01 -0.65316990314E+02  0.28246205302E+03  0.34785163094E+03  0.19200000000E+03 0.  0.
   -5000001    1    1    2    0    0  0.92540005813E+01  0.65316990314E+02  0.89913866678E+03  0.92177344714E+03  0.19200000000E+03 0.  0.
<mgrwt>
<rscale>  0 0.46450789E+03</rscale>
<asrwt>0</asrwt>
<pdfrwt beam="1">  1        2 0.17508755E+00 0.46450789E+03</pdfrwt>
<pdfrwt beam="2">  1       -2 0.62874546E-02 0.46450789E+03</pdfrwt>
<totfact> 0.29952818E+03</totfact>
</mgrwt>
</event>
<event>
 4    1  0.5621415E-005  0.6233805E+03  0.7818608E-02  0.9858052E-01
         -2   -1    0    0    0  501 -0.00000000000E+00  0.00000000000E+00  0.78001362101E+02  0.78001362143E+02  0.25500000000E-02 0. -1.
          2   -1    0    0  501    0  0.00000000000E+00 -0.00000000000E+00 -0.12455015776E+04  0.12455015776E+04  0.25500000000E-02 0.  1.
    5000001    1    1    2    0    0  0.18486638056E+03 -0.14616135011E+03 -0.43745438169E+03  0.53269977942E+03  0.19200000000E+03 0.  0.
   -5000001    1    1    2    0    0 -0.18486638056E+03  0.14616135011E+03 -0.73004583381E+03  0.79080316033E+03  0.19200000000E+03 0.  0.
<mgrwt>
<rscale>  0 0.62338052E+03</rscale>
<asrwt>0</asrwt>
<pdfrwt beam="1">  1        2 0.17792878E+00 0.62338052E+03</pdfrwt>
<pdfrwt beam="2">  1       -2 0.11143052E-01 0.62338052E+03</pdfrwt>
<totfact> 0.11681327E+03</totfact>
</mgrwt>
</event>
<event>
 4    1  0.5621415E-005  0.5882930E+03  0.7818608E-02  0.9929997E-01
          2   -1    0    0  501    0  0.00000000000E+00  0.00000000000E+00  0.13115242903E+04  0.13115242903E+04  0.25500000000E-02 0.  1.
         -2   -1    0    0    0  501 -0.00000000000E+00 -0.00000000000E+00 -0.65970683366E+02  0.65970683415E+02  0.25500000000E-02 0. -1.
    5000001    1    1    2    0    0 -0.15292170729E+03 -0.11869819479E+03  0.36431966830E+03  0.45504629514E+03  0.19200000000E+03 0.  0.
   -5000001    1    1    2    0    0  0.15292170729E+03  0.11869819479E+03  0.88123393859E+03  0.92244867854E+03  0.19200000000E+03 0.  0.
<mgrwt>
<rscale>  0 0.58829297E+03</rscale>
<asrwt>0</asrwt>
<pdfrwt beam="1">  1        2 0.18736063E+00 0.58829297E+03</pdfrwt>
<pdfrwt beam="2">  1       -2 0.94243824E-02 0.58829297E+03</pdfrwt>
<totfact> 0.14125121E+03</totfact>
</mgrwt>
</event>
<event>
 4    1  0.5621415E-005  0.5021580E+03  0.7818608E-02  0.1013217E+00
         -2   -1    0    0    0  501 -0.00000000000E+00  0.00000000000E+00  0.13642357737E+03  0.13642357740E+03  0.25500000000E-02 0. -1.
          2   -1    0    0  501    0  0.00000000000E+00 -0.00000000000E+00 -0.46209509792E+03  0.46209509793E+03  0.25500000000E-02 0.  1.
    5000001    1    1    2    0    0 -0.62031442948E+02  0.14909049008E+03 -0.17480180965E+03  0.30577041519E+03  0.19200000000E+03 0.  0.
   -5000001    1    1    2    0    0  0.62031442948E+02 -0.14909049008E+03 -0.15086971090E+03  0.29274826014E+03  0.19200000000E+03 0.  0.
<mgrwt>
<rscale>  0 0.50215801E+03</rscale>
<asrwt>0</asrwt>
<pdfrwt beam="1">  1        2 0.66013585E-01 0.50215801E+03</pdfrwt>
<pdfrwt beam="2">  1       -2 0.19489083E-01 0.50215801E+03</pdfrwt>
<totfact> 0.16350269E+03</totfact>
</mgrwt>
</event>
<event>
 4    1  0.5621415E-005  0.5861915E+03  0.7818608E-02  0.9934476E-01
         -2   -1    0    0    0  501 -0.00000000000E+00  0.00000000000E+00  0.28664123836E+02  0.28664123949E+02  0.25500000000E-02 0. -1.
          2   -1    0    0  501    0  0.00000000000E+00 -0.00000000000E+00 -0.29969559772E+04  0.29969559772E+04  0.25500000000E-02 0.  1.
    5000001    1    1    2    0    0 -0.19800561132E+03  0.99082634387E+02 -0.15057545573E+04  0.15340092495E+04  0.19200000000E+03 0.  0.
   -5000001    1    1    2    0    0  0.19800561132E+03 -0.99082634387E+02 -0.14625372961E+04  0.14916108517E+04  0.19200000000E+03 0.  0.
<mgrwt>
<rscale>  0 0.58619150E+03</rscale>
<asrwt>0</asrwt>
<pdfrwt beam="1">  1        2 0.42813637E+00 0.58619150E+03</pdfrwt>
<pdfrwt beam="2">  1       -2 0.40948767E-02 0.58619150E+03</pdfrwt>
<totfact> 0.70830233E+02</totfact>
</mgrwt>
</event>
<event>
 4    1  0.5621415E-005  0.4918455E+03  0.7818608E-02  0.1015930E+00
         -2   -1    0    0    0  501 -0.00000000000E+00  0.00000000000E+00  0.63916970718E+02  0.63916970769E+02  0.25500000000E-02 0. -1.
          2   -1    0    0  501    0  0.00000000000E+00 -0.00000000000E+00 -0.94619636051E+03  0.94619636052E+03  0.25500000000E-02 0.  1.
    5000001    1    1    2    0    0 -0.49992019930E+02  0.14173045180E+03 -0.37531539740E+03  0.44756270013E+03  0.19200000000E+03 0.  0.
   -5000001    1    1    2    0    0  0.49992019930E+02 -0.14173045180E+03 -0.50696399239E+03  0.56255063115E+03  0.19200000000E+03 0.  0.
<mgrwt>
<rscale>  0 0.49184552E+03</rscale>
<asrwt>0</asrwt>
<pdfrwt beam="1">  1        2 0.13517090E+00 0.49184552E+03</pdfrwt>
<pdfrwt beam="2">  1       -2 0.91309964E-02 0.49184552E+03</pdfrwt>
<totfact> 0.24159917E+03</totfact>
</mgrwt>
</event>
<event>
 4    1  0.5621415E-005  0.5089011E+03  0.7818608E-02  0.1011481E+00
          2   -1    0    0  501    0  0.00000000000E+00  0.00000000000E+00  0.18768945498E+04  0.18768945498E+04  0.25500000000E-02 0.  1.
         -2   -1    0    0    0  501 -0.00000000000E+00 -0.00000000000E+00 -0.34495853817E+02  0.34495853911E+02  0.25500000000E-02 0. -1.
    5000001    1    1    2    0    0 -0.14620989030E+03  0.78132973916E+02  0.99622246544E+03  0.10280103571E+04  0.19200000000E+03 0.  0.
   -5000001    1    1    2    0    0  0.14620989030E+03 -0.78132973916E+02  0.84617623055E+03  0.88338004663E+03  0.19200000000E+03 0.  0.
<mgrwt>
<rscale>  0 0.50890109E+03</rscale>
<asrwt>0</asrwt>
<pdfrwt beam="1">  1        2 0.26812772E+00 0.50890109E+03</pdfrwt>
<pdfrwt beam="2">  1       -2 0.49279804E-02 0.50890109E+03</pdfrwt>
<totfact> 0.20111849E+03</totfact>
</mgrwt>
</event>
<event>
 4    1  0.5621415E-005  0.9251677E+03  0.7818608E-02  0.9394656E-01
         -2   -1    0    0    0  501 -0.00000000000E+00  0.00000000000E+00  0.18077531498E+03  0.18077531500E+03  0.25500000000E-02 0. -1.
          2   -1    0    0  501    0  0.00000000000E+00 -0.00000000000E+00 -0.11837003461E+04  0.11837003461E+04  0.25500000000E-02 0.  1.
    5000001    1    1    2    0    0  0.10141178618E+03 -0.32128358399E+03 -0.12948564672E+03  0.40882517587E+03  0.19200000000E+03 0.  0.
   -5000001    1    1    2    0    0 -0.10141178618E+03  0.32128358399E+03 -0.87343938435E+03  0.95565048519E+03  0.19200000000E+03 0.  0.
<mgrwt>
<rscale>  0 0.92516767E+03</rscale>
<asrwt>0</asrwt>
<pdfrwt beam="1">  1        2 0.16910004E+00 0.92516767E+03</pdfrwt>
<pdfrwt beam="2">  1       -2 0.25825046E-01 0.92516767E+03</pdfrwt>
<totfact> 0.29475975E+02</totfact>
</mgrwt>
</event>
<event>
 4    1  0.5621415E-005  0.9456004E+03  0.7818608E-02  0.9370308E-01
          2   -1    0    0  501    0  0.00000000000E+00  0.00000000000E+00  0.50984730413E+03  0.50984730414E+03  0.25500000000E-02 0.  1.
         -2   -1    0    0    0  501 -0.00000000000E+00 -0.00000000000E+00 -0.43844507210E+03  0.43844507211E+03  0.25500000000E-02 0. -1.
    5000001    1    1    2    0    0 -0.35421665796E+03  0.13530809243E+03  0.24340983734E+03  0.48978573842E+03  0.19200000000E+03 0.  0.
   -5000001    1    1    2    0    0  0.35421665796E+03 -0.13530809243E+03 -0.17200760531E+03  0.45850663783E+03  0.19200000000E+03 0.  0.
<mgrwt>
<rscale>  0 0.94560042E+03</rscale>
<asrwt>0</asrwt>
<pdfrwt beam="1">  1        2 0.72835329E-01 0.94560042E+03</pdfrwt>
<pdfrwt beam="2">  1       -2 0.62635010E-01 0.94560042E+03</pdfrwt>
<totfact> 0.15544559E+02</totfact>
</mgrwt>
</event>
<event>
 4    1  0.5621415E-005  0.4119489E+03  0.7818608E-02  0.1039719E+00
          2   -1    0    0  501    0  0.00000000000E+00  0.00000000000E+00  0.38042406147E+03  0.38042406147E+03  0.25500000000E-02 0.  1.
         -2   -1    0    0    0  501 -0.00000000000E+00 -0.00000000000E+00 -0.11152155744E+03  0.11152155747E+03  0.25500000000E-02 0. -1.
    5000001    1    1    2    0    0  0.45148729155E+02  0.58902702010E+02  0.12571259982E+03  0.24119617286E+03  0.19200000000E+03 0.  0.
   -5000001    1    1    2    0    0 -0.45148729155E+02 -0.58902702010E+02  0.14318990420E+03  0.25074944609E+03  0.19200000000E+03 0.  0.
<mgrwt>
<rscale>  0 0.41194895E+03</rscale>
<asrwt>0</asrwt>
<pdfrwt beam="1">  1        2 0.54346295E-01 0.41194895E+03</pdfrwt>
<pdfrwt beam="2">  1       -2 0.15931651E-01 0.41194895E+03</pdfrwt>
<totfact> 0.28527139E+03</totfact>
</mgrwt>
</event>
<event>
 4    1  0.5621415E-005  0.5915765E+03  0.7818608E-02  0.9923038E-01
          2   -1    0    0  501    0  0.00000000000E+00  0.00000000000E+00  0.66240750163E+03  0.66240750163E+03  0.25500000000E-02 0.  1.
         -2   -1    0    0    0  501 -0.00000000000E+00 -0.00000000000E+00 -0.13207984374E+03  0.13207984376E+03  0.25500000000E-02 0. -1.
    5000001    1    1    2    0    0 -0.17977237075E+03 -0.13530186258E+03  0.26705360534E+03  0.39850511593E+03  0.19200000000E+03 0.  0.
   -5000001    1    1    2    0    0  0.17977237075E+03  0.13530186258E+03  0.26327405255E+03  0.39598222946E+03  0.19200000000E+03 0.  0.
<mgrwt>
<rscale>  0 0.59157647E+03</rscale>
<asrwt>0</asrwt>
<pdfrwt beam="1">  1        2 0.94629643E-01 0.59157647E+03</pdfrwt>
<pdfrwt beam="2">  1       -2 0.18868549E-01 0.59157647E+03</pdfrwt>
<totfact> 0.11397922E+03</totfact>
</mgrwt>
</event>
<event>
 4    1  0.5621415E-005  0.7631267E+03  0.7818608E-02  0.9614979E-01
          2   -1    0    0  501    0  0.00000000000E+00  0.00000000000E+00  0.51927860420E+02  0.51927860483E+02  0.25500000000E-02 0.  1.
         -2   -1    0    0    0  501 -0.00000000000E+00 -0.00000000000E+00 -0.28037086205E+04  0.28037086205E+04  0.25500000000E-02 0. -1.
    5000001    1    1    2    0    0 -0.18964381451E+03 -0.26107866786E+03 -0.16296795276E+04  0.16723774125E+04  0.19200000000E+03 0.  0.
   -5000001    1    1    2    0    0  0.18964381451E+03  0.26107866786E+03 -0.11221012324E+04  0.11832590684E+04  0.19200000000E+03 0.  0.
<mgrwt>
<rscale>  0 0.76312670E+03</rscale>
<asrwt>0</asrwt>
<pdfrwt beam="1">  1        2 0.74182675E-02 0.76312670E+03</pdfrwt>
<pdfrwt beam="2">  1       -2 0.40052971E+00 0.76312670E+03</pdfrwt>
<totfact> 0.76610600E+00</totfact>
</mgrwt>
</event>
<event>
 4    1  0.5621415E-005  0.9865358E+03  0.7818608E-02  0.9323437E-01
          2   -1    0    0  501    0  0.00000000000E+00  0.00000000000E+00  0.49674591997E+03  0.49674591998E+03  0.25500000000E-02 0.  1.
         -2   -1    0    0    0  501 -0.00000000000E+00 -0.00000000000E+00 -0.48981418553E+03  0.48981418554E+03  0.25500000000E-02 0. -1.
    5000001    1    1    2    0    0 -0.37199753545E+03 -0.19745192859E+03 -0.16706625111E+03  0.49208186590E+03  0.19200000000E+03 0.  0.
   -5000001    1    1    2    0    0  0.37199753545E+03  0.19745192859E+03  0.17399798555E+03  0.49447823962E+03  0.19200000000E+03 0.  0.
<mgrwt>
<rscale>  0 0.98653575E+03</rscale>
<asrwt>0</asrwt>
<pdfrwt beam="1">  1        2 0.70963703E-01 0.98653575E+03</pdfrwt>
<pdfrwt beam="2">  1       -2 0.69973455E-01 0.98653575E+03</pdfrwt>
<totfact> 0.12585359E+02</totfact>
</mgrwt>
</event>
<event>
 4    1  0.5621415E-005  0.5394000E+03  0.7818608E-02  0.1003978E+00
          2   -1    0    0  501    0  0.00000000000E+00  0.00000000000E+00  0.27377060579E+03  0.27377060580E+03  0.25500000000E-02 0.  1.
         -2   -1    0    0    0  501 -0.00000000000E+00 -0.00000000000E+00 -0.26568995537E+03  0.26568995539E+03  0.25500000000E-02 0. -1.
    5000001    1    1    2    0    0  0.14401784230E+03  0.92614767249E+02  0.85015242543E+02  0.27094321449E+03  0.19200000000E+03 0.  0.
   -5000001    1    1    2    0    0 -0.14401784230E+03 -0.92614767249E+02 -0.76934592125E+02  0.26851734670E+03  0.19200000000E+03 0.  0.
<mgrwt>
<rscale>  0 0.53940004E+03</rscale>
<asrwt>0</asrwt>
<pdfrwt beam="1">  1        2 0.39110087E-01 0.53940004E+03</pdfrwt>
<pdfrwt beam="2">  1       -2 0.37955708E-01 0.53940004E+03</pdfrwt>
<totfact> 0.86818983E+02</totfact>
</mgrwt>
</event>
<event>
 4    1  0.5621415E-005  0.6738608E+03  0.7818608E-02  0.9763008E-01
          2   -1    0    0  501    0  0.00000000000E+00  0.00000000000E+00  0.18762421063E+04  0.18762421063E+04  0.25500000000E-02 0. -1.
         -2   -1    0    0    0  501 -0.00000000000E+00 -0.00000000000E+00 -0.60505027837E+02  0.60505027891E+02  0.25500000000E-02 0.  1.
    5000001    1    1    2    0    0 -0.21175498709E+03  0.15921780835E+03  0.11390080513E+04  0.11850712325E+04  0.19200000000E+03 0.  0.
   -5000001    1    1    2    0    0  0.21175498709E+03 -0.15921780835E+03  0.67672902714E+03  0.75167590172E+03  0.19200000000E+03 0.  0.
<mgrwt>
<rscale>  0 0.67386076E+03</rscale>
<asrwt>0</asrwt>
<pdfrwt beam="1">  1        2 0.26803454E+00 0.67386076E+03</pdfrwt>
<pdfrwt beam="2">  1       -2 0.86435768E-02 0.67386076E+03</pdfrwt>
<totfact> 0.82479261E+02</totfact>
</mgrwt>
</event>
<event>
 4    1  0.5621415E-005  0.9268147E+03  0.7818608E-02  0.9392669E-01
         -2   -1    0    0    0  501 -0.00000000000E+00  0.00000000000E+00  0.46425869190E+02  0.46425869261E+02  0.25500000000E-02 0. -1.
          2   -1    0    0  501    0  0.00000000000E+00 -0.00000000000E+00 -0.46255754167E+04  0.46255754167E+04  0.25500000000E-02 0.  1.
    5000001    1    1    2    0    0  0.18870175838E+03  0.37013432315E+03 -0.26556786686E+04  0.26948285589E+04  0.19200000000E+03 0.  0.
   -5000001    1    1    2    0    0 -0.18870175838E+03 -0.37013432315E+03 -0.19234708790E+04  0.19771727272E+04  0.19200000000E+03 0.  0.
<mgrwt>
<rscale>  0 0.92681467E+03</rscale>
<asrwt>0</asrwt>
<pdfrwt beam="1">  1        2 0.66079620E+00 0.92681467E+03</pdfrwt>
<pdfrwt beam="2">  1       -2 0.66322700E-02 0.92681467E+03</pdfrwt>
<totfact> 0.27605669E+01</totfact>
</mgrwt>
</event>
<event>
 4    1  0.5621415E-005  0.8567459E+03  0.7818608E-02  0.9481327E-01
          2   -1    0    0  501    0  0.00000000000E+00  0.00000000000E+00  0.10636525701E+04  0.10636525701E+04  0.25500000000E-02 0.  1.
         -2   -1    0    0    0  501 -0.00000000000E+00 -0.00000000000E+00 -0.17252191568E+03  0.17252191569E+03  0.25500000000E-02 0. -1.
    5000001    1    1    2    0    0 -0.33011573144E+03 -0.16602578634E+03  0.59056081464E+03  0.72261126041E+03  0.19200000000E+03 0.  0.
   -5000001    1    1    2    0    0  0.33011573144E+03  0.16602578634E+03  0.30056983976E+03  0.51356322536E+03  0.19200000000E+03 0.  0.
<mgrwt>
<rscale>  0 0.85674589E+03</rscale>
<asrwt>0</asrwt>
<pdfrwt beam="1">  1        2 0.15195037E+00 0.85674589E+03</pdfrwt>
<pdfrwt beam="2">  1       -2 0.24645987E-01 0.85674589E+03</pdfrwt>
<totfact> 0.37818412E+02</totfact>
</mgrwt>
</event>
<event>
 4    1  0.5621415E-005  0.4730213E+03  0.7818608E-02  0.1021071E+00
          2   -1    0    0  501    0  0.00000000000E+00  0.00000000000E+00  0.12462361781E+04  0.12462361781E+04  0.25500000000E-02 0.  1.
         -2   -1    0    0    0  501 -0.00000000000E+00 -0.00000000000E+00 -0.44884976102E+02  0.44884976175E+02  0.25500000000E-02 0. -1.
    5000001    1    1    2    0    0 -0.85798469760E+02 -0.10631850804E+03  0.65582802552E+03  0.69687832627E+03  0.19200000000E+03 0.  0.
   -5000001    1    1    2    0    0  0.85798469760E+02  0.10631850804E+03  0.54552317648E+03  0.59424282801E+03  0.19200000000E+03 0.  0.
<mgrwt>
<rscale>  0 0.47302127E+03</rscale>
<asrwt>0</asrwt>
<pdfrwt beam="1">  1        2 0.17803371E+00 0.47302127E+03</pdfrwt>
<pdfrwt beam="2">  1       -2 0.64121405E-02 0.47302127E+03</pdfrwt>
<totfact> 0.28300418E+03</totfact>
</mgrwt>
</event>
<event>
 4    1  0.5621415E-005  0.5845623E+03  0.7818608E-02  0.9937962E-01
         -2   -1    0    0    0  501 -0.00000000000E+00  0.00000000000E+00  0.65222868125E+02  0.65222868175E+02  0.25500000000E-02 0. -1.
          2   -1    0    0  501    0  0.00000000000E+00 -0.00000000000E+00 -0.13097900692E+04  0.13097900692E+04  0.25500000000E-02 0.  1.
    5000001    1    1    2    0    0 -0.20384191003E+03  0.79032860562E+02 -0.55715892465E+03  0.62856008834E+03  0.19200000000E+03 0.  0.
   -5000001    1    1    2    0    0  0.20384191003E+03 -0.79032860562E+02 -0.68740827638E+03  0.74645284899E+03  0.19200000000E+03 0.  0.
<mgrwt>
<rscale>  0 0.58456228E+03</rscale>
<asrwt>0</asrwt>
<pdfrwt beam="1">  1        2 0.18711285E+00 0.58456228E+03</pdfrwt>
<pdfrwt beam="2">  1       -2 0.93175534E-02 0.58456228E+03</pdfrwt>
<totfact> 0.14419742E+03</totfact>
</mgrwt>
</event>
<event>
 4    1  0.5621415E-005  0.5034446E+03  0.7818608E-02  0.1012884E+00
          2   -1    0    0  501    0  0.00000000000E+00  0.00000000000E+00  0.29158880411E+04  0.29158880411E+04  0.25500000000E-02 0.  1.
         -2   -1    0    0    0  501 -0.00000000000E+00 -0.00000000000E+00 -0.21730639459E+02  0.21730639608E+02  0.25500000000E-02 0. -1.
    5000001    1    1    2    0    0 -0.13785721600E+03 -0.32885834248E+02  0.97976451278E+03  0.10084089402E+04  0.19200000000E+03 0.  0.
   -5000001    1    1    2    0    0  0.13785721600E+03  0.32885834248E+02  0.19143928889E+04  0.19292097406E+04  0.19200000000E+03 0.  0.
<mgrwt>
<rscale>  0 0.50344458E+03</rscale>
<asrwt>0</asrwt>
<pdfrwt beam="1">  1        2 0.41655548E+00 0.50344458E+03</pdfrwt>
<pdfrwt beam="2">  1       -2 0.31043767E-02 0.50344458E+03</pdfrwt>
<totfact> 0.12043102E+03</totfact>
</mgrwt>
</event>
<event>
 4    1  0.5621415E-005  0.9531512E+03  0.7818608E-02  0.9361475E-01
         -2   -1    0    0    0  501 -0.00000000000E+00  0.00000000000E+00  0.17581220305E+03  0.17581220307E+03  0.25500000000E-02 0. -1.
          2   -1    0    0  501    0  0.00000000000E+00 -0.00000000000E+00 -0.12918573833E+04  0.12918573833E+04  0.25500000000E-02 0.  1.
    5000001    1    1    2    0    0  0.41858761756E+03 -0.93460126709E+02 -0.43570811043E+03  0.64082442709E+03  0.19200000000E+03 0.  0.
   -5000001    1    1    2    0    0 -0.41858761756E+03  0.93460126709E+02 -0.68033706987E+03  0.82684515932E+03  0.19200000000E+03 0.  0.
<mgrwt>
<rscale>  0 0.95315118E+03</rscale>
<asrwt>0</asrwt>
<pdfrwt beam="1">  1        2 0.18455105E+00 0.95315118E+03</pdfrwt>
<pdfrwt beam="2">  1       -2 0.25116030E-01 0.95315118E+03</pdfrwt>
<totfact> 0.26914815E+02</totfact>
</mgrwt>
</event>
<event>
 4    1  0.5621415E-005  0.7484115E+03  0.7818608E-02  0.9637846E-01
         -2   -1    0    0    0  501 -0.00000000000E+00  0.00000000000E+00  0.10840716136E+03  0.10840716139E+03  0.25500000000E-02 0. -1.
          2   -1    0    0  501    0  0.00000000000E+00 -0.00000000000E+00 -0.12917036500E+04  0.12917036500E+04  0.25500000000E-02 0.  1.
    5000001    1    1    2    0    0 -0.22412638444E+03 -0.21707122981E+03 -0.44900999359E+03  0.57950541789E+03  0.19200000000E+03 0.  0.
   -5000001    1    1    2    0    0  0.22412638444E+03  0.21707122981E+03 -0.73428649502E+03  0.82060539346E+03  0.19200000000E+03 0.  0.
<mgrwt>
<rscale>  0 0.74841145E+03</rscale>
<asrwt>0</asrwt>
<pdfrwt beam="1">  1        2 0.18452908E+00 0.74841145E+03</pdfrwt>
<pdfrwt beam="2">  1       -2 0.15486738E-01 0.74841145E+03</pdfrwt>
<totfact> 0.63373098E+02</totfact>
</mgrwt>
</event>
<event>
 4    1  0.5621415E-005  0.7948630E+03  0.7818608E-02  0.9567483E-01
          2   -1    0    0  501    0  0.00000000000E+00  0.00000000000E+00  0.44188935966E+04  0.44188935966E+04  0.25500000000E-02 0.  1.
         -2   -1    0    0    0  501 -0.00000000000E+00 -0.00000000000E+00 -0.35744647373E+02  0.35744647464E+02  0.25500000000E-02 0. -1.
    5000001    1    1    2    0    0  0.17442338147E+03  0.27148927619E+03  0.14617716064E+04  0.15092283367E+04  0.19200000000E+03 0.  0.
   -5000001    1    1    2    0    0 -0.17442338147E+03 -0.27148927619E+03  0.29213773428E+04  0.29454099074E+04  0.19200000000E+03 0.  0.
<mgrwt>
<rscale>  0 0.79486299E+03</rscale>
<asrwt>0</asrwt>
<pdfrwt beam="1">  1        2 0.63127071E+00 0.79486299E+03</pdfrwt>
<pdfrwt beam="2">  1       -2 0.51063766E-02 0.79486299E+03</pdfrwt>
<totfact> 0.61812167E+01</totfact>
</mgrwt>
</event>
<event>
 4    1  0.5621415E-005  0.6454940E+03  0.7818608E-02  0.9815271E-01
         -2   -1    0    0    0  501 -0.00000000000E+00  0.00000000000E+00  0.55114360438E+02  0.55114360497E+02  0.25500000000E-02 0. -1.
          2   -1    0    0  501    0  0.00000000000E+00 -0.00000000000E+00 -0.18899905679E+04  0.18899905679E+04  0.25500000000E-02 0.  1.
    5000001    1    1    2    0    0  0.22473543211E+03 -0.99504038342E+02 -0.11676476654E+04  0.12085826983E+04  0.19200000000E+03 0.  0.
   -5000001    1    1    2    0    0 -0.22473543211E+03  0.99504038342E+02 -0.66722854197E+03  0.73652223002E+03  0.19200000000E+03 0.  0.
<mgrwt>
<rscale>  0 0.64549399E+03</rscale>
<asrwt>0</asrwt>
<pdfrwt beam="1">  1        2 0.26999861E+00 0.64549399E+03</pdfrwt>
<pdfrwt beam="2">  1       -2 0.78734812E-02 0.64549399E+03</pdfrwt>
<totfact> 0.94392256E+02</totfact>
</mgrwt>
</event>
<event>
 4    1  0.5621415E-005  0.7182669E+03  0.7818608E-02  0.9686493E-01
          2   -1    0    0  501    0  0.00000000000E+00  0.00000000000E+00  0.11271356460E+03  0.11271356463E+03  0.25500000000E-02 0.  1.
         -2   -1    0    0    0  501 -0.00000000000E+00 -0.00000000000E+00 -0.11442885196E+04  0.11442885196E+04  0.25500000000E-02 0. -1.
    5000001    1    1    2    0    0 -0.24691250644E+01  0.29991695739E+03 -0.43451735373E+03  0.56180566800E+03  0.19200000000E+03 0.  0.
   -5000001    1    1    2    0    0  0.24691250644E+01 -0.29991695739E+03 -0.59705760132E+03  0.69519641628E+03  0.19200000000E+03 0.  0.
<mgrwt>
<rscale>  0 0.71826691E+03</rscale>
<asrwt>0</asrwt>
<pdfrwt beam="1">  1        2 0.16101938E-01 0.71826691E+03</pdfrwt>
<pdfrwt beam="2">  1       -2 0.16346978E+00 0.71826691E+03</pdfrwt>
<totfact> 0.88628482E+01</totfact>
</mgrwt>
</event>
<event>
 4    1  0.5621415E-005  0.5729943E+03  0.7818608E-02  0.9963075E-01
         -2   -1    0    0    0  501 -0.00000000000E+00  0.00000000000E+00  0.33053993963E+03  0.33053993964E+03  0.25500000000E-02 0. -1.
          2   -1    0    0  501    0  0.00000000000E+00 -0.00000000000E+00 -0.24832282540E+03  0.24832282541E+03  0.25500000000E-02 0.  1.
    5000001    1    1    2    0    0  0.49100474849E+01 -0.21201397727E+03  0.25374172011E+02  0.28719659422E+03  0.19200000000E+03 0.  0.
   -5000001    1    1    2    0    0 -0.49100474849E+01  0.21201397727E+03  0.56842942219E+02  0.29166617083E+03  0.19200000000E+03 0.  0.
<mgrwt>
<rscale>  0 0.57299428E+03</rscale>
<asrwt>0</asrwt>
<pdfrwt beam="1">  1        2 0.35474689E-01 0.57299428E+03</pdfrwt>
<pdfrwt beam="2">  1       -2 0.47219991E-01 0.57299428E+03</pdfrwt>
<totfact> 0.63032733E+02</totfact>
</mgrwt>
</event>
<event>
 4    1  0.5621415E-005  0.5005334E+03  0.7818608E-02  0.1013640E+00
         -2   -1    0    0    0  501 -0.00000000000E+00  0.00000000000E+00  0.44179644820E+02  0.44179644894E+02  0.25500000000E-02 0. -1.
          2   -1    0    0  501    0  0.00000000000E+00 -0.00000000000E+00 -0.14176985281E+04  0.14176985281E+04  0.25500000000E-02 0.  1.
    5000001    1    1    2    0    0 -0.11172274191E+03  0.11414053164E+02 -0.35174825767E+03  0.41617675144E+03  0.19200000000E+03 0.  0.
   -5000001    1    1    2    0    0  0.11172274191E+03 -0.11414053164E+02 -0.10217706256E+04  0.10457014215E+04  0.19200000000E+03 0.  0.
<mgrwt>
<rscale>  0 0.50053339E+03</rscale>
<asrwt>0</asrwt>
<pdfrwt beam="1">  1        2 0.20252833E+00 0.50053339E+03</pdfrwt>
<pdfrwt beam="2">  1       -2 0.63113788E-02 0.50053339E+03</pdfrwt>
<totfact> 0.23474609E+03</totfact>
</mgrwt>
</event>
<event>
 4    1  0.5621415E-005  0.4526891E+03  0.7818608E-02  0.1026923E+00
          2   -1    0    0  501    0  0.00000000000E+00  0.00000000000E+00  0.22069352832E+04  0.22069352832E+04  0.25500000000E-02 0. -1.
         -2   -1    0    0    0  501 -0.00000000000E+00 -0.00000000000E+00 -0.23214021965E+02  0.23214022105E+02  0.25500000000E-02 0.  1.
    5000001    1    1    2    0    0  0.95674647354E+02  0.59905689010E+02  0.89323770134E+03  0.92058672640E+03  0.19200000000E+03 0.  0.
   -5000001    1    1    2    0    0 -0.95674647354E+02 -0.59905689010E+02  0.12904835599E+04  0.13095625789E+04  0.19200000000E+03 0.  0.
<mgrwt>
<rscale>  0 0.45268905E+03</rscale>
<asrwt>0</asrwt>
<pdfrwt beam="1">  1        2 0.31527655E+00 0.45268905E+03</pdfrwt>
<pdfrwt beam="2">  1       -2 0.33162880E-02 0.45268905E+03</pdfrwt>
<totfact> 0.25286837E+03</totfact>
</mgrwt>
</event>
<event>
 4    1  0.5621415E-005  0.1027062E+04  0.7818608E-02  0.9279352E-01
          2   -1    0    0  501    0  0.00000000000E+00  0.00000000000E+00  0.76373502322E+03  0.76373502322E+03  0.25500000000E-02 0.  1.
         -2   -1    0    0    0  501 -0.00000000000E+00 -0.00000000000E+00 -0.34529534320E+03  0.34529534321E+03  0.25500000000E-02 0. -1.
    5000001    1    1    2    0    0 -0.26713020791E+03 -0.39343324415E+03  0.18061242668E+03  0.54372154109E+03  0.19200000000E+03 0.  0.
   -5000001    1    1    2    0    0  0.26713020791E+03  0.39343324415E+03  0.23782725334E+03  0.56530882534E+03  0.19200000000E+03 0.  0.
<mgrwt>
<rscale>  0 0.10270621E+04</rscale>
<asrwt>0</asrwt>
<pdfrwt beam="1">  1        2 0.10910500E+00 0.10270621E+04</pdfrwt>
<pdfrwt beam="2">  1       -2 0.49327906E-01 0.10270621E+04</pdfrwt>
<totfact> 0.15642050E+02</totfact>
</mgrwt>
</event>
<event>
 4    1  0.5621415E-005  0.5698094E+03  0.7818608E-02  0.9970100E-01
          2   -1    0    0  501    0  0.00000000000E+00  0.00000000000E+00  0.13612141029E+03  0.13612141031E+03  0.25500000000E-02 0.  1.
         -2   -1    0    0    0  501 -0.00000000000E+00 -0.00000000000E+00 -0.59631096837E+03  0.59631096837E+03  0.25500000000E-02 0. -1.
    5000001    1    1    2    0    0  0.19469400628E+03  0.73895194809E+02 -0.19067609661E+03  0.34144930768E+03  0.19200000000E+03 0.  0.
   -5000001    1    1    2    0    0 -0.19469400628E+03 -0.73895194809E+02 -0.26951346147E+03  0.39098307100E+03  0.19200000000E+03 0.  0.
<mgrwt>
<rscale>  0 0.56980941E+03</rscale>
<asrwt>0</asrwt>
<pdfrwt beam="1">  1        2 0.19445916E-01 0.56980941E+03</pdfrwt>
<pdfrwt beam="2">  1       -2 0.85187280E-01 0.56980941E+03</pdfrwt>
<totfact> 0.35581714E+02</totfact>
</mgrwt>
</event>
<event>
 4    1  0.5621415E-005  0.5640163E+03  0.7818608E-02  0.9983008E-01
         -2   -1    0    0    0  501 -0.00000000000E+00  0.00000000000E+00  0.21844948847E+02  0.21844948996E+02  0.25500000000E-02 0.  1.
          2   -1    0    0  501    0  0.00000000000E+00 -0.00000000000E+00 -0.36405944824E+04  0.36405944824E+04  0.25500000000E-02 0. -1.
    5000001    1    1    2    0    0  0.42248738403E+02 -0.20218441861E+03 -0.18025473626E+04  0.18244737568E+04  0.19200000000E+03 0.  0.
   -5000001    1    1    2    0    0 -0.42248738403E+02  0.20218441861E+03 -0.18162021710E+04  0.18379656745E+04  0.19200000000E+03 0.  0.
<mgrwt>
<rscale>  0 0.56401631E+03</rscale>
<asrwt>0</asrwt>
<pdfrwt beam="1">  1        2 0.52008454E+00 0.56401631E+03</pdfrwt>
<pdfrwt beam="2">  1       -2 0.31207093E-02 0.56401631E+03</pdfrwt>
<totfact> 0.45928456E+02</totfact>
</mgrwt>
</event>
<event>
 4    1  0.5621415E-005  0.4886288E+03  0.7818608E-02  0.1016790E+00
         -2   -1    0    0    0  501 -0.00000000000E+00  0.00000000000E+00  0.23175098658E+03  0.23175098659E+03  0.25500000000E-02 0. -1.
          2   -1    0    0  501    0  0.00000000000E+00 -0.00000000000E+00 -0.25755888760E+03  0.25755888761E+03  0.25500000000E-02 0.  1.
    5000001    1    1    2    0    0  0.68666379363E+02 -0.74728330390E+02  0.99172249527E+02  0.23874364933E+03  0.19200000000E+03 0.  0.
   -5000001    1    1    2    0    0 -0.68666379363E+02  0.74728330390E+02 -0.12498015054E+03  0.25056622487E+03  0.19200000000E+03 0.  0.
<mgrwt>
<rscale>  0 0.48862880E+03</rscale>
<asrwt>0</asrwt>
<pdfrwt beam="1">  1        2 0.36794127E-01 0.48862880E+03</pdfrwt>
<pdfrwt beam="2">  1       -2 0.33107284E-01 0.48862880E+03</pdfrwt>
<totfact> 0.12030550E+03</totfact>
</mgrwt>
</event>
<event>
 4    1  0.5621415E-005  0.8027156E+03  0.7818608E-02  0.9556095E-01
          2   -1    0    0  501    0  0.00000000000E+00  0.00000000000E+00  0.21192323491E+04  0.21192323491E+04  0.25500000000E-02 0.  1.
         -2   -1    0    0    0  501 -0.00000000000E+00 -0.00000000000E+00 -0.76012464678E+02  0.76012464721E+02  0.25500000000E-02 0. -1.
    5000001    1    1    2    0    0 -0.36396435799E+02 -0.30435569115E+03  0.54583029105E+03  0.65479141252E+03  0.19200000000E+03 0.  0.
   -5000001    1    1    2    0    0  0.36396435799E+02  0.30435569115E+03  0.14973895934E+04  0.15404534013E+04  0.19200000000E+03 0.  0.
<mgrwt>
<rscale>  0 0.80271558E+03</rscale>
<asrwt>0</asrwt>
<pdfrwt beam="1">  1        2 0.30274742E+00 0.80271558E+03</pdfrwt>
<pdfrwt beam="2">  1       -2 0.10858926E-01 0.80271558E+03</pdfrwt>
<totfact> 0.42566450E+02</totfact>
</mgrwt>
</event>
<event>
 4    1  0.5621415E-005  0.1016391E+04  0.7818608E-02  0.9290748E-01
         -2   -1    0    0    0  501 -0.00000000000E+00  0.00000000000E+00  0.12181053595E+03  0.12181053598E+03  0.25500000000E-02 0. -1.
          2   -1    0    0  501    0  0.00000000000E+00 -0.00000000000E+00 -0.21201989286E+04  0.21201989286E+04  0.25500000000E-02 0.  1.
    5000001    1    1    2    0    0  0.42260084121E+03  0.20529882696E+03 -0.10558416417E+04  0.11714967570E+04  0.19200000000E+03 0.  0.
   -5000001    1    1    2    0    0 -0.42260084121E+03 -0.20529882696E+03 -0.94254675096E+03  0.10705127076E+04  0.19200000000E+03 0.  0.
<mgrwt>
<rscale>  0 0.10163908E+04</rscale>
<asrwt>0</asrwt>
<pdfrwt beam="1">  1        2 0.30288554E+00 0.10163908E+04</pdfrwt>
<pdfrwt beam="2">  1       -2 0.17401506E-01 0.10163908E+04</pdfrwt>
<totfact> 0.18956556E+02</totfact>
</mgrwt>
</event>
<event>
 4    1  0.5621415E-005  0.4556718E+03  0.7818608E-02  0.1026044E+00
         -2   -1    0    0    0  501 -0.00000000000E+00  0.00000000000E+00  0.31401219497E+02  0.31401219601E+02  0.25500000000E-02 0. -1.
          2   -1    0    0  501    0  0.00000000000E+00 -0.00000000000E+00 -0.16530948440E+04  0.16530948440E+04  0.25500000000E-02 0.  1.
    5000001    1    1    2    0    0  0.85691506227E+02  0.27807987818E+02 -0.11185622231E+04  0.11384910036E+04  0.19200000000E+03 0.  0.
   -5000001    1    1    2    0    0 -0.85691506227E+02 -0.27807987818E+02 -0.50313140141E+03  0.54600505997E+03  0.19200000000E+03 0.  0.
<mgrwt>
<rscale>  0 0.45567179E+03</rscale>
<asrwt>0</asrwt>
<pdfrwt beam="1">  1        2 0.23615635E+00 0.45567179E+03</pdfrwt>
<pdfrwt beam="2">  1       -2 0.44858895E-02 0.45567179E+03</pdfrwt>
<totfact> 0.30154171E+03</totfact>
</mgrwt>
</event>
<event>
 4    1  0.5621415E-005  0.6199628E+03  0.7818608E-02  0.9864834E-01
          2   -1    0    0  501    0  0.00000000000E+00  0.00000000000E+00  0.11242593445E+04  0.11242593445E+04  0.25500000000E-02 0.  1.
         -2   -1    0    0    0  501 -0.00000000000E+00 -0.00000000000E+00 -0.85468238524E+02  0.85468238562E+02  0.25500000000E-02 0. -1.
    5000001    1    1    2    0    0  0.21155069553E+02  0.13851665558E+03  0.90764877199E+03  0.93825619856E+03  0.19200000000E+03 0.  0.
   -5000001    1    1    2    0    0 -0.21155069553E+02 -0.13851665558E+03  0.13114233398E+03  0.27147138450E+03  0.19200000000E+03 0.  0.
<mgrwt>
<rscale>  0 0.61996279E+03</rscale>
<asrwt>0</asrwt>
<pdfrwt beam="1">  1        2 0.16060847E+00 0.61996279E+03</pdfrwt>
<pdfrwt beam="2">  1       -2 0.12209749E-01 0.61996279E+03</pdfrwt>
<totfact> 0.11768401E+03</totfact>
</mgrwt>
</event>
<event>
 4    1  0.5621415E-005  0.6298650E+03  0.7818608E-02  0.9845312E-01
         -2   -1    0    0    0  501 -0.00000000000E+00  0.00000000000E+00  0.15767753242E+03  0.15767753244E+03  0.25500000000E-02 0. -1.
          2   -1    0    0  501    0  0.00000000000E+00 -0.00000000000E+00 -0.62902108188E+03  0.62902108188E+03  0.25500000000E-02 0.  1.
    5000001    1    1    2    0    0  0.38057952163E+02 -0.13950220421E+02  0.71985703784E+02  0.20901903722E+03  0.19200000000E+03 0.  0.
   -5000001    1    1    2    0    0 -0.38057952163E+02  0.13950220421E+02 -0.54332925324E+03  0.57767957710E+03  0.19200000000E+03 0.  0.
<mgrwt>
<rscale>  0 0.62986504E+03</rscale>
<asrwt>0</asrwt>
<pdfrwt beam="1">  1        2 0.89860153E-01 0.62986504E+03</pdfrwt>
<pdfrwt beam="2">  1       -2 0.22525362E-01 0.62986504E+03</pdfrwt>
<totfact> 0.88896806E+02</totfact>
</mgrwt>
</event>
<event>
 4    1  0.5621415E-005  0.6889199E+03  0.7818608E-02  0.9736371E-01
          2   -1    0    0  501    0  0.00000000000E+00  0.00000000000E+00  0.78578255775E+03  0.78578255775E+03  0.25500000000E-02 0.  1.
         -2   -1    0    0    0  501 -0.00000000000E+00 -0.00000000000E+00 -0.15099935118E+03  0.15099935120E+03  0.25500000000E-02 0. -1.
    5000001    1    1    2    0    0  0.17036798341E+03  0.12739873533E+03  0.57488030295E+02  0.29227480419E+03  0.19200000000E+03 0.  0.
   -5000001    1    1    2    0    0 -0.17036798341E+03 -0.12739873533E+03  0.57729517628E+03  0.64450710476E+03  0.19200000000E+03 0.  0.
<mgrwt>
<rscale>  0 0.68891990E+03</rscale>
<asrwt>0</asrwt>
<pdfrwt beam="1">  1        2 0.11225465E+00 0.68891990E+03</pdfrwt>
<pdfrwt beam="2">  1       -2 0.21571336E-01 0.68891990E+03</pdfrwt>
<totfact> 0.72880120E+02</totfact>
</mgrwt>
</event>
<event>
 4    1  0.5621415E-005  0.7182321E+03  0.7818608E-02  0.9686551E-01
         -2   -1    0    0    0  501 -0.00000000000E+00  0.00000000000E+00  0.80319194476E+02  0.80319194517E+02  0.25500000000E-02 0. -1.
          2   -1    0    0  501    0  0.00000000000E+00 -0.00000000000E+00 -0.16056478491E+04  0.16056478491E+04  0.25500000000E-02 0.  1.
    5000001    1    1    2    0    0  0.24009012613E+03 -0.84606145412E+02 -0.37482073179E+03  0.49209353733E+03  0.19200000000E+03 0.  0.
   -5000001    1    1    2    0    0 -0.24009012613E+03  0.84606145412E+02 -0.11505079228E+04  0.11938735063E+04  0.19200000000E+03 0.  0.
<mgrwt>
<rscale>  0 0.71823211E+03</rscale>
<asrwt>0</asrwt>
<pdfrwt beam="1">  1        2 0.22937824E+00 0.71823211E+03</pdfrwt>
<pdfrwt beam="2">  1       -2 0.11474172E-01 0.71823211E+03</pdfrwt>
<totfact> 0.71347178E+02</totfact>
</mgrwt>
</event>
<event>
 4    1  0.5621415E-005  0.5734039E+03  0.7818608E-02  0.9962174E-01
          2   -1    0    0  501    0  0.00000000000E+00  0.00000000000E+00  0.58483922565E+03  0.58483922566E+03  0.25500000000E-02 0.  1.
         -2   -1    0    0    0  501 -0.00000000000E+00 -0.00000000000E+00 -0.14054803910E+03  0.14054803912E+03  0.25500000000E-02 0. -1.
    5000001    1    1    2    0    0  0.27675371584E+02  0.20740856011E+03  0.27194713925E+03  0.39319649483E+03  0.19200000000E+03 0.  0.
   -5000001    1    1    2    0    0 -0.27675371584E+02 -0.20740856011E+03  0.17234404731E+03  0.33219076995E+03  0.19200000000E+03 0.  0.
<mgrwt>
<rscale>  0 0.57340389E+03</rscale>
<asrwt>0</asrwt>
<pdfrwt beam="1">  1        2 0.83548460E-01 0.57340389E+03</pdfrwt>
<pdfrwt beam="2">  1       -2 0.20078291E-01 0.57340389E+03</pdfrwt>
<totfact> 0.11863610E+03</totfact>
</mgrwt>
</event>
<event>
 4    1  0.5621415E-005  0.8679393E+03  0.7818608E-02  0.9466571E-01
          2   -1    0    0  501    0  0.00000000000E+00  0.00000000000E+00  0.83684483475E+03  0.83684483475E+03  0.25500000000E-02 0.  1.
         -2   -1    0    0    0  501 -0.00000000000E+00 -0.00000000000E+00 -0.22504727993E+03  0.22504727994E+03  0.25500000000E-02 0. -1.
    5000001    1    1    2    0    0  0.35267129809E+03  0.16018960513E+02  0.50630794612E+03  0.64640961309E+03  0.19200000000E+03 0.  0.
   -5000001    1    1    2    0    0 -0.35267129809E+03 -0.16018960513E+02  0.10548960870E+03  0.41548250160E+03  0.19200000000E+03 0.  0.
<mgrwt>
<rscale>  0 0.86793929E+03</rscale>
<asrwt>0</asrwt>
<pdfrwt beam="1">  1        2 0.11954926E+00 0.86793929E+03</pdfrwt>
<pdfrwt beam="2">  1       -2 0.32149611E-01 0.86793929E+03</pdfrwt>
<totfact> 0.32305696E+02</totfact>
</mgrwt>
</event>
<event>
 4    1  0.5621415E-005  0.6223815E+03  0.7818608E-02  0.9860030E-01
         -2   -1    0    0    0  501 -0.00000000000E+00  0.00000000000E+00  0.38186767111E+02  0.38186767196E+02  0.25500000000E-02 0. -1.
          2   -1    0    0  501    0  0.00000000000E+00 -0.00000000000E+00 -0.25359488675E+04  0.25359488675E+04  0.25500000000E-02 0.  1.
    5000001    1    1    2    0    0  0.92672379012E+02 -0.20320395269E+03 -0.16644493097E+04  0.16903063393E+04  0.19200000000E+03 0.  0.
   -5000001    1    1    2    0    0 -0.92672379012E+02  0.20320395269E+03 -0.83331279071E+03  0.88382929538E+03  0.19200000000E+03 0.  0.
<mgrwt>
<rscale>  0 0.62238152E+03</rscale>
<asrwt>0</asrwt>
<pdfrwt beam="1">  1        2 0.36227830E+00 0.62238152E+03</pdfrwt>
<pdfrwt beam="2">  1       -2 0.54552541E-02 0.62238152E+03</pdfrwt>
<totfact> 0.79346261E+02</totfact>
</mgrwt>
</event>
<event>
 4    1  0.5621415E-005  0.8963930E+03  0.7818608E-02  0.9430102E-01
         -2   -1    0    0    0  501 -0.00000000000E+00  0.00000000000E+00  0.11006092052E+03  0.11006092055E+03  0.25500000000E-02 0. -1.
          2   -1    0    0  501    0  0.00000000000E+00 -0.00000000000E+00 -0.18251719329E+04  0.18251719329E+04  0.25500000000E-02 0.  1.
    5000001    1    1    2    0    0  0.36205978059E+03 -0.21502228061E+02 -0.12465579449E+04  0.13123720283E+04  0.19200000000E+03 0.  0.
   -5000001    1    1    2    0    0 -0.36205978059E+03  0.21502228061E+02 -0.46855306745E+03  0.62286082519E+03  0.19200000000E+03 0.  0.
<mgrwt>
<rscale>  0 0.89639300E+03</rscale>
<asrwt>0</asrwt>
<pdfrwt beam="1">  1        2 0.26073883E+00 0.89639300E+03</pdfrwt>
<pdfrwt beam="2">  1       -2 0.15722990E-01 0.89639300E+03</pdfrwt>
<totfact> 0.32158607E+02</totfact>
</mgrwt>
</event>
<event>
 4    1  0.5621415E-005  0.7202391E+03  0.7818608E-02  0.9683233E-01
         -2   -1    0    0    0  501 -0.00000000000E+00  0.00000000000E+00  0.17246125108E+03  0.17246125110E+03  0.25500000000E-02 0.  1.
          2   -1    0    0  501    0  0.00000000000E+00 -0.00000000000E+00 -0.75197236315E+03  0.75197236315E+03  0.25500000000E-02 0. -1.
    5000001    1    1    2    0    0 -0.13884238699E+03  0.27106676874E+03 -0.27919538625E+03  0.45559682312E+03  0.19200000000E+03 0.  0.
   -5000001    1    1    2    0    0  0.13884238699E+03 -0.27106676874E+03 -0.30031572582E+03  0.46883679113E+03  0.19200000000E+03 0.  0.
<mgrwt>
<rscale>  0 0.72023911E+03</rscale>
<asrwt>0</asrwt>
<pdfrwt beam="1">  1        2 0.10742462E+00 0.72023911E+03</pdfrwt>
<pdfrwt beam="2">  1       -2 0.24637322E-01 0.72023911E+03</pdfrwt>
<totfact> 0.60767201E+02</totfact>
</mgrwt>
</event>
<event>
 4    1  0.5621415E-005  0.5048100E+03  0.7818608E-02  0.1012531E+00
         -2   -1    0    0    0  501 -0.00000000000E+00  0.00000000000E+00  0.37464111670E+02  0.37464111756E+02  0.25500000000E-02 0. -1.
          2   -1    0    0  501    0  0.00000000000E+00 -0.00000000000E+00 -0.17005152082E+04  0.17005152082E+04  0.25500000000E-02 0.  1.
    5000001    1    1    2    0    0 -0.14419286630E+02  0.14768324536E+03 -0.10706983880E+04  0.10978512171E+04  0.19200000000E+03 0.  0.
   -5000001    1    1    2    0    0  0.14419286630E+02 -0.14768324536E+03 -0.59235270853E+03  0.64012810287E+03  0.19200000000E+03 0.  0.
<mgrwt>
<rscale>  0 0.50481003E+03</rscale>
<asrwt>0</asrwt>
<pdfrwt beam="1">  1        2 0.24293069E+00 0.50481003E+03</pdfrwt>
<pdfrwt beam="2">  1       -2 0.53520170E-02 0.50481003E+03</pdfrwt>
<totfact> 0.21710498E+03</totfact>
</mgrwt>
</event>
<event>
 4    1  0.5621415E-005  0.7670810E+03  0.7818608E-02  0.9608928E-01
         -2   -1    0    0    0  501 -0.00000000000E+00  0.00000000000E+00  0.16447420082E+03  0.16447420084E+03  0.25500000000E-02 0. -1.
          2   -1    0    0  501    0  0.00000000000E+00 -0.00000000000E+00 -0.89438538238E+03  0.89438538238E+03  0.25500000000E-02 0.  1.
    5000001    1    1    2    0    0 -0.14130632167E+03 -0.25218334184E+03 -0.13950433395E+03  0.37401787877E+03  0.19200000000E+03 0.  0.
   -5000001    1    1    2    0    0  0.14130632167E+03  0.25218334184E+03 -0.59040684761E+03  0.68484170445E+03  0.19200000000E+03 0.  0.
<mgrwt>
<rscale>  0 0.76708102E+03</rscale>
<asrwt>0</asrwt>
<pdfrwt beam="1">  1        2 0.12776934E+00 0.76708102E+03</pdfrwt>
<pdfrwt beam="2">  1       -2 0.23496315E-01 0.76708102E+03</pdfrwt>
<totfact> 0.52726843E+02</totfact>
</mgrwt>
</event>
<event>
 4    1  0.5621415E-005  0.5430115E+03  0.7818608E-02  0.1003125E+00
          2   -1    0    0  501    0  0.00000000000E+00  0.00000000000E+00  0.17766615171E+04  0.17766615171E+04  0.25500000000E-02 0.  1.
         -2   -1    0    0    0  501 -0.00000000000E+00 -0.00000000000E+00 -0.41490944716E+02  0.41490944794E+02  0.25500000000E-02 0. -1.
    5000001    1    1    2    0    0  0.49078530609E+02 -0.17255951859E+03  0.10962967079E+04  0.11273490859E+04  0.19200000000E+03 0.  0.
   -5000001    1    1    2    0    0 -0.49078530609E+02  0.17255951859E+03  0.63887386441E+03  0.69080337597E+03  0.19200000000E+03 0.  0.
<mgrwt>
<rscale>  0 0.54301147E+03</rscale>
<asrwt>0</asrwt>
<pdfrwt beam="1">  1        2 0.25380875E+00 0.54301147E+03</pdfrwt>
<pdfrwt beam="2">  1       -2 0.59272788E-02 0.54301147E+03</pdfrwt>
<totfact> 0.16931686E+03</totfact>
</mgrwt>
</event>
<event>
 4    1  0.5621415E-005  0.4998245E+03  0.7818608E-02  0.1013825E+00
          2   -1    0    0  501    0  0.00000000000E+00  0.00000000000E+00  0.98509093348E+03  0.98509093349E+03  0.25500000000E-02 0.  1.
         -2   -1    0    0    0  501 -0.00000000000E+00 -0.00000000000E+00 -0.63401381727E+02  0.63401381778E+02  0.25500000000E-02 0. -1.
    5000001    1    1    2    0    0 -0.13235000970E+03  0.19387157864E+02  0.64491593469E+03  0.68605608355E+03  0.19200000000E+03 0.  0.
   -5000001    1    1    2    0    0  0.13235000970E+03 -0.19387157864E+02  0.27677361707E+03  0.36243623172E+03  0.19200000000E+03 0.  0.
<mgrwt>
<rscale>  0 0.49982447E+03</rscale>
<asrwt>0</asrwt>
<pdfrwt beam="1">  1        2 0.14072727E+00 0.49982447E+03</pdfrwt>
<pdfrwt beam="2">  1       -2 0.90573408E-02 0.49982447E+03</pdfrwt>
<totfact> 0.23160927E+03</totfact>
</mgrwt>
</event>
<event>
 4    1  0.5621415E-005  0.5393980E+03  0.7818608E-02  0.1003978E+00
          2   -1    0    0  501    0  0.00000000000E+00  0.00000000000E+00  0.31220615304E+04  0.31220615304E+04  0.25500000000E-02 0.  1.
         -2   -1    0    0    0  501 -0.00000000000E+00 -0.00000000000E+00 -0.23297922694E+02  0.23297922833E+02  0.25500000000E-02 0. -1.
    5000001    1    1    2    0    0  0.12372257880E+03 -0.90191386930E+02  0.21995529841E+04  0.22132191696E+04  0.19200000000E+03 0.  0.
   -5000001    1    1    2    0    0 -0.12372257880E+03  0.90191386930E+02  0.89921062354E+03  0.93214028358E+03  0.19200000000E+03 0.  0.
<mgrwt>
<rscale>  0 0.53939799E+03</rscale>
<asrwt>0</asrwt>
<pdfrwt beam="1">  1        2 0.44600866E+00 0.53939799E+03</pdfrwt>
<pdfrwt beam="2">  1       -2 0.33282757E-02 0.53939799E+03</pdfrwt>
<totfact> 0.83432321E+02</totfact>
</mgrwt>
</event>
<event>
 4    1  0.5621415E-005  0.5014502E+03  0.7818608E-02  0.1013401E+00
         -2   -1    0    0    0  501 -0.00000000000E+00  0.00000000000E+00  0.26991288401E+02  0.26991288521E+02  0.25500000000E-02 0. -1.
          2   -1    0    0  501    0  0.00000000000E+00 -0.00000000000E+00 -0.23290134072E+04  0.23290134072E+04  0.25500000000E-02 0.  1.
    5000001    1    1    2    0    0  0.12147051403E+03 -0.10009216940E+03 -0.13154909866E+04  0.13387135855E+04  0.19200000000E+03 0.  0.
   -5000001    1    1    2    0    0 -0.12147051403E+03  0.10009216940E+03 -0.98653113216E+03  0.10172911102E+04  0.19200000000E+03 0.  0.
<mgrwt>
<rscale>  0 0.50145019E+03</rscale>
<asrwt>0</asrwt>
<pdfrwt beam="1">  1        2 0.33271607E+00 0.50145019E+03</pdfrwt>
<pdfrwt beam="2">  1       -2 0.38558998E-02 0.50145019E+03</pdfrwt>
<totfact> 0.17418732E+03</totfact>
</mgrwt>
</event>
<event>
 4    1  0.5621415E-005  0.5623187E+03  0.7818608E-02  0.9986822E-01
          2   -1    0    0  501    0  0.00000000000E+00  0.00000000000E+00  0.84052223898E+03  0.84052223898E+03  0.25500000000E-02 0.  1.
         -2   -1    0    0    0  501 -0.00000000000E+00 -0.00000000000E+00 -0.94049370822E+02  0.94049370856E+02  0.25500000000E-02 0. -1.
    5000001    1    1    2    0    0  0.10298625562E+03  0.15909306990E+02  0.79071020835E+02  0.23232628183E+03  0.19200000000E+03 0.  0.
   -5000001    1    1    2    0    0 -0.10298625562E+03 -0.15909306990E+02  0.66740184732E+03  0.70224532800E+03  0.19200000000E+03 0.  0.
<mgrwt>
<rscale>  0 0.56231873E+03</rscale>
<asrwt>0</asrwt>
<pdfrwt beam="1">  1        2 0.12007461E+00 0.56231873E+03</pdfrwt>
<pdfrwt beam="2">  1       -2 0.13435624E-01 0.56231873E+03</pdfrwt>
<totfact> 0.15054528E+03</totfact>
</mgrwt>
</event>
<event>
 4    1  0.5621415E-005  0.5965000E+03  0.7818608E-02  0.9912694E-01
         -2   -1    0    0    0  501 -0.00000000000E+00  0.00000000000E+00  0.44998229524E+03  0.44998229525E+03  0.25500000000E-02 0. -1.
          2   -1    0    0  501    0  0.00000000000E+00 -0.00000000000E+00 -0.19768125536E+03  0.19768125538E+03  0.25500000000E-02 0.  1.
    5000001    1    1    2    0    0 -0.76133385651E+01 -0.21818358627E+03  0.19839338792E+03  0.35197439767E+03  0.19200000000E+03 0.  0.
   -5000001    1    1    2    0    0  0.76133385651E+01  0.21818358627E+03  0.53907651962E+02  0.29568915297E+03  0.19200000000E+03 0.  0.
<mgrwt>
<rscale>  0 0.59650001E+03</rscale>
<asrwt>0</asrwt>
<pdfrwt beam="1">  1        2 0.28240180E-01 0.59650001E+03</pdfrwt>
<pdfrwt beam="2">  1       -2 0.64283184E-01 0.59650001E+03</pdfrwt>
<totfact> 0.43003545E+02</totfact>
</mgrwt>
</event>
<event>
 4    1  0.5621415E-005  0.6391179E+03  0.7818608E-02  0.9827416E-01
          2   -1    0    0  501    0  0.00000000000E+00  0.00000000000E+00  0.16633010651E+04  0.16633010651E+04  0.25500000000E-02 0.  1.
         -2   -1    0    0    0  501 -0.00000000000E+00 -0.00000000000E+00 -0.61394723990E+02  0.61394724043E+02  0.25500000000E-02 0. -1.
    5000001    1    1    2    0    0 -0.52487187366E+02  0.23507236761E+03  0.57133807208E+03  0.64908020726E+03  0.19200000000E+03 0.  0.
   -5000001    1    1    2    0    0  0.52487187366E+02 -0.23507236761E+03  0.10305682690E+04  0.10756155819E+04  0.19200000000E+03 0.  0.
<mgrwt>
<rscale>  0 0.63911786E+03</rscale>
<asrwt>0</asrwt>
<pdfrwt beam="1">  1        2 0.23761441E+00 0.63911786E+03</pdfrwt>
<pdfrwt beam="2">  1       -2 0.87706759E-02 0.63911786E+03</pdfrwt>
<totfact> 0.10353011E+03</totfact>
</mgrwt>
</event>
<event>
 4    1  0.5621415E-005  0.5375912E+03  0.7818608E-02  0.1004408E+00
         -2   -1    0    0    0  501 -0.00000000000E+00  0.00000000000E+00  0.51743695040E+02  0.51743695102E+02  0.25500000000E-02 0. -1.
          2   -1    0    0  501    0  0.00000000000E+00 -0.00000000000E+00 -0.13963261681E+04  0.13963261681E+04  0.25500000000E-02 0.  1.
    5000001    1    1    2    0    0 -0.14692702488E+03 -0.98998221503E+02 -0.84262721227E+03  0.88219772010E+03  0.19200000000E+03 0.  0.
   -5000001    1    1    2    0    0  0.14692702488E+03  0.98998221503E+02 -0.50195526081E+03  0.56587214311E+03  0.19200000000E+03 0.  0.
<mgrwt>
<rscale>  0 0.53759120E+03</rscale>
<asrwt>0</asrwt>
<pdfrwt beam="1">  1        2 0.19947514E+00 0.53759120E+03</pdfrwt>
<pdfrwt beam="2">  1       -2 0.73919573E-02 0.53759120E+03</pdfrwt>
<totfact> 0.18775546E+03</totfact>
</mgrwt>
</event>
<event>
 4    1  0.5621415E-005  0.6347794E+03  0.7818608E-02  0.9835766E-01
          2   -1    0    0  501    0  0.00000000000E+00  0.00000000000E+00  0.13231521986E+03  0.13231521988E+03  0.25500000000E-02 0.  1.
         -2   -1    0    0    0  501 -0.00000000000E+00 -0.00000000000E+00 -0.76133508792E+03  0.76133508793E+03  0.25500000000E-02 0. -1.
    5000001    1    1    2    0    0  0.59681567005E+02 -0.24557348827E+03 -0.31169713528E+03  0.44484528965E+03  0.19200000000E+03 0.  0.
   -5000001    1    1    2    0    0 -0.59681567005E+02  0.24557348827E+03 -0.31732273278E+03  0.44880501816E+03  0.19200000000E+03 0.  0.
<mgrwt>
<rscale>  0 0.63477939E+03</rscale>
<asrwt>0</asrwt>
<pdfrwt beam="1">  1        2 0.18902175E-01 0.63477939E+03</pdfrwt>
<pdfrwt beam="2">  1       -2 0.10876215E+00 0.63477939E+03</pdfrwt>
<totfact> 0.20753635E+02</totfact>
</mgrwt>
</event>
<event>
 4    1  0.5621415E-005  0.5510837E+03  0.7818608E-02  0.1001243E+00
         -2   -1    0    0    0  501 -0.00000000000E+00  0.00000000000E+00  0.13781750208E+03  0.13781750211E+03  0.25500000000E-02 0. -1.
          2   -1    0    0  501    0  0.00000000000E+00 -0.00000000000E+00 -0.55089752612E+03  0.55089752612E+03  0.25500000000E-02 0.  1.
    5000001    1    1    2    0    0 -0.81585582702E+01 -0.18809938867E+03 -0.28164322077E+03  0.38940319194E+03  0.19200000000E+03 0.  0.
   -5000001    1    1    2    0    0  0.81585582702E+01  0.18809938867E+03 -0.13143680326E+03  0.29931183629E+03  0.19200000000E+03 0.  0.
<mgrwt>
<rscale>  0 0.55108374E+03</rscale>
<asrwt>0</asrwt>
<pdfrwt beam="1">  1        2 0.78699645E-01 0.55108374E+03</pdfrwt>
<pdfrwt beam="2">  1       -2 0.19688215E-01 0.55108374E+03</pdfrwt>
<totfact> 0.13159045E+03</totfact>
</mgrwt>
</event>
<event>
 4    1  0.5621415E-005  0.4702426E+03  0.7818608E-02  0.1021852E+00
          2   -1    0    0  501    0  0.00000000000E+00  0.00000000000E+00  0.19838863484E+04  0.19838863484E+04  0.25500000000E-02 0.  1.
         -2   -1    0    0    0  501 -0.00000000000E+00 -0.00000000000E+00 -0.27865524662E+02  0.27865524778E+02  0.25500000000E-02 0. -1.
    5000001    1    1    2    0    0 -0.10797780208E+02  0.13300930734E+03  0.10836691191E+04  0.11086076075E+04  0.19200000000E+03 0.  0.
   -5000001    1    1    2    0    0  0.10797780208E+02 -0.13300930734E+03  0.87235170465E+03  0.90314426561E+03  0.19200000000E+03 0.  0.
<mgrwt>
<rscale>  0 0.47024264E+03</rscale>
<asrwt>0</asrwt>
<pdfrwt beam="1">  1        2 0.28341233E+00 0.47024264E+03</pdfrwt>
<pdfrwt beam="2">  1       -2 0.39807893E-02 0.47024264E+03</pdfrwt>
<totfact> 0.24719015E+03</totfact>
</mgrwt>
</event>
<event>
 4    1  0.5621415E-005  0.6438038E+03  0.7818608E-02  0.9818476E-01
         -2   -1    0    0    0  501 -0.00000000000E+00  0.00000000000E+00  0.71938292111E+02  0.71938292156E+02  0.25500000000E-02 0. -1.
          2   -1    0    0  501    0  0.00000000000E+00 -0.00000000000E+00 -0.14404126012E+04  0.14404126012E+04  0.25500000000E-02 0.  1.
    5000001    1    1    2    0    0  0.10386568707E+03 -0.18378102622E+03 -0.10341901865E+04  0.10728359093E+04  0.19200000000E+03 0.  0.
   -5000001    1    1    2    0    0 -0.10386568707E+03  0.18378102622E+03 -0.33428412259E+03  0.43951498400E+03  0.19200000000E+03 0.  0.
<mgrwt>
<rscale>  0 0.64380377E+03</rscale>
<asrwt>0</asrwt>
<pdfrwt beam="1">  1        2 0.20577321E+00 0.64380377E+03</pdfrwt>
<pdfrwt beam="2">  1       -2 0.10276900E-01 0.64380377E+03</pdfrwt>
<totfact> 0.10455897E+03</totfact>
</mgrwt>
</event>
<event>
 4    1  0.5621415E-005  0.6871928E+03  0.7818608E-02  0.9739388E-01
         -2   -1    0    0    0  501 -0.00000000000E+00  0.00000000000E+00  0.39377440739E+02  0.39377440822E+02  0.25500000000E-02 0. -1.
          2   -1    0    0  501    0  0.00000000000E+00 -0.00000000000E+00 -0.29981249386E+04  0.29981249386E+04  0.25500000000E-02 0.  1.
    5000001    1    1    2    0    0  0.17658475232E+03  0.20835778808E+03 -0.18384514435E+04  0.18685188928E+04  0.19200000000E+03 0.  0.
   -5000001    1    1    2    0    0 -0.17658475232E+03 -0.20835778808E+03 -0.11202960544E+04  0.11689834866E+04  0.19200000000E+03 0.  0.
<mgrwt>
<rscale>  0 0.68719280E+03</rscale>
<asrwt>0</asrwt>
<pdfrwt beam="1">  1        2 0.42830342E+00 0.68719280E+03</pdfrwt>
<pdfrwt beam="2">  1       -2 0.56253506E-02 0.68719280E+03</pdfrwt>
<totfact> 0.42812024E+02</totfact>
</mgrwt>
</event>
<event>
 4    1  0.5621415E-005  0.6795907E+03  0.7818608E-02  0.9752786E-01
         -2   -1    0    0    0  501 -0.00000000000E+00  0.00000000000E+00  0.13030936805E+03  0.13030936808E+03  0.25500000000E-02 0.  1.
          2   -1    0    0  501    0  0.00000000000E+00 -0.00000000000E+00 -0.88605199202E+03  0.88605199202E+03  0.25500000000E-02 0. -1.
    5000001    1    1    2    0    0 -0.25859399416E+03  0.49831047349E+02 -0.23408929412E+03  0.40126772199E+03  0.19200000000E+03 0.  0.
   -5000001    1    1    2    0    0  0.25859399416E+03 -0.49831047349E+02 -0.52165332985E+03  0.61509363810E+03  0.19200000000E+03 0.  0.
<mgrwt>
<rscale>  0 0.67959069E+03</rscale>
<asrwt>0</asrwt>
<pdfrwt beam="1">  1        2 0.12657885E+00 0.67959069E+03</pdfrwt>
<pdfrwt beam="2">  1       -2 0.18615624E-01 0.67959069E+03</pdfrwt>
<totfact> 0.80628759E+02</totfact>
</mgrwt>
</event>
<event>
 4    1  0.5621415E-005  0.6761447E+03  0.7818608E-02  0.9758921E-01
         -2   -1    0    0    0  501 -0.00000000000E+00  0.00000000000E+00  0.16280441197E+03  0.16280441199E+03  0.25500000000E-02 0. -1.
          2   -1    0    0  501    0  0.00000000000E+00 -0.00000000000E+00 -0.70202581327E+03  0.70202581327E+03  0.25500000000E-02 0.  1.
    5000001    1    1    2    0    0  0.26911511604E+03 -0.25291111589E+02 -0.18509279891E+03  0.37971822476E+03  0.19200000000E+03 0.  0.
   -5000001    1    1    2    0    0 -0.26911511604E+03  0.25291111589E+02 -0.35412860238E+03  0.48511200050E+03  0.19200000000E+03 0.  0.
<mgrwt>
<rscale>  0 0.67614466E+03</rscale>
<asrwt>0</asrwt>
<pdfrwt beam="1">  1        2 0.10028940E+00 0.67614466E+03</pdfrwt>
<pdfrwt beam="2">  1       -2 0.23257773E-01 0.67614466E+03</pdfrwt>
<totfact> 0.73465622E+02</totfact>
</mgrwt>
</event>
<event>
 4    1  0.5621415E-005  0.5191394E+03  0.7818608E-02  0.1008901E+00
          2   -1    0    0  501    0  0.00000000000E+00  0.00000000000E+00  0.81250956133E+03  0.81250956133E+03  0.25500000000E-02 0.  1.
         -2   -1    0    0    0  501 -0.00000000000E+00 -0.00000000000E+00 -0.82923847732E+02  0.82923847772E+02  0.25500000000E-02 0. -1.
    5000001    1    1    2    0    0  0.10959051332E+03 -0.11523613174E+03  0.48944742679E+03  0.54928337883E+03  0.19200000000E+03 0.  0.
   -5000001    1    1    2    0    0 -0.10959051332E+03  0.11523613174E+03  0.24013828681E+03  0.34615003027E+03  0.19200000000E+03 0.  0.
<mgrwt>
<rscale>  0 0.51913936E+03</rscale>
<asrwt>0</asrwt>
<pdfrwt beam="1">  1        2 0.11607279E+00 0.51913936E+03</pdfrwt>
<pdfrwt beam="2">  1       -2 0.11846264E-01 0.51913936E+03</pdfrwt>
<totfact> 0.19363314E+03</totfact>
</mgrwt>
</event>
<event>
 4    1  0.5621415E-005  0.1410589E+04  0.7818608E-02  0.8946189E-01
          2   -1    0    0  501    0  0.00000000000E+00  0.00000000000E+00  0.11562287921E+04  0.11562287921E+04  0.25500000000E-02 0.  1.
         -2   -1    0    0    0  501 -0.00000000000E+00 -0.00000000000E+00 -0.43022657079E+03  0.43022657080E+03  0.25500000000E-02 0. -1.
    5000001    1    1    2    0    0 -0.46563665947E+03 -0.31788864728E+02 -0.19112098945E+03  0.53964735075E+03  0.19200000000E+03 0.  0.
   -5000001    1    1    2    0    0  0.46563665947E+03  0.31788864728E+02  0.91712321074E+03  0.10468080121E+04  0.19200000000E+03 0.  0.
<mgrwt>
<rscale>  0 0.14105890E+04</rscale>
<asrwt>0</asrwt>
<pdfrwt beam="1">  1        2 0.16517554E+00 0.14105890E+04</pdfrwt>
<pdfrwt beam="2">  1       -2 0.61460939E-01 0.14105890E+04</pdfrwt>
<totfact> 0.54276986E+01</totfact>
</mgrwt>
</event>
<event>
 4    1  0.5621415E-005  0.8623215E+03  0.7818608E-02  0.9473947E-01
         -2   -1    0    0    0  501 -0.00000000000E+00  0.00000000000E+00  0.89938223035E+02  0.89938223071E+02  0.25500000000E-02 0. -1.
          2   -1    0    0  501    0  0.00000000000E+00 -0.00000000000E+00 -0.20669696618E+04  0.20669696618E+04  0.25500000000E-02 0.  1.
    5000001    1    1    2    0    0 -0.10390798197E+03  0.30541679251E+03 -0.15188773957E+04  0.15645858331E+04  0.19200000000E+03 0.  0.
   -5000001    1    1    2    0    0  0.10390798197E+03 -0.30541679251E+03 -0.45815404299E+03  0.59232205174E+03  0.19200000000E+03 0.  0.
<mgrwt>
<rscale>  0 0.86232147E+03</rscale>
<asrwt>0</asrwt>
<pdfrwt beam="1">  1        2 0.29528135E+00 0.86232147E+03</pdfrwt>
<pdfrwt beam="2">  1       -2 0.12848319E-01 0.86232147E+03</pdfrwt>
<totfact> 0.34119151E+02</totfact>
</mgrwt>
</event>
<event>
 4    1  0.5621415E-005  0.4742008E+03  0.7818608E-02  0.1020741E+00
          2   -1    0    0  501    0  0.00000000000E+00  0.00000000000E+00  0.71331399080E+03  0.71331399081E+03  0.25500000000E-02 0.  1.
         -2   -1    0    0    0  501 -0.00000000000E+00 -0.00000000000E+00 -0.78810443597E+02  0.78810443639E+02  0.25500000000E-02 0. -1.
    5000001    1    1    2    0    0  0.25415495262E+02 -0.10206871115E+03  0.46933185871E+03  0.51788064531E+03  0.19200000000E+03 0.  0.
   -5000001    1    1    2    0    0 -0.25415495262E+02  0.10206871115E+03  0.16517168850E+03  0.27424378913E+03  0.19200000000E+03 0.  0.
<mgrwt>
<rscale>  0 0.47420077E+03</rscale>
<asrwt>0</asrwt>
<pdfrwt beam="1">  1        2 0.10190200E+00 0.47420077E+03</pdfrwt>
<pdfrwt beam="2">  1       -2 0.11258634E-01 0.47420077E+03</pdfrwt>
<totfact> 0.24747868E+03</totfact>
</mgrwt>
</event>
<event>
 4    1  0.5621415E-005  0.4872022E+03  0.7818608E-02  0.1017174E+00
          2   -1    0    0  501    0  0.00000000000E+00  0.00000000000E+00  0.23325710387E+04  0.23325710387E+04  0.25500000000E-02 0.  1.
         -2   -1    0    0    0  501 -0.00000000000E+00 -0.00000000000E+00 -0.25440381271E+02  0.25440381399E+02  0.25500000000E-02 0. -1.
    5000001    1    1    2    0    0 -0.79843926453E+02  0.46678848484E+02  0.58246642575E+03  0.62022988045E+03  0.19200000000E+03 0.  0.
   -5000001    1    1    2    0    0  0.79843926453E+02 -0.46678848484E+02  0.17246642317E+04  0.17377815396E+04  0.19200000000E+03 0.  0.
<mgrwt>
<rscale>  0 0.48720220E+03</rscale>
<asrwt>0</asrwt>
<pdfrwt beam="1">  1        2 0.33322449E+00 0.48720220E+03</pdfrwt>
<pdfrwt beam="2">  1       -2 0.36343396E-02 0.48720220E+03</pdfrwt>
<totfact> 0.19000815E+03</totfact>
</mgrwt>
</event>
<event>
 4    1  0.5621415E-005  0.1120822E+04  0.7818608E-02  0.9185132E-01
          2   -1    0    0  501    0  0.00000000000E+00  0.00000000000E+00  0.19749371003E+04  0.19749371003E+04  0.25500000000E-02 0.  1.
         -2   -1    0    0    0  501 -0.00000000000E+00 -0.00000000000E+00 -0.15902299004E+03  0.15902299006E+03  0.25500000000E-02 0. -1.
    5000001    1    1    2    0    0  0.35983396303E+03  0.50827031856E+02  0.18263297539E+03  0.44975845942E+03  0.19200000000E+03 0.  0.
   -5000001    1    1    2    0    0 -0.35983396303E+03 -0.50827031856E+02  0.16332811349E+04  0.16842016310E+04  0.19200000000E+03 0.  0.
<mgrwt>
<rscale>  0 0.11208218E+04</rscale>
<asrwt>0</asrwt>
<pdfrwt beam="1">  1        2 0.28213387E+00 0.11208218E+04</pdfrwt>
<pdfrwt beam="2">  1       -2 0.22717570E-01 0.11208218E+04</pdfrwt>
<totfact> 0.13980687E+02</totfact>
</mgrwt>
</event>
<event>
 4    1  0.5621415E-005  0.6482707E+03  0.7818608E-02  0.9810029E-01
         -2   -1    0    0    0  501 -0.00000000000E+00  0.00000000000E+00  0.60044417301E+02  0.60044417356E+02  0.25500000000E-02 0. -1.
          2   -1    0    0  501    0  0.00000000000E+00 -0.00000000000E+00 -0.17497669190E+04  0.17497669190E+04  0.25500000000E-02 0.  1.
    5000001    1    1    2    0    0  0.12507861713E+03 -0.17329626571E+03 -0.42587996398E+03  0.51372560759E+03  0.19200000000E+03 0.  0.
   -5000001    1    1    2    0    0 -0.12507861713E+03  0.17329626571E+03 -0.12638425377E+04  0.12960857288E+04  0.19200000000E+03 0.  0.
<mgrwt>
<rscale>  0 0.64827073E+03</rscale>
<asrwt>0</asrwt>
<pdfrwt beam="1">  1        2 0.24996667E+00 0.64827073E+03</pdfrwt>
<pdfrwt beam="2">  1       -2 0.85777750E-02 0.64827073E+03</pdfrwt>
<totfact> 0.96897771E+02</totfact>
</mgrwt>
</event>
<event>
 4    1  0.5621415E-005  0.4937792E+03  0.7818608E-02  0.1015416E+00
          2   -1    0    0  501    0  0.00000000000E+00  0.00000000000E+00  0.95192314273E+03  0.95192314273E+03  0.25500000000E-02 0.  1.
         -2   -1    0    0    0  501 -0.00000000000E+00 -0.00000000000E+00 -0.64032967000E+02  0.64032967051E+02  0.25500000000E-02 0. -1.
    5000001    1    1    2    0    0 -0.61965132721E+02  0.69493232019E+02  0.69945348046E+03  0.73127844102E+03  0.19200000000E+03 0.  0.
   -5000001    1    1    2    0    0  0.61965132721E+02 -0.69493232019E+02  0.18843669527E+03  0.28467766876E+03  0.19200000000E+03 0.  0.
<mgrwt>
<rscale>  0 0.49377915E+03</rscale>
<asrwt>0</asrwt>
<pdfrwt beam="1">  1        2 0.13598902E+00 0.49377915E+03</pdfrwt>
<pdfrwt beam="2">  1       -2 0.91475668E-02 0.49377915E+03</pdfrwt>
<totfact> 0.23893184E+03</totfact>
</mgrwt>
</event>
<event>
 4    1  0.5621415E-005  0.6819134E+03  0.7818608E-02  0.9748672E-01
          2   -1    0    0  501    0  0.00000000000E+00  0.00000000000E+00  0.86569969944E+03  0.86569969944E+03  0.25500000000E-02 0.  1.
         -2   -1    0    0    0  501 -0.00000000000E+00 -0.00000000000E+00 -0.13428615803E+03  0.13428615805E+03  0.25500000000E-02 0. -1.
    5000001    1    1    2    0    0 -0.18701347558E+03 -0.20583888844E+03  0.29941133113E+03  0.45150286073E+03  0.19200000000E+03 0.  0.
   -5000001    1    1    2    0    0  0.18701347558E+03  0.20583888844E+03  0.43200221028E+03  0.54848299676E+03  0.19200000000E+03 0.  0.
<mgrwt>
<rscale>  0 0.68191345E+03</rscale>
<asrwt>0</asrwt>
<pdfrwt beam="1">  1        2 0.12367139E+00 0.68191345E+03</pdfrwt>
<pdfrwt beam="2">  1       -2 0.19183736E-01 0.68191345E+03</pdfrwt>
<totfact> 0.78929560E+02</totfact>
</mgrwt>
</event>
<event>
 4    1  0.5621415E-005  0.6622829E+03  0.7818608E-02  0.9784000E-01
         -2   -1    0    0    0  501 -0.00000000000E+00  0.00000000000E+00  0.51393262560E+02  0.51393262623E+02  0.25500000000E-02 0. -1.
          2   -1    0    0  501    0  0.00000000000E+00 -0.00000000000E+00 -0.21336386916E+04  0.21336386916E+04  0.25500000000E-02 0.  1.
    5000001    1    1    2    0    0  0.26809988475E+02 -0.26479215667E+03 -0.89517114452E+03  0.95343014411E+03  0.19200000000E+03 0.  0.
   -5000001    1    1    2    0    0 -0.26809988475E+02  0.26479215667E+03 -0.11870742845E+04  0.12316018101E+04  0.19200000000E+03 0.  0.
<mgrwt>
<rscale>  0 0.66228288E+03</rscale>
<asrwt>0</asrwt>
<pdfrwt beam="1">  1        2 0.30480547E+00 0.66228288E+03</pdfrwt>
<pdfrwt beam="2">  1       -2 0.73418960E-02 0.66228288E+03</pdfrwt>
<totfact> 0.79443154E+02</totfact>
</mgrwt>
</event>
<event>
 4    1  0.5621415E-005  0.4855756E+03  0.7818608E-02  0.1017614E+00
          2   -1    0    0  501    0  0.00000000000E+00  0.00000000000E+00  0.35103188621E+03  0.35103188622E+03  0.25500000000E-02 0.  1.
         -2   -1    0    0    0  501 -0.00000000000E+00 -0.00000000000E+00 -0.16792182034E+03  0.16792182036E+03  0.25500000000E-02 0. -1.
    5000001    1    1    2    0    0  0.88007335784E+02  0.53370155191E+02 -0.22995914797E+02  0.21905815829E+03  0.19200000000E+03 0.  0.
   -5000001    1    1    2    0    0 -0.88007335784E+02 -0.53370155191E+02  0.20610598067E+03  0.29989554829E+03  0.19200000000E+03 0.  0.
<mgrwt>
<rscale>  0 0.48557559E+03</rscale>
<asrwt>0</asrwt>
<pdfrwt beam="1">  1        2 0.50147413E-01 0.48557559E+03</pdfrwt>
<pdfrwt beam="2">  1       -2 0.23988831E-01 0.48557559E+03</pdfrwt>
<totfact> 0.15398081E+03</totfact>
</mgrwt>
</event>
<event>
 4    1  0.5621415E-005  0.5760523E+03  0.7818608E-02  0.9956375E-01
          2   -1    0    0  501    0  0.00000000000E+00  0.00000000000E+00  0.19306669779E+03  0.19306669781E+03  0.25500000000E-02 0.  1.
         -2   -1    0    0    0  501 -0.00000000000E+00 -0.00000000000E+00 -0.42969114064E+03  0.42969114065E+03  0.25500000000E-02 0. -1.
    5000001    1    1    2    0    0 -0.95778873978E+02 -0.15302389824E+03  0.73217024116E+01  0.26364277623E+03  0.19200000000E+03 0.  0.
   -5000001    1    1    2    0    0  0.95778873978E+02  0.15302389824E+03 -0.24394614526E+03  0.35911506223E+03  0.19200000000E+03 0.  0.
<mgrwt>
<rscale>  0 0.57605225E+03</rscale>
<asrwt>0</asrwt>
<pdfrwt beam="1">  1        2 0.27580957E-01 0.57605225E+03</pdfrwt>
<pdfrwt beam="2">  1       -2 0.61384448E-01 0.57605225E+03</pdfrwt>
<totfact> 0.48725967E+02</totfact>
</mgrwt>
</event>
<event>
 4    1  0.5621415E-005  0.6439155E+03  0.7818608E-02  0.9818264E-01
          2   -1    0    0  501    0  0.00000000000E+00  0.00000000000E+00  0.31938426081E+03  0.31938426082E+03  0.25500000000E-02 0.  1.
         -2   -1    0    0    0  501 -0.00000000000E+00 -0.00000000000E+00 -0.32455194108E+03  0.32455194109E+03  0.25500000000E-02 0. -1.
    5000001    1    1    2    0    0  0.20650957757E+03 -0.10352135347E+03  0.11330736114E+03  0.32103805747E+03  0.19200000000E+03 0.  0.
   -5000001    1    1    2    0    0 -0.20650957757E+03  0.10352135347E+03 -0.11847504141E+03  0.32289814445E+03  0.19200000000E+03 0.  0.
<mgrwt>
<rscale>  0 0.64391547E+03</rscale>
<asrwt>0</asrwt>
<pdfrwt beam="1">  1        2 0.45626323E-01 0.64391547E+03</pdfrwt>
<pdfrwt beam="2">  1       -2 0.46364563E-01 0.64391547E+03</pdfrwt>
<totfact> 0.49429003E+02</totfact>
</mgrwt>
</event>
<event>
 4    1  0.5621415E-005  0.1599119E+04  0.7818608E-02  0.8821090E-01
          2   -1    0    0  501    0  0.00000000000E+00  0.00000000000E+00  0.35342762767E+04  0.35342762767E+04  0.25500000000E-02 0.  1.
         -2   -1    0    0    0  501 -0.00000000000E+00 -0.00000000000E+00 -0.18088427919E+03  0.18088427921E+03  0.25500000000E-02 0. -1.
    5000001    1    1    2    0    0  0.61526421327E+03  0.42469703144E+03  0.21613239094E+04  0.22950169197E+04  0.19200000000E+03 0.  0.
   -5000001    1    1    2    0    0 -0.61526421327E+03 -0.42469703144E+03  0.11920680882E+04  0.14201436362E+04  0.19200000000E+03 0.  0.
<mgrwt>
<rscale>  0 0.15991185E+04</rscale>
<asrwt>0</asrwt>
<pdfrwt beam="1">  1        2 0.50489660E+00 0.15991185E+04</pdfrwt>
<pdfrwt beam="2">  1       -2 0.25840612E-01 0.15991185E+04</pdfrwt>
<totfact> 0.14993355E+01</totfact>
</mgrwt>
</event>
<event>
 4    1  0.5621415E-005  0.7914533E+03  0.7818608E-02  0.9572471E-01
          2   -1    0    0  501    0  0.00000000000E+00  0.00000000000E+00  0.70274303551E+03  0.70274303552E+03  0.25500000000E-02 0.  1.
         -2   -1    0    0    0  501 -0.00000000000E+00 -0.00000000000E+00 -0.22284044919E+03  0.22284044920E+03  0.25500000000E-02 0. -1.
    5000001    1    1    2    0    0  0.20998765942E+03 -0.26711023570E+03  0.16332732909E+03  0.42306324769E+03  0.19200000000E+03 0.  0.
   -5000001    1    1    2    0    0 -0.20998765942E+03  0.26711023570E+03  0.31657525724E+03  0.50252023702E+03  0.19200000000E+03 0.  0.
<mgrwt>
<rscale>  0 0.79145328E+03</rscale>
<asrwt>0</asrwt>
<pdfrwt beam="1">  1        2 0.10039186E+00 0.79145328E+03</pdfrwt>
<pdfrwt beam="2">  1       -2 0.31834350E-01 0.79145328E+03</pdfrwt>
<totfact> 0.41219947E+02</totfact>
</mgrwt>
</event>
<event>
 4    1  0.5621415E-005  0.8184448E+03  0.7818608E-02  0.9533696E-01
         -2   -1    0    0    0  501 -0.00000000000E+00  0.00000000000E+00  0.35549019212E+03  0.35549019213E+03  0.25500000000E-02 0. -1.
          2   -1    0    0  501    0  0.00000000000E+00 -0.00000000000E+00 -0.47107625736E+03  0.47107625736E+03  0.25500000000E-02 0.  1.
    5000001    1    1    2    0    0  0.12775042306E+03 -0.29224080120E+03 -0.22940312791E+03  0.43728097554E+03  0.19200000000E+03 0.  0.
   -5000001    1    1    2    0    0 -0.12775042306E+03  0.29224080120E+03  0.11381706268E+03  0.38928547395E+03  0.19200000000E+03 0.  0.
<mgrwt>
<rscale>  0 0.81844484E+03</rscale>
<asrwt>0</asrwt>
<pdfrwt beam="1">  1        2 0.67296608E-01 0.81844484E+03</pdfrwt>
<pdfrwt beam="2">  1       -2 0.50784313E-01 0.81844484E+03</pdfrwt>
<totfact> 0.26502898E+02</totfact>
</mgrwt>
</event>
<event>
 4    1  0.5621415E-005  0.4619800E+03  0.7818608E-02  0.1024209E+00
         -2   -1    0    0    0  501 -0.00000000000E+00  0.00000000000E+00  0.18940666349E+02  0.18940666521E+02  0.25500000000E-02 0. -1.
          2   -1    0    0  501    0  0.00000000000E+00 -0.00000000000E+00 -0.28170271275E+04  0.28170271275E+04  0.25500000000E-02 0.  1.
    5000001    1    1    2    0    0  0.97195929247E+01  0.12741559529E+03 -0.13206291612E+04  0.13406172406E+04  0.19200000000E+03 0.  0.
   -5000001    1    1    2    0    0 -0.97195929247E+01 -0.12741559529E+03 -0.14774572999E+04  0.14953505534E+04  0.19200000000E+03 0.  0.
<mgrwt>
<rscale>  0 0.46197996E+03</rscale>
<asrwt>0</asrwt>
<pdfrwt beam="1">  1        2 0.40243218E+00 0.46197996E+03</pdfrwt>
<pdfrwt beam="2">  1       -2 0.27058113E-02 0.46197996E+03</pdfrwt>
<totfact> 0.16781707E+03</totfact>
</mgrwt>
</event>
<event>
 4    1  0.5621415E-005  0.1086420E+04  0.7818608E-02  0.9218530E-01
         -2   -1    0    0    0  501 -0.00000000000E+00  0.00000000000E+00  0.10462208777E+04  0.10462208777E+04  0.25500000000E-02 0.  1.
          2   -1    0    0  501    0  0.00000000000E+00 -0.00000000000E+00 -0.28204070035E+03  0.28204070036E+03  0.25500000000E-02 0. -1.
    5000001    1    1    2    0    0  0.30644017335E+03  0.34160593473E+03  0.64886643493E+03  0.81761350579E+03  0.19200000000E+03 0.  0.
   -5000001    1    1    2    0    0 -0.30644017335E+03 -0.34160593473E+03  0.11531374238E+03  0.51064807222E+03  0.19200000000E+03 0.  0.
<mgrwt>
<rscale>  0 0.10864196E+04</rscale>
<asrwt>0</asrwt>
<pdfrwt beam="1">  1        2 0.40291529E-01 0.10864196E+04</pdfrwt>
<pdfrwt beam="2">  1       -2 0.14946013E+00 0.10864196E+04</pdfrwt>
<totfact> 0.38396041E+01</totfact>
</mgrwt>
</event>
<event>
 4    1  0.5621415E-005  0.1080583E+04  0.7818608E-02  0.9224326E-01
         -2   -1    0    0    0  501 -0.00000000000E+00  0.00000000000E+00  0.16244605678E+03  0.16244605680E+03  0.25500000000E-02 0.  1.
          2   -1    0    0  501    0  0.00000000000E+00 -0.00000000000E+00 -0.17969969688E+04  0.17969969688E+04  0.25500000000E-02 0. -1.
    5000001    1    1    2    0    0  0.25828110191E+03 -0.14479859724E+03 -0.15591322576E+04  0.15985722249E+04  0.19200000000E+03 0.  0.
   -5000001    1    1    2    0    0 -0.25828110191E+03  0.14479859724E+03 -0.75418654362E+02  0.36087080069E+03  0.19200000000E+03 0.  0.
<mgrwt>
<rscale>  0 0.10805833E+04</rscale>
<asrwt>0</asrwt>
<pdfrwt beam="1">  1        2 0.25671384E+00 0.10805833E+04</pdfrwt>
<pdfrwt beam="2">  1       -2 0.23206581E-01 0.10805833E+04</pdfrwt>
<totfact> 0.16648991E+02</totfact>
</mgrwt>
</event>
<event>
 4    1  0.5621415E-005  0.5740118E+03  0.7818608E-02  0.9960840E-01
          2   -1    0    0  501    0  0.00000000000E+00  0.00000000000E+00  0.14295019664E+03  0.14295019667E+03  0.25500000000E-02 0.  1.
         -2   -1    0    0    0  501 -0.00000000000E+00 -0.00000000000E+00 -0.57623142805E+03  0.57623142806E+03  0.25500000000E-02 0. -1.
    5000001    1    1    2    0    0 -0.22608272288E+01  0.14408143546E+03 -0.41372451749E+03  0.47832682107E+03  0.19200000000E+03 0.  0.
   -5000001    1    1    2    0    0  0.22608272288E+01 -0.14408143546E+03 -0.19556713917E+02  0.24085480365E+03  0.19200000000E+03 0.  0.
<mgrwt>
<rscale>  0 0.57401183E+03</rscale>
<asrwt>0</asrwt>
<pdfrwt beam="1">  1        2 0.20421457E-01 0.57401183E+03</pdfrwt>
<pdfrwt beam="2">  1       -2 0.82318774E-01 0.57401183E+03</pdfrwt>
<totfact> 0.36300046E+02</totfact>
</mgrwt>
</event>
<event>
 4    1  0.5621415E-005  0.1164293E+04  0.7818608E-02  0.9144698E-01
         -2   -1    0    0    0  501 -0.00000000000E+00  0.00000000000E+00  0.21241879104E+03  0.21241879105E+03  0.25500000000E-02 0.  1.
          2   -1    0    0  501    0  0.00000000000E+00 -0.00000000000E+00 -0.15954073266E+04  0.15954073266E+04  0.25500000000E-02 0. -1.
    5000001    1    1    2    0    0  0.46235311961E+03  0.29682851986E+03 -0.67229326593E+03  0.88922427589E+03  0.19200000000E+03 0.  0.
   -5000001    1    1    2    0    0 -0.46235311961E+03 -0.29682851986E+03 -0.71069526962E+03  0.91860184176E+03  0.19200000000E+03 0.  0.
<mgrwt>
<rscale>  0 0.11642929E+04</rscale>
<asrwt>0</asrwt>
<pdfrwt beam="1">  1        2 0.22791533E+00 0.11642929E+04</pdfrwt>
<pdfrwt beam="2">  1       -2 0.30345542E-01 0.11642929E+04</pdfrwt>
<totfact> 0.12902771E+02</totfact>
</mgrwt>
</event>
<event>
 4    1  0.5621415E-005  0.6608653E+03  0.7818608E-02  0.9786602E-01
         -2   -1    0    0    0  501 -0.00000000000E+00  0.00000000000E+00  0.38240278042E+03  0.38240278043E+03  0.25500000000E-02 0. -1.
          2   -1    0    0  501    0  0.00000000000E+00 -0.00000000000E+00 -0.28552550773E+03  0.28552550775E+03  0.25500000000E-02 0.  1.
    5000001    1    1    2    0    0  0.15396888488E+03 -0.21084528461E+03 -0.16745582619E+02  0.32450973189E+03  0.19200000000E+03 0.  0.
   -5000001    1    1    2    0    0 -0.15396888488E+03  0.21084528461E+03  0.11362285531E+03  0.34341855629E+03  0.19200000000E+03 0.  0.
<mgrwt>
<rscale>  0 0.66086534E+03</rscale>
<asrwt>0</asrwt>
<pdfrwt beam="1">  1        2 0.40789358E-01 0.66086534E+03</pdfrwt>
<pdfrwt beam="2">  1       -2 0.54628969E-01 0.66086534E+03</pdfrwt>
<totfact> 0.40078616E+02</totfact>
</mgrwt>
</event>
<event>
 4    1  0.5621415E-005  0.5583044E+03  0.7818608E-02  0.9995899E-01
          2   -1    0    0  501    0  0.00000000000E+00  0.00000000000E+00  0.14714825354E+03  0.14714825356E+03  0.25500000000E-02 0.  1.
         -2   -1    0    0    0  501 -0.00000000000E+00 -0.00000000000E+00 -0.52957434990E+03  0.52957434990E+03  0.25500000000E-02 0. -1.
    5000001    1    1    2    0    0 -0.74897485207E+02  0.15120912261E+03 -0.32720709638E+03  0.41521357874E+03  0.19200000000E+03 0.  0.
   -5000001    1    1    2    0    0  0.74897485207E+02 -0.15120912261E+03 -0.55218999976E+02  0.26150902472E+03  0.19200000000E+03 0.  0.
<mgrwt>
<rscale>  0 0.55830436E+03</rscale>
<asrwt>0</asrwt>
<pdfrwt beam="1">  1        2 0.21021179E-01 0.55830436E+03</pdfrwt>
<pdfrwt beam="2">  1       -2 0.75653478E-01 0.55830436E+03</pdfrwt>
<totfact> 0.42378236E+02</totfact>
</mgrwt>
</event>
<event>
 4    1  0.5621415E-005  0.5236146E+03  0.7818608E-02  0.1007793E+00
          2   -1    0    0  501    0  0.00000000000E+00  0.00000000000E+00  0.91065085221E+03  0.91065085222E+03  0.25500000000E-02 0.  1.
         -2   -1    0    0    0  501 -0.00000000000E+00 -0.00000000000E+00 -0.75268211433E+02  0.75268211476E+02  0.25500000000E-02 0. -1.
    5000001    1    1    2    0    0  0.95982902499E+02 -0.14287434958E+03  0.50301152182E+03  0.56525249971E+03  0.19200000000E+03 0.  0.
   -5000001    1    1    2    0    0 -0.95982902499E+02  0.14287434958E+03  0.33237111896E+03  0.42066656399E+03  0.19200000000E+03 0.  0.
<mgrwt>
<rscale>  0 0.52361459E+03</rscale>
<asrwt>0</asrwt>
<pdfrwt beam="1">  1        2 0.13009298E+00 0.52361459E+03</pdfrwt>
<pdfrwt beam="2">  1       -2 0.10752602E-01 0.52361459E+03</pdfrwt>
<totfact> 0.19539240E+03</totfact>
</mgrwt>
</event>
<event>
 4    1  0.5621415E-005  0.5698553E+03  0.7818608E-02  0.9969999E-01
          2   -1    0    0  501    0  0.00000000000E+00  0.00000000000E+00  0.84164306672E+03  0.84164306672E+03  0.25500000000E-02 0.  1.
         -2   -1    0    0    0  501 -0.00000000000E+00 -0.00000000000E+00 -0.96458673289E+02  0.96458673323E+02  0.25500000000E-02 0. -1.
    5000001    1    1    2    0    0  0.17973768421E+03  0.38519506935E+02  0.54152246650E+03  0.60324121980E+03  0.19200000000E+03 0.  0.
   -5000001    1    1    2    0    0 -0.17973768421E+03 -0.38519506935E+02  0.20366192693E+03  0.33486052024E+03  0.19200000000E+03 0.  0.
<mgrwt>
<rscale>  0 0.56985533E+03</rscale>
<asrwt>0</asrwt>
<pdfrwt beam="1">  1        2 0.12023473E+00 0.56985533E+03</pdfrwt>
<pdfrwt beam="2">  1       -2 0.13779810E-01 0.56985533E+03</pdfrwt>
<totfact> 0.14407640E+03</totfact>
</mgrwt>
</event>
<event>
 4    1  0.5621415E-005  0.6864628E+03  0.7818608E-02  0.9740667E-01
         -2   -1    0    0    0  501 -0.00000000000E+00  0.00000000000E+00  0.86874456984E+02  0.86874457021E+02  0.25500000000E-02 0. -1.
          2   -1    0    0  501    0  0.00000000000E+00 -0.00000000000E+00 -0.13560692554E+04  0.13560692554E+04  0.25500000000E-02 0.  1.
    5000001    1    1    2    0    0 -0.16881927990E+03 -0.21150444144E+03 -0.45003160755E+03  0.55913015105E+03  0.19200000000E+03 0.  0.
   -5000001    1    1    2    0    0  0.16881927990E+03  0.21150444144E+03 -0.81916319091E+03  0.88381356142E+03  0.19200000000E+03 0.  0.
<mgrwt>
<rscale>  0 0.68646276E+03</rscale>
<asrwt>0</asrwt>
<pdfrwt beam="1">  1        2 0.19372417E+00 0.68646276E+03</pdfrwt>
<pdfrwt beam="2">  1       -2 0.12410638E-01 0.68646276E+03</pdfrwt>
<totfact> 0.84950038E+02</totfact>
</mgrwt>
</event>
<event>
 4    1  0.5621415E-005  0.1049351E+04  0.7818608E-02  0.9256014E-01
         -2   -1    0    0    0  501 -0.00000000000E+00  0.00000000000E+00  0.23189247425E+03  0.23189247427E+03  0.25500000000E-02 0. -1.
          2   -1    0    0  501    0  0.00000000000E+00 -0.00000000000E+00 -0.11871205337E+04  0.11871205337E+04  0.25500000000E-02 0.  1.
    5000001    1    1    2    0    0  0.33383032640E+03  0.29800302146E+03 -0.74181665988E+03  0.88735812640E+03  0.19200000000E+03 0.  0.
   -5000001    1    1    2    0    0 -0.33383032640E+03 -0.29800302146E+03 -0.21341139957E+03  0.53165488156E+03  0.19200000000E+03 0.  0.
<mgrwt>
<rscale>  0 0.10493509E+04</rscale>
<asrwt>0</asrwt>
<pdfrwt beam="1">  1        2 0.16958864E+00 0.10493509E+04</pdfrwt>
<pdfrwt beam="2">  1       -2 0.33127497E-01 0.10493509E+04</pdfrwt>
<totfact> 0.18374262E+02</totfact>
</mgrwt>
</event>
<event>
 4    1  0.5621415E-005  0.4631904E+03  0.7818608E-02  0.1023860E+00
         -2   -1    0    0    0  501 -0.00000000000E+00  0.00000000000E+00  0.73766188479E+02  0.73766188523E+02  0.25500000000E-02 0. -1.
          2   -1    0    0  501    0  0.00000000000E+00 -0.00000000000E+00 -0.72711288438E+03  0.72711288438E+03  0.25500000000E-02 0.  1.
    5000001    1    1    2    0    0  0.32053134805E+00 -0.12082751482E+03 -0.40727291811E+03  0.46619161393E+03  0.19200000000E+03 0.  0.
   -5000001    1    1    2    0    0 -0.32053134805E+00  0.12082751482E+03 -0.24607377779E+03  0.33468745897E+03  0.19200000000E+03 0.  0.
<mgrwt>
<rscale>  0 0.46319044E+03</rscale>
<asrwt>0</asrwt>
<pdfrwt beam="1">  1        2 0.10387327E+00 0.46319044E+03</pdfrwt>
<pdfrwt beam="2">  1       -2 0.10538027E-01 0.46319044E+03</pdfrwt>
<totfact> 0.26909866E+03</totfact>
</mgrwt>
</event>
<event>
 4    1  0.5621415E-005  0.7614258E+03  0.7818608E-02  0.9617594E-01
          2   -1    0    0  501    0  0.00000000000E+00  0.00000000000E+00  0.94423685326E+02  0.94423685361E+02  0.25500000000E-02 0.  1.
         -2   -1    0    0    0  501 -0.00000000000E+00 -0.00000000000E+00 -0.15350205797E+04  0.15350205797E+04  0.25500000000E-02 0. -1.
    5000001    1    1    2    0    0 -0.95868495604E+02 -0.28238738472E+03 -0.42419841562E+03  0.55293914612E+03  0.19200000000E+03 0.  0.
   -5000001    1    1    2    0    0  0.95868495604E+02  0.28238738472E+03 -0.10163984788E+04  0.10765051190E+04  0.19200000000E+03 0.  0.
<mgrwt>
<rscale>  0 0.76142577E+03</rscale>
<asrwt>0</asrwt>
<pdfrwt beam="1">  1        2 0.13489099E-01 0.76142577E+03</pdfrwt>
<pdfrwt beam="2">  1       -2 0.21928864E+00 0.76142577E+03</pdfrwt>
<totfact> 0.46547397E+01</totfact>
</mgrwt>
</event>
<event>
 4    1  0.5621415E-005  0.5202647E+03  0.7818608E-02  0.1008621E+00
          2   -1    0    0  501    0  0.00000000000E+00  0.00000000000E+00  0.15148011624E+04  0.15148011624E+04  0.25500000000E-02 0.  1.
         -2   -1    0    0    0  501 -0.00000000000E+00 -0.00000000000E+00 -0.44671761700E+02  0.44671761772E+02  0.25500000000E-02 0. -1.
    5000001    1    1    2    0    0  0.13535344942E+03  0.10685936180E+02  0.10684450036E+04  0.10940171256E+04  0.19200000000E+03 0.  0.
   -5000001    1    1    2    0    0 -0.13535344942E+03 -0.10685936180E+02  0.40168439710E+03  0.46545579852E+03  0.19200000000E+03 0.  0.
<mgrwt>
<rscale>  0 0.52026469E+03</rscale>
<asrwt>0</asrwt>
<pdfrwt beam="1">  1        2 0.21640015E+00 0.52026469E+03</pdfrwt>
<pdfrwt beam="2">  1       -2 0.63816809E-02 0.52026469E+03</pdfrwt>
<totfact> 0.20524638E+03</totfact>
</mgrwt>
</event>
<event>
 4    1  0.5621415E-005  0.5058635E+03  0.7818608E-02  0.1012260E+00
          2   -1    0    0  501    0  0.00000000000E+00  0.00000000000E+00  0.49723126108E+03  0.49723126108E+03  0.25500000000E-02 0.  1.
         -2   -1    0    0    0  501 -0.00000000000E+00 -0.00000000000E+00 -0.12866141068E+03  0.12866141071E+03  0.25500000000E-02 0. -1.
    5000001    1    1    2    0    0  0.13393987839E+02  0.13116158452E+03  0.62253430550E+02  0.24108556527E+03  0.19200000000E+03 0.  0.
   -5000001    1    1    2    0    0 -0.13393987839E+02 -0.13116158452E+03  0.30631641984E+03  0.38480710652E+03  0.19200000000E+03 0.  0.
<mgrwt>
<rscale>  0 0.50586352E+03</rscale>
<asrwt>0</asrwt>
<pdfrwt beam="1">  1        2 0.71033036E-01 0.50586352E+03</pdfrwt>
<pdfrwt beam="2">  1       -2 0.18380202E-01 0.50586352E+03</pdfrwt>
<totfact> 0.16655609E+03</totfact>
</mgrwt>
</event>
<event>
 4    1  0.5621415E-005  0.6153704E+03  0.7818608E-02  0.9874021E-01
          2   -1    0    0  501    0  0.00000000000E+00  0.00000000000E+00  0.26662138026E+03  0.26662138027E+03  0.25500000000E-02 0.  1.
         -2   -1    0    0    0  501 -0.00000000000E+00 -0.00000000000E+00 -0.35507347615E+03  0.35507347616E+03  0.25500000000E-02 0. -1.
    5000001    1    1    2    0    0 -0.20834031775E+03  0.27322835533E+02  0.73825017096E+02  0.29405162555E+03  0.19200000000E+03 0.  0.
   -5000001    1    1    2    0    0  0.20834031775E+03 -0.27322835533E+02 -0.16227711298E+03  0.32764323088E+03  0.19200000000E+03 0.  0.
<mgrwt>
<rscale>  0 0.61537039E+03</rscale>
<asrwt>0</asrwt>
<pdfrwt beam="1">  1        2 0.38088769E-01 0.61537039E+03</pdfrwt>
<pdfrwt beam="2">  1       -2 0.50724782E-01 0.61537039E+03</pdfrwt>
<totfact> 0.50384464E+02</totfact>
</mgrwt>
</event>
<event>
 4    1  0.5621415E-005  0.4330413E+03  0.7818608E-02  0.1032904E+00
          2   -1    0    0  501    0  0.00000000000E+00  0.00000000000E+00  0.18362152822E+04  0.18362152822E+04  0.25500000000E-02 0.  1.
         -2   -1    0    0    0  501 -0.00000000000E+00 -0.00000000000E+00 -0.25531418756E+02  0.25531418884E+02  0.25500000000E-02 0. -1.
    5000001    1    1    2    0    0  0.84134633700E+02  0.20195970520E+02  0.68906565906E+03  0.72052896979E+03  0.19200000000E+03 0.  0.
   -5000001    1    1    2    0    0 -0.84134633700E+02 -0.20195970520E+02  0.11216182044E+04  0.11412177313E+04  0.19200000000E+03 0.  0.
<mgrwt>
<rscale>  0 0.43304125E+03</rscale>
<asrwt>0</asrwt>
<pdfrwt beam="1">  1        2 0.26231660E+00 0.43304125E+03</pdfrwt>
<pdfrwt beam="2">  1       -2 0.36473437E-02 0.43304125E+03</pdfrwt>
<totfact> 0.33483023E+03</totfact>
</mgrwt>
</event>
<event>
 4    1  0.5621415E-005  0.6494073E+03  0.7818608E-02  0.9807892E-01
          2   -1    0    0  501    0  0.00000000000E+00  0.00000000000E+00  0.11395149716E+04  0.11395149716E+04  0.25500000000E-02 0.  1.
         -2   -1    0    0    0  501 -0.00000000000E+00 -0.00000000000E+00 -0.92523982630E+02  0.92523982665E+02  0.25500000000E-02 0. -1.
    5000001    1    1    2    0    0  0.23806010116E+03 -0.10562331486E+02  0.72944414780E+03  0.79103535911E+03  0.19200000000E+03 0.  0.
   -5000001    1    1    2    0    0 -0.23806010116E+03  0.10562331486E+02  0.31754684121E+03  0.44100359520E+03  0.19200000000E+03 0.  0.
<mgrwt>
<rscale>  0 0.64940731E+03</rscale>
<asrwt>0</asrwt>
<pdfrwt beam="1">  1        2 0.16278785E+00 0.64940731E+03</pdfrwt>
<pdfrwt beam="2">  1       -2 0.13217712E-01 0.64940731E+03</pdfrwt>
<totfact> 0.10103775E+03</totfact>
</mgrwt>
</event>
<event>
 4    1  0.5621415E-005  0.4524031E+03  0.7818608E-02  0.1027008E+00
          2   -1    0    0  501    0  0.00000000000E+00  0.00000000000E+00  0.12590301283E+04  0.12590301283E+04  0.25500000000E-02 0.  1.
         -2   -1    0    0    0  501 -0.00000000000E+00 -0.00000000000E+00 -0.40640118521E+02  0.40640118601E+02  0.25500000000E-02 0. -1.
    5000001    1    1    2    0    0 -0.58071804713E+02  0.85903869942E+02  0.43799538183E+03  0.48934217464E+03  0.19200000000E+03 0.  0.
   -5000001    1    1    2    0    0  0.58071804713E+02 -0.85903869942E+02  0.78039462793E+03  0.81032807225E+03  0.19200000000E+03 0.  0.
<mgrwt>
<rscale>  0 0.45240307E+03</rscale>
<asrwt>0</asrwt>
<pdfrwt beam="1">  1        2 0.17986144E+00 0.45240307E+03</pdfrwt>
<pdfrwt beam="2">  1       -2 0.58057314E-02 0.45240307E+03</pdfrwt>
<totfact> 0.32510951E+03</totfact>
</mgrwt>
</event>
<event>
 4    1  0.5621415E-005  0.9849944E+03  0.7818608E-02  0.9325158E-01
         -2   -1    0    0    0  501 -0.00000000000E+00  0.00000000000E+00  0.11731257156E+03  0.11731257158E+03  0.25500000000E-02 0. -1.
          2   -1    0    0  501    0  0.00000000000E+00 -0.00000000000E+00 -0.20675829079E+04  0.20675829079E+04  0.25500000000E-02 0.  1.
    5000001    1    1    2    0    0 -0.39203000012E+03 -0.22007547294E+03 -0.84262354937E+03  0.97416588974E+03  0.19200000000E+03 0.  0.
   -5000001    1    1    2    0    0  0.39203000012E+03  0.22007547294E+03 -0.11076467870E+04  0.12107295897E+04  0.19200000000E+03 0.  0.
<mgrwt>
<rscale>  0 0.98499435E+03</rscale>
<asrwt>0</asrwt>
<pdfrwt beam="1">  1        2 0.29536896E+00 0.98499435E+03</pdfrwt>
<pdfrwt beam="2">  1       -2 0.16758940E-01 0.98499435E+03</pdfrwt>
<totfact> 0.21563530E+02</totfact>
</mgrwt>
</event>
<event>
 4    1  0.5621415E-005  0.7116211E+03  0.7818608E-02  0.9697562E-01
          2   -1    0    0  501    0  0.00000000000E+00  0.00000000000E+00  0.20539910644E+04  0.20539910644E+04  0.25500000000E-02 0.  1.
         -2   -1    0    0    0  501 -0.00000000000E+00 -0.00000000000E+00 -0.61636656691E+02  0.61636656743E+02  0.25500000000E-02 0. -1.
    5000001    1    1    2    0    0  0.18677959348E+03 -0.13295623178E+03  0.42297847693E+03  0.51801425469E+03  0.19200000000E+03 0.  0.
   -5000001    1    1    2    0    0 -0.18677959348E+03  0.13295623178E+03  0.15693759308E+04  0.15976134665E+04  0.19200000000E+03 0.  0.
<mgrwt>
<rscale>  0 0.71162108E+03</rscale>
<asrwt>0</asrwt>
<pdfrwt beam="1">  1        2 0.29342730E+00 0.71162108E+03</pdfrwt>
<pdfrwt beam="2">  1       -2 0.88052364E-02 0.71162108E+03</pdfrwt>
<totfact> 0.64965036E+02</totfact>
</mgrwt>
</event>
<event>
 4    1  0.5621415E-005  0.4404384E+03  0.7818608E-02  0.1030612E+00
          2   -1    0    0  501    0  0.00000000000E+00  0.00000000000E+00  0.99660217105E+03  0.99660217105E+03  0.25500000000E-02 0.  1.
         -2   -1    0    0    0  501 -0.00000000000E+00 -0.00000000000E+00 -0.48661840752E+02  0.48661840819E+02  0.25500000000E-02 0. -1.
    5000001    1    1    2    0    0  0.74292595412E+02  0.74976149228E+02  0.52659413829E+03  0.57035620376E+03  0.19200000000E+03 0.  0.
   -5000001    1    1    2    0    0 -0.74292595412E+02 -0.74976149228E+02  0.42134619201E+03  0.47490780811E+03  0.19200000000E+03 0.  0.
<mgrwt>
<rscale>  0 0.44043840E+03</rscale>
<asrwt>0</asrwt>
<pdfrwt beam="1">  1        2 0.14237174E+00 0.44043840E+03</pdfrwt>
<pdfrwt beam="2">  1       -2 0.69516915E-02 0.44043840E+03</pdfrwt>
<totfact> 0.34643632E+03</totfact>
</mgrwt>
</event>
<event>
 4    1  0.5621415E-005  0.4342912E+03  0.7818608E-02  0.1032513E+00
          2   -1    0    0  501    0  0.00000000000E+00  0.00000000000E+00  0.81930671216E+02  0.81930671256E+02  0.25500000000E-02 0.  1.
         -2   -1    0    0    0  501 -0.00000000000E+00 -0.00000000000E+00 -0.57551360572E+03  0.57551360572E+03  0.25500000000E-02 0. -1.
    5000001    1    1    2    0    0  0.65992952037E+02  0.72898173904E+02 -0.28445526576E+03  0.35699861582E+03  0.19200000000E+03 0.  0.
   -5000001    1    1    2    0    0 -0.65992952037E+02 -0.72898173904E+02 -0.20912766874E+03  0.30044566116E+03  0.19200000000E+03 0.  0.
<mgrwt>
<rscale>  0 0.43429122E+03</rscale>
<asrwt>0</asrwt>
<pdfrwt beam="1">  1        2 0.11704382E-01 0.43429122E+03</pdfrwt>
<pdfrwt beam="2">  1       -2 0.82216228E-01 0.43429122E+03</pdfrwt>
<totfact> 0.71148959E+02</totfact>
</mgrwt>
</event>
<event>
 4    1  0.5621415E-005  0.5017915E+03  0.7818608E-02  0.1013312E+00
          2   -1    0    0  501    0  0.00000000000E+00  0.00000000000E+00  0.53345778661E+03  0.53345778662E+03  0.25500000000E-02 0.  1.
         -2   -1    0    0    0  501 -0.00000000000E+00 -0.00000000000E+00 -0.11800123778E+03  0.11800123781E+03  0.25500000000E-02 0. -1.
    5000001    1    1    2    0    0  0.55125491580E+02 -0.14513405625E+03  0.14993041001E+03  0.28886993951E+03  0.19200000000E+03 0.  0.
   -5000001    1    1    2    0    0 -0.55125491580E+02  0.14513405625E+03  0.26552613882E+03  0.36258908492E+03  0.19200000000E+03 0.  0.
<mgrwt>
<rscale>  0 0.50179151E+03</rscale>
<asrwt>0</asrwt>
<pdfrwt beam="1">  1        2 0.76208256E-01 0.50179151E+03</pdfrwt>
<pdfrwt beam="2">  1       -2 0.16857319E-01 0.50179151E+03</pdfrwt>
<totfact> 0.17822099E+03</totfact>
</mgrwt>
</event>
<event>
 4    1  0.5621415E-005  0.4645081E+03  0.7818608E-02  0.1023482E+00
          2   -1    0    0  501    0  0.00000000000E+00  0.00000000000E+00  0.35746280335E+04  0.35746280335E+04  0.25500000000E-02 0.  1.
         -2   -1    0    0    0  501 -0.00000000000E+00 -0.00000000000E+00 -0.15090222442E+02  0.15090222657E+02  0.25500000000E-02 0. -1.
    5000001    1    1    2    0    0  0.57312022417E+02 -0.41593033292E+02  0.26285582081E+04  0.26365122609E+04  0.19200000000E+03 0.  0.
   -5000001    1    1    2    0    0 -0.57312022417E+02  0.41593033292E+02  0.93097960290E+03  0.95320599524E+03  0.19200000000E+03 0.  0.
<mgrwt>
<rscale>  0 0.46450805E+03</rscale>
<asrwt>0</asrwt>
<pdfrwt beam="1">  1        2 0.51066172E+00 0.46450805E+03</pdfrwt>
<pdfrwt beam="2">  1       -2 0.21557436E-02 0.46450805E+03</pdfrwt>
<totfact> 0.89060977E+02</totfact>
</mgrwt>
</event>
<event>
 4    1  0.5621415E-005  0.7933161E+03  0.7818608E-02  0.9569742E-01
         -2   -1    0    0    0  501 -0.00000000000E+00  0.00000000000E+00  0.77598579359E+02  0.77598579401E+02  0.25500000000E-02 0. -1.
          2   -1    0    0  501    0  0.00000000000E+00 -0.00000000000E+00 -0.20275836115E+04  0.20275836115E+04  0.25500000000E-02 0.  1.
    5000001    1    1    2    0    0  0.28819626946E+03 -0.14526644542E+03 -0.63605002448E+03  0.73863594790E+03  0.19200000000E+03 0.  0.
   -5000001    1    1    2    0    0 -0.28819626946E+03  0.14526644542E+03 -0.13139350076E+04  0.13665462430E+04  0.19200000000E+03 0.  0.
<mgrwt>
<rscale>  0 0.79331610E+03</rscale>
<asrwt>0</asrwt>
<pdfrwt beam="1">  1        2 0.28965477E+00 0.79331610E+03</pdfrwt>
<pdfrwt beam="2">  1       -2 0.11085513E-01 0.79331610E+03</pdfrwt>
<totfact> 0.45822367E+02</totfact>
</mgrwt>
</event>
<event>
 4    1  0.5621415E-005  0.6981834E+03  0.7818608E-02  0.9720344E-01
          2   -1    0    0  501    0  0.00000000000E+00  0.00000000000E+00  0.94997524965E+03  0.94997524966E+03  0.25500000000E-02 0.  1.
         -2   -1    0    0    0  501 -0.00000000000E+00 -0.00000000000E+00 -0.12828231214E+03  0.12828231216E+03  0.25500000000E-02 0. -1.
    5000001    1    1    2    0    0 -0.15093969616E+03 -0.23904112576E+03  0.30079877774E+03  0.45526624778E+03  0.19200000000E+03 0.  0.
   -5000001    1    1    2    0    0  0.15093969616E+03  0.23904112576E+03  0.52089415977E+03  0.62299131404E+03  0.19200000000E+03 0.  0.
<mgrwt>
<rscale>  0 0.69818342E+03</rscale>
<asrwt>0</asrwt>
<pdfrwt beam="1">  1        2 0.13571075E+00 0.69818342E+03</pdfrwt>
<pdfrwt beam="2">  1       -2 0.18326044E-01 0.69818342E+03</pdfrwt>
<totfact> 0.75338131E+02</totfact>
</mgrwt>
</event>
<event>
 4    1  0.5621415E-005  0.1005528E+04  0.7818608E-02  0.9302503E-01
          2   -1    0    0  501    0  0.00000000000E+00  0.00000000000E+00  0.22894226531E+04  0.22894226531E+04  0.25500000000E-02 0.  1.
         -2   -1    0    0    0  501 -0.00000000000E+00 -0.00000000000E+00 -0.11040839067E+03  0.11040839070E+03  0.25500000000E-02 0. -1.
    5000001    1    1    2    0    0  0.43533394042E+03 -0.13737134266E+03  0.12964844980E+04  0.13878481829E+04  0.19200000000E+03 0.  0.
   -5000001    1    1    2    0    0 -0.43533394042E+03  0.13737134266E+03  0.88252976443E+03  0.10119828608E+04  0.19200000000E+03 0.  0.
<mgrwt>
<rscale>  0 0.10055277E+04</rscale>
<asrwt>0</asrwt>
<pdfrwt beam="1">  1        2 0.32706034E+00 0.10055277E+04</pdfrwt>
<pdfrwt beam="2">  1       -2 0.15772629E-01 0.10055277E+04</pdfrwt>
<totfact> 0.18395190E+02</totfact>
</mgrwt>
</event>
<event>
 4    1  0.5621415E-005  0.4708897E+03  0.7818608E-02  0.1021669E+00
         -2   -1    0    0    0  501 -0.00000000000E+00  0.00000000000E+00  0.50183454293E+03  0.50183454293E+03  0.25500000000E-02 0. -1.
          2   -1    0    0  501    0  0.00000000000E+00 -0.00000000000E+00 -0.11046324509E+03  0.11046324512E+03  0.25500000000E-02 0.  1.
    5000001    1    1    2    0    0 -0.67678620697E+02  0.10499861990E+03  0.12487997774E+03  0.26089100161E+03  0.19200000000E+03 0.  0.
   -5000001    1    1    2    0    0  0.67678620697E+02 -0.10499861990E+03  0.26649132009E+03  0.35140678645E+03  0.19200000000E+03 0.  0.
<mgrwt>
<rscale>  0 0.47088968E+03</rscale>
<asrwt>0</asrwt>
<pdfrwt beam="1">  1        2 0.15780464E-01 0.47088968E+03</pdfrwt>
<pdfrwt beam="2">  1       -2 0.71690648E-01 0.47088968E+03</pdfrwt>
<totfact> 0.66924456E+02</totfact>
</mgrwt>
</event>
<event>
 4    1  0.5621415E-005  0.5420482E+03  0.7818608E-02  0.1003351E+00
         -2   -1    0    0    0  501 -0.00000000000E+00  0.00000000000E+00  0.43105913981E+02  0.43105914057E+02  0.25500000000E-02 0. -1.
          2   -1    0    0  501    0  0.00000000000E+00 -0.00000000000E+00 -0.17040365740E+04  0.17040365740E+04  0.25500000000E-02 0.  1.
    5000001    1    1    2    0    0  0.13448080494E+03 -0.13443967305E+03 -0.76355401212E+03  0.80996162996E+03  0.19200000000E+03 0.  0.
   -5000001    1    1    2    0    0 -0.13448080494E+03  0.13443967305E+03 -0.89737664789E+03  0.93718085809E+03  0.19200000000E+03 0.  0.
<mgrwt>
<rscale>  0 0.54204817E+03</rscale>
<asrwt>0</asrwt>
<pdfrwt beam="1">  1        2 0.24343375E+00 0.54204817E+03</pdfrwt>
<pdfrwt beam="2">  1       -2 0.61579888E-02 0.54204817E+03</pdfrwt>
<totfact> 0.17357467E+03</totfact>
</mgrwt>
</event>
<event>
 4    1  0.5621415E-005  0.6155012E+03  0.7818608E-02  0.9873758E-01
         -2   -1    0    0    0  501 -0.00000000000E+00  0.00000000000E+00  0.17163725034E+03  0.17163725036E+03  0.25500000000E-02 0.  1.
          2   -1    0    0  501    0  0.00000000000E+00 -0.00000000000E+00 -0.55180583042E+03  0.55180583043E+03  0.25500000000E-02 0. -1.
    5000001    1    1    2    0    0 -0.17582309748E+03 -0.35528604206E+02 -0.37840223507E+03  0.46068242296E+03  0.19200000000E+03 0.  0.
   -5000001    1    1    2    0    0  0.17582309748E+03  0.35528604206E+02 -0.17663450201E+01  0.26276065782E+03  0.19200000000E+03 0.  0.
<mgrwt>
<rscale>  0 0.61550121E+03</rscale>
<asrwt>0</asrwt>
<pdfrwt beam="1">  1        2 0.78829403E-01 0.61550121E+03</pdfrwt>
<pdfrwt beam="2">  1       -2 0.24519608E-01 0.61550121E+03</pdfrwt>
<totfact> 0.89153981E+02</totfact>
</mgrwt>
</event>
<event>
 4    1  0.5621415E-005  0.5115568E+03  0.7818608E-02  0.1010806E+00
          2   -1    0    0  501    0  0.00000000000E+00  0.00000000000E+00  0.95826598491E+03  0.95826598491E+03  0.25500000000E-02 0.  1.
         -2   -1    0    0    0  501 -0.00000000000E+00 -0.00000000000E+00 -0.68271841903E+02  0.68271841951E+02  0.25500000000E-02 0. -1.
    5000001    1    1    2    0    0 -0.12273710302E+03  0.44373088029E+02  0.22956732986E+03  0.32649429756E+03  0.19200000000E+03 0.  0.
   -5000001    1    1    2    0    0  0.12273710302E+03 -0.44373088029E+02  0.66042681315E+03  0.70004352931E+03  0.19200000000E+03 0.  0.
<mgrwt>
<rscale>  0 0.51155678E+03</rscale>
<asrwt>0</asrwt>
<pdfrwt beam="1">  1        2 0.13689514E+00 0.51155678E+03</pdfrwt>
<pdfrwt beam="2">  1       -2 0.97531206E-02 0.51155678E+03</pdfrwt>
<totfact> 0.21359088E+03</totfact>
</mgrwt>
</event>
<event>
 4    1  0.5621415E-005  0.8515034E+03  0.7818608E-02  0.9488321E-01
          2   -1    0    0  501    0  0.00000000000E+00  0.00000000000E+00  0.13827957348E+04  0.13827957348E+04  0.25500000000E-02 0.  1.
         -2   -1    0    0    0  501 -0.00000000000E+00 -0.00000000000E+00 -0.13108553287E+03  0.13108553290E+03  0.25500000000E-02 0. -1.
    5000001    1    1    2    0    0 -0.34856449466E+02 -0.37829204700E+03  0.64182359000E+03  0.77014373046E+03  0.19200000000E+03 0.  0.
   -5000001    1    1    2    0    0  0.34856449466E+02  0.37829204700E+03  0.60988661196E+03  0.74373753727E+03  0.19200000000E+03 0.  0.
<mgrwt>
<rscale>  0 0.85150341E+03</rscale>
<asrwt>0</asrwt>
<pdfrwt beam="1">  1        2 0.19754225E+00 0.85150341E+03</pdfrwt>
<pdfrwt beam="2">  1       -2 0.18726504E-01 0.85150341E+03</pdfrwt>
<totfact> 0.40611202E+02</totfact>
</mgrwt>
</event>
<event>
 4    1  0.5621415E-005  0.2114299E+04  0.7818608E-02  0.8554971E-01
          2   -1    0    0  501    0  0.00000000000E+00  0.00000000000E+00  0.24276995001E+04  0.24276995001E+04  0.25500000000E-02 0.  1.
         -2   -1    0    0    0  501 -0.00000000000E+00 -0.00000000000E+00 -0.46033906081E+03  0.46033906082E+03  0.25500000000E-02 0. -1.
    5000001    1    1    2    0    0 -0.92991339088E+03 -0.41363128422E+03  0.12730280520E+04  0.16411258864E+04  0.19200000000E+03 0.  0.
   -5000001    1    1    2    0    0  0.92991339088E+03  0.41363128422E+03  0.69433238725E+03  0.12469126745E+04  0.19200000000E+03 0.  0.
<mgrwt>
<rscale>  0 0.21142989E+04</rscale>
<asrwt>0</asrwt>
<pdfrwt beam="1">  1        2 0.34681422E+00 0.21142989E+04</pdfrwt>
<pdfrwt beam="2">  1       -2 0.65762721E-01 0.21142989E+04</pdfrwt>
<totfact> 0.94681535E+00</totfact>
</mgrwt>
</event>
<event>
 4    1  0.5621415E-005  0.8696373E+03  0.7818608E-02  0.9464353E-01
          2   -1    0    0  501    0  0.00000000000E+00  0.00000000000E+00  0.16077508329E+04  0.16077508329E+04  0.25500000000E-02 0.  1.
         -2   -1    0    0    0  501 -0.00000000000E+00 -0.00000000000E+00 -0.11759737507E+03  0.11759737510E+03  0.25500000000E-02 0. -1.
    5000001    1    1    2    0    0 -0.86901326309E+02  0.31748033643E+03  0.11605674883E+04  0.12215262991E+04  0.19200000000E+03 0.  0.
   -5000001    1    1    2    0    0  0.86901326309E+02 -0.31748033643E+03  0.32958596946E+03  0.50382190881E+03  0.19200000000E+03 0.  0.
<mgrwt>
<rscale>  0 0.86963734E+03</rscale>
<asrwt>0</asrwt>
<pdfrwt beam="1">  1        2 0.22967869E+00 0.86963734E+03</pdfrwt>
<pdfrwt beam="2">  1       -2 0.16799625E-01 0.86963734E+03</pdfrwt>
<totfact> 0.37216027E+02</totfact>
</mgrwt>
</event>
<event>
 4    1  0.5621415E-005  0.5935360E+03  0.7818608E-02  0.9918908E-01
          2   -1    0    0  501    0  0.00000000000E+00  0.00000000000E+00  0.73439097880E+03  0.73439097880E+03  0.25500000000E-02 0.  1.
         -2   -1    0    0    0  501 -0.00000000000E+00 -0.00000000000E+00 -0.11992418223E+03  0.11992418226E+03  0.25500000000E-02 0. -1.
    5000001    1    1    2    0    0  0.17041444783E+02 -0.21701399446E+03  0.39621544138E+03  0.49115797929E+03  0.19200000000E+03 0.  0.
   -5000001    1    1    2    0    0 -0.17041444783E+02  0.21701399446E+03  0.21825135519E+03  0.36315718177E+03  0.19200000000E+03 0.  0.
<mgrwt>
<rscale>  0 0.59353597E+03</rscale>
<asrwt>0</asrwt>
<pdfrwt beam="1">  1        2 0.10491300E+00 0.59353597E+03</pdfrwt>
<pdfrwt beam="2">  1       -2 0.17132026E-01 0.59353597E+03</pdfrwt>
<totfact> 0.11859698E+03</totfact>
</mgrwt>
</event>
<event>
 4    1  0.5621415E-005  0.4364500E+03  0.7818608E-02  0.1031842E+00
         -2   -1    0    0    0  501 -0.00000000000E+00  0.00000000000E+00  0.25572320842E+03  0.25572320844E+03  0.25500000000E-02 0. -1.
          2   -1    0    0  501    0  0.00000000000E+00 -0.00000000000E+00 -0.18622535980E+03  0.18622535982E+03  0.25500000000E-02 0.  1.
    5000001    1    1    2    0    0  0.32036897672E+02  0.77442376582E+02  0.96629062463E+02  0.23070513695E+03  0.19200000000E+03 0.  0.
   -5000001    1    1    2    0    0 -0.32036897672E+02 -0.77442376582E+02 -0.27131213837E+02  0.21124343130E+03  0.19200000000E+03 0.  0.
<mgrwt>
<rscale>  0 0.43644998E+03</rscale>
<asrwt>0</asrwt>
<pdfrwt beam="1">  1        2 0.26603623E-01 0.43644998E+03</pdfrwt>
<pdfrwt beam="2">  1       -2 0.36531887E-01 0.43644998E+03</pdfrwt>
<totfact> 0.14329752E+03</totfact>
</mgrwt>
</event>
<event>
 4    1  0.5621415E-005  0.2236862E+04  0.7818608E-02  0.8503240E-01
          2   -1    0    0  501    0  0.00000000000E+00  0.00000000000E+00  0.21603945027E+04  0.21603945027E+04  0.25500000000E-02 0.  1.
         -2   -1    0    0    0  501 -0.00000000000E+00 -0.00000000000E+00 -0.57900880204E+03  0.57900880205E+03  0.25500000000E-02 0. -1.
    5000001    1    1    2    0    0  0.99511039405E+03  0.37096627866E+03  0.11501744434E+04  0.15772209505E+04  0.19200000000E+03 0.  0.
   -5000001    1    1    2    0    0 -0.99511039405E+03 -0.37096627866E+03  0.43121125721E+03  0.11621823543E+04  0.19200000000E+03 0.  0.
<mgrwt>
<rscale>  0 0.22368616E+04</rscale>
<asrwt>0</asrwt>
<pdfrwt beam="1">  1        2 0.30862779E+00 0.22368616E+04</pdfrwt>
<pdfrwt beam="2">  1       -2 0.82715541E-01 0.22368616E+04</pdfrwt>
<totfact> 0.77812610E+00</totfact>
</mgrwt>
</event>
<event>
 4    1  0.5621415E-005  0.6005335E+03  0.7818608E-02  0.9904300E-01
         -2   -1    0    0    0  501 -0.00000000000E+00  0.00000000000E+00  0.62169087639E+02  0.62169087691E+02  0.25500000000E-02 0. -1.
          2   -1    0    0  501    0  0.00000000000E+00 -0.00000000000E+00 -0.14502404600E+04  0.14502404600E+04  0.25500000000E-02 0.  1.
    5000001    1    1    2    0    0 -0.14620884808E+03  0.17322679773E+03 -0.80414597358E+03  0.85726267709E+03  0.19200000000E+03 0.  0.
   -5000001    1    1    2    0    0  0.14620884808E+03 -0.17322679773E+03 -0.58392539875E+03  0.65514687056E+03  0.19200000000E+03 0.  0.
<mgrwt>
<rscale>  0 0.60053352E+03</rscale>
<asrwt>0</asrwt>
<pdfrwt beam="1">  1        2 0.20717719E+00 0.60053352E+03</pdfrwt>
<pdfrwt beam="2">  1       -2 0.88812991E-02 0.60053352E+03</pdfrwt>
<totfact> 0.13101745E+03</totfact>
</mgrwt>
</event>
<event>
 4    1  0.5621415E-005  0.4710600E+03  0.7818608E-02  0.1021621E+00
         -2   -1    0    0    0  501 -0.00000000000E+00  0.00000000000E+00  0.24872965778E+02  0.24872965909E+02  0.25500000000E-02 0. -1.
          2   -1    0    0  501    0  0.00000000000E+00 -0.00000000000E+00 -0.22303086189E+04  0.22303086189E+04  0.25500000000E-02 0.  1.
    5000001    1    1    2    0    0  0.86774658542E+02 -0.23388322505E+02 -0.15940693719E+04  0.16081038578E+04  0.19200000000E+03 0.  0.
   -5000001    1    1    2    0    0 -0.86774658542E+02  0.23388322505E+02 -0.61136628120E+03  0.64707772700E+03  0.19200000000E+03 0.  0.
<mgrwt>
<rscale>  0 0.47106004E+03</rscale>
<asrwt>0</asrwt>
<pdfrwt beam="1">  1        2 0.31861539E+00 0.47106004E+03</pdfrwt>
<pdfrwt beam="2">  1       -2 0.35532822E-02 0.47106004E+03</pdfrwt>
<totfact> 0.22149039E+03</totfact>
</mgrwt>
</event>
<event>
 4    1  0.5621415E-005  0.5294597E+03  0.7818608E-02  0.1006363E+00
          2   -1    0    0  501    0  0.00000000000E+00  0.00000000000E+00  0.78007484672E+03  0.78007484672E+03  0.25500000000E-02 0.  1.
         -2   -1    0    0    0  501 -0.00000000000E+00 -0.00000000000E+00 -0.89839944400E+02  0.89839944436E+02  0.25500000000E-02 0. -1.
    5000001    1    1    2    0    0 -0.96769137615E+02  0.10904589545E+03  0.16541385300E+03  0.29237136671E+03  0.19200000000E+03 0.  0.
   -5000001    1    1    2    0    0  0.96769137615E+02 -0.10904589545E+03  0.52482104932E+03  0.57754342445E+03  0.19200000000E+03 0.  0.
<mgrwt>
<rscale>  0 0.52945965E+03</rscale>
<asrwt>0</asrwt>
<pdfrwt beam="1">  1        2 0.11143926E+00 0.52945965E+03</pdfrwt>
<pdfrwt beam="2">  1       -2 0.12834278E-01 0.52945965E+03</pdfrwt>
<totfact> 0.17872317E+03</totfact>
</mgrwt>
</event>
<event>
 4    1  0.5621415E-005  0.4215529E+03  0.7818608E-02  0.1036562E+00
         -2   -1    0    0    0  501 -0.00000000000E+00  0.00000000000E+00  0.32645167249E+03  0.32645167250E+03  0.25500000000E-02 0. -1.
          2   -1    0    0  501    0  0.00000000000E+00 -0.00000000000E+00 -0.13608968693E+03  0.13608968695E+03  0.25500000000E-02 0.  1.
    5000001    1    1    2    0    0  0.86434614505E+02  0.76215595224E+01  0.88813721440E+02  0.22865018668E+03  0.19200000000E+03 0.  0.
   -5000001    1    1    2    0    0 -0.86434614505E+02 -0.76215595224E+01  0.10154826412E+03  0.23389117277E+03  0.19200000000E+03 0.  0.
<mgrwt>
<rscale>  0 0.42155287E+03</rscale>
<asrwt>0</asrwt>
<pdfrwt beam="1">  1        2 0.19441384E-01 0.42155287E+03</pdfrwt>
<pdfrwt beam="2">  1       -2 0.46635953E-01 0.42155287E+03</pdfrwt>
<totfact> 0.12772086E+03</totfact>
</mgrwt>
</event>
<event>
 4    1  0.5621415E-005  0.4013401E+03  0.7818608E-02  0.1043317E+00
         -2   -1    0    0    0  501 -0.00000000000E+00  0.00000000000E+00  0.34842828781E+02  0.34842828874E+02  0.25500000000E-02 0. -1.
          2   -1    0    0  501    0  0.00000000000E+00 -0.00000000000E+00 -0.11557175181E+04  0.11557175181E+04  0.25500000000E-02 0.  1.
    5000001    1    1    2    0    0 -0.28864194256E+01  0.50130729926E+02 -0.64858901981E+03  0.67827217112E+03  0.19200000000E+03 0.  0.
   -5000001    1    1    2    0    0  0.28864194256E+01 -0.50130729926E+02 -0.47228566955E+03  0.51228817589E+03  0.19200000000E+03 0.  0.
<mgrwt>
<rscale>  0 0.40134009E+03</rscale>
<asrwt>0</asrwt>
<pdfrwt beam="1">  1        2 0.16510248E+00 0.40134009E+03</pdfrwt>
<pdfrwt beam="2">  1       -2 0.49775477E-02 0.40134009E+03</pdfrwt>
<totfact> 0.46985301E+03</totfact>
</mgrwt>
</event>
<event>
 4    1  0.5621415E-005  0.5203833E+03  0.7818608E-02  0.1008591E+00
          2   -1    0    0  501    0  0.00000000000E+00  0.00000000000E+00  0.97935428502E+03  0.97935428502E+03  0.25500000000E-02 0.  1.
         -2   -1    0    0    0  501 -0.00000000000E+00 -0.00000000000E+00 -0.69126874107E+02  0.69126874154E+02  0.25500000000E-02 0. -1.
    5000001    1    1    2    0    0 -0.11360562932E+03  0.49046725177E+01  0.72471957504E+03  0.75829595626E+03  0.19200000000E+03 0.  0.
   -5000001    1    1    2    0    0  0.11360562932E+03 -0.49046725177E+01  0.18550783587E+03  0.29018520292E+03  0.19200000000E+03 0.  0.
<mgrwt>
<rscale>  0 0.52038332E+03</rscale>
<asrwt>0</asrwt>
<pdfrwt beam="1">  1        2 0.13990776E+00 0.52038332E+03</pdfrwt>
<pdfrwt beam="2">  1       -2 0.98752675E-02 0.52038332E+03</pdfrwt>
<totfact> 0.20316513E+03</totfact>
</mgrwt>
</event>
<event>
 4    1  0.5621415E-005  0.9391915E+03  0.7818608E-02  0.9377874E-01
         -2   -1    0    0    0  501 -0.00000000000E+00  0.00000000000E+00  0.13316110313E+04  0.13316110313E+04  0.25500000000E-02 0. -1.
          2   -1    0    0  501    0  0.00000000000E+00 -0.00000000000E+00 -0.16560404544E+03  0.16560404545E+03  0.25500000000E-02 0.  1.
    5000001    1    1    2    0    0 -0.29851843296E+03 -0.17705928337E+03  0.98374495304E+03  0.10606985327E+04  0.19200000000E+03 0.  0.
   -5000001    1    1    2    0    0  0.29851843296E+03  0.17705928337E+03  0.18226203287E+03  0.43651654410E+03  0.19200000000E+03 0.  0.
<mgrwt>
<rscale>  0 0.93919151E+03</rscale>
<asrwt>0</asrwt>
<pdfrwt beam="1">  1        2 0.23657722E-01 0.93919151E+03</pdfrwt>
<pdfrwt beam="2">  1       -2 0.19023014E+00 0.93919151E+03</pdfrwt>
<totfact> 0.36225747E+01</totfact>
</mgrwt>
</event>
<event>
 4    1  0.5621415E-005  0.1790223E+04  0.7818608E-02  0.8711516E-01
         -2   -1    0    0    0  501 -0.00000000000E+00  0.00000000000E+00  0.29875970493E+03  0.29875970494E+03  0.25500000000E-02 0. -1.
          2   -1    0    0  501    0  0.00000000000E+00 -0.00000000000E+00 -0.26818360187E+04  0.26818360187E+04  0.25500000000E-02 0.  1.
    5000001    1    1    2    0    0 -0.50650948792E+03  0.69631579401E+03 -0.14437791129E+04  0.16919721254E+04  0.19200000000E+03 0.  0.
   -5000001    1    1    2    0    0  0.50650948792E+03 -0.69631579401E+03 -0.93929720090E+03  0.12886235983E+04  0.19200000000E+03 0.  0.
<mgrwt>
<rscale>  0 0.17902229E+04</rscale>
<asrwt>0</asrwt>
<pdfrwt beam="1">  1        2 0.38311942E+00 0.17902229E+04</pdfrwt>
<pdfrwt beam="2">  1       -2 0.42679959E-01 0.17902229E+04</pdfrwt>
<totfact> 0.17403104E+01</totfact>
</mgrwt>
</event>
<event>
 4    1  0.5621415E-005  0.5895319E+03  0.7818608E-02  0.9927365E-01
         -2   -1    0    0    0  501 -0.00000000000E+00  0.00000000000E+00  0.83234672761E+02  0.83234672800E+02  0.25500000000E-02 0.  1.
          2   -1    0    0  501    0  0.00000000000E+00 -0.00000000000E+00 -0.10438794378E+04  0.10438794378E+04  0.25500000000E-02 0. -1.
    5000001    1    1    2    0    0  0.18062117147E+03 -0.23703795115E+02 -0.23224107295E+03  0.35211616471E+03  0.19200000000E+03 0.  0.
   -5000001    1    1    2    0    0 -0.18062117147E+03  0.23703795115E+02 -0.72840369209E+03  0.77499794589E+03  0.19200000000E+03 0.  0.
<mgrwt>
<rscale>  0 0.58953189E+03</rscale>
<asrwt>0</asrwt>
<pdfrwt beam="1">  1        2 0.14912563E+00 0.58953189E+03</pdfrwt>
<pdfrwt beam="2">  1       -2 0.11890668E-01 0.58953189E+03</pdfrwt>
<totfact> 0.13711394E+03</totfact>
</mgrwt>
</event>
<event>
 4    1  0.5621415E-005  0.4715200E+03  0.7818608E-02  0.1021492E+00
         -2   -1    0    0    0  501 -0.00000000000E+00  0.00000000000E+00  0.16900767659E+03  0.16900767660E+03  0.25500000000E-02 0. -1.
          2   -1    0    0  501    0  0.00000000000E+00 -0.00000000000E+00 -0.32887722214E+03  0.32887722215E+03  0.25500000000E-02 0.  1.
    5000001    1    1    2    0    0 -0.98397097563E+01 -0.12641813637E+03 -0.13419286738E+03  0.26636458238E+03  0.19200000000E+03 0.  0.
   -5000001    1    1    2    0    0  0.98397097563E+01  0.12641813637E+03 -0.25676678174E+02  0.23152031637E+03  0.19200000000E+03 0.  0.
<mgrwt>
<rscale>  0 0.47151999E+03</rscale>
<asrwt>0</asrwt>
<pdfrwt beam="1">  1        2 0.46982460E-01 0.47151999E+03</pdfrwt>
<pdfrwt beam="2">  1       -2 0.24143954E-01 0.47151999E+03</pdfrwt>
<totfact> 0.16348076E+03</totfact>
</mgrwt>
</event>
<event>
 4    1  0.5621415E-005  0.5319854E+03  0.7818608E-02  0.1005752E+00
         -2   -1    0    0    0  501 -0.00000000000E+00  0.00000000000E+00  0.28894240986E+03  0.28894240987E+03  0.25500000000E-02 0. -1.
          2   -1    0    0  501    0  0.00000000000E+00 -0.00000000000E+00 -0.24486582075E+03  0.24486582077E+03  0.25500000000E-02 0.  1.
    5000001    1    1    2    0    0 -0.84109852430E+02  0.27458275142E+02  0.18402158416E+03  0.28027908874E+03  0.19200000000E+03 0.  0.
   -5000001    1    1    2    0    0  0.84109852430E+02 -0.27458275142E+02 -0.13994499506E+03  0.25352914190E+03  0.19200000000E+03 0.  0.
<mgrwt>
<rscale>  0 0.53198541E+03</rscale>
<asrwt>0</asrwt>
<pdfrwt beam="1">  1        2 0.34980831E-01 0.53198541E+03</pdfrwt>
<pdfrwt beam="2">  1       -2 0.41277487E-01 0.53198541E+03</pdfrwt>
<totfact> 0.83523014E+02</totfact>
</mgrwt>
</event>
<event>
 4    1  0.5621415E-005  0.6381520E+03  0.7818608E-02  0.9829269E-01
          2   -1    0    0  501    0  0.00000000000E+00  0.00000000000E+00  0.70804484932E+03  0.70804484933E+03  0.25500000000E-02 0.  1.
         -2   -1    0    0    0  501 -0.00000000000E+00 -0.00000000000E+00 -0.14378960337E+03  0.14378960340E+03  0.25500000000E-02 0. -1.
    5000001    1    1    2    0    0  0.24054352559E+03  0.54930294724E+02  0.36725440058E+03  0.48230521429E+03  0.19200000000E+03 0.  0.
   -5000001    1    1    2    0    0 -0.24054352559E+03 -0.54930294724E+02  0.19700084537E+03  0.36952923844E+03  0.19200000000E+03 0.  0.
<mgrwt>
<rscale>  0 0.63815198E+03</rscale>
<asrwt>0</asrwt>
<pdfrwt beam="1">  1        2 0.10114926E+00 0.63815198E+03</pdfrwt>
<pdfrwt beam="2">  1       -2 0.20541373E-01 0.63815198E+03</pdfrwt>
<totfact> 0.90595447E+02</totfact>
</mgrwt>
</event>
<event>
 4    1  0.5621415E-005  0.1101512E+04  0.7818608E-02  0.9203719E-01
         -2   -1    0    0    0  501 -0.00000000000E+00  0.00000000000E+00  0.24287566793E+03  0.24287566795E+03  0.25500000000E-02 0. -1.
          2   -1    0    0  501    0  0.00000000000E+00 -0.00000000000E+00 -0.12489199409E+04  0.12489199409E+04  0.25500000000E-02 0.  1.
    5000001    1    1    2    0    0  0.23522279805E+03 -0.32208029073E+03 -0.94686352626E+03  0.10452176882E+04  0.19200000000E+03 0.  0.
   -5000001    1    1    2    0    0 -0.23522279805E+03  0.32208029073E+03 -0.59180746690E+02  0.44657792062E+03  0.19200000000E+03 0.  0.
<mgrwt>
<rscale>  0 0.11015122E+04</rscale>
<asrwt>0</asrwt>
<pdfrwt beam="1">  1        2 0.17841713E+00 0.11015122E+04</pdfrwt>
<pdfrwt beam="2">  1       -2 0.34696525E-01 0.11015122E+04</pdfrwt>
<totfact> 0.15478109E+02</totfact>
</mgrwt>
</event>
<event>
 4    1  0.5621415E-005  0.5387337E+03  0.7818608E-02  0.1004136E+00
         -2   -1    0    0    0  501 -0.00000000000E+00  0.00000000000E+00  0.36608198099E+02  0.36608198187E+02  0.25500000000E-02 0. -1.
          2   -1    0    0  501    0  0.00000000000E+00 -0.00000000000E+00 -0.19820288772E+04  0.19820288772E+04  0.25500000000E-02 0.  1.
    5000001    1    1    2    0    0  0.18702527217E+03 -0.92661647229E+01 -0.87864699920E+03  0.91866689471E+03  0.19200000000E+03 0.  0.
   -5000001    1    1    2    0    0 -0.18702527217E+03  0.92661647229E+01 -0.10667736799E+04  0.10999701806E+04  0.19200000000E+03 0.  0.
<mgrwt>
<rscale>  0 0.53873372E+03</rscale>
<asrwt>0</asrwt>
<pdfrwt beam="1">  1        2 0.28314691E+00 0.53873372E+03</pdfrwt>
<pdfrwt beam="2">  1       -2 0.52297439E-02 0.53873372E+03</pdfrwt>
<totfact> 0.16231792E+03</totfact>
</mgrwt>
</event>
<event>
 4    1  0.5621415E-005  0.6727134E+03  0.7818608E-02  0.9765068E-01
         -2   -1    0    0    0  501 -0.00000000000E+00  0.00000000000E+00  0.40175877663E+03  0.40175877664E+03  0.25500000000E-02 0. -1.
          2   -1    0    0  501    0  0.00000000000E+00 -0.00000000000E+00 -0.28160140995E+03  0.28160140996E+03  0.25500000000E-02 0.  1.
    5000001    1    1    2    0    0  0.15774029338E+03  0.22669202445E+03  0.59315893859E+02  0.34154596963E+03  0.19200000000E+03 0.  0.
   -5000001    1    1    2    0    0 -0.15774029338E+03 -0.22669202445E+03  0.60841472821E+02  0.34181421697E+03  0.19200000000E+03 0.  0.
<mgrwt>
<rscale>  0 0.67271342E+03</rscale>
<asrwt>0</asrwt>
<pdfrwt beam="1">  1        2 0.40228773E-01 0.67271342E+03</pdfrwt>
<pdfrwt beam="2">  1       -2 0.57394110E-01 0.67271342E+03</pdfrwt>
<totfact> 0.36720518E+02</totfact>
</mgrwt>
</event>
<event>
 4    1  0.5621415E-005  0.7700432E+03  0.7818608E-02  0.9604420E-01
         -2   -1    0    0    0  501 -0.00000000000E+00  0.00000000000E+00  0.59616013337E+02  0.59616013392E+02  0.25500000000E-02 0.  1.
          2   -1    0    0  501    0  0.00000000000E+00 -0.00000000000E+00 -0.24866076244E+04  0.24866076244E+04  0.25500000000E-02 0. -1.
    5000001    1    1    2    0    0  0.53561698590E+02 -0.51408166845E+02 -0.13762614272E+03  0.24762191005E+03  0.19200000000E+03 0.  0.
   -5000001    1    1    2    0    0 -0.53561698590E+02  0.51408166845E+02 -0.22893654683E+04  0.22986017277E+04  0.19200000000E+03 0.  0.
<mgrwt>
<rscale>  0 0.77004320E+03</rscale>
<asrwt>0</asrwt>
<pdfrwt beam="1">  1        2 0.35522960E+00 0.77004320E+03</pdfrwt>
<pdfrwt beam="2">  1       -2 0.85165749E-02 0.77004320E+03</pdfrwt>
<totfact> 0.41095034E+02</totfact>
</mgrwt>
</event>
<event>
 4    1  0.5621415E-005  0.1130535E+04  0.7818608E-02  0.9175931E-01
          2   -1    0    0  501    0  0.00000000000E+00  0.00000000000E+00  0.66777784562E+03  0.66777784562E+03  0.25500000000E-02 0.  1.
         -2   -1    0    0    0  501 -0.00000000000E+00 -0.00000000000E+00 -0.47849372692E+03  0.47849372692E+03  0.25500000000E-02 0. -1.
    5000001    1    1    2    0    0 -0.52897619563E+03 -0.37208871009E+02  0.13342622266E+03  0.57954022510E+03  0.19200000000E+03 0.  0.
   -5000001    1    1    2    0    0  0.52897619563E+03  0.37208871009E+02  0.55857896044E+02  0.56673134744E+03  0.19200000000E+03 0.  0.
<mgrwt>
<rscale>  0 0.11305353E+04</rscale>
<asrwt>0</asrwt>
<pdfrwt beam="1">  1        2 0.95396835E-01 0.11305353E+04</pdfrwt>
<pdfrwt beam="2">  1       -2 0.68356246E-01 0.11305353E+04</pdfrwt>
<totfact> 0.92637177E+01</totfact>
</mgrwt>
</event>
<event>
 4    1  0.5621415E-005  0.4755421E+03  0.7818608E-02  0.1020368E+00
          2   -1    0    0  501    0  0.00000000000E+00  0.00000000000E+00  0.17605693377E+03  0.17605693379E+03  0.25500000000E-02 0.  1.
         -2   -1    0    0    0  501 -0.00000000000E+00 -0.00000000000E+00 -0.32111808911E+03  0.32111808912E+03  0.25500000000E-02 0. -1.
    5000001    1    1    2    0    0 -0.51916555797E+01  0.13800589787E+03 -0.98107424142E+02  0.25605008847E+03  0.19200000000E+03 0.  0.
   -5000001    1    1    2    0    0  0.51916555797E+01 -0.13800589787E+03 -0.46953731192E+02  0.24112493444E+03  0.19200000000E+03 0.  0.
<mgrwt>
<rscale>  0 0.47554207E+03</rscale>
<asrwt>0</asrwt>
<pdfrwt beam="1">  1        2 0.25150991E-01 0.47554207E+03</pdfrwt>
<pdfrwt beam="2">  1       -2 0.45874012E-01 0.47554207E+03</pdfrwt>
<totfact> 0.98226723E+02</totfact>
</mgrwt>
</event>
<event>
 4    1  0.5621415E-005  0.5489197E+03  0.7818608E-02  0.1001744E+00
         -2   -1    0    0    0  501 -0.00000000000E+00  0.00000000000E+00  0.58441766427E+02  0.58441766483E+02  0.25500000000E-02 0. -1.
          2   -1    0    0  501    0  0.00000000000E+00 -0.00000000000E+00 -0.12889448442E+04  0.12889448442E+04  0.25500000000E-02 0.  1.
    5000001    1    1    2    0    0  0.12826040848E+03  0.14173588556E+03 -0.72293111076E+03  0.77203185462E+03  0.19200000000E+03 0.  0.
   -5000001    1    1    2    0    0 -0.12826040848E+03 -0.14173588556E+03 -0.50757196706E+03  0.57535475611E+03  0.19200000000E+03 0.  0.
<mgrwt>
<rscale>  0 0.54891972E+03</rscale>
<asrwt>0</asrwt>
<pdfrwt beam="1">  1        2 0.18413496E+00 0.54891972E+03</pdfrwt>
<pdfrwt beam="2">  1       -2 0.83488246E-02 0.54891972E+03</pdfrwt>
<totfact> 0.17663706E+03</totfact>
</mgrwt>
</event>
<event>
 4    1  0.5621415E-005  0.5776027E+03  0.7818608E-02  0.9952995E-01
          2   -1    0    0  501    0  0.00000000000E+00  0.00000000000E+00  0.37260863233E+04  0.37260863233E+04  0.25500000000E-02 0.  1.
         -2   -1    0    0    0  501 -0.00000000000E+00 -0.00000000000E+00 -0.22384401210E+02  0.22384401356E+02  0.25500000000E-02 0. -1.
    5000001    1    1    2    0    0  0.13552934135E+03 -0.16348624374E+03  0.16050495148E+04  0.16303815195E+04  0.19200000000E+03 0.  0.
   -5000001    1    1    2    0    0 -0.13552934135E+03  0.16348624374E+03  0.20986524073E+04  0.21180892052E+04  0.19200000000E+03 0.  0.
<mgrwt>
<rscale>  0 0.57760267E+03</rscale>
<asrwt>0</asrwt>
<pdfrwt beam="1">  1        2 0.53229769E+00 0.57760267E+03</pdfrwt>
<pdfrwt beam="2">  1       -2 0.31977737E-02 0.57760267E+03</pdfrwt>
<totfact> 0.39126343E+02</totfact>
</mgrwt>
</event>
<event>
 4    1  0.5621415E-005  0.4322742E+03  0.7818608E-02  0.1033144E+00
         -2   -1    0    0    0  501 -0.00000000000E+00  0.00000000000E+00  0.33494477112E+02  0.33494477209E+02  0.25500000000E-02 0. -1.
          2   -1    0    0  501    0  0.00000000000E+00 -0.00000000000E+00 -0.13947148140E+04  0.13947148140E+04  0.25500000000E-02 0.  1.
    5000001    1    1    2    0    0 -0.60257801986E+02  0.36342895454E+02 -0.44934749680E+03  0.49368915486E+03  0.19200000000E+03 0.  0.
   -5000001    1    1    2    0    0  0.60257801986E+02 -0.36342895454E+02 -0.91187284011E+03  0.93452013637E+03  0.19200000000E+03 0.  0.
<mgrwt>
<rscale>  0 0.43227419E+03</rscale>
<asrwt>0</asrwt>
<pdfrwt beam="1">  1        2 0.19924494E+00 0.43227419E+03</pdfrwt>
<pdfrwt beam="2">  1       -2 0.47849262E-02 0.43227419E+03</pdfrwt>
<totfact> 0.37086619E+03</totfact>
</mgrwt>
</event>
<event>
 4    1  0.5621415E-005  0.1470303E+04  0.7818608E-02  0.8904445E-01
         -2   -1    0    0    0  501 -0.00000000000E+00  0.00000000000E+00  0.16976972110E+03  0.16976972112E+03  0.25500000000E-02 0. -1.
          2   -1    0    0  501    0  0.00000000000E+00 -0.00000000000E+00 -0.31834147466E+04  0.31834147466E+04  0.25500000000E-02 0.  1.
    5000001    1    1    2    0    0  0.15471545411E+03  0.40972537408E+03 -0.23341017848E+03  0.53212410707E+03  0.19200000000E+03 0.  0.
   -5000001    1    1    2    0    0 -0.15471545411E+03 -0.40972537408E+03 -0.27802348471E+04  0.28210603607E+04  0.19200000000E+03 0.  0.
<mgrwt>
<rscale>  0 0.14703026E+04</rscale>
<asrwt>0</asrwt>
<pdfrwt beam="1">  1        2 0.45477350E+00 0.14703026E+04</pdfrwt>
<pdfrwt beam="2">  1       -2 0.24252819E-01 0.14703026E+04</pdfrwt>
<totfact> 0.27454490E+01</totfact>
</mgrwt>
</event>
<event>
 4    1  0.5621415E-005  0.9168041E+03  0.7818608E-02  0.9404816E-01
         -2   -1    0    0    0  501 -0.00000000000E+00  0.00000000000E+00  0.44209620675E+03  0.44209620675E+03  0.25500000000E-02 0. -1.
          2   -1    0    0  501    0  0.00000000000E+00 -0.00000000000E+00 -0.47530930446E+03  0.47530930447E+03  0.25500000000E-02 0.  1.
    5000001    1    1    2    0    0 -0.38876677683E+03 -0.13936270289E+03  0.35455177145E+02  0.45681794985E+03  0.19200000000E+03 0.  0.
   -5000001    1    1    2    0    0  0.38876677683E+03  0.13936270289E+03 -0.68668274863E+02  0.46058756137E+03  0.19200000000E+03 0.  0.
<mgrwt>
<rscale>  0 0.91680410E+03</rscale>
<asrwt>0</asrwt>
<pdfrwt beam="1">  1        2 0.67901329E-01 0.91680410E+03</pdfrwt>
<pdfrwt beam="2">  1       -2 0.63156601E-01 0.91680410E+03</pdfrwt>
<totfact> 0.16572659E+02</totfact>
</mgrwt>
</event>
<event>
 4    1  0.5621415E-005  0.7927535E+03  0.7818608E-02  0.9570566E-01
         -2   -1    0    0    0  501 -0.00000000000E+00  0.00000000000E+00  0.72748228318E+02  0.72748228363E+02  0.25500000000E-02 0. -1.
          2   -1    0    0  501    0  0.00000000000E+00 -0.00000000000E+00 -0.21597025513E+04  0.21597025513E+04  0.25500000000E-02 0.  1.
    5000001    1    1    2    0    0 -0.21219024352E+03  0.15853448460E+03 -0.41320122222E+03  0.52702669031E+03  0.19200000000E+03 0.  0.
   -5000001    1    1    2    0    0  0.21219024352E+03 -0.15853448460E+03 -0.16737531008E+04  0.17054240894E+04  0.19200000000E+03 0.  0.
<mgrwt>
<rscale>  0 0.79275352E+03</rscale>
<asrwt>0</asrwt>
<pdfrwt beam="1">  1        2 0.30852890E+00 0.79275352E+03</pdfrwt>
<pdfrwt beam="2">  1       -2 0.10392605E-01 0.79275352E+03</pdfrwt>
<totfact> 0.43655996E+02</totfact>
</mgrwt>
</event>
<event>
 4    1  0.5621415E-005  0.6658151E+03  0.7818608E-02  0.9777548E-01
         -2   -1    0    0    0  501 -0.00000000000E+00  0.00000000000E+00  0.44213982132E+02  0.44213982206E+02  0.25500000000E-02 0. -1.
          2   -1    0    0  501    0  0.00000000000E+00 -0.00000000000E+00 -0.25066149046E+04  0.25066149046E+04  0.25500000000E-02 0.  1.
    5000001    1    1    2    0    0  0.17802629824E+03  0.16600784042E+03 -0.16958821990E+04  0.17239873546E+04  0.19200000000E+03 0.  0.
   -5000001    1    1    2    0    0 -0.17802629824E+03 -0.16600784042E+03 -0.76651872341E+03  0.82684153215E+03  0.19200000000E+03 0.  0.
<mgrwt>
<rscale>  0 0.66581507E+03</rscale>
<asrwt>0</asrwt>
<pdfrwt beam="1">  1        2 0.35808775E+00 0.66581507E+03</pdfrwt>
<pdfrwt beam="2">  1       -2 0.63162848E-02 0.66581507E+03</pdfrwt>
<totfact> 0.65087238E+02</totfact>
</mgrwt>
</event>
<event>
 4    1  0.5621415E-005  0.5605294E+03  0.7818608E-02  0.9990858E-01
          2   -1    0    0  501    0  0.00000000000E+00  0.00000000000E+00  0.29979849671E+04  0.29979849671E+04  0.25500000000E-02 0.  1.
         -2   -1    0    0    0  501 -0.00000000000E+00 -0.00000000000E+00 -0.26200365011E+02  0.26200365136E+02  0.25500000000E-02 0. -1.
    5000001    1    1    2    0    0 -0.41030629531E+02  0.18284289128E+03  0.10486034481E+04  0.10823808142E+04  0.19200000000E+03 0.  0.
   -5000001    1    1    2    0    0  0.41030629531E+02 -0.18284289128E+03  0.19231811540E+04  0.19418045181E+04  0.19200000000E+03 0.  0.
<mgrwt>
<rscale>  0 0.56052939E+03</rscale>
<asrwt>0</asrwt>
<pdfrwt beam="1">  1        2 0.42828366E+00 0.56052939E+03</pdfrwt>
<pdfrwt beam="2">  1       -2 0.37429085E-02 0.56052939E+03</pdfrwt>
<totfact> 0.81390946E+02</totfact>
</mgrwt>
</event>
<event>
 4    1  0.5621415E-005  0.5621071E+03  0.7818608E-02  0.9987298E-01
          2   -1    0    0  501    0  0.00000000000E+00  0.00000000000E+00  0.78896633634E+03  0.78896633634E+03  0.25500000000E-02 0.  1.
         -2   -1    0    0    0  501 -0.00000000000E+00 -0.00000000000E+00 -0.10011974585E+03  0.10011974588E+03  0.25500000000E-02 0. -1.
    5000001    1    1    2    0    0 -0.10315085447E+03  0.17402736250E+03  0.28959757773E+03  0.40206514236E+03  0.19200000000E+03 0.  0.
   -5000001    1    1    2    0    0  0.10315085447E+03 -0.17402736250E+03  0.39924901276E+03  0.48702093986E+03  0.19200000000E+03 0.  0.
<mgrwt>
<rscale>  0 0.56210714E+03</rscale>
<asrwt>0</asrwt>
<pdfrwt beam="1">  1        2 0.11270948E+00 0.56210714E+03</pdfrwt>
<pdfrwt beam="2">  1       -2 0.14302820E-01 0.56210714E+03</pdfrwt>
<totfact> 0.14711043E+03</totfact>
</mgrwt>
</event>
<event>
 4    1  0.5621415E-005  0.6854371E+03  0.7818608E-02  0.9742466E-01
         -2   -1    0    0    0  501 -0.00000000000E+00  0.00000000000E+00  0.93379737587E+02  0.93379737622E+02  0.25500000000E-02 0. -1.
          2   -1    0    0  501    0  0.00000000000E+00 -0.00000000000E+00 -0.12578317635E+04  0.12578317635E+04  0.25500000000E-02 0.  1.
    5000001    1    1    2    0    0 -0.31853396657E+02  0.23674600736E+03 -0.88460708334E+03  0.93619282350E+03  0.19200000000E+03 0.  0.
   -5000001    1    1    2    0    0  0.31853396657E+02 -0.23674600736E+03 -0.27984494253E+03  0.41501867758E+03  0.19200000000E+03 0.  0.
<mgrwt>
<rscale>  0 0.68543709E+03</rscale>
<asrwt>0</asrwt>
<pdfrwt beam="1">  1        2 0.17969024E+00 0.68543709E+03</pdfrwt>
<pdfrwt beam="2">  1       -2 0.13339963E-01 0.68543709E+03</pdfrwt>
<totfact> 0.85244784E+02</totfact>
</mgrwt>
</event>
<event>
 4    1  0.5621415E-005  0.8525252E+03  0.7818608E-02  0.9486954E-01
         -2   -1    0    0    0  501 -0.00000000000E+00  0.00000000000E+00  0.51879197922E+02  0.51879197984E+02  0.25500000000E-02 0. -1.
          2   -1    0    0  501    0  0.00000000000E+00 -0.00000000000E+00 -0.35023631862E+04  0.35023631862E+04  0.25500000000E-02 0.  1.
    5000001    1    1    2    0    0  0.33256395709E+03 -0.32568295035E+02 -0.24846127948E+04  0.25143238096E+04  0.19200000000E+03 0.  0.
   -5000001    1    1    2    0    0 -0.33256395709E+03  0.32568295035E+02 -0.96587119352E+03  0.10399185746E+04  0.19200000000E+03 0.  0.
<mgrwt>
<rscale>  0 0.85252517E+03</rscale>
<asrwt>0</asrwt>
<pdfrwt beam="1">  1        2 0.50033745E+00 0.85252517E+03</pdfrwt>
<pdfrwt beam="2">  1       -2 0.74113162E-02 0.85252517E+03</pdfrwt>
<totfact> 0.14021272E+02</totfact>
</mgrwt>
</event>
<event>
 4    1  0.5621415E-005  0.6627415E+03  0.7818608E-02  0.9783160E-01
          2   -1    0    0  501    0  0.00000000000E+00  0.00000000000E+00  0.35981651497E+03  0.35981651498E+03  0.25500000000E-02 0.  1.
         -2   -1    0    0    0  501 -0.00000000000E+00 -0.00000000000E+00 -0.30517383534E+03  0.30517383535E+03  0.25500000000E-02 0. -1.
    5000001    1    1    2    0    0 -0.44139090563E+02 -0.20905882880E+03  0.19307488914E+03  0.34611524964E+03  0.19200000000E+03 0.  0.
   -5000001    1    1    2    0    0  0.44139090563E+02  0.20905882880E+03 -0.13843220950E+03  0.31887510070E+03  0.19200000000E+03 0.  0.
<mgrwt>
<rscale>  0 0.66274154E+03</rscale>
<asrwt>0</asrwt>
<pdfrwt beam="1">  1        2 0.51402359E-01 0.66274154E+03</pdfrwt>
<pdfrwt beam="2">  1       -2 0.43596262E-01 0.66274154E+03</pdfrwt>
<totfact> 0.48935498E+02</totfact>
</mgrwt>
</event>
<event>
 4    1  0.5621415E-005  0.8082339E+03  0.7818608E-02  0.9548175E-01
          2   -1    0    0  501    0  0.00000000000E+00  0.00000000000E+00  0.16836540258E+03  0.16836540260E+03  0.25500000000E-02 0.  1.
         -2   -1    0    0    0  501 -0.00000000000E+00 -0.00000000000E+00 -0.96997659634E+03  0.96997659634E+03  0.25500000000E-02 0. -1.
    5000001    1    1    2    0    0  0.27465080165E+03  0.28876083767E+02 -0.71630558421E+03  0.79134352909E+03  0.19200000000E+03 0.  0.
   -5000001    1    1    2    0    0 -0.27465080165E+03 -0.28876083767E+02 -0.85305609551E+02  0.34699846985E+03  0.19200000000E+03 0.  0.
<mgrwt>
<rscale>  0 0.80823388E+03</rscale>
<asrwt>0</asrwt>
<pdfrwt beam="1">  1        2 0.24052201E-01 0.80823388E+03</pdfrwt>
<pdfrwt beam="2">  1       -2 0.13856808E+00 0.80823388E+03</pdfrwt>
<totfact> 0.85178976E+01</totfact>
</mgrwt>
</event>
<event>
 4    1  0.5621415E-005  0.4927318E+03  0.7818608E-02  0.1015694E+00
         -2   -1    0    0    0  501 -0.00000000000E+00  0.00000000000E+00  0.75811709522E+02  0.75811709565E+02  0.25500000000E-02 0. -1.
          2   -1    0    0  501    0  0.00000000000E+00 -0.00000000000E+00 -0.80061719242E+03  0.80061719242E+03  0.25500000000E-02 0.  1.
    5000001    1    1    2    0    0 -0.65670568288E+02 -0.90348929128E+02 -0.55195561144E+03  0.59497441082E+03  0.19200000000E+03 0.  0.
   -5000001    1    1    2    0    0  0.65670568288E+02  0.90348929128E+02 -0.17284987145E+03  0.28145449116E+03  0.19200000000E+03 0.  0.
<mgrwt>
<rscale>  0 0.49273181E+03</rscale>
<asrwt>0</asrwt>
<pdfrwt beam="1">  1        2 0.11437388E+00 0.49273181E+03</pdfrwt>
<pdfrwt beam="2">  1       -2 0.10830245E-01 0.49273181E+03</pdfrwt>
<totfact> 0.22837927E+03</totfact>
</mgrwt>
</event>
<event>
 4    1  0.5621415E-005  0.5823270E+03  0.7818608E-02  0.9942766E-01
         -2   -1    0    0    0  501 -0.00000000000E+00  0.00000000000E+00  0.43913843652E+03  0.43913843653E+03  0.25500000000E-02 0. -1.
          2   -1    0    0  501    0  0.00000000000E+00 -0.00000000000E+00 -0.19305113726E+03  0.19305113728E+03  0.25500000000E-02 0.  1.
    5000001    1    1    2    0    0 -0.29170882693E+02  0.21617313253E+03  0.10330998905E+03  0.30841322517E+03  0.19200000000E+03 0.  0.
   -5000001    1    1    2    0    0  0.29170882693E+02 -0.21617313253E+03  0.14277731021E+03  0.32377634864E+03  0.19200000000E+03 0.  0.
<mgrwt>
<rscale>  0 0.58232697E+03</rscale>
<asrwt>0</asrwt>
<pdfrwt beam="1">  1        2 0.27578734E-01 0.58232697E+03</pdfrwt>
<pdfrwt beam="2">  1       -2 0.62734063E-01 0.58232697E+03</pdfrwt>
<totfact> 0.46534267E+02</totfact>
</mgrwt>
</event>
<event>
 4    1  0.5621415E-005  0.6573732E+03  0.7818608E-02  0.9793041E-01
         -2   -1    0    0    0  501 -0.00000000000E+00  0.00000000000E+00  0.34358294922E+03  0.34358294922E+03  0.25500000000E-02 0. -1.
          2   -1    0    0  501    0  0.00000000000E+00 -0.00000000000E+00 -0.31443607971E+03  0.31443607972E+03  0.25500000000E-02 0.  1.
    5000001    1    1    2    0    0  0.22370688718E+03  0.65766217659E+02  0.14431909998E+03  0.33475658227E+03  0.19200000000E+03 0.  0.
   -5000001    1    1    2    0    0 -0.22370688718E+03 -0.65766217659E+02 -0.11517223048E+03  0.32326244667E+03  0.19200000000E+03 0.  0.
<mgrwt>
<rscale>  0 0.65737318E+03</rscale>
<asrwt>0</asrwt>
<pdfrwt beam="1">  1        2 0.44919440E-01 0.65737318E+03</pdfrwt>
<pdfrwt beam="2">  1       -2 0.49083278E-01 0.65737318E+03</pdfrwt>
<totfact> 0.44834314E+02</totfact>
</mgrwt>
</event>
<event>
 4    1  0.5621415E-005  0.6233331E+03  0.7818608E-02  0.9858146E-01
          2   -1    0    0  501    0  0.00000000000E+00  0.00000000000E+00  0.58371978780E+03  0.58371978781E+03  0.25500000000E-02 0. -1.
         -2   -1    0    0    0  501 -0.00000000000E+00 -0.00000000000E+00 -0.16640870370E+03  0.16640870372E+03  0.25500000000E-02 0.  1.
    5000001    1    1    2    0    0 -0.24030342704E+03  0.47958035902E+02  0.19055052498E+03  0.36499207228E+03  0.19200000000E+03 0.  0.
   -5000001    1    1    2    0    0  0.24030342704E+03 -0.47958035902E+02  0.22676055912E+03  0.38513641924E+03  0.19200000000E+03 0.  0.
<mgrwt>
<rscale>  0 0.62333315E+03</rscale>
<asrwt>0</asrwt>
<pdfrwt beam="1">  1        2 0.83388541E-01 0.62333315E+03</pdfrwt>
<pdfrwt beam="2">  1       -2 0.23772672E-01 0.62333315E+03</pdfrwt>
<totfact> 0.88240368E+02</totfact>
</mgrwt>
</event>
<event>
 4    1  0.5621415E-005  0.8484797E+03  0.7818608E-02  0.9492380E-01
          2   -1    0    0  501    0  0.00000000000E+00  0.00000000000E+00  0.26575660598E+03  0.26575660599E+03  0.25500000000E-02 0.  1.
         -2   -1    0    0    0  501 -0.00000000000E+00 -0.00000000000E+00 -0.67723416562E+03  0.67723416563E+03  0.25500000000E-02 0. -1.
    5000001    1    1    2    0    0  0.23130261384E+03  0.19710183364E+03  0.44670246930E+02  0.36222846789E+03  0.19200000000E+03 0.  0.
   -5000001    1    1    2    0    0 -0.23130261384E+03 -0.19710183364E+03 -0.45614780657E+03  0.58076230373E+03  0.19200000000E+03 0.  0.
<mgrwt>
<rscale>  0 0.84847971E+03</rscale>
<asrwt>0</asrwt>
<pdfrwt beam="1">  1        2 0.37965230E-01 0.84847971E+03</pdfrwt>
<pdfrwt beam="2">  1       -2 0.96747737E-01 0.84847971E+03</pdfrwt>
<totfact> 0.12261461E+02</totfact>
</mgrwt>
</event>
<event>
 4    1  0.5621415E-005  0.6279398E+03  0.7818608E-02  0.9849077E-01
         -2   -1    0    0    0  501 -0.00000000000E+00  0.00000000000E+00  0.59062882826E+02  0.59062882881E+02  0.25500000000E-02 0. -1.
          2   -1    0    0  501    0  0.00000000000E+00 -0.00000000000E+00 -0.16690193257E+04  0.16690193257E+04  0.25500000000E-02 0.  1.
    5000001    1    1    2    0    0 -0.23767446279E+03 -0.68084692756E+02 -0.73822240620E+03  0.80184848735E+03  0.19200000000E+03 0.  0.
   -5000001    1    1    2    0    0  0.23767446279E+03  0.68084692756E+02 -0.87173403671E+03  0.92623372126E+03  0.19200000000E+03 0.  0.
<mgrwt>
<rscale>  0 0.62793978E+03</rscale>
<asrwt>0</asrwt>
<pdfrwt beam="1">  1        2 0.23843130E+00 0.62793978E+03</pdfrwt>
<pdfrwt beam="2">  1       -2 0.84375557E-02 0.62793978E+03</pdfrwt>
<totfact> 0.10947937E+03</totfact>
</mgrwt>
</event>
<event>
 4    1  0.5621415E-005  0.7204730E+03  0.7818608E-02  0.9682847E-01
         -2   -1    0    0    0  501 -0.00000000000E+00  0.00000000000E+00  0.95536442395E+02  0.95536442430E+02  0.25500000000E-02 0.  1.
          2   -1    0    0  501    0  0.00000000000E+00 -0.00000000000E+00 -0.13583331637E+04  0.13583331637E+04  0.25500000000E-02 0. -1.
    5000001    1    1    2    0    0 -0.29285366606E+03 -0.75740417329E+02 -0.55572064726E+03  0.66120293279E+03  0.19200000000E+03 0.  0.
   -5000001    1    1    2    0    0  0.29285366606E+03  0.75740417329E+02 -0.70707607409E+03  0.79266667339E+03  0.19200000000E+03 0.  0.
<mgrwt>
<rscale>  0 0.72047295E+03</rscale>
<asrwt>0</asrwt>
<pdfrwt beam="1">  1        2 0.19404758E+00 0.72047295E+03</pdfrwt>
<pdfrwt beam="2">  1       -2 0.13648064E-01 0.72047295E+03</pdfrwt>
<totfact> 0.72215279E+02</totfact>
</mgrwt>
</event>
<event>
 4    1  0.5621415E-005  0.5382828E+03  0.7818608E-02  0.1004243E+00
          2   -1    0    0  501    0  0.00000000000E+00  0.00000000000E+00  0.81288484314E+03  0.81288484314E+03  0.25500000000E-02 0.  1.
         -2   -1    0    0    0  501 -0.00000000000E+00 -0.00000000000E+00 -0.89111144019E+02  0.89111144055E+02  0.25500000000E-02 0. -1.
    5000001    1    1    2    0    0 -0.11525820672E+03 -0.50490823755E+02  0.12645772361E+03  0.26208649977E+03  0.19200000000E+03 0.  0.
   -5000001    1    1    2    0    0  0.11525820672E+03  0.50490823755E+02  0.59731597551E+03  0.63990948743E+03  0.19200000000E+03 0.  0.
<mgrwt>
<rscale>  0 0.53828282E+03</rscale>
<asrwt>0</asrwt>
<pdfrwt beam="1">  1        2 0.11612641E+00 0.53828282E+03</pdfrwt>
<pdfrwt beam="2">  1       -2 0.12730163E-01 0.53828282E+03</pdfrwt>
<totfact> 0.17190148E+03</totfact>
</mgrwt>
</event>
<event>
 4    1  0.5621415E-005  0.7149295E+03  0.7818608E-02  0.9692036E-01
          2   -1    0    0  501    0  0.00000000000E+00  0.00000000000E+00  0.19586955388E+04  0.19586955388E+04  0.25500000000E-02 0.  1.
         -2   -1    0    0    0  501 -0.00000000000E+00 -0.00000000000E+00 -0.65237838714E+02  0.65237838764E+02  0.25500000000E-02 0. -1.
    5000001    1    1    2    0    0  0.17093375881E+03  0.76202883083E+02  0.27744992566E+03  0.38583376024E+03  0.19200000000E+03 0.  0.
   -5000001    1    1    2    0    0 -0.17093375881E+03 -0.76202883083E+02  0.16160077745E+04  0.16380996174E+04  0.19200000000E+03 0.  0.
<mgrwt>
<rscale>  0 0.71492955E+03</rscale>
<asrwt>0</asrwt>
<pdfrwt beam="1">  1        2 0.27981369E+00 0.71492955E+03</pdfrwt>
<pdfrwt beam="2">  1       -2 0.93196900E-02 0.71492955E+03</pdfrwt>
<totfact> 0.66209375E+02</totfact>
</mgrwt>
</event>
<event>
 4    1  0.5621415E-005  0.5680257E+03  0.7818608E-02  0.9974057E-01
         -2   -1    0    0    0  501 -0.00000000000E+00  0.00000000000E+00  0.39053934991E+02  0.39053935074E+02  0.25500000000E-02 0. -1.
          2   -1    0    0  501    0  0.00000000000E+00 -0.00000000000E+00 -0.20654333864E+04  0.20654333864E+04  0.25500000000E-02 0.  1.
    5000001    1    1    2    0    0 -0.23152025711E+02 -0.14570477428E+03 -0.15631345488E+04  0.15817773280E+04  0.19200000000E+03 0.  0.
   -5000001    1    1    2    0    0  0.23152025711E+02  0.14570477428E+03 -0.46324490258E+03  0.52270999350E+03  0.19200000000E+03 0.  0.
<mgrwt>
<rscale>  0 0.56802571E+03</rscale>
<asrwt>0</asrwt>
<pdfrwt beam="1">  1        2 0.29506184E+00 0.56802571E+03</pdfrwt>
<pdfrwt beam="2">  1       -2 0.55791349E-02 0.56802571E+03</pdfrwt>
<totfact> 0.13313858E+03</totfact>
</mgrwt>
</event>
<event>
 4    1  0.5621415E-005  0.6167636E+03  0.7818608E-02  0.9871225E-01
         -2   -1    0    0    0  501 -0.00000000000E+00  0.00000000000E+00  0.51795308915E+03  0.51795308915E+03  0.25500000000E-02 0. -1.
          2   -1    0    0  501    0  0.00000000000E+00 -0.00000000000E+00 -0.18360604828E+03  0.18360604830E+03  0.25500000000E-02 0.  1.
    5000001    1    1    2    0    0  0.23448410850E+02  0.23739602823E+03  0.20863507699E+03  0.37053919839E+03  0.19200000000E+03 0.  0.
   -5000001    1    1    2    0    0 -0.23448410850E+02 -0.23739602823E+03  0.12571196388E+03  0.33101993906E+03  0.19200000000E+03 0.  0.
<mgrwt>
<rscale>  0 0.61676355E+03</rscale>
<asrwt>0</asrwt>
<pdfrwt beam="1">  1        2 0.26229436E-01 0.61676355E+03</pdfrwt>
<pdfrwt beam="2">  1       -2 0.73993298E-01 0.61676355E+03</pdfrwt>
<totfact> 0.34460433E+02</totfact>
</mgrwt>
</event>
<event>
 4    1  0.5621415E-005  0.4640070E+03  0.7818608E-02  0.1023625E+00
         -2   -1    0    0    0  501 -0.00000000000E+00  0.00000000000E+00  0.18814178062E+03  0.18814178064E+03  0.25500000000E-02 0. -1.
          2   -1    0    0  501    0  0.00000000000E+00 -0.00000000000E+00 -0.28609071739E+03  0.28609071740E+03  0.25500000000E-02 0.  1.
    5000001    1    1    2    0    0 -0.91490838774E+02  0.78695243691E+02  0.10751345786E+01  0.22677890306E+03  0.19200000000E+03 0.  0.
   -5000001    1    1    2    0    0  0.91490838774E+02 -0.78695243691E+02 -0.99024071350E+02  0.24745359497E+03  0.19200000000E+03 0.  0.
<mgrwt>
<rscale>  0 0.46400697E+03</rscale>
<asrwt>0</asrwt>
<pdfrwt beam="1">  1        2 0.40870102E-01 0.46400697E+03</pdfrwt>
<pdfrwt beam="2">  1       -2 0.26877397E-01 0.46400697E+03</pdfrwt>
<totfact> 0.15714484E+03</totfact>
</mgrwt>
</event>
<event>
 4    1  0.5621415E-005  0.5634582E+03  0.7818608E-02  0.9984260E-01
         -2   -1    0    0    0  501 -0.00000000000E+00  0.00000000000E+00  0.16179205074E+03  0.16179205076E+03  0.25500000000E-02 0. -1.
          2   -1    0    0  501    0  0.00000000000E+00 -0.00000000000E+00 -0.49057600671E+03  0.49057600672E+03  0.25500000000E-02 0.  1.
    5000001    1    1    2    0    0  0.16668644843E+03  0.10650732047E+03 -0.23169468786E+03  0.36010360979E+03  0.19200000000E+03 0.  0.
   -5000001    1    1    2    0    0 -0.16668644843E+03 -0.10650732047E+03 -0.97089268115E+02  0.29226444770E+03  0.19200000000E+03 0.  0.
<mgrwt>
<rscale>  0 0.56345824E+03</rscale>
<asrwt>0</asrwt>
<pdfrwt beam="1">  1        2 0.70082286E-01 0.56345824E+03</pdfrwt>
<pdfrwt beam="2">  1       -2 0.23113150E-01 0.56345824E+03</pdfrwt>
<totfact> 0.11339119E+03</totfact>
</mgrwt>
</event>
<event>
 4    1  0.5621415E-005  0.6334490E+03  0.7818608E-02  0.9838341E-01
         -2   -1    0    0    0  501 -0.00000000000E+00  0.00000000000E+00  0.67462693136E+02  0.67462693184E+02  0.25500000000E-02 0. -1.
          2   -1    0    0  501    0  0.00000000000E+00 -0.00000000000E+00 -0.14869609949E+04  0.14869609949E+04  0.25500000000E-02 0.  1.
    5000001    1    1    2    0    0 -0.45434417878E+02  0.23581370151E+03 -0.89627831699E+03  0.94755010931E+03  0.19200000000E+03 0.  0.
   -5000001    1    1    2    0    0  0.45434417878E+02 -0.23581370151E+03 -0.52321998476E+03  0.60687357877E+03  0.19200000000E+03 0.  0.
<mgrwt>
<rscale>  0 0.63344895E+03</rscale>
<asrwt>0</asrwt>
<pdfrwt beam="1">  1        2 0.21242298E+00 0.63344895E+03</pdfrwt>
<pdfrwt beam="2">  1       -2 0.96375285E-02 0.63344895E+03</pdfrwt>
<totfact> 0.10972994E+03</totfact>
</mgrwt>
</event>
<event>
 4    1  0.5621415E-005  0.6627147E+03  0.7818608E-02  0.9783209E-01
         -2   -1    0    0    0  501 -0.00000000000E+00  0.00000000000E+00  0.61994161298E+03  0.61994161298E+03  0.25500000000E-02 0. -1.
          2   -1    0    0  501    0  0.00000000000E+00 -0.00000000000E+00 -0.17710971699E+03  0.17710971701E+03  0.25500000000E-02 0.  1.
    5000001    1    1    2    0    0  0.86831854473E+02 -0.19269987025E+03  0.42360188901E+03  0.51085768206E+03  0.19200000000E+03 0.  0.
   -5000001    1    1    2    0    0 -0.86831854473E+02  0.19269987025E+03  0.19230006985E+02  0.28619364793E+03  0.19200000000E+03 0.  0.
<mgrwt>
<rscale>  0 0.66271467E+03</rscale>
<asrwt>0</asrwt>
<pdfrwt beam="1">  1        2 0.25301388E-01 0.66271467E+03</pdfrwt>
<pdfrwt beam="2">  1       -2 0.88563088E-01 0.66271467E+03</pdfrwt>
<totfact> 0.23951212E+02</totfact>
</mgrwt>
</event>
<event>
 4    1  0.5621415E-005  0.8339504E+03  0.7818608E-02  0.9512135E-01
         -2   -1    0    0    0  501 -0.00000000000E+00  0.00000000000E+00  0.10477078260E+03  0.10477078263E+03  0.25500000000E-02 0. -1.
          2   -1    0    0  501    0  0.00000000000E+00 -0.00000000000E+00 -0.16595116350E+04  0.16595116350E+04  0.25500000000E-02 0.  1.
    5000001    1    1    2    0    0 -0.53474348759E+02  0.34763742517E+03 -0.10212863438E+04  0.10970875450E+04  0.19200000000E+03 0.  0.
   -5000001    1    1    2    0    0  0.53474348759E+02 -0.34763742517E+03 -0.53345450868E+03  0.66719487272E+03  0.19200000000E+03 0.  0.
<mgrwt>
<rscale>  0 0.83395044E+03</rscale>
<asrwt>0</asrwt>
<pdfrwt beam="1">  1        2 0.23707308E+00 0.83395044E+03</pdfrwt>
<pdfrwt beam="2">  1       -2 0.14967256E-01 0.83395044E+03</pdfrwt>
<totfact> 0.42685478E+02</totfact>
</mgrwt>
</event>
<event>
 4    1  0.5621415E-005  0.5469575E+03  0.7818608E-02  0.1002201E+00
          2   -1    0    0  501    0  0.00000000000E+00  0.00000000000E+00  0.21122418372E+03  0.21122418374E+03  0.25500000000E-02 0.  1.
         -2   -1    0    0    0  501 -0.00000000000E+00 -0.00000000000E+00 -0.35408170890E+03  0.35408170891E+03  0.25500000000E-02 0. -1.
    5000001    1    1    2    0    0 -0.10654298605E+03  0.13514576600E+03  0.22793223436E+02  0.25884226273E+03  0.19200000000E+03 0.  0.
   -5000001    1    1    2    0    0  0.10654298605E+03 -0.13514576600E+03 -0.16565074861E+03  0.30646362991E+03  0.19200000000E+03 0.  0.
<mgrwt>
<rscale>  0 0.54695748E+03</rscale>
<asrwt>0</asrwt>
<pdfrwt beam="1">  1        2 0.30174884E-01 0.54695748E+03</pdfrwt>
<pdfrwt beam="2">  1       -2 0.50583101E-01 0.54695748E+03</pdfrwt>
<totfact> 0.65744378E+02</totfact>
</mgrwt>
</event>
<event>
 4    1  0.5621415E-005  0.4295175E+03  0.7818608E-02  0.1034012E+00
         -2   -1    0    0    0  501 -0.00000000000E+00  0.00000000000E+00  0.27090915473E+02  0.27090915593E+02  0.25500000000E-02 0. -1.
          2   -1    0    0  501    0  0.00000000000E+00 -0.00000000000E+00 -0.17024644898E+04  0.17024644898E+04  0.25500000000E-02 0.  1.
    5000001    1    1    2    0    0  0.53215972844E+02 -0.40500842279E+02 -0.55914043645E+03  0.59495738138E+03  0.19200000000E+03 0.  0.
   -5000001    1    1    2    0    0 -0.53215972844E+02  0.40500842279E+02 -0.11162331379E+04  0.11345980240E+04  0.19200000000E+03 0.  0.
<mgrwt>
<rscale>  0 0.42951750E+03</rscale>
<asrwt>0</asrwt>
<pdfrwt beam="1">  1        2 0.24320915E+00 0.42951750E+03</pdfrwt>
<pdfrwt beam="2">  1       -2 0.38701319E-02 0.42951750E+03</pdfrwt>
<totfact> 0.35692049E+03</totfact>
</mgrwt>
</event>
<event>
 4    1  0.5621415E-005  0.5915735E+03  0.7818608E-02  0.9923044E-01
          2   -1    0    0  501    0  0.00000000000E+00  0.00000000000E+00  0.81782334435E+03  0.81782334436E+03  0.25500000000E-02 0.  1.
         -2   -1    0    0    0  501 -0.00000000000E+00 -0.00000000000E+00 -0.10697885175E+03  0.10697885178E+03  0.25500000000E-02 0. -1.
    5000001    1    1    2    0    0 -0.21102770751E+03 -0.77602835435E+02  0.36858632854E+03  0.47251960276E+03  0.19200000000E+03 0.  0.
   -5000001    1    1    2    0    0  0.21102770751E+03  0.77602835435E+02  0.34225816406E+03  0.45228259338E+03  0.19200000000E+03 0.  0.
<mgrwt>
<rscale>  0 0.59157350E+03</rscale>
<asrwt>0</asrwt>
<pdfrwt beam="1">  1        2 0.11683191E+00 0.59157350E+03</pdfrwt>
<pdfrwt beam="2">  1       -2 0.15282693E-01 0.59157350E+03</pdfrwt>
<totfact> 0.12566873E+03</totfact>
</mgrwt>
</event>
<event>
 4    1  0.5621415E-005  0.1171561E+04  0.7818608E-02  0.9138120E-01
         -2   -1    0    0    0  501 -0.00000000000E+00  0.00000000000E+00  0.29597622447E+03  0.29597622448E+03  0.25500000000E-02 0. -1.
          2   -1    0    0  501    0  0.00000000000E+00 -0.00000000000E+00 -0.11593457043E+04  0.11593457044E+04  0.25500000000E-02 0.  1.
    5000001    1    1    2    0    0 -0.53372697896E+03 -0.10966723474E+02 -0.25043303864E+03  0.62013342430E+03  0.19200000000E+03 0.  0.
   -5000001    1    1    2    0    0  0.53372697896E+03  0.10966723474E+02 -0.61293644124E+03  0.83518850453E+03  0.19200000000E+03 0.  0.
<mgrwt>
<rscale>  0 0.11715609E+04</rscale>
<asrwt>0</asrwt>
<pdfrwt beam="1">  1        2 0.16562081E+00 0.11715609E+04</pdfrwt>
<pdfrwt beam="2">  1       -2 0.42282318E-01 0.11715609E+04</pdfrwt>
<totfact> 0.11811801E+02</totfact>
</mgrwt>
</event>
<event>
 4    1  0.5621415E-005  0.6542537E+03  0.7818608E-02  0.9798830E-01
          2   -1    0    0  501    0  0.00000000000E+00  0.00000000000E+00  0.10575223721E+04  0.10575223721E+04  0.25500000000E-02 0.  1.
         -2   -1    0    0    0  501 -0.00000000000E+00 -0.00000000000E+00 -0.10119121510E+03  0.10119121513E+03  0.25500000000E-02 0. -1.
    5000001    1    1    2    0    0  0.17730149535E+03 -0.19408227626E+03  0.42093519249E+03  0.53212234165E+03  0.19200000000E+03 0.  0.
   -5000001    1    1    2    0    0 -0.17730149535E+03  0.19408227626E+03  0.53539596453E+03  0.62659124559E+03  0.19200000000E+03 0.  0.
<mgrwt>
<rscale>  0 0.65425369E+03</rscale>
<asrwt>0</asrwt>
<pdfrwt beam="1">  1        2 0.15107461E+00 0.65425369E+03</pdfrwt>
<pdfrwt beam="2">  1       -2 0.14455889E-01 0.65425369E+03</pdfrwt>
<totfact> 0.97113075E+02</totfact>
</mgrwt>
</event>
<event>
 4    1  0.5621415E-005  0.4296960E+03  0.7818608E-02  0.1033956E+00
         -2   -1    0    0    0  501 -0.00000000000E+00  0.00000000000E+00  0.60802114423E+02  0.60802114477E+02  0.25500000000E-02 0. -1.
          2   -1    0    0  501    0  0.00000000000E+00 -0.00000000000E+00 -0.75917855424E+03  0.75917855425E+03  0.25500000000E-02 0.  1.
    5000001    1    1    2    0    0 -0.59213747327E+02 -0.55807736690E+02 -0.44788324795E+03  0.49404875786E+03  0.19200000000E+03 0.  0.
   -5000001    1    1    2    0    0  0.59213747327E+02  0.55807736690E+02 -0.25049319187E+03  0.32593191086E+03  0.19200000000E+03 0.  0.
<mgrwt>
<rscale>  0 0.42969599E+03</rscale>
<asrwt>0</asrwt>
<pdfrwt beam="1">  1        2 0.10845407E+00 0.42969599E+03</pdfrwt>
<pdfrwt beam="2">  1       -2 0.86860168E-02 0.42969599E+03</pdfrwt>
<totfact> 0.34765378E+03</totfact>
</mgrwt>
</event>
<event>
 4    1  0.5621415E-005  0.4786330E+03  0.7818608E-02  0.1019512E+00
         -2   -1    0    0    0  501 -0.00000000000E+00  0.00000000000E+00  0.32205441780E+02  0.32205441881E+02  0.25500000000E-02 0. -1.
          2   -1    0    0  501    0  0.00000000000E+00 -0.00000000000E+00 -0.17783446665E+04  0.17783446665E+04  0.25500000000E-02 0.  1.
    5000001    1    1    2    0    0 -0.13763852413E+03 -0.30316432797E+02 -0.78476633231E+03  0.82011319082E+03  0.19200000000E+03 0.  0.
   -5000001    1    1    2    0    0  0.13763852413E+03  0.30316432797E+02 -0.96137289244E+03  0.99043691760E+03  0.19200000000E+03 0.  0.
<mgrwt>
<rscale>  0 0.47863295E+03</rscale>
<asrwt>0</asrwt>
<pdfrwt beam="1">  1        2 0.25404918E+00 0.47863295E+03</pdfrwt>
<pdfrwt beam="2">  1       -2 0.46007785E-02 0.47863295E+03</pdfrwt>
<totfact> 0.25073614E+03</totfact>
</mgrwt>
</event>
<event>
 4    1  0.5621415E-005  0.9361881E+03  0.7818608E-02  0.9381442E-01
          2   -1    0    0  501    0  0.00000000000E+00  0.00000000000E+00  0.53180619823E+03  0.53180619824E+03  0.25500000000E-02 0.  1.
         -2   -1    0    0    0  501 -0.00000000000E+00 -0.00000000000E+00 -0.41201486286E+03  0.41201486287E+03  0.25500000000E-02 0. -1.
    5000001    1    1    2    0    0 -0.96503935049E+02  0.40992242449E+03  0.13045669971E+03  0.48086625383E+03  0.19200000000E+03 0.  0.
   -5000001    1    1    2    0    0  0.96503935049E+02 -0.40992242449E+03 -0.10665364339E+02  0.46295480727E+03  0.19200000000E+03 0.  0.
<mgrwt>
<rscale>  0 0.93618814E+03</rscale>
<asrwt>0</asrwt>
<pdfrwt beam="1">  1        2 0.75972314E-01 0.93618814E+03</pdfrwt>
<pdfrwt beam="2">  1       -2 0.58859266E-01 0.93618814E+03</pdfrwt>
<totfact> 0.16896492E+02</totfact>
</mgrwt>
</event>
<event>
 4    1  0.5621415E-005  0.5046075E+03  0.7818608E-02  0.1012583E+00
          2   -1    0    0  501    0  0.00000000000E+00  0.00000000000E+00  0.16034362854E+03  0.16034362856E+03  0.25500000000E-02 0.  1.
         -2   -1    0    0    0  501 -0.00000000000E+00 -0.00000000000E+00 -0.39700481745E+03  0.39700481746E+03  0.25500000000E-02 0. -1.
    5000001    1    1    2    0    0  0.53257783610E+02  0.75298210408E+01  0.52424215297E+02  0.20616834885E+03  0.19200000000E+03 0.  0.
   -5000001    1    1    2    0    0 -0.53257783610E+02 -0.75298210408E+01 -0.28908540421E+03  0.35118009716E+03  0.19200000000E+03 0.  0.
<mgrwt>
<rscale>  0 0.50460754E+03</rscale>
<asrwt>0</asrwt>
<pdfrwt beam="1">  1        2 0.22906233E-01 0.50460754E+03</pdfrwt>
<pdfrwt beam="2">  1       -2 0.56714974E-01 0.50460754E+03</pdfrwt>
<totfact> 0.71097509E+02</totfact>
</mgrwt>
</event>
<event>
 4    1  0.5621415E-005  0.4813355E+03  0.7818608E-02  0.1018769E+00
          2   -1    0    0  501    0  0.00000000000E+00  0.00000000000E+00  0.84921414826E+03  0.84921414826E+03  0.25500000000E-02 0.  1.
         -2   -1    0    0    0  501 -0.00000000000E+00 -0.00000000000E+00 -0.68205369661E+02  0.68205369709E+02  0.25500000000E-02 0. -1.
    5000001    1    1    2    0    0  0.46236254561E+02 -0.11577904913E+03  0.24896782593E+03  0.33821821034E+03  0.19200000000E+03 0.  0.
   -5000001    1    1    2    0    0 -0.46236254561E+02  0.11577904913E+03  0.53204095266E+03  0.57920130763E+03  0.19200000000E+03 0.  0.
<mgrwt>
<rscale>  0 0.48133550E+03</rscale>
<asrwt>0</asrwt>
<pdfrwt beam="1">  1        2 0.12131630E+00 0.48133550E+03</pdfrwt>
<pdfrwt beam="2">  1       -2 0.97436247E-02 0.48133550E+03</pdfrwt>
<totfact> 0.25121258E+03</totfact>
</mgrwt>
</event>
<event>
 4    1  0.5621415E-005  0.6662889E+03  0.7818608E-02  0.9776685E-01
         -2   -1    0    0    0  501 -0.00000000000E+00  0.00000000000E+00  0.30797155729E+03  0.30797155730E+03  0.25500000000E-02 0. -1.
          2   -1    0    0  501    0  0.00000000000E+00 -0.00000000000E+00 -0.36037487982E+03  0.36037487983E+03  0.25500000000E-02 0.  1.
    5000001    1    1    2    0    0 -0.12633447651E+03 -0.19877899220E+03  0.11077671465E+03  0.32343309695E+03  0.19200000000E+03 0.  0.
   -5000001    1    1    2    0    0  0.12633447651E+03  0.19877899220E+03 -0.16318003718E+03  0.34491334017E+03  0.19200000000E+03 0.  0.
<mgrwt>
<rscale>  0 0.66628887E+03</rscale>
<asrwt>0</asrwt>
<pdfrwt beam="1">  1        2 0.51482126E-01 0.66628887E+03</pdfrwt>
<pdfrwt beam="2">  1       -2 0.43995937E-01 0.66628887E+03</pdfrwt>
<totfact> 0.47973790E+02</totfact>
</mgrwt>
</event>
<event>
 4    1  0.5621415E-005  0.7093809E+03  0.7818608E-02  0.9701323E-01
         -2   -1    0    0    0  501 -0.00000000000E+00  0.00000000000E+00  0.35147266159E+03  0.35147266160E+03  0.25500000000E-02 0. -1.
          2   -1    0    0  501    0  0.00000000000E+00 -0.00000000000E+00 -0.35793771119E+03  0.35793771120E+03  0.25500000000E-02 0.  1.
    5000001    1    1    2    0    0 -0.42877440137E+02 -0.28265354140E+03 -0.88146714082E+02  0.35547903249E+03  0.19200000000E+03 0.  0.
   -5000001    1    1    2    0    0  0.42877440137E+02  0.28265354140E+03  0.81681664485E+02  0.35393134031E+03  0.19200000000E+03 0.  0.
<mgrwt>
<rscale>  0 0.70938091E+03</rscale>
<asrwt>0</asrwt>
<pdfrwt beam="1">  1        2 0.51133959E-01 0.70938091E+03</pdfrwt>
<pdfrwt beam="2">  1       -2 0.50210380E-01 0.70938091E+03</pdfrwt>
<totfact> 0.37042650E+02</totfact>
</mgrwt>
</event>
<event>
 4    1  0.5621415E-005  0.9908309E+03  0.7818608E-02  0.9318659E-01
         -2   -1    0    0    0  501 -0.00000000000E+00  0.00000000000E+00  0.84815215469E+02  0.84815215507E+02  0.25500000000E-02 0. -1.
          2   -1    0    0  501    0  0.00000000000E+00 -0.00000000000E+00 -0.28937785813E+04  0.28937785813E+04  0.25500000000E-02 0.  1.
    5000001    1    1    2    0    0  0.41841425176E+03 -0.80808678140E+02 -0.18981869110E+04  0.19548856942E+04  0.19200000000E+03 0.  0.
   -5000001    1    1    2    0    0 -0.41841425176E+03  0.80808678140E+02 -0.91077645482E+03  0.10237081025E+04  0.19200000000E+03 0.  0.
<mgrwt>
<rscale>  0 0.99083087E+03</rscale>
<asrwt>0</asrwt>
<pdfrwt beam="1">  1        2 0.41339688E+00 0.99083087E+03</pdfrwt>
<pdfrwt beam="2">  1       -2 0.12116461E-01 0.99083087E+03</pdfrwt>
<totfact> 0.13801830E+02</totfact>
</mgrwt>
</event>
<event>
 4    1  0.5621415E-005  0.6467721E+03  0.7818608E-02  0.9812855E-01
          2   -1    0    0  501    0  0.00000000000E+00  0.00000000000E+00  0.29689139235E+04  0.29689139235E+04  0.25500000000E-02 0. -1.
         -2   -1    0    0    0  501 -0.00000000000E+00 -0.00000000000E+00 -0.35224507890E+02  0.35224507982E+02  0.25500000000E-02 0.  1.
    5000001    1    1    2    0    0 -0.74787605683E+02  0.24369498069E+03  0.12239734792E+04  0.12648934767E+04  0.19200000000E+03 0.  0.
   -5000001    1    1    2    0    0  0.74787605683E+02 -0.24369498069E+03  0.17097159364E+04  0.17392449548E+04  0.19200000000E+03 0.  0.
<mgrwt>
<rscale>  0 0.64677208E+03</rscale>
<asrwt>0</asrwt>
<pdfrwt beam="1">  1        2 0.42413063E+00 0.64677208E+03</pdfrwt>
<pdfrwt beam="2">  1       -2 0.50320717E-02 0.64677208E+03</pdfrwt>
<totfact> 0.53044133E+02</totfact>
</mgrwt>
</event>
<event>
 4    1  0.5621415E-005  0.6697864E+03  0.7818608E-02  0.9770344E-01
          2   -1    0    0  501    0  0.00000000000E+00  0.00000000000E+00  0.14770617209E+04  0.14770617209E+04  0.25500000000E-02 0.  1.
         -2   -1    0    0    0  501 -0.00000000000E+00 -0.00000000000E+00 -0.75930118047E+02  0.75930118090E+02  0.25500000000E-02 0. -1.
    5000001    1    1    2    0    0 -0.18119204425E+03 -0.11797432834E+03  0.30885351213E+03  0.42308745077E+03  0.19200000000E+03 0.  0.
   -5000001    1    1    2    0    0  0.18119204425E+03  0.11797432834E+03  0.10922780908E+04  0.11299043883E+04  0.19200000000E+03 0.  0.
<mgrwt>
<rscale>  0 0.66978645E+03</rscale>
<asrwt>0</asrwt>
<pdfrwt beam="1">  1        2 0.21100881E+00 0.66978645E+03</pdfrwt>
<pdfrwt beam="2">  1       -2 0.10847160E-01 0.66978645E+03</pdfrwt>
<totfact> 0.91483941E+02</totfact>
</mgrwt>
</event>
<event>
 4    1  0.5621415E-005  0.7193419E+03  0.7818608E-02  0.9684715E-01
          2   -1    0    0  501    0  0.00000000000E+00  0.00000000000E+00  0.27523895305E+03  0.27523895306E+03  0.25500000000E-02 0.  1.
         -2   -1    0    0    0  501 -0.00000000000E+00 -0.00000000000E+00 -0.47000323966E+03  0.47000323967E+03  0.25500000000E-02 0. -1.
    5000001    1    1    2    0    0 -0.15066177029E+02  0.30359841102E+03 -0.10775331700E+03  0.37533153636E+03  0.19200000000E+03 0.  0.
   -5000001    1    1    2    0    0  0.15066177029E+02 -0.30359841102E+03 -0.87010969615E+02  0.36991065637E+03  0.19200000000E+03 0.  0.
<mgrwt>
<rscale>  0 0.71934192E+03</rscale>
<asrwt>0</asrwt>
<pdfrwt beam="1">  1        2 0.39319850E-01 0.71934192E+03</pdfrwt>
<pdfrwt beam="2">  1       -2 0.67143320E-01 0.71934192E+03</pdfrwt>
<totfact> 0.26961616E+02</totfact>
</mgrwt>
</event>
<event>
 4    1  0.5621415E-005  0.4704941E+03  0.7818608E-02  0.1021781E+00
         -2   -1    0    0    0  501 -0.00000000000E+00  0.00000000000E+00  0.20911359377E+02  0.20911359533E+02  0.25500000000E-02 0. -1.
          2   -1    0    0  501    0  0.00000000000E+00 -0.00000000000E+00 -0.26464652392E+04  0.26464652392E+04  0.25500000000E-02 0.  1.
    5000001    1    1    2    0    0  0.59085254944E+01  0.13222689379E+03 -0.11372732526E+04  0.11609363950E+04  0.19200000000E+03 0.  0.
   -5000001    1    1    2    0    0 -0.59085254944E+01 -0.13222689379E+03 -0.14882806272E+04  0.15064402038E+04  0.19200000000E+03 0.  0.
<mgrwt>
<rscale>  0 0.47049415E+03</rscale>
<asrwt>0</asrwt>
<pdfrwt beam="1">  1        2 0.37806625E+00 0.47049415E+03</pdfrwt>
<pdfrwt beam="2">  1       -2 0.29873388E-02 0.47049415E+03</pdfrwt>
<totfact> 0.17724633E+03</totfact>
</mgrwt>
</event>
<event>
 4    1  0.5621415E-005  0.6882230E+03  0.7818608E-02  0.9737587E-01
         -2   -1    0    0    0  501 -0.00000000000E+00  0.00000000000E+00  0.37210223778E+02  0.37210223865E+02  0.25500000000E-02 0. -1.
          2   -1    0    0  501    0  0.00000000000E+00 -0.00000000000E+00 -0.31822634245E+04  0.31822634245E+04  0.25500000000E-02 0.  1.
    5000001    1    1    2    0    0  0.14677283991E+03  0.37654442053E+02 -0.27048286001E+04  0.27158648492E+04  0.19200000000E+03 0.  0.
   -5000001    1    1    2    0    0 -0.14677283991E+03 -0.37654442053E+02 -0.44022460062E+03  0.50360879910E+03  0.19200000000E+03 0.  0.
<mgrwt>
<rscale>  0 0.68822303E+03</rscale>
<asrwt>0</asrwt>
<pdfrwt beam="1">  1        2 0.45460889E+00 0.68822303E+03</pdfrwt>
<pdfrwt beam="2">  1       -2 0.53157483E-02 0.68822303E+03</pdfrwt>
<totfact> 0.36978449E+02</totfact>
</mgrwt>
</event>
<event>
 4    1  0.5621415E-005  0.5231994E+03  0.7818608E-02  0.1007895E+00
         -2   -1    0    0    0  501 -0.00000000000E+00  0.00000000000E+00  0.10464892037E+03  0.10464892040E+03  0.25500000000E-02 0. -1.
          2   -1    0    0  501    0  0.00000000000E+00 -0.00000000000E+00 -0.65394268494E+03  0.65394268494E+03  0.25500000000E-02 0.  1.
    5000001    1    1    2    0    0 -0.11720521566E+03  0.10814088021E+03 -0.38824876025E+03  0.46155456057E+03  0.19200000000E+03 0.  0.
   -5000001    1    1    2    0    0  0.11720521566E+03 -0.10814088021E+03 -0.16104500432E+03  0.29703704477E+03  0.19200000000E+03 0.  0.
<mgrwt>
<rscale>  0 0.52319937E+03</rscale>
<asrwt>0</asrwt>
<pdfrwt beam="1">  1        2 0.93420381E-01 0.52319937E+03</pdfrwt>
<pdfrwt beam="2">  1       -2 0.14949846E-01 0.52319937E+03</pdfrwt>
<totfact> 0.17210120E+03</totfact>
</mgrwt>
</event>
<event>
 4    1  0.5621415E-005  0.7608898E+03  0.7818608E-02  0.9618419E-01
          2   -1    0    0  501    0  0.00000000000E+00  0.00000000000E+00  0.49468257732E+03  0.49468257733E+03  0.25500000000E-02 0.  1.
         -2   -1    0    0    0  501 -0.00000000000E+00 -0.00000000000E+00 -0.29258830220E+03  0.29258830221E+03  0.25500000000E-02 0. -1.
    5000001    1    1    2    0    0 -0.22388999150E+03 -0.23717493285E+03  0.14106174933E+03  0.40390728415E+03  0.19200000000E+03 0.  0.
   -5000001    1    1    2    0    0  0.22388999150E+03  0.23717493285E+03  0.61032525789E+02  0.38336359539E+03  0.19200000000E+03 0.  0.
<mgrwt>
<rscale>  0 0.76088984E+03</rscale>
<asrwt>0</asrwt>
<pdfrwt beam="1">  1        2 0.70668939E-01 0.76088984E+03</pdfrwt>
<pdfrwt beam="2">  1       -2 0.41798329E-01 0.76088984E+03</pdfrwt>
<totfact> 0.37090614E+02</totfact>
</mgrwt>
</event>
<event>
 4    1  0.5621415E-005  0.9791664E+03  0.7818608E-02  0.9331695E-01
         -2   -1    0    0    0  501 -0.00000000000E+00  0.00000000000E+00  0.11423606461E+03  0.11423606464E+03  0.25500000000E-02 0. -1.
          2   -1    0    0  501    0  0.00000000000E+00 -0.00000000000E+00 -0.20982137992E+04  0.20982137992E+04  0.25500000000E-02 0.  1.
    5000001    1    1    2    0    0 -0.36559404530E+03  0.23711554221E+03 -0.12490677006E+04  0.13367561135E+04  0.19200000000E+03 0.  0.
   -5000001    1    1    2    0    0  0.36559404530E+03 -0.23711554221E+03 -0.73491003401E+03  0.87569375035E+03  0.19200000000E+03 0.  0.
<mgrwt>
<rscale>  0 0.97916635E+03</rscale>
<asrwt>0</asrwt>
<pdfrwt beam="1">  1        2 0.29974480E+00 0.97916635E+03</pdfrwt>
<pdfrwt beam="2">  1       -2 0.16319439E-01 0.97916635E+03</pdfrwt>
<totfact> 0.21780595E+02</totfact>
</mgrwt>
</event>
<event>
 4    1  0.5621415E-005  0.5700223E+03  0.7818608E-02  0.9969629E-01
         -2   -1    0    0    0  501 -0.00000000000E+00  0.00000000000E+00  0.66370716788E+02  0.66370716837E+02  0.25500000000E-02 0. -1.
          2   -1    0    0  501    0  0.00000000000E+00 -0.00000000000E+00 -0.12239036514E+04  0.12239036514E+04  0.25500000000E-02 0.  1.
    5000001    1    1    2    0    0 -0.20860611053E+03 -0.14303667173E+01 -0.64471342602E+03  0.70429962160E+03  0.19200000000E+03 0.  0.
   -5000001    1    1    2    0    0  0.20860611053E+03  0.14303667173E+01 -0.51281950856E+03  0.58597474661E+03  0.19200000000E+03 0.  0.
<mgrwt>
<rscale>  0 0.57002232E+03</rscale>
<asrwt>0</asrwt>
<pdfrwt beam="1">  1        2 0.17484337E+00 0.57002232E+03</pdfrwt>
<pdfrwt beam="2">  1       -2 0.94815317E-02 0.57002232E+03</pdfrwt>
<totfact> 0.15631136E+03</totfact>
</mgrwt>
</event>
<event>
 4    1  0.5621415E-005  0.1083329E+04  0.7818608E-02  0.9221595E-01
          2   -1    0    0  501    0  0.00000000000E+00  0.00000000000E+00  0.64603443385E+03  0.64603443385E+03  0.25500000000E-02 0.  1.
         -2   -1    0    0    0  501 -0.00000000000E+00 -0.00000000000E+00 -0.45415607067E+03  0.45415607068E+03  0.25500000000E-02 0. -1.
    5000001    1    1    2    0    0  0.35292815180E+03 -0.36192384370E+03  0.12788205114E+03  0.55566623793E+03  0.19200000000E+03 0.  0.
   -5000001    1    1    2    0    0 -0.35292815180E+03  0.36192384370E+03  0.63996312038E+02  0.54452426661E+03  0.19200000000E+03 0.  0.
<mgrwt>
<rscale>  0 0.10833291E+04</rscale>
<asrwt>0</asrwt>
<pdfrwt beam="1">  1        2 0.92290632E-01 0.10833291E+04</pdfrwt>
<pdfrwt beam="2">  1       -2 0.64879440E-01 0.10833291E+04</pdfrwt>
<totfact> 0.10825905E+02</totfact>
</mgrwt>
</event>
<event>
 4    1  0.5621415E-005  0.9899914E+03  0.7818608E-02  0.9319591E-01
         -2   -1    0    0    0  501 -0.00000000000E+00  0.00000000000E+00  0.11676724431E+03  0.11676724433E+03  0.25500000000E-02 0. -1.
          2   -1    0    0  501    0  0.00000000000E+00 -0.00000000000E+00 -0.20983687635E+04  0.20983687635E+04  0.25500000000E-02 0.  1.
    5000001    1    1    2    0    0  0.13984656216E+03 -0.43030064813E+03 -0.11220549469E+04  0.12249844949E+04  0.19200000000E+03 0.  0.
   -5000001    1    1    2    0    0 -0.13984656216E+03  0.43030064813E+03 -0.85954657223E+03  0.99015151293E+03  0.19200000000E+03 0.  0.
<mgrwt>
<rscale>  0 0.98999139E+03</rscale>
<asrwt>0</asrwt>
<pdfrwt beam="1">  1        2 0.29976694E+00 0.98999139E+03</pdfrwt>
<pdfrwt beam="2">  1       -2 0.16681036E-01 0.98999139E+03</pdfrwt>
<totfact> 0.20957340E+02</totfact>
</mgrwt>
</event>
<event>
 4    1  0.5621415E-005  0.4632183E+03  0.7818608E-02  0.1023852E+00
         -2   -1    0    0    0  501 -0.00000000000E+00  0.00000000000E+00  0.14667236122E+03  0.14667236124E+03  0.25500000000E-02 0. -1.
          2   -1    0    0  501    0  0.00000000000E+00 -0.00000000000E+00 -0.36573211262E+03  0.36573211263E+03  0.25500000000E-02 0.  1.
    5000001    1    1    2    0    0  0.22106606022E+02  0.12640516324E+03 -0.89996250767E+02  0.24785135157E+03  0.19200000000E+03 0.  0.
   -5000001    1    1    2    0    0 -0.22106606022E+02 -0.12640516324E+03 -0.12906350063E+03  0.26455312230E+03  0.19200000000E+03 0.  0.
<mgrwt>
<rscale>  0 0.46321827E+03</rscale>
<asrwt>0</asrwt>
<pdfrwt beam="1">  1        2 0.52247444E-01 0.46321827E+03</pdfrwt>
<pdfrwt beam="2">  1       -2 0.20953195E-01 0.46321827E+03</pdfrwt>
<totfact> 0.18669579E+03</totfact>
</mgrwt>
</event>
<event>
 4    1  0.5621415E-005  0.6246643E+03  0.7818608E-02  0.9855517E-01
         -2   -1    0    0    0  501 -0.00000000000E+00  0.00000000000E+00  0.13678181608E+03  0.13678181610E+03  0.25500000000E-02 0. -1.
          2   -1    0    0  501    0  0.00000000000E+00 -0.00000000000E+00 -0.71318968754E+03  0.71318968754E+03  0.25500000000E-02 0.  1.
    5000001    1    1    2    0    0 -0.10239265453E+03 -0.22351955264E+03 -0.30937711401E+03  0.43934433510E+03  0.19200000000E+03 0.  0.
   -5000001    1    1    2    0    0  0.10239265453E+03  0.22351955264E+03 -0.26703075745E+03  0.41062716854E+03  0.19200000000E+03 0.  0.
<mgrwt>
<rscale>  0 0.62466433E+03</rscale>
<asrwt>0</asrwt>
<pdfrwt beam="1">  1        2 0.10188424E+00 0.62466433E+03</pdfrwt>
<pdfrwt beam="2">  1       -2 0.19540260E-01 0.62466433E+03</pdfrwt>
<totfact> 0.97991572E+02</totfact>
</mgrwt>
</event>
<event>
 4    1  0.5621415E-005  0.6070121E+03  0.7818608E-02  0.9890964E-01
          2   -1    0    0  501    0  0.00000000000E+00  0.00000000000E+00  0.15471429788E+04  0.15471429788E+04  0.25500000000E-02 0.  1.
         -2   -1    0    0    0  501 -0.00000000000E+00 -0.00000000000E+00 -0.59539374009E+02  0.59539374063E+02  0.25500000000E-02 0. -1.
    5000001    1    1    2    0    0 -0.94515764421E+02 -0.77546967749E+02  0.12751913516E+04  0.12953469594E+04  0.19200000000E+03 0.  0.
   -5000001    1    1    2    0    0  0.94515764421E+02  0.77546967749E+02  0.21241225313E+03  0.31133539345E+03  0.19200000000E+03 0.  0.
<mgrwt>
<rscale>  0 0.60701211E+03</rscale>
<asrwt>0</asrwt>
<pdfrwt beam="1">  1        2 0.22102039E+00 0.60701211E+03</pdfrwt>
<pdfrwt beam="2">  1       -2 0.85056262E-02 0.60701211E+03</pdfrwt>
<totfact> 0.12496187E+03</totfact>
</mgrwt>
</event>
<event>
 4    1  0.5621415E-005  0.6671217E+03  0.7818608E-02  0.9775172E-01
         -2   -1    0    0    0  501 -0.00000000000E+00  0.00000000000E+00  0.91872639125E+02  0.91872639161E+02  0.25500000000E-02 0. -1.
          2   -1    0    0  501    0  0.00000000000E+00 -0.00000000000E+00 -0.12110552849E+04  0.12110552849E+04  0.25500000000E-02 0.  1.
    5000001    1    1    2    0    0  0.17467259802E+03 -0.12990878369E+03 -0.88058315402E+03  0.92718795275E+03  0.19200000000E+03 0.  0.
   -5000001    1    1    2    0    0 -0.17467259802E+03  0.12990878369E+03 -0.23859949176E+03  0.37573997132E+03  0.19200000000E+03 0.  0.
<mgrwt>
<rscale>  0 0.66712171E+03</rscale>
<asrwt>0</asrwt>
<pdfrwt beam="1">  1        2 0.17300789E+00 0.66712171E+03</pdfrwt>
<pdfrwt beam="2">  1       -2 0.13124663E-01 0.66712171E+03</pdfrwt>
<totfact> 0.93060013E+02</totfact>
</mgrwt>
</event>
<event>
 4    1  0.5621415E-005  0.7344855E+03  0.7818608E-02  0.9660010E-01
         -2   -1    0    0    0  501 -0.00000000000E+00  0.00000000000E+00  0.10222383837E+03  0.10222383840E+03  0.25500000000E-02 0. -1.
          2   -1    0    0  501    0  0.00000000000E+00 -0.00000000000E+00 -0.13193324974E+04  0.13193324974E+04  0.25500000000E-02 0.  1.
    5000001    1    1    2    0    0 -0.10315748625E+03  0.25992764055E+03 -0.33621728096E+03  0.47760852726E+03  0.19200000000E+03 0.  0.
   -5000001    1    1    2    0    0  0.10315748625E+03 -0.25992764055E+03 -0.88089137808E+03  0.94394780855E+03  0.19200000000E+03 0.  0.
<mgrwt>
<rscale>  0 0.73448549E+03</rscale>
<asrwt>0</asrwt>
<pdfrwt beam="1">  1        2 0.18847606E+00 0.73448549E+03</pdfrwt>
<pdfrwt beam="2">  1       -2 0.14603406E-01 0.73448549E+03</pdfrwt>
<totfact> 0.67635227E+02</totfact>
</mgrwt>
</event>
<event>
 4    1  0.5621415E-005  0.4800873E+03  0.7818608E-02  0.1019111E+00
          2   -1    0    0  501    0  0.00000000000E+00  0.00000000000E+00  0.11203883284E+04  0.11203883284E+04  0.25500000000E-02 0.  1.
         -2   -1    0    0    0  501 -0.00000000000E+00 -0.00000000000E+00 -0.51429453803E+02  0.51429453866E+02  0.25500000000E-02 0. -1.
    5000001    1    1    2    0    0 -0.11087191478E+03 -0.91573319637E+02  0.55613364347E+03  0.60566235128E+03  0.19200000000E+03 0.  0.
   -5000001    1    1    2    0    0  0.11087191478E+03  0.91573319637E+02  0.51282523109E+03  0.56615543095E+03  0.19200000000E+03 0.  0.
<mgrwt>
<rscale>  0 0.48008732E+03</rscale>
<asrwt>0</asrwt>
<pdfrwt beam="1">  1        2 0.16005547E+00 0.48008732E+03</pdfrwt>
<pdfrwt beam="2">  1       -2 0.73470652E-02 0.48008732E+03</pdfrwt>
<totfact> 0.26874408E+03</totfact>
</mgrwt>
</event>
<event>
 4    1  0.5621415E-005  0.6415523E+03  0.7818608E-02  0.9822761E-01
         -2   -1    0    0    0  501 -0.00000000000E+00  0.00000000000E+00  0.25018532409E+03  0.25018532410E+03  0.25500000000E-02 0. -1.
          2   -1    0    0  501    0  0.00000000000E+00 -0.00000000000E+00 -0.41128441844E+03  0.41128441845E+03  0.25500000000E-02 0.  1.
    5000001    1    1    2    0    0  0.43711022339E+02 -0.22479517913E+03  0.39644917793E+02  0.30146184757E+03  0.19200000000E+03 0.  0.
   -5000001    1    1    2    0    0 -0.43711022339E+02  0.22479517913E+03 -0.20074401214E+03  0.36000789498E+03  0.19200000000E+03 0.  0.
<mgrwt>
<rscale>  0 0.64155226E+03</rscale>
<asrwt>0</asrwt>
<pdfrwt beam="1">  1        2 0.58754917E-01 0.64155226E+03</pdfrwt>
<pdfrwt beam="2">  1       -2 0.35740761E-01 0.64155226E+03</pdfrwt>
<totfact> 0.62026045E+02</totfact>
</mgrwt>
</event>
<event>
 4    1  0.5621415E-005  0.8487655E+03  0.7818608E-02  0.9491995E-01
          2   -1    0    0  501    0  0.00000000000E+00  0.00000000000E+00  0.36223622055E+04  0.36223622055E+04  0.25500000000E-02 0.  1.
         -2   -1    0    0    0  501 -0.00000000000E+00 -0.00000000000E+00 -0.49719134576E+02  0.49719134641E+02  0.25500000000E-02 0. -1.
    5000001    1    1    2    0    0  0.32696285923E+03 -0.14771925106E+03  0.23074846064E+04  0.23430908854E+04  0.19200000000E+03 0.  0.
   -5000001    1    1    2    0    0 -0.32696285923E+03  0.14771925106E+03  0.12651584645E+04  0.13289904547E+04  0.19200000000E+03 0.  0.
<mgrwt>
<rscale>  0 0.84876549E+03</rscale>
<asrwt>0</asrwt>
<pdfrwt beam="1">  1        2 0.51748033E+00 0.84876549E+03</pdfrwt>
<pdfrwt beam="2">  1       -2 0.71027332E-02 0.84876549E+03</pdfrwt>
<totfact> 0.12692473E+02</totfact>
</mgrwt>
</event>
<event>
 4    1  0.5621415E-005  0.1147190E+04  0.7818608E-02  0.9160380E-01
          2   -1    0    0  501    0  0.00000000000E+00  0.00000000000E+00  0.56823798084E+03  0.56823798084E+03  0.25500000000E-02 0.  1.
         -2   -1    0    0    0  501 -0.00000000000E+00 -0.00000000000E+00 -0.57900233786E+03  0.57900233787E+03  0.25500000000E-02 0. -1.
    5000001    1    1    2    0    0 -0.49068993597E+03 -0.21632369263E+03  0.62256337808E+02  0.57298551888E+03  0.19200000000E+03 0.  0.
   -5000001    1    1    2    0    0  0.49068993597E+03  0.21632369263E+03 -0.73020694832E+02  0.57425479983E+03  0.19200000000E+03 0.  0.
<mgrwt>
<rscale>  0 0.11471898E+04</rscale>
<asrwt>0</asrwt>
<pdfrwt beam="1">  1        2 0.81176855E-01 0.11471898E+04</pdfrwt>
<pdfrwt beam="2">  1       -2 0.82714619E-01 0.11471898E+04</pdfrwt>
<totfact> 0.73533804E+01</totfact>
</mgrwt>
</event>
<event>
 4    1  0.5621415E-005  0.7011862E+03  0.7818608E-02  0.9715206E-01
          2   -1    0    0  501    0  0.00000000000E+00  0.00000000000E+00  0.12211118078E+04  0.12211118078E+04  0.25500000000E-02 0.  1.
         -2   -1    0    0    0  501 -0.00000000000E+00 -0.00000000000E+00 -0.10065870442E+03  0.10065870445E+03  0.25500000000E-02 0. -1.
    5000001    1    1    2    0    0  0.25485542030E+03  0.44290955478E+02  0.82100835978E+03  0.88194767465E+03  0.19200000000E+03 0.  0.
   -5000001    1    1    2    0    0 -0.25485542030E+03 -0.44290955478E+02  0.29944474356E+03  0.43982283756E+03  0.19200000000E+03 0.  0.
<mgrwt>
<rscale>  0 0.70118623E+03</rscale>
<asrwt>0</asrwt>
<pdfrwt beam="1">  1        2 0.17444456E+00 0.70118623E+03</pdfrwt>
<pdfrwt beam="2">  1       -2 0.14379814E-01 0.70118623E+03</pdfrwt>
<totfact> 0.78750061E+02</totfact>
</mgrwt>
</event>
<event>
 4    1  0.5621415E-005  0.5096770E+03  0.7818608E-02  0.1011284E+00
          2   -1    0    0  501    0  0.00000000000E+00  0.00000000000E+00  0.92512058401E+03  0.92512058402E+03  0.25500000000E-02 0.  1.
         -2   -1    0    0    0  501 -0.00000000000E+00 -0.00000000000E+00 -0.70199122980E+02  0.70199123027E+02  0.25500000000E-02 0. -1.
    5000001    1    1    2    0    0 -0.12353151797E+02  0.14971375391E+03  0.28247805893E+03  0.37312821154E+03  0.19200000000E+03 0.  0.
   -5000001    1    1    2    0    0  0.12353151797E+02 -0.14971375391E+03  0.57244340210E+03  0.62219149550E+03  0.19200000000E+03 0.  0.
<mgrwt>
<rscale>  0 0.50967697E+03</rscale>
<asrwt>0</asrwt>
<pdfrwt beam="1">  1        2 0.13216007E+00 0.50967697E+03</pdfrwt>
<pdfrwt beam="2">  1       -2 0.10028447E-01 0.50967697E+03</pdfrwt>
<totfact> 0.21419593E+03</totfact>
</mgrwt>
</event>
<event>
 4    1  0.5621415E-005  0.1274939E+04  0.7818608E-02  0.9049678E-01
          2   -1    0    0  501    0  0.00000000000E+00  0.00000000000E+00  0.84617517121E+03  0.84617517121E+03  0.25500000000E-02 0.  1.
         -2   -1    0    0    0  501 -0.00000000000E+00 -0.00000000000E+00 -0.48024042237E+03  0.48024042238E+03  0.25500000000E-02 0. -1.
    5000001    1    1    2    0    0 -0.28292780627E+03  0.53753201512E+03  0.15936412679E+03  0.65669607563E+03  0.19200000000E+03 0.  0.
   -5000001    1    1    2    0    0  0.28292780627E+03 -0.53753201512E+03  0.20657062204E+03  0.66971951796E+03  0.19200000000E+03 0.  0.
<mgrwt>
<rscale>  0 0.12749392E+04</rscale>
<asrwt>0</asrwt>
<pdfrwt beam="1">  1        2 0.12088217E+00 0.12749392E+04</pdfrwt>
<pdfrwt beam="2">  1       -2 0.68605775E-01 0.12749392E+04</pdfrwt>
<totfact> 0.67442729E+01</totfact>
</mgrwt>
</event>
<event>
 4    1  0.5621415E-005  0.1271989E+04  0.7818608E-02  0.9052078E-01
         -2   -1    0    0    0  501 -0.00000000000E+00  0.00000000000E+00  0.37254709560E+03  0.37254709561E+03  0.25500000000E-02 0. -1.
          2   -1    0    0  501    0  0.00000000000E+00 -0.00000000000E+00 -0.10857387418E+04  0.10857387418E+04  0.25500000000E-02 0.  1.
    5000001    1    1    2    0    0  0.53375639602E+03 -0.75979506523E+02 -0.38556546143E+02  0.57360211206E+03  0.19200000000E+03 0.  0.
   -5000001    1    1    2    0    0 -0.53375639602E+03  0.75979506523E+02 -0.67463510009E+03  0.88468372539E+03  0.19200000000E+03 0.  0.
<mgrwt>
<rscale>  0 0.12719887E+04</rscale>
<asrwt>0</asrwt>
<pdfrwt beam="1">  1        2 0.15510553E+00 0.12719887E+04</pdfrwt>
<pdfrwt beam="2">  1       -2 0.53221014E-01 0.12719887E+04</pdfrwt>
<totfact> 0.81473132E+01</totfact>
</mgrwt>
</event>
<event>
 4    1  0.5621415E-005  0.5594508E+03  0.7818608E-02  0.9993298E-01
         -2   -1    0    0    0  501 -0.00000000000E+00  0.00000000000E+00  0.89103539022E+03  0.89103539023E+03  0.25500000000E-02 0. -1.
          2   -1    0    0  501    0  0.00000000000E+00 -0.00000000000E+00 -0.87815027110E+02  0.87815027147E+02  0.25500000000E-02 0.  1.
    5000001    1    1    2    0    0 -0.92275130569E+02  0.14040195879E+03  0.20093299561E+03  0.32475448954E+03  0.19200000000E+03 0.  0.
   -5000001    1    1    2    0    0  0.92275130569E+02 -0.14040195879E+03  0.60228736750E+03  0.65409592783E+03  0.19200000000E+03 0.  0.
<mgrwt>
<rscale>  0 0.55945079E+03</rscale>
<asrwt>0</asrwt>
<pdfrwt beam="1">  1        2 0.12545004E-01 0.55945079E+03</pdfrwt>
<pdfrwt beam="2">  1       -2 0.12729077E+00 0.55945079E+03</pdfrwt>
<totfact> 0.23206788E+02</totfact>
</mgrwt>
</event>
<event>
 4    1  0.5621415E-005  0.6163868E+03  0.7818608E-02  0.9871980E-01
          2   -1    0    0  501    0  0.00000000000E+00  0.00000000000E+00  0.81248108481E+03  0.81248108481E+03  0.25500000000E-02 0.  1.
         -2   -1    0    0    0  501 -0.00000000000E+00 -0.00000000000E+00 -0.11690510579E+03  0.11690510582E+03  0.25500000000E-02 0. -1.
    5000001    1    1    2    0    0  0.23530271935E+03 -0.52367505676E+02  0.34315000058E+03  0.46122190786E+03  0.19200000000E+03 0.  0.
   -5000001    1    1    2    0    0 -0.23530271935E+03  0.52367505676E+02  0.35242597844E+03  0.46816428277E+03  0.19200000000E+03 0.  0.
<mgrwt>
<rscale>  0 0.61638685E+03</rscale>
<asrwt>0</asrwt>
<pdfrwt beam="1">  1        2 0.11606872E+00 0.61638685E+03</pdfrwt>
<pdfrwt beam="2">  1       -2 0.16700730E-01 0.61638685E+03</pdfrwt>
<totfact> 0.10898745E+03</totfact>
</mgrwt>
</event>
<event>
 4    1  0.5621415E-005  0.5191324E+03  0.7818608E-02  0.1008902E+00
          2   -1    0    0  501    0  0.00000000000E+00  0.00000000000E+00  0.37058637079E+03  0.37058637080E+03  0.25500000000E-02 0.  1.
         -2   -1    0    0    0  501 -0.00000000000E+00 -0.00000000000E+00 -0.18180540388E+03  0.18180540390E+03  0.25500000000E-02 0. -1.
    5000001    1    1    2    0    0  0.16215317744E+03 -0.37942642231E+02  0.15046700891E+03  0.29536014935E+03  0.19200000000E+03 0.  0.
   -5000001    1    1    2    0    0 -0.16215317744E+03  0.37942642231E+02  0.38313957997E+02  0.25703162535E+03  0.19200000000E+03 0.  0.
<mgrwt>
<rscale>  0 0.51913237E+03</rscale>
<asrwt>0</asrwt>
<pdfrwt beam="1">  1        2 0.52940910E-01 0.51913237E+03</pdfrwt>
<pdfrwt beam="2">  1       -2 0.25972200E-01 0.51913237E+03</pdfrwt>
<totfact> 0.12587417E+03</totfact>
</mgrwt>
</event>
<event>
 4    1  0.5621415E-005  0.6274547E+03  0.7818608E-02  0.9850028E-01
          2   -1    0    0  501    0  0.00000000000E+00  0.00000000000E+00  0.18593322252E+04  0.18593322252E+04  0.25500000000E-02 0.  1.
         -2   -1    0    0    0  501 -0.00000000000E+00 -0.00000000000E+00 -0.52935585132E+02  0.52935585193E+02  0.25500000000E-02 0. -1.
    5000001    1    1    2    0    0 -0.23550085123E+03  0.66315726387E+02  0.77745098003E+03  0.83734846561E+03  0.19200000000E+03 0.  0.
   -5000001    1    1    2    0    0  0.23550085123E+03 -0.66315726387E+02  0.10289456600E+04  0.10749193448E+04  0.19200000000E+03 0.  0.
<mgrwt>
<rscale>  0 0.62745467E+03</rscale>
<asrwt>0</asrwt>
<pdfrwt beam="1">  1        2 0.26561887E+00 0.62745467E+03</pdfrwt>
<pdfrwt beam="2">  1       -2 0.75622271E-02 0.62745467E+03</pdfrwt>
<totfact> 0.10439963E+03</totfact>
</mgrwt>
</event>
<event>
 4    1  0.5621415E-005  0.4104382E+03  0.7818608E-02  0.1040224E+00
         -2   -1    0    0    0  501 -0.00000000000E+00  0.00000000000E+00  0.13617531647E+03  0.13617531650E+03  0.25500000000E-02 0. -1.
          2   -1    0    0  501    0  0.00000000000E+00 -0.00000000000E+00 -0.30926951167E+03  0.30926951168E+03  0.25500000000E-02 0.  1.
    5000001    1    1    2    0    0  0.14423552460E+02  0.70954725342E+02 -0.83427623056E+02  0.22151022595E+03  0.19200000000E+03 0.  0.
   -5000001    1    1    2    0    0 -0.14423552460E+02 -0.70954725342E+02 -0.89666572141E+02  0.22393460222E+03  0.19200000000E+03 0.  0.
<mgrwt>
<rscale>  0 0.41043817E+03</rscale>
<asrwt>0</asrwt>
<pdfrwt beam="1">  1        2 0.44181359E-01 0.41043817E+03</pdfrwt>
<pdfrwt beam="2">  1       -2 0.19453617E-01 0.41043817E+03</pdfrwt>
<totfact> 0.25470449E+03</totfact>
</mgrwt>
</event>
<event>
 4    1  0.5621415E-005  0.4316127E+03  0.7818608E-02  0.1033352E+00
         -2   -1    0    0    0  501 -0.00000000000E+00  0.00000000000E+00  0.29390217437E+02  0.29390217548E+02  0.25500000000E-02 0. -1.
          2   -1    0    0  501    0  0.00000000000E+00 -0.00000000000E+00 -0.15846216207E+04  0.15846216207E+04  0.25500000000E-02 0.  1.
    5000001    1    1    2    0    0 -0.51296697362E+02  0.83921356986E+02 -0.75573767690E+03  0.78592466662E+03  0.19200000000E+03 0.  0.
   -5000001    1    1    2    0    0  0.51296697362E+02 -0.83921356986E+02 -0.79949372632E+03  0.82808717158E+03  0.19200000000E+03 0.  0.
<mgrwt>
<rscale>  0 0.43161267E+03</rscale>
<asrwt>0</asrwt>
<pdfrwt beam="1">  1        2 0.22637446E+00 0.43161267E+03</pdfrwt>
<pdfrwt beam="2">  1       -2 0.41986035E-02 0.43161267E+03</pdfrwt>
<totfact> 0.36154827E+03</totfact>
</mgrwt>
</event>
<event>
 4    1  0.5621415E-005  0.8256658E+03  0.7818608E-02  0.9523592E-01
         -2   -1    0    0    0  501 -0.00000000000E+00  0.00000000000E+00  0.93272762309E+02  0.93272762344E+02  0.25500000000E-02 0. -1.
          2   -1    0    0  501    0  0.00000000000E+00 -0.00000000000E+00 -0.18272323990E+04  0.18272323990E+04  0.25500000000E-02 0.  1.
    5000001    1    1    2    0    0  0.11769643804E+03  0.27200093849E+03 -0.36957267975E+03  0.51116037374E+03  0.19200000000E+03 0.  0.
   -5000001    1    1    2    0    0 -0.11769643804E+03 -0.27200093849E+03 -0.13643869569E+04  0.14093447876E+04  0.19200000000E+03 0.  0.
<mgrwt>
<rscale>  0 0.82566582E+03</rscale>
<asrwt>0</asrwt>
<pdfrwt beam="1">  1        2 0.26103318E+00 0.82566582E+03</pdfrwt>
<pdfrwt beam="2">  1       -2 0.13324681E-01 0.82566582E+03</pdfrwt>
<totfact> 0.42607452E+02</totfact>
</mgrwt>
</event>
<event>
 4    1  0.5621415E-005  0.6024620E+03  0.7818608E-02  0.9900311E-01
          2   -1    0    0  501    0  0.00000000000E+00  0.00000000000E+00  0.13890903323E+04  0.13890903323E+04  0.25500000000E-02 0.  1.
         -2   -1    0    0    0  501 -0.00000000000E+00 -0.00000000000E+00 -0.65323418254E+02  0.65323418304E+02  0.25500000000E-02 0. -1.
    5000001    1    1    2    0    0  0.12238956365E+03  0.17494336252E+03  0.88171054558E+03  0.92728737270E+03  0.19200000000E+03 0.  0.
   -5000001    1    1    2    0    0 -0.12238956365E+03 -0.17494336252E+03  0.44205636843E+03  0.52712637787E+03  0.19200000000E+03 0.  0.
<mgrwt>
<rscale>  0 0.60246204E+03</rscale>
<asrwt>0</asrwt>
<pdfrwt beam="1">  1        2 0.19844147E+00 0.60246204E+03</pdfrwt>
<pdfrwt beam="2">  1       -2 0.93319173E-02 0.60246204E+03</pdfrwt>
<totfact> 0.13033495E+03</totfact>
</mgrwt>
</event>
<event>
 4    1  0.5621415E-005  0.4589743E+03  0.7818608E-02  0.1025079E+00
          2   -1    0    0  501    0  0.00000000000E+00  0.00000000000E+00  0.11112253998E+04  0.11112253998E+04  0.25500000000E-02 0.  1.
         -2   -1    0    0    0  501 -0.00000000000E+00 -0.00000000000E+00 -0.47393048930E+02  0.47393048998E+02  0.25500000000E-02 0. -1.
    5000001    1    1    2    0    0  0.10096565632E+03 -0.70257611429E+02  0.59726572653E+03  0.63931255565E+03  0.19200000000E+03 0.  0.
   -5000001    1    1    2    0    0 -0.10096565632E+03  0.70257611429E+02  0.46656662436E+03  0.51930589318E+03  0.19200000000E+03 0.  0.
<mgrwt>
<rscale>  0 0.45897433E+03</rscale>
<asrwt>0</asrwt>
<pdfrwt beam="1">  1        2 0.15874647E+00 0.45897433E+03</pdfrwt>
<pdfrwt beam="2">  1       -2 0.67704362E-02 0.45897433E+03</pdfrwt>
<totfact> 0.30928476E+03</totfact>
</mgrwt>
</event>
<event>
 4    1  0.5621415E-005  0.7452055E+03  0.7818608E-02  0.9642902E-01
         -2   -1    0    0    0  501 -0.00000000000E+00  0.00000000000E+00  0.37018719952E+03  0.37018719953E+03  0.25500000000E-02 0. -1.
          2   -1    0    0  501    0  0.00000000000E+00 -0.00000000000E+00 -0.37503403692E+03  0.37503403693E+03  0.25500000000E-02 0.  1.
    5000001    1    1    2    0    0  0.10118240640E+03 -0.29033615545E+03  0.83809706524E+02  0.37204976742E+03  0.19200000000E+03 0.  0.
   -5000001    1    1    2    0    0 -0.10118240640E+03  0.29033615545E+03 -0.88656543920E+02  0.37317146904E+03  0.19200000000E+03 0.  0.
<mgrwt>
<rscale>  0 0.74520547E+03</rscale>
<asrwt>0</asrwt>
<pdfrwt beam="1">  1        2 0.53576291E-01 0.74520547E+03</pdfrwt>
<pdfrwt beam="2">  1       -2 0.52883886E-01 0.74520547E+03</pdfrwt>
<totfact> 0.31595978E+02</totfact>
</mgrwt>
</event>
<event>
 4    1  0.5621415E-005  0.4908255E+03  0.7818608E-02  0.1016202E+00
         -2   -1    0    0    0  501 -0.00000000000E+00  0.00000000000E+00  0.28867602872E+03  0.28867602873E+03  0.25500000000E-02 0. -1.
          2   -1    0    0  501    0  0.00000000000E+00 -0.00000000000E+00 -0.20863326718E+03  0.20863326720E+03  0.25500000000E-02 0.  1.
    5000001    1    1    2    0    0  0.14457736342E+03 -0.49512029690E+02  0.36920240540E+02  0.24815551427E+03  0.19200000000E+03 0.  0.
   -5000001    1    1    2    0    0 -0.14457736342E+03  0.49512029690E+02  0.43122520993E+02  0.24915378166E+03  0.19200000000E+03 0.  0.
<mgrwt>
<rscale>  0 0.49082552E+03</rscale>
<asrwt>0</asrwt>
<pdfrwt beam="1">  1        2 0.29804753E-01 0.49082552E+03</pdfrwt>
<pdfrwt beam="2">  1       -2 0.41239432E-01 0.49082552E+03</pdfrwt>
<totfact> 0.10000829E+03</totfact>
</mgrwt>
</event>
<event>
 4    1  0.5621415E-005  0.5273743E+03  0.7818608E-02  0.1006871E+00
         -2   -1    0    0    0  501 -0.00000000000E+00  0.00000000000E+00  0.72191026801E+03  0.72191026802E+03  0.25500000000E-02 0. -1.
          2   -1    0    0  501    0  0.00000000000E+00 -0.00000000000E+00 -0.96315169294E+02  0.96315169328E+02  0.25500000000E-02 0.  1.
    5000001    1    1    2    0    0  0.10100186931E+03 -0.11506234495E+03  0.16377046806E+03  0.29517026787E+03  0.19200000000E+03 0.  0.
   -5000001    1    1    2    0    0 -0.10100186931E+03  0.11506234495E+03  0.46182463066E+03  0.52305516947E+03  0.19200000000E+03 0.  0.
<mgrwt>
<rscale>  0 0.52737429E+03</rscale>
<asrwt>0</asrwt>
<pdfrwt beam="1">  1        2 0.13759310E-01 0.52737429E+03</pdfrwt>
<pdfrwt beam="2">  1       -2 0.10313004E+00 0.52737429E+03</pdfrwt>
<totfact> 0.34595528E+02</totfact>
</mgrwt>
</event>
<event>
 4    1  0.5621415E-005  0.4798526E+03  0.7818608E-02  0.1019176E+00
          2   -1    0    0  501    0  0.00000000000E+00  0.00000000000E+00  0.70909890970E+02  0.70909891016E+02  0.25500000000E-02 0.  1.
         -2   -1    0    0    0  501 -0.00000000000E+00 -0.00000000000E+00 -0.81179973435E+03  0.81179973435E+03  0.25500000000E-02 0. -1.
    5000001    1    1    2    0    0 -0.12002748368E+03 -0.15097669967E+01 -0.51635856029E+03  0.56382536216E+03  0.19200000000E+03 0.  0.
   -5000001    1    1    2    0    0  0.12002748368E+03  0.15097669967E+01 -0.22453128309E+03  0.31888426320E+03  0.19200000000E+03 0.  0.
<mgrwt>
<rscale>  0 0.47985261E+03</rscale>
<asrwt>0</asrwt>
<pdfrwt beam="1">  1        2 0.10129985E-01 0.47985261E+03</pdfrwt>
<pdfrwt beam="2">  1       -2 0.11597138E+00 0.47985261E+03</pdfrwt>
<totfact> 0.38199078E+02</totfact>
</mgrwt>
</event>
<event>
 4    1  0.5621415E-005  0.5698530E+03  0.7818608E-02  0.9970004E-01
         -2   -1    0    0    0  501 -0.00000000000E+00  0.00000000000E+00  0.12310483470E+03  0.12310483473E+03  0.25500000000E-02 0. -1.
          2   -1    0    0  501    0  0.00000000000E+00 -0.00000000000E+00 -0.65946315227E+03  0.65946315227E+03  0.25500000000E-02 0.  1.
    5000001    1    1    2    0    0  0.39763152755E+02  0.19505936148E+03 -0.17413360832E+03  0.32682682932E+03  0.19200000000E+03 0.  0.
   -5000001    1    1    2    0    0 -0.39763152755E+02 -0.19505936148E+03 -0.36222470924E+03  0.45574115768E+03  0.19200000000E+03 0.  0.
<mgrwt>
<rscale>  0 0.56985297E+03</rscale>
<asrwt>0</asrwt>
<pdfrwt beam="1">  1        2 0.94209020E-01 0.56985297E+03</pdfrwt>
<pdfrwt beam="2">  1       -2 0.17586405E-01 0.56985297E+03</pdfrwt>
<totfact> 0.12936009E+03</totfact>
</mgrwt>
</event>
<event>
 4    1  0.5621415E-005  0.4675202E+03  0.7818608E-02  0.1022622E+00
          2   -1    0    0  501    0  0.00000000000E+00  0.00000000000E+00  0.24925266120E+04  0.24925266120E+04  0.25500000000E-02 0.  1.
         -2   -1    0    0    0  501 -0.00000000000E+00 -0.00000000000E+00 -0.21923046890E+02  0.21923047039E+02  0.25500000000E-02 0. -1.
    5000001    1    1    2    0    0 -0.13000519215E+03  0.29520613616E+02  0.12211115421E+04  0.12432820335E+04  0.19200000000E+03 0.  0.
   -5000001    1    1    2    0    0  0.13000519215E+03 -0.29520613616E+02  0.12494920230E+04  0.12711676255E+04  0.19200000000E+03 0.  0.
<mgrwt>
<rscale>  0 0.46752017E+03</rscale>
<asrwt>0</asrwt>
<pdfrwt beam="1">  1        2 0.35607508E+00 0.46752017E+03</pdfrwt>
<pdfrwt beam="2">  1       -2 0.31318652E-02 0.46752017E+03</pdfrwt>
<totfact> 0.19791477E+03</totfact>
</mgrwt>
</event>
<event>
 4    1  0.5621415E-005  0.6204423E+03  0.7818608E-02  0.9863880E-01
          2   -1    0    0  501    0  0.00000000000E+00  0.00000000000E+00  0.17275062833E+04  0.17275062833E+04  0.25500000000E-02 0. -1.
         -2   -1    0    0    0  501 -0.00000000000E+00 -0.00000000000E+00 -0.55708715142E+02  0.55708715200E+02  0.25500000000E-02 0.  1.
    5000001    1    1    2    0    0  0.14558093907E+03  0.16863365717E+03  0.11195777754E+04  0.11575618840E+04  0.19200000000E+03 0.  0.
   -5000001    1    1    2    0    0 -0.14558093907E+03 -0.16863365717E+03  0.55221979276E+03  0.62565311449E+03  0.19200000000E+03 0.  0.
<mgrwt>
<rscale>  0 0.62044228E+03</rscale>
<asrwt>0</asrwt>
<pdfrwt beam="1">  1        2 0.24678659E+00 0.62044228E+03</pdfrwt>
<pdfrwt beam="2">  1       -2 0.79583886E-02 0.62044228E+03</pdfrwt>
<totfact> 0.11226768E+03</totfact>
</mgrwt>
</event>
<event>
 4    1  0.5621415E-005  0.5233937E+03  0.7818608E-02  0.1007847E+00
         -2   -1    0    0    0  501 -0.00000000000E+00  0.00000000000E+00  0.73894277244E+02  0.73894277288E+02  0.25500000000E-02 0. -1.
          2   -1    0    0  501    0  0.00000000000E+00 -0.00000000000E+00 -0.92680034502E+03  0.92680034503E+03  0.25500000000E-02 0.  1.
    5000001    1    1    2    0    0  0.17504559122E+03  0.34427974189E+01 -0.36695437886E+03  0.44963577262E+03  0.19200000000E+03 0.  0.
   -5000001    1    1    2    0    0 -0.17504559122E+03 -0.34427974189E+01 -0.48595168892E+03  0.55105884969E+03  0.19200000000E+03 0.  0.
<mgrwt>
<rscale>  0 0.52339370E+03</rscale>
<asrwt>0</asrwt>
<pdfrwt beam="1">  1        2 0.13240004E+00 0.52339370E+03</pdfrwt>
<pdfrwt beam="2">  1       -2 0.10556326E-01 0.52339370E+03</pdfrwt>
<totfact> 0.19663100E+03</totfact>
</mgrwt>
</event>
<event>
 4    1  0.5621415E-005  0.5251427E+03  0.7818608E-02  0.1007417E+00
         -2   -1    0    0    0  501 -0.00000000000E+00  0.00000000000E+00  0.53535635888E+03  0.53535635888E+03  0.25500000000E-02 0. -1.
          2   -1    0    0  501    0  0.00000000000E+00 -0.00000000000E+00 -0.12878098080E+03  0.12878098083E+03  0.25500000000E-02 0.  1.
    5000001    1    1    2    0    0 -0.15355747969E+03 -0.65018413354E+02  0.28595193245E+03  0.38267453706E+03  0.19200000000E+03 0.  0.
   -5000001    1    1    2    0    0  0.15355747969E+03  0.65018413354E+02  0.12062344563E+03  0.28146280265E+03  0.19200000000E+03 0.  0.
<mgrwt>
<rscale>  0 0.52514271E+03</rscale>
<asrwt>0</asrwt>
<pdfrwt beam="1">  1        2 0.18397283E-01 0.52514271E+03</pdfrwt>
<pdfrwt beam="2">  1       -2 0.76479480E-01 0.52514271E+03</pdfrwt>
<totfact> 0.48382577E+02</totfact>
</mgrwt>
</event>
<event>
 4    1  0.5621415E-005  0.9031834E+03  0.7818608E-02  0.9421611E-01
          2   -1    0    0  501    0  0.00000000000E+00  0.00000000000E+00  0.12751643571E+04  0.12751643571E+04  0.25500000000E-02 0.  1.
         -2   -1    0    0    0  501 -0.00000000000E+00 -0.00000000000E+00 -0.15992845539E+03  0.15992845541E+03  0.25500000000E-02 0. -1.
    5000001    1    1    2    0    0  0.39319231534E+03 -0.89774740455E+02  0.66315150008E+03  0.79955838619E+03  0.19200000000E+03 0.  0.
   -5000001    1    1    2    0    0 -0.39319231534E+03  0.89774740455E+02  0.45208440167E+03  0.63553442637E+03  0.19200000000E+03 0.  0.
<mgrwt>
<rscale>  0 0.90318341E+03</rscale>
<asrwt>0</asrwt>
<pdfrwt beam="1">  1        2 0.18216634E+00 0.90318341E+03</pdfrwt>
<pdfrwt beam="2">  1       -2 0.22846921E-01 0.90318341E+03</pdfrwt>
<totfact> 0.32679140E+02</totfact>
</mgrwt>
</event>
<event>
 4    1  0.5621415E-005  0.4019726E+03  0.7818608E-02  0.1043099E+00
         -2   -1    0    0    0  501 -0.00000000000E+00  0.00000000000E+00  0.26813362935E+03  0.26813362936E+03  0.25500000000E-02 0. -1.
          2   -1    0    0  501    0  0.00000000000E+00 -0.00000000000E+00 -0.15065436483E+03  0.15065436485E+03  0.25500000000E-02 0.  1.
    5000001    1    1    2    0    0 -0.44160111470E+02  0.39627141964E+02  0.62206883148E+02  0.21036663741E+03  0.19200000000E+03 0.  0.
   -5000001    1    1    2    0    0  0.44160111470E+02 -0.39627141964E+02  0.55272381371E+02  0.20842135679E+03  0.19200000000E+03 0.  0.
<mgrwt>
<rscale>  0 0.40197264E+03</rscale>
<asrwt>0</asrwt>
<pdfrwt beam="1">  1        2 0.21522052E-01 0.40197264E+03</pdfrwt>
<pdfrwt beam="2">  1       -2 0.38304805E-01 0.40197264E+03</pdfrwt>
<totfact> 0.16649660E+03</totfact>
</mgrwt>
</event>
<event>
 4    1  0.5621415E-005  0.5274205E+03  0.7818608E-02  0.1006860E+00
          2   -1    0    0  501    0  0.00000000000E+00  0.00000000000E+00  0.30927706337E+04  0.30927706337E+04  0.25500000000E-02 0.  1.
         -2   -1    0    0    0  501 -0.00000000000E+00 -0.00000000000E+00 -0.22485690885E+02  0.22485691030E+02  0.25500000000E-02 0. -1.
    5000001    1    1    2    0    0  0.16025594796E+03 -0.28733586154E+01  0.10413551049E+04  0.10709690376E+04  0.19200000000E+03 0.  0.
   -5000001    1    1    2    0    0 -0.16025594796E+03  0.28733586154E+01  0.20289298379E+04  0.20442872871E+04  0.19200000000E+03 0.  0.
<mgrwt>
<rscale>  0 0.52742046E+03</rscale>
<asrwt>0</asrwt>
<pdfrwt beam="1">  1        2 0.44182452E+00 0.52742046E+03</pdfrwt>
<pdfrwt beam="2">  1       -2 0.32122405E-02 0.52742046E+03</pdfrwt>
<totfact> 0.91500040E+02</totfact>
</mgrwt>
</event>
<event>
 4    1  0.5621415E-005  0.9969785E+03  0.7818608E-02  0.9311865E-01
          2   -1    0    0  501    0  0.00000000000E+00  0.00000000000E+00  0.35629211574E+04  0.35629211574E+04  0.25500000000E-02 0.  1.
         -2   -1    0    0    0  501 -0.00000000000E+00 -0.00000000000E+00 -0.69743769810E+02  0.69743769857E+02  0.25500000000E-02 0. -1.
    5000001    1    1    2    0    0 -0.33951575572E+03  0.27361246033E+03  0.22807670588E+04  0.23299993784E+04  0.19200000000E+03 0.  0.
   -5000001    1    1    2    0    0  0.33951575572E+03 -0.27361246033E+03  0.12124103288E+04  0.13026655488E+04  0.19200000000E+03 0.  0.
<mgrwt>
<rscale>  0 0.99697854E+03</rscale>
<asrwt>0</asrwt>
<pdfrwt beam="1">  1        2 0.50898871E+00 0.99697854E+03</pdfrwt>
<pdfrwt beam="2">  1       -2 0.99633962E-02 0.99697854E+03</pdfrwt>
<totfact> 0.78673099E+01</totfact>
</mgrwt>
</event>
<event>
 4    1  0.5621415E-005  0.7885676E+03  0.7818608E-02  0.9576714E-01
          2   -1    0    0  501    0  0.00000000000E+00  0.00000000000E+00  0.18033958943E+03  0.18033958944E+03  0.25500000000E-02 0.  1.
         -2   -1    0    0    0  501 -0.00000000000E+00 -0.00000000000E+00 -0.86203867674E+03  0.86203867675E+03  0.25500000000E-02 0. -1.
    5000001    1    1    2    0    0 -0.20668067301E+03 -0.17668415208E+03 -0.61496669985E+02  0.33849672171E+03  0.19200000000E+03 0.  0.
   -5000001    1    1    2    0    0  0.20668067301E+03  0.17668415208E+03 -0.62020241733E+03  0.70388154448E+03  0.19200000000E+03 0.  0.
<mgrwt>
<rscale>  0 0.78856756E+03</rscale>
<asrwt>0</asrwt>
<pdfrwt beam="1">  1        2 0.25762799E-01 0.78856756E+03</pdfrwt>
<pdfrwt beam="2">  1       -2 0.12314838E+00 0.78856756E+03</pdfrwt>
<totfact> 0.10622049E+02</totfact>
</mgrwt>
</event>
<event>
 4    1  0.5621415E-005  0.1150950E+04  0.7818608E-02  0.9156908E-01
          2   -1    0    0  501    0  0.00000000000E+00  0.00000000000E+00  0.95603297589E+03  0.95603297589E+03  0.25500000000E-02 0.  1.
         -2   -1    0    0    0  501 -0.00000000000E+00 -0.00000000000E+00 -0.34640145926E+03  0.34640145927E+03  0.25500000000E-02 0. -1.
    5000001    1    1    2    0    0 -0.22340695445E+03  0.71816653744E+02 -0.24868152976E+03  0.39214130399E+03  0.19200000000E+03 0.  0.
   -5000001    1    1    2    0    0  0.22340695445E+03 -0.71816653744E+02  0.85831304639E+03  0.91029313117E+03  0.19200000000E+03 0.  0.
<mgrwt>
<rscale>  0 0.11509496E+04</rscale>
<asrwt>0</asrwt>
<pdfrwt beam="1">  1        2 0.13657614E+00 0.11509496E+04</pdfrwt>
<pdfrwt beam="2">  1       -2 0.49485922E-01 0.11509496E+04</pdfrwt>
<totfact> 0.11446413E+02</totfact>
</mgrwt>
</event>
<event>
 4    1  0.5621415E-005  0.7759600E+03  0.7818608E-02  0.9595481E-01
          2   -1    0    0  501    0  0.00000000000E+00  0.00000000000E+00  0.52306190699E+03  0.52306190700E+03  0.25500000000E-02 0.  1.
         -2   -1    0    0    0  501 -0.00000000000E+00 -0.00000000000E+00 -0.28778329037E+03  0.28778329038E+03  0.25500000000E-02 0. -1.
    5000001    1    1    2    0    0 -0.29539177871E+03  0.14753346340E+03  0.18883497638E+03  0.42608106512E+03  0.19200000000E+03 0.  0.
   -5000001    1    1    2    0    0  0.29539177871E+03 -0.14753346340E+03  0.46443640242E+02  0.38476413226E+03  0.19200000000E+03 0.  0.
<mgrwt>
<rscale>  0 0.77595999E+03</rscale>
<asrwt>0</asrwt>
<pdfrwt beam="1">  1        2 0.74723130E-01 0.77595999E+03</pdfrwt>
<pdfrwt beam="2">  1       -2 0.41111898E-01 0.77595999E+03</pdfrwt>
<totfact> 0.35919042E+02</totfact>
</mgrwt>
</event>
<event>
 4    1  0.5621415E-005  0.4614855E+03  0.7818608E-02  0.1024351E+00
          2   -1    0    0  501    0  0.00000000000E+00  0.00000000000E+00  0.10964169171E+04  0.10964169171E+04  0.25500000000E-02 0.  1.
         -2   -1    0    0    0  501 -0.00000000000E+00 -0.00000000000E+00 -0.48560198358E+02  0.48560198425E+02  0.25500000000E-02 0. -1.
    5000001    1    1    2    0    0  0.84187733678E+02 -0.84749649007E+02  0.41001123523E+03  0.46823422613E+03  0.19200000000E+03 0.  0.
   -5000001    1    1    2    0    0 -0.84187733678E+02  0.84749649007E+02  0.63784548351E+03  0.67674288939E+03  0.19200000000E+03 0.  0.
<mgrwt>
<rscale>  0 0.46148553E+03</rscale>
<asrwt>0</asrwt>
<pdfrwt beam="1">  1        2 0.15663099E+00 0.46148553E+03</pdfrwt>
<pdfrwt beam="2">  1       -2 0.69371713E-02 0.46148553E+03</pdfrwt>
<totfact> 0.30360462E+03</totfact>
</mgrwt>
</event>
<event>
 4    1  0.5621415E-005  0.6657797E+03  0.7818608E-02  0.9777612E-01
          2   -1    0    0  501    0  0.00000000000E+00  0.00000000000E+00  0.18555106350E+03  0.18555106352E+03  0.25500000000E-02 0.  1.
         -2   -1    0    0    0  501 -0.00000000000E+00 -0.00000000000E+00 -0.59722447505E+03  0.59722447505E+03  0.25500000000E-02 0. -1.
    5000001    1    1    2    0    0 -0.22800580779E+02  0.27053659307E+03 -0.18755719114E+03  0.38177429801E+03  0.19200000000E+03 0.  0.
   -5000001    1    1    2    0    0  0.22800580779E+02 -0.27053659307E+03 -0.22411622041E+03  0.40100124056E+03  0.19200000000E+03 0.  0.
<mgrwt>
<rscale>  0 0.66577965E+03</rscale>
<asrwt>0</asrwt>
<pdfrwt beam="1">  1        2 0.26507295E-01 0.66577965E+03</pdfrwt>
<pdfrwt beam="2">  1       -2 0.85317781E-01 0.66577965E+03</pdfrwt>
<totfact> 0.24728211E+02</totfact>
</mgrwt>
</event>
<event>
 4    1  0.5621415E-005  0.4217237E+03  0.7818608E-02  0.1036507E+00
         -2   -1    0    0    0  501 -0.00000000000E+00  0.00000000000E+00  0.11009415438E+03  0.11009415441E+03  0.25500000000E-02 0.  1.
          2   -1    0    0  501    0  0.00000000000E+00 -0.00000000000E+00 -0.40386080906E+03  0.40386080907E+03  0.25500000000E-02 0. -1.
    5000001    1    1    2    0    0 -0.76863563321E+02 -0.28043193056E+01 -0.96889217001E+02  0.22840182124E+03  0.19200000000E+03 0.  0.
   -5000001    1    1    2    0    0  0.76863563321E+02  0.28043193056E+01 -0.19687743768E+03  0.28555314224E+03  0.19200000000E+03 0.  0.
<mgrwt>
<rscale>  0 0.42172367E+03</rscale>
<asrwt>0</asrwt>
<pdfrwt beam="1">  1        2 0.57694401E-01 0.42172367E+03</pdfrwt>
<pdfrwt beam="2">  1       -2 0.15727737E-01 0.42172367E+03</pdfrwt>
<totfact> 0.27307914E+03</totfact>
</mgrwt>
</event>
<event>
 4    1  0.5621415E-005  0.4502571E+03  0.7818608E-02  0.1027645E+00
          2   -1    0    0  501    0  0.00000000000E+00  0.00000000000E+00  0.73917029789E+03  0.73917029789E+03  0.25500000000E-02 0.  1.
         -2   -1    0    0    0  501 -0.00000000000E+00 -0.00000000000E+00 -0.68567237880E+02  0.68567237927E+02  0.25500000000E-02 0. -1.
    5000001    1    1    2    0    0  0.10704105192E+03 -0.10757746912E+02  0.42030794254E+03  0.47444312882E+03  0.19200000000E+03 0.  0.
   -5000001    1    1    2    0    0 -0.10704105192E+03  0.10757746912E+02  0.25029511747E+03  0.33329440701E+03  0.19200000000E+03 0.  0.
<mgrwt>
<rscale>  0 0.45025711E+03</rscale>
<asrwt>0</asrwt>
<pdfrwt beam="1">  1        2 0.10559575E+00 0.45025711E+03</pdfrwt>
<pdfrwt beam="2">  1       -2 0.97953203E-02 0.45025711E+03</pdfrwt>
<totfact> 0.29663404E+03</totfact>
</mgrwt>
</event>
<event>
 4    1  0.5621415E-005  0.5563216E+03  0.7818608E-02  0.1000041E+00
          2   -1    0    0  501    0  0.00000000000E+00  0.00000000000E+00  0.14988744525E+04  0.14988744525E+04  0.25500000000E-02 0.  1.
         -2   -1    0    0    0  501 -0.00000000000E+00 -0.00000000000E+00 -0.51621015009E+02  0.51621015072E+02  0.25500000000E-02 0. -1.
    5000001    1    1    2    0    0 -0.90947748912E+02  0.10341331696E+03  0.31455083124E+03  0.39341076827E+03  0.19200000000E+03 0.  0.
   -5000001    1    1    2    0    0  0.90947748912E+02 -0.10341331696E+03  0.11327026063E+04  0.11570846993E+04  0.19200000000E+03 0.  0.
<mgrwt>
<rscale>  0 0.55632156E+03</rscale>
<asrwt>0</asrwt>
<pdfrwt beam="1">  1        2 0.21412494E+00 0.55632156E+03</pdfrwt>
<pdfrwt beam="2">  1       -2 0.73744303E-02 0.55632156E+03</pdfrwt>
<totfact> 0.16643007E+03</totfact>
</mgrwt>
</event>
<event>
 4    1  0.5621415E-005  0.6237935E+03  0.7818608E-02  0.9857236E-01
         -2   -1    0    0    0  501 -0.00000000000E+00  0.00000000000E+00  0.49673907989E+03  0.49673907989E+03  0.25500000000E-02 0. -1.
          2   -1    0    0  501    0  0.00000000000E+00 -0.00000000000E+00 -0.19583639265E+03  0.19583639267E+03  0.25500000000E-02 0.  1.
    5000001    1    1    2    0    0 -0.23120744802E+03  0.46096275875E+02  0.73259337149E+02  0.31275018969E+03  0.19200000000E+03 0.  0.
   -5000001    1    1    2    0    0  0.23120744802E+03 -0.46096275875E+02  0.22764335008E+03  0.37982528287E+03  0.19200000000E+03 0.  0.
<mgrwt>
<rscale>  0 0.62379352E+03</rscale>
<asrwt>0</asrwt>
<pdfrwt beam="1">  1        2 0.27976628E-01 0.62379352E+03</pdfrwt>
<pdfrwt beam="2">  1       -2 0.70962724E-01 0.62379352E+03</pdfrwt>
<totfact> 0.35095346E+02</totfact>
</mgrwt>
</event>
<event>
 4    1  0.5621415E-005  0.4779109E+03  0.7818608E-02  0.1019711E+00
          2   -1    0    0  501    0  0.00000000000E+00  0.00000000000E+00  0.12854538086E+04  0.12854538086E+04  0.25500000000E-02 0.  1.
         -2   -1    0    0    0  501 -0.00000000000E+00 -0.00000000000E+00 -0.44419873308E+02  0.44419873381E+02  0.25500000000E-02 0. -1.
    5000001    1    1    2    0    0 -0.13355996026E+03 -0.27939384695E+02  0.50862606888E+03  0.56052060635E+03  0.19200000000E+03 0.  0.
   -5000001    1    1    2    0    0  0.13355996026E+03  0.27939384695E+02  0.73240786641E+03  0.76935307563E+03  0.19200000000E+03 0.  0.
<mgrwt>
<rscale>  0 0.47791085E+03</rscale>
<asrwt>0</asrwt>
<pdfrwt beam="1">  1        2 0.18363626E+00 0.47791085E+03</pdfrwt>
<pdfrwt beam="2">  1       -2 0.63456960E-02 0.47791085E+03</pdfrwt>
<totfact> 0.27384864E+03</totfact>
</mgrwt>
</event>
<event>
 4    1  0.5621415E-005  0.8689436E+03  0.7818608E-02  0.9465258E-01
         -2   -1    0    0    0  501 -0.00000000000E+00  0.00000000000E+00  0.14610215942E+03  0.14610215944E+03  0.25500000000E-02 0. -1.
          2   -1    0    0  501    0  0.00000000000E+00 -0.00000000000E+00 -0.12920121369E+04  0.12920121369E+04  0.25500000000E-02 0.  1.
    5000001    1    1    2    0    0 -0.49462355365E+02  0.38469173546E+03 -0.63635537815E+03  0.76957548248E+03  0.19200000000E+03 0.  0.
   -5000001    1    1    2    0    0  0.49462355365E+02 -0.38469173546E+03 -0.50955459930E+03  0.66853881383E+03  0.19200000000E+03 0.  0.
<mgrwt>
<rscale>  0 0.86894364E+03</rscale>
<asrwt>0</asrwt>
<pdfrwt beam="1">  1        2 0.18457316E+00 0.86894364E+03</pdfrwt>
<pdfrwt beam="2">  1       -2 0.20871738E-01 0.86894364E+03</pdfrwt>
<totfact> 0.37612990E+02</totfact>
</mgrwt>
</event>
<event>
 4    1  0.5621415E-005  0.1889873E+04  0.7818608E-02  0.8659914E-01
         -2   -1    0    0    0  501 -0.00000000000E+00  0.00000000000E+00  0.72962556299E+03  0.72962556299E+03  0.25500000000E-02 0. -1.
          2   -1    0    0  501    0  0.00000000000E+00 -0.00000000000E+00 -0.12237848194E+04  0.12237848194E+04  0.25500000000E-02 0.  1.
    5000001    1    1    2    0    0 -0.16551911915E+03 -0.82768263239E+03 -0.63874605088E+03  0.10757860551E+04  0.19200000000E+03 0.  0.
   -5000001    1    1    2    0    0  0.16551911915E+03  0.82768263239E+03  0.14458679449E+03  0.87762432732E+03  0.19200000000E+03 0.  0.
<mgrwt>
<rscale>  0 0.18898727E+04</rscale>
<asrwt>0</asrwt>
<pdfrwt beam="1">  1        2 0.17482640E+00 0.18898727E+04</pdfrwt>
<pdfrwt beam="2">  1       -2 0.10423222E+00 0.18898727E+04</pdfrwt>
<totfact> 0.14580543E+01</totfact>
</mgrwt>
</event>
<event>
 4    1  0.5621415E-005  0.4198797E+03  0.7818608E-02  0.1037105E+00
         -2   -1    0    0    0  501 -0.00000000000E+00  0.00000000000E+00  0.22771047334E+03  0.22771047336E+03  0.25500000000E-02 0. -1.
          2   -1    0    0  501    0  0.00000000000E+00 -0.00000000000E+00 -0.19355601648E+03  0.19355601650E+03  0.25500000000E-02 0.  1.
    5000001    1    1    2    0    0 -0.57125083568E+02 -0.58818867761E+02 -0.50818644819E+01  0.20883668194E+03  0.19200000000E+03 0.  0.
   -5000001    1    1    2    0    0  0.57125083568E+02  0.58818867761E+02  0.39236321343E+02  0.21242980791E+03  0.19200000000E+03 0.  0.
<mgrwt>
<rscale>  0 0.41987966E+03</rscale>
<asrwt>0</asrwt>
<pdfrwt beam="1">  1        2 0.27650860E-01 0.41987966E+03</pdfrwt>
<pdfrwt beam="2">  1       -2 0.32530068E-01 0.41987966E+03</pdfrwt>
<totfact> 0.17054996E+03</totfact>
</mgrwt>
</event>
<event>
 4    1  0.5621415E-005  0.5072223E+03  0.7818608E-02  0.1011911E+00
          2   -1    0    0  501    0  0.00000000000E+00  0.00000000000E+00  0.64896968534E+03  0.64896968535E+03  0.25500000000E-02 0.  1.
         -2   -1    0    0    0  501 -0.00000000000E+00 -0.00000000000E+00 -0.99108823734E+02  0.99108823766E+02  0.25500000000E-02 0. -1.
    5000001    1    1    2    0    0 -0.13647148130E+02 -0.15053447214E+03  0.37504407736E+03  0.44762588388E+03  0.19200000000E+03 0.  0.
   -5000001    1    1    2    0    0  0.13647148130E+02  0.15053447214E+03  0.17481678425E+03  0.30045262524E+03  0.19200000000E+03 0.  0.
<mgrwt>
<rscale>  0 0.50722233E+03</rscale>
<asrwt>0</asrwt>
<pdfrwt beam="1">  1        2 0.92709953E-01 0.50722233E+03</pdfrwt>
<pdfrwt beam="2">  1       -2 0.14158404E-01 0.50722233E+03</pdfrwt>
<totfact> 0.19021091E+03</totfact>
</mgrwt>
</event>
<event>
 4    1  0.5621415E-005  0.5152887E+03  0.7818608E-02  0.1009864E+00
         -2   -1    0    0    0  501 -0.00000000000E+00  0.00000000000E+00  0.58588626539E+03  0.58588626539E+03  0.25500000000E-02 0. -1.
          2   -1    0    0  501    0  0.00000000000E+00 -0.00000000000E+00 -0.11329948496E+03  0.11329948499E+03  0.25500000000E-02 0.  1.
    5000001    1    1    2    0    0 -0.16447387226E+03  0.25320453090E+02  0.17834593383E+03  0.31042559835E+03  0.19200000000E+03 0.  0.
   -5000001    1    1    2    0    0  0.16447387226E+03 -0.25320453090E+02  0.29424084660E+03  0.38876015203E+03  0.19200000000E+03 0.  0.
<mgrwt>
<rscale>  0 0.51528870E+03</rscale>
<asrwt>0</asrwt>
<pdfrwt beam="1">  1        2 0.16185641E-01 0.51528870E+03</pdfrwt>
<pdfrwt beam="2">  1       -2 0.83698038E-01 0.51528870E+03</pdfrwt>
<totfact> 0.46061635E+02</totfact>
</mgrwt>
</event>
<event>
 4    1  0.5621415E-005  0.5514589E+03  0.7818608E-02  0.1001157E+00
          2   -1    0    0  501    0  0.00000000000E+00  0.00000000000E+00  0.37149271708E+04  0.37149271708E+04  0.25500000000E-02 0.  1.
         -2   -1    0    0    0  501 -0.00000000000E+00 -0.00000000000E+00 -0.20465204127E+02  0.20465204286E+02  0.25500000000E-02 0. -1.
    5000001    1    1    2    0    0 -0.17758910167E+03  0.24784796255E+02  0.12800787554E+04  0.13067585069E+04  0.19200000000E+03 0.  0.
   -5000001    1    1    2    0    0  0.17758910167E+03 -0.24784796255E+02  0.24143832112E+04  0.24286338682E+04  0.19200000000E+03 0.  0.
<mgrwt>
<rscale>  0 0.55145895E+03</rscale>
<asrwt>0</asrwt>
<pdfrwt beam="1">  1        2 0.53070376E+00 0.55145895E+03</pdfrwt>
<pdfrwt beam="2">  1       -2 0.29236013E-02 0.55145895E+03</pdfrwt>
<totfact> 0.45715252E+02</totfact>
</mgrwt>
</event>
<event>
 4    1  0.5621415E-005  0.4934275E+03  0.7818608E-02  0.1015509E+00
         -2   -1    0    0    0  501 -0.00000000000E+00  0.00000000000E+00  0.18114107887E+02  0.18114108066E+02  0.25500000000E-02 0. -1.
          2   -1    0    0  501    0  0.00000000000E+00 -0.00000000000E+00 -0.33602361920E+04  0.33602361920E+04  0.25500000000E-02 0.  1.
    5000001    1    1    2    0    0  0.40421373675E+02 -0.13591276408E+03 -0.20985010456E+04  0.21120314404E+04  0.19200000000E+03 0.  0.
   -5000001    1    1    2    0    0 -0.40421373675E+02  0.13591276408E+03 -0.12436210384E+04  0.12663188596E+04  0.19200000000E+03 0.  0.
<mgrwt>
<rscale>  0 0.49342753E+03</rscale>
<asrwt>0</asrwt>
<pdfrwt beam="1">  1        2 0.48003334E+00 0.49342753E+03</pdfrwt>
<pdfrwt beam="2">  1       -2 0.25877319E-02 0.49342753E+03</pdfrwt>
<totfact> 0.90105123E+02</totfact>
</mgrwt>
</event>
<event>
 4    1  0.5621415E-005  0.4840277E+03  0.7818608E-02  0.1018034E+00
         -2   -1    0    0    0  501 -0.00000000000E+00  0.00000000000E+00  0.11540774347E+03  0.11540774349E+03  0.25500000000E-02 0. -1.
          2   -1    0    0  501    0  0.00000000000E+00 -0.00000000000E+00 -0.50751112550E+03  0.50751112551E+03  0.25500000000E-02 0.  1.
    5000001    1    1    2    0    0 -0.14696715081E+03  0.25908835516E+01 -0.18313995252E+03  0.30333199354E+03  0.19200000000E+03 0.  0.
   -5000001    1    1    2    0    0  0.14696715081E+03 -0.25908835516E+01 -0.20896342952E+03  0.31958687546E+03  0.19200000000E+03 0.  0.
<mgrwt>
<rscale>  0 0.48402774E+03</rscale>
<asrwt>0</asrwt>
<pdfrwt beam="1">  1        2 0.72501589E-01 0.48402774E+03</pdfrwt>
<pdfrwt beam="2">  1       -2 0.16486821E-01 0.48402774E+03</pdfrwt>
<totfact> 0.19583238E+03</totfact>
</mgrwt>
</event>
<event>
 4    1  0.5621415E-005  0.5981891E+03  0.7818608E-02  0.9909170E-01
         -2   -1    0    0    0  501 -0.00000000000E+00  0.00000000000E+00  0.26279574443E+03  0.26279574444E+03  0.25500000000E-02 0. -1.
          2   -1    0    0  501    0  0.00000000000E+00 -0.00000000000E+00 -0.34040715665E+03  0.34040715666E+03  0.25500000000E-02 0.  1.
    5000001    1    1    2    0    0  0.14990319611E+03 -0.35778377876E+02 -0.21005993648E+03  0.32363596438E+03  0.19200000000E+03 0.  0.
   -5000001    1    1    2    0    0 -0.14990319611E+03  0.35778377876E+02  0.13244852426E+03  0.27956693672E+03  0.19200000000E+03 0.  0.
<mgrwt>
<rscale>  0 0.59818911E+03</rscale>
<asrwt>0</asrwt>
<pdfrwt beam="1">  1        2 0.48629594E-01 0.59818911E+03</pdfrwt>
<pdfrwt beam="2">  1       -2 0.37542249E-01 0.59818911E+03</pdfrwt>
<totfact> 0.69696961E+02</totfact>
</mgrwt>
</event>
<event>
 4    1  0.5621415E-005  0.5357045E+03  0.7818608E-02  0.1004858E+00
         -2   -1    0    0    0  501 -0.00000000000E+00  0.00000000000E+00  0.67419819337E+03  0.67419819337E+03  0.25500000000E-02 0. -1.
          2   -1    0    0  501    0  0.00000000000E+00 -0.00000000000E+00 -0.10641503193E+03  0.10641503196E+03  0.25500000000E-02 0.  1.
    5000001    1    1    2    0    0  0.10947101308E+03  0.11960298318E+03  0.14882157326E+03  0.29206272778E+03  0.19200000000E+03 0.  0.
   -5000001    1    1    2    0    0 -0.10947101308E+03 -0.11960298318E+03  0.41896158818E+03  0.48855049755E+03  0.19200000000E+03 0.  0.
<mgrwt>
<rscale>  0 0.53570448E+03</rscale>
<asrwt>0</asrwt>
<pdfrwt beam="1">  1        2 0.15202147E-01 0.53570448E+03</pdfrwt>
<pdfrwt beam="2">  1       -2 0.96314031E-01 0.53570448E+03</pdfrwt>
<totfact> 0.35995586E+02</totfact>
</mgrwt>
</event>
<event>
 4    1  0.5621415E-005  0.5603799E+03  0.7818608E-02  0.9991195E-01
         -2   -1    0    0    0  501 -0.00000000000E+00  0.00000000000E+00  0.10315836016E+03  0.10315836019E+03  0.25500000000E-02 0. -1.
          2   -1    0    0  501    0  0.00000000000E+00 -0.00000000000E+00 -0.76102806496E+03  0.76102806496E+03  0.25500000000E-02 0.  1.
    5000001    1    1    2    0    0  0.94488039756E+02  0.12701114958E+03 -0.52752194382E+03  0.58326942572E+03  0.19200000000E+03 0.  0.
   -5000001    1    1    2    0    0 -0.94488039756E+02 -0.12701114958E+03 -0.13034776099E+03  0.28091699943E+03  0.19200000000E+03 0.  0.
<mgrwt>
<rscale>  0 0.56037990E+03</rscale>
<asrwt>0</asrwt>
<pdfrwt beam="1">  1        2 0.10871829E+00 0.56037990E+03</pdfrwt>
<pdfrwt beam="2">  1       -2 0.14736909E-01 0.56037990E+03</pdfrwt>
<totfact> 0.14643127E+03</totfact>
</mgrwt>
</event>
<event>
 4    1  0.5621415E-005  0.4448271E+03  0.7818608E-02  0.1029276E+00
          2   -1    0    0  501    0  0.00000000000E+00  0.00000000000E+00  0.15382489537E+04  0.15382489537E+04  0.25500000000E-02 0.  1.
         -2   -1    0    0    0  501 -0.00000000000E+00 -0.00000000000E+00 -0.32158512299E+02  0.32158512400E+02  0.25500000000E-02 0. -1.
    5000001    1    1    2    0    0  0.38095873734E+02 -0.88905113811E+02  0.95425759647E+03  0.97817532952E+03  0.19200000000E+03 0.  0.
   -5000001    1    1    2    0    0 -0.38095873734E+02  0.88905113811E+02  0.55183284493E+03  0.59223213658E+03  0.19200000000E+03 0.  0.
<mgrwt>
<rscale>  0 0.44482715E+03</rscale>
<asrwt>0</asrwt>
<pdfrwt beam="1">  1        2 0.21974980E+00 0.44482715E+03</pdfrwt>
<pdfrwt beam="2">  1       -2 0.45940742E-02 0.44482715E+03</pdfrwt>
<totfact> 0.33262708E+03</totfact>
</mgrwt>
</event>
<event>
 4    1  0.5621415E-005  0.5099167E+03  0.7818608E-02  0.1011222E+00
          2   -1    0    0  501    0  0.00000000000E+00  0.00000000000E+00  0.71260383747E+03  0.71260383748E+03  0.25500000000E-02 0.  1.
         -2   -1    0    0    0  501 -0.00000000000E+00 -0.00000000000E+00 -0.91220062787E+02  0.91220062822E+02  0.25500000000E-02 0. -1.
    5000001    1    1    2    0    0  0.15482878799E+03 -0.45887585403E+02  0.23910705404E+03  0.34657438938E+03  0.19200000000E+03 0.  0.
   -5000001    1    1    2    0    0 -0.15482878799E+03  0.45887585403E+02  0.38227672065E+03  0.45724951092E+03  0.19200000000E+03 0.  0.
<mgrwt>
<rscale>  0 0.50991673E+03</rscale>
<asrwt>0</asrwt>
<pdfrwt beam="1">  1        2 0.10180055E+00 0.50991673E+03</pdfrwt>
<pdfrwt beam="2">  1       -2 0.13031438E-01 0.50991673E+03</pdfrwt>
<totfact> 0.19499164E+03</totfact>
</mgrwt>
</event>
<event>
 4    1  0.5621415E-005  0.6741293E+03  0.7818608E-02  0.9762527E-01
         -2   -1    0    0    0  501 -0.00000000000E+00  0.00000000000E+00  0.60713334481E+02  0.60713334534E+02  0.25500000000E-02 0. -1.
          2   -1    0    0  501    0  0.00000000000E+00 -0.00000000000E+00 -0.18712953107E+04  0.18712953107E+04  0.25500000000E-02 0.  1.
    5000001    1    1    2    0    0 -0.20686391946E+03 -0.18361807291E+03 -0.94971758115E+03  0.10076387060E+04  0.19200000000E+03 0.  0.
   -5000001    1    1    2    0    0  0.20686391946E+03  0.18361807291E+03 -0.86086439503E+03  0.92436993920E+03  0.19200000000E+03 0.  0.
<mgrwt>
<rscale>  0 0.67412930E+03</rscale>
<asrwt>0</asrwt>
<pdfrwt beam="1">  1        2 0.26732787E+00 0.67412930E+03</pdfrwt>
<pdfrwt beam="2">  1       -2 0.86733347E-02 0.67412930E+03</pdfrwt>
<totfact> 0.82497415E+02</totfact>
</mgrwt>
</event>
<event>
 4    1  0.5621415E-005  0.5315270E+03  0.7818608E-02  0.1005862E+00
          2   -1    0    0  501    0  0.00000000000E+00  0.00000000000E+00  0.22691694214E+03  0.22691694216E+03  0.25500000000E-02 0.  1.
         -2   -1    0    0    0  501 -0.00000000000E+00 -0.00000000000E+00 -0.31126029039E+03  0.31126029040E+03  0.25500000000E-02 0. -1.
    5000001    1    1    2    0    0  0.11186100173E+03  0.14325174281E+03 -0.69571064521E+02  0.27338265955E+03  0.19200000000E+03 0.  0.
   -5000001    1    1    2    0    0 -0.11186100173E+03 -0.14325174281E+03 -0.14772283728E+02  0.26479457300E+03  0.19200000000E+03 0.  0.
<mgrwt>
<rscale>  0 0.53152698E+03</rscale>
<asrwt>0</asrwt>
<pdfrwt beam="1">  1        2 0.32416706E-01 0.53152698E+03</pdfrwt>
<pdfrwt beam="2">  1       -2 0.44465756E-01 0.53152698E+03</pdfrwt>
<totfact> 0.78553315E+02</totfact>
</mgrwt>
</event>
<event>
 4    1  0.5621415E-005  0.1120427E+04  0.7818608E-02  0.9185508E-01
         -2   -1    0    0    0  501 -0.00000000000E+00  0.00000000000E+00  0.16774298245E+03  0.16774298247E+03  0.25500000000E-02 0. -1.
          2   -1    0    0  501    0  0.00000000000E+00 -0.00000000000E+00 -0.18709532809E+04  0.18709532809E+04  0.25500000000E-02 0.  1.
    5000001    1    1    2    0    0  0.30036046550E+03 -0.27382663278E+03 -0.24326461591E+03  0.51111555192E+03  0.19200000000E+03 0.  0.
   -5000001    1    1    2    0    0 -0.30036046550E+03  0.27382663278E+03 -0.14599456825E+04  0.15275807115E+04  0.19200000000E+03 0.  0.
<mgrwt>
<rscale>  0 0.11204272E+04</rscale>
<asrwt>0</asrwt>
<pdfrwt beam="1">  1        2 0.26727903E+00 0.11204272E+04</pdfrwt>
<pdfrwt beam="2">  1       -2 0.23963284E-01 0.11204272E+04</pdfrwt>
<totfact> 0.14362144E+02</totfact>
</mgrwt>
</event>
<event>
 4    1  0.5621415E-005  0.6732997E+03  0.7818608E-02  0.9764015E-01
         -2   -1    0    0    0  501 -0.00000000000E+00  0.00000000000E+00  0.54066506272E+03  0.54066506272E+03  0.25500000000E-02 0. -1.
          2   -1    0    0  501    0  0.00000000000E+00 -0.00000000000E+00 -0.20961797683E+03  0.20961797685E+03  0.25500000000E-02 0.  1.
    5000001    1    1    2    0    0  0.12802603212E+03  0.23768078211E+03  0.23225642401E+03  0.40458604225E+03  0.19200000000E+03 0.  0.
   -5000001    1    1    2    0    0 -0.12802603212E+03 -0.23768078211E+03  0.98790661873E+02  0.34569699732E+03  0.19200000000E+03 0.  0.
<mgrwt>
<rscale>  0 0.67329969E+03</rscale>
<asrwt>0</asrwt>
<pdfrwt beam="1">  1        2 0.29945426E-01 0.67329969E+03</pdfrwt>
<pdfrwt beam="2">  1       -2 0.77237865E-01 0.67329969E+03</pdfrwt>
<totfact> 0.26932496E+02</totfact>
</mgrwt>
</event>
<event>
 4    1  0.5621415E-005  0.9531790E+03  0.7818608E-02  0.9361442E-01
          2   -1    0    0  501    0  0.00000000000E+00  0.00000000000E+00  0.96941520124E+03  0.96941520124E+03  0.25500000000E-02 0.  1.
         -2   -1    0    0    0  501 -0.00000000000E+00 -0.00000000000E+00 -0.23430369228E+03  0.23430369229E+03  0.25500000000E-02 0. -1.
    5000001    1    1    2    0    0 -0.43091782593E+03  0.63562087430E+02  0.33812169174E+03  0.58388405534E+03  0.19200000000E+03 0.  0.
   -5000001    1    1    2    0    0  0.43091782593E+03 -0.63562087430E+02  0.39698981722E+03  0.61983483819E+03  0.19200000000E+03 0.  0.
<mgrwt>
<rscale>  0 0.95317902E+03</rscale>
<asrwt>0</asrwt>
<pdfrwt beam="1">  1        2 0.13848789E+00 0.95317902E+03</pdfrwt>
<pdfrwt beam="2">  1       -2 0.33471956E-01 0.95317902E+03</pdfrwt>
<totfact> 0.24432756E+02</totfact>
</mgrwt>
</event>
<event>
 4    1  0.5621415E-005  0.8299602E+03  0.7818608E-02  0.9517636E-01
          2   -1    0    0  501    0  0.00000000000E+00  0.00000000000E+00  0.20933850884E+04  0.20933850884E+04  0.25500000000E-02 0.  1.
         -2   -1    0    0    0  501 -0.00000000000E+00 -0.00000000000E+00 -0.82263168976E+02  0.82263169016E+02  0.25500000000E-02 0. -1.
    5000001    1    1    2    0    0  0.25152913221E+03 -0.16600070727E+02  0.17079856226E+04  0.17371302063E+04  0.19200000000E+03 0.  0.
   -5000001    1    1    2    0    0 -0.25152913221E+03  0.16600070727E+02  0.30313629686E+03  0.43851805114E+03  0.19200000000E+03 0.  0.
<mgrwt>
<rscale>  0 0.82996022E+03</rscale>
<asrwt>0</asrwt>
<pdfrwt beam="1">  1        2 0.29905500E+00 0.82996022E+03</pdfrwt>
<pdfrwt beam="2">  1       -2 0.11751882E-01 0.82996022E+03</pdfrwt>
<totfact> 0.38446501E+02</totfact>
</mgrwt>
</event>
<event>
 4    1  0.5621415E-005  0.9133419E+03  0.7818608E-02  0.9409055E-01
          2   -1    0    0  501    0  0.00000000000E+00  0.00000000000E+00  0.50863694191E+03  0.50863694191E+03  0.25500000000E-02 0.  1.
         -2   -1    0    0    0  501 -0.00000000000E+00 -0.00000000000E+00 -0.41001418083E+03  0.41001418084E+03  0.25500000000E-02 0. -1.
    5000001    1    1    2    0    0 -0.39976940509E+03 -0.10183553527E+03  0.88244340754E+02  0.46350525042E+03  0.19200000000E+03 0.  0.
   -5000001    1    1    2    0    0  0.39976940509E+03  0.10183553527E+03  0.10378420323E+02  0.45514587233E+03  0.19200000000E+03 0.  0.
<mgrwt>
<rscale>  0 0.91334191E+03</rscale>
<asrwt>0</asrwt>
<pdfrwt beam="1">  1        2 0.72662420E-01 0.91334191E+03</pdfrwt>
<pdfrwt beam="2">  1       -2 0.58573454E-01 0.91334191E+03</pdfrwt>
<totfact> 0.17991389E+02</totfact>
</mgrwt>
</event>
<event>
 4    1  0.5621415E-005  0.1313164E+04  0.7818608E-02  0.9019190E-01
         -2   -1    0    0    0  501 -0.00000000000E+00  0.00000000000E+00  0.22902386633E+03  0.22902386634E+03  0.25500000000E-02 0. -1.
          2   -1    0    0  501    0  0.00000000000E+00 -0.00000000000E+00 -0.18823376593E+04  0.18823376593E+04  0.25500000000E-02 0.  1.
    5000001    1    1    2    0    0 -0.36633682043E+03  0.27519290520E+03 -0.13640275305E+03  0.51517328358E+03  0.19200000000E+03 0.  0.
   -5000001    1    1    2    0    0  0.36633682043E+03 -0.27519290520E+03 -0.15169110399E+04  0.15961882421E+04  0.19200000000E+03 0.  0.
<mgrwt>
<rscale>  0 0.13131645E+04</rscale>
<asrwt>0</asrwt>
<pdfrwt beam="1">  1        2 0.26890537E+00 0.13131645E+04</pdfrwt>
<pdfrwt beam="2">  1       -2 0.32717696E-01 0.13131645E+04</pdfrwt>
<totfact> 0.78736237E+01</totfact>
</mgrwt>
</event>
<event>
 4    1  0.5621415E-005  0.5921471E+03  0.7818608E-02  0.9921834E-01
         -2   -1    0    0    0  501 -0.00000000000E+00  0.00000000000E+00  0.63299059745E+02  0.63299059796E+02  0.25500000000E-02 0. -1.
          2   -1    0    0  501    0  0.00000000000E+00 -0.00000000000E+00 -0.13848474064E+04  0.13848474064E+04  0.25500000000E-02 0.  1.
    5000001    1    1    2    0    0 -0.51929304975E+02  0.11215388668E+03 -0.11216901645E+04  0.11446955806E+04  0.19200000000E+03 0.  0.
   -5000001    1    1    2    0    0  0.51929304975E+02 -0.11215388668E+03 -0.19985818211E+03  0.30345088559E+03  0.19200000000E+03 0.  0.
<mgrwt>
<rscale>  0 0.59214707E+03</rscale>
<asrwt>0</asrwt>
<pdfrwt beam="1">  1        2 0.19783533E+00 0.59214707E+03</pdfrwt>
<pdfrwt beam="2">  1       -2 0.90427237E-02 0.59214707E+03</pdfrwt>
<totfact> 0.13787208E+03</totfact>
</mgrwt>
</event>
<event>
 4    1  0.5621415E-005  0.5172668E+03  0.7818608E-02  0.1009368E+00
          2   -1    0    0  501    0  0.00000000000E+00  0.00000000000E+00  0.27004608236E+03  0.27004608237E+03  0.25500000000E-02 0.  1.
         -2   -1    0    0    0  501 -0.00000000000E+00 -0.00000000000E+00 -0.24770305836E+03  0.24770305837E+03  0.25500000000E-02 0. -1.
    5000001    1    1    2    0    0  0.77882858178E+02 -0.15468223410E+03  0.17085266401E+02  0.25912977342E+03  0.19200000000E+03 0.  0.
   -5000001    1    1    2    0    0 -0.77882858178E+02  0.15468223410E+03  0.52577576039E+01  0.25861936733E+03  0.19200000000E+03 0.  0.
<mgrwt>
<rscale>  0 0.51726682E+03</rscale>
<asrwt>0</asrwt>
<pdfrwt beam="1">  1        2 0.38578012E-01 0.51726682E+03</pdfrwt>
<pdfrwt beam="2">  1       -2 0.35386151E-01 0.51726682E+03</pdfrwt>
<totfact> 0.10074729E+03</totfact>
</mgrwt>
</event>
<event>
 4    1  0.5621415E-005  0.5328735E+03  0.7818608E-02  0.1005538E+00
          2   -1    0    0  501    0  0.00000000000E+00  0.00000000000E+00  0.18336117633E+04  0.18336117633E+04  0.25500000000E-02 0.  1.
         -2   -1    0    0    0  501 -0.00000000000E+00 -0.00000000000E+00 -0.38715145651E+02  0.38715145735E+02  0.25500000000E-02 0. -1.
    5000001    1    1    2    0    0  0.12912017497E+03  0.13118745027E+03  0.95215063791E+03  0.98860356259E+03  0.19200000000E+03 0.  0.
   -5000001    1    1    2    0    0 -0.12912017497E+03 -0.13118745027E+03  0.84274597976E+03  0.88372334646E+03  0.19200000000E+03 0.  0.
<mgrwt>
<rscale>  0 0.53287352E+03</rscale>
<asrwt>0</asrwt>
<pdfrwt beam="1">  1        2 0.26194453E+00 0.53287352E+03</pdfrwt>
<pdfrwt beam="2">  1       -2 0.55307353E-02 0.53287352E+03</pdfrwt>
<totfact> 0.17663805E+03</totfact>
</mgrwt>
</event>
<event>
 4    1  0.5621415E-005  0.5386724E+03  0.7818608E-02  0.1004150E+00
         -2   -1    0    0    0  501 -0.00000000000E+00  0.00000000000E+00  0.12624947110E+03  0.12624947113E+03  0.25500000000E-02 0. -1.
          2   -1    0    0  501    0  0.00000000000E+00 -0.00000000000E+00 -0.57459239766E+03  0.57459239767E+03  0.25500000000E-02 0.  1.
    5000001    1    1    2    0    0  0.82738676971E+02  0.13704123994E+03 -0.35461467394E+03  0.43386813329E+03  0.19200000000E+03 0.  0.
   -5000001    1    1    2    0    0 -0.82738676971E+02 -0.13704123994E+03 -0.93728252617E+02  0.26697373551E+03  0.19200000000E+03 0.  0.
<mgrwt>
<rscale>  0 0.53867239E+03</rscale>
<asrwt>0</asrwt>
<pdfrwt beam="1">  1        2 0.82084627E-01 0.53867239E+03</pdfrwt>
<pdfrwt beam="2">  1       -2 0.18035639E-01 0.53867239E+03</pdfrwt>
<totfact> 0.14579465E+03</totfact>
</mgrwt>
</event>
<event>
 4    1  0.5621415E-005  0.4200265E+03  0.7818608E-02  0.1037058E+00
         -2   -1    0    0    0  501 -0.00000000000E+00  0.00000000000E+00  0.64584880681E+03  0.64584880681E+03  0.25500000000E-02 0. -1.
          2   -1    0    0  501    0  0.00000000000E+00 -0.00000000000E+00 -0.68290840600E+02  0.68290840647E+02  0.25500000000E-02 0.  1.
    5000001    1    1    2    0    0  0.49922047549E+01 -0.84949293333E+02  0.28792312647E+03  0.35637765264E+03  0.19200000000E+03 0.  0.
   -5000001    1    1    2    0    0 -0.49922047549E+01  0.84949293333E+02  0.28963483974E+03  0.35776199482E+03  0.19200000000E+03 0.  0.
<mgrwt>
<rscale>  0 0.42002647E+03</rscale>
<asrwt>0</asrwt>
<pdfrwt beam="1">  1        2 0.97558344E-02 0.42002647E+03</pdfrwt>
<pdfrwt beam="2">  1       -2 0.92264115E-01 0.42002647E+03</pdfrwt>
<totfact> 0.68779556E+02</totfact>
</mgrwt>
</event>
<event>
 4    1  0.5621415E-005  0.4202444E+03  0.7818608E-02  0.1036987E+00
         -2   -1    0    0    0  501 -0.00000000000E+00  0.00000000000E+00  0.49005609048E+02  0.49005609114E+02  0.25500000000E-02 0. -1.
          2   -1    0    0  501    0  0.00000000000E+00 -0.00000000000E+00 -0.90094445772E+03  0.90094445772E+03  0.25500000000E-02 0.  1.
    5000001    1    1    2    0    0  0.50555283656E+02  0.21351731794E+02 -0.27816162608E+03  0.34241732342E+03  0.19200000000E+03 0.  0.
   -5000001    1    1    2    0    0 -0.50555283656E+02 -0.21351731794E+02 -0.57377722259E+03  0.60753274341E+03  0.19200000000E+03 0.  0.
<mgrwt>
<rscale>  0 0.42024437E+03</rscale>
<asrwt>0</asrwt>
<pdfrwt beam="1">  1        2 0.12870634E+00 0.42024437E+03</pdfrwt>
<pdfrwt beam="2">  1       -2 0.70008018E-02 0.42024437E+03</pdfrwt>
<totfact> 0.39253025E+03</totfact>
</mgrwt>
</event>
<event>
 4    1  0.5621415E-005  0.5058750E+03  0.7818608E-02  0.1012257E+00
         -2   -1    0    0    0  501 -0.00000000000E+00  0.00000000000E+00  0.93300835496E+02  0.93300835530E+02  0.25500000000E-02 0. -1.
          2   -1    0    0  501    0  0.00000000000E+00 -0.00000000000E+00 -0.68571069768E+03  0.68571069769E+03  0.25500000000E-02 0.  1.
    5000001    1    1    2    0    0  0.11192223386E+03 -0.85550066490E+02 -0.16492221724E+03  0.28967005032E+03  0.19200000000E+03 0.  0.
   -5000001    1    1    2    0    0 -0.11192223386E+03  0.85550066490E+02 -0.42748764494E+03  0.48934148290E+03  0.19200000000E+03 0.  0.
<mgrwt>
<rscale>  0 0.50587501E+03</rscale>
<asrwt>0</asrwt>
<pdfrwt beam="1">  1        2 0.97958669E-01 0.50587501E+03</pdfrwt>
<pdfrwt beam="2">  1       -2 0.13328691E-01 0.50587501E+03</pdfrwt>
<totfact> 0.19684112E+03</totfact>
</mgrwt>
</event>
<event>
 4    1  0.5621415E-005  0.1647025E+04  0.7818608E-02  0.8792168E-01
          2   -1    0    0  501    0  0.00000000000E+00  0.00000000000E+00  0.17842194032E+04  0.17842194032E+04  0.25500000000E-02 0.  1.
         -2   -1    0    0    0  501 -0.00000000000E+00 -0.00000000000E+00 -0.38009496126E+03  0.38009496127E+03  0.25500000000E-02 0. -1.
    5000001    1    1    2    0    0  0.55776739464E+03 -0.52622355656E+03  0.10054203807E+04  0.12789643622E+04  0.19200000000E+03 0.  0.
   -5000001    1    1    2    0    0 -0.55776739464E+03  0.52622355656E+03  0.39870406127E+03  0.88535000225E+03  0.19200000000E+03 0.  0.
<mgrwt>
<rscale>  0 0.16470250E+04</rscale>
<asrwt>0</asrwt>
<pdfrwt beam="1">  1        2 0.25488849E+00 0.16470250E+04</pdfrwt>
<pdfrwt beam="2">  1       -2 0.54299280E-01 0.16470250E+04</pdfrwt>
<totfact> 0.31703433E+01</totfact>
</mgrwt>
</event>
<event>
 4    1  0.5621415E-005  0.1301939E+04  0.7818608E-02  0.9028029E-01
          2   -1    0    0  501    0  0.00000000000E+00  0.00000000000E+00  0.18212397598E+04  0.18212397598E+04  0.25500000000E-02 0.  1.
         -2   -1    0    0    0  501 -0.00000000000E+00 -0.00000000000E+00 -0.23267731221E+03  0.23267731222E+03  0.25500000000E-02 0. -1.
    5000001    1    1    2    0    0 -0.52297755075E+03 -0.33664416097E+03  0.78182305876E+03  0.10173230091E+04  0.19200000000E+03 0.  0.
   -5000001    1    1    2    0    0  0.52297755075E+03  0.33664416097E+03  0.80673938880E+03  0.10365940629E+04  0.19200000000E+03 0.  0.
<mgrwt>
<rscale>  0 0.13019388E+04</rscale>
<asrwt>0</asrwt>
<pdfrwt beam="1">  1        2 0.26017711E+00 0.13019388E+04</pdfrwt>
<pdfrwt beam="2">  1       -2 0.33239616E-01 0.13019388E+04</pdfrwt>
<totfact> 0.82219071E+01</totfact>
</mgrwt>
</event>
<event>
 4    1  0.5621415E-005  0.6088339E+03  0.7818608E-02  0.9887246E-01
         -2   -1    0    0    0  501 -0.00000000000E+00  0.00000000000E+00  0.56450782175E+02  0.56450782233E+02  0.25500000000E-02 0. -1.
          2   -1    0    0  501    0  0.00000000000E+00 -0.00000000000E+00 -0.16416015834E+04  0.16416015834E+04  0.25500000000E-02 0.  1.
    5000001    1    1    2    0    0 -0.49449032362E+02  0.22331346322E+03 -0.95737777145E+03  0.10028710321E+04  0.19200000000E+03 0.  0.
   -5000001    1    1    2    0    0  0.49449032362E+02 -0.22331346322E+03 -0.62777302981E+03  0.69518133362E+03  0.19200000000E+03 0.  0.
<mgrwt>
<rscale>  0 0.60883395E+03</rscale>
<asrwt>0</asrwt>
<pdfrwt beam="1">  1        2 0.23451448E+00 0.60883395E+03</pdfrwt>
<pdfrwt beam="2">  1       -2 0.80643985E-02 0.60883395E+03</pdfrwt>
<totfact> 0.12164884E+03</totfact>
</mgrwt>
</event>
<event>
 4    1  0.5621415E-005  0.4931055E+03  0.7818608E-02  0.1015594E+00
          2   -1    0    0  501    0  0.00000000000E+00  0.00000000000E+00  0.18502927507E+04  0.18502927507E+04  0.25500000000E-02 0.  1.
         -2   -1    0    0    0  501 -0.00000000000E+00 -0.00000000000E+00 -0.32853315047E+02  0.32853315146E+02  0.25500000000E-02 0. -1.
    5000001    1    1    2    0    0  0.18171227586E+01  0.14579093393E+03  0.71153630241E+03  0.75126973052E+03  0.19200000000E+03 0.  0.
   -5000001    1    1    2    0    0 -0.18171227586E+01 -0.14579093393E+03  0.11059031333E+04  0.11318763354E+04  0.19200000000E+03 0.  0.
<mgrwt>
<rscale>  0 0.49310547E+03</rscale>
<asrwt>0</asrwt>
<pdfrwt beam="1">  1        2 0.26432762E+00 0.49310547E+03</pdfrwt>
<pdfrwt beam="2">  1       -2 0.46933293E-02 0.49310547E+03</pdfrwt>
<totfact> 0.22370649E+03</totfact>
</mgrwt>
</event>
<event>
 4    1  0.5621415E-005  0.6266688E+03  0.7818608E-02  0.9851571E-01
         -2   -1    0    0    0  501 -0.00000000000E+00  0.00000000000E+00  0.98743664326E+03  0.98743664326E+03  0.25500000000E-02 0. -1.
          2   -1    0    0  501    0  0.00000000000E+00 -0.00000000000E+00 -0.99427577941E+02  0.99427577974E+02  0.25500000000E-02 0.  1.
    5000001    1    1    2    0    0  0.20147619262E+03  0.14061108676E+03  0.39053977617E+03  0.49974938788E+03  0.19200000000E+03 0.  0.
   -5000001    1    1    2    0    0 -0.20147619262E+03 -0.14061108676E+03  0.49746928914E+03  0.58711483336E+03  0.19200000000E+03 0.  0.
<mgrwt>
<rscale>  0 0.62666876E+03</rscale>
<asrwt>0</asrwt>
<pdfrwt beam="1">  1        2 0.14203939E-01 0.62666876E+03</pdfrwt>
<pdfrwt beam="2">  1       -2 0.14106238E+00 0.62666876E+03</pdfrwt>
<totfact> 0.15315546E+02</totfact>
</mgrwt>
</event>
<event>
 4    1  0.5621415E-005  0.8610067E+03  0.7818608E-02  0.9475682E-01
          2   -1    0    0  501    0  0.00000000000E+00  0.00000000000E+00  0.63759554644E+03  0.63759554645E+03  0.25500000000E-02 0.  1.
         -2   -1    0    0    0  501 -0.00000000000E+00 -0.00000000000E+00 -0.29067505684E+03  0.29067505685E+03  0.25500000000E-02 0. -1.
    5000001    1    1    2    0    0  0.29922334067E+03 -0.19287946293E+03  0.14525738178E+02  0.40473706513E+03  0.19200000000E+03 0.  0.
   -5000001    1    1    2    0    0 -0.29922334067E+03  0.19287946293E+03  0.33239475142E+03  0.52353353817E+03  0.19200000000E+03 0.  0.
<mgrwt>
<rscale>  0 0.86100667E+03</rscale>
<asrwt>0</asrwt>
<pdfrwt beam="1">  1        2 0.91085076E-01 0.86100667E+03</pdfrwt>
<pdfrwt beam="2">  1       -2 0.41525009E-01 0.86100667E+03</pdfrwt>
<totfact> 0.27807047E+02</totfact>
</mgrwt>
</event>
<event>
 4    1  0.5621415E-005  0.7791722E+03  0.7818608E-02  0.9590664E-01
         -2   -1    0    0    0  501 -0.00000000000E+00  0.00000000000E+00  0.22988483545E+03  0.22988483546E+03  0.25500000000E-02 0. -1.
          2   -1    0    0  501    0  0.00000000000E+00 -0.00000000000E+00 -0.66023197802E+03  0.66023197803E+03  0.25500000000E-02 0.  1.
    5000001    1    1    2    0    0  0.38835705321E+02  0.33336235328E+03 -0.26965779514E+03  0.47140003932E+03  0.19200000000E+03 0.  0.
   -5000001    1    1    2    0    0 -0.38835705321E+02 -0.33336235328E+03 -0.16068934744E+03  0.41871677417E+03  0.19200000000E+03 0.  0.
<mgrwt>
<rscale>  0 0.77917218E+03</rscale>
<asrwt>0</asrwt>
<pdfrwt beam="1">  1        2 0.94318853E-01 0.77917218E+03</pdfrwt>
<pdfrwt beam="2">  1       -2 0.32840691E-01 0.77917218E+03</pdfrwt>
<totfact> 0.41983975E+02</totfact>
</mgrwt>
</event>
<event>
 4    1  0.5621415E-005  0.4868045E+03  0.7818608E-02  0.1017282E+00
          2   -1    0    0  501    0  0.00000000000E+00  0.00000000000E+00  0.73424131192E+03  0.73424131192E+03  0.25500000000E-02 0.  1.
         -2   -1    0    0    0  501 -0.00000000000E+00 -0.00000000000E+00 -0.80688273373E+02  0.80688273413E+02  0.25500000000E-02 0. -1.
    5000001    1    1    2    0    0  0.13024380177E+03  0.73268378437E+02  0.31506296876E+03  0.39807081966E+03  0.19200000000E+03 0.  0.
   -5000001    1    1    2    0    0 -0.13024380177E+03 -0.73268378437E+02  0.33849006979E+03  0.41685876568E+03  0.19200000000E+03 0.  0.
<mgrwt>
<rscale>  0 0.48680453E+03</rscale>
<asrwt>0</asrwt>
<pdfrwt beam="1">  1        2 0.10489162E+00 0.48680453E+03</pdfrwt>
<pdfrwt beam="2">  1       -2 0.11526896E-01 0.48680453E+03</pdfrwt>
<totfact> 0.22989610E+03</totfact>
</mgrwt>
</event>
<event>
 4    1  0.5621415E-005  0.4764554E+03  0.7818608E-02  0.1020114E+00
          2   -1    0    0  501    0  0.00000000000E+00  0.00000000000E+00  0.38020305795E+03  0.38020305796E+03  0.25500000000E-02 0.  1.
         -2   -1    0    0    0  501 -0.00000000000E+00 -0.00000000000E+00 -0.14926873769E+03  0.14926873771E+03  0.25500000000E-02 0. -1.
    5000001    1    1    2    0    0 -0.13781660855E+03  0.15509192965E+02  0.14389658580E+03  0.27713567086E+03  0.19200000000E+03 0.  0.
   -5000001    1    1    2    0    0  0.13781660855E+03 -0.15509192965E+02  0.87037734464E+02  0.25233612480E+03  0.19200000000E+03 0.  0.
<mgrwt>
<rscale>  0 0.47645537E+03</rscale>
<asrwt>0</asrwt>
<pdfrwt beam="1">  1        2 0.54314722E-01 0.47645537E+03</pdfrwt>
<pdfrwt beam="2">  1       -2 0.21324106E-01 0.47645537E+03</pdfrwt>
<totfact> 0.17353964E+03</totfact>
</mgrwt>
</event>
<event>
 4    1  0.5621415E-005  0.8953202E+03  0.7818608E-02  0.9431450E-01
         -2   -1    0    0    0  501 -0.00000000000E+00  0.00000000000E+00  0.83369307092E+02  0.83369307131E+02  0.25500000000E-02 0. -1.
          2   -1    0    0  501    0  0.00000000000E+00 -0.00000000000E+00 -0.24037569175E+04  0.24037569175E+04  0.25500000000E-02 0.  1.
    5000001    1    1    2    0    0  0.13212466160E+02  0.39966459756E+03 -0.13275432389E+04  0.13996933274E+04  0.19200000000E+03 0.  0.
   -5000001    1    1    2    0    0 -0.13212466160E+02 -0.39966459756E+03 -0.99284437154E+03  0.10874328972E+04  0.19200000000E+03 0.  0.
<mgrwt>
<rscale>  0 0.89532016E+03</rscale>
<asrwt>0</asrwt>
<pdfrwt beam="1">  1        2 0.34339380E+00 0.89532016E+03</pdfrwt>
<pdfrwt beam="2">  1       -2 0.11909903E-01 0.89532016E+03</pdfrwt>
<totfact> 0.25977858E+02</totfact>
</mgrwt>
</event>
<event>
 4    1  0.5621415E-005  0.8674671E+03  0.7818608E-02  0.9467189E-01
          2   -1    0    0  501    0  0.00000000000E+00  0.00000000000E+00  0.15183471838E+04  0.15183471838E+04  0.25500000000E-02 0.  1.
         -2   -1    0    0    0  501 -0.00000000000E+00 -0.00000000000E+00 -0.12390103795E+03  0.12390103798E+03  0.25500000000E-02 0. -1.
    5000001    1    1    2    0    0 -0.38008180835E+03 -0.40610806609E+02  0.56137202862E+03  0.70577189883E+03  0.19200000000E+03 0.  0.
   -5000001    1    1    2    0    0  0.38008180835E+03  0.40610806609E+02  0.83307411724E+03  0.93647632297E+03  0.19200000000E+03 0.  0.
<mgrwt>
<rscale>  0 0.86746710E+03</rscale>
<asrwt>0</asrwt>
<pdfrwt beam="1">  1        2 0.21690671E+00 0.86746710E+03</pdfrwt>
<pdfrwt beam="2">  1       -2 0.17700151E-01 0.86746710E+03</pdfrwt>
<totfact> 0.37888457E+02</totfact>
</mgrwt>
</event>
<event>
 4    1  0.5621415E-005  0.7979632E+03  0.7818608E-02  0.9562970E-01
         -2   -1    0    0    0  501 -0.00000000000E+00  0.00000000000E+00  0.17769564822E+03  0.17769564824E+03  0.25500000000E-02 0. -1.
          2   -1    0    0  501    0  0.00000000000E+00 -0.00000000000E+00 -0.89583699001E+03  0.89583699001E+03  0.25500000000E-02 0.  1.
    5000001    1    1    2    0    0 -0.33577379943E+03  0.97290126169E+02 -0.37336688067E+03  0.54632979107E+03  0.19200000000E+03 0.  0.
   -5000001    1    1    2    0    0  0.33577379943E+03 -0.97290126169E+02 -0.34477446112E+03  0.52720284718E+03  0.19200000000E+03 0.  0.
<mgrwt>
<rscale>  0 0.79796324E+03</rscale>
<asrwt>0</asrwt>
<pdfrwt beam="1">  1        2 0.12797671E+00 0.79796324E+03</pdfrwt>
<pdfrwt beam="2">  1       -2 0.25385093E-01 0.79796324E+03</pdfrwt>
<totfact> 0.45731757E+02</totfact>
</mgrwt>
</event>
<event>
 4    1  0.5621415E-005  0.4497043E+03  0.7818608E-02  0.1027810E+00
          2   -1    0    0  501    0  0.00000000000E+00  0.00000000000E+00  0.14701197510E+04  0.14701197510E+04  0.25500000000E-02 0.  1.
         -2   -1    0    0    0  501 -0.00000000000E+00 -0.00000000000E+00 -0.34390723034E+02  0.34390723128E+02  0.25500000000E-02 0. -1.
    5000001    1    1    2    0    0  0.10603160043E+03 -0.27710946166E+02  0.58057911491E+03  0.62124609093E+03  0.19200000000E+03 0.  0.
   -5000001    1    1    2    0    0 -0.10603160043E+03  0.27710946166E+02  0.85514991303E+03  0.88326438317E+03  0.19200000000E+03 0.  0.
<mgrwt>
<rscale>  0 0.44970426E+03</rscale>
<asrwt>0</asrwt>
<pdfrwt beam="1">  1        2 0.21001712E+00 0.44970426E+03</pdfrwt>
<pdfrwt beam="2">  1       -2 0.49129603E-02 0.44970426E+03</pdfrwt>
<totfact> 0.32527291E+03</totfact>
</mgrwt>
</event>
<event>
 4    1  0.5621415E-005  0.8579040E+03  0.7818608E-02  0.9479790E-01
         -2   -1    0    0    0  501 -0.00000000000E+00  0.00000000000E+00  0.21592976795E+03  0.21592976796E+03  0.25500000000E-02 0. -1.
          2   -1    0    0  501    0  0.00000000000E+00 -0.00000000000E+00 -0.85212799639E+03  0.85212799639E+03  0.25500000000E-02 0.  1.
    5000001    1    1    2    0    0  0.69916559395E+02 -0.22466582597E+03 -0.69524808198E+03  0.75868106219E+03  0.19200000000E+03 0.  0.
   -5000001    1    1    2    0    0 -0.69916559395E+02  0.22466582597E+03  0.59049853540E+02  0.30937670216E+03  0.19200000000E+03 0.  0.
<mgrwt>
<rscale>  0 0.85790396E+03</rscale>
<asrwt>0</asrwt>
<pdfrwt beam="1">  1        2 0.12173257E+00 0.85790396E+03</pdfrwt>
<pdfrwt beam="2">  1       -2 0.30847110E-01 0.85790396E+03</pdfrwt>
<totfact> 0.34098165E+02</totfact>
</mgrwt>
</event>
<event>
 4    1  0.5621415E-005  0.6663375E+03  0.7818608E-02  0.9776597E-01
         -2   -1    0    0    0  501 -0.00000000000E+00  0.00000000000E+00  0.59888266202E+02  0.59888266256E+02  0.25500000000E-02 0. -1.
          2   -1    0    0  501    0  0.00000000000E+00 -0.00000000000E+00 -0.18534750452E+04  0.18534750452E+04  0.25500000000E-02 0.  1.
    5000001    1    1    2    0    0  0.16610817253E+03  0.21131952647E+03 -0.77197424078E+03  0.83967618501E+03  0.19200000000E+03 0.  0.
   -5000001    1    1    2    0    0 -0.16610817253E+03 -0.21131952647E+03 -0.10216125382E+04  0.10736871264E+04  0.19200000000E+03 0.  0.
<mgrwt>
<rscale>  0 0.66633747E+03</rscale>
<asrwt>0</asrwt>
<pdfrwt beam="1">  1        2 0.26478211E+00 0.66633747E+03</pdfrwt>
<pdfrwt beam="2">  1       -2 0.85554677E-02 0.66633747E+03</pdfrwt>
<totfact> 0.86134186E+02</totfact>
</mgrwt>
</event>
<event>
 4    1  0.5621415E-005  0.7919997E+03  0.7818608E-02  0.9571670E-01
         -2   -1    0    0    0  501 -0.00000000000E+00  0.00000000000E+00  0.90455598494E+02  0.90455598530E+02  0.25500000000E-02 0. -1.
          2   -1    0    0  501    0  0.00000000000E+00 -0.00000000000E+00 -0.17336229031E+04  0.17336229032E+04  0.25500000000E-02 0.  1.
    5000001    1    1    2    0    0 -0.30899812849E+03  0.13298206669E+03 -0.10113345183E+04  0.10829707204E+04  0.19200000000E+03 0.  0.
   -5000001    1    1    2    0    0  0.30899812849E+03 -0.13298206669E+03 -0.63183278638E+03  0.74110778124E+03  0.19200000000E+03 0.  0.
<mgrwt>
<rscale>  0 0.79199974E+03</rscale>
<asrwt>0</asrwt>
<pdfrwt beam="1">  1        2 0.24766039E+00 0.79199974E+03</pdfrwt>
<pdfrwt beam="2">  1       -2 0.12922229E-01 0.79199974E+03</pdfrwt>
<totfact> 0.50165232E+02</totfact>
</mgrwt>
</event>
<event>
 4    1  0.5621415E-005  0.9365330E+03  0.7818608E-02  0.9381031E-01
         -2   -1    0    0    0  501 -0.00000000000E+00  0.00000000000E+00  0.16195132342E+03  0.16195132344E+03  0.25500000000E-02 0. -1.
          2   -1    0    0  501    0  0.00000000000E+00 -0.00000000000E+00 -0.13539470695E+04  0.13539470695E+04  0.25500000000E-02 0.  1.
    5000001    1    1    2    0    0  0.25216414153E+03  0.34027234776E+03 -0.50678967293E+03  0.68780214998E+03  0.19200000000E+03 0.  0.
   -5000001    1    1    2    0    0 -0.25216414153E+03 -0.34027234776E+03 -0.68520607311E+03  0.82809624292E+03  0.19200000000E+03 0.  0.
<mgrwt>
<rscale>  0 0.93653301E+03</rscale>
<asrwt>0</asrwt>
<pdfrwt beam="1">  1        2 0.19342100E+00 0.93653301E+03</pdfrwt>
<pdfrwt beam="2">  1       -2 0.23135904E-01 0.93653301E+03</pdfrwt>
<totfact> 0.28871795E+02</totfact>
</mgrwt>
</event>
<event>
 4    1  0.5621415E-005  0.6240434E+03  0.7818608E-02  0.9856742E-01
         -2   -1    0    0    0  501 -0.00000000000E+00  0.00000000000E+00  0.91134832956E+02  0.91134832992E+02  0.25500000000E-02 0. -1.
          2   -1    0    0  501    0  0.00000000000E+00 -0.00000000000E+00 -0.10682800839E+04  0.10682800839E+04  0.25500000000E-02 0.  1.
    5000001    1    1    2    0    0 -0.20084750664E+03  0.13971551467E+03 -0.53533070403E+03  0.61911477824E+03  0.19200000000E+03 0.  0.
   -5000001    1    1    2    0    0  0.20084750664E+03 -0.13971551467E+03 -0.44181454689E+03  0.54030013863E+03  0.19200000000E+03 0.  0.
<mgrwt>
<rscale>  0 0.62404335E+03</rscale>
<asrwt>0</asrwt>
<pdfrwt beam="1">  1        2 0.15261143E+00 0.62404335E+03</pdfrwt>
<pdfrwt beam="2">  1       -2 0.13019262E-01 0.62404335E+03</pdfrwt>
<totfact> 0.11407575E+03</totfact>
</mgrwt>
</event>
<event>
 4    1  0.5621415E-005  0.6888669E+03  0.7818608E-02  0.9736463E-01
          2   -1    0    0  501    0  0.00000000000E+00  0.00000000000E+00  0.19126962850E+04  0.19126962850E+04  0.25500000000E-02 0.  1.
         -2   -1    0    0    0  501 -0.00000000000E+00 -0.00000000000E+00 -0.62024697427E+02  0.62024697480E+02  0.25500000000E-02 0. -1.
    5000001    1    1    2    0    0 -0.26366753671E+03 -0.31781141484E+02  0.62142252983E+03  0.70253866189E+03  0.19200000000E+03 0.  0.
   -5000001    1    1    2    0    0  0.26366753671E+03  0.31781141484E+02  0.12292490577E+04  0.12721823206E+04  0.19200000000E+03 0.  0.
<mgrwt>
<rscale>  0 0.68886692E+03</rscale>
<asrwt>0</asrwt>
<pdfrwt beam="1">  1        2 0.27324232E+00 0.68886692E+03</pdfrwt>
<pdfrwt beam="2">  1       -2 0.88606714E-02 0.68886692E+03</pdfrwt>
<totfact> 0.75898659E+02</totfact>
</mgrwt>
</event>
<event>
 4    1  0.5621415E-005  0.5282624E+03  0.7818608E-02  0.1006654E+00
         -2   -1    0    0    0  501 -0.00000000000E+00  0.00000000000E+00  0.18267297445E+02  0.18267297623E+02  0.25500000000E-02 0. -1.
          2   -1    0    0  501    0  0.00000000000E+00 -0.00000000000E+00 -0.38191363096E+04  0.38191363096E+04  0.25500000000E-02 0.  1.
    5000001    1    1    2    0    0  0.16072710112E+03  0.38350182292E+02 -0.13569596679E+04  0.13804012017E+04  0.19200000000E+03 0.  0.
   -5000001    1    1    2    0    0 -0.16072710112E+03 -0.38350182292E+02 -0.24439093442E+04  0.24570024055E+04  0.19200000000E+03 0.  0.
<mgrwt>
<rscale>  0 0.52826243E+03</rscale>
<asrwt>0</asrwt>
<pdfrwt beam="1">  1        2 0.54559039E+00 0.52826243E+03</pdfrwt>
<pdfrwt beam="2">  1       -2 0.26096164E-02 0.52826243E+03</pdfrwt>
<totfact> 0.46842784E+02</totfact>
</mgrwt>
</event>
<event>
 4    1  0.5621415E-005  0.8182727E+03  0.7818608E-02  0.9533938E-01
         -2   -1    0    0    0  501 -0.00000000000E+00  0.00000000000E+00  0.36689910804E+03  0.36689910805E+03  0.25500000000E-02 0. -1.
          2   -1    0    0  501    0  0.00000000000E+00 -0.00000000000E+00 -0.45623588171E+03  0.45623588172E+03  0.25500000000E-02 0.  1.
    5000001    1    1    2    0    0 -0.24848750196E+03  0.24954495711E+03  0.36494466012E+02  0.40275869984E+03  0.19200000000E+03 0.  0.
   -5000001    1    1    2    0    0  0.24848750196E+03 -0.24954495711E+03 -0.12583123968E+03  0.42037628992E+03  0.19200000000E+03 0.  0.
<mgrwt>
<rscale>  0 0.81827266E+03</rscale>
<asrwt>0</asrwt>
<pdfrwt beam="1">  1        2 0.65176554E-01 0.81827266E+03</pdfrwt>
<pdfrwt beam="2">  1       -2 0.52414158E-01 0.81827266E+03</pdfrwt>
<totfact> 0.25762203E+02</totfact>
</mgrwt>
</event>
<event>
 4    1  0.5621415E-005  0.1024138E+04  0.7818608E-02  0.9282459E-01
          2   -1    0    0  501    0  0.00000000000E+00  0.00000000000E+00  0.19887081349E+04  0.19887081349E+04  0.25500000000E-02 0.  1.
         -2   -1    0    0    0  501 -0.00000000000E+00 -0.00000000000E+00 -0.13185184851E+03  0.13185184853E+03  0.25500000000E-02 0. -1.
    5000001    1    1    2    0    0 -0.26238158133E+03 -0.84267266073E+02  0.12808611171E+03  0.35946504471E+03  0.19200000000E+03 0.  0.
   -5000001    1    1    2    0    0  0.26238158133E+03  0.84267266073E+02  0.17287701746E+04  0.17610949387E+04  0.19200000000E+03 0.  0.
<mgrwt>
<rscale>  0 0.10241384E+04</rscale>
<asrwt>0</asrwt>
<pdfrwt beam="1">  1        2 0.28410114E+00 0.10241384E+04</pdfrwt>
<pdfrwt beam="2">  1       -2 0.18835980E-01 0.10241384E+04</pdfrwt>
<totfact> 0.19275296E+02</totfact>
</mgrwt>
</event>
<event>
 4    1  0.5621415E-005  0.7337858E+03  0.7818608E-02  0.9661137E-01
          2   -1    0    0  501    0  0.00000000000E+00  0.00000000000E+00  0.34349681797E+04  0.34349681797E+04  0.25500000000E-02 0.  1.
         -2   -1    0    0    0  501 -0.00000000000E+00 -0.00000000000E+00 -0.39188253260E+02  0.39188253343E+02  0.25500000000E-02 0. -1.
    5000001    1    1    2    0    0 -0.39410033096E+02 -0.30738932150E+03  0.15023886999E+04  0.15459874357E+04  0.19200000000E+03 0.  0.
   -5000001    1    1    2    0    0  0.39410033096E+02  0.30738932150E+03  0.18933912265E+04  0.19281689974E+04  0.19200000000E+03 0.  0.
<mgrwt>
<rscale>  0 0.73378581E+03</rscale>
<asrwt>0</asrwt>
<pdfrwt beam="1">  1        2 0.49071007E+00 0.73378581E+03</pdfrwt>
<pdfrwt beam="2">  1       -2 0.55983182E-02 0.73378581E+03</pdfrwt>
<totfact> 0.24279512E+02</totfact>
</mgrwt>
</event>
<event>
 4    1  0.5621415E-005  0.7162558E+03  0.7818608E-02  0.9689829E-01
         -2   -1    0    0    0  501 -0.00000000000E+00  0.00000000000E+00  0.88709878698E+02  0.88709878735E+02  0.25500000000E-02 0. -1.
          2   -1    0    0  501    0  0.00000000000E+00 -0.00000000000E+00 -0.14457871638E+04  0.14457871638E+04  0.25500000000E-02 0.  1.
    5000001    1    1    2    0    0  0.21664797801E+03 -0.20151689677E+03 -0.81140459272E+03  0.88475240556E+03  0.19200000000E+03 0.  0.
   -5000001    1    1    2    0    0 -0.21664797801E+03  0.20151689677E+03 -0.54567269234E+03  0.64974463693E+03  0.19200000000E+03 0.  0.
<mgrwt>
<rscale>  0 0.71625583E+03</rscale>
<asrwt>0</asrwt>
<pdfrwt beam="1">  1        2 0.20654101E+00 0.71625583E+03</pdfrwt>
<pdfrwt beam="2">  1       -2 0.12672841E-01 0.71625583E+03</pdfrwt>
<totfact> 0.73392386E+02</totfact>
</mgrwt>
</event>
<event>
 4    1  0.5621415E-005  0.1159486E+04  0.7818608E-02  0.9149077E-01
          2   -1    0    0  501    0  0.00000000000E+00  0.00000000000E+00  0.19338660372E+04  0.19338660372E+04  0.25500000000E-02 0.  1.
         -2   -1    0    0    0  501 -0.00000000000E+00 -0.00000000000E+00 -0.17379789110E+03  0.17379789112E+03  0.25500000000E-02 0. -1.
    5000001    1    1    2    0    0 -0.37717972270E+03  0.81427573725E+02  0.17521555433E+03  0.46525206443E+03  0.19200000000E+03 0.  0.
   -5000001    1    1    2    0    0  0.37717972270E+03 -0.81427573725E+02  0.15848525917E+04  0.16424118639E+04  0.19200000000E+03 0.  0.
<mgrwt>
<rscale>  0 0.11594858E+04</rscale>
<asrwt>0</asrwt>
<pdfrwt beam="1">  1        2 0.27626657E+00 0.11594858E+04</pdfrwt>
<pdfrwt beam="2">  1       -2 0.24828271E-01 0.11594858E+04</pdfrwt>
<totfact> 0.12473853E+02</totfact>
</mgrwt>
</event>
<event>
 4    1  0.5621415E-005  0.4902876E+03  0.7818608E-02  0.1016346E+00
          2   -1    0    0  501    0  0.00000000000E+00  0.00000000000E+00  0.43241110169E+04  0.43241110169E+04  0.25500000000E-02 0.  1.
         -2   -1    0    0    0  501 -0.00000000000E+00 -0.00000000000E+00 -0.13897768296E+02  0.13897768530E+02  0.25500000000E-02 0. -1.
    5000001    1    1    2    0    0  0.15037502956E+02  0.82422877567E+02  0.32816698824E+04  0.32883492628E+04  0.19200000000E+03 0.  0.
   -5000001    1    1    2    0    0 -0.15037502956E+02 -0.82422877567E+02  0.10285433662E+04  0.10496595226E+04  0.19200000000E+03 0.  0.
<mgrwt>
<rscale>  0 0.49028764E+03</rscale>
<asrwt>0</asrwt>
<pdfrwt beam="1">  1        2 0.61773016E+00 0.49028764E+03</pdfrwt>
<pdfrwt beam="2">  1       -2 0.19853955E-02 0.49028764E+03</pdfrwt>
<totfact> 0.32283856E+02</totfact>
</mgrwt>
</event>
<event>
 4    1  0.5621415E-005  0.8746973E+03  0.7818608E-02  0.9457776E-01
          2   -1    0    0  501    0  0.00000000000E+00  0.00000000000E+00  0.19006353958E+03  0.19006353960E+03  0.25500000000E-02 0.  1.
         -2   -1    0    0    0  501 -0.00000000000E+00 -0.00000000000E+00 -0.10063678545E+04  0.10063678545E+04  0.25500000000E-02 0. -1.
    5000001    1    1    2    0    0 -0.19037978384E+03  0.34175182708E+03 -0.35750457138E+03  0.56365973066E+03  0.19200000000E+03 0.  0.
   -5000001    1    1    2    0    0  0.19037978384E+03 -0.34175182708E+03 -0.45879974356E+03  0.63277166347E+03  0.19200000000E+03 0.  0.
<mgrwt>
<rscale>  0 0.87469729E+03</rscale>
<asrwt>0</asrwt>
<pdfrwt beam="1">  1        2 0.27151935E-01 0.87469729E+03</pdfrwt>
<pdfrwt beam="2">  1       -2 0.14376683E+00 0.87469729E+03</pdfrwt>
<totfact> 0.67122157E+01</totfact>
</mgrwt>
</event>
<event>
 4    1  0.5621415E-005  0.9950892E+03  0.7818608E-02  0.9313947E-01
          2   -1    0    0  501    0  0.00000000000E+00  0.00000000000E+00  0.94441484461E+03  0.94441484461E+03  0.25500000000E-02 0.  1.
         -2   -1    0    0    0  501 -0.00000000000E+00 -0.00000000000E+00 -0.26212065273E+03  0.26212065274E+03  0.25500000000E-02 0. -1.
    5000001    1    1    2    0    0 -0.15800958286E+03 -0.42818801433E+03  0.40023195581E+03  0.63668015702E+03  0.19200000000E+03 0.  0.
   -5000001    1    1    2    0    0  0.15800958286E+03  0.42818801433E+03  0.28206223607E+03  0.56985534033E+03  0.19200000000E+03 0.  0.
<mgrwt>
<rscale>  0 0.99508921E+03</rscale>
<asrwt>0</asrwt>
<pdfrwt beam="1">  1        2 0.13491640E+00 0.99508921E+03</pdfrwt>
<pdfrwt beam="2">  1       -2 0.37445808E-01 0.99508921E+03</pdfrwt>
<totfact> 0.20404770E+02</totfact>
</mgrwt>
</event>
<event>
 4    1  0.5621415E-005  0.5853886E+03  0.7818608E-02  0.9936192E-01
         -2   -1    0    0    0  501 -0.00000000000E+00  0.00000000000E+00  0.25979976822E+02  0.25979976947E+02  0.25500000000E-02 0. -1.
          2   -1    0    0  501    0  0.00000000000E+00 -0.00000000000E+00 -0.32975375140E+04  0.32975375140E+04  0.25500000000E-02 0.  1.
    5000001    1    1    2    0    0  0.16462219232E+03  0.59298090494E+01 -0.80000953819E+03  0.83905595167E+03  0.19200000000E+03 0.  0.
   -5000001    1    1    2    0    0 -0.16462219232E+03 -0.59298090494E+01 -0.24715479990E+04  0.24844615392E+04  0.19200000000E+03 0.  0.
<mgrwt>
<rscale>  0 0.58538858E+03</rscale>
<asrwt>0</asrwt>
<pdfrwt beam="1">  1        2 0.47107652E+00 0.58538858E+03</pdfrwt>
<pdfrwt beam="2">  1       -2 0.37114274E-02 0.58538858E+03</pdfrwt>
<totfact> 0.56035552E+02</totfact>
</mgrwt>
</event>
<event>
 4    1  0.5621415E-005  0.6444464E+03  0.7818608E-02  0.9817256E-01
          2   -1    0    0  501    0  0.00000000000E+00  0.00000000000E+00  0.21297235131E+03  0.21297235133E+03  0.25500000000E-02 0.  1.
         -2   -1    0    0    0  501 -0.00000000000E+00 -0.00000000000E+00 -0.48751769293E+03  0.48751769294E+03  0.25500000000E-02 0. -1.
    5000001    1    1    2    0    0  0.19428459657E+03  0.98074559285E+02  0.14897112015E+02  0.29060462417E+03  0.19200000000E+03 0.  0.
   -5000001    1    1    2    0    0 -0.19428459657E+03 -0.98074559285E+02 -0.28944245363E+03  0.40988542010E+03  0.19200000000E+03 0.  0.
<mgrwt>
<rscale>  0 0.64444640E+03</rscale>
<asrwt>0</asrwt>
<pdfrwt beam="1">  1        2 0.30424622E-01 0.64444640E+03</pdfrwt>
<pdfrwt beam="2">  1       -2 0.69645384E-01 0.64444640E+03</pdfrwt>
<totfact> 0.33240038E+02</totfact>
</mgrwt>
</event>
<event>
 4    1  0.5621415E-005  0.7383744E+03  0.7818608E-02  0.9653768E-01
          2   -1    0    0  501    0  0.00000000000E+00  0.00000000000E+00  0.99309818226E+03  0.99309818226E+03  0.25500000000E-02 0.  1.
         -2   -1    0    0    0  501 -0.00000000000E+00 -0.00000000000E+00 -0.13724644111E+03  0.13724644113E+03  0.25500000000E-02 0. -1.
    5000001    1    1    2    0    0  0.45175677311E+02 -0.31092549919E+03  0.38685773747E+03  0.53407716381E+03  0.19200000000E+03 0.  0.
   -5000001    1    1    2    0    0 -0.45175677311E+02  0.31092549919E+03  0.46899400368E+03  0.59626745958E+03  0.19200000000E+03 0.  0.
<mgrwt>
<rscale>  0 0.73837441E+03</rscale>
<asrwt>0</asrwt>
<pdfrwt beam="1">  1        2 0.14187117E+00 0.73837441E+03</pdfrwt>
<pdfrwt beam="2">  1       -2 0.19606635E-01 0.73837441E+03</pdfrwt>
<totfact> 0.62903295E+02</totfact>
</mgrwt>
</event>
<event>
 4    1  0.5621415E-005  0.6537198E+03  0.7818608E-02  0.9799824E-01
          2   -1    0    0  501    0  0.00000000000E+00  0.00000000000E+00  0.71039501247E+03  0.71039501247E+03  0.25500000000E-02 0. -1.
         -2   -1    0    0    0  501 -0.00000000000E+00 -0.00000000000E+00 -0.15039153719E+03  0.15039153722E+03  0.25500000000E-02 0.  1.
    5000001    1    1    2    0    0 -0.32544141632E+02  0.23463723110E+03  0.12498453218E+03  0.32954344882E+03  0.19200000000E+03 0.  0.
   -5000001    1    1    2    0    0  0.32544141632E+02 -0.23463723110E+03  0.43501894309E+03  0.53124310087E+03  0.19200000000E+03 0.  0.
<mgrwt>
<rscale>  0 0.65371981E+03</rscale>
<asrwt>0</asrwt>
<pdfrwt beam="1">  1        2 0.10148500E+00 0.65371981E+03</pdfrwt>
<pdfrwt beam="2">  1       -2 0.21484505E-01 0.65371981E+03</pdfrwt>
<totfact> 0.83362148E+02</totfact>
</mgrwt>
</event>
<event>
 4    1  0.5621415E-005  0.1181031E+04  0.7818608E-02  0.9129624E-01
         -2   -1    0    0    0  501 -0.00000000000E+00  0.00000000000E+00  0.24871435144E+03  0.24871435145E+03  0.25500000000E-02 0. -1.
          2   -1    0    0  501    0  0.00000000000E+00 -0.00000000000E+00 -0.14020444453E+04  0.14020444453E+04  0.25500000000E-02 0.  1.
    5000001    1    1    2    0    0  0.28926381174E+03  0.46953121553E+03 -0.45392377765E+03  0.73962416879E+03  0.19200000000E+03 0.  0.
   -5000001    1    1    2    0    0 -0.28926381174E+03 -0.46953121553E+03 -0.69940631625E+03  0.91113462801E+03  0.19200000000E+03 0.  0.
<mgrwt>
<rscale>  0 0.11810310E+04</rscale>
<asrwt>0</asrwt>
<pdfrwt beam="1">  1        2 0.20029206E+00 0.11810310E+04</pdfrwt>
<pdfrwt beam="2">  1       -2 0.35530622E-01 0.11810310E+04</pdfrwt>
<totfact> 0.12122093E+02</totfact>
</mgrwt>
</event>
<event>
 4    1  0.5621415E-005  0.5986475E+03  0.7818608E-02  0.9908216E-01
         -2   -1    0    0    0  501 -0.00000000000E+00  0.00000000000E+00  0.54457679631E+02  0.54457679691E+02  0.25500000000E-02 0. -1.
          2   -1    0    0  501    0  0.00000000000E+00 -0.00000000000E+00 -0.16452173096E+04  0.16452173096E+04  0.25500000000E-02 0.  1.
    5000001    1    1    2    0    0  0.18682291684E+03 -0.91262893174E+02 -0.51866423351E+03  0.59085387791E+03  0.19200000000E+03 0.  0.
   -5000001    1    1    2    0    0 -0.18682291684E+03  0.91262893174E+02 -0.10720953964E+04  0.11088211113E+04  0.19200000000E+03 0.  0.
<mgrwt>
<rscale>  0 0.59864753E+03</rscale>
<asrwt>0</asrwt>
<pdfrwt beam="1">  1        2 0.23503101E+00 0.59864753E+03</pdfrwt>
<pdfrwt beam="2">  1       -2 0.77796695E-02 0.59864753E+03</pdfrwt>
<totfact> 0.12832468E+03</totfact>
</mgrwt>
</event>
<event>
 4    1  0.5621415E-005  0.9107348E+03  0.7818608E-02  0.9412261E-01
          2   -1    0    0  501    0  0.00000000000E+00  0.00000000000E+00  0.64233051492E+03  0.64233051492E+03  0.25500000000E-02 0.  1.
         -2   -1    0    0    0  501 -0.00000000000E+00 -0.00000000000E+00 -0.32282362378E+03  0.32282362379E+03  0.25500000000E-02 0. -1.
    5000001    1    1    2    0    0 -0.36398114752E+03 -0.17720394834E+03  0.73580782961E+02  0.45405026889E+03  0.19200000000E+03 0.  0.
   -5000001    1    1    2    0    0  0.36398114752E+03  0.17720394834E+03  0.24592610818E+03  0.51110386982E+03  0.19200000000E+03 0.  0.
<mgrwt>
<rscale>  0 0.91073479E+03</rscale>
<asrwt>0</asrwt>
<pdfrwt beam="1">  1        2 0.91761502E-01 0.91073479E+03</pdfrwt>
<pdfrwt beam="2">  1       -2 0.46117660E-01 0.91073479E+03</pdfrwt>
<totfact> 0.22332544E+02</totfact>
</mgrwt>
</event>
<event>
 4    1  0.5621415E-005  0.5844565E+03  0.7818608E-02  0.9938189E-01
         -2   -1    0    0    0  501 -0.00000000000E+00  0.00000000000E+00  0.28107352501E+03  0.28107352502E+03  0.25500000000E-02 0. -1.
          2   -1    0    0  501    0  0.00000000000E+00 -0.00000000000E+00 -0.30382564111E+03  0.30382564112E+03  0.25500000000E-02 0.  1.
    5000001    1    1    2    0    0 -0.14009904815E+03 -0.74384777658E+02  0.14162042940E+03  0.28649814042E+03  0.19200000000E+03 0.  0.
   -5000001    1    1    2    0    0  0.14009904815E+03  0.74384777658E+02 -0.16437254550E+03  0.29840102573E+03  0.19200000000E+03 0.  0.
<mgrwt>
<rscale>  0 0.58445648E+03</rscale>
<asrwt>0</asrwt>
<pdfrwt beam="1">  1        2 0.43403663E-01 0.58445648E+03</pdfrwt>
<pdfrwt beam="2">  1       -2 0.40153361E-01 0.58445648E+03</pdfrwt>
<totfact> 0.69406669E+02</totfact>
</mgrwt>
</event>
<event>
 4    1  0.5621415E-005  0.6847268E+03  0.7818608E-02  0.9743714E-01
         -2   -1    0    0    0  501 -0.00000000000E+00  0.00000000000E+00  0.85498379769E+02  0.85498379807E+02  0.25500000000E-02 0. -1.
          2   -1    0    0  501    0  0.00000000000E+00 -0.00000000000E+00 -0.13709346887E+04  0.13709346887E+04  0.25500000000E-02 0.  1.
    5000001    1    1    2    0    0 -0.11233038735E+03 -0.25458905278E+03 -0.75755783236E+03  0.82957312583E+03  0.19200000000E+03 0.  0.
   -5000001    1    1    2    0    0  0.11233038735E+03  0.25458905278E+03 -0.52787847657E+03  0.62685994268E+03  0.19200000000E+03 0.  0.
<mgrwt>
<rscale>  0 0.68472679E+03</rscale>
<asrwt>0</asrwt>
<pdfrwt beam="1">  1        2 0.19584780E+00 0.68472679E+03</pdfrwt>
<pdfrwt beam="2">  1       -2 0.12214055E-01 0.68472679E+03</pdfrwt>
<totfact> 0.85638789E+02</totfact>
</mgrwt>
</event>
<event>
 4    1  0.5621415E-005  0.6440558E+03  0.7818608E-02  0.9817997E-01
         -2   -1    0    0    0  501 -0.00000000000E+00  0.00000000000E+00  0.47547508884E+02  0.47547508953E+02  0.25500000000E-02 0. -1.
          2   -1    0    0  501    0  0.00000000000E+00 -0.00000000000E+00 -0.21810176967E+04  0.21810176967E+04  0.25500000000E-02 0.  1.
    5000001    1    1    2    0    0 -0.20489853536E+03 -0.46227248809E+02 -0.15882695428E+04  0.16135626759E+04  0.19200000000E+03 0.  0.
   -5000001    1    1    2    0    0  0.20489853536E+03  0.46227248809E+02 -0.54520064495E+03  0.61500252973E+03  0.19200000000E+03 0.  0.
<mgrwt>
<rscale>  0 0.64405577E+03</rscale>
<asrwt>0</asrwt>
<pdfrwt beam="1">  1        2 0.31157389E+00 0.64405577E+03</pdfrwt>
<pdfrwt beam="2">  1       -2 0.67925026E-02 0.64405577E+03</pdfrwt>
<totfact> 0.85145583E+02</totfact>
</mgrwt>
</event>
<event>
 4    1  0.5621415E-005  0.1211908E+04  0.7818608E-02  0.9102497E-01
         -2   -1    0    0    0  501 -0.00000000000E+00  0.00000000000E+00  0.14725850223E+04  0.14725850223E+04  0.25500000000E-02 0. -1.
          2   -1    0    0  501    0  0.00000000000E+00 -0.00000000000E+00 -0.24934384626E+03  0.24934384627E+03  0.25500000000E-02 0.  1.
    5000001    1    1    2    0    0  0.39215532129E+02  0.33129179874E+03 -0.53333175327E+02  0.38858788126E+03  0.19200000000E+03 0.  0.
   -5000001    1    1    2    0    0 -0.39215532129E+02 -0.33129179874E+03  0.12765743513E+04  0.13333409873E+04  0.19200000000E+03 0.  0.
<mgrwt>
<rscale>  0 0.12119076E+04</rscale>
<asrwt>0</asrwt>
<pdfrwt beam="1">  1        2 0.35620548E-01 0.12119076E+04</pdfrwt>
<pdfrwt beam="2">  1       -2 0.21036930E+00 0.12119076E+04</pdfrwt>
<totfact> 0.16489140E+01</totfact>
</mgrwt>
</event>
<event>
 4    1  0.5621415E-005  0.5621335E+03  0.7818608E-02  0.9987239E-01
          2   -1    0    0  501    0  0.00000000000E+00  0.00000000000E+00  0.29289563614E+03  0.29289563615E+03  0.25500000000E-02 0.  1.
         -2   -1    0    0    0  501 -0.00000000000E+00 -0.00000000000E+00 -0.26971556468E+03  0.26971556469E+03  0.25500000000E-02 0. -1.
    5000001    1    1    2    0    0 -0.17828869770E+03 -0.18655771164E+02  0.11167308974E+03  0.28542910941E+03  0.19200000000E+03 0.  0.
   -5000001    1    1    2    0    0  0.17828869770E+03  0.18655771164E+02 -0.88493018274E+02  0.27718209143E+03  0.19200000000E+03 0.  0.
<mgrwt>
<rscale>  0 0.56213348E+03</rscale>
<asrwt>0</asrwt>
<pdfrwt beam="1">  1        2 0.41842234E-01 0.56213348E+03</pdfrwt>
<pdfrwt beam="2">  1       -2 0.38530795E-01 0.56213348E+03</pdfrwt>
<totfact> 0.78283407E+02</totfact>
</mgrwt>
</event>
<event>
 4    1  0.5621415E-005  0.9723971E+03  0.7818608E-02  0.9339348E-01
          2   -1    0    0  501    0  0.00000000000E+00  0.00000000000E+00  0.17374310773E+04  0.17374310773E+04  0.25500000000E-02 0.  1.
         -2   -1    0    0    0  501 -0.00000000000E+00 -0.00000000000E+00 -0.13605664166E+03  0.13605664168E+03  0.25500000000E-02 0. -1.
    5000001    1    1    2    0    0  0.17043349366E+03 -0.32118401599E+03  0.30079805083E+03  0.50946071023E+03  0.19200000000E+03 0.  0.
   -5000001    1    1    2    0    0 -0.17043349366E+03  0.32118401599E+03  0.13005763848E+04  0.13640270087E+04  0.19200000000E+03 0.  0.
<mgrwt>
<rscale>  0 0.97239712E+03</rscale>
<asrwt>0</asrwt>
<pdfrwt beam="1">  1        2 0.24820443E+00 0.97239712E+03</pdfrwt>
<pdfrwt beam="2">  1       -2 0.19436664E-01 0.97239712E+03</pdfrwt>
<totfact> 0.24623123E+02</totfact>
</mgrwt>
</event>
<event>
 4    1  0.5621415E-005  0.8920933E+03  0.7818608E-02  0.9435520E-01
          2   -1    0    0  501    0  0.00000000000E+00  0.00000000000E+00  0.25441208847E+04  0.25441208847E+04  0.25500000000E-02 0.  1.
         -2   -1    0    0    0  501 -0.00000000000E+00 -0.00000000000E+00 -0.78202887577E+02  0.78202887619E+02  0.25500000000E-02 0. -1.
    5000001    1    1    2    0    0 -0.26100875844E+03 -0.26511007446E+03  0.16853456422E+04  0.17365663988E+04  0.19200000000E+03 0.  0.
   -5000001    1    1    2    0    0  0.26100875844E+03  0.26511007446E+03  0.78057235486E+03  0.88575737351E+03  0.19200000000E+03 0.  0.
<mgrwt>
<rscale>  0 0.89209327E+03</rscale>
<asrwt>0</asrwt>
<pdfrwt beam="1">  1        2 0.36344573E+00 0.89209327E+03</pdfrwt>
<pdfrwt beam="2">  1       -2 0.11171845E-01 0.89209327E+03</pdfrwt>
<totfact> 0.24426103E+02</totfact>
</mgrwt>
</event>
<event>
 4    1  0.5621415E-005  0.7298742E+03  0.7818608E-02  0.9667465E-01
          2   -1    0    0  501    0  0.00000000000E+00  0.00000000000E+00  0.89057771950E+03  0.89057771950E+03  0.25500000000E-02 0.  1.
         -2   -1    0    0    0  501 -0.00000000000E+00 -0.00000000000E+00 -0.14954235505E+03  0.14954235507E+03  0.25500000000E-02 0. -1.
    5000001    1    1    2    0    0 -0.14326669615E+03  0.27000862270E+03  0.29397301879E+03  0.46552565808E+03  0.19200000000E+03 0.  0.
   -5000001    1    1    2    0    0  0.14326669615E+03 -0.27000862270E+03  0.44706234566E+03  0.57459441649E+03  0.19200000000E+03 0.  0.
<mgrwt>
<rscale>  0 0.72987421E+03</rscale>
<asrwt>0</asrwt>
<pdfrwt beam="1">  1        2 0.12722539E+00 0.72987421E+03</pdfrwt>
<pdfrwt beam="2">  1       -2 0.21363193E-01 0.72987421E+03</pdfrwt>
<totfact> 0.62871455E+02</totfact>
</mgrwt>
</event>
<event>
 4    1  0.5621415E-005  0.8568375E+03  0.7818608E-02  0.9481206E-01
          2   -1    0    0  501    0  0.00000000000E+00  0.00000000000E+00  0.37424394920E+03  0.37424394921E+03  0.25500000000E-02 0.  1.
         -2   -1    0    0    0  501 -0.00000000000E+00 -0.00000000000E+00 -0.49043582131E+03  0.49043582132E+03  0.25500000000E-02 0. -1.
    5000001    1    1    2    0    0 -0.84084889972E+02  0.79185851437E+02  0.31040087881E+03  0.38282290077E+03  0.19200000000E+03 0.  0.
   -5000001    1    1    2    0    0  0.84084889972E+02 -0.79185851437E+02 -0.42659275092E+03  0.48185686975E+03  0.19200000000E+03 0.  0.
<mgrwt>
<rscale>  0 0.85683753E+03</rscale>
<asrwt>0</asrwt>
<pdfrwt beam="1">  1        2 0.53463422E-01 0.85683753E+03</pdfrwt>
<pdfrwt beam="2">  1       -2 0.70062259E-01 0.85683753E+03</pdfrwt>
<totfact> 0.17383621E+02</totfact>
</mgrwt>
</event>
<event>
 4    1  0.5621415E-005  0.6113574E+03  0.7818608E-02  0.9882119E-01
         -2   -1    0    0    0  501 -0.00000000000E+00  0.00000000000E+00  0.53612174061E+02  0.53612174122E+02  0.25500000000E-02 0. -1.
          2   -1    0    0  501    0  0.00000000000E+00 -0.00000000000E+00 -0.17428775988E+04  0.17428775988E+04  0.25500000000E-02 0.  1.
    5000001    1    1    2    0    0  0.14109424610E+03  0.17964617564E+03 -0.64982098635E+03  0.71506059115E+03  0.19200000000E+03 0.  0.
   -5000001    1    1    2    0    0 -0.14109424610E+03 -0.17964617564E+03 -0.10394444384E+04  0.10814291818E+04  0.19200000000E+03 0.  0.
<mgrwt>
<rscale>  0 0.61135737E+03</rscale>
<asrwt>0</asrwt>
<pdfrwt beam="1">  1        2 0.24898248E+00 0.61135737E+03</pdfrwt>
<pdfrwt beam="2">  1       -2 0.76588830E-02 0.61135737E+03</pdfrwt>
<totfact> 0.11726208E+03</totfact>
</mgrwt>
</event>
<event>
 4    1  0.5621415E-005  0.9901614E+03  0.7818608E-02  0.9319402E-01
         -2   -1    0    0    0  501 -0.00000000000E+00  0.00000000000E+00  0.29117180579E+03  0.29117180580E+03  0.25500000000E-02 0. -1.
          2   -1    0    0  501    0  0.00000000000E+00 -0.00000000000E+00 -0.84178783258E+03  0.84178783258E+03  0.25500000000E-02 0.  1.
    5000001    1    1    2    0    0  0.42015123623E+03  0.14050158224E+03 -0.15010572622E+03  0.50563176815E+03  0.19200000000E+03 0.  0.
   -5000001    1    1    2    0    0 -0.42015123623E+03 -0.14050158224E+03 -0.40051030057E+03  0.62732787024E+03  0.19200000000E+03 0.  0.
<mgrwt>
<rscale>  0 0.99016137E+03</rscale>
<asrwt>0</asrwt>
<pdfrwt beam="1">  1        2 0.12025540E+00 0.99016137E+03</pdfrwt>
<pdfrwt beam="2">  1       -2 0.41595973E-01 0.99016137E+03</pdfrwt>
<totfact> 0.19427059E+02</totfact>
</mgrwt>
</event>
<event>
 4    1  0.5621415E-005  0.6443660E+03  0.7818608E-02  0.9817409E-01
         -2   -1    0    0    0  501 -0.00000000000E+00  0.00000000000E+00  0.17907387658E+03  0.17907387659E+03  0.25500000000E-02 0. -1.
          2   -1    0    0  501    0  0.00000000000E+00 -0.00000000000E+00 -0.57965950660E+03  0.57965950660E+03  0.25500000000E-02 0.  1.
    5000001    1    1    2    0    0  0.14955555000E+03 -0.14118832040E+03 -0.38511298668E+03  0.47694550722E+03  0.19200000000E+03 0.  0.
   -5000001    1    1    2    0    0 -0.14955555000E+03  0.14118832040E+03 -0.15472643346E+02  0.28178787597E+03  0.19200000000E+03 0.  0.
<mgrwt>
<rscale>  0 0.64436597E+03</rscale>
<asrwt>0</asrwt>
<pdfrwt beam="1">  1        2 0.82808500E-01 0.64436597E+03</pdfrwt>
<pdfrwt beam="2">  1       -2 0.25581983E-01 0.64436597E+03</pdfrwt>
<totfact> 0.77966099E+02</totfact>
</mgrwt>
</event>
<event>
 4    1  0.5621415E-005  0.4587832E+03  0.7818608E-02  0.1025135E+00
         -2   -1    0    0    0  501 -0.00000000000E+00  0.00000000000E+00  0.46855989847E+02  0.46855989916E+02  0.25500000000E-02 0. -1.
          2   -1    0    0  501    0  0.00000000000E+00 -0.00000000000E+00 -0.11230263355E+04  0.11230263355E+04  0.25500000000E-02 0.  1.
    5000001    1    1    2    0    0 -0.91952408093E+02 -0.85435779114E+02 -0.53448537206E+03  0.58162971954E+03  0.19200000000E+03 0.  0.
   -5000001    1    1    2    0    0  0.91952408093E+02  0.85435779114E+02 -0.54168497360E+03  0.58825260588E+03  0.19200000000E+03 0.  0.
<mgrwt>
<rscale>  0 0.45878322E+03</rscale>
<asrwt>0</asrwt>
<pdfrwt beam="1">  1        2 0.16043232E+00 0.45878322E+03</pdfrwt>
<pdfrwt beam="2">  1       -2 0.66937136E-02 0.45878322E+03</pdfrwt>
<totfact> 0.31000162E+03</totfact>
</mgrwt>
</event>
<event>
 4    1  0.5621415E-005  0.9827706E+03  0.7818608E-02  0.9327646E-01
          2   -1    0    0  501    0  0.00000000000E+00  0.00000000000E+00  0.11033986442E+03  0.11033986445E+03  0.25500000000E-02 0.  1.
         -2   -1    0    0    0  501 -0.00000000000E+00 -0.00000000000E+00 -0.21883252861E+04  0.21883252861E+04  0.25500000000E-02 0. -1.
    5000001    1    1    2    0    0 -0.17329049465E+03  0.41733699991E+03 -0.10855227188E+04  0.11913955431E+04  0.19200000000E+03 0.  0.
   -5000001    1    1    2    0    0  0.17329049465E+03 -0.41733699991E+03 -0.99246270288E+03  0.11072696075E+04  0.19200000000E+03 0.  0.
<mgrwt>
<rscale>  0 0.98277060E+03</rscale>
<asrwt>0</asrwt>
<pdfrwt beam="1">  1        2 0.15762839E-01 0.98277060E+03</pdfrwt>
<pdfrwt beam="2">  1       -2 0.31261787E+00 0.98277060E+03</pdfrwt>
<totfact> 0.10246243E+01</totfact>
</mgrwt>
</event>
<event>
 4    1  0.5621415E-005  0.9119109E+03  0.7818608E-02  0.9410813E-01
         -2   -1    0    0    0  501 -0.00000000000E+00  0.00000000000E+00  0.11898683217E+03  0.11898683219E+03  0.25500000000E-02 0. -1.
          2   -1    0    0  501    0  0.00000000000E+00 -0.00000000000E+00 -0.17472132806E+04  0.17472132806E+04  0.25500000000E-02 0.  1.
    5000001    1    1    2    0    0  0.21941968850E+03  0.23138784030E+03 -0.13530237172E+04  0.14032898887E+04  0.19200000000E+03 0.  0.
   -5000001    1    1    2    0    0 -0.21941968850E+03 -0.23138784030E+03 -0.27520273129E+03  0.46291022418E+03  0.19200000000E+03 0.  0.
<mgrwt>
<rscale>  0 0.91191090E+03</rscale>
<asrwt>0</asrwt>
<pdfrwt beam="1">  1        2 0.24960188E+00 0.91191090E+03</pdfrwt>
<pdfrwt beam="2">  1       -2 0.16998120E-01 0.91191090E+03</pdfrwt>
<totfact> 0.30822162E+02</totfact>
</mgrwt>
</event>
<event>
 4    1  0.5621415E-005  0.6979522E+03  0.7818608E-02  0.9720741E-01
          2   -1    0    0  501    0  0.00000000000E+00  0.00000000000E+00  0.23803463080E+03  0.23803463081E+03  0.25500000000E-02 0.  1.
         -2   -1    0    0    0  501 -0.00000000000E+00 -0.00000000000E+00 -0.51162435051E+03  0.51162435052E+03  0.25500000000E-02 0. -1.
    5000001    1    1    2    0    0 -0.20003601604E+03 -0.21190311208E+03 -0.13864800937E+03  0.37550580172E+03  0.19200000000E+03 0.  0.
   -5000001    1    1    2    0    0  0.20003601604E+03  0.21190311208E+03 -0.13494171034E+03  0.37415317961E+03  0.19200000000E+03 0.  0.
<mgrwt>
<rscale>  0 0.69795219E+03</rscale>
<asrwt>0</asrwt>
<pdfrwt beam="1">  1        2 0.34004947E-01 0.69795219E+03</pdfrwt>
<pdfrwt beam="2">  1       -2 0.73089193E-01 0.69795219E+03</pdfrwt>
<totfact> 0.26365301E+02</totfact>
</mgrwt>
</event>
<event>
 4    1  0.5621415E-005  0.4139664E+03  0.7818608E-02  0.1039048E+00
         -2   -1    0    0    0  501 -0.00000000000E+00  0.00000000000E+00  0.23103595796E+02  0.23103595937E+02  0.25500000000E-02 0. -1.
          2   -1    0    0  501    0  0.00000000000E+00 -0.00000000000E+00 -0.18543449971E+04  0.18543449971E+04  0.25500000000E-02 0.  1.
    5000001    1    1    2    0    0  0.26391771564E+02  0.72659706387E+02 -0.90908161555E+03  0.93234614939E+03  0.19200000000E+03 0.  0.
   -5000001    1    1    2    0    0 -0.26391771564E+02 -0.72659706387E+02 -0.92215978570E+03  0.94510244360E+03  0.19200000000E+03 0.  0.
<mgrwt>
<rscale>  0 0.41396636E+03</rscale>
<asrwt>0</asrwt>
<pdfrwt beam="1">  1        2 0.26490633E+00 0.41396636E+03</pdfrwt>
<pdfrwt beam="2">  1       -2 0.33005149E-02 0.41396636E+03</pdfrwt>
<totfact> 0.38165822E+03</totfact>
</mgrwt>
</event>
<event>
 4    1  0.5621415E-005  0.6603479E+03  0.7818608E-02  0.9787554E-01
         -2   -1    0    0    0  501 -0.00000000000E+00  0.00000000000E+00  0.90261272911E+03  0.90261272911E+03  0.25500000000E-02 0. -1.
          2   -1    0    0  501    0  0.00000000000E+00 -0.00000000000E+00 -0.12077696071E+03  0.12077696074E+03  0.25500000000E-02 0.  1.
    5000001    1    1    2    0    0  0.80511580393E+02 -0.21458139376E+03  0.17381936231E+03  0.34583877723E+03  0.19200000000E+03 0.  0.
   -5000001    1    1    2    0    0 -0.80511580393E+02  0.21458139376E+03  0.60801640608E+03  0.67755091262E+03  0.19200000000E+03 0.  0.
<mgrwt>
<rscale>  0 0.66034785E+03</rscale>
<asrwt>0</asrwt>
<pdfrwt beam="1">  1        2 0.17253851E-01 0.66034785E+03</pdfrwt>
<pdfrwt beam="2">  1       -2 0.12894468E+00 0.66034785E+03</pdfrwt>
<totfact> 0.15203877E+02</totfact>
</mgrwt>
</event>
<event>
 4    1  0.5621415E-005  0.5313079E+03  0.7818608E-02  0.1005915E+00
         -2   -1    0    0    0  501 -0.00000000000E+00  0.00000000000E+00  0.23471153577E+03  0.23471153578E+03  0.25500000000E-02 0. -1.
          2   -1    0    0  501    0  0.00000000000E+00 -0.00000000000E+00 -0.30067555360E+03  0.30067555361E+03  0.25500000000E-02 0.  1.
    5000001    1    1    2    0    0 -0.10663616177E+03  0.10450340150E+03 -0.14064701977E+03  0.28095874447E+03  0.19200000000E+03 0.  0.
   -5000001    1    1    2    0    0  0.10663616177E+03 -0.10450340150E+03  0.74683001934E+02  0.25442834492E+03  0.19200000000E+03 0.  0.
<mgrwt>
<rscale>  0 0.53130790E+03</rscale>
<asrwt>0</asrwt>
<pdfrwt beam="1">  1        2 0.42953650E-01 0.53130790E+03</pdfrwt>
<pdfrwt beam="2">  1       -2 0.33530220E-01 0.53130790E+03</pdfrwt>
<totfact> 0.99075117E+02</totfact>
</mgrwt>
</event>
<event>
 4    1  0.5621415E-005  0.7936688E+03  0.7818608E-02  0.9569227E-01
         -2   -1    0    0    0  501 -0.00000000000E+00  0.00000000000E+00  0.12639386594E+04  0.12639386594E+04  0.25500000000E-02 0. -1.
          2   -1    0    0  501    0  0.00000000000E+00 -0.00000000000E+00 -0.12459271485E+03  0.12459271488E+03  0.25500000000E-02 0.  1.
    5000001    1    1    2    0    0 -0.29999344901E+03  0.50930410094E+02  0.86254515954E+03  0.93457911831E+03  0.19200000000E+03 0.  0.
   -5000001    1    1    2    0    0  0.29999344901E+03 -0.50930410094E+02  0.27680078500E+03  0.45395225597E+03  0.19200000000E+03 0.  0.
<mgrwt>
<rscale>  0 0.79366882E+03</rscale>
<asrwt>0</asrwt>
<pdfrwt beam="1">  1        2 0.17798960E-01 0.79366882E+03</pdfrwt>
<pdfrwt beam="2">  1       -2 0.18056266E+00 0.79366882E+03</pdfrwt>
<totfact> 0.59347346E+01</totfact>
</mgrwt>
</event>
<event>
 4    1  0.5621415E-005  0.5755605E+03  0.7818608E-02  0.9957449E-01
         -2   -1    0    0    0  501 -0.00000000000E+00  0.00000000000E+00  0.22340383841E+03  0.22340383842E+03  0.25500000000E-02 0. -1.
          2   -1    0    0  501    0  0.00000000000E+00 -0.00000000000E+00 -0.37070743691E+03  0.37070743692E+03  0.25500000000E-02 0.  1.
    5000001    1    1    2    0    0  0.12496273292E+03  0.17367103558E+03 -0.87351766827E+02  0.30045239953E+03  0.19200000000E+03 0.  0.
   -5000001    1    1    2    0    0 -0.12496273292E+03 -0.17367103558E+03 -0.59951831673E+02  0.29365887580E+03  0.19200000000E+03 0.  0.
<mgrwt>
<rscale>  0 0.57556047E+03</rscale>
<asrwt>0</asrwt>
<pdfrwt beam="1">  1        2 0.52958205E-01 0.57556047E+03</pdfrwt>
<pdfrwt beam="2">  1       -2 0.31914834E-01 0.57556047E+03</pdfrwt>
<totfact> 0.86250449E+02</totfact>
</mgrwt>
</event>
<event>
 4    1  0.5621415E-005  0.5370831E+03  0.7818608E-02  0.1004529E+00
          2   -1    0    0  501    0  0.00000000000E+00  0.00000000000E+00  0.19603845788E+04  0.19603845788E+04  0.25500000000E-02 0.  1.
         -2   -1    0    0    0  501 -0.00000000000E+00 -0.00000000000E+00 -0.36785925196E+02  0.36785925285E+02  0.25500000000E-02 0. -1.
    5000001    1    1    2    0    0  0.11912249212E+03  0.10282769622E+03  0.13425988068E+04  0.13653568249E+04  0.19200000000E+03 0.  0.
   -5000001    1    1    2    0    0 -0.11912249212E+03 -0.10282769622E+03  0.58099984678E+03  0.63181367918E+03  0.19200000000E+03 0.  0.
<mgrwt>
<rscale>  0 0.53708309E+03</rscale>
<asrwt>0</asrwt>
<pdfrwt beam="1">  1        2 0.28005493E+00 0.53708309E+03</pdfrwt>
<pdfrwt beam="2">  1       -2 0.52551324E-02 0.53708309E+03</pdfrwt>
<totfact> 0.16518340E+03</totfact>
</mgrwt>
</event>
<event>
 4    1  0.5621415E-005  0.4389017E+03  0.7818608E-02  0.1031084E+00
          2   -1    0    0  501    0  0.00000000000E+00  0.00000000000E+00  0.19198431734E+04  0.19198431734E+04  0.25500000000E-02 0.  1.
         -2   -1    0    0    0  501 -0.00000000000E+00 -0.00000000000E+00 -0.25084697606E+02  0.25084697736E+02  0.25500000000E-02 0. -1.
    5000001    1    1    2    0    0  0.42600029601E+02 -0.69701828531E+02  0.64612626401E+03  0.67898177918E+03  0.19200000000E+03 0.  0.
   -5000001    1    1    2    0    0 -0.42600029601E+02  0.69701828531E+02  0.12486322117E+04  0.12659460919E+04  0.19200000000E+03 0.  0.
<mgrwt>
<rscale>  0 0.43890175E+03</rscale>
<asrwt>0</asrwt>
<pdfrwt beam="1">  1        2 0.27426335E+00 0.43890175E+03</pdfrwt>
<pdfrwt beam="2">  1       -2 0.35835277E-02 0.43890175E+03</pdfrwt>
<totfact> 0.31247001E+03</totfact>
</mgrwt>
</event>
<event>
 4    1  0.5621415E-005  0.5582442E+03  0.7818608E-02  0.9996035E-01
          2   -1    0    0  501    0  0.00000000000E+00  0.00000000000E+00  0.11662022020E+03  0.11662022023E+03  0.25500000000E-02 0.  1.
         -2   -1    0    0    0  501 -0.00000000000E+00 -0.00000000000E+00 -0.66805872652E+03  0.66805872653E+03  0.25500000000E-02 0. -1.
    5000001    1    1    2    0    0 -0.20243229315E+03 -0.81354845973E+01 -0.27623835827E+03  0.39270427805E+03  0.19200000000E+03 0.  0.
   -5000001    1    1    2    0    0  0.20243229315E+03  0.81354845973E+01 -0.27520014805E+03  0.39197466870E+03  0.19200000000E+03 0.  0.
<mgrwt>
<rscale>  0 0.55824423E+03</rscale>
<asrwt>0</asrwt>
<pdfrwt beam="1">  1        2 0.16660032E-01 0.55824423E+03</pdfrwt>
<pdfrwt beam="2">  1       -2 0.95436959E-01 0.55824423E+03</pdfrwt>
<totfact> 0.32928099E+02</totfact>
</mgrwt>
</event>
<event>
 4    1  0.5621415E-005  0.7543581E+03  0.7818608E-02  0.9628538E-01
         -2   -1    0    0    0  501 -0.00000000000E+00  0.00000000000E+00  0.31641052721E+03  0.31641052722E+03  0.25500000000E-02 0. -1.
          2   -1    0    0  501    0  0.00000000000E+00 -0.00000000000E+00 -0.44961855105E+03  0.44961855105E+03  0.25500000000E-02 0.  1.
    5000001    1    1    2    0    0 -0.30737904471E+03 -0.10432658471E+03 -0.60671591803E+02  0.38198292561E+03  0.19200000000E+03 0.  0.
   -5000001    1    1    2    0    0  0.30737904471E+03  0.10432658471E+03 -0.72536432030E+02  0.38404615267E+03  0.19200000000E+03 0.  0.
<mgrwt>
<rscale>  0 0.75435812E+03</rscale>
<asrwt>0</asrwt>
<pdfrwt beam="1">  1        2 0.64231221E-01 0.75435812E+03</pdfrwt>
<pdfrwt beam="2">  1       -2 0.45201505E-01 0.75435812E+03</pdfrwt>
<totfact> 0.35417667E+02</totfact>
</mgrwt>
</event>
<event>
 4    1  0.5621415E-005  0.6418249E+03  0.7818608E-02  0.9822241E-01
         -2   -1    0    0    0  501 -0.00000000000E+00  0.00000000000E+00  0.54952260101E+02  0.54952260160E+02  0.25500000000E-02 0. -1.
          2   -1    0    0  501    0  0.00000000000E+00 -0.00000000000E+00 -0.18740778950E+04  0.18740778950E+04  0.25500000000E-02 0.  1.
    5000001    1    1    2    0    0  0.25624480431E+03  0.10373379040E+02 -0.85318917979E+03  0.91135327028E+03  0.19200000000E+03 0.  0.
   -5000001    1    1    2    0    0 -0.25624480431E+03 -0.10373379040E+02 -0.96593645513E+03  0.10176768849E+04  0.19200000000E+03 0.  0.
<mgrwt>
<rscale>  0 0.64182495E+03</rscale>
<asrwt>0</asrwt>
<pdfrwt beam="1">  1        2 0.26772537E+00 0.64182495E+03</pdfrwt>
<pdfrwt beam="2">  1       -2 0.78503241E-02 0.64182495E+03</pdfrwt>
<totfact> 0.96624644E+02</totfact>
</mgrwt>
</event>
<event>
 4    1  0.5621415E-005  0.4174251E+03  0.7818608E-02  0.1037908E+00
         -2   -1    0    0    0  501 -0.00000000000E+00  0.00000000000E+00  0.77978159792E+02  0.77978159834E+02  0.25500000000E-02 0. -1.
          2   -1    0    0  501    0  0.00000000000E+00 -0.00000000000E+00 -0.55862997895E+03  0.55862997895E+03  0.25500000000E-02 0.  1.
    5000001    1    1    2    0    0  0.17171997347E+02 -0.71494574445E+02 -0.29511411482E+03  0.35967025514E+03  0.19200000000E+03 0.  0.
   -5000001    1    1    2    0    0 -0.17171997347E+02  0.71494574445E+02 -0.18553770434E+03  0.27693788365E+03  0.19200000000E+03 0.  0.
<mgrwt>
<rscale>  0 0.41742514E+03</rscale>
<asrwt>0</asrwt>
<pdfrwt beam="1">  1        2 0.79804280E-01 0.41742514E+03</pdfrwt>
<pdfrwt beam="2">  1       -2 0.11139738E-01 0.41742514E+03</pdfrwt>
<totfact> 0.33546236E+03</totfact>
</mgrwt>
</event>
<event>
 4    1  0.5621415E-005  0.4570613E+03  0.7818608E-02  0.1025637E+00
         -2   -1    0    0    0  501 -0.00000000000E+00  0.00000000000E+00  0.94894862863E+02  0.94894862898E+02  0.25500000000E-02 0. -1.
          2   -1    0    0  501    0  0.00000000000E+00 -0.00000000000E+00 -0.55035921110E+03  0.55035921110E+03  0.25500000000E-02 0.  1.
    5000001    1    1    2    0    0 -0.73833870304E+02 -0.87238073526E+02 -0.29544209466E+03  0.37042131846E+03  0.19200000000E+03 0.  0.
   -5000001    1    1    2    0    0  0.73833870304E+02  0.87238073526E+02 -0.16002225358E+03  0.27483275554E+03  0.19200000000E+03 0.  0.
<mgrwt>
<rscale>  0 0.45706132E+03</rscale>
<asrwt>0</asrwt>
<pdfrwt beam="1">  1        2 0.78622743E-01 0.45706132E+03</pdfrwt>
<pdfrwt beam="2">  1       -2 0.13556409E-01 0.45706132E+03</pdfrwt>
<totfact> 0.24766265E+03</totfact>
</mgrwt>
</event>
<event>
 4    1  0.5621415E-005  0.7015357E+03  0.7818608E-02  0.9714610E-01
          2   -1    0    0  501    0  0.00000000000E+00  0.00000000000E+00  0.11237209159E+04  0.11237209159E+04  0.25500000000E-02 0.  1.
         -2   -1    0    0    0  501 -0.00000000000E+00 -0.00000000000E+00 -0.10949166728E+03  0.10949166731E+03  0.25500000000E-02 0. -1.
    5000001    1    1    2    0    0 -0.18549468956E+03  0.16147852549E+03  0.78887136595E+03  0.84833108281E+03  0.19200000000E+03 0.  0.
   -5000001    1    1    2    0    0  0.18549468956E+03 -0.16147852549E+03  0.22535788263E+03  0.38488150035E+03  0.19200000000E+03 0.  0.
<mgrwt>
<rscale>  0 0.70153568E+03</rscale>
<asrwt>0</asrwt>
<pdfrwt beam="1">  1        2 0.16053156E+00 0.70153568E+03</pdfrwt>
<pdfrwt beam="2">  1       -2 0.15641667E-01 0.70153568E+03</pdfrwt>
<totfact> 0.77622400E+02</totfact>
</mgrwt>
</event>
<event>
 4    1  0.5621415E-005  0.7093786E+03  0.7818608E-02  0.9701327E-01
          2   -1    0    0  501    0  0.00000000000E+00  0.00000000000E+00  0.93611045324E+03  0.93611045324E+03  0.25500000000E-02 0.  1.
         -2   -1    0    0    0  501 -0.00000000000E+00 -0.00000000000E+00 -0.13439064652E+03  0.13439064655E+03  0.25500000000E-02 0. -1.
    5000001    1    1    2    0    0  0.14114531874E+03 -0.26158313406E+03  0.43760044650E+03  0.56276628169E+03  0.19200000000E+03 0.  0.
   -5000001    1    1    2    0    0 -0.14114531874E+03  0.26158313406E+03  0.36411936021E+03  0.50773481810E+03  0.19200000000E+03 0.  0.
<mgrwt>
<rscale>  0 0.70937857E+03</rscale>
<asrwt>0</asrwt>
<pdfrwt beam="1">  1        2 0.13373006E+00 0.70937857E+03</pdfrwt>
<pdfrwt beam="2">  1       -2 0.19198665E-01 0.70937857E+03</pdfrwt>
<totfact> 0.70896872E+02</totfact>
</mgrwt>
</event>
<event>
 4    1  0.5621415E-005  0.4448818E+03  0.7818608E-02  0.1029259E+00
         -2   -1    0    0    0  501 -0.00000000000E+00  0.00000000000E+00  0.17651082037E+02  0.17651082221E+02  0.25500000000E-02 0. -1.
          2   -1    0    0  501    0  0.00000000000E+00 -0.00000000000E+00 -0.28032246052E+04  0.28032246052E+04  0.25500000000E-02 0.  1.
    5000001    1    1    2    0    0 -0.11081767915E+03  0.26888247186E+00 -0.15088961663E+04  0.15250941843E+04  0.19200000000E+03 0.  0.
   -5000001    1    1    2    0    0  0.11081767915E+03 -0.26888247186E+00 -0.12766773569E+04  0.12957815032E+04  0.19200000000E+03 0.  0.
<mgrwt>
<rscale>  0 0.44488177E+03</rscale>
<asrwt>0</asrwt>
<pdfrwt beam="1">  1        2 0.40046038E+00 0.44488177E+03</pdfrwt>
<pdfrwt beam="2">  1       -2 0.25215849E-02 0.44488177E+03</pdfrwt>
<totfact> 0.18997630E+03</totfact>
</mgrwt>
</event>
<event>
 4    1  0.5621415E-005  0.5302083E+03  0.7818608E-02  0.1006182E+00
         -2   -1    0    0    0  501 -0.00000000000E+00  0.00000000000E+00  0.69624281436E+02  0.69624281483E+02  0.25500000000E-02 0. -1.
          2   -1    0    0  501    0  0.00000000000E+00 -0.00000000000E+00 -0.10094211535E+04  0.10094211535E+04  0.25500000000E-02 0.  1.
    5000001    1    1    2    0    0 -0.11235980923E+02 -0.16336056472E+03 -0.30452196373E+03  0.39548773403E+03  0.19200000000E+03 0.  0.
   -5000001    1    1    2    0    0  0.11235980923E+02  0.16336056472E+03 -0.63527490829E+03  0.68355770092E+03  0.19200000000E+03 0.  0.
<mgrwt>
<rscale>  0 0.53020835E+03</rscale>
<asrwt>0</asrwt>
<pdfrwt beam="1">  1        2 0.14420301E+00 0.53020835E+03</pdfrwt>
<pdfrwt beam="2">  1       -2 0.99463265E-02 0.53020835E+03</pdfrwt>
<totfact> 0.19253074E+03</totfact>
</mgrwt>
</event>
<event>
 4    1  0.5621415E-005  0.8535676E+03  0.7818608E-02  0.9485561E-01
         -2   -1    0    0    0  501 -0.00000000000E+00  0.00000000000E+00  0.18093805941E+03  0.18093805943E+03  0.25500000000E-02 0. -1.
          2   -1    0    0  501    0  0.00000000000E+00 -0.00000000000E+00 -0.10066671388E+04  0.10066671388E+04  0.25500000000E-02 0.  1.
    5000001    1    1    2    0    0  0.20526154581E+03  0.25039759392E+03 -0.69269103782E+03  0.78836294376E+03  0.19200000000E+03 0.  0.
   -5000001    1    1    2    0    0 -0.20526154581E+03 -0.25039759392E+03 -0.13303804154E+03  0.39924225443E+03  0.19200000000E+03 0.  0.
<mgrwt>
<rscale>  0 0.85356757E+03</rscale>
<asrwt>0</asrwt>
<pdfrwt beam="1">  1        2 0.14380959E+00 0.85356757E+03</pdfrwt>
<pdfrwt beam="2">  1       -2 0.25848295E-01 0.85356757E+03</pdfrwt>
<totfact> 0.37573116E+02</totfact>
</mgrwt>
</event>
<event>
 4    1  0.5621415E-005  0.5643135E+03  0.7818608E-02  0.9982342E-01
         -2   -1    0    0    0  501 -0.00000000000E+00  0.00000000000E+00  0.10894098612E+03  0.10894098615E+03  0.25500000000E-02 0. -1.
          2   -1    0    0  501    0  0.00000000000E+00 -0.00000000000E+00 -0.73078481178E+03  0.73078481178E+03  0.25500000000E-02 0.  1.
    5000001    1    1    2    0    0  0.13128250376E+03  0.11007268864E+03 -0.13868503407E+03  0.29231597844E+03  0.19200000000E+03 0.  0.
   -5000001    1    1    2    0    0 -0.13128250376E+03 -0.11007268864E+03 -0.48315879159E+03  0.54740981949E+03  0.19200000000E+03 0.  0.
<mgrwt>
<rscale>  0 0.56431345E+03</rscale>
<asrwt>0</asrwt>
<pdfrwt beam="1">  1        2 0.10439783E+00 0.56431345E+03</pdfrwt>
<pdfrwt beam="2">  1       -2 0.15562998E-01 0.56431345E+03</pdfrwt>
<totfact> 0.14050195E+03</totfact>
</mgrwt>
</event>
<event>
 4    1  0.5621415E-005  0.7605850E+03  0.7818608E-02  0.9618889E-01
         -2   -1    0    0    0  501 -0.00000000000E+00  0.00000000000E+00  0.17085674378E+03  0.17085674380E+03  0.25500000000E-02 0.  1.
          2   -1    0    0  501    0  0.00000000000E+00 -0.00000000000E+00 -0.84645411686E+03  0.84645411687E+03  0.25500000000E-02 0. -1.
    5000001    1    1    2    0    0 -0.20345873941E+03 -0.21610055001E+03 -0.15024042931E+03  0.38409776484E+03  0.19200000000E+03 0.  0.
   -5000001    1    1    2    0    0  0.20345873941E+03  0.21610055001E+03 -0.52535694378E+03  0.63321309583E+03  0.19200000000E+03 0.  0.
<mgrwt>
<rscale>  0 0.76058502E+03</rscale>
<asrwt>0</asrwt>
<pdfrwt beam="1">  1        2 0.12092201E+00 0.76058502E+03</pdfrwt>
<pdfrwt beam="2">  1       -2 0.24408107E-01 0.76058502E+03</pdfrwt>
<totfact> 0.53004476E+02</totfact>
</mgrwt>
</event>
<event>
 4    1  0.5621415E-005  0.7205346E+03  0.7818608E-02  0.9682746E-01
         -2   -1    0    0    0  501 -0.00000000000E+00  0.00000000000E+00  0.97078024631E+02  0.97078024665E+02  0.25500000000E-02 0. -1.
          2   -1    0    0  501    0  0.00000000000E+00 -0.00000000000E+00 -0.13369918413E+04  0.13369918413E+04  0.25500000000E-02 0.  1.
    5000001    1    1    2    0    0 -0.89020531167E+02  0.28623456524E+03 -0.50961452329E+03  0.62163159802E+03  0.19200000000E+03 0.  0.
   -5000001    1    1    2    0    0  0.89020531167E+02 -0.28623456524E+03 -0.73029929335E+03  0.81243826792E+03  0.19200000000E+03 0.  0.
<mgrwt>
<rscale>  0 0.72053460E+03</rscale>
<asrwt>0</asrwt>
<pdfrwt beam="1">  1        2 0.19099882E+00 0.72053460E+03</pdfrwt>
<pdfrwt beam="2">  1       -2 0.13868290E-01 0.72053460E+03</pdfrwt>
<totfact> 0.72198558E+02</totfact>
</mgrwt>
</event>
<event>
 4    1  0.5621415E-005  0.5739051E+03  0.7818608E-02  0.9961074E-01
          2   -1    0    0  501    0  0.00000000000E+00  0.00000000000E+00  0.26093741850E+04  0.26093741850E+04  0.25500000000E-02 0.  1.
         -2   -1    0    0    0  501 -0.00000000000E+00 -0.00000000000E+00 -0.31556133466E+02  0.31556133569E+02  0.25500000000E-02 0. -1.
    5000001    1    1    2    0    0 -0.26740054052E+02  0.17271412011E+03  0.72658836228E+03  0.77158268901E+03  0.19200000000E+03 0.  0.
   -5000001    1    1    2    0    0  0.26740054052E+02 -0.17271412011E+03  0.18512296892E+04  0.18693476295E+04  0.19200000000E+03 0.  0.
<mgrwt>
<rscale>  0 0.57390508E+03</rscale>
<asrwt>0</asrwt>
<pdfrwt beam="1">  1        2 0.37276777E+00 0.57390508E+03</pdfrwt>
<pdfrwt beam="2">  1       -2 0.45080187E-02 0.57390508E+03</pdfrwt>
<totfact> 0.98101308E+02</totfact>
</mgrwt>
</event>
<event>
 4    1  0.5621415E-005  0.5449422E+03  0.7818608E-02  0.1002671E+00
          2   -1    0    0  501    0  0.00000000000E+00  0.00000000000E+00  0.30130938184E+04  0.30130938184E+04  0.25500000000E-02 0.  1.
         -2   -1    0    0    0  501 -0.00000000000E+00 -0.00000000000E+00 -0.24639295304E+02  0.24639295435E+02  0.25500000000E-02 0. -1.
    5000001    1    1    2    0    0  0.11742078384E+02 -0.18800395649E+03  0.17367715398E+04  0.17574762432E+04  0.19200000000E+03 0.  0.
   -5000001    1    1    2    0    0 -0.11742078384E+02  0.18800395649E+03  0.12516829834E+04  0.12802568707E+04  0.19200000000E+03 0.  0.
<mgrwt>
<rscale>  0 0.54494223E+03</rscale>
<asrwt>0</asrwt>
<pdfrwt beam="1">  1        2 0.43044170E+00 0.54494223E+03</pdfrwt>
<pdfrwt beam="2">  1       -2 0.35199016E-02 0.54494223E+03</pdfrwt>
<totfact> 0.87855200E+02</totfact>
</mgrwt>
</event>
<event>
 4    1  0.5621415E-005  0.9039877E+03  0.7818608E-02  0.9420610E-01
         -2   -1    0    0    0  501 -0.00000000000E+00  0.00000000000E+00  0.41679703390E+03  0.41679703390E+03  0.25500000000E-02 0. -1.
          2   -1    0    0  501    0  0.00000000000E+00 -0.00000000000E+00 -0.49016294783E+03  0.49016294784E+03  0.25500000000E-02 0.  1.
    5000001    1    1    2    0    0 -0.34550434382E+03  0.14227466759E+03 -0.20402202772E+03  0.46701640274E+03  0.19200000000E+03 0.  0.
   -5000001    1    1    2    0    0  0.34550434382E+03 -0.14227466759E+03  0.13065611379E+03  0.43994357900E+03  0.19200000000E+03 0.  0.
<mgrwt>
<rscale>  0 0.90398775E+03</rscale>
<asrwt>0</asrwt>
<pdfrwt beam="1">  1        2 0.70023278E-01 0.90398775E+03</pdfrwt>
<pdfrwt beam="2">  1       -2 0.59542434E-01 0.90398775E+03</pdfrwt>
<totfact> 0.18142324E+02</totfact>
</mgrwt>
</event>
<event>
 4    1  0.5621415E-005  0.5315858E+03  0.7818608E-02  0.1005848E+00
         -2   -1    0    0    0  501 -0.00000000000E+00  0.00000000000E+00  0.36233224419E+02  0.36233224509E+02  0.25500000000E-02 0. -1.
          2   -1    0    0  501    0  0.00000000000E+00 -0.00000000000E+00 -0.19497536300E+04  0.19497536300E+04  0.25500000000E-02 0.  1.
    5000001    1    1    2    0    0 -0.11651795032E+03 -0.14035533329E+03 -0.87273760259E+03  0.91203671818E+03  0.19200000000E+03 0.  0.
   -5000001    1    1    2    0    0  0.11651795032E+03  0.14035533329E+03 -0.10407828030E+04  0.10739501364E+04  0.19200000000E+03 0.  0.
<mgrwt>
<rscale>  0 0.53158578E+03</rscale>
<asrwt>0</asrwt>
<pdfrwt beam="1">  1        2 0.27853617E+00 0.53158578E+03</pdfrwt>
<pdfrwt beam="2">  1       -2 0.51761761E-02 0.53158578E+03</pdfrwt>
<totfact> 0.17123261E+03</totfact>
</mgrwt>
</event>
<event>
 4    1  0.5621415E-005  0.4375559E+03  0.7818608E-02  0.1031499E+00
          2   -1    0    0  501    0  0.00000000000E+00  0.00000000000E+00  0.18986089297E+04  0.18986089297E+04  0.25500000000E-02 0.  1.
         -2   -1    0    0    0  501 -0.00000000000E+00 -0.00000000000E+00 -0.25209930317E+02  0.25209930446E+02  0.25500000000E-02 0. -1.
    5000001    1    1    2    0    0  0.58337952930E+02  0.56817014149E+02  0.64610507348E+03  0.67893096544E+03  0.19200000000E+03 0.  0.
   -5000001    1    1    2    0    0 -0.58337952930E+02 -0.56817014149E+02  0.12272939259E+04  0.12448878948E+04  0.19200000000E+03 0.  0.
<mgrwt>
<rscale>  0 0.43755593E+03</rscale>
<asrwt>0</asrwt>
<pdfrwt beam="1">  1        2 0.27122982E+00 0.43755593E+03</pdfrwt>
<pdfrwt beam="2">  1       -2 0.36014190E-02 0.43755593E+03</pdfrwt>
<totfact> 0.31775600E+03</totfact>
</mgrwt>
</event>
<event>
 4    1  0.5621415E-005  0.5759377E+03  0.7818608E-02  0.9956625E-01
         -2   -1    0    0    0  501 -0.00000000000E+00  0.00000000000E+00  0.56356185287E+02  0.56356185344E+02  0.25500000000E-02 0. -1.
          2   -1    0    0  501    0  0.00000000000E+00 -0.00000000000E+00 -0.14714631307E+04  0.14714631307E+04  0.25500000000E-02 0.  1.
    5000001    1    1    2    0    0 -0.19257913019E+03  0.75351952695E+02 -0.55522431632E+03  0.62281833595E+03  0.19200000000E+03 0.  0.
   -5000001    1    1    2    0    0  0.19257913019E+03 -0.75351952695E+02 -0.85988262907E+03  0.90500098008E+03  0.19200000000E+03 0.  0.
<mgrwt>
<rscale>  0 0.57593767E+03</rscale>
<asrwt>0</asrwt>
<pdfrwt beam="1">  1        2 0.21020900E+00 0.57593767E+03</pdfrwt>
<pdfrwt beam="2">  1       -2 0.80508845E-02 0.57593767E+03</pdfrwt>
<totfact> 0.14953314E+03</totfact>
</mgrwt>
</event>
<event>
 4    1  0.5621415E-005  0.5328154E+03  0.7818608E-02  0.1005552E+00
          2   -1    0    0  501    0  0.00000000000E+00  0.00000000000E+00  0.99752897384E+03  0.99752897384E+03  0.25500000000E-02 0. -1.
         -2   -1    0    0    0  501 -0.00000000000E+00 -0.00000000000E+00 -0.71148872941E+02  0.71148872987E+02  0.25500000000E-02 0.  1.
    5000001    1    1    2    0    0 -0.36478825613E+02  0.14979180099E+03  0.66715078150E+03  0.71114165510E+03  0.19200000000E+03 0.  0.
   -5000001    1    1    2    0    0  0.36478825613E+02 -0.14979180099E+03  0.25922931940E+03  0.35753619173E+03  0.19200000000E+03 0.  0.
<mgrwt>
<rscale>  0 0.53281540E+03</rscale>
<asrwt>0</asrwt>
<pdfrwt beam="1">  1        2 0.14250413E+00 0.53281540E+03</pdfrwt>
<pdfrwt beam="2">  1       -2 0.10164125E-01 0.53281540E+03</pdfrwt>
<totfact> 0.18900702E+03</totfact>
</mgrwt>
</event>
<event>
 4    1  0.5621415E-005  0.5596052E+03  0.7818608E-02  0.9992948E-01
          2   -1    0    0  501    0  0.00000000000E+00  0.00000000000E+00  0.20631499231E+03  0.20631499233E+03  0.25500000000E-02 0.  1.
         -2   -1    0    0    0  501 -0.00000000000E+00 -0.00000000000E+00 -0.37946581647E+03  0.37946581648E+03  0.25500000000E-02 0. -1.
    5000001    1    1    2    0    0 -0.82173441846E+02  0.18348430660E+03 -0.53365709054E+02  0.28307395538E+03  0.19200000000E+03 0.  0.
   -5000001    1    1    2    0    0  0.82173441846E+02 -0.18348430660E+03 -0.11978511511E+03  0.30270685343E+03  0.19200000000E+03 0.  0.
<mgrwt>
<rscale>  0 0.55960517E+03</rscale>
<asrwt>0</asrwt>
<pdfrwt beam="1">  1        2 0.29473571E-01 0.55960517E+03</pdfrwt>
<pdfrwt beam="2">  1       -2 0.54209402E-01 0.55960517E+03</pdfrwt>
<totfact> 0.58594221E+02</totfact>
</mgrwt>
</event>
<event>
 4    1  0.5621415E-005  0.1008434E+04  0.7818608E-02  0.9299342E-01
         -2   -1    0    0    0  501 -0.00000000000E+00  0.00000000000E+00  0.29432613582E+03  0.29432613583E+03  0.25500000000E-02 0. -1.
          2   -1    0    0  501    0  0.00000000000E+00 -0.00000000000E+00 -0.86378655098E+03  0.86378655099E+03  0.25500000000E-02 0.  1.
    5000001    1    1    2    0    0  0.14746834598E+02 -0.46559987900E+03 -0.26263258207E+03  0.56819062789E+03  0.19200000000E+03 0.  0.
   -5000001    1    1    2    0    0 -0.14746834598E+02  0.46559987900E+03 -0.30682783309E+03  0.58992205893E+03  0.19200000000E+03 0.  0.
<mgrwt>
<rscale>  0 0.10084343E+04</rscale>
<asrwt>0</asrwt>
<pdfrwt beam="1">  1        2 0.12339808E+00 0.10084343E+04</pdfrwt>
<pdfrwt beam="2">  1       -2 0.42046591E-01 0.10084343E+04</pdfrwt>
<totfact> 0.18362082E+02</totfact>
</mgrwt>
</event>
<event>
 4    1  0.5621415E-005  0.5161961E+03  0.7818608E-02  0.1009636E+00
          2   -1    0    0  501    0  0.00000000000E+00  0.00000000000E+00  0.46765764676E+03  0.46765764677E+03  0.25500000000E-02 0.  1.
         -2   -1    0    0    0  501 -0.00000000000E+00 -0.00000000000E+00 -0.14244309635E+03  0.14244309637E+03  0.25500000000E-02 0. -1.
    5000001    1    1    2    0    0  0.22949214465E+01  0.16798293937E+03  0.20879388847E+03  0.32967017221E+03  0.19200000000E+03 0.  0.
   -5000001    1    1    2    0    0 -0.22949214465E+01 -0.16798293937E+03  0.11642066195E+03  0.28043057093E+03  0.19200000000E+03 0.  0.
<mgrwt>
<rscale>  0 0.51619610E+03</rscale>
<asrwt>0</asrwt>
<pdfrwt beam="1">  1        2 0.66808236E-01 0.51619610E+03</pdfrwt>
<pdfrwt beam="2">  1       -2 0.20349014E-01 0.51619610E+03</pdfrwt>
<totfact> 0.14969151E+03</totfact>
</mgrwt>
</event>
<event>
 4    1  0.5621415E-005  0.7209984E+03  0.7818608E-02  0.9681981E-01
          2   -1    0    0  501    0  0.00000000000E+00  0.00000000000E+00  0.10841577284E+04  0.10841577284E+04  0.25500000000E-02 0. -1.
         -2   -1    0    0    0  501 -0.00000000000E+00 -0.00000000000E+00 -0.11987156049E+03  0.11987156052E+03  0.25500000000E-02 0.  1.
    5000001    1    1    2    0    0 -0.27131286965E+03  0.19490832799E+02  0.71296526802E+03  0.78687612698E+03  0.19200000000E+03 0.  0.
   -5000001    1    1    2    0    0  0.27131286965E+03 -0.19490832799E+02  0.25132089988E+03  0.41715316195E+03  0.19200000000E+03 0.  0.
<mgrwt>
<rscale>  0 0.72099842E+03</rscale>
<asrwt>0</asrwt>
<pdfrwt beam="1">  1        2 0.15487968E+00 0.72099842E+03</pdfrwt>
<pdfrwt beam="2">  1       -2 0.17124508E-01 0.72099842E+03</pdfrwt>
<totfact> 0.70102793E+02</totfact>
</mgrwt>
</event>
<event>
 4    1  0.5621415E-005  0.5898556E+03  0.7818608E-02  0.9926679E-01
         -2   -1    0    0    0  501 -0.00000000000E+00  0.00000000000E+00  0.46100099229E+02  0.46100099299E+02  0.25500000000E-02 0. -1.
          2   -1    0    0  501    0  0.00000000000E+00 -0.00000000000E+00 -0.18868162681E+04  0.18868162681E+04  0.25500000000E-02 0.  1.
    5000001    1    1    2    0    0 -0.13868603932E+03  0.48989304635E+02 -0.36729743605E+03  0.43977855337E+03  0.19200000000E+03 0.  0.
   -5000001    1    1    2    0    0  0.13868603932E+03 -0.48989304635E+02 -0.14734187328E+04  0.14931378140E+04  0.19200000000E+03 0.  0.
<mgrwt>
<rscale>  0 0.58985563E+03</rscale>
<asrwt>0</asrwt>
<pdfrwt beam="1">  1        2 0.26954513E+00 0.58985563E+03</pdfrwt>
<pdfrwt beam="2">  1       -2 0.65857296E-02 0.58985563E+03</pdfrwt>
<totfact> 0.12607936E+03</totfact>
</mgrwt>
</event>
<event>
 4    1  0.5621415E-005  0.1139229E+04  0.7818608E-02  0.9167778E-01
          2   -1    0    0  501    0  0.00000000000E+00  0.00000000000E+00  0.44684225068E+03  0.44684225069E+03  0.25500000000E-02 0. -1.
         -2   -1    0    0    0  501 -0.00000000000E+00 -0.00000000000E+00 -0.72611874961E+03  0.72611874962E+03  0.25500000000E-02 0.  1.
    5000001    1    1    2    0    0 -0.29701142762E+03 -0.44629366342E+03 -0.15429759961E+03  0.58997082249E+03  0.19200000000E+03 0.  0.
   -5000001    1    1    2    0    0  0.29701142762E+03  0.44629366342E+03 -0.12497889932E+03  0.58299017781E+03  0.19200000000E+03 0.  0.
<mgrwt>
<rscale>  0 0.11392288E+04</rscale>
<asrwt>0</asrwt>
<pdfrwt beam="1">  1        2 0.63834607E-01 0.11392288E+04</pdfrwt>
<pdfrwt beam="2">  1       -2 0.10373125E+00 0.11392288E+04</pdfrwt>
<totfact> 0.57278328E+01</totfact>
</mgrwt>
</event>
<event>
 4    1  0.5621415E-005  0.6061757E+03  0.7818608E-02  0.9892676E-01
         -2   -1    0    0    0  501 -0.00000000000E+00  0.00000000000E+00  0.19405474784E+03  0.19405474786E+03  0.25500000000E-02 0. -1.
          2   -1    0    0  501    0  0.00000000000E+00 -0.00000000000E+00 -0.47338309734E+03  0.47338309734E+03  0.25500000000E-02 0.  1.
    5000001    1    1    2    0    0 -0.23414122020E+03  0.13111718147E+02 -0.13740513129E+03  0.33277349392E+03  0.19200000000E+03 0.  0.
   -5000001    1    1    2    0    0  0.23414122020E+03 -0.13111718147E+02 -0.14192321821E+03  0.33466435128E+03  0.19200000000E+03 0.  0.
<mgrwt>
<rscale>  0 0.60617568E+03</rscale>
<asrwt>0</asrwt>
<pdfrwt beam="1">  1        2 0.67626157E-01 0.60617568E+03</pdfrwt>
<pdfrwt beam="2">  1       -2 0.27722107E-01 0.60617568E+03</pdfrwt>
<totfact> 0.85101131E+02</totfact>
</mgrwt>
</event>
<event>
 4    1  0.5621415E-005  0.8767712E+03  0.7818608E-02  0.9455094E-01
          2   -1    0    0  501    0  0.00000000000E+00  0.00000000000E+00  0.11148898608E+04  0.11148898608E+04  0.25500000000E-02 0.  1.
         -2   -1    0    0    0  501 -0.00000000000E+00 -0.00000000000E+00 -0.17237750597E+03  0.17237750599E+03  0.25500000000E-02 0. -1.
    5000001    1    1    2    0    0 -0.30623913175E+03  0.24666806672E+03  0.50983336643E+03  0.67187915765E+03  0.19200000000E+03 0.  0.
   -5000001    1    1    2    0    0  0.30623913175E+03 -0.24666806672E+03  0.43267898841E+03  0.61538820916E+03  0.19200000000E+03 0.  0.
<mgrwt>
<rscale>  0 0.87677120E+03</rscale>
<asrwt>0</asrwt>
<pdfrwt beam="1">  1        2 0.15926998E+00 0.87677120E+03</pdfrwt>
<pdfrwt beam="2">  1       -2 0.24625358E-01 0.87677120E+03</pdfrwt>
<totfact> 0.35290314E+02</totfact>
</mgrwt>
</event>
<event>
 4    1  0.5621415E-005  0.8629845E+03  0.7818608E-02  0.9473073E-01
         -2   -1    0    0    0  501 -0.00000000000E+00  0.00000000000E+00  0.23540428197E+03  0.23540428199E+03  0.25500000000E-02 0. -1.
          2   -1    0    0  501    0  0.00000000000E+00 -0.00000000000E+00 -0.79091832529E+03  0.79091832530E+03  0.25500000000E-02 0.  1.
    5000001    1    1    2    0    0  0.16665532889E+03 -0.23300398187E+03  0.30667357355E+02  0.34622152016E+03  0.19200000000E+03 0.  0.
   -5000001    1    1    2    0    0 -0.16665532889E+03  0.23300398187E+03 -0.58618140067E+03  0.68010108713E+03  0.19200000000E+03 0.  0.
<mgrwt>
<rscale>  0 0.86298450E+03</rscale>
<asrwt>0</asrwt>
<pdfrwt beam="1">  1        2 0.11298833E+00 0.86298450E+03</pdfrwt>
<pdfrwt beam="2">  1       -2 0.33629183E-01 0.86298450E+03</pdfrwt>
<totfact> 0.31943012E+02</totfact>
</mgrwt>
</event>
<event>
 4    1  0.5621415E-005  0.1256270E+04  0.7818608E-02  0.9064981E-01
         -2   -1    0    0    0  501 -0.00000000000E+00  0.00000000000E+00  0.49812900656E+03  0.49812900657E+03  0.25500000000E-02 0. -1.
          2   -1    0    0  501    0  0.00000000000E+00 -0.00000000000E+00 -0.79207098781E+03  0.79207098782E+03  0.25500000000E-02 0.  1.
    5000001    1    1    2    0    0  0.36499595100E+03 -0.47356465620E+03 -0.13230214228E+03  0.64175804218E+03  0.19200000000E+03 0.  0.
   -5000001    1    1    2    0    0 -0.36499595100E+03  0.47356465620E+03 -0.16163983897E+03  0.64844195221E+03  0.19200000000E+03 0.  0.
<mgrwt>
<rscale>  0 0.12562699E+04</rscale>
<asrwt>0</asrwt>
<pdfrwt beam="1">  1        2 0.11315300E+00 0.12562699E+04</pdfrwt>
<pdfrwt beam="2">  1       -2 0.71161287E-01 0.12562699E+04</pdfrwt>
<totfact> 0.67962184E+01</totfact>
</mgrwt>
</event>
<event>
 4    1  0.5621415E-005  0.5576479E+03  0.7818608E-02  0.9997391E-01
          2   -1    0    0  501    0  0.00000000000E+00  0.00000000000E+00  0.21579595170E+03  0.21579595171E+03  0.25500000000E-02 0.  1.
         -2   -1    0    0    0  501 -0.00000000000E+00 -0.00000000000E+00 -0.36026063859E+03  0.36026063860E+03  0.25500000000E-02 0. -1.
    5000001    1    1    2    0    0  0.79410158287E+02 -0.11648581825E+03 -0.22194369912E+03  0.32557322474E+03  0.19200000000E+03 0.  0.
   -5000001    1    1    2    0    0 -0.79410158287E+02  0.11648581825E+03  0.77479012225E+02  0.25048336557E+03  0.19200000000E+03 0.  0.
<mgrwt>
<rscale>  0 0.55764787E+03</rscale>
<asrwt>0</asrwt>
<pdfrwt beam="1">  1        2 0.30827993E-01 0.55764787E+03</pdfrwt>
<pdfrwt beam="2">  1       -2 0.51465805E-01 0.55764787E+03</pdfrwt>
<totfact> 0.61963332E+02</totfact>
</mgrwt>
</event>
<event>
 4    1  0.5621415E-005  0.6305951E+03  0.7818608E-02  0.9843888E-01
         -2   -1    0    0    0  501 -0.00000000000E+00  0.00000000000E+00  0.36385964069E+02  0.36385964158E+02  0.25500000000E-02 0. -1.
          2   -1    0    0  501    0  0.00000000000E+00 -0.00000000000E+00 -0.27321675321E+04  0.27321675321E+04  0.25500000000E-02 0.  1.
    5000001    1    1    2    0    0 -0.59710419332E+02  0.24278931569E+03 -0.13744385460E+04  0.14101266974E+04  0.19200000000E+03 0.  0.
   -5000001    1    1    2    0    0  0.59710419332E+02 -0.24278931569E+03 -0.13213430220E+04  0.13584267988E+04  0.19200000000E+03 0.  0.
<mgrwt>
<rscale>  0 0.63059512E+03</rscale>
<asrwt>0</asrwt>
<pdfrwt beam="1">  1        2 0.39030952E+00 0.63059512E+03</pdfrwt>
<pdfrwt beam="2">  1       -2 0.51979966E-02 0.63059512E+03</pdfrwt>
<totfact> 0.67576323E+02</totfact>
</mgrwt>
</event>
<event>
 4    1  0.5621415E-005  0.5550674E+03  0.7818608E-02  0.1000328E+00
         -2   -1    0    0    0  501 -0.00000000000E+00  0.00000000000E+00  0.49803248586E+02  0.49803248652E+02  0.25500000000E-02 0. -1.
          2   -1    0    0  501    0  0.00000000000E+00 -0.00000000000E+00 -0.15465849770E+04  0.15465849770E+04  0.25500000000E-02 0.  1.
    5000001    1    1    2    0    0  0.56300031042E+00  0.18162270399E+03 -0.99198588570E+03  0.10265900452E+04  0.19200000000E+03 0.  0.
   -5000001    1    1    2    0    0 -0.56300031042E+00 -0.18162270399E+03 -0.50479584271E+03  0.56979818040E+03  0.19200000000E+03 0.  0.
<mgrwt>
<rscale>  0 0.55506741E+03</rscale>
<asrwt>0</asrwt>
<pdfrwt beam="1">  1        2 0.22094068E+00 0.55506741E+03</pdfrwt>
<pdfrwt beam="2">  1       -2 0.71147508E-02 0.55506741E+03</pdfrwt>
<totfact> 0.16639896E+03</totfact>
</mgrwt>
</event>
<event>
 4    1  0.5621415E-005  0.1509278E+04  0.7818608E-02  0.8878307E-01
         -2   -1    0    0    0  501 -0.00000000000E+00  0.00000000000E+00  0.16827272549E+04  0.16827272549E+04  0.25500000000E-02 0. -1.
          2   -1    0    0  501    0  0.00000000000E+00 -0.00000000000E+00 -0.33842668365E+03  0.33842668366E+03  0.25500000000E-02 0.  1.
    5000001    1    1    2    0    0 -0.85030474871E+02 -0.72472284008E+03  0.65508316023E+03  0.99922536167E+03  0.19200000000E+03 0.  0.
   -5000001    1    1    2    0    0  0.85030474871E+02  0.72472284008E+03  0.68921741099E+03  0.10219285769E+04  0.19200000000E+03 0.  0.
<mgrwt>
<rscale>  0 0.15092777E+04</rscale>
<asrwt>0</asrwt>
<pdfrwt beam="1">  1        2 0.48346668E-01 0.15092777E+04</pdfrwt>
<pdfrwt beam="2">  1       -2 0.24038961E+00 0.15092777E+04</pdfrwt>
<totfact> 0.74321711E+00</totfact>
</mgrwt>
</event>
<event>
 4    1  0.5621415E-005  0.6943731E+03  0.7818608E-02  0.9726904E-01
         -2   -1    0    0    0  501 -0.00000000000E+00  0.00000000000E+00  0.48525896376E+02  0.48525896443E+02  0.25500000000E-02 0. -1.
          2   -1    0    0  501    0  0.00000000000E+00 -0.00000000000E+00 -0.24840036093E+04  0.24840036093E+04  0.25500000000E-02 0.  1.
    5000001    1    1    2    0    0  0.20659407085E+03  0.46359032697E+02 -0.49891101105E+03  0.57498388410E+03  0.19200000000E+03 0.  0.
   -5000001    1    1    2    0    0 -0.20659407085E+03 -0.46359032697E+02 -0.19365667019E+04  0.19575456216E+04  0.19200000000E+03 0.  0.
<mgrwt>
<rscale>  0 0.69437310E+03</rscale>
<asrwt>0</asrwt>
<pdfrwt beam="1">  1        2 0.35485758E+00 0.69437310E+03</pdfrwt>
<pdfrwt beam="2">  1       -2 0.69322725E-02 0.69437310E+03</pdfrwt>
<totfact> 0.57591648E+02</totfact>
</mgrwt>
</event>
<event>
 4    1  0.5621415E-005  0.7661097E+03  0.7818608E-02  0.9610410E-01
         -2   -1    0    0    0  501 -0.00000000000E+00  0.00000000000E+00  0.13518186374E+03  0.13518186377E+03  0.25500000000E-02 0. -1.
          2   -1    0    0  501    0  0.00000000000E+00 -0.00000000000E+00 -0.10854342159E+04  0.10854342159E+04  0.25500000000E-02 0.  1.
    5000001    1    1    2    0    0  0.70518584444E+02  0.14092963328E+03 -0.10523355010E+02  0.24861370294E+03  0.19200000000E+03 0.  0.
   -5000001    1    1    2    0    0 -0.70518584444E+02 -0.14092963328E+03 -0.93972899711E+03  0.97200237669E+03  0.19200000000E+03 0.  0.
<mgrwt>
<rscale>  0 0.76610971E+03</rscale>
<asrwt>0</asrwt>
<pdfrwt beam="1">  1        2 0.15506203E+00 0.76610971E+03</pdfrwt>
<pdfrwt beam="2">  1       -2 0.19311695E-01 0.76610971E+03</pdfrwt>
<totfact> 0.56761592E+02</totfact>
</mgrwt>
</event>
<event>
 4    1  0.5621415E-005  0.2564463E+04  0.7818608E-02  0.8380374E-01
         -2   -1    0    0    0  501 -0.00000000000E+00  0.00000000000E+00  0.16872451767E+04  0.16872451767E+04  0.25500000000E-02 0. -1.
          2   -1    0    0  501    0  0.00000000000E+00 -0.00000000000E+00 -0.97443874626E+03  0.97443874626E+03  0.25500000000E-02 0.  1.
    5000001    1    1    2    0    0  0.16503306794E+03 -0.12508518206E+04  0.22765670779E+03  0.12963632852E+04  0.19200000000E+03 0.  0.
   -5000001    1    1    2    0    0 -0.16503306794E+03  0.12508518206E+04  0.48514972265E+03  0.13653206378E+04  0.19200000000E+03 0.  0.
<mgrwt>
<rscale>  0 0.25644626E+04</rscale>
<asrwt>0</asrwt>
<pdfrwt beam="1">  1        2 0.13920554E+00 0.25644626E+04</pdfrwt>
<pdfrwt beam="2">  1       -2 0.24103502E+00 0.25644626E+04</pdfrwt>
<totfact> 0.18965782E+00</totfact>
</mgrwt>
</event>
<event>
 4    1  0.5621415E-005  0.3907048E+03  0.7818608E-02  0.1047047E+00
          2   -1    0    0  501    0  0.00000000000E+00  0.00000000000E+00  0.65833734384E+03  0.65833734384E+03  0.25500000000E-02 0.  1.
         -2   -1    0    0    0  501 -0.00000000000E+00 -0.00000000000E+00 -0.57968090662E+02  0.57968090719E+02  0.25500000000E-02 0. -1.
    5000001    1    1    2    0    0 -0.27952590553E+01 -0.26585764301E+02  0.25588148165E+03  0.32102016913E+03  0.19200000000E+03 0.  0.
   -5000001    1    1    2    0    0  0.27952590553E+01  0.26585764301E+02  0.34448777153E+03  0.39528526543E+03  0.19200000000E+03 0.  0.
<mgrwt>
<rscale>  0 0.39070479E+03</rscale>
<asrwt>0</asrwt>
<pdfrwt beam="1">  1        2 0.94048190E-01 0.39070479E+03</pdfrwt>
<pdfrwt beam="2">  1       -2 0.82811560E-02 0.39070479E+03</pdfrwt>
<totfact> 0.44496109E+03</totfact>
</mgrwt>
</event>
<event>
 4    1  0.5621415E-005  0.5329590E+03  0.7818608E-02  0.1005517E+00
         -2   -1    0    0    0  501 -0.00000000000E+00  0.00000000000E+00  0.86966790631E+02  0.86966790669E+02  0.25500000000E-02 0. -1.
          2   -1    0    0  501    0  0.00000000000E+00 -0.00000000000E+00 -0.81653366289E+03  0.81653366289E+03  0.25500000000E-02 0.  1.
    5000001    1    1    2    0    0 -0.13713991975E+03  0.10044316422E+03 -0.24193749807E+03  0.35255345665E+03  0.19200000000E+03 0.  0.
   -5000001    1    1    2    0    0  0.13713991975E+03 -0.10044316422E+03 -0.48762937419E+03  0.55094699691E+03  0.19200000000E+03 0.  0.
<mgrwt>
<rscale>  0 0.53295896E+03</rscale>
<asrwt>0</asrwt>
<pdfrwt beam="1">  1        2 0.11664766E+00 0.53295896E+03</pdfrwt>
<pdfrwt beam="2">  1       -2 0.12423828E-01 0.53295896E+03</pdfrwt>
<totfact> 0.17792884E+03</totfact>
</mgrwt>
</event>
<event>
 4    1  0.5621415E-005  0.4434379E+03  0.7818608E-02  0.1029697E+00
          2   -1    0    0  501    0  0.00000000000E+00  0.00000000000E+00  0.78773631305E+03  0.78773631305E+03  0.25500000000E-02 0.  1.
         -2   -1    0    0    0  501 -0.00000000000E+00 -0.00000000000E+00 -0.62405778821E+02  0.62405778873E+02  0.25500000000E-02 0. -1.
    5000001    1    1    2    0    0 -0.74963124557E+02  0.76510351222E+02  0.41763113359E+03  0.47196723152E+03  0.19200000000E+03 0.  0.
   -5000001    1    1    2    0    0  0.74963124557E+02 -0.76510351222E+02  0.30769940064E+03  0.37817486040E+03  0.19200000000E+03 0.  0.
<mgrwt>
<rscale>  0 0.44343792E+03</rscale>
<asrwt>0</asrwt>
<pdfrwt beam="1">  1        2 0.11253375E+00 0.44343792E+03</pdfrwt>
<pdfrwt beam="2">  1       -2 0.89151121E-02 0.44343792E+03</pdfrwt>
<totfact> 0.31861964E+03</totfact>
</mgrwt>
</event>
<event>
 4    1  0.5621415E-005  0.5000070E+03  0.7818608E-02  0.1013777E+00
         -2   -1    0    0    0  501 -0.00000000000E+00  0.00000000000E+00  0.72708977685E+02  0.72708977730E+02  0.25500000000E-02 0. -1.
          2   -1    0    0  501    0  0.00000000000E+00 -0.00000000000E+00 -0.85961532437E+03  0.85961532438E+03  0.25500000000E-02 0.  1.
    5000001    1    1    2    0    0  0.18620899458E+02  0.15101030336E+03 -0.30046660135E+03  0.38767902722E+03  0.19200000000E+03 0.  0.
   -5000001    1    1    2    0    0 -0.18620899458E+02 -0.15101030336E+03 -0.48643974534E+03  0.54464527489E+03  0.19200000000E+03 0.  0.
<mgrwt>
<rscale>  0 0.50000701E+03</rscale>
<asrwt>0</asrwt>
<pdfrwt beam="1">  1        2 0.12280218E+00 0.50000701E+03</pdfrwt>
<pdfrwt beam="2">  1       -2 0.10386997E-01 0.50000701E+03</pdfrwt>
<totfact> 0.22304052E+03</totfact>
</mgrwt>
</event>
<event>
 4    1  0.5621415E-005  0.6727957E+03  0.7818608E-02  0.9764921E-01
          2   -1    0    0  501    0  0.00000000000E+00  0.00000000000E+00  0.92062603248E+03  0.92062603248E+03  0.25500000000E-02 0.  1.
         -2   -1    0    0    0  501 -0.00000000000E+00 -0.00000000000E+00 -0.12292016350E+03  0.12292016352E+03  0.25500000000E-02 0. -1.
    5000001    1    1    2    0    0 -0.22153145321E+03  0.92748006965E+02  0.61050935628E+03  0.68356715227E+03  0.19200000000E+03 0.  0.
   -5000001    1    1    2    0    0  0.22153145321E+03 -0.92748006965E+02  0.18719651270E+03  0.35997904373E+03  0.19200000000E+03 0.  0.
<mgrwt>
<rscale>  0 0.67279567E+03</rscale>
<asrwt>0</asrwt>
<pdfrwt beam="1">  1        2 0.13151801E+00 0.67279567E+03</pdfrwt>
<pdfrwt beam="2">  1       -2 0.17560023E-01 0.67279567E+03</pdfrwt>
<totfact> 0.84701746E+02</totfact>
</mgrwt>
</event>
<event>
 4    1  0.5621415E-005  0.6256826E+03  0.7818608E-02  0.9853510E-01
         -2   -1    0    0    0  501 -0.00000000000E+00  0.00000000000E+00  0.25530129277E+03  0.25530129278E+03  0.25500000000E-02 0. -1.
          2   -1    0    0  501    0  0.00000000000E+00 -0.00000000000E+00 -0.38334968963E+03  0.38334968964E+03  0.25500000000E-02 0.  1.
    5000001    1    1    2    0    0  0.90887375435E+02 -0.19736799545E+03 -0.18389347566E+03  0.34335907012E+03  0.19200000000E+03 0.  0.
   -5000001    1    1    2    0    0 -0.90887375435E+02  0.19736799545E+03  0.55845078801E+02  0.29529191230E+03  0.19200000000E+03 0.  0.
<mgrwt>
<rscale>  0 0.62568258E+03</rscale>
<asrwt>0</asrwt>
<pdfrwt beam="1">  1        2 0.54764241E-01 0.62568258E+03</pdfrwt>
<pdfrwt beam="2">  1       -2 0.36471614E-01 0.62568258E+03</pdfrwt>
<totfact> 0.64556479E+02</totfact>
</mgrwt>
</event>
<event>
 4    1  0.5621415E-005  0.5075814E+03  0.7818608E-02  0.1011819E+00
          2   -1    0    0  501    0  0.00000000000E+00  0.00000000000E+00  0.23440831838E+04  0.23440831838E+04  0.25500000000E-02 0.  1.
         -2   -1    0    0    0  501 -0.00000000000E+00 -0.00000000000E+00 -0.27477578368E+02  0.27477578486E+02  0.25500000000E-02 0. -1.
    5000001    1    1    2    0    0  0.15982947241E+02  0.86944149116E+02  0.50200196354E+03  0.54468771885E+03  0.19200000000E+03 0.  0.
   -5000001    1    1    2    0    0 -0.15982947241E+02 -0.86944149116E+02  0.18146036418E+04  0.18268730434E+04  0.19200000000E+03 0.  0.
<mgrwt>
<rscale>  0 0.50758144E+03</rscale>
<asrwt>0</asrwt>
<pdfrwt beam="1">  1        2 0.33486891E+00 0.50758144E+03</pdfrwt>
<pdfrwt beam="2">  1       -2 0.39253698E-02 0.50758144E+03</pdfrwt>
<totfact> 0.16650056E+03</totfact>
</mgrwt>
</event>
<event>
 4    1  0.5621415E-005  0.5563095E+03  0.7818608E-02  0.1000044E+00
          2   -1    0    0  501    0  0.00000000000E+00  0.00000000000E+00  0.11687178204E+04  0.11687178204E+04  0.25500000000E-02 0. -1.
         -2   -1    0    0    0  501 -0.00000000000E+00 -0.00000000000E+00 -0.66200812086E+02  0.66200812136E+02  0.25500000000E-02 0.  1.
    5000001    1    1    2    0    0 -0.76151034520E+02 -0.16722146335E+03  0.36896007673E+03  0.45470598862E+03  0.19200000000E+03 0.  0.
   -5000001    1    1    2    0    0  0.76151034520E+02  0.16722146335E+03  0.73355693156E+03  0.78021264390E+03  0.19200000000E+03 0.  0.
<mgrwt>
<rscale>  0 0.55630951E+03</rscale>
<asrwt>0</asrwt>
<pdfrwt beam="1">  1        2 0.16695968E+00 0.55630951E+03</pdfrwt>
<pdfrwt beam="2">  1       -2 0.94572593E-02 0.55630951E+03</pdfrwt>
<totfact> 0.16857945E+03</totfact>
</mgrwt>
</event>
<event>
 4    1  0.5621415E-005  0.4357389E+03  0.7818608E-02  0.1032062E+00
          2   -1    0    0  501    0  0.00000000000E+00  0.00000000000E+00  0.10378819772E+04  0.10378819772E+04  0.25500000000E-02 0.  1.
         -2   -1    0    0    0  501 -0.00000000000E+00 -0.00000000000E+00 -0.45734590333E+02  0.45734590404E+02  0.25500000000E-02 0. -1.
    5000001    1    1    2    0    0 -0.29730374732E+02 -0.93075362927E+02  0.57689391184E+03  0.61580638506E+03  0.19200000000E+03 0.  0.
   -5000001    1    1    2    0    0  0.29730374732E+02  0.93075362927E+02  0.41525347499E+03  0.46781018250E+03  0.19200000000E+03 0.  0.
<mgrwt>
<rscale>  0 0.43573895E+03</rscale>
<asrwt>0</asrwt>
<pdfrwt beam="1">  1        2 0.14826886E+00 0.43573895E+03</pdfrwt>
<pdfrwt beam="2">  1       -2 0.65335128E-02 0.43573895E+03</pdfrwt>
<totfact> 0.36067265E+03</totfact>
</mgrwt>
</event>
<event>
 4    1  0.5621415E-005  0.5807335E+03  0.7818608E-02  0.9946204E-01
          2   -1    0    0  501    0  0.00000000000E+00  0.00000000000E+00  0.55820782039E+03  0.55820782040E+03  0.25500000000E-02 0.  1.
         -2   -1    0    0    0  501 -0.00000000000E+00 -0.00000000000E+00 -0.15104203368E+03  0.15104203370E+03  0.25500000000E-02 0. -1.
    5000001    1    1    2    0    0  0.21445117631E+03 -0.14188225907E+02  0.16026147272E+03  0.32975498846E+03  0.19200000000E+03 0.  0.
   -5000001    1    1    2    0    0 -0.21445117631E+03  0.14188225907E+02  0.24690431400E+03  0.37949486564E+03  0.19200000000E+03 0.  0.
<mgrwt>
<rscale>  0 0.58073348E+03</rscale>
<asrwt>0</asrwt>
<pdfrwt beam="1">  1        2 0.79743974E-01 0.58073348E+03</pdfrwt>
<pdfrwt beam="2">  1       -2 0.21577433E-01 0.58073348E+03</pdfrwt>
<totfact> 0.11041535E+03</totfact>
</mgrwt>
</event>
<event>
 4    1  0.5621415E-005  0.5646998E+03  0.7818608E-02  0.9981476E-01
          2   -1    0    0  501    0  0.00000000000E+00  0.00000000000E+00  0.28814114486E+04  0.28814114486E+04  0.25500000000E-02 0.  1.
         -2   -1    0    0    0  501 -0.00000000000E+00 -0.00000000000E+00 -0.27667509484E+02  0.27667509601E+02  0.25500000000E-02 0. -1.
    5000001    1    1    2    0    0  0.11701592826E+03 -0.16617530920E+03  0.16297225394E+04  0.16535315287E+04  0.19200000000E+03 0.  0.
   -5000001    1    1    2    0    0 -0.11701592826E+03  0.16617530920E+03  0.12240213997E+04  0.12555474295E+04  0.19200000000E+03 0.  0.
<mgrwt>
<rscale>  0 0.56469985E+03</rscale>
<asrwt>0</asrwt>
<pdfrwt beam="1">  1        2 0.41162989E+00 0.56469985E+03</pdfrwt>
<pdfrwt beam="2">  1       -2 0.39525045E-02 0.56469985E+03</pdfrwt>
<totfact> 0.86481269E+02</totfact>
</mgrwt>
</event>
<event>
 4    1  0.5621415E-005  0.4742406E+03  0.7818608E-02  0.1020730E+00
         -2   -1    0    0    0  501 -0.00000000000E+00  0.00000000000E+00  0.53691221155E+02  0.53691221215E+02  0.25500000000E-02 0. -1.
          2   -1    0    0  501    0  0.00000000000E+00 -0.00000000000E+00 -0.10472110369E+04  0.10472110369E+04  0.25500000000E-02 0.  1.
    5000001    1    1    2    0    0 -0.26263147721E+02 -0.13483834604E+03 -0.44532599086E+03  0.50403409669E+03  0.19200000000E+03 0.  0.
   -5000001    1    1    2    0    0  0.26263147721E+02  0.13483834604E+03 -0.54819382493E+03  0.59686816147E+03  0.19200000000E+03 0.  0.
<mgrwt>
<rscale>  0 0.47424061E+03</rscale>
<asrwt>0</asrwt>
<pdfrwt beam="1">  1        2 0.14960156E+00 0.47424061E+03</pdfrwt>
<pdfrwt beam="2">  1       -2 0.76701751E-02 0.47424061E+03</pdfrwt>
<totfact> 0.27690397E+03</totfact>
</mgrwt>
</event>
<event>
 4    1  0.5621415E-005  0.5568266E+03  0.7818608E-02  0.9999261E-01
          2   -1    0    0  501    0  0.00000000000E+00  0.00000000000E+00  0.91289306273E+03  0.91289306273E+03  0.25500000000E-02 0.  1.
         -2   -1    0    0    0  501 -0.00000000000E+00 -0.00000000000E+00 -0.84910234174E+02  0.84910234212E+02  0.25500000000E-02 0. -1.
    5000001    1    1    2    0    0 -0.13752674425E+03 -0.14719907733E+03  0.39912905957E+03  0.48656878234E+03  0.19200000000E+03 0.  0.
   -5000001    1    1    2    0    0  0.13752674425E+03  0.14719907733E+03  0.42885376899E+03  0.51123451461E+03  0.19200000000E+03 0.  0.
<mgrwt>
<rscale>  0 0.55682659E+03</rscale>
<asrwt>0</asrwt>
<pdfrwt beam="1">  1        2 0.13041330E+00 0.55682659E+03</pdfrwt>
<pdfrwt beam="2">  1       -2 0.12130033E-01 0.55682659E+03</pdfrwt>
<totfact> 0.15986637E+03</totfact>
</mgrwt>
</event>
<event>
 4    1  0.5621415E-005  0.4432110E+03  0.7818608E-02  0.1029766E+00
          2   -1    0    0  501    0  0.00000000000E+00  0.00000000000E+00  0.18665263648E+04  0.18665263648E+04  0.25500000000E-02 0.  1.
         -2   -1    0    0    0  501 -0.00000000000E+00 -0.00000000000E+00 -0.26310364834E+02  0.26310364958E+02  0.25500000000E-02 0. -1.
    5000001    1    1    2    0    0 -0.87360792313E+02  0.60820904433E+02  0.79100039302E+03  0.82089994044E+03  0.19200000000E+03 0.  0.
   -5000001    1    1    2    0    0  0.87360792313E+02 -0.60820904433E+02  0.10492156070E+04  0.10719367893E+04  0.19200000000E+03 0.  0.
<mgrwt>
<rscale>  0 0.44321096E+03</rscale>
<asrwt>0</asrwt>
<pdfrwt beam="1">  1        2 0.26664675E+00 0.44321096E+03</pdfrwt>
<pdfrwt beam="2">  1       -2 0.37586218E-02 0.44321096E+03</pdfrwt>
<totfact> 0.30888806E+03</totfact>
</mgrwt>
</event>
<event>
 4    1  0.5621415E-005  0.7394703E+03  0.7818608E-02  0.9652016E-01
          2   -1    0    0  501    0  0.00000000000E+00  0.00000000000E+00  0.67170104388E+03  0.67170104388E+03  0.25500000000E-02 0.  1.
         -2   -1    0    0    0  501 -0.00000000000E+00 -0.00000000000E+00 -0.20351921515E+03  0.20351921517E+03  0.25500000000E-02 0. -1.
    5000001    1    1    2    0    0 -0.27781941697E+03  0.15051440812E+03  0.23570239861E+03  0.43847216126E+03  0.19200000000E+03 0.  0.
   -5000001    1    1    2    0    0  0.27781941697E+03 -0.15051440812E+03  0.23247943012E+03  0.43674809779E+03  0.19200000000E+03 0.  0.
<mgrwt>
<rscale>  0 0.73947027E+03</rscale>
<asrwt>0</asrwt>
<pdfrwt beam="1">  1        2 0.95957290E-01 0.73947027E+03</pdfrwt>
<pdfrwt beam="2">  1       -2 0.29074174E-01 0.73947027E+03</pdfrwt>
<totfact> 0.51659018E+02</totfact>
</mgrwt>
</event>
<event>
 4    1  0.5621415E-005  0.1377732E+04  0.7818608E-02  0.8970097E-01
          2   -1    0    0  501    0  0.00000000000E+00  0.00000000000E+00  0.10907956422E+04  0.10907956422E+04  0.25500000000E-02 0.  1.
         -2   -1    0    0    0  501 -0.00000000000E+00 -0.00000000000E+00 -0.43503686252E+03  0.43503686253E+03  0.25500000000E-02 0. -1.
    5000001    1    1    2    0    0 -0.35781721083E+03 -0.52583793148E+03  0.12628584028E+03  0.67627716212E+03  0.19200000000E+03 0.  0.
   -5000001    1    1    2    0    0  0.35781721083E+03  0.52583793148E+03  0.52947293936E+03  0.84955534256E+03  0.19200000000E+03 0.  0.
<mgrwt>
<rscale>  0 0.13777319E+04</rscale>
<asrwt>0</asrwt>
<pdfrwt beam="1">  1        2 0.15582795E+00 0.13777319E+04</pdfrwt>
<pdfrwt beam="2">  1       -2 0.62148124E-01 0.13777319E+04</pdfrwt>
<totfact> 0.58039962E+01</totfact>
</mgrwt>
</event>
<event>
 4    1  0.5621415E-005  0.8123096E+03  0.7818608E-02  0.9542368E-01
         -2   -1    0    0    0  501 -0.00000000000E+00  0.00000000000E+00  0.11010254821E+03  0.11010254824E+03  0.25500000000E-02 0. -1.
          2   -1    0    0  501    0  0.00000000000E+00 -0.00000000000E+00 -0.14982551988E+04  0.14982551988E+04  0.25500000000E-02 0.  1.
    5000001    1    1    2    0    0 -0.30277813927E+03  0.18529218993E+03 -0.60356025260E+03  0.72605562858E+03  0.19200000000E+03 0.  0.
   -5000001    1    1    2    0    0  0.30277813927E+03 -0.18529218993E+03 -0.78459239797E+03  0.88230211845E+03  0.19200000000E+03 0.  0.
<mgrwt>
<rscale>  0 0.81230958E+03</rscale>
<asrwt>0</asrwt>
<pdfrwt beam="1">  1        2 0.21403644E+00 0.81230958E+03</pdfrwt>
<pdfrwt beam="2">  1       -2 0.15728936E-01 0.81230958E+03</pdfrwt>
<totfact> 0.47667648E+02</totfact>
</mgrwt>
</event>
<event>
 4    1  0.5621415E-005  0.4742257E+03  0.7818608E-02  0.1020734E+00
          2   -1    0    0  501    0  0.00000000000E+00  0.00000000000E+00  0.13413564659E+04  0.13413564659E+04  0.25500000000E-02 0.  1.
         -2   -1    0    0    0  501 -0.00000000000E+00 -0.00000000000E+00 -0.41914659795E+02  0.41914659873E+02  0.25500000000E-02 0. -1.
    5000001    1    1    2    0    0 -0.34374210422E+02 -0.13073751409E+03  0.55365699431E+03  0.60139334157E+03  0.19200000000E+03 0.  0.
   -5000001    1    1    2    0    0  0.34374210422E+02  0.13073751409E+03  0.74578481176E+03  0.78187778418E+03  0.19200000000E+03 0.  0.
<mgrwt>
<rscale>  0 0.47422568E+03</rscale>
<asrwt>0</asrwt>
<pdfrwt beam="1">  1        2 0.19162230E+00 0.47422568E+03</pdfrwt>
<pdfrwt beam="2">  1       -2 0.59878101E-02 0.47422568E+03</pdfrwt>
<totfact> 0.27977792E+03</totfact>
</mgrwt>
</event>
<event>
 4    1  0.5621415E-005  0.4640994E+03  0.7818608E-02  0.1023599E+00
         -2   -1    0    0    0  501 -0.00000000000E+00  0.00000000000E+00  0.38633034287E+02  0.38633034371E+02  0.25500000000E-02 0. -1.
          2   -1    0    0  501    0  0.00000000000E+00 -0.00000000000E+00 -0.13938088986E+04  0.13938088986E+04  0.25500000000E-02 0.  1.
    5000001    1    1    2    0    0  0.85838801091E+02 -0.16610920075E+02 -0.97585999514E+03  0.99840420299E+03  0.19200000000E+03 0.  0.
   -5000001    1    1    2    0    0 -0.85838801091E+02  0.16610920075E+02 -0.37931586916E+03  0.43403772997E+03  0.19200000000E+03 0.  0.
<mgrwt>
<rscale>  0 0.46409942E+03</rscale>
<asrwt>0</asrwt>
<pdfrwt beam="1">  1        2 0.19911553E+00 0.46409942E+03</pdfrwt>
<pdfrwt beam="2">  1       -2 0.55190058E-02 0.46409942E+03</pdfrwt>
<totfact> 0.29788154E+03</totfact>
</mgrwt>
</event>
<event>
 4    1  0.5621415E-005  0.7127801E+03  0.7818608E-02  0.9695623E-01
          2   -1    0    0  501    0  0.00000000000E+00  0.00000000000E+00  0.10005667939E+04  0.10005667939E+04  0.25500000000E-02 0.  1.
         -2   -1    0    0    0  501 -0.00000000000E+00 -0.00000000000E+00 -0.12694193487E+03  0.12694193490E+03  0.25500000000E-02 0. -1.
    5000001    1    1    2    0    0 -0.13498062781E+03  0.26383820633E+03  0.36062856746E+03  0.50472500698E+03  0.19200000000E+03 0.  0.
   -5000001    1    1    2    0    0  0.13498062781E+03 -0.26383820633E+03  0.51299629159E+03  0.62278372184E+03  0.19200000000E+03 0.  0.
<mgrwt>
<rscale>  0 0.71278015E+03</rscale>
<asrwt>0</asrwt>
<pdfrwt beam="1">  1        2 0.14293812E+00 0.71278015E+03</pdfrwt>
<pdfrwt beam="2">  1       -2 0.18134562E-01 0.71278015E+03</pdfrwt>
<totfact> 0.71329584E+02</totfact>
</mgrwt>
</event>
<event>
 4    1  0.5621415E-005  0.4094549E+03  0.7818608E-02  0.1040554E+00
         -2   -1    0    0    0  501 -0.00000000000E+00  0.00000000000E+00  0.18353546290E+03  0.18353546292E+03  0.25500000000E-02 0. -1.
          2   -1    0    0  501    0  0.00000000000E+00 -0.00000000000E+00 -0.22836639499E+03  0.22836639501E+03  0.25500000000E-02 0.  1.
    5000001    1    1    2    0    0  0.37904654328E+02  0.21380065103E+02 -0.78924663565E+02  0.21210132607E+03  0.19200000000E+03 0.  0.
   -5000001    1    1    2    0    0 -0.37904654328E+02 -0.21380065103E+02  0.34093731472E+02  0.19980053185E+03  0.19200000000E+03 0.  0.
<mgrwt>
<rscale>  0 0.40945492E+03</rscale>
<asrwt>0</asrwt>
<pdfrwt beam="1">  1        2 0.32623770E-01 0.40945492E+03</pdfrwt>
<pdfrwt beam="2">  1       -2 0.26219352E-01 0.40945492E+03</pdfrwt>
<totfact> 0.21028614E+03</totfact>
</mgrwt>
</event>
<event>
 4    1  0.5621415E-005  0.6500580E+03  0.7818608E-02  0.9806670E-01
          2   -1    0    0  501    0  0.00000000000E+00  0.00000000000E+00  0.79725384896E+03  0.79725384897E+03  0.25500000000E-02 0.  1.
         -2   -1    0    0    0  501 -0.00000000000E+00 -0.00000000000E+00 -0.13250966092E+03  0.13250966095E+03  0.25500000000E-02 0. -1.
    5000001    1    1    2    0    0 -0.20261152407E+03  0.14993773182E+03  0.43597678762E+03  0.53895501896E+03  0.19200000000E+03 0.  0.
   -5000001    1    1    2    0    0  0.20261152407E+03 -0.14993773182E+03  0.22876740042E+03  0.39080849096E+03  0.19200000000E+03 0.  0.
<mgrwt>
<rscale>  0 0.65005796E+03</rscale>
<asrwt>0</asrwt>
<pdfrwt beam="1">  1        2 0.11389341E+00 0.65005796E+03</pdfrwt>
<pdfrwt beam="2">  1       -2 0.18929952E-01 0.65005796E+03</pdfrwt>
<totfact> 0.89978184E+02</totfact>
</mgrwt>
</event>
<event>
 4    1  0.5621415E-005  0.4627083E+03  0.7818608E-02  0.1023999E+00
          2   -1    0    0  501    0  0.00000000000E+00  0.00000000000E+00  0.20042270589E+04  0.20042270589E+04  0.25500000000E-02 0.  1.
         -2   -1    0    0    0  501 -0.00000000000E+00 -0.00000000000E+00 -0.26705925027E+02  0.26705925149E+02  0.25500000000E-02 0. -1.
    5000001    1    1    2    0    0 -0.84304101270E+02 -0.96629143631E+02  0.10533232596E+04  0.10783312395E+04  0.19200000000E+03 0.  0.
   -5000001    1    1    2    0    0  0.84304101270E+02  0.96629143631E+02  0.92419787430E+03  0.95260174457E+03  0.19200000000E+03 0.  0.
<mgrwt>
<rscale>  0 0.46270828E+03</rscale>
<asrwt>0</asrwt>
<pdfrwt beam="1">  1        2 0.28631809E+00 0.46270828E+03</pdfrwt>
<pdfrwt beam="2">  1       -2 0.38151330E-02 0.46270828E+03</pdfrwt>
<totfact> 0.25773990E+03</totfact>
</mgrwt>
</event>
<event>
 4    1  0.5621415E-005  0.5197963E+03  0.7818608E-02  0.1008737E+00
          2   -1    0    0  501    0  0.00000000000E+00  0.00000000000E+00  0.88783064943E+03  0.88783064943E+03  0.25500000000E-02 0.  1.
         -2   -1    0    0    0  501 -0.00000000000E+00 -0.00000000000E+00 -0.76081012771E+02  0.76081012814E+02  0.25500000000E-02 0. -1.
    5000001    1    1    2    0    0  0.51459671852E+02 -0.14793169260E+03  0.26043512591E+03  0.35947508719E+03  0.19200000000E+03 0.  0.
   -5000001    1    1    2    0    0 -0.51459671852E+02  0.14793169260E+03  0.55131451074E+03  0.60443657505E+03  0.19200000000E+03 0.  0.
<mgrwt>
<rscale>  0 0.51979633E+03</rscale>
<asrwt>0</asrwt>
<pdfrwt beam="1">  1        2 0.12683295E+00 0.51979633E+03</pdfrwt>
<pdfrwt beam="2">  1       -2 0.10868716E-01 0.51979633E+03</pdfrwt>
<totfact> 0.19860663E+03</totfact>
</mgrwt>
</event>
<event>
 4    1  0.5621415E-005  0.6091836E+03  0.7818608E-02  0.9886534E-01
         -2   -1    0    0    0  501 -0.00000000000E+00  0.00000000000E+00  0.19241624199E+03  0.19241624201E+03  0.25500000000E-02 0. -1.
          2   -1    0    0  501    0  0.00000000000E+00 -0.00000000000E+00 -0.48216388960E+03  0.48216388961E+03  0.25500000000E-02 0.  1.
    5000001    1    1    2    0    0 -0.20268088235E+03  0.73849609380E+02 -0.37632950092E+02  0.29122764946E+03  0.19200000000E+03 0.  0.
   -5000001    1    1    2    0    0  0.20268088235E+03 -0.73849609380E+02 -0.25211469752E+03  0.38335248216E+03  0.19200000000E+03 0.  0.
<mgrwt>
<rscale>  0 0.60918360E+03</rscale>
<asrwt>0</asrwt>
<pdfrwt beam="1">  1        2 0.68880555E-01 0.60918360E+03</pdfrwt>
<pdfrwt beam="2">  1       -2 0.27488035E-01 0.60918360E+03</pdfrwt>
<totfact> 0.84645113E+02</totfact>
</mgrwt>
</event>
<event>
 4    1  0.5621415E-005  0.6428264E+03  0.7818608E-02  0.9820334E-01
          2   -1    0    0  501    0  0.00000000000E+00  0.00000000000E+00  0.81395384041E+03  0.81395384041E+03  0.25500000000E-02 0.  1.
         -2   -1    0    0    0  501 -0.00000000000E+00 -0.00000000000E+00 -0.12691929423E+03  0.12691929425E+03  0.25500000000E-02 0. -1.
    5000001    1    1    2    0    0  0.10103699746E+03  0.23011642886E+03  0.42734753955E+03  0.53165022830E+03  0.19200000000E+03 0.  0.
   -5000001    1    1    2    0    0 -0.10103699746E+03 -0.23011642886E+03  0.25968700663E+03  0.40922290637E+03  0.19200000000E+03 0.  0.
<mgrwt>
<rscale>  0 0.64282641E+03</rscale>
<asrwt>0</asrwt>
<pdfrwt beam="1">  1        2 0.11627912E+00 0.64282641E+03</pdfrwt>
<pdfrwt beam="2">  1       -2 0.18131328E-01 0.64282641E+03</pdfrwt>
<totfact> 0.94401147E+02</totfact>
</mgrwt>
</event>
<event>
 4    1  0.5621415E-005  0.5420796E+03  0.7818608E-02  0.1003344E+00
         -2   -1    0    0    0  501 -0.00000000000E+00  0.00000000000E+00  0.69666556473E+02  0.69666556520E+02  0.25500000000E-02 0. -1.
          2   -1    0    0  501    0  0.00000000000E+00 -0.00000000000E+00 -0.10544885394E+04  0.10544885394E+04  0.25500000000E-02 0.  1.
    5000001    1    1    2    0    0 -0.18134776246E+03  0.25778156354E+02 -0.60688416314E+03  0.66236237194E+03  0.19200000000E+03 0.  0.
   -5000001    1    1    2    0    0  0.18134776246E+03 -0.25778156354E+02 -0.37793781976E+03  0.46179272395E+03  0.19200000000E+03 0.  0.
<mgrwt>
<rscale>  0 0.54207965E+03</rscale>
<asrwt>0</asrwt>
<pdfrwt beam="1">  1        2 0.15064121E+00 0.54207965E+03</pdfrwt>
<pdfrwt beam="2">  1       -2 0.99523659E-02 0.54207965E+03</pdfrwt>
<totfact> 0.18075769E+03</totfact>
</mgrwt>
</event>
<event>
 4    1  0.5621415E-005  0.5898959E+03  0.7818608E-02  0.9926593E-01
         -2   -1    0    0    0  501 -0.00000000000E+00  0.00000000000E+00  0.15184333025E+04  0.15184333025E+04  0.25500000000E-02 0.  1.
          2   -1    0    0  501    0  0.00000000000E+00 -0.00000000000E+00 -0.57292143497E+02  0.57292143554E+02  0.25500000000E-02 0. -1.
    5000001    1    1    2    0    0 -0.39073353457E+02  0.18289234883E+03  0.40174300249E+03  0.48294697251E+03  0.19200000000E+03 0.  0.
   -5000001    1    1    2    0    0  0.39073353457E+02 -0.18289234883E+03  0.10593981565E+04  0.10927784735E+04  0.19200000000E+03 0.  0.
<mgrwt>
<rscale>  0 0.58989592E+03</rscale>
<asrwt>0</asrwt>
<pdfrwt beam="1">  1        2 0.81845918E-02 0.58989592E+03</pdfrwt>
<pdfrwt beam="2">  1       -2 0.21691905E+00 0.58989592E+03</pdfrwt>
<totfact> 0.91622340E+01</totfact>
</mgrwt>
</event>
<event>
 4    1  0.5621415E-005  0.5149236E+03  0.7818608E-02  0.1009955E+00
         -2   -1    0    0    0  501 -0.00000000000E+00  0.00000000000E+00  0.71117902700E+02  0.71117902746E+02  0.25500000000E-02 0. -1.
          2   -1    0    0  501    0  0.00000000000E+00 -0.00000000000E+00 -0.93206590424E+03  0.93206590425E+03  0.25500000000E-02 0.  1.
    5000001    1    1    2    0    0 -0.35426096829E+01  0.16809176188E+03 -0.49668999570E+03  0.55841950389E+03  0.19200000000E+03 0.  0.
   -5000001    1    1    2    0    0  0.35426096829E+01 -0.16809176188E+03 -0.36425800584E+03  0.44476430310E+03  0.19200000000E+03 0.  0.
<mgrwt>
<rscale>  0 0.51492358E+03</rscale>
<asrwt>0</asrwt>
<pdfrwt beam="1">  1        2 0.13315226E+00 0.51492358E+03</pdfrwt>
<pdfrwt beam="2">  1       -2 0.10159701E-01 0.51492358E+03</pdfrwt>
<totfact> 0.20763321E+03</totfact>
</mgrwt>
</event>
<event>
 4    1  0.5621415E-005  0.4767884E+03  0.7818608E-02  0.1020022E+00
          2   -1    0    0  501    0  0.00000000000E+00  0.00000000000E+00  0.41473907770E+03  0.41473907771E+03  0.25500000000E-02 0. -1.
         -2   -1    0    0    0  501 -0.00000000000E+00 -0.00000000000E+00 -0.13703024674E+03  0.13703024676E+03  0.25500000000E-02 0.  1.
    5000001    1    1    2    0    0 -0.61422715843E+02  0.11615019243E+03  0.19903407569E+03  0.30617344840E+03  0.19200000000E+03 0.  0.
   -5000001    1    1    2    0    0  0.61422715843E+02 -0.11615019243E+03  0.78674755282E+02  0.24559587607E+03  0.19200000000E+03 0.  0.
<mgrwt>
<rscale>  0 0.47678841E+03</rscale>
<asrwt>0</asrwt>
<pdfrwt beam="1">  1        2 0.59248440E-01 0.47678841E+03</pdfrwt>
<pdfrwt beam="2">  1       -2 0.19575749E-01 0.47678841E+03</pdfrwt>
<totfact> 0.18293636E+03</totfact>
</mgrwt>
</event>
<event>
 4    1  0.5621415E-005  0.1104324E+04  0.7818608E-02  0.9200988E-01
         -2   -1    0    0    0  501 -0.00000000000E+00  0.00000000000E+00  0.28798088689E+03  0.28798088691E+03  0.25500000000E-02 0. -1.
          2   -1    0    0  501    0  0.00000000000E+00 -0.00000000000E+00 -0.10586905875E+04  0.10586905875E+04  0.25500000000E-02 0.  1.
    5000001    1    1    2    0    0 -0.22003400341E+03 -0.42593504894E+03 -0.62364192021E+03  0.80970912877E+03  0.19200000000E+03 0.  0.
   -5000001    1    1    2    0    0  0.22003400341E+03  0.42593504894E+03 -0.14706778035E+03  0.53696234560E+03  0.19200000000E+03 0.  0.
<mgrwt>
<rscale>  0 0.11043236E+04</rscale>
<asrwt>0</asrwt>
<pdfrwt beam="1">  1        2 0.15124151E+00 0.11043236E+04</pdfrwt>
<pdfrwt beam="2">  1       -2 0.41140127E-01 0.11043236E+04</pdfrwt>
<totfact> 0.14349947E+02</totfact>
</mgrwt>
</event>
<event>
 4    1  0.5621415E-005  0.5009016E+03  0.7818608E-02  0.1013544E+00
         -2   -1    0    0    0  501 -0.00000000000E+00  0.00000000000E+00  0.31840188626E+03  0.31840188627E+03  0.25500000000E-02 0. -1.
          2   -1    0    0  501    0  0.00000000000E+00 -0.00000000000E+00 -0.19700133930E+03  0.19700133932E+03  0.25500000000E-02 0.  1.
    5000001    1    1    2    0    0  0.16032315086E+03  0.30895626675E+01  0.48159730233E+02  0.25474775311E+03  0.19200000000E+03 0.  0.
   -5000001    1    1    2    0    0 -0.16032315086E+03 -0.30895626675E+01  0.73240816726E+02  0.26065547248E+03  0.19200000000E+03 0.  0.
<mgrwt>
<rscale>  0 0.50090158E+03</rscale>
<asrwt>0</asrwt>
<pdfrwt beam="1">  1        2 0.28143048E-01 0.50090158E+03</pdfrwt>
<pdfrwt beam="2">  1       -2 0.45485984E-01 0.50090158E+03</pdfrwt>
<totfact> 0.87986070E+02</totfact>
</mgrwt>
</event>
<event>
 4    1  0.5621415E-005  0.4266687E+03  0.7818608E-02  0.1034917E+00
          2   -1    0    0  501    0  0.00000000000E+00  0.00000000000E+00  0.54084227741E+03  0.54084227742E+03  0.25500000000E-02 0.  1.
         -2   -1    0    0    0  501 -0.00000000000E+00 -0.00000000000E+00 -0.84149395172E+02  0.84149395210E+02  0.25500000000E-02 0. -1.
    5000001    1    1    2    0    0 -0.51995364809E+02  0.77076253537E+02  0.22569204022E+03  0.31055621687E+03  0.19200000000E+03 0.  0.
   -5000001    1    1    2    0    0  0.51995364809E+02 -0.77076253537E+02  0.23100084203E+03  0.31443545576E+03  0.19200000000E+03 0.  0.
<mgrwt>
<rscale>  0 0.42666873E+03</rscale>
<asrwt>0</asrwt>
<pdfrwt beam="1">  1        2 0.77263183E-01 0.42666873E+03</pdfrwt>
<pdfrwt beam="2">  1       -2 0.12021342E-01 0.42666873E+03</pdfrwt>
<totfact> 0.30760620E+03</totfact>
</mgrwt>
</event>
<event>
 4    1  0.5621415E-005  0.2277689E+04  0.7818608E-02  0.8486770E-01
         -2   -1    0    0    0  501 -0.00000000000E+00  0.00000000000E+00  0.15060414238E+04  0.15060414238E+04  0.25500000000E-02 0.  1.
          2   -1    0    0  501    0  0.00000000000E+00 -0.00000000000E+00 -0.86117576158E+03  0.86117576159E+03  0.25500000000E-02 0. -1.
    5000001    1    1    2    0    0  0.30437599289E+03  0.57747378061E+03  0.12715547462E+04  0.14421637164E+04  0.19200000000E+03 0.  0.
   -5000001    1    1    2    0    0 -0.30437599289E+03 -0.57747378061E+03 -0.62668908403E+03  0.92505346894E+03  0.19200000000E+03 0.  0.
<mgrwt>
<rscale>  0 0.22776886E+04</rscale>
<asrwt>0</asrwt>
<pdfrwt beam="1">  1        2 0.12302511E+00 0.22776886E+04</pdfrwt>
<pdfrwt beam="2">  1       -2 0.21514877E+00 0.22776886E+04</pdfrwt>
<totfact> 0.33396430E+00</totfact>
</mgrwt>
</event>
<event>
 4    1  0.5621415E-005  0.7974534E+03  0.7818608E-02  0.9563710E-01
          2   -1    0    0  501    0  0.00000000000E+00  0.00000000000E+00  0.42625811258E+03  0.42625811258E+03  0.25500000000E-02 0.  1.
         -2   -1    0    0    0  501 -0.00000000000E+00 -0.00000000000E+00 -0.37297353100E+03  0.37297353100E+03  0.25500000000E-02 0. -1.
    5000001    1    1    2    0    0 -0.34882910058E+02 -0.28319966918E+03  0.22883486545E+03  0.41309595215E+03  0.19200000000E+03 0.  0.
   -5000001    1    1    2    0    0  0.34882910058E+02  0.28319966918E+03 -0.17555028387E+03  0.38613569144E+03  0.19200000000E+03 0.  0.
<mgrwt>
<rscale>  0 0.79745343E+03</rscale>
<asrwt>0</asrwt>
<pdfrwt beam="1">  1        2 0.60894016E-01 0.79745343E+03</pdfrwt>
<pdfrwt beam="2">  1       -2 0.53281933E-01 0.79745343E+03</pdfrwt>
<totfact> 0.26912221E+02</totfact>
</mgrwt>
</event>
<event>
 4    1  0.5621415E-005  0.4846751E+03  0.7818608E-02  0.1017858E+00
          2   -1    0    0  501    0  0.00000000000E+00  0.00000000000E+00  0.80533424366E+03  0.80533424366E+03  0.25500000000E-02 0.  1.
         -2   -1    0    0    0  501 -0.00000000000E+00 -0.00000000000E+00 -0.72923119086E+02  0.72923119130E+02  0.25500000000E-02 0. -1.
    5000001    1    1    2    0    0  0.13528839182E+03 -0.54859895225E+02  0.32367329935E+03  0.40365946263E+03  0.19200000000E+03 0.  0.
   -5000001    1    1    2    0    0 -0.13528839182E+03  0.54859895225E+02  0.40873782522E+03  0.47459790016E+03  0.19200000000E+03 0.  0.
<mgrwt>
<rscale>  0 0.48467509E+03</rscale>
<asrwt>0</asrwt>
<pdfrwt beam="1">  1        2 0.11504775E+00 0.48467509E+03</pdfrwt>
<pdfrwt beam="2">  1       -2 0.10417589E-01 0.48467509E+03</pdfrwt>
<totfact> 0.24140267E+03</totfact>
</mgrwt>
</event>
<event>
 4    1  0.5621415E-005  0.1010370E+04  0.7818608E-02  0.9297243E-01
          2   -1    0    0  501    0  0.00000000000E+00  0.00000000000E+00  0.96494260828E+03  0.96494260828E+03  0.25500000000E-02 0.  1.
         -2   -1    0    0    0  501 -0.00000000000E+00 -0.00000000000E+00 -0.26448413323E+03  0.26448413324E+03  0.25500000000E-02 0. -1.
    5000001    1    1    2    0    0 -0.18707283178E+03 -0.21652863819E+03  0.79973587559E+03  0.87081706819E+03  0.19200000000E+03 0.  0.
   -5000001    1    1    2    0    0  0.18707283178E+03  0.21652863819E+03 -0.99277400546E+02  0.35860967333E+03  0.19200000000E+03 0.  0.
<mgrwt>
<rscale>  0 0.10103702E+04</rscale>
<asrwt>0</asrwt>
<pdfrwt beam="1">  1        2 0.13784894E+00 0.10103702E+04</pdfrwt>
<pdfrwt beam="2">  1       -2 0.37783447E-01 0.10103702E+04</pdfrwt>
<totfact> 0.19446847E+02</totfact>
</mgrwt>
</event>
<event>
 4    1  0.5621415E-005  0.4606306E+03  0.7818608E-02  0.1024598E+00
         -2   -1    0    0    0  501 -0.00000000000E+00  0.00000000000E+00  0.56394540237E+02  0.56394540295E+02  0.25500000000E-02 0. -1.
          2   -1    0    0  501    0  0.00000000000E+00 -0.00000000000E+00 -0.94060781770E+03  0.94060781771E+03  0.25500000000E-02 0.  1.
    5000001    1    1    2    0    0  0.69502887025E+02 -0.99970020833E+02 -0.52182374383E+03  0.56920003162E+03  0.19200000000E+03 0.  0.
   -5000001    1    1    2    0    0 -0.69502887025E+02  0.99970020833E+02 -0.36238953364E+03  0.42780232639E+03  0.19200000000E+03 0.  0.
<mgrwt>
<rscale>  0 0.46063063E+03</rscale>
<asrwt>0</asrwt>
<pdfrwt beam="1">  1        2 0.13437254E+00 0.46063063E+03</pdfrwt>
<pdfrwt beam="2">  1       -2 0.80563635E-02 0.46063063E+03</pdfrwt>
<totfact> 0.29724683E+03</totfact>
</mgrwt>
</event>
<event>
 4    1  0.5621415E-005  0.4546758E+03  0.7818608E-02  0.1026337E+00
          2   -1    0    0  501    0  0.00000000000E+00  0.00000000000E+00  0.13792613079E+04  0.13792613079E+04  0.25500000000E-02 0.  1.
         -2   -1    0    0    0  501 -0.00000000000E+00 -0.00000000000E+00 -0.37471163434E+02  0.37471163521E+02  0.25500000000E-02 0. -1.
    5000001    1    1    2    0    0 -0.82752732248E+01 -0.11848787382E+03  0.58782973284E+03  0.62969488738E+03  0.19200000000E+03 0.  0.
   -5000001    1    1    2    0    0  0.82752732248E+01  0.11848787382E+03  0.75396041164E+03  0.78703758405E+03  0.19200000000E+03 0.  0.
<mgrwt>
<rscale>  0 0.45467582E+03</rscale>
<asrwt>0</asrwt>
<pdfrwt beam="1">  1        2 0.19703732E+00 0.45467582E+03</pdfrwt>
<pdfrwt beam="2">  1       -2 0.53530237E-02 0.45467582E+03</pdfrwt>
<totfact> 0.31787834E+03</totfact>
</mgrwt>
</event>
<event>
 4    1  0.5621415E-005  0.4615342E+03  0.7818608E-02  0.1024337E+00
         -2   -1    0    0    0  501 -0.00000000000E+00  0.00000000000E+00  0.75297655641E+02  0.75297655684E+02  0.25500000000E-02 0. -1.
          2   -1    0    0  501    0  0.00000000000E+00 -0.00000000000E+00 -0.70723926705E+03  0.70723926706E+03  0.25500000000E-02 0.  1.
    5000001    1    1    2    0    0 -0.44703937121E+02 -0.96035152514E+02 -0.19407931918E+03  0.29283438091E+03  0.19200000000E+03 0.  0.
   -5000001    1    1    2    0    0  0.44703937121E+02  0.96035152514E+02 -0.43786229223E+03  0.48970254183E+03  0.19200000000E+03 0.  0.
<mgrwt>
<rscale>  0 0.46153422E+03</rscale>
<asrwt>0</asrwt>
<pdfrwt beam="1">  1        2 0.10103418E+00 0.46153422E+03</pdfrwt>
<pdfrwt beam="2">  1       -2 0.10756808E-01 0.46153422E+03</pdfrwt>
<totfact> 0.26924227E+03</totfact>
</mgrwt>
</event>
<event>
 4    1  0.5621415E-005  0.5485655E+03  0.7818608E-02  0.1001827E+00
         -2   -1    0    0    0  501 -0.00000000000E+00  0.00000000000E+00  0.80208292074E+02  0.80208292115E+02  0.25500000000E-02 0. -1.
          2   -1    0    0  501    0  0.00000000000E+00 -0.00000000000E+00 -0.93794563220E+03  0.93794563221E+03  0.25500000000E-02 0.  1.
    5000001    1    1    2    0    0 -0.12307434639E+03  0.14725186880E+03 -0.50162432473E+03  0.57036950371E+03  0.19200000000E+03 0.  0.
   -5000001    1    1    2    0    0  0.12307434639E+03 -0.14725186880E+03 -0.35611301540E+03  0.44778442061E+03  0.19200000000E+03 0.  0.
<mgrwt>
<rscale>  0 0.54856546E+03</rscale>
<asrwt>0</asrwt>
<pdfrwt beam="1">  1        2 0.13399223E+00 0.54856546E+03</pdfrwt>
<pdfrwt beam="2">  1       -2 0.11458328E-01 0.54856546E+03</pdfrwt>
<totfact> 0.16924459E+03</totfact>
</mgrwt>
</event>
<event>
 4    1  0.5621415E-005  0.6236634E+03  0.7818608E-02  0.9857493E-01
         -2   -1    0    0    0  501 -0.00000000000E+00  0.00000000000E+00  0.31811895985E+03  0.31811895986E+03  0.25500000000E-02 0. -1.
          2   -1    0    0  501    0  0.00000000000E+00 -0.00000000000E+00 -0.30566869822E+03  0.30566869823E+03  0.25500000000E-02 0.  1.
    5000001    1    1    2    0    0  0.86845277560E+02  0.12933665890E+03  0.19627597539E+03  0.31568707938E+03  0.19200000000E+03 0.  0.
   -5000001    1    1    2    0    0 -0.86845277560E+02 -0.12933665890E+03 -0.18382571375E+03  0.30810057872E+03  0.19200000000E+03 0.  0.
<mgrwt>
<rscale>  0 0.62366340E+03</rscale>
<asrwt>0</asrwt>
<pdfrwt beam="1">  1        2 0.43666957E-01 0.62366340E+03</pdfrwt>
<pdfrwt beam="2">  1       -2 0.45445565E-01 0.62366340E+03</pdfrwt>
<totfact> 0.54020605E+02</totfact>
</mgrwt>
</event>
<event>
 4    1  0.5621415E-005  0.5515430E+03  0.7818608E-02  0.1001137E+00
          2   -1    0    0  501    0  0.00000000000E+00  0.00000000000E+00  0.89093875787E+03  0.89093875787E+03  0.25500000000E-02 0.  1.
         -2   -1    0    0    0  501 -0.00000000000E+00 -0.00000000000E+00 -0.85359326869E+02  0.85359326907E+02  0.25500000000E-02 0. -1.
    5000001    1    1    2    0    0  0.80693590284E+02  0.12437071684E+03  0.63498214557E+03  0.67973955006E+03  0.19200000000E+03 0.  0.
   -5000001    1    1    2    0    0 -0.80693590284E+02 -0.12437071684E+03  0.17059728543E+03  0.29655853472E+03  0.19200000000E+03 0.  0.
<mgrwt>
<rscale>  0 0.55154305E+03</rscale>
<asrwt>0</asrwt>
<pdfrwt beam="1">  1        2 0.12727697E+00 0.55154305E+03</pdfrwt>
<pdfrwt beam="2">  1       -2 0.12194189E-01 0.55154305E+03</pdfrwt>
<totfact> 0.16372953E+03</totfact>
</mgrwt>
</event>
<event>
 4    1  0.5621415E-005  0.8029310E+03  0.7818608E-02  0.9555784E-01
         -2   -1    0    0    0  501 -0.00000000000E+00  0.00000000000E+00  0.15978259643E+03  0.15978259645E+03  0.25500000000E-02 0. -1.
          2   -1    0    0  501    0  0.00000000000E+00 -0.00000000000E+00 -0.10087114253E+04  0.10087114253E+04  0.25500000000E-02 0.  1.
    5000001    1    1    2    0    0  0.11448420263E+03 -0.59702824131E+02  0.52992370121E+02  0.23736733379E+03  0.19200000000E+03 0.  0.
   -5000001    1    1    2    0    0 -0.11448420263E+03  0.59702824131E+02 -0.90192119898E+03  0.93112668796E+03  0.19200000000E+03 0.  0.
<mgrwt>
<rscale>  0 0.80293096E+03</rscale>
<asrwt>0</asrwt>
<pdfrwt beam="1">  1        2 0.14410163E+00 0.80293096E+03</pdfrwt>
<pdfrwt beam="2">  1       -2 0.22826086E-01 0.80293096E+03</pdfrwt>
<totfact> 0.46950072E+02</totfact>
</mgrwt>
</event>
<event>
 4    1  0.5621415E-005  0.6108592E+03  0.7818608E-02  0.9883129E-01
          2   -1    0    0  501    0  0.00000000000E+00  0.00000000000E+00  0.36269923426E+03  0.36269923427E+03  0.25500000000E-02 0.  1.
         -2   -1    0    0    0  501 -0.00000000000E+00 -0.00000000000E+00 -0.25720271228E+03  0.25720271229E+03  0.25500000000E-02 0. -1.
    5000001    1    1    2    0    0 -0.16948141721E+03 -0.14189098623E+03 -0.35523443276E+02  0.29492866557E+03  0.19200000000E+03 0.  0.
   -5000001    1    1    2    0    0  0.16948141721E+03  0.14189098623E+03  0.14101996526E+03  0.32497328099E+03  0.19200000000E+03 0.  0.
<mgrwt>
<rscale>  0 0.61085915E+03</rscale>
<asrwt>0</asrwt>
<pdfrwt beam="1">  1        2 0.51814176E-01 0.61085915E+03</pdfrwt>
<pdfrwt beam="2">  1       -2 0.36743245E-01 0.61085915E+03</pdfrwt>
<totfact> 0.67695761E+02</totfact>
</mgrwt>
</event>
<event>
 4    1  0.5621415E-005  0.6097320E+03  0.7818608E-02  0.9885418E-01
          2   -1    0    0  501    0  0.00000000000E+00  0.00000000000E+00  0.12444483177E+04  0.12444483177E+04  0.25500000000E-02 0.  1.
         -2   -1    0    0    0  501 -0.00000000000E+00 -0.00000000000E+00 -0.74686339722E+02  0.74686339766E+02  0.25500000000E-02 0. -1.
    5000001    1    1    2    0    0  0.75913213994E+02  0.22362208741E+03  0.54681161711E+03  0.62580875565E+03  0.19200000000E+03 0.  0.
   -5000001    1    1    2    0    0 -0.75913213994E+02 -0.22362208741E+03  0.62295036086E+03  0.69332590181E+03  0.19200000000E+03 0.  0.
<mgrwt>
<rscale>  0 0.60973204E+03</rscale>
<asrwt>0</asrwt>
<pdfrwt beam="1">  1        2 0.17777833E+00 0.60973204E+03</pdfrwt>
<pdfrwt beam="2">  1       -2 0.10669477E-01 0.60973204E+03</pdfrwt>
<totfact> 0.12562039E+03</totfact>
</mgrwt>
</event>
<event>
 4    1  0.5621415E-005  0.7794863E+03  0.7818608E-02  0.9590194E-01
         -2   -1    0    0    0  501 -0.00000000000E+00  0.00000000000E+00  0.44603548157E+03  0.44603548158E+03  0.25500000000E-02 0. -1.
          2   -1    0    0  501    0  0.00000000000E+00 -0.00000000000E+00 -0.34055522946E+03  0.34055522947E+03  0.25500000000E-02 0.  1.
    5000001    1    1    2    0    0  0.14545761640E+03  0.27403405510E+03 -0.85560570851E+02  0.37474950675E+03  0.19200000000E+03 0.  0.
   -5000001    1    1    2    0    0 -0.14545761640E+03 -0.27403405510E+03  0.19104082296E+03  0.41184120430E+03  0.19200000000E+03 0.  0.
<mgrwt>
<rscale>  0 0.77948628E+03</rscale>
<asrwt>0</asrwt>
<pdfrwt beam="1">  1        2 0.48650747E-01 0.77948628E+03</pdfrwt>
<pdfrwt beam="2">  1       -2 0.63719354E-01 0.77948628E+03</pdfrwt>
<totfact> 0.23772780E+02</totfact>
</mgrwt>
</event>
<event>
 4    1  0.5621415E-005  0.7050032E+03  0.7818608E-02  0.9708714E-01
         -2   -1    0    0    0  501 -0.00000000000E+00  0.00000000000E+00  0.14183990211E+03  0.14183990213E+03  0.25500000000E-02 0. -1.
          2   -1    0    0  501    0  0.00000000000E+00 -0.00000000000E+00 -0.87603972642E+03  0.87603972642E+03  0.25500000000E-02 0.  1.
    5000001    1    1    2    0    0 -0.23383230076E+03  0.17285830688E+03 -0.44398585359E+03  0.56439788919E+03  0.19200000000E+03 0.  0.
   -5000001    1    1    2    0    0  0.23383230076E+03 -0.17285830688E+03 -0.29021397071E+03  0.45348173936E+03  0.19200000000E+03 0.  0.
<mgrwt>
<rscale>  0 0.70500323E+03</rscale>
<asrwt>0</asrwt>
<pdfrwt beam="1">  1        2 0.12514853E+00 0.70500323E+03</pdfrwt>
<pdfrwt beam="2">  1       -2 0.20262844E-01 0.70500323E+03</pdfrwt>
<totfact> 0.70579459E+02</totfact>
</mgrwt>
</event>
<event>
 4    1  0.5621415E-005  0.6391526E+03  0.7818608E-02  0.9827349E-01
          2   -1    0    0  501    0  0.00000000000E+00  0.00000000000E+00  0.14275439367E+04  0.14275439367E+04  0.25500000000E-02 0.  1.
         -2   -1    0    0    0  501 -0.00000000000E+00 -0.00000000000E+00 -0.71541771354E+02  0.71541771399E+02  0.25500000000E-02 0. -1.
    5000001    1    1    2    0    0  0.11482613192E+03  0.21910098237E+03  0.52828381895E+03  0.61411568487E+03  0.19200000000E+03 0.  0.
   -5000001    1    1    2    0    0 -0.11482613192E+03 -0.21910098237E+03  0.82771834641E+03  0.88497002324E+03  0.19200000000E+03 0.  0.
<mgrwt>
<rscale>  0 0.63915263E+03</rscale>
<asrwt>0</asrwt>
<pdfrwt beam="1">  1        2 0.20393482E+00 0.63915263E+03</pdfrwt>
<pdfrwt beam="2">  1       -2 0.10220254E-01 0.63915263E+03</pdfrwt>
<totfact> 0.10718809E+03</totfact>
</mgrwt>
</event>
<event>
 4    1  0.5621415E-005  0.8546047E+03  0.7818608E-02  0.9484177E-01
         -2   -1    0    0    0  501 -0.00000000000E+00  0.00000000000E+00  0.79135512168E+03  0.79135512168E+03  0.25500000000E-02 0. -1.
          2   -1    0    0  501    0  0.00000000000E+00 -0.00000000000E+00 -0.23072739188E+03  0.23072739190E+03  0.25500000000E-02 0.  1.
    5000001    1    1    2    0    0  0.36724830450E+03  0.10349021835E+03  0.29455349822E+03  0.51885191121E+03  0.19200000000E+03 0.  0.
   -5000001    1    1    2    0    0 -0.36724830450E+03 -0.10349021835E+03  0.26607423157E+03  0.50323060237E+03  0.19200000000E+03 0.  0.
<mgrwt>
<rscale>  0 0.85460471E+03</rscale>
<asrwt>0</asrwt>
<pdfrwt beam="1">  1        2 0.32961056E-01 0.85460471E+03</pdfrwt>
<pdfrwt beam="2">  1       -2 0.11305073E+00 0.85460471E+03</pdfrwt>
<totfact> 0.98886155E+01</totfact>
</mgrwt>
</event>
<event>
 4    1  0.5621415E-005  0.4941177E+03  0.7818608E-02  0.1015326E+00
         -2   -1    0    0    0  501 -0.00000000000E+00  0.00000000000E+00  0.87067758288E+02  0.87067758326E+02  0.25500000000E-02 0. -1.
          2   -1    0    0  501    0  0.00000000000E+00 -0.00000000000E+00 -0.70104104468E+03  0.70104104468E+03  0.25500000000E-02 0.  1.
    5000001    1    1    2    0    0  0.12149960770E+03 -0.17265591785E-01 -0.15224940931E+03  0.27350692423E+03  0.19200000000E+03 0.  0.
   -5000001    1    1    2    0    0 -0.12149960770E+03  0.17265591785E-01 -0.46172387708E+03  0.51460187877E+03  0.19200000000E+03 0.  0.
<mgrwt>
<rscale>  0 0.49411769E+03</rscale>
<asrwt>0</asrwt>
<pdfrwt beam="1">  1        2 0.10014872E+00 0.49411769E+03</pdfrwt>
<pdfrwt beam="2">  1       -2 0.12438252E-01 0.49411769E+03</pdfrwt>
<totfact> 0.21478998E+03</totfact>
</mgrwt>
</event>
<event>
 4    1  0.5621415E-005  0.6751308E+03  0.7818608E-02  0.9760733E-01
          2   -1    0    0  501    0  0.00000000000E+00  0.00000000000E+00  0.15573977485E+04  0.15573977485E+04  0.25500000000E-02 0.  1.
         -2   -1    0    0    0  501 -0.00000000000E+00 -0.00000000000E+00 -0.73167186655E+02  0.73167186700E+02  0.25500000000E-02 0. -1.
    5000001    1    1    2    0    0 -0.11327871267E+03 -0.24183103554E+03  0.92560718193E+03  0.98230696411E+03  0.19200000000E+03 0.  0.
   -5000001    1    1    2    0    0  0.11327871267E+03  0.24183103554E+03  0.55862337989E+03  0.64825797107E+03  0.19200000000E+03 0.  0.
<mgrwt>
<rscale>  0 0.67513084E+03</rscale>
<asrwt>0</asrwt>
<pdfrwt beam="1">  1        2 0.22248538E+00 0.67513084E+03</pdfrwt>
<pdfrwt beam="2">  1       -2 0.10452456E-01 0.67513084E+03</pdfrwt>
<totfact> 0.88225873E+02</totfact>
</mgrwt>
</event>
<event>
 4    1  0.5621415E-005  0.4972026E+03  0.7818608E-02  0.1014512E+00
          2   -1    0    0  501    0  0.00000000000E+00  0.00000000000E+00  0.89369924463E+03  0.89369924463E+03  0.25500000000E-02 0.  1.
         -2   -1    0    0    0  501 -0.00000000000E+00 -0.00000000000E+00 -0.69153692220E+02  0.69153692267E+02  0.25500000000E-02 0. -1.
    5000001    1    1    2    0    0  0.11963561076E+03 -0.60874321941E+02  0.57336966866E+03  0.61938286978E+03  0.19200000000E+03 0.  0.
   -5000001    1    1    2    0    0 -0.11963561076E+03  0.60874321941E+02  0.25117588375E+03  0.34347006712E+03  0.19200000000E+03 0.  0.
<mgrwt>
<rscale>  0 0.49720258E+03</rscale>
<asrwt>0</asrwt>
<pdfrwt beam="1">  1        2 0.12767132E+00 0.49720258E+03</pdfrwt>
<pdfrwt beam="2">  1       -2 0.98790990E-02 0.49720258E+03</pdfrwt>
<totfact> 0.22980918E+03</totfact>
</mgrwt>
</event>
<event>
 4    1  0.5621415E-005  0.1133462E+04  0.7818608E-02  0.9173177E-01
         -2   -1    0    0    0  501 -0.00000000000E+00  0.00000000000E+00  0.83110499124E+03  0.83110499124E+03  0.25500000000E-02 0. -1.
          2   -1    0    0  501    0  0.00000000000E+00 -0.00000000000E+00 -0.38645436301E+03  0.38645436302E+03  0.25500000000E-02 0.  1.
    5000001    1    1    2    0    0 -0.52157527456E+03  0.63195538439E+02  0.32010482849E+03  0.64448859131E+03  0.19200000000E+03 0.  0.
   -5000001    1    1    2    0    0  0.52157527456E+03 -0.63195538439E+02  0.12454579974E+03  0.57307076295E+03  0.19200000000E+03 0.  0.
<mgrwt>
<rscale>  0 0.11334622E+04</rscale>
<asrwt>0</asrwt>
<pdfrwt beam="1">  1        2 0.55207768E-01 0.11334622E+04</pdfrwt>
<pdfrwt beam="2">  1       -2 0.11872928E+00 0.11334622E+04</pdfrwt>
<totfact> 0.48589203E+01</totfact>
</mgrwt>
</event>
<event>
 4    1  0.5621415E-005  0.9807957E+03  0.7818608E-02  0.9329862E-01
         -2   -1    0    0    0  501 -0.00000000000E+00  0.00000000000E+00  0.24211510918E+03  0.24211510919E+03  0.25500000000E-02 0. -1.
          2   -1    0    0  501    0  0.00000000000E+00 -0.00000000000E+00 -0.99328813749E+03  0.99328813749E+03  0.25500000000E-02 0.  1.
    5000001    1    1    2    0    0  0.20451270329E+03  0.40200804720E+03 -0.39295565714E+03  0.62826273508E+03  0.19200000000E+03 0.  0.
   -5000001    1    1    2    0    0 -0.20451270329E+03 -0.40200804720E+03 -0.35821737117E+03  0.60714051160E+03  0.19200000000E+03 0.  0.
<mgrwt>
<rscale>  0 0.98079573E+03</rscale>
<asrwt>0</asrwt>
<pdfrwt beam="1">  1        2 0.14189830E+00 0.98079573E+03</pdfrwt>
<pdfrwt beam="2">  1       -2 0.34587873E-01 0.98079573E+03</pdfrwt>
<totfact> 0.22152964E+02</totfact>
</mgrwt>
</event>
