<event>
 4    1  0.5121375E-004  0.2333479E+03  0.7818608E-02  0.1124305E+00
         -2   -1    0    0    0  501 -0.00000000000E+00  0.00000000000E+00  0.40960438605E+02  0.40960438685E+02  0.25500000000E-02 0. -1.
          2   -1    0    0  501    0  0.00000000000E+00 -0.00000000000E+00 -0.33234035975E+03  0.33234035976E+03  0.25500000000E-02 0.  1.
    5000001    1    1    2    0    0 -0.48195555438E+02  0.43410402344E+02 -0.24001526524E+03  0.26027601147E+03  0.77000000000E+02 0.  0.
   -5000001    1    1    2    0    0  0.48195555438E+02 -0.43410402344E+02 -0.51364655904E+02  0.11302478698E+03  0.77000000000E+02 0.  0.
<mgrwt>
<rscale>  0 0.23334787E+03</rscale>
<asrwt>0</asrwt>
<pdfrwt beam="1">  1        2 0.47477193E-01 0.23334787E+03</pdfrwt>
<pdfrwt beam="2">  1       -2 0.58514914E-02 0.23334787E+03</pdfrwt>
<totfact> 0.15982640E+04</totfact>
</mgrwt>
</event>
<event>
 4    1  0.5121375E-004  0.1966722E+03  0.7818608E-02  0.1152577E+00
          2   -1    0    0  501    0  0.00000000000E+00  0.00000000000E+00  0.17718550450E+03  0.17718550452E+03  0.25500000000E-02 0.  1.
         -2   -1    0    0    0  501 -0.00000000000E+00 -0.00000000000E+00 -0.54575523604E+02  0.54575523664E+02  0.25500000000E-02 0. -1.
    5000001    1    1    2    0    0  0.39612660627E+02 -0.21614573423E+02  0.12651547746E+02  0.90141080128E+02  0.77000000000E+02 0.  0.
   -5000001    1    1    2    0    0 -0.39612660627E+02  0.21614573423E+02  0.10995843315E+03  0.14161994805E+03  0.77000000000E+02 0.  0.
<mgrwt>
<rscale>  0 0.19667223E+03</rscale>
<asrwt>0</asrwt>
<pdfrwt beam="1">  1        2 0.25312215E-01 0.19667223E+03</pdfrwt>
<pdfrwt beam="2">  1       -2 0.77965034E-02 0.19667223E+03</pdfrwt>
<totfact> 0.20084292E+04</totfact>
</mgrwt>
</event>
<event>
 4    1  0.5121375E-004  0.2566589E+03  0.7818608E-02  0.1109167E+00
          2   -1    0    0  501    0  0.00000000000E+00  0.00000000000E+00  0.30476429412E+03  0.30476429413E+03  0.25500000000E-02 0.  1.
         -2   -1    0    0    0  501 -0.00000000000E+00 -0.00000000000E+00 -0.54036662192E+02  0.54036662253E+02  0.25500000000E-02 0. -1.
    5000001    1    1    2    0    0  0.90222559476E+02  0.96028044714E+01  0.58215906697E+02  0.13247798264E+03  0.77000000000E+02 0.  0.
   -5000001    1    1    2    0    0 -0.90222559476E+02 -0.96028044714E+01  0.19251172523E+03  0.22632297374E+03  0.77000000000E+02 0.  0.
<mgrwt>
<rscale>  0 0.25665888E+03</rscale>
<asrwt>0</asrwt>
<pdfrwt beam="1">  1        2 0.43537756E-01 0.25665888E+03</pdfrwt>
<pdfrwt beam="2">  1       -2 0.77195232E-02 0.25665888E+03</pdfrwt>
<totfact> 0.11500418E+04</totfact>
</mgrwt>
</event>
<event>
 4    1  0.5121375E-004  0.2110699E+03  0.7818608E-02  0.1140722E+00
         -2   -1    0    0    0  501 -0.00000000000E+00  0.00000000000E+00  0.38162391740E+01  0.38162400260E+01  0.25500000000E-02 0. -1.
          2   -1    0    0  501    0  0.00000000000E+00 -0.00000000000E+00 -0.29184805374E+04  0.29184805374E+04  0.25500000000E-02 0.  1.
    5000001    1    1    2    0    0  0.19276449892E+01 -0.44433527813E+02 -0.22442646242E+04  0.22460255470E+04  0.77000000000E+02 0.  0.
   -5000001    1    1    2    0    0 -0.19276449892E+01  0.44433527813E+02 -0.67039967404E+03  0.67627123047E+03  0.77000000000E+02 0.  0.
<mgrwt>
<rscale>  0 0.21106986E+03</rscale>
<asrwt>0</asrwt>
<pdfrwt beam="1">  1        2 0.41692436E+00 0.21106986E+03</pdfrwt>
<pdfrwt beam="2">  1       -2 0.54517895E-03 0.21106986E+03</pdfrwt>
<totfact> 0.15654486E+04</totfact>
</mgrwt>
</event>
<event>
 4    1  0.5121375E-004  0.1923991E+03  0.7818608E-02  0.1156315E+00
          2   -1    0    0  501    0  0.00000000000E+00  0.00000000000E+00  0.16177403278E+04  0.16177403278E+04  0.25500000000E-02 0.  1.
         -2   -1    0    0    0  501 -0.00000000000E+00 -0.00000000000E+00 -0.57205423659E+01  0.57205429342E+01  0.25500000000E-02 0. -1.
    5000001    1    1    2    0    0 -0.24123487446E+02  0.46621682681E+02  0.60458602435E+03  0.61172607005E+03  0.77000000000E+02 0.  0.
   -5000001    1    1    2    0    0  0.24123487446E+02 -0.46621682681E+02  0.10074337611E+04  0.10117348007E+04  0.77000000000E+02 0.  0.
<mgrwt>
<rscale>  0 0.19239909E+03</rscale>
<asrwt>0</asrwt>
<pdfrwt beam="1">  1        2 0.23110568E+00 0.19239909E+03</pdfrwt>
<pdfrwt beam="2">  1       -2 0.81722065E-03 0.19239909E+03</pdfrwt>
<totfact> 0.38058122E+04</totfact>
</mgrwt>
</event>
<event>
 4    1  0.5121375E-004  0.4238732E+03  0.7818608E-02  0.1035813E+00
          2   -1    0    0  501    0  0.00000000000E+00  0.00000000000E+00  0.45044746176E+03  0.45044746177E+03  0.25500000000E-02 0.  1.
         -2   -1    0    0    0  501 -0.00000000000E+00 -0.00000000000E+00 -0.99716680346E+02  0.99716680378E+02  0.25500000000E-02 0. -1.
    5000001    1    1    2    0    0 -0.14730181460E+03 -0.12770811092E+03  0.13471381407E+03  0.24916660667E+03  0.77000000000E+02 0.  0.
   -5000001    1    1    2    0    0  0.14730181460E+03  0.12770811092E+03  0.21601696734E+03  0.30099753547E+03  0.77000000000E+02 0.  0.
<mgrwt>
<rscale>  0 0.42387321E+03</rscale>
<asrwt>0</asrwt>
<pdfrwt beam="1">  1        2 0.64349639E-01 0.42387321E+03</pdfrwt>
<pdfrwt beam="2">  1       -2 0.14245240E-01 0.42387321E+03</pdfrwt>
<totfact> 0.28560471E+03</totfact>
</mgrwt>
</event>
<event>
 4    1  0.5121375E-004  0.2935969E+03  0.7818608E-02  0.1088486E+00
          2   -1    0    0  501    0  0.00000000000E+00  0.00000000000E+00  0.10505037390E+03  0.10505037393E+03  0.25500000000E-02 0.  1.
         -2   -1    0    0    0  501 -0.00000000000E+00 -0.00000000000E+00 -0.20513762935E+03  0.20513762937E+03  0.25500000000E-02 0. -1.
    5000001    1    1    2    0    0  0.93513080212E+02  0.53997830236E+02 -0.11653094791E+03  0.17654722785E+03  0.77000000000E+02 0.  0.
   -5000001    1    1    2    0    0 -0.93513080212E+02 -0.53997830236E+02  0.16443692456E+02  0.13364077545E+03  0.77000000000E+02 0.  0.
<mgrwt>
<rscale>  0 0.29359690E+03</rscale>
<asrwt>0</asrwt>
<pdfrwt beam="1">  1        2 0.15007196E-01 0.29359690E+03</pdfrwt>
<pdfrwt beam="2">  1       -2 0.29305375E-01 0.29359690E+03</pdfrwt>
<totfact> 0.41461773E+03</totfact>
</mgrwt>
</event>
<event>
 4    1  0.5121375E-004  0.2783599E+03  0.7818608E-02  0.1096588E+00
          2   -1    0    0  501    0  0.00000000000E+00  0.00000000000E+00  0.22421174170E+03  0.22421174172E+03  0.25500000000E-02 0.  1.
         -2   -1    0    0    0  501 -0.00000000000E+00 -0.00000000000E+00 -0.86396242664E+02  0.86396242702E+02  0.25500000000E-02 0. -1.
    5000001    1    1    2    0    0 -0.13776500514E+02  0.10970552027E+03  0.10783412546E+03  0.17257546685E+03  0.77000000000E+02 0.  0.
   -5000001    1    1    2    0    0  0.13776500514E+02 -0.10970552027E+03  0.29981373580E+02  0.13803251757E+03  0.77000000000E+02 0.  0.
<mgrwt>
<rscale>  0 0.27835985E+03</rscale>
<asrwt>0</asrwt>
<pdfrwt beam="1">  1        2 0.32030249E-01 0.27835985E+03</pdfrwt>
<pdfrwt beam="2">  1       -2 0.12342320E-01 0.27835985E+03</pdfrwt>
<totfact> 0.76425425E+03</totfact>
</mgrwt>
</event>
<event>
 4    1  0.5121375E-004  0.3042443E+03  0.7818608E-02  0.1083138E+00
         -2   -1    0    0    0  501 -0.00000000000E+00  0.00000000000E+00  0.13679310190E+02  0.13679310427E+02  0.25500000000E-02 0. -1.
          2   -1    0    0  501    0  0.00000000000E+00 -0.00000000000E+00 -0.16916892751E+04  0.16916892751E+04  0.25500000000E-02 0.  1.
    5000001    1    1    2    0    0 -0.20536511856E+02 -0.12945889777E+03 -0.87010686606E+03  0.88328721993E+03  0.77000000000E+02 0.  0.
   -5000001    1    1    2    0    0  0.20536511856E+02  0.12945889777E+03 -0.80790309885E+03  0.82208136559E+03  0.77000000000E+02 0.  0.
<mgrwt>
<rscale>  0 0.30424426E+03</rscale>
<asrwt>0</asrwt>
<pdfrwt beam="1">  1        2 0.24166976E+00 0.30424426E+03</pdfrwt>
<pdfrwt beam="2">  1       -2 0.19541883E-02 0.30424426E+03</pdfrwt>
<totfact> 0.10028627E+04</totfact>
</mgrwt>
</event>
<event>
 4    1  0.5121375E-004  0.2030000E+03  0.7818608E-02  0.1147232E+00
          2   -1    0    0  501    0  0.00000000000E+00  0.00000000000E+00  0.42717138992E+02  0.42717139068E+02  0.25500000000E-02 0.  1.
         -2   -1    0    0    0  501 -0.00000000000E+00 -0.00000000000E+00 -0.24117366249E+03  0.24117366250E+03  0.25500000000E-02 0. -1.
    5000001    1    1    2    0    0 -0.48651280367E+02  0.44638246422E+02 -0.10440994423E+03  0.14556770445E+03  0.77000000000E+02 0.  0.
   -5000001    1    1    2    0    0  0.48651280367E+02 -0.44638246422E+02 -0.94046579266E+02  0.13832309712E+03  0.77000000000E+02 0.  0.
<mgrwt>
<rscale>  0 0.20299999E+03</rscale>
<asrwt>0</asrwt>
<pdfrwt beam="1">  1        2 0.61024486E-02 0.20299999E+03</pdfrwt>
<pdfrwt beam="2">  1       -2 0.34453380E-01 0.20299999E+03</pdfrwt>
<totfact> 0.92801847E+03</totfact>
</mgrwt>
</event>
<event>
 4    1  0.5121375E-004  0.2861136E+03  0.7818608E-02  0.1092396E+00
          2   -1    0    0  501    0  0.00000000000E+00  0.00000000000E+00  0.43815776348E+03  0.43815776349E+03  0.25500000000E-02 0.  1.
         -2   -1    0    0    0  501 -0.00000000000E+00 -0.00000000000E+00 -0.46707475908E+02  0.46707475978E+02  0.25500000000E-02 0. -1.
    5000001    1    1    2    0    0  0.25991635397E+02  0.75237921489E+02  0.34918251642E+03  0.36632463706E+03  0.77000000000E+02 0.  0.
   -5000001    1    1    2    0    0 -0.25991635397E+02 -0.75237921489E+02  0.42267771146E+02  0.11854060240E+03  0.77000000000E+02 0.  0.
<mgrwt>
<rscale>  0 0.28611357E+03</rscale>
<asrwt>0</asrwt>
<pdfrwt beam="1">  1        2 0.62593967E-01 0.28611357E+03</pdfrwt>
<pdfrwt beam="2">  1       -2 0.66724965E-02 0.28611357E+03</pdfrwt>
<totfact> 0.97918631E+03</totfact>
</mgrwt>
</event>
<event>
 4    1  0.5121375E-004  0.3130013E+03  0.7818608E-02  0.1078916E+00
          2   -1    0    0  501    0  0.00000000000E+00  0.00000000000E+00  0.24228958055E+04  0.24228958055E+04  0.25500000000E-02 0.  1.
         -2   -1    0    0    0  501 -0.00000000000E+00 -0.00000000000E+00 -0.10108754013E+02  0.10108754334E+02  0.25500000000E-02 0. -1.
    5000001    1    1    2    0    0  0.50753204443E+02 -0.11684708723E+03  0.83083490988E+03  0.84406443891E+03  0.77000000000E+02 0.  0.
   -5000001    1    1    2    0    0 -0.50753204443E+02  0.11684708723E+03  0.15819521416E+04  0.15889401209E+04  0.77000000000E+02 0.  0.
<mgrwt>
<rscale>  0 0.31300133E+03</rscale>
<asrwt>0</asrwt>
<pdfrwt beam="1">  1        2 0.34612798E+00 0.31300133E+03</pdfrwt>
<pdfrwt beam="2">  1       -2 0.14441077E-02 0.31300133E+03</pdfrwt>
<totfact> 0.68343766E+03</totfact>
</mgrwt>
</event>
<event>
 4    1  0.5121375E-004  0.3113703E+03  0.7818608E-02  0.1079691E+00
         -2   -1    0    0    0  501 -0.00000000000E+00  0.00000000000E+00  0.50822336934E+02  0.50822336998E+02  0.25500000000E-02 0. -1.
          2   -1    0    0  501    0  0.00000000000E+00 -0.00000000000E+00 -0.47691371142E+03  0.47691371143E+03  0.25500000000E-02 0.  1.
    5000001    1    1    2    0    0  0.68081255990E+01 -0.13432743473E+03 -0.23810812304E+03  0.28410330613E+03  0.77000000000E+02 0.  0.
   -5000001    1    1    2    0    0 -0.68081255990E+01  0.13432743473E+03 -0.18798325145E+03  0.24363274230E+03  0.77000000000E+02 0.  0.
<mgrwt>
<rscale>  0 0.31137032E+03</rscale>
<asrwt>0</asrwt>
<pdfrwt beam="1">  1        2 0.68130528E-01 0.31137032E+03</pdfrwt>
<pdfrwt beam="2">  1       -2 0.72603341E-02 0.31137032E+03</pdfrwt>
<totfact> 0.78511437E+03</totfact>
</mgrwt>
</event>
<event>
 4    1  0.5121375E-004  0.2349143E+03  0.7818608E-02  0.1123228E+00
         -2   -1    0    0    0  501 -0.00000000000E+00  0.00000000000E+00  0.12112337476E+02  0.12112337744E+02  0.25500000000E-02 0. -1.
          2   -1    0    0  501    0  0.00000000000E+00 -0.00000000000E+00 -0.11390194155E+04  0.11390194155E+04  0.25500000000E-02 0.  1.
    5000001    1    1    2    0    0  0.71850236922E+01  0.88404937949E+02 -0.56522094501E+03  0.57729608893E+03  0.77000000000E+02 0.  0.
   -5000001    1    1    2    0    0 -0.71850236922E+01 -0.88404937949E+02 -0.56168613302E+03  0.57383566432E+03  0.77000000000E+02 0.  0.
<mgrwt>
<rscale>  0 0.23491435E+03</rscale>
<asrwt>0</asrwt>
<pdfrwt beam="1">  1        2 0.16271699E+00 0.23491435E+03</pdfrwt>
<pdfrwt beam="2">  1       -2 0.17303347E-02 0.23491435E+03</pdfrwt>
<totfact> 0.22919697E+04</totfact>
</mgrwt>
</event>
<event>
 4    1  0.5121375E-004  0.2593408E+03  0.7818608E-02  0.1107540E+00
          2   -1    0    0  501    0  0.00000000000E+00  0.00000000000E+00  0.40975771951E+03  0.40975771952E+03  0.25500000000E-02 0.  1.
         -2   -1    0    0    0  501 -0.00000000000E+00 -0.00000000000E+00 -0.41035018733E+02  0.41035018812E+02  0.25500000000E-02 0. -1.
    5000001    1    1    2    0    0 -0.95439951603E+02  0.35533623231E+02  0.14495333023E+03  0.19316286052E+03  0.77000000000E+02 0.  0.
   -5000001    1    1    2    0    0  0.95439951603E+02 -0.35533623231E+02  0.22376937055E+03  0.25762987780E+03  0.77000000000E+02 0.  0.
<mgrwt>
<rscale>  0 0.25934082E+03</rscale>
<asrwt>0</asrwt>
<pdfrwt beam="1">  1        2 0.58536820E-01 0.25934082E+03</pdfrwt>
<pdfrwt beam="2">  1       -2 0.58621453E-02 0.25934082E+03</pdfrwt>
<totfact> 0.12794873E+04</totfact>
</mgrwt>
</event>
<event>
 4    1  0.5121375E-004  0.3042229E+03  0.7818608E-02  0.1083148E+00
          2   -1    0    0  501    0  0.00000000000E+00  0.00000000000E+00  0.53840272534E+03  0.53840272535E+03  0.25500000000E-02 0.  1.
         -2   -1    0    0    0  501 -0.00000000000E+00 -0.00000000000E+00 -0.42975073913E+02  0.42975073989E+02  0.25500000000E-02 0. -1.
    5000001    1    1    2    0    0  0.80087228345E+02  0.59554475782E+02  0.85016090528E+02  0.15204418890E+03  0.77000000000E+02 0.  0.
   -5000001    1    1    2    0    0 -0.80087228345E+02 -0.59554475782E+02  0.41041156090E+03  0.42933361044E+03  0.77000000000E+02 0.  0.
<mgrwt>
<rscale>  0 0.30422292E+03</rscale>
<asrwt>0</asrwt>
<pdfrwt beam="1">  1        2 0.76914675E-01 0.30422292E+03</pdfrwt>
<pdfrwt beam="2">  1       -2 0.61392963E-02 0.30422292E+03</pdfrwt>
<totfact> 0.88872924E+03</totfact>
</mgrwt>
</event>
<event>
 4    1  0.5121375E-004  0.2516783E+03  0.7818608E-02  0.1112249E+00
         -2   -1    0    0    0  501 -0.00000000000E+00  0.00000000000E+00  0.16356416193E+03  0.16356416195E+03  0.25500000000E-02 0. -1.
          2   -1    0    0  501    0  0.00000000000E+00 -0.00000000000E+00 -0.96815143183E+02  0.96815143216E+02  0.25500000000E-02 0.  1.
    5000001    1    1    2    0    0 -0.90088244587E+02 -0.21748896367E+02 -0.41789096165E+01  0.12056272057E+03  0.77000000000E+02 0.  0.
   -5000001    1    1    2    0    0  0.90088244587E+02  0.21748896367E+02  0.70927928365E+02  0.13981658460E+03  0.77000000000E+02 0.  0.
<mgrwt>
<rscale>  0 0.25167827E+03</rscale>
<asrwt>0</asrwt>
<pdfrwt beam="1">  1        2 0.13830735E-01 0.25167827E+03</pdfrwt>
<pdfrwt beam="2">  1       -2 0.23366309E-01 0.25167827E+03</pdfrwt>
<totfact> 0.67939288E+03</totfact>
</mgrwt>
</event>
<event>
 4    1  0.5121375E-004  0.1977227E+03  0.7818608E-02  0.1151675E+00
         -2   -1    0    0    0  501 -0.00000000000E+00  0.00000000000E+00  0.17545439691E+02  0.17545439876E+02  0.25500000000E-02 0. -1.
          2   -1    0    0  501    0  0.00000000000E+00 -0.00000000000E+00 -0.55704339829E+03  0.55704339830E+03  0.25500000000E-02 0.  1.
    5000001    1    1    2    0    0 -0.54741868461E+02 -0.25743424814E+02 -0.23020393214E+03  0.25016443884E+03  0.77000000000E+02 0.  0.
   -5000001    1    1    2    0    0  0.54741868461E+02  0.25743424814E+02 -0.30929402646E+03  0.32442439934E+03  0.77000000000E+02 0.  0.
<mgrwt>
<rscale>  0 0.19772275E+03</rscale>
<asrwt>0</asrwt>
<pdfrwt beam="1">  1        2 0.79577617E-01 0.19772275E+03</pdfrwt>
<pdfrwt beam="2">  1       -2 0.25064917E-02 0.19772275E+03</pdfrwt>
<totfact> 0.32071045E+04</totfact>
</mgrwt>
</event>
<event>
 4    1  0.5121375E-004  0.2804949E+03  0.7818608E-02  0.1095419E+00
          2   -1    0    0  501    0  0.00000000000E+00  0.00000000000E+00  0.15229465472E+04  0.15229465472E+04  0.25500000000E-02 0.  1.
         -2   -1    0    0    0  501 -0.00000000000E+00 -0.00000000000E+00 -0.12915327542E+02  0.12915327794E+02  0.25500000000E-02 0. -1.
    5000001    1    1    2    0    0  0.22899760665E+02  0.11417617441E+03  0.82842787466E+03  0.84010852951E+03  0.77000000000E+02 0.  0.
   -5000001    1    1    2    0    0 -0.22899760665E+02 -0.11417617441E+03  0.68160334497E+03  0.69575334545E+03  0.77000000000E+02 0.  0.
<mgrwt>
<rscale>  0 0.28049495E+03</rscale>
<asrwt>0</asrwt>
<pdfrwt beam="1">  1        2 0.21756370E+00 0.28049495E+03</pdfrwt>
<pdfrwt beam="2">  1       -2 0.18450476E-02 0.28049495E+03</pdfrwt>
<totfact> 0.13225820E+04</totfact>
</mgrwt>
</event>
<event>
 4    1  0.5121375E-004  0.2117040E+03  0.7818608E-02  0.1140224E+00
          2   -1    0    0  501    0  0.00000000000E+00  0.00000000000E+00  0.59271935737E+03  0.59271935737E+03  0.25500000000E-02 0.  1.
         -2   -1    0    0    0  501 -0.00000000000E+00 -0.00000000000E+00 -0.18903801942E+02  0.18903802114E+02  0.25500000000E-02 0. -1.
    5000001    1    1    2    0    0  0.12369489329E+02  0.66075707684E+02  0.20743815424E+03  0.23125438644E+03  0.77000000000E+02 0.  0.
   -5000001    1    1    2    0    0 -0.12369489329E+02 -0.66075707684E+02  0.36637740118E+03  0.38036877305E+03  0.77000000000E+02 0.  0.
<mgrwt>
<rscale>  0 0.21170403E+03</rscale>
<asrwt>0</asrwt>
<pdfrwt beam="1">  1        2 0.84674153E-01 0.21170403E+03</pdfrwt>
<pdfrwt beam="2">  1       -2 0.27005444E-02 0.21170403E+03</pdfrwt>
<totfact> 0.26935629E+04</totfact>
</mgrwt>
</event>
<event>
 4    1  0.5121375E-004  0.2586900E+03  0.7818608E-02  0.1107933E+00
         -2   -1    0    0    0  501 -0.00000000000E+00  0.00000000000E+00  0.34024580493E+02  0.34024580589E+02  0.25500000000E-02 0. -1.
          2   -1    0    0  501    0  0.00000000000E+00 -0.00000000000E+00 -0.49170698068E+03  0.49170698069E+03  0.25500000000E-02 0.  1.
    5000001    1    1    2    0    0  0.51428757670E+02  0.57351495790E+02 -0.37062144162E+03  0.38629440091E+03  0.77000000000E+02 0.  0.
   -5000001    1    1    2    0    0 -0.51428757670E+02 -0.57351495790E+02 -0.87060958568E+02  0.13943716037E+03  0.77000000000E+02 0.  0.
<mgrwt>
<rscale>  0 0.25868996E+03</rscale>
<asrwt>0</asrwt>
<pdfrwt beam="1">  1        2 0.70243850E-01 0.25868996E+03</pdfrwt>
<pdfrwt beam="2">  1       -2 0.48606547E-02 0.25868996E+03</pdfrwt>
<totfact> 0.13949677E+04</totfact>
</mgrwt>
</event>
<event>
 4    1  0.5121375E-004  0.2534427E+03  0.7818608E-02  0.1111148E+00
          2   -1    0    0  501    0  0.00000000000E+00  0.00000000000E+00  0.55415647153E+03  0.55415647153E+03  0.25500000000E-02 0.  1.
         -2   -1    0    0    0  501 -0.00000000000E+00 -0.00000000000E+00 -0.28977928467E+02  0.28977928579E+02  0.25500000000E-02 0. -1.
    5000001    1    1    2    0    0  0.77053903813E+02 -0.64704870554E+02  0.25730118352E+03  0.28680467814E+03  0.77000000000E+02 0.  0.
   -5000001    1    1    2    0    0 -0.77053903813E+02  0.64704870554E+02  0.26787735954E+03  0.29632972197E+03  0.77000000000E+02 0.  0.
<mgrwt>
<rscale>  0 0.25344275E+03</rscale>
<asrwt>0</asrwt>
<pdfrwt beam="1">  1        2 0.79165215E-01 0.25344275E+03</pdfrwt>
<pdfrwt beam="2">  1       -2 0.41397038E-02 0.25344275E+03</pdfrwt>
<totfact> 0.15548537E+04</totfact>
</mgrwt>
</event>
<event>
 4    1  0.5121375E-004  0.1897271E+03  0.7818608E-02  0.1158708E+00
         -2   -1    0    0    0  501 -0.00000000000E+00  0.00000000000E+00  0.18430850416E+02  0.18430850592E+02  0.25500000000E-02 0. -1.
          2   -1    0    0  501    0  0.00000000000E+00 -0.00000000000E+00 -0.48826233936E+03  0.48826233937E+03  0.25500000000E-02 0.  1.
    5000001    1    1    2    0    0 -0.50495588268E+02  0.94689833284E+01 -0.17949594641E+03  0.20195856223E+03  0.77000000000E+02 0.  0.
   -5000001    1    1    2    0    0  0.50495588268E+02 -0.94689833284E+01 -0.29033554253E+03  0.30473462773E+03  0.77000000000E+02 0.  0.
<mgrwt>
<rscale>  0 0.18972707E+03</rscale>
<asrwt>0</asrwt>
<pdfrwt beam="1">  1        2 0.69751755E-01 0.18972707E+03</pdfrwt>
<pdfrwt beam="2">  1       -2 0.26329789E-02 0.18972707E+03</pdfrwt>
<totfact> 0.34383566E+04</totfact>
</mgrwt>
</event>
<event>
 4    1  0.5121375E-004  0.1698424E+03  0.7818608E-02  0.1178012E+00
          2   -1    0    0  501    0  0.00000000000E+00  0.00000000000E+00  0.93455854514E+03  0.93455854514E+03  0.25500000000E-02 0.  1.
         -2   -1    0    0    0  501 -0.00000000000E+00 -0.00000000000E+00 -0.77165944983E+01  0.77165949196E+01  0.25500000000E-02 0. -1.
    5000001    1    1    2    0    0  0.75166182013E+00  0.28404265812E+02  0.58436631592E+03  0.59010198991E+03  0.77000000000E+02 0.  0.
   -5000001    1    1    2    0    0 -0.75166182013E+00 -0.28404265812E+02  0.34247563472E+03  0.35217315015E+03  0.77000000000E+02 0.  0.
<mgrwt>
<rscale>  0 0.16984239E+03</rscale>
<asrwt>0</asrwt>
<pdfrwt beam="1">  1        2 0.13350831E+00 0.16984239E+03</pdfrwt>
<pdfrwt beam="2">  1       -2 0.11023711E-02 0.16984239E+03</pdfrwt>
<totfact> 0.56428038E+04</totfact>
</mgrwt>
</event>
<event>
 4    1  0.5121375E-004  0.1854671E+03  0.7818608E-02  0.1162614E+00
         -2   -1    0    0    0  501 -0.00000000000E+00  0.00000000000E+00  0.16438349407E+03  0.16438349409E+03  0.25500000000E-02 0. -1.
          2   -1    0    0  501    0  0.00000000000E+00 -0.00000000000E+00 -0.52313738804E+02  0.52313738867E+02  0.25500000000E-02 0.  1.
    5000001    1    1    2    0    0  0.44168208661E+02 -0.82097907654E+01  0.85875281917E+02  0.12378123996E+03  0.77000000000E+02 0.  0.
   -5000001    1    1    2    0    0 -0.44168208661E+02  0.82097907654E+01  0.26194473345E+02  0.92915992997E+02  0.77000000000E+02 0.  0.
<mgrwt>
<rscale>  0 0.18546714E+03</rscale>
<asrwt>0</asrwt>
<pdfrwt beam="1">  1        2 0.74733912E-02 0.18546714E+03</pdfrwt>
<pdfrwt beam="2">  1       -2 0.23483356E-01 0.18546714E+03</pdfrwt>
<totfact> 0.14130048E+04</totfact>
</mgrwt>
</event>
<event>
 4    1  0.5121375E-004  0.4662740E+03  0.7818608E-02  0.1022977E+00
         -2   -1    0    0    0  501 -0.00000000000E+00  0.00000000000E+00  0.82314092834E+02  0.82314092874E+02  0.25500000000E-02 0. -1.
          2   -1    0    0  501    0  0.00000000000E+00 -0.00000000000E+00 -0.66031062902E+03  0.66031062902E+03  0.25500000000E-02 0.  1.
    5000001    1    1    2    0    0  0.34550194928E+02 -0.21626911528E+03 -0.25491999678E+03  0.34478870479E+03  0.77000000000E+02 0.  0.
   -5000001    1    1    2    0    0 -0.34550194928E+02  0.21626911528E+03 -0.32307653940E+03  0.39783601710E+03  0.77000000000E+02 0.  0.
<mgrwt>
<rscale>  0 0.46627404E+03</rscale>
<asrwt>0</asrwt>
<pdfrwt beam="1">  1        2 0.94330087E-01 0.46627404E+03</pdfrwt>
<pdfrwt beam="2">  1       -2 0.11759156E-01 0.46627404E+03</pdfrwt>
<totfact> 0.25300678E+03</totfact>
</mgrwt>
</event>
<event>
 4    1  0.5121375E-004  0.1928222E+03  0.7818608E-02  0.1155940E+00
          2   -1    0    0  501    0  0.00000000000E+00  0.00000000000E+00  0.78803694077E+03  0.78803694078E+03  0.25500000000E-02 0.  1.
         -2   -1    0    0    0  501 -0.00000000000E+00 -0.00000000000E+00 -0.11795253853E+02  0.11795254129E+02  0.25500000000E-02 0. -1.
    5000001    1    1    2    0    0 -0.97609652925E+01  0.52492268212E+02  0.48228947053E+03  0.49130728475E+03  0.77000000000E+02 0.  0.
   -5000001    1    1    2    0    0  0.97609652925E+01 -0.52492268212E+02  0.29395221639E+03  0.30852491015E+03  0.77000000000E+02 0.  0.
<mgrwt>
<rscale>  0 0.19282216E+03</rscale>
<asrwt>0</asrwt>
<pdfrwt beam="1">  1        2 0.11257678E+00 0.19282216E+03</pdfrwt>
<pdfrwt beam="2">  1       -2 0.16850352E-02 0.19282216E+03</pdfrwt>
<totfact> 0.38246373E+04</totfact>
</mgrwt>
</event>
<event>
 4    1  0.5121375E-004  0.1918879E+03  0.7818608E-02  0.1156769E+00
         -2   -1    0    0    0  501 -0.00000000000E+00  0.00000000000E+00  0.15286642199E+03  0.15286642202E+03  0.25500000000E-02 0. -1.
          2   -1    0    0  501    0  0.00000000000E+00 -0.00000000000E+00 -0.60217575068E+02  0.60217575122E+02  0.25500000000E-02 0.  1.
    5000001    1    1    2    0    0  0.44744701469E+02 -0.34107051961E+02  0.34632061736E+02  0.10145816381E+03  0.77000000000E+02 0.  0.
   -5000001    1    1    2    0    0 -0.44744701469E+02  0.34107051961E+02  0.58016785190E+02  0.11162583333E+03  0.77000000000E+02 0.  0.
<mgrwt>
<rscale>  0 0.19188794E+03</rscale>
<asrwt>0</asrwt>
<pdfrwt beam="1">  1        2 0.86025108E-02 0.19188794E+03</pdfrwt>
<pdfrwt beam="2">  1       -2 0.21838060E-01 0.19188794E+03</pdfrwt>
<totfact> 0.13449755E+04</totfact>
</mgrwt>
</event>
<event>
 4    1  0.5121375E-004  0.2811064E+03  0.7818608E-02  0.1095086E+00
         -2   -1    0    0    0  501 -0.00000000000E+00  0.00000000000E+00  0.30921133342E+02  0.30921133447E+02  0.25500000000E-02 0. -1.
          2   -1    0    0  501    0  0.00000000000E+00 -0.00000000000E+00 -0.63888982091E+03  0.63888982092E+03  0.25500000000E-02 0.  1.
    5000001    1    1    2    0    0  0.95760230178E+02  0.17552019053E+02 -0.14686435425E+03  0.19229205289E+03  0.77000000000E+02 0.  0.
   -5000001    1    1    2    0    0 -0.95760230178E+02 -0.17552019053E+02 -0.46110433332E+03  0.47751890147E+03  0.77000000000E+02 0.  0.
<mgrwt>
<rscale>  0 0.28110637E+03</rscale>
<asrwt>0</asrwt>
<pdfrwt beam="1">  1        2 0.91269967E-01 0.28110637E+03</pdfrwt>
<pdfrwt beam="2">  1       -2 0.44173052E-02 0.28110637E+03</pdfrwt>
<totfact> 0.12046110E+04</totfact>
</mgrwt>
</event>
<event>
 4    1  0.5121375E-004  0.1992115E+03  0.7818608E-02  0.1150406E+00
         -2   -1    0    0    0  501 -0.00000000000E+00  0.00000000000E+00  0.12123778299E+02  0.12123778568E+02  0.25500000000E-02 0. -1.
          2   -1    0    0  501    0  0.00000000000E+00 -0.00000000000E+00 -0.81833412693E+03  0.81833412693E+03  0.25500000000E-02 0.  1.
    5000001    1    1    2    0    0 -0.46355964135E+02 -0.13099659039E+02 -0.23265449747E+03  0.24975506335E+03  0.77000000000E+02 0.  0.
   -5000001    1    1    2    0    0  0.46355964135E+02  0.13099659039E+02 -0.57355585116E+03  0.58070284214E+03  0.77000000000E+02 0.  0.
<mgrwt>
<rscale>  0 0.19921146E+03</rscale>
<asrwt>0</asrwt>
<pdfrwt beam="1">  1        2 0.11690484E+00 0.19921146E+03</pdfrwt>
<pdfrwt beam="2">  1       -2 0.17319689E-02 0.19921146E+03</pdfrwt>
<totfact> 0.35172448E+04</totfact>
</mgrwt>
</event>
<event>
 4    1  0.5121375E-004  0.6273675E+03  0.7818608E-02  0.9850199E-01
          2   -1    0    0  501    0  0.00000000000E+00  0.00000000000E+00  0.24271860157E+04  0.24271860157E+04  0.25500000000E-02 0.  1.
         -2   -1    0    0    0  501 -0.00000000000E+00 -0.00000000000E+00 -0.40539743621E+02  0.40539743701E+02  0.25500000000E-02 0. -1.
    5000001    1    1    2    0    0  0.61018999426E+01  0.28579551469E+03  0.78545166993E+03  0.83939242027E+03  0.77000000000E+02 0.  0.
   -5000001    1    1    2    0    0 -0.61018999426E+01 -0.28579551469E+03  0.16011946022E+04  0.16283333391E+04  0.77000000000E+02 0.  0.
<mgrwt>
<rscale>  0 0.62736751E+03</rscale>
<asrwt>0</asrwt>
<pdfrwt beam="1">  1        2 0.34674093E+00 0.62736751E+03</pdfrwt>
<pdfrwt beam="2">  1       -2 0.57913908E-02 0.62736751E+03</pdfrwt>
<totfact> 0.82151063E+02</totfact>
</mgrwt>
</event>
<event>
 4    1  0.5121375E-004  0.1951250E+03  0.7818608E-02  0.1153918E+00
          2   -1    0    0  501    0  0.00000000000E+00  0.00000000000E+00  0.17591574144E+03  0.17591574146E+03  0.25500000000E-02 0.  1.
         -2   -1    0    0    0  501 -0.00000000000E+00 -0.00000000000E+00 -0.54107982609E+02  0.54107982669E+02  0.25500000000E-02 0. -1.
    5000001    1    1    2    0    0 -0.34813325801E+02  0.47803910681E+02  0.72227272768E+02  0.12100810081E+03  0.77000000000E+02 0.  0.
   -5000001    1    1    2    0    0  0.34813325801E+02 -0.47803910681E+02  0.49580486065E+02  0.10901562332E+03  0.77000000000E+02 0.  0.
<mgrwt>
<rscale>  0 0.19512505E+03</rscale>
<asrwt>0</asrwt>
<pdfrwt beam="1">  1        2 0.25130820E-01 0.19512505E+03</pdfrwt>
<pdfrwt beam="2">  1       -2 0.77297119E-02 0.19512505E+03</pdfrwt>
<totfact> 0.20504819E+04</totfact>
</mgrwt>
</event>
<event>
 4    1  0.5121375E-004  0.2807833E+03  0.7818608E-02  0.1095262E+00
          2   -1    0    0  501    0  0.00000000000E+00  0.00000000000E+00  0.11741558636E+04  0.11741558636E+04  0.25500000000E-02 0.  1.
         -2   -1    0    0    0  501 -0.00000000000E+00 -0.00000000000E+00 -0.16786376160E+02  0.16786376354E+02  0.25500000000E-02 0. -1.
    5000001    1    1    2    0    0 -0.81701844361E+02  0.81775916299E+02  0.66543664237E+03  0.67977747599E+03  0.77000000000E+02 0.  0.
   -5000001    1    1    2    0    0  0.81701844361E+02 -0.81775916299E+02  0.49193284505E+03  0.51116476395E+03  0.77000000000E+02 0.  0.
<mgrwt>
<rscale>  0 0.28078335E+03</rscale>
<asrwt>0</asrwt>
<pdfrwt beam="1">  1        2 0.16773659E+00 0.28078335E+03</pdfrwt>
<pdfrwt beam="2">  1       -2 0.23980533E-02 0.28078335E+03</pdfrwt>
<totfact> 0.13672583E+04</totfact>
</mgrwt>
</event>
<event>
 4    1  0.5121375E-004  0.2449309E+03  0.7818608E-02  0.1116551E+00
          2   -1    0    0  501    0  0.00000000000E+00  0.00000000000E+00  0.18386949329E+03  0.18386949331E+03  0.25500000000E-02 0.  1.
         -2   -1    0    0    0  501 -0.00000000000E+00 -0.00000000000E+00 -0.81567552796E+02  0.81567552836E+02  0.25500000000E-02 0. -1.
    5000001    1    1    2    0    0  0.31823366007E+02 -0.36626283066E+02 -0.37651939444E+02  0.98493044319E+02  0.77000000000E+02 0.  0.
   -5000001    1    1    2    0    0 -0.31823366007E+02  0.36626283066E+02  0.13995387994E+03  0.16694400182E+03  0.77000000000E+02 0.  0.
<mgrwt>
<rscale>  0 0.24493089E+03</rscale>
<asrwt>0</asrwt>
<pdfrwt beam="1">  1        2 0.26267070E-01 0.24493089E+03</pdfrwt>
<pdfrwt beam="2">  1       -2 0.11652508E-01 0.24493089E+03</pdfrwt>
<totfact> 0.10369193E+04</totfact>
</mgrwt>
</event>
<event>
 4    1  0.5121375E-004  0.1893073E+03  0.7818608E-02  0.1159088E+00
          2   -1    0    0  501    0  0.00000000000E+00  0.00000000000E+00  0.87446637853E+03  0.87446637854E+03  0.25500000000E-02 0.  1.
         -2   -1    0    0    0  501 -0.00000000000E+00 -0.00000000000E+00 -0.10245465655E+02  0.10245465972E+02  0.25500000000E-02 0. -1.
    5000001    1    1    2    0    0 -0.28012889270E+02  0.45481891950E+02  0.49428461811E+03  0.50309005969E+03  0.77000000000E+02 0.  0.
   -5000001    1    1    2    0    0  0.28012889270E+02 -0.45481891950E+02  0.36993629477E+03  0.38162178482E+03  0.77000000000E+02 0.  0.
<mgrwt>
<rscale>  0 0.18930732E+03</rscale>
<asrwt>0</asrwt>
<pdfrwt beam="1">  1        2 0.12492380E+00 0.18930732E+03</pdfrwt>
<pdfrwt beam="2">  1       -2 0.14636376E-02 0.18930732E+03</pdfrwt>
<totfact> 0.41181448E+04</totfact>
</mgrwt>
</event>
<event>
 4    1  0.5121375E-004  0.5373112E+03  0.7818608E-02  0.1004474E+00
          2   -1    0    0  501    0  0.00000000000E+00  0.00000000000E+00  0.72825154403E+03  0.72825154404E+03  0.25500000000E-02 0.  1.
         -2   -1    0    0    0  501 -0.00000000000E+00 -0.00000000000E+00 -0.99108363602E+02  0.99108363634E+02  0.25500000000E-02 0. -1.
    5000001    1    1    2    0    0 -0.39438680546E+01  0.25727927886E+03  0.30500025287E+03  0.40640169251E+03  0.77000000000E+02 0.  0.
   -5000001    1    1    2    0    0  0.39438680546E+01 -0.25727927886E+03  0.32414292756E+03  0.42095821516E+03  0.77000000000E+02 0.  0.
<mgrwt>
<rscale>  0 0.53731115E+03</rscale>
<asrwt>0</asrwt>
<pdfrwt beam="1">  1        2 0.10403593E+00 0.53731115E+03</pdfrwt>
<pdfrwt beam="2">  1       -2 0.14158338E-01 0.53731115E+03</pdfrwt>
<totfact> 0.16541404E+03</totfact>
</mgrwt>
</event>
<event>
 4    1  0.5121375E-004  0.2527367E+03  0.7818608E-02  0.1111587E+00
          2   -1    0    0  501    0  0.00000000000E+00  0.00000000000E+00  0.98004385917E+03  0.98004385917E+03  0.25500000000E-02 0.  1.
         -2   -1    0    0    0  501 -0.00000000000E+00 -0.00000000000E+00 -0.16294124233E+02  0.16294124433E+02  0.25500000000E-02 0. -1.
    5000001    1    1    2    0    0  0.82207509852E+02 -0.38501879080E+02  0.31464540456E+03  0.33640927452E+03  0.77000000000E+02 0.  0.
   -5000001    1    1    2    0    0 -0.82207509852E+02  0.38501879080E+02  0.64910433038E+03  0.65992870909E+03  0.77000000000E+02 0.  0.
<mgrwt>
<rscale>  0 0.25273667E+03</rscale>
<asrwt>0</asrwt>
<pdfrwt beam="1">  1        2 0.14000622E+00 0.25273667E+03</pdfrwt>
<pdfrwt beam="2">  1       -2 0.23277327E-02 0.25273667E+03</pdfrwt>
<totfact> 0.18349240E+04</totfact>
</mgrwt>
</event>
<event>
 4    1  0.5121375E-004  0.3335586E+03  0.7818608E-02  0.1069573E+00
         -2   -1    0    0    0  501 -0.00000000000E+00  0.00000000000E+00  0.34646712485E+02  0.34646712579E+02  0.25500000000E-02 0. -1.
          2   -1    0    0  501    0  0.00000000000E+00 -0.00000000000E+00 -0.80282764748E+03  0.80282764748E+03  0.25500000000E-02 0.  1.
    5000001    1    1    2    0    0 -0.14673383065E+03  0.13374588345E+02 -0.35072122157E+03  0.38812893725E+03  0.77000000000E+02 0.  0.
   -5000001    1    1    2    0    0  0.14673383065E+03 -0.13374588345E+02 -0.41745971343E+03  0.44934542281E+03  0.77000000000E+02 0.  0.
<mgrwt>
<rscale>  0 0.33355862E+03</rscale>
<asrwt>0</asrwt>
<pdfrwt beam="1">  1        2 0.11468965E+00 0.33355862E+03</pdfrwt>
<pdfrwt beam="2">  1       -2 0.49495308E-02 0.33355862E+03</pdfrwt>
<totfact> 0.77461201E+03</totfact>
</mgrwt>
</event>
<event>
 4    1  0.5121375E-004  0.2212701E+03  0.7818608E-02  0.1132940E+00
          2   -1    0    0  501    0  0.00000000000E+00  0.00000000000E+00  0.46855457799E+03  0.46855457800E+03  0.25500000000E-02 0.  1.
         -2   -1    0    0    0  501 -0.00000000000E+00 -0.00000000000E+00 -0.26123133116E+02  0.26123133241E+02  0.25500000000E-02 0. -1.
    5000001    1    1    2    0    0  0.67299555154E+02  0.44875473466E+01  0.31505209267E+03  0.33126453070E+03  0.77000000000E+02 0.  0.
   -5000001    1    1    2    0    0 -0.67299555154E+02 -0.44875473466E+01  0.12737935220E+03  0.16341318054E+03  0.77000000000E+02 0.  0.
<mgrwt>
<rscale>  0 0.22127009E+03</rscale>
<asrwt>0</asrwt>
<pdfrwt beam="1">  1        2 0.66936368E-01 0.22127009E+03</pdfrwt>
<pdfrwt beam="2">  1       -2 0.37318762E-02 0.22127009E+03</pdfrwt>
<totfact> 0.21692010E+04</totfact>
</mgrwt>
</event>
<event>
 4    1  0.5121375E-004  0.2222864E+03  0.7818608E-02  0.1132190E+00
          2   -1    0    0  501    0  0.00000000000E+00  0.00000000000E+00  0.15679397841E+04  0.15679397841E+04  0.25500000000E-02 0.  1.
         -2   -1    0    0    0  501 -0.00000000000E+00 -0.00000000000E+00 -0.78783686455E+01  0.78783690581E+01  0.25500000000E-02 0. -1.
    5000001    1    1    2    0    0 -0.62329524775E+02 -0.37843921693E+02  0.54419830091E+03  0.55443477776E+03  0.77000000000E+02 0.  0.
   -5000001    1    1    2    0    0  0.62329524775E+02  0.37843921693E+02  0.10158631145E+04  0.10213833754E+04  0.77000000000E+02 0.  0.
<mgrwt>
<rscale>  0 0.22228637E+03</rscale>
<asrwt>0</asrwt>
<pdfrwt beam="1">  1        2 0.22399162E+00 0.22228637E+03</pdfrwt>
<pdfrwt beam="2">  1       -2 0.11254801E-02 0.22228637E+03</pdfrwt>
<totfact> 0.25592615E+04</totfact>
</mgrwt>
</event>
<event>
 4    1  0.5121375E-004  0.1695380E+03  0.7818608E-02  0.1178330E+00
         -2   -1    0    0    0  501 -0.00000000000E+00  0.00000000000E+00  0.21379068745E+03  0.21379068746E+03  0.25500000000E-02 0. -1.
          2   -1    0    0  501    0  0.00000000000E+00 -0.00000000000E+00 -0.33611315181E+02  0.33611315278E+02  0.25500000000E-02 0.  1.
    5000001    1    1    2    0    0  0.30435909235E+02  0.12629521452E+02  0.71010762642E+02  0.10980609179E+03  0.77000000000E+02 0.  0.
   -5000001    1    1    2    0    0 -0.30435909235E+02 -0.12629521452E+02  0.10916860962E+03  0.13759591095E+03  0.77000000000E+02 0.  0.
<mgrwt>
<rscale>  0 0.16953803E+03</rscale>
<asrwt>0</asrwt>
<pdfrwt beam="1">  1        2 0.48016166E-02 0.16953803E+03</pdfrwt>
<pdfrwt beam="2">  1       -2 0.30541526E-01 0.16953803E+03</pdfrwt>
<totfact> 0.15600316E+04</totfact>
</mgrwt>
</event>
<event>
 4    1  0.5121375E-004  0.8186724E+03  0.7818608E-02  0.9533376E-01
         -2   -1    0    0    0  501 -0.00000000000E+00  0.00000000000E+00  0.14210936394E+03  0.14210936397E+03  0.25500000000E-02 0. -1.
          2   -1    0    0  501    0  0.00000000000E+00 -0.00000000000E+00 -0.11790647324E+04  0.11790647324E+04  0.25500000000E-02 0.  1.
    5000001    1    1    2    0    0  0.27401027128E+03  0.26226635035E+03 -0.30340054627E+03  0.49177856681E+03  0.77000000000E+02 0.  0.
   -5000001    1    1    2    0    0 -0.27401027128E+03 -0.26226635035E+03 -0.73355482215E+03  0.82939552953E+03  0.77000000000E+02 0.  0.
<mgrwt>
<rscale>  0 0.81867244E+03</rscale>
<asrwt>0</asrwt>
<pdfrwt beam="1">  1        2 0.16843781E+00 0.81867244E+03</pdfrwt>
<pdfrwt beam="2">  1       -2 0.20301338E-01 0.81867244E+03</pdfrwt>
<totfact> 0.45798516E+02</totfact>
</mgrwt>
</event>
<event>
 4    1  0.5121375E-004  0.1895420E+03  0.7818608E-02  0.1158875E+00
         -2   -1    0    0    0  501 -0.00000000000E+00  0.00000000000E+00  0.56997691553E+01  0.56997697258E+01  0.25500000000E-02 0. -1.
          2   -1    0    0  501    0  0.00000000000E+00 -0.00000000000E+00 -0.15757727819E+04  0.15757727819E+04  0.25500000000E-02 0.  1.
    5000001    1    1    2    0    0 -0.47193511005E+02  0.36869676238E+01 -0.10227530656E+04  0.10267393312E+04  0.77000000000E+02 0.  0.
   -5000001    1    1    2    0    0  0.47193511005E+02 -0.36869676238E+01 -0.54731994719E+03  0.55473322039E+03  0.77000000000E+02 0.  0.
<mgrwt>
<rscale>  0 0.18954199E+03</rscale>
<asrwt>0</asrwt>
<pdfrwt beam="1">  1        2 0.22511012E+00 0.18954199E+03</pdfrwt>
<pdfrwt beam="2">  1       -2 0.81425379E-03 0.18954199E+03</pdfrwt>
<totfact> 0.40079964E+04</totfact>
</mgrwt>
</event>
<event>
 4    1  0.5121375E-004  0.2187097E+03  0.7818608E-02  0.1134849E+00
         -2   -1    0    0    0  501 -0.00000000000E+00  0.00000000000E+00  0.34110505551E+02  0.34110505646E+02  0.25500000000E-02 0. -1.
          2   -1    0    0  501    0  0.00000000000E+00 -0.00000000000E+00 -0.35058060130E+03  0.35058060131E+03  0.25500000000E-02 0.  1.
    5000001    1    1    2    0    0 -0.29237716871E+02 -0.53657022832E+02 -0.24250807351E+03  0.26167362478E+03  0.77000000000E+02 0.  0.
   -5000001    1    1    2    0    0  0.29237716871E+02  0.53657022832E+02 -0.73962022235E+02  0.12301748217E+03  0.77000000000E+02 0.  0.
<mgrwt>
<rscale>  0 0.21870968E+03</rscale>
<asrwt>0</asrwt>
<pdfrwt beam="1">  1        2 0.50082941E-01 0.21870968E+03</pdfrwt>
<pdfrwt beam="2">  1       -2 0.48729296E-02 0.21870968E+03</pdfrwt>
<totfact> 0.19848444E+04</totfact>
</mgrwt>
</event>
<event>
 4    1  0.5121375E-004  0.2519752E+03  0.7818608E-02  0.1112063E+00
         -2   -1    0    0    0  501 -0.00000000000E+00  0.00000000000E+00  0.20277424387E+02  0.20277424548E+02  0.25500000000E-02 0. -1.
          2   -1    0    0  501    0  0.00000000000E+00 -0.00000000000E+00 -0.78278560652E+03  0.78278560652E+03  0.25500000000E-02 0.  1.
    5000001    1    1    2    0    0  0.74940003142E+02 -0.15958147744E+02 -0.17784975905E+03  0.20839914430E+03  0.77000000000E+02 0.  0.
   -5000001    1    1    2    0    0 -0.74940003142E+02  0.15958147744E+02 -0.58465842308E+03  0.59466388677E+03  0.77000000000E+02 0.  0.
<mgrwt>
<rscale>  0 0.25197521E+03</rscale>
<asrwt>0</asrwt>
<pdfrwt beam="1">  1        2 0.11182650E+00 0.25197521E+03</pdfrwt>
<pdfrwt beam="2">  1       -2 0.28967754E-02 0.25197521E+03</pdfrwt>
<totfact> 0.17701501E+04</totfact>
</mgrwt>
</event>
<event>
 4    1  0.5121375E-004  0.2077373E+03  0.7818608E-02  0.1143370E+00
         -2   -1    0    0    0  501 -0.00000000000E+00  0.00000000000E+00  0.79424087423E+01  0.79424091516E+01  0.25500000000E-02 0. -1.
          2   -1    0    0  501    0  0.00000000000E+00 -0.00000000000E+00 -0.13583660421E+04  0.13583660421E+04  0.25500000000E-02 0.  1.
    5000001    1    1    2    0    0 -0.47276731335E+02  0.50792699409E+02 -0.71919040396E+03  0.72662151413E+03  0.77000000000E+02 0.  0.
   -5000001    1    1    2    0    0  0.47276731335E+02 -0.50792699409E+02 -0.63123322936E+03  0.63968693709E+03  0.77000000000E+02 0.  0.
<mgrwt>
<rscale>  0 0.20773732E+03</rscale>
<asrwt>0</asrwt>
<pdfrwt beam="1">  1        2 0.19405214E+00 0.20773732E+03</pdfrwt>
<pdfrwt beam="2">  1       -2 0.11346307E-02 0.20773732E+03</pdfrwt>
<totfact> 0.32140766E+04</totfact>
</mgrwt>
</event>
<event>
 4    1  0.5121375E-004  0.2065516E+03  0.7818608E-02  0.1144326E+00
          2   -1    0    0  501    0  0.00000000000E+00  0.00000000000E+00  0.27545500525E+04  0.27545500525E+04  0.25500000000E-02 0.  1.
         -2   -1    0    0    0  501 -0.00000000000E+00 -0.00000000000E+00 -0.38720997612E+01  0.38721006009E+01  0.25500000000E-02 0. -1.
    5000001    1    1    2    0    0  0.55516491218E+02  0.17521587613E+02  0.88505697277E+03  0.89030552726E+03  0.77000000000E+02 0.  0.
   -5000001    1    1    2    0    0 -0.55516491218E+02 -0.17521587613E+02  0.18656209800E+04  0.18681166258E+04  0.77000000000E+02 0.  0.
<mgrwt>
<rscale>  0 0.20655163E+03</rscale>
<asrwt>0</asrwt>
<pdfrwt beam="1">  1        2 0.39350444E+00 0.20655163E+03</pdfrwt>
<pdfrwt beam="2">  1       -2 0.55316097E-03 0.20655163E+03</pdfrwt>
<totfact> 0.18600602E+04</totfact>
</mgrwt>
</event>
<event>
 4    1  0.5121375E-004  0.2057071E+03  0.7818608E-02  0.1145011E+00
          2   -1    0    0  501    0  0.00000000000E+00  0.00000000000E+00  0.10371042211E+03  0.10371042215E+03  0.25500000000E-02 0.  1.
         -2   -1    0    0    0  501 -0.00000000000E+00 -0.00000000000E+00 -0.10200371806E+03  0.10200371810E+03  0.25500000000E-02 0. -1.
    5000001    1    1    2    0    0  0.23399207497E+02  0.56139743231E+02  0.31687106620E+02  0.10311288187E+03  0.77000000000E+02 0.  0.
   -5000001    1    1    2    0    0 -0.23399207497E+02 -0.56139743231E+02 -0.29980402570E+02  0.10260125837E+03  0.77000000000E+02 0.  0.
<mgrwt>
<rscale>  0 0.20570706E+03</rscale>
<asrwt>0</asrwt>
<pdfrwt beam="1">  1        2 0.14815775E-01 0.20570706E+03</pdfrwt>
<pdfrwt beam="2">  1       -2 0.14571960E-01 0.20570706E+03</pdfrwt>
<totfact> 0.13741069E+04</totfact>
</mgrwt>
</event>
<event>
 4    1  0.5121375E-004  0.2799383E+03  0.7818608E-02  0.1095723E+00
          2   -1    0    0  501    0  0.00000000000E+00  0.00000000000E+00  0.13900667978E+04  0.13900667978E+04  0.25500000000E-02 0.  1.
         -2   -1    0    0    0  501 -0.00000000000E+00 -0.00000000000E+00 -0.14093826780E+02  0.14093827011E+02  0.25500000000E-02 0. -1.
    5000001    1    1    2    0    0  0.52239598341E+02  0.92628493005E+02  0.44465544062E+03  0.46363398735E+03  0.77000000000E+02 0.  0.
   -5000001    1    1    2    0    0 -0.52239598341E+02 -0.92628493005E+02  0.93131753043E+03  0.94052663750E+03  0.77000000000E+02 0.  0.
<mgrwt>
<rscale>  0 0.27993828E+03</rscale>
<asrwt>0</asrwt>
<pdfrwt beam="1">  1        2 0.19858100E+00 0.27993828E+03</pdfrwt>
<pdfrwt beam="2">  1       -2 0.20134036E-02 0.27993828E+03</pdfrwt>
<totfact> 0.13592936E+04</totfact>
</mgrwt>
</event>
<event>
 4    1  0.5121375E-004  0.1871705E+03  0.7818608E-02  0.1161038E+00
          2   -1    0    0  501    0  0.00000000000E+00  0.00000000000E+00  0.26348141698E+02  0.26348141821E+02  0.25500000000E-02 0.  1.
         -2   -1    0    0    0  501 -0.00000000000E+00 -0.00000000000E+00 -0.33240293479E+03  0.33240293480E+03  0.25500000000E-02 0. -1.
    5000001    1    1    2    0    0  0.71149424055E+00 -0.44585286221E+02 -0.97447984881E+02  0.13196008385E+03  0.77000000000E+02 0.  0.
   -5000001    1    1    2    0    0 -0.71149424055E+00  0.44585286221E+02 -0.20860680821E+03  0.22679099277E+03  0.77000000000E+02 0.  0.
<mgrwt>
<rscale>  0 0.18717051E+03</rscale>
<asrwt>0</asrwt>
<pdfrwt beam="1">  1        2 0.37640205E-02 0.18717051E+03</pdfrwt>
<pdfrwt beam="2">  1       -2 0.47486131E-01 0.18717051E+03</pdfrwt>
<totfact> 0.94599763E+03</totfact>
</mgrwt>
</event>
<event>
 4    1  0.5121375E-004  0.3306101E+03  0.7818608E-02  0.1070867E+00
         -2   -1    0    0    0  501 -0.00000000000E+00  0.00000000000E+00  0.18383239319E+02  0.18383239496E+02  0.25500000000E-02 0.  1.
          2   -1    0    0  501    0  0.00000000000E+00 -0.00000000000E+00 -0.14864499380E+04  0.14864499380E+04  0.25500000000E-02 0. -1.
    5000001    1    1    2    0    0  0.50977985758E+02 -0.59472201629E+02 -0.17173779441E+03  0.20385918627E+03  0.77000000000E+02 0.  0.
   -5000001    1    1    2    0    0 -0.50977985758E+02  0.59472201629E+02 -0.12963289043E+04  0.13009739912E+04  0.77000000000E+02 0.  0.
<mgrwt>
<rscale>  0 0.33061013E+03</rscale>
<asrwt>0</asrwt>
<pdfrwt beam="1">  1        2 0.21234991E+00 0.33061013E+03</pdfrwt>
<pdfrwt beam="2">  1       -2 0.26261780E-02 0.33061013E+03</pdfrwt>
<totfact> 0.82154805E+03</totfact>
</mgrwt>
</event>
<event>
 4    1  0.5121375E-004  0.2820436E+03  0.7818608E-02  0.1094578E+00
          2   -1    0    0  501    0  0.00000000000E+00  0.00000000000E+00  0.18916859882E+04  0.18916859882E+04  0.25500000000E-02 0.  1.
         -2   -1    0    0    0  501 -0.00000000000E+00 -0.00000000000E+00 -0.10512920542E+02  0.10512920851E+02  0.25500000000E-02 0. -1.
    5000001    1    1    2    0    0 -0.10208394408E+03  0.91682280267E+01  0.54427630353E+03  0.55916981555E+03  0.77000000000E+02 0.  0.
   -5000001    1    1    2    0    0  0.10208394408E+03 -0.91682280267E+01  0.13368967642E+04  0.13430290935E+04  0.77000000000E+02 0.  0.
<mgrwt>
<rscale>  0 0.28204358E+03</rscale>
<asrwt>0</asrwt>
<pdfrwt beam="1">  1        2 0.27024115E+00 0.28204358E+03</pdfrwt>
<pdfrwt beam="2">  1       -2 0.15018442E-02 0.28204358E+03</pdfrwt>
<totfact> 0.11756914E+04</totfact>
</mgrwt>
</event>
<event>
 4    1  0.5121375E-004  0.1621370E+03  0.7818608E-02  0.1186305E+00
         -2   -1    0    0    0  501 -0.00000000000E+00  0.00000000000E+00  0.87104920986E+02  0.87104921023E+02  0.25500000000E-02 0. -1.
          2   -1    0    0  501    0  0.00000000000E+00 -0.00000000000E+00 -0.75450441831E+02  0.75450441874E+02  0.25500000000E-02 0.  1.
    5000001    1    1    2    0    0 -0.21576741273E+02 -0.10811036644E+01  0.19142326961E+02  0.82232312570E+02  0.77000000000E+02 0.  0.
   -5000001    1    1    2    0    0  0.21576741273E+02  0.10811036644E+01 -0.74878478069E+01  0.80323050327E+02  0.77000000000E+02 0.  0.
<mgrwt>
<rscale>  0 0.16213704E+03</rscale>
<asrwt>0</asrwt>
<pdfrwt beam="1">  1        2 0.10778635E-01 0.16213704E+03</pdfrwt>
<pdfrwt beam="2">  1       -2 0.12443560E-01 0.16213704E+03</pdfrwt>
<totfact> 0.25513580E+04</totfact>
</mgrwt>
</event>
<event>
 4    1  0.5121375E-004  0.1619025E+03  0.7818608E-02  0.1186565E+00
         -2   -1    0    0    0  501 -0.00000000000E+00  0.00000000000E+00  0.47051572784E+01  0.47051579694E+01  0.25500000000E-02 0. -1.
          2   -1    0    0  501    0  0.00000000000E+00 -0.00000000000E+00 -0.13927500811E+04  0.13927500811E+04  0.25500000000E-02 0.  1.
    5000001    1    1    2    0    0 -0.34604632343E+01 -0.23956755576E+02 -0.64066934479E+03  0.64573377664E+03  0.77000000000E+02 0.  0.
   -5000001    1    1    2    0    0  0.34604632343E+01  0.23956755576E+02 -0.74737557902E+03  0.75172146242E+03  0.77000000000E+02 0.  0.
<mgrwt>
<rscale>  0 0.16190255E+03</rscale>
<asrwt>0</asrwt>
<pdfrwt beam="1">  1        2 0.19896403E+00 0.16190255E+03</pdfrwt>
<pdfrwt beam="2">  1       -2 0.67216627E-03 0.16190255E+03</pdfrwt>
<totfact> 0.64280507E+04</totfact>
</mgrwt>
</event>
<event>
 4    1  0.5121375E-004  0.1745742E+03  0.7818608E-02  0.1173160E+00
          2   -1    0    0  501    0  0.00000000000E+00  0.00000000000E+00  0.29537998215E+03  0.29537998216E+03  0.25500000000E-02 0.  1.
         -2   -1    0    0    0  501 -0.00000000000E+00 -0.00000000000E+00 -0.25794032024E+02  0.25794032150E+02  0.25500000000E-02 0. -1.
    5000001    1    1    2    0    0  0.40878184608E+02  0.14808140836E+01  0.12724729354E+03  0.15425333870E+03  0.77000000000E+02 0.  0.
   -5000001    1    1    2    0    0 -0.40878184608E+02 -0.14808140836E+01  0.14233865659E+03  0.16692067561E+03  0.77000000000E+02 0.  0.
<mgrwt>
<rscale>  0 0.17457423E+03</rscale>
<asrwt>0</asrwt>
<pdfrwt beam="1">  1        2 0.42197137E-01 0.17457423E+03</pdfrwt>
<pdfrwt beam="2">  1       -2 0.36848621E-02 0.17457423E+03</pdfrwt>
<totfact> 0.35585862E+04</totfact>
</mgrwt>
</event>
<event>
 4    1  0.5121375E-004  0.1867009E+03  0.7818608E-02  0.1161471E+00
         -2   -1    0    0    0  501 -0.00000000000E+00  0.00000000000E+00  0.63673265649E+03  0.63673265650E+03  0.25500000000E-02 0. -1.
          2   -1    0    0  501    0  0.00000000000E+00 -0.00000000000E+00 -0.13685974244E+02  0.13685974481E+02  0.25500000000E-02 0.  1.
    5000001    1    1    2    0    0  0.41573300832E+02 -0.32229322991E+02  0.32640110629E+03  0.33946097093E+03  0.77000000000E+02 0.  0.
   -5000001    1    1    2    0    0 -0.41573300832E+02  0.32229322991E+02  0.29664557596E+03  0.31095766004E+03  0.77000000000E+02 0.  0.
<mgrwt>
<rscale>  0 0.18670090E+03</rscale>
<asrwt>0</asrwt>
<pdfrwt beam="1">  1        2 0.19551388E-02 0.18670090E+03</pdfrwt>
<pdfrwt beam="2">  1       -2 0.90961824E-01 0.18670090E+03</pdfrwt>
<totfact> 0.58532622E+03</totfact>
</mgrwt>
</event>
<event>
 4    1  0.5121375E-004  0.1568229E+03  0.7818608E-02  0.1192331E+00
          2   -1    0    0  501    0  0.00000000000E+00  0.00000000000E+00  0.15602435657E+04  0.15602435657E+04  0.25500000000E-02 0.  1.
         -2   -1    0    0    0  501 -0.00000000000E+00 -0.00000000000E+00 -0.39406363675E+01  0.39406371926E+01  0.25500000000E-02 0. -1.
    5000001    1    1    2    0    0  0.12469567163E+02  0.50971367239E+01  0.71676162078E+03  0.72101157545E+03  0.77000000000E+02 0.  0.
   -5000001    1    1    2    0    0 -0.12469567163E+02 -0.50971367239E+01  0.83954130858E+03  0.84317262747E+03  0.77000000000E+02 0.  0.
<mgrwt>
<rscale>  0 0.15682287E+03</rscale>
<asrwt>0</asrwt>
<pdfrwt beam="1">  1        2 0.22289194E+00 0.15682287E+03</pdfrwt>
<pdfrwt beam="2">  1       -2 0.56294810E-03 0.15682287E+03</pdfrwt>
<totfact> 0.68132871E+04</totfact>
</mgrwt>
</event>
<event>
 4    1  0.5121375E-004  0.2752979E+03  0.7818608E-02  0.1098285E+00
         -2   -1    0    0    0  501 -0.00000000000E+00  0.00000000000E+00  0.27128305916E+03  0.27128305917E+03  0.25500000000E-02 0. -1.
          2   -1    0    0  501    0  0.00000000000E+00 -0.00000000000E+00 -0.69843026000E+02  0.69843026047E+02  0.25500000000E-02 0.  1.
    5000001    1    1    2    0    0  0.17057149231E+01 -0.10460963341E+03  0.44314428133E+02  0.13725470267E+03  0.77000000000E+02 0.  0.
   -5000001    1    1    2    0    0 -0.17057149231E+01  0.10460963341E+03  0.15712560503E+03  0.20387138255E+03  0.77000000000E+02 0.  0.
<mgrwt>
<rscale>  0 0.27529787E+03</rscale>
<asrwt>0</asrwt>
<pdfrwt beam="1">  1        2 0.99775752E-02 0.27529787E+03</pdfrwt>
<pdfrwt beam="2">  1       -2 0.38754723E-01 0.27529787E+03</pdfrwt>
<totfact> 0.40475914E+03</totfact>
</mgrwt>
</event>
<event>
 4    1  0.5121375E-004  0.2021509E+03  0.7818608E-02  0.1147937E+00
          2   -1    0    0  501    0  0.00000000000E+00  0.00000000000E+00  0.31760100977E+03  0.31760100979E+03  0.25500000000E-02 0.  1.
         -2   -1    0    0    0  501 -0.00000000000E+00 -0.00000000000E+00 -0.32166918516E+02  0.32166918618E+02  0.25500000000E-02 0. -1.
    5000001    1    1    2    0    0  0.43482060294E+02 -0.46148059430E+02  0.17098465463E+03  0.19795222928E+03  0.77000000000E+02 0.  0.
   -5000001    1    1    2    0    0 -0.43482060294E+02  0.46148059430E+02  0.11444943663E+03  0.15181569913E+03  0.77000000000E+02 0.  0.
<mgrwt>
<rscale>  0 0.20215089E+03</rscale>
<asrwt>0</asrwt>
<pdfrwt beam="1">  1        2 0.45371575E-01 0.20215089E+03</pdfrwt>
<pdfrwt beam="2">  1       -2 0.45952738E-02 0.20215089E+03</pdfrwt>
<totfact> 0.23966615E+04</totfact>
</mgrwt>
</event>
<event>
 4    1  0.5121375E-004  0.2490210E+03  0.7818608E-02  0.1113925E+00
         -2   -1    0    0    0  501 -0.00000000000E+00  0.00000000000E+00  0.25084792494E+02  0.25084792624E+02  0.25500000000E-02 0. -1.
          2   -1    0    0  501    0  0.00000000000E+00 -0.00000000000E+00 -0.61801830201E+03  0.61801830202E+03  0.25500000000E-02 0.  1.
    5000001    1    1    2    0    0 -0.71007153143E+02  0.56951595973E+02 -0.38916327557E+03  0.40701665216E+03  0.77000000000E+02 0.  0.
   -5000001    1    1    2    0    0  0.71007153143E+02 -0.56951595973E+02 -0.20377023395E+03  0.23608644248E+03  0.77000000000E+02 0.  0.
<mgrwt>
<rscale>  0 0.24902097E+03</rscale>
<asrwt>0</asrwt>
<pdfrwt beam="1">  1        2 0.88288320E-01 0.24902097E+03</pdfrwt>
<pdfrwt beam="2">  1       -2 0.35835422E-02 0.24902097E+03</pdfrwt>
<totfact> 0.17043030E+04</totfact>
</mgrwt>
</event>
<event>
 4    1  0.5121375E-004  0.3323732E+03  0.7818608E-02  0.1070092E+00
         -2   -1    0    0    0  501 -0.00000000000E+00  0.00000000000E+00  0.20812930686E+02  0.20812930843E+02  0.25500000000E-02 0. -1.
          2   -1    0    0  501    0  0.00000000000E+00 -0.00000000000E+00 -0.13269626541E+04  0.13269626541E+04  0.25500000000E-02 0.  1.
    5000001    1    1    2    0    0  0.11068654271E+03 -0.63904727557E+02 -0.35637531204E+03  0.38635176714E+03  0.77000000000E+02 0.  0.
   -5000001    1    1    2    0    0 -0.11068654271E+03  0.63904727557E+02 -0.94977441133E+03  0.96142381776E+03  0.77000000000E+02 0.  0.
<mgrwt>
<rscale>  0 0.33237317E+03</rscale>
<asrwt>0</asrwt>
<pdfrwt beam="1">  1        2 0.18956604E+00 0.33237317E+03</pdfrwt>
<pdfrwt beam="2">  1       -2 0.29732766E-02 0.33237317E+03</pdfrwt>
<totfact> 0.82569548E+03</totfact>
</mgrwt>
</event>
<event>
 4    1  0.5121375E-004  0.1730014E+03  0.7818608E-02  0.1174754E+00
          2   -1    0    0  501    0  0.00000000000E+00  0.00000000000E+00  0.53212550042E+03  0.53212550043E+03  0.25500000000E-02 0.  1.
         -2   -1    0    0    0  501 -0.00000000000E+00 -0.00000000000E+00 -0.14061293843E+02  0.14061294074E+02  0.25500000000E-02 0. -1.
    5000001    1    1    2    0    0  0.21360971457E+02 -0.31968504336E+02  0.28639121511E+03  0.29904381696E+03  0.77000000000E+02 0.  0.
   -5000001    1    1    2    0    0 -0.21360971457E+02  0.31968504336E+02  0.23167299147E+03  0.24714297754E+03  0.77000000000E+02 0.  0.
<mgrwt>
<rscale>  0 0.17300142E+03</rscale>
<asrwt>0</asrwt>
<pdfrwt beam="1">  1        2 0.76017941E-01 0.17300142E+03</pdfrwt>
<pdfrwt beam="2">  1       -2 0.20087560E-02 0.17300142E+03</pdfrwt>
<totfact> 0.46120433E+04</totfact>
</mgrwt>
</event>
<event>
 4    1  0.5121375E-004  0.1929894E+03  0.7818608E-02  0.1155792E+00
          2   -1    0    0  501    0  0.00000000000E+00  0.00000000000E+00  0.21336111874E+04  0.21336111874E+04  0.25500000000E-02 0.  1.
         -2   -1    0    0    0  501 -0.00000000000E+00 -0.00000000000E+00 -0.43640683588E+01  0.43640691038E+01  0.25500000000E-02 0. -1.
    5000001    1    1    2    0    0 -0.15467659000E+02 -0.54344966682E+02  0.91208111692E+03  0.91706792972E+03  0.77000000000E+02 0.  0.
   -5000001    1    1    2    0    0  0.15467659000E+02  0.54344966682E+02  0.12171660021E+04  0.12209073268E+04  0.77000000000E+02 0.  0.
<mgrwt>
<rscale>  0 0.19298939E+03</rscale>
<asrwt>0</asrwt>
<pdfrwt beam="1">  1        2 0.30479977E+00 0.19298939E+03</pdfrwt>
<pdfrwt beam="2">  1       -2 0.62344212E-03 0.19298939E+03</pdfrwt>
<totfact> 0.31602536E+04</totfact>
</mgrwt>
</event>
<event>
 4    1  0.5121375E-004  0.1870124E+03  0.7818608E-02  0.1161184E+00
         -2   -1    0    0    0  501 -0.00000000000E+00  0.00000000000E+00  0.12283149834E+03  0.12283149837E+03  0.25500000000E-02 0. -1.
          2   -1    0    0  501    0  0.00000000000E+00 -0.00000000000E+00 -0.71182137094E+02  0.71182137139E+02  0.25500000000E-02 0.  1.
    5000001    1    1    2    0    0  0.46283507505E+02 -0.24959408163E+02  0.18542384957E+02  0.95068160615E+02  0.77000000000E+02 0.  0.
   -5000001    1    1    2    0    0 -0.46283507505E+02  0.24959408163E+02  0.33106976293E+02  0.98945474895E+02  0.77000000000E+02 0.  0.
<mgrwt>
<rscale>  0 0.18701239E+03</rscale>
<asrwt>0</asrwt>
<pdfrwt beam="1">  1        2 0.10168877E-01 0.18701239E+03</pdfrwt>
<pdfrwt beam="2">  1       -2 0.17547357E-01 0.18701239E+03</pdfrwt>
<totfact> 0.15800371E+04</totfact>
</mgrwt>
</event>
<event>
 4    1  0.5121375E-004  0.9070629E+03  0.7818608E-02  0.9416795E-01
         -2   -1    0    0    0  501 -0.00000000000E+00  0.00000000000E+00  0.11458346980E+04  0.11458346980E+04  0.25500000000E-02 0. -1.
          2   -1    0    0  501    0  0.00000000000E+00 -0.00000000000E+00 -0.17951175406E+03  0.17951175408E+03  0.25500000000E-02 0.  1.
    5000001    1    1    2    0    0  0.31926662414E+03 -0.21957952199E+03  0.15769933358E+03  0.42537562645E+03  0.77000000000E+02 0.  0.
   -5000001    1    1    2    0    0 -0.31926662414E+03  0.21957952199E+03  0.80862361037E+03  0.89997082565E+03  0.77000000000E+02 0.  0.
<mgrwt>
<rscale>  0 0.90706294E+03</rscale>
<asrwt>0</asrwt>
<pdfrwt beam="1">  1        2 0.25644537E-01 0.90706294E+03</pdfrwt>
<pdfrwt beam="2">  1       -2 0.16369067E+00 0.90706294E+03</pdfrwt>
<totfact> 0.50570013E+01</totfact>
</mgrwt>
</event>
<event>
 4    1  0.5121375E-004  0.1678124E+03  0.7818608E-02  0.1180149E+00
          2   -1    0    0  501    0  0.00000000000E+00  0.00000000000E+00  0.63615229907E+02  0.63615229958E+02  0.25500000000E-02 0.  1.
         -2   -1    0    0    0  501 -0.00000000000E+00 -0.00000000000E+00 -0.11066927803E+03  0.11066927806E+03  0.25500000000E-02 0. -1.
    5000001    1    1    2    0    0  0.90678145477E+01 -0.26825414281E+02 -0.52581694504E+01  0.82209953521E+02  0.77000000000E+02 0.  0.
   -5000001    1    1    2    0    0 -0.90678145477E+01  0.26825414281E+02 -0.41795878677E+02  0.92074554500E+02  0.77000000000E+02 0.  0.
<mgrwt>
<rscale>  0 0.16781241E+03</rscale>
<asrwt>0</asrwt>
<pdfrwt beam="1">  1        2 0.90878900E-02 0.16781241E+03</pdfrwt>
<pdfrwt beam="2">  1       -2 0.15809897E-01 0.16781241E+03</pdfrwt>
<totfact> 0.21392403E+04</totfact>
</mgrwt>
</event>
<event>
 4    1  0.5121375E-004  0.1881597E+03  0.7818608E-02  0.1160132E+00
          2   -1    0    0  501    0  0.00000000000E+00  0.00000000000E+00  0.13750049886E+03  0.13750049888E+03  0.25500000000E-02 0.  1.
         -2   -1    0    0    0  501 -0.00000000000E+00 -0.00000000000E+00 -0.64370839527E+02  0.64370839577E+02  0.25500000000E-02 0. -1.
    5000001    1    1    2    0    0 -0.25293366535E+01  0.49072779862E+02  0.60733932346E+02  0.10969113823E+03  0.77000000000E+02 0.  0.
   -5000001    1    1    2    0    0  0.25293366535E+01 -0.49072779862E+02  0.12395726985E+02  0.92180200232E+02  0.77000000000E+02 0.  0.
<mgrwt>
<rscale>  0 0.18815975E+03</rscale>
<asrwt>0</asrwt>
<pdfrwt beam="1">  1        2 0.19642929E-01 0.18815975E+03</pdfrwt>
<pdfrwt beam="2">  1       -2 0.91958342E-02 0.18815975E+03</pdfrwt>
<totfact> 0.20573216E+04</totfact>
</mgrwt>
</event>
<event>
 4    1  0.5121375E-004  0.5171927E+03  0.7818608E-02  0.1009386E+00
          2   -1    0    0  501    0  0.00000000000E+00  0.00000000000E+00  0.17052285356E+03  0.17052285358E+03  0.25500000000E-02 0.  1.
         -2   -1    0    0    0  501 -0.00000000000E+00 -0.00000000000E+00 -0.39215900139E+03  0.39215900140E+03  0.25500000000E-02 0. -1.
    5000001    1    1    2    0    0 -0.15567997728E+03  0.18615631073E+03 -0.16010904884E+03  0.30075627154E+03  0.77000000000E+02 0.  0.
   -5000001    1    1    2    0    0  0.15567997728E+03 -0.18615631073E+03 -0.61527098991E+02  0.26192558344E+03  0.77000000000E+02 0.  0.
<mgrwt>
<rscale>  0 0.51719270E+03</rscale>
<asrwt>0</asrwt>
<pdfrwt beam="1">  1        2 0.24360408E-01 0.51719270E+03</pdfrwt>
<pdfrwt beam="2">  1       -2 0.56022714E-01 0.51719270E+03</pdfrwt>
<totfact> 0.67959839E+02</totfact>
</mgrwt>
</event>
<event>
 4    1  0.5121375E-004  0.2854602E+03  0.7818608E-02  0.1092744E+00
         -2   -1    0    0    0  501 -0.00000000000E+00  0.00000000000E+00  0.12114585224E+02  0.12114585492E+02  0.25500000000E-02 0. -1.
          2   -1    0    0  501    0  0.00000000000E+00 -0.00000000000E+00 -0.16815993022E+04  0.16815993022E+04  0.25500000000E-02 0.  1.
    5000001    1    1    2    0    0  0.28876458389E+02 -0.99593299894E+02 -0.11951712935E+04  0.12021298166E+04  0.77000000000E+02 0.  0.
   -5000001    1    1    2    0    0 -0.28876458389E+02  0.99593299894E+02 -0.47431342353E+03  0.49158407111E+03  0.77000000000E+02 0.  0.
<mgrwt>
<rscale>  0 0.28546018E+03</rscale>
<asrwt>0</asrwt>
<pdfrwt beam="1">  1        2 0.24022832E+00 0.28546018E+03</pdfrwt>
<pdfrwt beam="2">  1       -2 0.17306561E-02 0.28546018E+03</pdfrwt>
<totfact> 0.12114519E+04</totfact>
</mgrwt>
</event>
<event>
 4    1  0.5121375E-004  0.1986860E+03  0.7818608E-02  0.1150852E+00
         -2   -1    0    0    0  501 -0.00000000000E+00  0.00000000000E+00  0.31752864838E+01  0.31752875078E+01  0.25500000000E-02 0. -1.
          2   -1    0    0  501    0  0.00000000000E+00 -0.00000000000E+00 -0.31080760491E+04  0.31080760491E+04  0.25500000000E-02 0.  1.
    5000001    1    1    2    0    0  0.49977897969E+01  0.59472150067E+02 -0.12479540964E+04  0.12517509102E+04  0.77000000000E+02 0.  0.
   -5000001    1    1    2    0    0 -0.49977897969E+01 -0.59472150067E+02 -0.18569466662E+04  0.18595004264E+04  0.77000000000E+02 0.  0.
<mgrwt>
<rscale>  0 0.19868602E+03</rscale>
<asrwt>0</asrwt>
<pdfrwt beam="1">  1        2 0.44400892E+00 0.19868602E+03</pdfrwt>
<pdfrwt beam="2">  1       -2 0.45361442E-03 0.19868602E+03</pdfrwt>
<totfact> 0.16163935E+04</totfact>
</mgrwt>
</event>
<event>
 4    1  0.5121375E-004  0.2331497E+03  0.7818608E-02  0.1124442E+00
          2   -1    0    0  501    0  0.00000000000E+00  0.00000000000E+00  0.83512264488E+03  0.83512264488E+03  0.25500000000E-02 0.  1.
         -2   -1    0    0    0  501 -0.00000000000E+00 -0.00000000000E+00 -0.16272687607E+02  0.16272687807E+02  0.25500000000E-02 0. -1.
    5000001    1    1    2    0    0 -0.87104736657E+02 -0.69580061926E+01  0.42769850427E+03  0.44327266953E+03  0.77000000000E+02 0.  0.
   -5000001    1    1    2    0    0  0.87104736657E+02  0.69580061926E+01  0.39115145300E+03  0.40812266316E+03  0.77000000000E+02 0.  0.
<mgrwt>
<rscale>  0 0.23314965E+03</rscale>
<asrwt>0</asrwt>
<pdfrwt beam="1">  1        2 0.11930327E+00 0.23314965E+03</pdfrwt>
<pdfrwt beam="2">  1       -2 0.23246691E-02 0.23314965E+03</pdfrwt>
<totfact> 0.22523086E+04</totfact>
</mgrwt>
</event>
<event>
 4    1  0.5121375E-004  0.2136269E+03  0.7818608E-02  0.1138726E+00
          2   -1    0    0  501    0  0.00000000000E+00  0.00000000000E+00  0.21094972206E+03  0.21094972207E+03  0.25500000000E-02 0.  1.
         -2   -1    0    0    0  501 -0.00000000000E+00 -0.00000000000E+00 -0.54084510593E+02  0.54084510653E+02  0.25500000000E-02 0. -1.
    5000001    1    1    2    0    0  0.29007633229E+02  0.55917782817E+02  0.30193033007E+02  0.10396566964E+03  0.77000000000E+02 0.  0.
   -5000001    1    1    2    0    0 -0.29007633229E+02 -0.55917782817E+02  0.12667217846E+03  0.16106856309E+03  0.77000000000E+02 0.  0.
<mgrwt>
<rscale>  0 0.21362689E+03</rscale>
<asrwt>0</asrwt>
<pdfrwt beam="1">  1        2 0.30135675E-01 0.21362689E+03</pdfrwt>
<pdfrwt beam="2">  1       -2 0.77263585E-02 0.21362689E+03</pdfrwt>
<totfact> 0.16911718E+04</totfact>
</mgrwt>
</event>
<event>
 4    1  0.5121375E-004  0.5135093E+03  0.7818608E-02  0.1010312E+00
         -2   -1    0    0    0  501 -0.00000000000E+00  0.00000000000E+00  0.19181590497E+04  0.19181590497E+04  0.25500000000E-02 0. -1.
          2   -1    0    0  501    0  0.00000000000E+00 -0.00000000000E+00 -0.34367823511E+02  0.34367823605E+02  0.25500000000E-02 0.  1.
    5000001    1    1    2    0    0 -0.53155330863E+02 -0.23736872376E+03  0.83271196240E+03  0.87092342518E+03  0.77000000000E+02 0.  0.
   -5000001    1    1    2    0    0  0.53155330863E+02  0.23736872376E+03  0.10510792638E+04  0.10816034482E+04  0.77000000000E+02 0.  0.
<mgrwt>
<rscale>  0 0.51350931E+03</rscale>
<asrwt>0</asrwt>
<pdfrwt beam="1">  1        2 0.49096870E-02 0.51350931E+03</pdfrwt>
<pdfrwt beam="2">  1       -2 0.27402284E+00 0.51350931E+03</pdfrwt>
<totfact> 0.81806731E+01</totfact>
</mgrwt>
</event>
<event>
 4    1  0.5121375E-004  0.2434578E+03  0.7818608E-02  0.1117511E+00
         -2   -1    0    0    0  501 -0.00000000000E+00  0.00000000000E+00  0.39834207820E+02  0.39834207902E+02  0.25500000000E-02 0. -1.
          2   -1    0    0  501    0  0.00000000000E+00 -0.00000000000E+00 -0.37199003247E+03  0.37199003248E+03  0.25500000000E-02 0.  1.
    5000001    1    1    2    0    0 -0.26560585586E+02 -0.75576013088E+02 -0.81979331987E+02  0.13808261778E+03  0.77000000000E+02 0.  0.
   -5000001    1    1    2    0    0  0.26560585586E+02  0.75576013088E+02 -0.25017649267E+03  0.27374162260E+03  0.77000000000E+02 0.  0.
<mgrwt>
<rscale>  0 0.24345783E+03</rscale>
<asrwt>0</asrwt>
<pdfrwt beam="1">  1        2 0.53141431E-01 0.24345783E+03</pdfrwt>
<pdfrwt beam="2">  1       -2 0.56906013E-02 0.24345783E+03</pdfrwt>
<totfact> 0.14812612E+04</totfact>
</mgrwt>
</event>
<event>
 4    1  0.5121375E-004  0.3514045E+03  0.7818608E-02  0.1062040E+00
         -2   -1    0    0    0  501 -0.00000000000E+00  0.00000000000E+00  0.29365435601E+02  0.29365435711E+02  0.25500000000E-02 0. -1.
          2   -1    0    0  501    0  0.00000000000E+00 -0.00000000000E+00 -0.10512796025E+04  0.10512796025E+04  0.25500000000E-02 0.  1.
    5000001    1    1    2    0    0  0.14758658874E+03  0.55542744208E+02 -0.48423879136E+03  0.51505631214E+03  0.77000000000E+02 0.  0.
   -5000001    1    1    2    0    0 -0.14758658874E+03 -0.55542744208E+02 -0.53767537557E+03  0.56558872611E+03  0.77000000000E+02 0.  0.
<mgrwt>
<rscale>  0 0.35140452E+03</rscale>
<asrwt>0</asrwt>
<pdfrwt beam="1">  1        2 0.15018278E+00 0.35140452E+03</pdfrwt>
<pdfrwt beam="2">  1       -2 0.41950629E-02 0.35140452E+03</pdfrwt>
<totfact> 0.69833886E+03</totfact>
</mgrwt>
</event>
<event>
 4    1  0.5121375E-004  0.5202217E+03  0.7818608E-02  0.1008631E+00
         -2   -1    0    0    0  501 -0.00000000000E+00  0.00000000000E+00  0.88732926296E+02  0.88732926332E+02  0.25500000000E-02 0. -1.
          2   -1    0    0  501    0  0.00000000000E+00 -0.00000000000E+00 -0.76248643371E+03  0.76248643371E+03  0.25500000000E-02 0.  1.
    5000001    1    1    2    0    0 -0.18910750073E+03  0.13287185899E+03 -0.48605577568E+03  0.54368722150E+03  0.77000000000E+02 0.  0.
   -5000001    1    1    2    0    0  0.18910750073E+03 -0.13287185899E+03 -0.18769773172E+03  0.30753213854E+03  0.77000000000E+02 0.  0.
<mgrwt>
<rscale>  0 0.52022169E+03</rscale>
<asrwt>0</asrwt>
<pdfrwt beam="1">  1        2 0.10892663E+00 0.52022169E+03</pdfrwt>
<pdfrwt beam="2">  1       -2 0.12676133E-01 0.52022169E+03</pdfrwt>
<totfact> 0.18772041E+03</totfact>
</mgrwt>
</event>
<event>
 4    1  0.5121375E-004  0.2092315E+03  0.7818608E-02  0.1142176E+00
          2   -1    0    0  501    0  0.00000000000E+00  0.00000000000E+00  0.25664531968E+03  0.25664531970E+03  0.25500000000E-02 0.  1.
         -2   -1    0    0    0  501 -0.00000000000E+00 -0.00000000000E+00 -0.42644295935E+02  0.42644296012E+02  0.25500000000E-02 0. -1.
    5000001    1    1    2    0    0 -0.27791536877E+01  0.60517963120E+02  0.54534757868E+02  0.11213022506E+03  0.77000000000E+02 0.  0.
   -5000001    1    1    2    0    0  0.27791536877E+01 -0.60517963120E+02  0.15946626588E+03  0.18715939065E+03  0.77000000000E+02 0.  0.
<mgrwt>
<rscale>  0 0.20923154E+03</rscale>
<asrwt>0</asrwt>
<pdfrwt beam="1">  1        2 0.36663619E-01 0.20923154E+03</pdfrwt>
<pdfrwt beam="2">  1       -2 0.60920420E-02 0.20923154E+03</pdfrwt>
<totfact> 0.19687539E+04</totfact>
</mgrwt>
</event>
<event>
 4    1  0.5121375E-004  0.3064576E+03  0.7818608E-02  0.1082056E+00
          2   -1    0    0  501    0  0.00000000000E+00  0.00000000000E+00  0.85946649201E+03  0.85946649201E+03  0.25500000000E-02 0.  1.
         -2   -1    0    0    0  501 -0.00000000000E+00 -0.00000000000E+00 -0.27318186809E+02  0.27318186928E+02  0.25500000000E-02 0. -1.
    5000001    1    1    2    0    0 -0.71477232596E+02  0.11018007424E+03  0.36583575801E+03  0.39624922130E+03  0.77000000000E+02 0.  0.
   -5000001    1    1    2    0    0  0.71477232596E+02 -0.11018007424E+03  0.46631254718E+03  0.49053545764E+03  0.77000000000E+02 0.  0.
<mgrwt>
<rscale>  0 0.30645761E+03</rscale>
<asrwt>0</asrwt>
<pdfrwt beam="1">  1        2 0.12278093E+00 0.30645761E+03</pdfrwt>
<pdfrwt beam="2">  1       -2 0.39025981E-02 0.30645761E+03</pdfrwt>
<totfact> 0.10165845E+04</totfact>
</mgrwt>
</event>
<event>
 4    1  0.5121375E-004  0.2154286E+03  0.7818608E-02  0.1137338E+00
          2   -1    0    0  501    0  0.00000000000E+00  0.00000000000E+00  0.78474543251E+03  0.78474543252E+03  0.25500000000E-02 0.  1.
         -2   -1    0    0    0  501 -0.00000000000E+00 -0.00000000000E+00 -0.14784882672E+02  0.14784882892E+02  0.25500000000E-02 0. -1.
    5000001    1    1    2    0    0  0.61094260018E+02 -0.25948973724E+02  0.51711213053E+03  0.52701025928E+03  0.77000000000E+02 0.  0.
   -5000001    1    1    2    0    0 -0.61094260018E+02  0.25948973724E+02  0.25284841931E+03  0.27252005613E+03  0.77000000000E+02 0.  0.
<mgrwt>
<rscale>  0 0.21542859E+03</rscale>
<asrwt>0</asrwt>
<pdfrwt beam="1">  1        2 0.11210648E+00 0.21542859E+03</pdfrwt>
<pdfrwt beam="2">  1       -2 0.21121262E-02 0.21542859E+03</pdfrwt>
<totfact> 0.27863561E+04</totfact>
</mgrwt>
</event>
<event>
 4    1  0.5121375E-004  0.3593503E+03  0.7818608E-02  0.1058841E+00
          2   -1    0    0  501    0  0.00000000000E+00  0.00000000000E+00  0.21304827923E+03  0.21304827925E+03  0.25500000000E-02 0.  1.
         -2   -1    0    0    0  501 -0.00000000000E+00 -0.00000000000E+00 -0.15152980546E+03  0.15152980548E+03  0.25500000000E-02 0. -1.
    5000001    1    1    2    0    0 -0.13241205283E+03  0.31430468766E+01  0.12599352571E+03  0.19835876335E+03  0.77000000000E+02 0.  0.
   -5000001    1    1    2    0    0  0.13241205283E+03 -0.31430468766E+01 -0.64475051934E+02  0.16621932138E+03  0.77000000000E+02 0.  0.
<mgrwt>
<rscale>  0 0.35935033E+03</rscale>
<asrwt>0</asrwt>
<pdfrwt beam="1">  1        2 0.30435469E-01 0.35935033E+03</pdfrwt>
<pdfrwt beam="2">  1       -2 0.21647115E-01 0.35935033E+03</pdfrwt>
<totfact> 0.31775086E+03</totfact>
</mgrwt>
</event>
<event>
 4    1  0.5121375E-004  0.4705676E+03  0.7818608E-02  0.1021760E+00
          2   -1    0    0  501    0  0.00000000000E+00  0.00000000000E+00  0.99960675544E+03  0.99960675544E+03  0.25500000000E-02 0.  1.
         -2   -1    0    0    0  501 -0.00000000000E+00 -0.00000000000E+00 -0.55380239836E+02  0.55380239894E+02  0.25500000000E-02 0. -1.
    5000001    1    1    2    0    0  0.74073237576E+02 -0.20798108067E+03  0.53085426703E+03  0.58006743337E+03  0.77000000000E+02 0.  0.
   -5000001    1    1    2    0    0 -0.74073237576E+02  0.20798108067E+03  0.41337224858E+03  0.47491956197E+03  0.77000000000E+02 0.  0.
<mgrwt>
<rscale>  0 0.47056758E+03</rscale>
<asrwt>0</asrwt>
<pdfrwt beam="1">  1        2 0.14280098E+00 0.47056758E+03</pdfrwt>
<pdfrwt beam="2">  1       -2 0.79114621E-02 0.47056758E+03</pdfrwt>
<totfact> 0.28148368E+03</totfact>
</mgrwt>
</event>
<event>
 4    1  0.5121375E-004  0.2198831E+03  0.7818608E-02  0.1133970E+00
          2   -1    0    0  501    0  0.00000000000E+00  0.00000000000E+00  0.12560929946E+03  0.12560929949E+03  0.25500000000E-02 0.  1.
         -2   -1    0    0    0  501 -0.00000000000E+00 -0.00000000000E+00 -0.96228111059E+02  0.96228111093E+02  0.25500000000E-02 0. -1.
    5000001    1    1    2    0    0 -0.34865573394E+02  0.66367771257E+02 -0.87072619598E+01  0.10781978334E+03  0.77000000000E+02 0.  0.
   -5000001    1    1    2    0    0  0.34865573394E+02 -0.66367771257E+02  0.38088450365E+02  0.11401762724E+03  0.77000000000E+02 0.  0.
<mgrwt>
<rscale>  0 0.21988311E+03</rscale>
<asrwt>0</asrwt>
<pdfrwt beam="1">  1        2 0.17944186E-01 0.21988311E+03</pdfrwt>
<pdfrwt beam="2">  1       -2 0.13746873E-01 0.21988311E+03</pdfrwt>
<totfact> 0.12136649E+04</totfact>
</mgrwt>
</event>
<event>
 4    1  0.5121375E-004  0.5771784E+03  0.7818608E-02  0.9953918E-01
          2   -1    0    0  501    0  0.00000000000E+00  0.00000000000E+00  0.10022872048E+04  0.10022872048E+04  0.25500000000E-02 0.  1.
         -2   -1    0    0    0  501 -0.00000000000E+00 -0.00000000000E+00 -0.83093684248E+02  0.83093684287E+02  0.25500000000E-02 0. -1.
    5000001    1    1    2    0    0  0.26694372602E+03  0.24212986738E+02  0.59917854818E+03  0.66090026039E+03  0.77000000000E+02 0.  0.
   -5000001    1    1    2    0    0 -0.26694372602E+03 -0.24212986738E+02  0.32001497235E+03  0.42448062867E+03  0.77000000000E+02 0.  0.
<mgrwt>
<rscale>  0 0.57717844E+03</rscale>
<asrwt>0</asrwt>
<pdfrwt beam="1">  1        2 0.14318388E+00 0.57717844E+03</pdfrwt>
<pdfrwt beam="2">  1       -2 0.11870527E-01 0.57717844E+03</pdfrwt>
<totfact> 0.14568702E+03</totfact>
</mgrwt>
</event>
<event>
 4    1  0.5121375E-004  0.3169061E+03  0.7818608E-02  0.1077082E+00
         -2   -1    0    0    0  501 -0.00000000000E+00  0.00000000000E+00  0.53212322449E+02  0.53212322510E+02  0.25500000000E-02 0. -1.
          2   -1    0    0  501    0  0.00000000000E+00 -0.00000000000E+00 -0.47183359715E+03  0.47183359716E+03  0.25500000000E-02 0.  1.
    5000001    1    1    2    0    0  0.42948997809E+02  0.11764917807E+03 -0.11140003109E+03  0.18445843012E+03  0.77000000000E+02 0.  0.
   -5000001    1    1    2    0    0 -0.42948997809E+02 -0.11764917807E+03 -0.30722124361E+03  0.34058748955E+03  0.77000000000E+02 0.  0.
<mgrwt>
<rscale>  0 0.31690605E+03</rscale>
<asrwt>0</asrwt>
<pdfrwt beam="1">  1        2 0.67404797E-01 0.31690605E+03</pdfrwt>
<pdfrwt beam="2">  1       -2 0.76017606E-02 0.31690605E+03</pdfrwt>
<totfact> 0.73992678E+03</totfact>
</mgrwt>
</event>
<event>
 4    1  0.5121375E-004  0.8148957E+03  0.7818608E-02  0.9538703E-01
         -2   -1    0    0    0  501 -0.00000000000E+00  0.00000000000E+00  0.26107397147E+03  0.26107397148E+03  0.25500000000E-02 0. -1.
          2   -1    0    0  501    0  0.00000000000E+00 -0.00000000000E+00 -0.63588784219E+03  0.63588784220E+03  0.25500000000E-02 0.  1.
    5000001    1    1    2    0    0  0.37424063953E+03 -0.89798055007E+02 -0.67006355762E+02  0.39816905790E+03  0.77000000000E+02 0.  0.
   -5000001    1    1    2    0    0 -0.37424063953E+03  0.89798055007E+02 -0.30780751496E+03  0.49879275578E+03  0.77000000000E+02 0.  0.
<mgrwt>
<rscale>  0 0.81489573E+03</rscale>
<asrwt>0</asrwt>
<pdfrwt beam="1">  1        2 0.90841120E-01 0.81489573E+03</pdfrwt>
<pdfrwt beam="2">  1       -2 0.37296282E-01 0.81489573E+03</pdfrwt>
<totfact> 0.34438816E+02</totfact>
</mgrwt>
</event>
<event>
 4    1  0.5121375E-004  0.2973509E+03  0.7818608E-02  0.1086572E+00
         -2   -1    0    0    0  501 -0.00000000000E+00  0.00000000000E+00  0.23859952823E+02  0.23859952960E+02  0.25500000000E-02 0. -1.
          2   -1    0    0  501    0  0.00000000000E+00 -0.00000000000E+00 -0.92642200838E+03  0.92642200839E+03  0.25500000000E-02 0.  1.
    5000001    1    1    2    0    0  0.12019265251E+03  0.40496822557E+02 -0.48145057062E+03  0.50379551239E+03  0.77000000000E+02 0.  0.
   -5000001    1    1    2    0    0 -0.12019265251E+03 -0.40496822557E+02 -0.42111148494E+03  0.44648644896E+03  0.77000000000E+02 0.  0.
<mgrwt>
<rscale>  0 0.29735087E+03</rscale>
<asrwt>0</asrwt>
<pdfrwt beam="1">  1        2 0.13234598E+00 0.29735087E+03</pdfrwt>
<pdfrwt beam="2">  1       -2 0.34085653E-02 0.29735087E+03</pdfrwt>
<totfact> 0.11292854E+04</totfact>
</mgrwt>
</event>
<event>
 4    1  0.5121375E-004  0.2491817E+03  0.7818608E-02  0.1113823E+00
         -2   -1    0    0    0  501 -0.00000000000E+00  0.00000000000E+00  0.33242013556E+02  0.33242013653E+02  0.25500000000E-02 0. -1.
          2   -1    0    0  501    0  0.00000000000E+00 -0.00000000000E+00 -0.46696577633E+03  0.46696577634E+03  0.25500000000E-02 0.  1.
    5000001    1    1    2    0    0 -0.16054075523E+01 -0.84244403596E+02 -0.11660858287E+03  0.16317554495E+03  0.77000000000E+02 0.  0.
   -5000001    1    1    2    0    0  0.16054075523E+01  0.84244403596E+02 -0.31711517991E+03  0.33703224504E+03  0.77000000000E+02 0.  0.
<mgrwt>
<rscale>  0 0.24918172E+03</rscale>
<asrwt>0</asrwt>
<pdfrwt beam="1">  1        2 0.66709393E-01 0.24918172E+03</pdfrwt>
<pdfrwt beam="2">  1       -2 0.47488594E-02 0.24918172E+03</pdfrwt>
<totfact> 0.15263165E+04</totfact>
</mgrwt>
</event>
<event>
 4    1  0.5121375E-004  0.2156692E+03  0.7818608E-02  0.1137154E+00
         -2   -1    0    0    0  501 -0.00000000000E+00  0.00000000000E+00  0.11076558417E+02  0.11076558710E+02  0.25500000000E-02 0. -1.
          2   -1    0    0  501    0  0.00000000000E+00 -0.00000000000E+00 -0.10498116691E+04  0.10498116691E+04  0.25500000000E-02 0.  1.
    5000001    1    1    2    0    0  0.60354942418E+02  0.29471706063E+02 -0.68891440140E+03  0.69645053880E+03  0.77000000000E+02 0.  0.
   -5000001    1    1    2    0    0 -0.60354942418E+02 -0.29471706063E+02 -0.34982070927E+03  0.36443768901E+03  0.77000000000E+02 0.  0.
<mgrwt>
<rscale>  0 0.21566920E+03</rscale>
<asrwt>0</asrwt>
<pdfrwt beam="1">  1        2 0.14997303E+00 0.21566920E+03</pdfrwt>
<pdfrwt beam="2">  1       -2 0.15823662E-02 0.21566920E+03</pdfrwt>
<totfact> 0.29157626E+04</totfact>
</mgrwt>
</event>
<event>
 4    1  0.5121375E-004  0.2091991E+03  0.7818608E-02  0.1142202E+00
         -2   -1    0    0    0  501 -0.00000000000E+00  0.00000000000E+00  0.32535459874E+01  0.32535469867E+01  0.25500000000E-02 0. -1.
          2   -1    0    0  501    0  0.00000000000E+00 -0.00000000000E+00 -0.33628121404E+04  0.33628121404E+04  0.25500000000E-02 0.  1.
    5000001    1    1    2    0    0  0.14240208546E+02  0.63835622031E+02 -0.21157910521E+04  0.21182017246E+04  0.77000000000E+02 0.  0.
   -5000001    1    1    2    0    0 -0.14240208546E+02 -0.63835622031E+02 -0.12437675423E+04  0.12478639627E+04  0.77000000000E+02 0.  0.
<mgrwt>
<rscale>  0 0.20919910E+03</rscale>
<asrwt>0</asrwt>
<pdfrwt beam="1">  1        2 0.48039951E+00 0.20919910E+03</pdfrwt>
<pdfrwt beam="2">  1       -2 0.46479451E-03 0.20919910E+03</pdfrwt>
<totfact> 0.11342622E+04</totfact>
</mgrwt>
</event>
<event>
 4    1  0.5121375E-004  0.2541790E+03  0.7818608E-02  0.1110692E+00
         -2   -1    0    0    0  501 -0.00000000000E+00  0.00000000000E+00  0.35052075627E+02  0.35052075720E+02  0.25500000000E-02 0. -1.
          2   -1    0    0  501    0  0.00000000000E+00 -0.00000000000E+00 -0.46079283925E+03  0.46079283925E+03  0.25500000000E-02 0.  1.
    5000001    1    1    2    0    0 -0.27546155572E+02 -0.93236813841E+02 -0.26703197748E+03  0.29442651229E+03  0.77000000000E+02 0.  0.
   -5000001    1    1    2    0    0  0.27546155572E+02  0.93236813841E+02 -0.15870878613E+03  0.20141840268E+03  0.77000000000E+02 0.  0.
<mgrwt>
<rscale>  0 0.25417904E+03</rscale>
<asrwt>0</asrwt>
<pdfrwt beam="1">  1        2 0.65827545E-01 0.25417904E+03</pdfrwt>
<pdfrwt beam="2">  1       -2 0.50074397E-02 0.25417904E+03</pdfrwt>
<totfact> 0.14305914E+04</totfact>
</mgrwt>
</event>
<event>
 4    1  0.5121375E-004  0.1840692E+03  0.7818608E-02  0.1163922E+00
          2   -1    0    0  501    0  0.00000000000E+00  0.00000000000E+00  0.30135404295E+03  0.30135404296E+03  0.25500000000E-02 0.  1.
         -2   -1    0    0    0  501 -0.00000000000E+00 -0.00000000000E+00 -0.28107689797E+02  0.28107689913E+02  0.25500000000E-02 0. -1.
    5000001    1    1    2    0    0 -0.31646430645E+02  0.39146277802E+02  0.13174157944E+03  0.16068220621E+03  0.77000000000E+02 0.  0.
   -5000001    1    1    2    0    0  0.31646430645E+02 -0.39146277802E+02  0.14150477371E+03  0.16877952667E+03  0.77000000000E+02 0.  0.
<mgrwt>
<rscale>  0 0.18406918E+03</rscale>
<asrwt>0</asrwt>
<pdfrwt beam="1">  1        2 0.43050575E-01 0.18406918E+03</pdfrwt>
<pdfrwt beam="2">  1       -2 0.40153845E-02 0.18406918E+03</pdfrwt>
<totfact> 0.30795193E+04</totfact>
</mgrwt>
</event>
<event>
 4    1  0.5121375E-004  0.2895755E+03  0.7818608E-02  0.1090571E+00
         -2   -1    0    0    0  501 -0.00000000000E+00  0.00000000000E+00  0.26337533310E+02  0.26337533433E+02  0.25500000000E-02 0. -1.
          2   -1    0    0  501    0  0.00000000000E+00 -0.00000000000E+00 -0.79595512827E+03  0.79595512828E+03  0.25500000000E-02 0.  1.
    5000001    1    1    2    0    0 -0.18799824888E+02 -0.10734377400E+03 -0.54439541120E+03  0.56051002040E+03  0.77000000000E+02 0.  0.
   -5000001    1    1    2    0    0  0.18799824888E+02  0.10734377400E+03 -0.22522218377E+03  0.26178264132E+03  0.77000000000E+02 0.  0.
<mgrwt>
<rscale>  0 0.28957552E+03</rscale>
<asrwt>0</asrwt>
<pdfrwt beam="1">  1        2 0.11370786E+00 0.28957552E+03</pdfrwt>
<pdfrwt beam="2">  1       -2 0.37625053E-02 0.28957552E+03</pdfrwt>
<totfact> 0.11806909E+04</totfact>
</mgrwt>
</event>
<event>
 4    1  0.5121375E-004  0.1993719E+03  0.7818608E-02  0.1150270E+00
          2   -1    0    0  501    0  0.00000000000E+00  0.00000000000E+00  0.33664020586E+04  0.33664020586E+04  0.25500000000E-02 0.  1.
         -2   -1    0    0    0  501 -0.00000000000E+00 -0.00000000000E+00 -0.29519014942E+01  0.29519025956E+01  0.25500000000E-02 0. -1.
    5000001    1    1    2    0    0 -0.47980374101E+02  0.17569435753E+02  0.23134917106E+04  0.23153366270E+04  0.77000000000E+02 0.  0.
   -5000001    1    1    2    0    0  0.47980374101E+02 -0.17569435753E+02  0.10499584465E+04  0.10540173342E+04  0.77000000000E+02 0.  0.
<mgrwt>
<rscale>  0 0.19937190E+03</rscale>
<asrwt>0</asrwt>
<pdfrwt beam="1">  1        2 0.48091367E+00 0.19937190E+03</pdfrwt>
<pdfrwt beam="2">  1       -2 0.42170109E-03 0.19937190E+03</pdfrwt>
<totfact> 0.12967044E+04</totfact>
</mgrwt>
</event>
<event>
 4    1  0.5121375E-004  0.2610591E+03  0.7818608E-02  0.1106509E+00
         -2   -1    0    0    0  501 -0.00000000000E+00  0.00000000000E+00  0.19466854247E+02  0.19466854414E+02  0.25500000000E-02 0. -1.
          2   -1    0    0  501    0  0.00000000000E+00 -0.00000000000E+00 -0.87522951115E+03  0.87522951116E+03  0.25500000000E-02 0.  1.
    5000001    1    1    2    0    0  0.12052928973E+02  0.10470501117E+03 -0.43042978092E+03  0.44978573651E+03  0.77000000000E+02 0.  0.
   -5000001    1    1    2    0    0 -0.12052928973E+02 -0.10470501117E+03 -0.42533287598E+03  0.44491062906E+03  0.77000000000E+02 0.  0.
<mgrwt>
<rscale>  0 0.26105912E+03</rscale>
<asrwt>0</asrwt>
<pdfrwt beam="1">  1        2 0.12503276E+00 0.26105912E+03</pdfrwt>
<pdfrwt beam="2">  1       -2 0.27809797E-02 0.26105912E+03</pdfrwt>
<totfact> 0.16381484E+04</totfact>
</mgrwt>
</event>
<event>
 4    1  0.5121375E-004  0.2087174E+03  0.7818608E-02  0.1142586E+00
          2   -1    0    0  501    0  0.00000000000E+00  0.00000000000E+00  0.34092669110E+04  0.34092669110E+04  0.25500000000E-02 0.  1.
         -2   -1    0    0    0  501 -0.00000000000E+00 -0.00000000000E+00 -0.31944517204E+01  0.31944527381E+01  0.25500000000E-02 0. -1.
    5000001    1    1    2    0    0  0.45281163536E+02  0.50348580655E+02  0.20202270070E+04  0.20228276059E+04  0.77000000000E+02 0.  0.
   -5000001    1    1    2    0    0 -0.45281163536E+02 -0.50348580655E+02  0.13858454523E+04  0.13896337578E+04  0.77000000000E+02 0.  0.
<mgrwt>
<rscale>  0 0.20871742E+03</rscale>
<asrwt>0</asrwt>
<pdfrwt beam="1">  1        2 0.48703711E+00 0.20871742E+03</pdfrwt>
<pdfrwt beam="2">  1       -2 0.45635127E-03 0.20871742E+03</pdfrwt>
<totfact> 0.10964656E+04</totfact>
</mgrwt>
</event>
<event>
 4    1  0.5121375E-004  0.3960528E+03  0.7818608E-02  0.1045155E+00
          2   -1    0    0  501    0  0.00000000000E+00  0.00000000000E+00  0.69446310548E+03  0.69446310549E+03  0.25500000000E-02 0.  1.
         -2   -1    0    0    0  501 -0.00000000000E+00 -0.00000000000E+00 -0.56467300818E+02  0.56467300875E+02  0.25500000000E-02 0. -1.
    5000001    1    1    2    0    0 -0.75631753092E+02 -0.14259787802E+03  0.15776636973E+03  0.23848174838E+03  0.77000000000E+02 0.  0.
   -5000001    1    1    2    0    0  0.75631753092E+02  0.14259787802E+03  0.48022943494E+03  0.51244865799E+03  0.77000000000E+02 0.  0.
<mgrwt>
<rscale>  0 0.39605281E+03</rscale>
<asrwt>0</asrwt>
<pdfrwt beam="1">  1        2 0.99209017E-01 0.39605281E+03</pdfrwt>
<pdfrwt beam="2">  1       -2 0.80667571E-02 0.39605281E+03</pdfrwt>
<totfact> 0.43526057E+03</totfact>
</mgrwt>
</event>
<event>
 4    1  0.5121375E-004  0.1710928E+03  0.7818608E-02  0.1176713E+00
          2   -1    0    0  501    0  0.00000000000E+00  0.00000000000E+00  0.15892735453E+04  0.15892735454E+04  0.25500000000E-02 0.  1.
         -2   -1    0    0    0  501 -0.00000000000E+00 -0.00000000000E+00 -0.46047360783E+01  0.46047367844E+01  0.25500000000E-02 0. -1.
    5000001    1    1    2    0    0  0.32665640641E+02  0.29864206500E+00  0.62515345021E+03  0.63072416283E+03  0.77000000000E+02 0.  0.
   -5000001    1    1    2    0    0 -0.32665640641E+02 -0.29864206500E+00  0.95951535906E+03  0.96315411931E+03  0.77000000000E+02 0.  0.
<mgrwt>
<rscale>  0 0.17109279E+03</rscale>
<asrwt>0</asrwt>
<pdfrwt beam="1">  1        2 0.22703921E+00 0.17109279E+03</pdfrwt>
<pdfrwt beam="2">  1       -2 0.65781912E-03 0.17109279E+03</pdfrwt>
<totfact> 0.53187132E+04</totfact>
</mgrwt>
</event>
<event>
 4    1  0.5121375E-004  0.1917654E+03  0.7818608E-02  0.1156879E+00
         -2   -1    0    0    0  501 -0.00000000000E+00  0.00000000000E+00  0.30089143976E+01  0.30089154782E+01  0.25500000000E-02 0. -1.
          2   -1    0    0  501    0  0.00000000000E+00 -0.00000000000E+00 -0.30554166183E+04  0.30554166183E+04  0.25500000000E-02 0.  1.
    5000001    1    1    2    0    0  0.51491885660E+02 -0.13405801816E+02 -0.11941935192E+04  0.11978557055E+04  0.77000000000E+02 0.  0.
   -5000001    1    1    2    0    0 -0.51491885660E+02  0.13405801816E+02 -0.18582141846E+04  0.18605698283E+04  0.77000000000E+02 0.  0.
<mgrwt>
<rscale>  0 0.19176536E+03</rscale>
<asrwt>0</asrwt>
<pdfrwt beam="1">  1        2 0.43648610E+00 0.19176536E+03</pdfrwt>
<pdfrwt beam="2">  1       -2 0.42984695E-03 0.19176536E+03</pdfrwt>
<totfact> 0.18598790E+04</totfact>
</mgrwt>
</event>
<event>
 4    1  0.5121375E-004  0.3031789E+03  0.7818608E-02  0.1083662E+00
         -2   -1    0    0    0  501 -0.00000000000E+00  0.00000000000E+00  0.40230896216E+02  0.40230896297E+02  0.25500000000E-02 0. -1.
          2   -1    0    0  501    0  0.00000000000E+00 -0.00000000000E+00 -0.57118699140E+03  0.57118699141E+03  0.25500000000E-02 0.  1.
    5000001    1    1    2    0    0  0.89214830152E+02 -0.76030479450E+02 -0.14944483494E+03  0.20494554988E+03  0.77000000000E+02 0.  0.
   -5000001    1    1    2    0    0 -0.89214830152E+02  0.76030479450E+02 -0.38151126024E+03  0.40647233782E+03  0.77000000000E+02 0.  0.
<mgrwt>
<rscale>  0 0.30317892E+03</rscale>
<asrwt>0</asrwt>
<pdfrwt beam="1">  1        2 0.81598137E-01 0.30317892E+03</pdfrwt>
<pdfrwt beam="2">  1       -2 0.57472712E-02 0.30317892E+03</pdfrwt>
<totfact> 0.91999656E+03</totfact>
</mgrwt>
</event>
<event>
 4    1  0.5121375E-004  0.2020614E+03  0.7818608E-02  0.1148011E+00
         -2   -1    0    0    0  501 -0.00000000000E+00  0.00000000000E+00  0.58994426455E+01  0.58994431967E+01  0.25500000000E-02 0. -1.
          2   -1    0    0  501    0  0.00000000000E+00 -0.00000000000E+00 -0.17301981536E+04  0.17301981536E+04  0.25500000000E-02 0.  1.
    5000001    1    1    2    0    0  0.41608815137E+02  0.16216386579E+02 -0.45153595836E+03  0.46022601663E+03  0.77000000000E+02 0.  0.
   -5000001    1    1    2    0    0 -0.41608815137E+02 -0.16216386579E+02 -0.12727627526E+04  0.12758715802E+04  0.77000000000E+02 0.  0.
<mgrwt>
<rscale>  0 0.20206143E+03</rscale>
<asrwt>0</asrwt>
<pdfrwt beam="1">  1        2 0.24717084E+00 0.20206143E+03</pdfrwt>
<pdfrwt beam="2">  1       -2 0.84277867E-03 0.20206143E+03</pdfrwt>
<totfact> 0.32179723E+04</totfact>
</mgrwt>
</event>
<event>
 4    1  0.5121375E-004  0.1808020E+03  0.7818608E-02  0.1167029E+00
          2   -1    0    0  501    0  0.00000000000E+00  0.00000000000E+00  0.82493023423E+02  0.82493023463E+02  0.25500000000E-02 0.  1.
         -2   -1    0    0    0  501 -0.00000000000E+00 -0.00000000000E+00 -0.99067075522E+02  0.99067075554E+02  0.25500000000E-02 0. -1.
    5000001    1    1    2    0    0  0.33610628463E+02 -0.13840124610E+02 -0.38780764009E+02  0.93563727224E+02  0.77000000000E+02 0.  0.
   -5000001    1    1    2    0    0 -0.33610628463E+02  0.13840124610E+02  0.22206711911E+02  0.87996371793E+02  0.77000000000E+02 0.  0.
<mgrwt>
<rscale>  0 0.18080202E+03</rscale>
<asrwt>0</asrwt>
<pdfrwt beam="1">  1        2 0.11784718E-01 0.18080202E+03</pdfrwt>
<pdfrwt beam="2">  1       -2 0.14152439E-01 0.18080202E+03</pdfrwt>
<totfact> 0.18767323E+04</totfact>
</mgrwt>
</event>
<event>
 4    1  0.5121375E-004  0.2447597E+03  0.7818608E-02  0.1116662E+00
         -2   -1    0    0    0  501 -0.00000000000E+00  0.00000000000E+00  0.35642652436E+02  0.35642652528E+02  0.25500000000E-02 0. -1.
          2   -1    0    0  501    0  0.00000000000E+00 -0.00000000000E+00 -0.42019391346E+03  0.42019391346E+03  0.25500000000E-02 0.  1.
    5000001    1    1    2    0    0 -0.86642221807E+02  0.39254214944E+02 -0.19272277810E+03  0.22829550410E+03  0.77000000000E+02 0.  0.
   -5000001    1    1    2    0    0  0.86642221807E+02 -0.39254214944E+02 -0.19182848291E+03  0.22754106189E+03  0.77000000000E+02 0.  0.
<mgrwt>
<rscale>  0 0.24475968E+03</rscale>
<asrwt>0</asrwt>
<pdfrwt beam="1">  1        2 0.60027699E-01 0.24475968E+03</pdfrwt>
<pdfrwt beam="2">  1       -2 0.50918078E-02 0.24475968E+03</pdfrwt>
<totfact> 0.15387580E+04</totfact>
</mgrwt>
</event>
<event>
 4    1  0.5121375E-004  0.1847157E+03  0.7818608E-02  0.1163316E+00
          2   -1    0    0  501    0  0.00000000000E+00  0.00000000000E+00  0.63233314389E+03  0.63233314390E+03  0.25500000000E-02 0.  1.
         -2   -1    0    0    0  501 -0.00000000000E+00 -0.00000000000E+00 -0.13489681400E+02  0.13489681641E+02  0.25500000000E-02 0. -1.
    5000001    1    1    2    0    0 -0.24846347135E+02  0.39126045829E+02  0.23502476031E+03  0.25162238849E+03  0.77000000000E+02 0.  0.
   -5000001    1    1    2    0    0  0.24846347135E+02 -0.39126045829E+02  0.38381870218E+03  0.39420043705E+03  0.77000000000E+02 0.  0.
<mgrwt>
<rscale>  0 0.18471570E+03</rscale>
<asrwt>0</asrwt>
<pdfrwt beam="1">  1        2 0.90333294E-01 0.18471570E+03</pdfrwt>
<pdfrwt beam="2">  1       -2 0.19270976E-02 0.18471570E+03</pdfrwt>
<totfact> 0.40618031E+04</totfact>
</mgrwt>
</event>
<event>
 4    1  0.5121375E-004  0.4052584E+03  0.7818608E-02  0.1041974E+00
          2   -1    0    0  501    0  0.00000000000E+00  0.00000000000E+00  0.63616444924E+03  0.63616444925E+03  0.25500000000E-02 0.  1.
         -2   -1    0    0    0  501 -0.00000000000E+00 -0.00000000000E+00 -0.64540838517E+02  0.64540838568E+02  0.25500000000E-02 0. -1.
    5000001    1    1    2    0    0 -0.29438056575E+02 -0.75730264850E+02  0.57784916552E+03  0.58859181975E+03  0.77000000000E+02 0.  0.
   -5000001    1    1    2    0    0  0.29438056575E+02  0.75730264850E+02 -0.62255547908E+01  0.11211346807E+03  0.77000000000E+02 0.  0.
<mgrwt>
<rscale>  0 0.40525837E+03</rscale>
<asrwt>0</asrwt>
<pdfrwt beam="1">  1        2 0.90880638E-01 0.40525837E+03</pdfrwt>
<pdfrwt beam="2">  1       -2 0.92201195E-02 0.40525837E+03</pdfrwt>
<totfact> 0.39092362E+03</totfact>
</mgrwt>
</event>
<event>
 4    1  0.5121375E-004  0.1825784E+03  0.7818608E-02  0.1165331E+00
          2   -1    0    0  501    0  0.00000000000E+00  0.00000000000E+00  0.16230926157E+03  0.16230926159E+03  0.25500000000E-02 0.  1.
         -2   -1    0    0    0  501 -0.00000000000E+00 -0.00000000000E+00 -0.51344687098E+02  0.51344687161E+02  0.25500000000E-02 0. -1.
    5000001    1    1    2    0    0 -0.17112784608E+02 -0.45387189349E+02  0.47054064856E+02  0.10244964311E+03  0.77000000000E+02 0.  0.
   -5000001    1    1    2    0    0  0.17112784608E+02  0.45387189349E+02  0.63910509620E+02  0.11120430564E+03  0.77000000000E+02 0.  0.
<mgrwt>
<rscale>  0 0.18257840E+03</rscale>
<asrwt>0</asrwt>
<pdfrwt beam="1">  1        2 0.23187037E-01 0.18257840E+03</pdfrwt>
<pdfrwt beam="2">  1       -2 0.73349553E-02 0.18257840E+03</pdfrwt>
<totfact> 0.24189302E+04</totfact>
</mgrwt>
</event>
<event>
 4    1  0.5121375E-004  0.2196162E+03  0.7818608E-02  0.1134169E+00
         -2   -1    0    0    0  501 -0.00000000000E+00  0.00000000000E+00  0.58561938284E+01  0.58561943835E+01  0.25500000000E-02 0. -1.
          2   -1    0    0  501    0  0.00000000000E+00 -0.00000000000E+00 -0.20589859179E+04  0.20589859179E+04  0.25500000000E-02 0.  1.
    5000001    1    1    2    0    0  0.48128479190E+02 -0.48559358413E+02 -0.66799545324E+03  0.67588555788E+03  0.77000000000E+02 0.  0.
   -5000001    1    1    2    0    0 -0.48128479190E+02  0.48559358413E+02 -0.13851342708E+04  0.13889565544E+04  0.77000000000E+02 0.  0.
<mgrwt>
<rscale>  0 0.21961622E+03</rscale>
<asrwt>0</asrwt>
<pdfrwt beam="1">  1        2 0.29414038E+00 0.21961622E+03</pdfrwt>
<pdfrwt beam="2">  1       -2 0.83660048E-03 0.21961622E+03</pdfrwt>
<totfact> 0.22636771E+04</totfact>
</mgrwt>
</event>
<event>
 4    1  0.5121375E-004  0.5241284E+03  0.7818608E-02  0.1007666E+00
         -2   -1    0    0    0  501 -0.00000000000E+00  0.00000000000E+00  0.12991343500E+03  0.12991343503E+03  0.25500000000E-02 0.  1.
          2   -1    0    0  501    0  0.00000000000E+00 -0.00000000000E+00 -0.52864157508E+03  0.52864157509E+03  0.25500000000E-02 0. -1.
    5000001    1    1    2    0    0  0.14821014106E+03 -0.11724861817E+03  0.72304664249E+01  0.20419295781E+03  0.77000000000E+02 0.  0.
   -5000001    1    1    2    0    0 -0.14821014106E+03  0.11724861817E+03 -0.40595860651E+03  0.45436205230E+03  0.77000000000E+02 0.  0.
<mgrwt>
<rscale>  0 0.52412839E+03</rscale>
<asrwt>0</asrwt>
<pdfrwt beam="1">  1        2 0.75520224E-01 0.52412839E+03</pdfrwt>
<pdfrwt beam="2">  1       -2 0.18559063E-01 0.52412839E+03</pdfrwt>
<totfact> 0.15279819E+03</totfact>
</mgrwt>
</event>
<event>
 4    1  0.5121375E-004  0.1995372E+03  0.7818608E-02  0.1150130E+00
         -2   -1    0    0    0  501 -0.00000000000E+00  0.00000000000E+00  0.10500020587E+03  0.10500020590E+03  0.25500000000E-02 0. -1.
          2   -1    0    0  501    0  0.00000000000E+00 -0.00000000000E+00 -0.94797639322E+02  0.94797639357E+02  0.25500000000E-02 0.  1.
    5000001    1    1    2    0    0  0.11112742324E+02  0.59048913349E+02 -0.15284695239E+02  0.98857923902E+02  0.77000000000E+02 0.  0.
   -5000001    1    1    2    0    0 -0.11112742324E+02 -0.59048913349E+02  0.25487261784E+02  0.10093992135E+03  0.77000000000E+02 0.  0.
<mgrwt>
<rscale>  0 0.19953718E+03</rscale>
<asrwt>0</asrwt>
<pdfrwt beam="1">  1        2 0.13542520E-01 0.19953718E+03</pdfrwt>
<pdfrwt beam="2">  1       -2 0.15000030E-01 0.19953718E+03</pdfrwt>
<totfact> 0.14547547E+04</totfact>
</mgrwt>
</event>
<event>
 4    1  0.5121375E-004  0.3179429E+03  0.7818608E-02  0.1076600E+00
          2   -1    0    0  501    0  0.00000000000E+00  0.00000000000E+00  0.91846107690E+02  0.91846107725E+02  0.25500000000E-02 0.  1.
         -2   -1    0    0    0  501 -0.00000000000E+00 -0.00000000000E+00 -0.27515505048E+03  0.27515505050E+03  0.25500000000E-02 0. -1.
    5000001    1    1    2    0    0  0.46818553588E+02  0.13086707660E+03 -0.97397234499E+02  0.18636896197E+03  0.77000000000E+02 0.  0.
   -5000001    1    1    2    0    0 -0.46818553588E+02 -0.13086707660E+03 -0.85911708295E+02  0.18063219625E+03  0.77000000000E+02 0.  0.
<mgrwt>
<rscale>  0 0.31794289E+03</rscale>
<asrwt>0</asrwt>
<pdfrwt beam="1">  1        2 0.13120873E-01 0.31794289E+03</pdfrwt>
<pdfrwt beam="2">  1       -2 0.39307864E-01 0.31794289E+03</pdfrwt>
<totfact> 0.28276375E+03</totfact>
</mgrwt>
</event>
<event>
 4    1  0.5121375E-004  0.2746183E+03  0.7818608E-02  0.1098665E+00
          2   -1    0    0  501    0  0.00000000000E+00  0.00000000000E+00  0.18885123578E+03  0.18885123580E+03  0.25500000000E-02 0.  1.
         -2   -1    0    0    0  501 -0.00000000000E+00 -0.00000000000E+00 -0.99834144694E+02  0.99834144726E+02  0.25500000000E-02 0. -1.
    5000001    1    1    2    0    0 -0.81089750385E+01  0.11258241694E+03  0.58777554277E+02  0.14874258626E+03  0.77000000000E+02 0.  0.
   -5000001    1    1    2    0    0  0.81089750385E+01 -0.11258241694E+03  0.30239536810E+02  0.13994279426E+03  0.77000000000E+02 0.  0.
<mgrwt>
<rscale>  0 0.27461829E+03</rscale>
<asrwt>0</asrwt>
<pdfrwt beam="1">  1        2 0.26978748E-01 0.27461829E+03</pdfrwt>
<pdfrwt beam="2">  1       -2 0.14262021E-01 0.27461829E+03</pdfrwt>
<totfact> 0.72871355E+03</totfact>
</mgrwt>
</event>
<event>
 4    1  0.5121375E-004  0.2090553E+03  0.7818608E-02  0.1142316E+00
          2   -1    0    0  501    0  0.00000000000E+00  0.00000000000E+00  0.13630806485E+03  0.13630806487E+03  0.25500000000E-02 0.  1.
         -2   -1    0    0    0  501 -0.00000000000E+00 -0.00000000000E+00 -0.80156898558E+02  0.80156898599E+02  0.25500000000E-02 0. -1.
    5000001    1    1    2    0    0 -0.35875715290E+02 -0.49661183737E+02  0.64592131926E+02  0.11770490060E+03  0.77000000000E+02 0.  0.
   -5000001    1    1    2    0    0  0.35875715290E+02  0.49661183737E+02 -0.84409656377E+01  0.98760062873E+02  0.77000000000E+02 0.  0.
<mgrwt>
<rscale>  0 0.20905532E+03</rscale>
<asrwt>0</asrwt>
<pdfrwt beam="1">  1        2 0.19472581E-01 0.20905532E+03</pdfrwt>
<pdfrwt beam="2">  1       -2 0.11450986E-01 0.20905532E+03</pdfrwt>
<totfact> 0.14793663E+04</totfact>
</mgrwt>
</event>
<event>
 4    1  0.5121375E-004  0.2454787E+03  0.7818608E-02  0.1116196E+00
         -2   -1    0    0    0  501 -0.00000000000E+00  0.00000000000E+00  0.52425404988E+01  0.52425411189E+01  0.25500000000E-02 0. -1.
          2   -1    0    0  501    0  0.00000000000E+00 -0.00000000000E+00 -0.28735964604E+04  0.28735964604E+04  0.25500000000E-02 0.  1.
    5000001    1    1    2    0    0  0.32320703917E+02  0.79791756185E+02 -0.94715664722E+03  0.95417297521E+03  0.77000000000E+02 0.  0.
   -5000001    1    1    2    0    0 -0.32320703917E+02 -0.79791756185E+02 -0.19211972727E+04  0.19246660263E+04  0.77000000000E+02 0.  0.
<mgrwt>
<rscale>  0 0.24547869E+03</rscale>
<asrwt>0</asrwt>
<pdfrwt beam="1">  1        2 0.41051277E+00 0.24547869E+03</pdfrwt>
<pdfrwt beam="2">  1       -2 0.74893624E-03 0.24547869E+03</pdfrwt>
<totfact> 0.10483728E+04</totfact>
</mgrwt>
</event>
<event>
 4    1  0.5121375E-004  0.2163561E+03  0.7818608E-02  0.1136629E+00
         -2   -1    0    0    0  501 -0.00000000000E+00  0.00000000000E+00  0.37323619876E+03  0.37323619877E+03  0.25500000000E-02 0. -1.
          2   -1    0    0  501    0  0.00000000000E+00 -0.00000000000E+00 -0.31354111108E+02  0.31354111212E+02  0.25500000000E-02 0.  1.
    5000001    1    1    2    0    0  0.62052549943E+02  0.41690761651E+02  0.19636580683E+03  0.22377928558E+03  0.77000000000E+02 0.  0.
   -5000001    1    1    2    0    0 -0.62052549943E+02 -0.41690761651E+02  0.14551628082E+03  0.18081102440E+03  0.77000000000E+02 0.  0.
<mgrwt>
<rscale>  0 0.21635609E+03</rscale>
<asrwt>0</asrwt>
<pdfrwt beam="1">  1        2 0.44791588E-02 0.21635609E+03</pdfrwt>
<pdfrwt beam="2">  1       -2 0.53319456E-01 0.21635609E+03</pdfrwt>
<totfact> 0.60174103E+03</totfact>
</mgrwt>
</event>
<event>
 4    1  0.5121375E-004  0.5660414E+03  0.7818608E-02  0.9978477E-01
          2   -1    0    0  501    0  0.00000000000E+00  0.00000000000E+00  0.11797229758E+04  0.11797229758E+04  0.25500000000E-02 0.  1.
         -2   -1    0    0    0  501 -0.00000000000E+00 -0.00000000000E+00 -0.67897893276E+02  0.67897893324E+02  0.25500000000E-02 0. -1.
    5000001    1    1    2    0    0 -0.19632084495E+03 -0.15824544377E+03  0.32911113572E+03  0.42169495407E+03  0.77000000000E+02 0.  0.
   -5000001    1    1    2    0    0  0.19632084495E+03  0.15824544377E+03  0.78271394679E+03  0.82592591504E+03  0.77000000000E+02 0.  0.
<mgrwt>
<rscale>  0 0.56604136E+03</rscale>
<asrwt>0</asrwt>
<pdfrwt beam="1">  1        2 0.16853183E+00 0.56604136E+03</pdfrwt>
<pdfrwt beam="2">  1       -2 0.96997005E-02 0.56604136E+03</pdfrwt>
<totfact> 0.15950806E+03</totfact>
</mgrwt>
</event>
<event>
 4    1  0.5121375E-004  0.2053354E+03  0.7818608E-02  0.1145314E+00
          2   -1    0    0  501    0  0.00000000000E+00  0.00000000000E+00  0.17379558135E+04  0.17379558135E+04  0.25500000000E-02 0.  1.
         -2   -1    0    0    0  501 -0.00000000000E+00 -0.00000000000E+00 -0.60649763061E+01  0.60649768421E+01  0.25500000000E-02 0. -1.
    5000001    1    1    2    0    0  0.51392464733E+02  0.43361209502E+02  0.78524294929E+03  0.79186922489E+03  0.77000000000E+02 0.  0.
   -5000001    1    1    2    0    0 -0.51392464733E+02 -0.43361209502E+02  0.94664788795E+03  0.95215156550E+03  0.77000000000E+02 0.  0.
<mgrwt>
<rscale>  0 0.20533545E+03</rscale>
<asrwt>0</asrwt>
<pdfrwt beam="1">  1        2 0.24827923E+00 0.20533545E+03</pdfrwt>
<pdfrwt beam="2">  1       -2 0.86642583E-03 0.20533545E+03</pdfrwt>
<totfact> 0.30682939E+04</totfact>
</mgrwt>
</event>
<event>
 4    1  0.5121375E-004  0.3463824E+03  0.7818608E-02  0.1064110E+00
         -2   -1    0    0    0  501 -0.00000000000E+00  0.00000000000E+00  0.68128169193E+02  0.68128169241E+02  0.25500000000E-02 0.  1.
          2   -1    0    0  501    0  0.00000000000E+00 -0.00000000000E+00 -0.44027583328E+03  0.44027583328E+03  0.25500000000E-02 0. -1.
    5000001    1    1    2    0    0  0.13410688648E+03  0.33557961515E+02 -0.28939569311E+03  0.32983277729E+03  0.77000000000E+02 0.  0.
   -5000001    1    1    2    0    0 -0.13410688648E+03 -0.33557961515E+02 -0.82751970973E+02  0.17857122524E+03  0.77000000000E+02 0.  0.
<mgrwt>
<rscale>  0 0.34638237E+03</rscale>
<asrwt>0</asrwt>
<pdfrwt beam="1">  1        2 0.62896546E-01 0.34638237E+03</pdfrwt>
<pdfrwt beam="2">  1       -2 0.97325958E-02 0.34638237E+03</pdfrwt>
<totfact> 0.54206312E+03</totfact>
</mgrwt>
</event>
<event>
 4    1  0.5121375E-004  0.4389275E+03  0.7818608E-02  0.1031076E+00
          2   -1    0    0  501    0  0.00000000000E+00  0.00000000000E+00  0.34871715538E+03  0.34871715539E+03  0.25500000000E-02 0.  1.
         -2   -1    0    0    0  501 -0.00000000000E+00 -0.00000000000E+00 -0.13811862998E+03  0.13811863001E+03  0.25500000000E-02 0. -1.
    5000001    1    1    2    0    0 -0.93631311393E+02 -0.18217239494E+03  0.86682350438E+02  0.23536447019E+03  0.77000000000E+02 0.  0.
   -5000001    1    1    2    0    0  0.93631311393E+02  0.18217239494E+03  0.12391617496E+03  0.25147131520E+03  0.77000000000E+02 0.  0.
<mgrwt>
<rscale>  0 0.43892749E+03</rscale>
<asrwt>0</asrwt>
<pdfrwt beam="1">  1        2 0.49816737E-01 0.43892749E+03</pdfrwt>
<pdfrwt beam="2">  1       -2 0.19731233E-01 0.43892749E+03</pdfrwt>
<totfact> 0.21819917E+03</totfact>
</mgrwt>
</event>
<event>
 4    1  0.5121375E-004  0.3316617E+03  0.7818608E-02  0.1070404E+00
         -2   -1    0    0    0  501 -0.00000000000E+00  0.00000000000E+00  0.47114977874E+03  0.47114977875E+03  0.25500000000E-02 0. -1.
          2   -1    0    0  501    0  0.00000000000E+00 -0.00000000000E+00 -0.58367564495E+02  0.58367564551E+02  0.25500000000E-02 0.  1.
    5000001    1    1    2    0    0  0.57301155797E+02 -0.66650734850E+02  0.39425067038E+03  0.41120351896E+03  0.77000000000E+02 0.  0.
   -5000001    1    1    2    0    0 -0.57301155797E+02  0.66650734850E+02  0.18531543869E+02  0.11831382434E+03  0.77000000000E+02 0.  0.
<mgrwt>
<rscale>  0 0.33166167E+03</rscale>
<asrwt>0</asrwt>
<pdfrwt beam="1">  1        2 0.83382235E-02 0.33166167E+03</pdfrwt>
<pdfrwt beam="2">  1       -2 0.67307112E-01 0.33166167E+03</pdfrwt>
<totfact> 0.16811584E+03</totfact>
</mgrwt>
</event>
<event>
 4    1  0.5121375E-004  0.1639726E+03  0.7818608E-02  0.1184283E+00
         -2   -1    0    0    0  501 -0.00000000000E+00  0.00000000000E+00  0.25867375868E+02  0.25867375994E+02  0.25500000000E-02 0. -1.
          2   -1    0    0  501    0  0.00000000000E+00 -0.00000000000E+00 -0.25985439514E+03  0.25985439515E+03  0.25500000000E-02 0.  1.
    5000001    1    1    2    0    0 -0.77964529946E+01  0.26928339876E+02 -0.11243923298E+03  0.13913123761E+03  0.77000000000E+02 0.  0.
   -5000001    1    1    2    0    0  0.77964529946E+01 -0.26928339876E+02 -0.12154778630E+03  0.14659053353E+03  0.77000000000E+02 0.  0.
<mgrwt>
<rscale>  0 0.16397257E+03</rscale>
<asrwt>0</asrwt>
<pdfrwt beam="1">  1        2 0.37122055E-01 0.16397257E+03</pdfrwt>
<pdfrwt beam="2">  1       -2 0.36953396E-02 0.16397257E+03</pdfrwt>
<totfact> 0.40391129E+04</totfact>
</mgrwt>
</event>
<event>
 4    1  0.5121375E-004  0.2313047E+03  0.7818608E-02  0.1125725E+00
          2   -1    0    0  501    0  0.00000000000E+00  0.00000000000E+00  0.35420546374E+04  0.35420546374E+04  0.25500000000E-02 0.  1.
         -2   -1    0    0    0  501 -0.00000000000E+00 -0.00000000000E+00 -0.37761877123E+01  0.37761885733E+01  0.25500000000E-02 0. -1.
    5000001    1    1    2    0    0  0.43183722185E+02 -0.27139030884E+02  0.70208836214E+03  0.70813729538E+03  0.77000000000E+02 0.  0.
   -5000001    1    1    2    0    0 -0.43183722185E+02  0.27139030884E+02  0.28361900876E+04  0.28376935306E+04  0.77000000000E+02 0.  0.
<mgrwt>
<rscale>  0 0.23130469E+03</rscale>
<asrwt>0</asrwt>
<pdfrwt beam="1">  1        2 0.50600857E+00 0.23130469E+03</pdfrwt>
<pdfrwt beam="2">  1       -2 0.53945464E-03 0.23130469E+03</pdfrwt>
<totfact> 0.72400948E+03</totfact>
</mgrwt>
</event>
<event>
 4    1  0.5121375E-004  0.1868921E+03  0.7818608E-02  0.1161295E+00
          2   -1    0    0  501    0  0.00000000000E+00  0.00000000000E+00  0.11447619437E+04  0.11447619437E+04  0.25500000000E-02 0.  1.
         -2   -1    0    0    0  501 -0.00000000000E+00 -0.00000000000E+00 -0.76279329432E+01  0.76279333694E+01  0.25500000000E-02 0. -1.
    5000001    1    1    2    0    0  0.86924511331E+01 -0.34032007923E+02  0.81284231113E+03  0.81723641563E+03  0.77000000000E+02 0.  0.
   -5000001    1    1    2    0    0 -0.86924511331E+01  0.34032007923E+02  0.32429169965E+03  0.33515346147E+03  0.77000000000E+02 0.  0.
<mgrwt>
<rscale>  0 0.18689214E+03</rscale>
<asrwt>0</asrwt>
<pdfrwt beam="1">  1        2 0.16353733E+00 0.18689214E+03</pdfrwt>
<pdfrwt beam="2">  1       -2 0.10897053E-02 0.18689214E+03</pdfrwt>
<totfact> 0.43863321E+04</totfact>
</mgrwt>
</event>
<event>
 4    1  0.5121375E-004  0.2831000E+03  0.7818608E-02  0.1094008E+00
         -2   -1    0    0    0  501 -0.00000000000E+00  0.00000000000E+00  0.35821826995E+02  0.35821827086E+02  0.25500000000E-02 0. -1.
          2   -1    0    0  501    0  0.00000000000E+00 -0.00000000000E+00 -0.55933510347E+03  0.55933510347E+03  0.25500000000E-02 0.  1.
    5000001    1    1    2    0    0  0.78166854918E+02 -0.40632327049E+02 -0.94280082797E+02  0.15026236129E+03  0.77000000000E+02 0.  0.
   -5000001    1    1    2    0    0 -0.78166854918E+02  0.40632327049E+02 -0.42923319367E+03  0.44489456926E+03  0.77000000000E+02 0.  0.
<mgrwt>
<rscale>  0 0.28310002E+03</rscale>
<asrwt>0</asrwt>
<pdfrwt beam="1">  1        2 0.79905009E-01 0.28310002E+03</pdfrwt>
<pdfrwt beam="2">  1       -2 0.51174042E-02 0.28310002E+03</pdfrwt>
<totfact> 0.11221022E+04</totfact>
</mgrwt>
</event>
<event>
 4    1  0.5121375E-004  0.1837804E+03  0.7818608E-02  0.1164194E+00
          2   -1    0    0  501    0  0.00000000000E+00  0.00000000000E+00  0.17553573988E+03  0.17553573990E+03  0.25500000000E-02 0.  1.
         -2   -1    0    0    0  501 -0.00000000000E+00 -0.00000000000E+00 -0.48103084957E+02  0.48103085024E+02  0.25500000000E-02 0. -1.
    5000001    1    1    2    0    0 -0.19890955073E+02 -0.40518431667E+02  0.90305021308E+02  0.12697003691E+03  0.77000000000E+02 0.  0.
   -5000001    1    1    2    0    0  0.19890955073E+02  0.40518431667E+02  0.37127633613E+02  0.96668788014E+02  0.77000000000E+02 0.  0.
<mgrwt>
<rscale>  0 0.18378042E+03</rscale>
<asrwt>0</asrwt>
<pdfrwt beam="1">  1        2 0.25076534E-01 0.18378042E+03</pdfrwt>
<pdfrwt beam="2">  1       -2 0.68718693E-02 0.18378042E+03</pdfrwt>
<totfact> 0.24524110E+04</totfact>
</mgrwt>
</event>
<event>
 4    1  0.5121375E-004  0.2416139E+03  0.7818608E-02  0.1118722E+00
         -2   -1    0    0    0  501 -0.00000000000E+00  0.00000000000E+00  0.13093412535E+03  0.13093412537E+03  0.25500000000E-02 0. -1.
          2   -1    0    0  501    0  0.00000000000E+00 -0.00000000000E+00 -0.11146307139E+03  0.11146307142E+03  0.25500000000E-02 0.  1.
    5000001    1    1    2    0    0  0.79765860303E+02 -0.43765124219E+02  0.29480316809E+02  0.12278463930E+03  0.77000000000E+02 0.  0.
   -5000001    1    1    2    0    0 -0.79765860303E+02  0.43765124219E+02 -0.10009262850E+02  0.11961255750E+03  0.77000000000E+02 0.  0.
<mgrwt>
<rscale>  0 0.24161390E+03</rscale>
<asrwt>0</asrwt>
<pdfrwt beam="1">  1        2 0.15923296E-01 0.24161390E+03</pdfrwt>
<pdfrwt beam="2">  1       -2 0.18704875E-01 0.24161390E+03</pdfrwt>
<totfact> 0.84102139E+03</totfact>
</mgrwt>
</event>
<event>
 4    1  0.5121375E-004  0.1937355E+03  0.7818608E-02  0.1155135E+00
         -2   -1    0    0    0  501 -0.00000000000E+00  0.00000000000E+00  0.83929995263E+02  0.83929995302E+02  0.25500000000E-02 0. -1.
          2   -1    0    0  501    0  0.00000000000E+00 -0.00000000000E+00 -0.11179983985E+03  0.11179983988E+03  0.25500000000E-02 0.  1.
    5000001    1    1    2    0    0 -0.46000934851E+02  0.17769594872E+02  0.18371048806E+02  0.93264891268E+02  0.77000000000E+02 0.  0.
   -5000001    1    1    2    0    0  0.46000934851E+02 -0.17769594872E+02 -0.46240893392E+02  0.10246494391E+03  0.77000000000E+02 0.  0.
<mgrwt>
<rscale>  0 0.19373549E+03</rscale>
<asrwt>0</asrwt>
<pdfrwt beam="1">  1        2 0.15971406E-01 0.19373549E+03</pdfrwt>
<pdfrwt beam="2">  1       -2 0.11989999E-01 0.19373549E+03</pdfrwt>
<totfact> 0.17188215E+04</totfact>
</mgrwt>
</event>
<event>
 4    1  0.5121375E-004  0.2020074E+03  0.7818608E-02  0.1148056E+00
          2   -1    0    0  501    0  0.00000000000E+00  0.00000000000E+00  0.53766694357E+03  0.53766694358E+03  0.25500000000E-02 0.  1.
         -2   -1    0    0    0  501 -0.00000000000E+00 -0.00000000000E+00 -0.18974102162E+02  0.18974102333E+02  0.25500000000E-02 0. -1.
    5000001    1    1    2    0    0  0.52510401599E+02  0.31037685807E+02  0.32409108398E+03  0.33865131173E+03  0.77000000000E+02 0.  0.
   -5000001    1    1    2    0    0 -0.52510401599E+02 -0.31037685807E+02  0.19460175742E+03  0.21798973418E+03  0.77000000000E+02 0.  0.
<mgrwt>
<rscale>  0 0.20200740E+03</rscale>
<asrwt>0</asrwt>
<pdfrwt beam="1">  1        2 0.76809569E-01 0.20200740E+03</pdfrwt>
<pdfrwt beam="2">  1       -2 0.27105858E-02 0.20200740E+03</pdfrwt>
<totfact> 0.29776250E+04</totfact>
</mgrwt>
</event>
<event>
 4    1  0.5121375E-004  0.1882638E+03  0.7818608E-02  0.1160037E+00
         -2   -1    0    0    0  501 -0.00000000000E+00  0.00000000000E+00  0.79702691413E+02  0.79702691454E+02  0.25500000000E-02 0. -1.
          2   -1    0    0  501    0  0.00000000000E+00 -0.00000000000E+00 -0.11117337651E+03  0.11117337654E+03  0.25500000000E-02 0.  1.
    5000001    1    1    2    0    0  0.48930198234E+01  0.52921830753E+02 -0.52401150599E+01  0.93707633729E+02  0.77000000000E+02 0.  0.
   -5000001    1    1    2    0    0 -0.48930198234E+01 -0.52921830753E+02 -0.26230570039E+02  0.97168434267E+02  0.77000000000E+02 0.  0.
<mgrwt>
<rscale>  0 0.18826383E+03</rscale>
<asrwt>0</asrwt>
<pdfrwt beam="1">  1        2 0.15881911E-01 0.18826383E+03</pdfrwt>
<pdfrwt beam="2">  1       -2 0.11386099E-01 0.18826383E+03</pdfrwt>
<totfact> 0.18751742E+04</totfact>
</mgrwt>
</event>
<event>
 4    1  0.5121375E-004  0.2977101E+03  0.7818608E-02  0.1086391E+00
          2   -1    0    0  501    0  0.00000000000E+00  0.00000000000E+00  0.11421438803E+04  0.11421438803E+04  0.25500000000E-02 0.  1.
         -2   -1    0    0    0  501 -0.00000000000E+00 -0.00000000000E+00 -0.19400209261E+02  0.19400209429E+02  0.25500000000E-02 0. -1.
    5000001    1    1    2    0    0  0.66921944148E+02  0.93782551544E+02  0.77346633831E+03  0.78578170638E+03  0.77000000000E+02 0.  0.
   -5000001    1    1    2    0    0 -0.66921944148E+02 -0.93782551544E+02  0.34927733271E+03  0.37576238333E+03  0.77000000000E+02 0.  0.
<mgrwt>
<rscale>  0 0.29771013E+03</rscale>
<asrwt>0</asrwt>
<pdfrwt beam="1">  1        2 0.16316346E+00 0.29771013E+03</pdfrwt>
<pdfrwt beam="2">  1       -2 0.27714577E-02 0.29771013E+03</pdfrwt>
<totfact> 0.11510222E+04</totfact>
</mgrwt>
</event>
<event>
 4    1  0.5121375E-004  0.2486862E+03  0.7818608E-02  0.1114138E+00
         -2   -1    0    0    0  501 -0.00000000000E+00  0.00000000000E+00  0.34107767130E+02  0.34107767226E+02  0.25500000000E-02 0. -1.
          2   -1    0    0  501    0  0.00000000000E+00 -0.00000000000E+00 -0.45330463056E+03  0.45330463056E+03  0.25500000000E-02 0.  1.
    5000001    1    1    2    0    0 -0.52611304149E+02  0.78409748037E+02 -0.16094702048E+03  0.20186376919E+03  0.77000000000E+02 0.  0.
   -5000001    1    1    2    0    0  0.52611304149E+02 -0.78409748037E+02 -0.25824984295E+03  0.28554862860E+03  0.77000000000E+02 0.  0.
<mgrwt>
<rscale>  0 0.24868622E+03</rscale>
<asrwt>0</asrwt>
<pdfrwt beam="1">  1        2 0.64757801E-01 0.24868622E+03</pdfrwt>
<pdfrwt beam="2">  1       -2 0.48725385E-02 0.24868622E+03</pdfrwt>
<totfact> 0.15162441E+04</totfact>
</mgrwt>
</event>
<event>
 4    1  0.5121375E-004  0.2831539E+03  0.7818608E-02  0.1093979E+00
          2   -1    0    0  501    0  0.00000000000E+00  0.00000000000E+00  0.17049261814E+04  0.17049261814E+04  0.25500000000E-02 0.  1.
         -2   -1    0    0    0  501 -0.00000000000E+00 -0.00000000000E+00 -0.11756540903E+02  0.11756541180E+02  0.25500000000E-02 0. -1.
    5000001    1    1    2    0    0 -0.77008278888E+02 -0.28734523639E+02  0.32649371070E+03  0.34537384237E+03  0.77000000000E+02 0.  0.
   -5000001    1    1    2    0    0  0.77008278888E+02  0.28734523639E+02  0.13666759298E+04  0.13713088802E+04  0.77000000000E+02 0.  0.
<mgrwt>
<rscale>  0 0.28315391E+03</rscale>
<asrwt>0</asrwt>
<pdfrwt beam="1">  1        2 0.24356087E+00 0.28315391E+03</pdfrwt>
<pdfrwt beam="2">  1       -2 0.16795060E-02 0.28315391E+03</pdfrwt>
<totfact> 0.12325940E+04</totfact>
</mgrwt>
</event>
<event>
 4    1  0.5121375E-004  0.2778776E+03  0.7818608E-02  0.1096854E+00
          2   -1    0    0  501    0  0.00000000000E+00  0.00000000000E+00  0.63335234783E+03  0.63335234784E+03  0.25500000000E-02 0.  1.
         -2   -1    0    0    0  501 -0.00000000000E+00 -0.00000000000E+00 -0.30479066912E+02  0.30479067018E+02  0.25500000000E-02 0. -1.
    5000001    1    1    2    0    0  0.86173007070E+02  0.74386618421E+02  0.25272155354E+03  0.28767401650E+03  0.77000000000E+02 0.  0.
   -5000001    1    1    2    0    0 -0.86173007070E+02 -0.74386618421E+02  0.35015172738E+03  0.37615739835E+03  0.77000000000E+02 0.  0.
<mgrwt>
<rscale>  0 0.27787759E+03</rscale>
<asrwt>0</asrwt>
<pdfrwt beam="1">  1        2 0.90478897E-01 0.27787759E+03</pdfrwt>
<pdfrwt beam="2">  1       -2 0.43541529E-02 0.27787759E+03</pdfrwt>
<totfact> 0.12429774E+04</totfact>
</mgrwt>
</event>
<event>
 4    1  0.5121375E-004  0.2055273E+03  0.7818608E-02  0.1145158E+00
         -2   -1    0    0    0  501 -0.00000000000E+00  0.00000000000E+00  0.44602375384E+03  0.44602375384E+03  0.25500000000E-02 0. -1.
          2   -1    0    0  501    0  0.00000000000E+00 -0.00000000000E+00 -0.23676682261E+02  0.23676682398E+02  0.25500000000E-02 0.  1.
    5000001    1    1    2    0    0 -0.69522447799E+01  0.64182612802E+02  0.26038125234E+03  0.27909700475E+03  0.77000000000E+02 0.  0.
   -5000001    1    1    2    0    0  0.69522447799E+01 -0.64182612802E+02  0.16196581924E+03  0.19060343149E+03  0.77000000000E+02 0.  0.
<mgrwt>
<rscale>  0 0.20552725E+03</rscale>
<asrwt>0</asrwt>
<pdfrwt beam="1">  1        2 0.33823831E-02 0.20552725E+03</pdfrwt>
<pdfrwt beam="2">  1       -2 0.63717681E-01 0.20552725E+03</pdfrwt>
<totfact> 0.60574850E+03</totfact>
</mgrwt>
</event>
<event>
 4    1  0.5121375E-004  0.2004372E+03  0.7818608E-02  0.1149371E+00
          2   -1    0    0  501    0  0.00000000000E+00  0.00000000000E+00  0.12270219190E+04  0.12270219190E+04  0.25500000000E-02 0.  1.
         -2   -1    0    0    0  501 -0.00000000000E+00 -0.00000000000E+00 -0.81854823843E+01  0.81854827815E+01  0.25500000000E-02 0. -1.
    5000001    1    1    2    0    0  0.57006027089E+02  0.26276961843E+02  0.69084824508E+03  0.69795448532E+03  0.77000000000E+02 0.  0.
   -5000001    1    1    2    0    0 -0.57006027089E+02 -0.26276961843E+02  0.52798819154E+03  0.53725291647E+03  0.77000000000E+02 0.  0.
<mgrwt>
<rscale>  0 0.20043719E+03</rscale>
<asrwt>0</asrwt>
<pdfrwt beam="1">  1        2 0.17528872E+00 0.20043719E+03</pdfrwt>
<pdfrwt beam="2">  1       -2 0.11693555E-02 0.20043719E+03</pdfrwt>
<totfact> 0.35954218E+04</totfact>
</mgrwt>
</event>
<event>
 4    1  0.5121375E-004  0.2938116E+03  0.7818608E-02  0.1088376E+00
         -2   -1    0    0    0  501 -0.00000000000E+00  0.00000000000E+00  0.85830473046E+02  0.85830473083E+02  0.25500000000E-02 0. -1.
          2   -1    0    0  501    0  0.00000000000E+00 -0.00000000000E+00 -0.25144122494E+03  0.25144122496E+03  0.25500000000E-02 0.  1.
    5000001    1    1    2    0    0 -0.48558143421E+02  0.44834318953E+02  0.39135247083E+02  0.10875926173E+03  0.77000000000E+02 0.  0.
   -5000001    1    1    2    0    0  0.48558143421E+02 -0.44834318953E+02 -0.20474599898E+03  0.22851243631E+03  0.77000000000E+02 0.  0.
<mgrwt>
<rscale>  0 0.29381164E+03</rscale>
<asrwt>0</asrwt>
<pdfrwt beam="1">  1        2 0.35920175E-01 0.29381164E+03</pdfrwt>
<pdfrwt beam="2">  1       -2 0.12261496E-01 0.29381164E+03</pdfrwt>
<totfact> 0.68313676E+03</totfact>
</mgrwt>
</event>
<event>
 4    1  0.5121375E-004  0.1573664E+03  0.7818608E-02  0.1191703E+00
         -2   -1    0    0    0  501 -0.00000000000E+00  0.00000000000E+00  0.49825483656E+01  0.49825490182E+01  0.25500000000E-02 0. -1.
          2   -1    0    0  501    0  0.00000000000E+00 -0.00000000000E+00 -0.12425460480E+04  0.12425460480E+04  0.25500000000E-02 0.  1.
    5000001    1    1    2    0    0  0.13888089425E+02  0.74211157747E+01 -0.64854351858E+03  0.65328833410E+03  0.77000000000E+02 0.  0.
   -5000001    1    1    2    0    0 -0.13888089425E+02 -0.74211157747E+01 -0.58901998104E+03  0.59424026290E+03  0.77000000000E+02 0.  0.
<mgrwt>
<rscale>  0 0.15736640E+03</rscale>
<asrwt>0</asrwt>
<pdfrwt beam="1">  1        2 0.17750638E+00 0.15736640E+03</pdfrwt>
<pdfrwt beam="2">  1       -2 0.71179346E-03 0.15736640E+03</pdfrwt>
<totfact> 0.70581119E+04</totfact>
</mgrwt>
</event>
<event>
 4    1  0.5121375E-004  0.2026378E+03  0.7818608E-02  0.1147532E+00
         -2   -1    0    0    0  501 -0.00000000000E+00  0.00000000000E+00  0.52250550268E+01  0.52250556491E+01  0.25500000000E-02 0. -1.
          2   -1    0    0  501    0  0.00000000000E+00 -0.00000000000E+00 -0.19646718971E+04  0.19646718971E+04  0.25500000000E-02 0.  1.
    5000001    1    1    2    0    0  0.27890033361E+02  0.44224117793E+02 -0.59052121589E+03  0.59781095086E+03  0.77000000000E+02 0.  0.
   -5000001    1    1    2    0    0 -0.27890033361E+02 -0.44224117793E+02 -0.13689256262E+04  0.13720860019E+04  0.77000000000E+02 0.  0.
<mgrwt>
<rscale>  0 0.20263780E+03</rscale>
<asrwt>0</asrwt>
<pdfrwt beam="1">  1        2 0.28066694E+00 0.20263780E+03</pdfrwt>
<pdfrwt beam="2">  1       -2 0.74643773E-03 0.20263780E+03</pdfrwt>
<totfact> 0.29515080E+04</totfact>
</mgrwt>
</event>
<event>
 4    1  0.5121375E-004  0.1915308E+03  0.7818608E-02  0.1157088E+00
          2   -1    0    0  501    0  0.00000000000E+00  0.00000000000E+00  0.29403052291E+02  0.29403052402E+02  0.25500000000E-02 0.  1.
         -2   -1    0    0    0  501 -0.00000000000E+00 -0.00000000000E+00 -0.31190671300E+03  0.31190671301E+03  0.25500000000E-02 0. -1.
    5000001    1    1    2    0    0  0.40292168330E+02  0.31223427763E+02 -0.18646182019E+03  0.20807539897E+03  0.77000000000E+02 0.  0.
   -5000001    1    1    2    0    0 -0.40292168330E+02 -0.31223427763E+02 -0.96041840525E+02  0.13323436644E+03  0.77000000000E+02 0.  0.
<mgrwt>
<rscale>  0 0.19153077E+03</rscale>
<asrwt>0</asrwt>
<pdfrwt beam="1">  1        2 0.42004362E-02 0.19153077E+03</pdfrwt>
<pdfrwt beam="2">  1       -2 0.44558100E-01 0.19153077E+03</pdfrwt>
<totfact> 0.92710971E+03</totfact>
</mgrwt>
</event>
<event>
 4    1  0.5121375E-004  0.7846378E+03  0.7818608E-02  0.9582523E-01
          2   -1    0    0  501    0  0.00000000000E+00  0.00000000000E+00  0.66181112949E+03  0.66181112949E+03  0.25500000000E-02 0.  1.
         -2   -1    0    0    0  501 -0.00000000000E+00 -0.00000000000E+00 -0.23256502939E+03  0.23256502941E+03  0.25500000000E-02 0. -1.
    5000001    1    1    2    0    0  0.30388926516E+03  0.12255193512E+03  0.44434758116E+03  0.55744186707E+03  0.77000000000E+02 0.  0.
   -5000001    1    1    2    0    0 -0.30388926516E+03 -0.12255193512E+03 -0.15101481070E+02  0.33693429183E+03  0.77000000000E+02 0.  0.
<mgrwt>
<rscale>  0 0.78463781E+03</rscale>
<asrwt>0</asrwt>
<pdfrwt beam="1">  1        2 0.94544447E-01 0.78463781E+03</pdfrwt>
<pdfrwt beam="2">  1       -2 0.33223576E-01 0.78463781E+03</pdfrwt>
<totfact> 0.40950027E+02</totfact>
</mgrwt>
</event>
<event>
 4    1  0.5121375E-004  0.3085661E+03  0.7818608E-02  0.1081035E+00
          2   -1    0    0  501    0  0.00000000000E+00  0.00000000000E+00  0.16423186419E+03  0.16423186421E+03  0.25500000000E-02 0.  1.
         -2   -1    0    0    0  501 -0.00000000000E+00 -0.00000000000E+00 -0.14493691032E+03  0.14493691034E+03  0.25500000000E-02 0. -1.
    5000001    1    1    2    0    0  0.95720052343E+02 -0.57869900254E+02 -0.63728099684E+02  0.15000508146E+03  0.77000000000E+02 0.  0.
   -5000001    1    1    2    0    0 -0.95720052343E+02  0.57869900254E+02  0.83023053555E+02  0.15916369309E+03  0.77000000000E+02 0.  0.
<mgrwt>
<rscale>  0 0.30856610E+03</rscale>
<asrwt>0</asrwt>
<pdfrwt beam="1">  1        2 0.23461695E-01 0.30856610E+03</pdfrwt>
<pdfrwt beam="2">  1       -2 0.20705273E-01 0.30856610E+03</pdfrwt>
<totfact> 0.45710656E+03</totfact>
</mgrwt>
</event>
<event>
 4    1  0.5121375E-004  0.3036870E+03  0.7818608E-02  0.1083412E+00
          2   -1    0    0  501    0  0.00000000000E+00  0.00000000000E+00  0.42640246496E+04  0.42640246496E+04  0.25500000000E-02 0.  1.
         -2   -1    0    0    0  501 -0.00000000000E+00 -0.00000000000E+00 -0.54072026005E+01  0.54072032018E+01  0.25500000000E-02 0. -1.
    5000001    1    1    2    0    0 -0.38684998373E+02  0.12236401812E+03  0.24899248228E+04  0.24944185906E+04  0.77000000000E+02 0.  0.
   -5000001    1    1    2    0    0  0.38684998373E+02 -0.12236401812E+03  0.17686926243E+04  0.17750132622E+04  0.77000000000E+02 0.  0.
<mgrwt>
<rscale>  0 0.30368699E+03</rscale>
<asrwt>0</asrwt>
<pdfrwt beam="1">  1        2 0.60914577E+00 0.30368699E+03</pdfrwt>
<pdfrwt beam="2">  1       -2 0.77245832E-03 0.30368699E+03</pdfrwt>
<totfact> 0.14808930E+03</totfact>
</mgrwt>
</event>
<event>
 4    1  0.5121375E-004  0.1952982E+03  0.7818608E-02  0.1153768E+00
         -2   -1    0    0    0  501 -0.00000000000E+00  0.00000000000E+00  0.10101457855E+03  0.10101457858E+03  0.25500000000E-02 0. -1.
          2   -1    0    0  501    0  0.00000000000E+00 -0.00000000000E+00 -0.94395745014E+02  0.94395745048E+02  0.25500000000E-02 0.  1.
    5000001    1    1    2    0    0 -0.15677383482E+02  0.55069899839E+02  0.21427053936E+02  0.98318832690E+02  0.77000000000E+02 0.  0.
   -5000001    1    1    2    0    0  0.15677383482E+02 -0.55069899839E+02 -0.14808220402E+02  0.97091490938E+02  0.77000000000E+02 0.  0.
<mgrwt>
<rscale>  0 0.19529820E+03</rscale>
<asrwt>0</asrwt>
<pdfrwt beam="1">  1        2 0.13485106E-01 0.19529820E+03</pdfrwt>
<pdfrwt beam="2">  1       -2 0.14430654E-01 0.19529820E+03</pdfrwt>
<totfact> 0.15555592E+04</totfact>
</mgrwt>
</event>
<event>
 4    1  0.5121375E-004  0.3013369E+03  0.7818608E-02  0.1084574E+00
          2   -1    0    0  501    0  0.00000000000E+00  0.00000000000E+00  0.46157965980E+03  0.46157965981E+03  0.25500000000E-02 0.  1.
         -2   -1    0    0    0  501 -0.00000000000E+00 -0.00000000000E+00 -0.49181080829E+02  0.49181080895E+02  0.25500000000E-02 0. -1.
    5000001    1    1    2    0    0  0.10556166418E+02  0.12303010532E+03  0.27237194912E+03  0.30880951755E+03  0.77000000000E+02 0.  0.
   -5000001    1    1    2    0    0 -0.10556166418E+02 -0.12303010532E+03  0.14002662985E+03  0.20195122315E+03  0.77000000000E+02 0.  0.
<mgrwt>
<rscale>  0 0.30133693E+03</rscale>
<asrwt>0</asrwt>
<pdfrwt beam="1">  1        2 0.65939950E-01 0.30133693E+03</pdfrwt>
<pdfrwt beam="2">  1       -2 0.70258688E-02 0.30133693E+03</pdfrwt>
<totfact> 0.85553193E+03</totfact>
</mgrwt>
</event>
<event>
 4    1  0.5121375E-004  0.1963385E+03  0.7818608E-02  0.1152866E+00
          2   -1    0    0  501    0  0.00000000000E+00  0.00000000000E+00  0.33809803622E+03  0.33809803623E+03  0.25500000000E-02 0.  1.
         -2   -1    0    0    0  501 -0.00000000000E+00 -0.00000000000E+00 -0.28504159620E+02  0.28504159734E+02  0.25500000000E-02 0. -1.
    5000001    1    1    2    0    0  0.11707444383E+02  0.57915782317E+02  0.18229598979E+03  0.20652392110E+03  0.77000000000E+02 0.  0.
   -5000001    1    1    2    0    0 -0.11707444383E+02 -0.57915782317E+02  0.12729788682E+03  0.16007827486E+03  0.77000000000E+02 0.  0.
<mgrwt>
<rscale>  0 0.19633849E+03</rscale>
<asrwt>0</asrwt>
<pdfrwt beam="1">  1        2 0.48299717E-01 0.19633849E+03</pdfrwt>
<pdfrwt beam="2">  1       -2 0.40720231E-02 0.19633849E+03</pdfrwt>
<totfact> 0.26817621E+04</totfact>
</mgrwt>
</event>
<event>
 4    1  0.5121375E-004  0.4019785E+03  0.7818608E-02  0.1043097E+00
          2   -1    0    0  501    0  0.00000000000E+00  0.00000000000E+00  0.80238318671E+03  0.80238318672E+03  0.25500000000E-02 0.  1.
         -2   -1    0    0    0  501 -0.00000000000E+00 -0.00000000000E+00 -0.50345861842E+02  0.50345861907E+02  0.25500000000E-02 0. -1.
    5000001    1    1    2    0    0 -0.96925694068E+02 -0.13307909367E+03  0.55804606653E+03  0.58689781710E+03  0.77000000000E+02 0.  0.
   -5000001    1    1    2    0    0  0.96925694068E+02  0.13307909367E+03  0.19399125834E+03  0.26583123153E+03  0.77000000000E+02 0.  0.
<mgrwt>
<rscale>  0 0.40197847E+03</rscale>
<asrwt>0</asrwt>
<pdfrwt beam="1">  1        2 0.11462616E+00 0.40197847E+03</pdfrwt>
<pdfrwt beam="2">  1       -2 0.71922665E-02 0.40197847E+03</pdfrwt>
<totfact> 0.43662463E+03</totfact>
</mgrwt>
</event>
<event>
 4    1  0.5121375E-004  0.5215148E+03  0.7818608E-02  0.1008311E+00
         -2   -1    0    0    0  501 -0.00000000000E+00  0.00000000000E+00  0.29305064038E+02  0.29305064149E+02  0.25500000000E-02 0. -1.
          2   -1    0    0  501    0  0.00000000000E+00 -0.00000000000E+00 -0.23202276138E+04  0.23202276138E+04  0.25500000000E-02 0.  1.
    5000001    1    1    2    0    0  0.19148106458E+03 -0.12539713013E+03 -0.70229943673E+03  0.74265936819E+03  0.77000000000E+02 0.  0.
   -5000001    1    1    2    0    0 -0.19148106458E+03  0.12539713013E+03 -0.15886231130E+04  0.16068733097E+04  0.77000000000E+02 0.  0.
<mgrwt>
<rscale>  0 0.52151479E+03</rscale>
<asrwt>0</asrwt>
<pdfrwt beam="1">  1        2 0.33146097E+00 0.52151479E+03</pdfrwt>
<pdfrwt beam="2">  1       -2 0.41864392E-02 0.52151479E+03</pdfrwt>
<totfact> 0.15497718E+03</totfact>
</mgrwt>
</event>
<event>
 4    1  0.5121375E-004  0.4043974E+03  0.7818608E-02  0.1042268E+00
          2   -1    0    0  501    0  0.00000000000E+00  0.00000000000E+00  0.44781048724E+04  0.44781048724E+04  0.25500000000E-02 0.  1.
         -2   -1    0    0    0  501 -0.00000000000E+00 -0.00000000000E+00 -0.91298238865E+01  0.91298242426E+01  0.25500000000E-02 0. -1.
    5000001    1    1    2    0    0  0.16118412720E+03  0.26609805207E+02  0.12256019098E+04  0.12388371345E+04  0.77000000000E+02 0.  0.
   -5000001    1    1    2    0    0 -0.16118412720E+03 -0.26609805207E+02  0.32433731387E+04  0.32483975621E+04  0.77000000000E+02 0.  0.
<mgrwt>
<rscale>  0 0.40439738E+03</rscale>
<asrwt>0</asrwt>
<pdfrwt beam="1">  1        2 0.63973064E+00 0.40439738E+03</pdfrwt>
<pdfrwt beam="2">  1       -2 0.13042578E-02 0.40439738E+03</pdfrwt>
<totfact> 0.47033870E+02</totfact>
</mgrwt>
</event>
<event>
 4    1  0.5121375E-004  0.1917695E+03  0.7818608E-02  0.1156875E+00
          2   -1    0    0  501    0  0.00000000000E+00  0.00000000000E+00  0.17822804888E+04  0.17822804888E+04  0.25500000000E-02 0.  1.
         -2   -1    0    0    0  501 -0.00000000000E+00 -0.00000000000E+00 -0.51584974441E+01  0.51584980743E+01  0.25500000000E-02 0. -1.
    5000001    1    1    2    0    0 -0.49543448135E+02 -0.43009386291E+01  0.62627813533E+03  0.63295051474E+03  0.77000000000E+02 0.  0.
   -5000001    1    1    2    0    0  0.49543448135E+02  0.43009386291E+01  0.11508438560E+04  0.11544884721E+04  0.77000000000E+02 0.  0.
<mgrwt>
<rscale>  0 0.19176955E+03</rscale>
<asrwt>0</asrwt>
<pdfrwt beam="1">  1        2 0.25461155E+00 0.19176955E+03</pdfrwt>
<pdfrwt beam="2">  1       -2 0.73692810E-03 0.19176955E+03</pdfrwt>
<totfact> 0.36705415E+04</totfact>
</mgrwt>
</event>
<event>
 4    1  0.5121375E-004  0.2844411E+03  0.7818608E-02  0.1093288E+00
          2   -1    0    0  501    0  0.00000000000E+00  0.00000000000E+00  0.10227403509E+04  0.10227403509E+04  0.25500000000E-02 0.  1.
         -2   -1    0    0    0  501 -0.00000000000E+00 -0.00000000000E+00 -0.19776953887E+02  0.19776954051E+02  0.25500000000E-02 0. -1.
    5000001    1    1    2    0    0 -0.43502275321E+01  0.83398576726E+02  0.18782938414E+03  0.21950654803E+03  0.77000000000E+02 0.  0.
   -5000001    1    1    2    0    0  0.43502275321E+01 -0.83398576726E+02  0.81513401285E+03  0.82301075691E+03  0.77000000000E+02 0.  0.
<mgrwt>
<rscale>  0 0.28444113E+03</rscale>
<asrwt>0</asrwt>
<pdfrwt beam="1">  1        2 0.14610575E+00 0.28444113E+03</pdfrwt>
<pdfrwt beam="2">  1       -2 0.28252795E-02 0.28444113E+03</pdfrwt>
<totfact> 0.13062110E+04</totfact>
</mgrwt>
</event>
<event>
 4    1  0.5121375E-004  0.1637753E+03  0.7818608E-02  0.1184499E+00
          2   -1    0    0  501    0  0.00000000000E+00  0.00000000000E+00  0.62772152027E+03  0.62772152028E+03  0.25500000000E-02 0.  1.
         -2   -1    0    0    0  501 -0.00000000000E+00 -0.00000000000E+00 -0.10682425886E+02  0.10682426191E+02  0.25500000000E-02 0. -1.
    5000001    1    1    2    0    0  0.90640904727E+01 -0.26224974436E+02  0.31859560085E+03  0.32894082128E+03  0.77000000000E+02 0.  0.
   -5000001    1    1    2    0    0 -0.90640904727E+01  0.26224974436E+02  0.29844349353E+03  0.30946312519E+03  0.77000000000E+02 0.  0.
<mgrwt>
<rscale>  0 0.16377532E+03</rscale>
<asrwt>0</asrwt>
<pdfrwt beam="1">  1        2 0.89674527E-01 0.16377532E+03</pdfrwt>
<pdfrwt beam="2">  1       -2 0.15260605E-02 0.16377532E+03</pdfrwt>
<totfact> 0.56841995E+04</totfact>
</mgrwt>
</event>
<event>
 4    1  0.5121375E-004  0.2396978E+03  0.7818608E-02  0.1119994E+00
         -2   -1    0    0    0  501 -0.00000000000E+00  0.00000000000E+00  0.40829317592E+01  0.40829325555E+01  0.25500000000E-02 0. -1.
          2   -1    0    0  501    0  0.00000000000E+00 -0.00000000000E+00 -0.35180013085E+04  0.35180013085E+04  0.25500000000E-02 0.  1.
    5000001    1    1    2    0    0 -0.30018749434E+02  0.72153194948E+02 -0.24658597858E+04  0.24682991496E+04  0.77000000000E+02 0.  0.
   -5000001    1    1    2    0    0  0.30018749434E+02 -0.72153194948E+02 -0.10480585909E+04  0.10537850914E+04  0.77000000000E+02 0.  0.
<mgrwt>
<rscale>  0 0.23969782E+03</rscale>
<asrwt>0</asrwt>
<pdfrwt beam="1">  1        2 0.50256967E+00 0.23969782E+03</pdfrwt>
<pdfrwt beam="2">  1       -2 0.58327828E-03 0.23969782E+03</pdfrwt>
<totfact> 0.66812348E+03</totfact>
</mgrwt>
</event>
<event>
 4    1  0.5121375E-004  0.3206746E+03  0.7818608E-02  0.1075339E+00
          2   -1    0    0  501    0  0.00000000000E+00  0.00000000000E+00  0.13117354245E+04  0.13117354245E+04  0.25500000000E-02 0.  1.
         -2   -1    0    0    0  501 -0.00000000000E+00 -0.00000000000E+00 -0.19598505018E+02  0.19598505183E+02  0.25500000000E-02 0. -1.
    5000001    1    1    2    0    0 -0.11068931385E+03 -0.45762290315E+02  0.95207587339E+03  0.96266493657E+03  0.77000000000E+02 0.  0.
   -5000001    1    1    2    0    0  0.11068931385E+03  0.45762290315E+02  0.34006104612E+03  0.36866899314E+03  0.77000000000E+02 0.  0.
<mgrwt>
<rscale>  0 0.32067462E+03</rscale>
<asrwt>0</asrwt>
<pdfrwt beam="1">  1        2 0.18739072E+00 0.32067462E+03</pdfrwt>
<pdfrwt beam="2">  1       -2 0.27997872E-02 0.32067462E+03</pdfrwt>
<totfact> 0.91948576E+03</totfact>
</mgrwt>
</event>
<event>
 4    1  0.5121375E-004  0.1652396E+03  0.7818608E-02  0.1182905E+00
          2   -1    0    0  501    0  0.00000000000E+00  0.00000000000E+00  0.73067846445E+01  0.73067850895E+01  0.25500000000E-02 0.  1.
         -2   -1    0    0    0  501 -0.00000000000E+00 -0.00000000000E+00 -0.93420452457E+03  0.93420452457E+03  0.25500000000E-02 0. -1.
    5000001    1    1    2    0    0  0.77888288507E+01 -0.18691497542E+02 -0.33770899998E+03  0.34696744314E+03  0.77000000000E+02 0.  0.
   -5000001    1    1    2    0    0 -0.77888288507E+01  0.18691497542E+02 -0.58918873995E+03  0.59454386652E+03  0.77000000000E+02 0.  0.
<mgrwt>
<rscale>  0 0.16523960E+03</rscale>
<asrwt>0</asrwt>
<pdfrwt beam="1">  1        2 0.10438270E-02 0.16523960E+03</pdfrwt>
<pdfrwt beam="2">  1       -2 0.13345771E+00 0.16523960E+03</pdfrwt>
<totfact> 0.55731479E+03</totfact>
</mgrwt>
</event>
<event>
 4    1  0.5121375E-004  0.5644918E+03  0.7818608E-02  0.9981942E-01
         -2   -1    0    0    0  501 -0.00000000000E+00  0.00000000000E+00  0.14808873833E+03  0.14808873835E+03  0.25500000000E-02 0. -1.
          2   -1    0    0  501    0  0.00000000000E+00 -0.00000000000E+00 -0.53793931660E+03  0.53793931660E+03  0.25500000000E-02 0.  1.
    5000001    1    1    2    0    0  0.60059526703E+02  0.24730993567E+03 -0.79859843656E+02  0.27762554936E+03  0.77000000000E+02 0.  0.
   -5000001    1    1    2    0    0 -0.60059526703E+02 -0.24730993567E+03 -0.30999073461E+03  0.40840250559E+03  0.77000000000E+02 0.  0.
<mgrwt>
<rscale>  0 0.56449182E+03</rscale>
<asrwt>0</asrwt>
<pdfrwt beam="1">  1        2 0.76848473E-01 0.56449182E+03</pdfrwt>
<pdfrwt beam="2">  1       -2 0.21155534E-01 0.56449182E+03</pdfrwt>
<totfact> 0.11930700E+03</totfact>
</mgrwt>
</event>
<event>
 4    1  0.5121375E-004  0.4763723E+03  0.7818608E-02  0.1020137E+00
         -2   -1    0    0    0  501 -0.00000000000E+00  0.00000000000E+00  0.61556836399E+02  0.61556836451E+02  0.25500000000E-02 0. -1.
          2   -1    0    0  501    0  0.00000000000E+00 -0.00000000000E+00 -0.92163008648E+03  0.92163008649E+03  0.25500000000E-02 0.  1.
    5000001    1    1    2    0    0  0.53411983757E+02  0.18213342959E+03 -0.17913672269E+03  0.27211099133E+03  0.77000000000E+02 0.  0.
   -5000001    1    1    2    0    0 -0.53411983757E+02 -0.18213342959E+03 -0.68093652739E+03  0.71107593161E+03  0.77000000000E+02 0.  0.
<mgrwt>
<rscale>  0 0.47637226E+03</rscale>
<asrwt>0</asrwt>
<pdfrwt beam="1">  1        2 0.13166143E+00 0.47637226E+03</pdfrwt>
<pdfrwt beam="2">  1       -2 0.87938343E-02 0.47637226E+03</pdfrwt>
<totfact> 0.26582463E+03</totfact>
</mgrwt>
</event>
<event>
 4    1  0.5121375E-004  0.2004036E+03  0.7818608E-02  0.1149399E+00
         -2   -1    0    0    0  501 -0.00000000000E+00  0.00000000000E+00  0.22520309480E+02  0.22520309624E+02  0.25500000000E-02 0. -1.
          2   -1    0    0  501    0  0.00000000000E+00 -0.00000000000E+00 -0.44583741665E+03  0.44583741666E+03  0.25500000000E-02 0.  1.
    5000001    1    1    2    0    0 -0.17927984024E+02  0.58910145235E+02 -0.25343786218E+03  0.27194037546E+03  0.77000000000E+02 0.  0.
   -5000001    1    1    2    0    0  0.17927984024E+02 -0.58910145235E+02 -0.16987924500E+03  0.19641735082E+03  0.77000000000E+02 0.  0.
<mgrwt>
<rscale>  0 0.20040356E+03</rscale>
<asrwt>0</asrwt>
<pdfrwt beam="1">  1        2 0.63691054E-01 0.20040356E+03</pdfrwt>
<pdfrwt beam="2">  1       -2 0.32171874E-02 0.20040356E+03</pdfrwt>
<totfact> 0.28353016E+04</totfact>
</mgrwt>
</event>
<event>
 4    1  0.5121375E-004  0.1708957E+03  0.7818608E-02  0.1176917E+00
         -2   -1    0    0    0  501 -0.00000000000E+00  0.00000000000E+00  0.48680900242E+01  0.48680906921E+01  0.25500000000E-02 0. -1.
          2   -1    0    0  501    0  0.00000000000E+00 -0.00000000000E+00 -0.14998363990E+04  0.14998363990E+04  0.25500000000E-02 0.  1.
    5000001    1    1    2    0    0 -0.31471757421E+01  0.33495527698E+02 -0.88402515390E+03  0.88800975660E+03  0.77000000000E+02 0.  0.
   -5000001    1    1    2    0    0  0.31471757421E+01 -0.33495527698E+02 -0.61094315508E+03  0.61669473310E+03  0.77000000000E+02 0.  0.
<mgrwt>
<rscale>  0 0.17089575E+03</rscale>
<asrwt>0</asrwt>
<pdfrwt beam="1">  1        2 0.21426205E+00 0.17089575E+03</pdfrwt>
<pdfrwt beam="2">  1       -2 0.69544244E-03 0.17089575E+03</pdfrwt>
<totfact> 0.54366795E+04</totfact>
</mgrwt>
</event>
<event>
 4    1  0.5121375E-004  0.2010593E+03  0.7818608E-02  0.1148848E+00
         -2   -1    0    0    0  501 -0.00000000000E+00  0.00000000000E+00  0.95852267424E+01  0.95852270816E+01  0.25500000000E-02 0. -1.
          2   -1    0    0  501    0  0.00000000000E+00 -0.00000000000E+00 -0.10543523971E+04  0.10543523971E+04  0.25500000000E-02 0.  1.
    5000001    1    1    2    0    0 -0.54780742214E+02 -0.32852940453E+02 -0.47027708827E+03  0.48080119090E+03  0.77000000000E+02 0.  0.
   -5000001    1    1    2    0    0  0.54780742214E+02  0.32852940453E+02 -0.57449008213E+03  0.58313643333E+03  0.77000000000E+02 0.  0.
<mgrwt>
<rscale>  0 0.20105926E+03</rscale>
<asrwt>0</asrwt>
<pdfrwt beam="1">  1        2 0.15062170E+00 0.20105926E+03</pdfrwt>
<pdfrwt beam="2">  1       -2 0.13693188E-02 0.20105926E+03</pdfrwt>
<totfact> 0.35594980E+04</totfact>
</mgrwt>
</event>
<event>
 4    1  0.5121375E-004  0.2910896E+03  0.7818608E-02  0.1089782E+00
          2   -1    0    0  501    0  0.00000000000E+00  0.00000000000E+00  0.11138926020E+04  0.11138926020E+04  0.25500000000E-02 0.  1.
         -2   -1    0    0    0  501 -0.00000000000E+00 -0.00000000000E+00 -0.19017350031E+02  0.19017350202E+02  0.25500000000E-02 0. -1.
    5000001    1    1    2    0    0 -0.12218883772E+03 -0.17264279563E+02  0.56732787936E+03  0.58567746252E+03  0.77000000000E+02 0.  0.
   -5000001    1    1    2    0    0  0.12218883772E+03  0.17264279563E+02  0.52754737259E+03  0.54723248966E+03  0.77000000000E+02 0.  0.
<mgrwt>
<rscale>  0 0.29108958E+03</rscale>
<asrwt>0</asrwt>
<pdfrwt beam="1">  1        2 0.15912758E+00 0.29108958E+03</pdfrwt>
<pdfrwt beam="2">  1       -2 0.27167632E-02 0.29108958E+03</pdfrwt>
<totfact> 0.12286859E+04</totfact>
</mgrwt>
</event>
<event>
 4    1  0.5121375E-004  0.3462901E+03  0.7818608E-02  0.1064148E+00
         -2   -1    0    0    0  501 -0.00000000000E+00  0.00000000000E+00  0.20846610512E+03  0.20846610514E+03  0.25500000000E-02 0. -1.
          2   -1    0    0  501    0  0.00000000000E+00 -0.00000000000E+00 -0.14380854441E+03  0.14380854444E+03  0.25500000000E-02 0.  1.
    5000001    1    1    2    0    0  0.15251711216E+03  0.27620223254E+02  0.27155533214E+02  0.17518781127E+03  0.77000000000E+02 0.  0.
   -5000001    1    1    2    0    0 -0.15251711216E+03 -0.27620223254E+02  0.37502027493E+02  0.17708683830E+03  0.77000000000E+02 0.  0.
<mgrwt>
<rscale>  0 0.34629009E+03</rscale>
<asrwt>0</asrwt>
<pdfrwt beam="1">  1        2 0.20544078E-01 0.34629009E+03</pdfrwt>
<pdfrwt beam="2">  1       -2 0.29780872E-01 0.34629009E+03</pdfrwt>
<totfact> 0.28020831E+03</totfact>
</mgrwt>
</event>
<event>
 4    1  0.5121375E-004  0.2739314E+03  0.7818608E-02  0.1099050E+00
         -2   -1    0    0    0  501 -0.00000000000E+00  0.00000000000E+00  0.21528552860E+02  0.21528553011E+02  0.25500000000E-02 0. -1.
          2   -1    0    0  501    0  0.00000000000E+00 -0.00000000000E+00 -0.87138256736E+03  0.87138256737E+03  0.25500000000E-02 0.  1.
    5000001    1    1    2    0    0  0.67875294844E+02 -0.78112454316E+02 -0.57508156394E+03  0.58936950748E+03  0.77000000000E+02 0.  0.
   -5000001    1    1    2    0    0 -0.67875294844E+02  0.78112454316E+02 -0.27477245056E+03  0.30354161289E+03  0.77000000000E+02 0.  0.
<mgrwt>
<rscale>  0 0.27393142E+03</rscale>
<asrwt>0</asrwt>
<pdfrwt beam="1">  1        2 0.12448320E+00 0.27393142E+03</pdfrwt>
<pdfrwt beam="2">  1       -2 0.30755081E-02 0.27393142E+03</pdfrwt>
<totfact> 0.14214202E+04</totfact>
</mgrwt>
</event>
<event>
 4    1  0.5121375E-004  0.1701132E+03  0.7818608E-02  0.1177730E+00
          2   -1    0    0  501    0  0.00000000000E+00  0.00000000000E+00  0.48313446659E+02  0.48313446726E+02  0.25500000000E-02 0.  1.
         -2   -1    0    0    0  501 -0.00000000000E+00 -0.00000000000E+00 -0.14974349410E+03  0.14974349412E+03  0.25500000000E-02 0. -1.
    5000001    1    1    2    0    0 -0.11730096002E+02  0.21504557567E+02 -0.81641197152E+02  0.11486655832E+03  0.77000000000E+02 0.  0.
   -5000001    1    1    2    0    0  0.11730096002E+02 -0.21504557567E+02 -0.19788850285E+02  0.83190382521E+02  0.77000000000E+02 0.  0.
<mgrwt>
<rscale>  0 0.17011319E+03</rscale>
<asrwt>0</asrwt>
<pdfrwt beam="1">  1        2 0.69019210E-02 0.17011319E+03</pdfrwt>
<pdfrwt beam="2">  1       -2 0.21391927E-01 0.17011319E+03</pdfrwt>
<totfact> 0.18235390E+04</totfact>
</mgrwt>
</event>
<event>
 4    1  0.5121375E-004  0.3125775E+03  0.7818608E-02  0.1079117E+00
          2   -1    0    0  501    0  0.00000000000E+00  0.00000000000E+00  0.42939302799E+03  0.42939302799E+03  0.25500000000E-02 0.  1.
         -2   -1    0    0    0  501 -0.00000000000E+00 -0.00000000000E+00 -0.56885358041E+02  0.56885358098E+02  0.25500000000E-02 0. -1.
    5000001    1    1    2    0    0 -0.69139774811E+02  0.55589971750E+01  0.36825113491E+03  0.38255602109E+03  0.77000000000E+02 0.  0.
   -5000001    1    1    2    0    0  0.69139774811E+02 -0.55589971750E+01  0.42565350340E+01  0.10372236500E+03  0.77000000000E+02 0.  0.
<mgrwt>
<rscale>  0 0.31257752E+03</rscale>
<asrwt>0</asrwt>
<pdfrwt beam="1">  1        2 0.61341862E-01 0.31257752E+03</pdfrwt>
<pdfrwt beam="2">  1       -2 0.81264796E-02 0.31257752E+03</pdfrwt>
<totfact> 0.73878029E+03</totfact>
</mgrwt>
</event>
<event>
 4    1  0.5121375E-004  0.2475180E+03  0.7818608E-02  0.1114883E+00
          2   -1    0    0  501    0  0.00000000000E+00  0.00000000000E+00  0.50380026420E+02  0.50380026485E+02  0.25500000000E-02 0.  1.
         -2   -1    0    0    0  501 -0.00000000000E+00 -0.00000000000E+00 -0.30401513826E+03  0.30401513827E+03  0.25500000000E-02 0. -1.
    5000001    1    1    2    0    0  0.70367803286E+02 -0.47532033247E+02 -0.60022051147E+02  0.12939307767E+03  0.77000000000E+02 0.  0.
   -5000001    1    1    2    0    0 -0.70367803286E+02  0.47532033247E+02 -0.19361306069E+03  0.22500208709E+03  0.77000000000E+02 0.  0.
<mgrwt>
<rscale>  0 0.24751801E+03</rscale>
<asrwt>0</asrwt>
<pdfrwt beam="1">  1        2 0.71971468E-02 0.24751801E+03</pdfrwt>
<pdfrwt beam="2">  1       -2 0.43430733E-01 0.24751801E+03</pdfrwt>
<totfact> 0.48933825E+03</totfact>
</mgrwt>
</event>
<event>
 4    1  0.5121375E-004  0.6098927E+03  0.7818608E-02  0.9885092E-01
         -2   -1    0    0    0  501 -0.00000000000E+00  0.00000000000E+00  0.11253948796E+03  0.11253948798E+03  0.25500000000E-02 0. -1.
          2   -1    0    0  501    0  0.00000000000E+00 -0.00000000000E+00 -0.82630803823E+03  0.82630803823E+03  0.25500000000E-02 0.  1.
    5000001    1    1    2    0    0  0.26604202868E+03  0.10660838436E+03 -0.46485484722E+03  0.55150950819E+03  0.77000000000E+02 0.  0.
   -5000001    1    1    2    0    0 -0.26604202868E+03 -0.10660838436E+03 -0.24891370306E+03  0.38733801803E+03  0.77000000000E+02 0.  0.
<mgrwt>
<rscale>  0 0.60989272E+03</rscale>
<asrwt>0</asrwt>
<pdfrwt beam="1">  1        2 0.11804400E+00 0.60989272E+03</pdfrwt>
<pdfrwt beam="2">  1       -2 0.16077070E-01 0.60989272E+03</pdfrwt>
<totfact> 0.11378486E+03</totfact>
</mgrwt>
</event>
<event>
 4    1  0.5121375E-004  0.4951759E+03  0.7818608E-02  0.1015046E+00
         -2   -1    0    0    0  501 -0.00000000000E+00  0.00000000000E+00  0.39520785591E+03  0.39520785592E+03  0.25500000000E-02 0. -1.
          2   -1    0    0  501    0  0.00000000000E+00 -0.00000000000E+00 -0.15510773257E+03  0.15510773259E+03  0.25500000000E-02 0.  1.
    5000001    1    1    2    0    0  0.43785812503E+02 -0.22192035139E+03  0.47983637966E+02  0.24371554987E+03  0.77000000000E+02 0.  0.
   -5000001    1    1    2    0    0 -0.43785812503E+02  0.22192035139E+03  0.19211648537E+03  0.30660003863E+03  0.77000000000E+02 0.  0.
<mgrwt>
<rscale>  0 0.49517591E+03</rscale>
<asrwt>0</asrwt>
<pdfrwt beam="1">  1        2 0.22158248E-01 0.49517591E+03</pdfrwt>
<pdfrwt beam="2">  1       -2 0.56458264E-01 0.49517591E+03</pdfrwt>
<totfact> 0.74565269E+02</totfact>
</mgrwt>
</event>
<event>
 4    1  0.5121375E-004  0.1876911E+03  0.7818608E-02  0.1160560E+00
          2   -1    0    0  501    0  0.00000000000E+00  0.00000000000E+00  0.73805454973E+03  0.73805454974E+03  0.25500000000E-02 0.  1.
         -2   -1    0    0    0  501 -0.00000000000E+00 -0.00000000000E+00 -0.11932705343E+02  0.11932705616E+02  0.25500000000E-02 0. -1.
    5000001    1    1    2    0    0 -0.22858335553E+02  0.41512333149E+02  0.26258986604E+03  0.27771966991E+03  0.77000000000E+02 0.  0.
   -5000001    1    1    2    0    0  0.22858335553E+02 -0.41512333149E+02  0.46353197835E+03  0.47226758544E+03  0.77000000000E+02 0.  0.
<mgrwt>
<rscale>  0 0.18769110E+03</rscale>
<asrwt>0</asrwt>
<pdfrwt beam="1">  1        2 0.10543638E+00 0.18769110E+03</pdfrwt>
<pdfrwt beam="2">  1       -2 0.17046720E-02 0.18769110E+03</pdfrwt>
<totfact> 0.40606371E+04</totfact>
</mgrwt>
</event>
<event>
 4    1  0.5121375E-004  0.3078435E+03  0.7818608E-02  0.1081384E+00
          2   -1    0    0  501    0  0.00000000000E+00  0.00000000000E+00  0.13691872746E+04  0.13691872746E+04  0.25500000000E-02 0.  1.
         -2   -1    0    0    0  501 -0.00000000000E+00 -0.00000000000E+00 -0.17303621957E+02  0.17303622145E+02  0.25500000000E-02 0. -1.
    5000001    1    1    2    0    0 -0.21120564940E+02  0.12809054019E+03  0.54010406349E+03  0.56079823836E+03  0.77000000000E+02 0.  0.
   -5000001    1    1    2    0    0  0.21120564940E+02 -0.12809054019E+03  0.81177958915E+03  0.82569265839E+03  0.77000000000E+02 0.  0.
<mgrwt>
<rscale>  0 0.30784346E+03</rscale>
<asrwt>0</asrwt>
<pdfrwt beam="1">  1        2 0.19559816E+00 0.30784346E+03</pdfrwt>
<pdfrwt beam="2">  1       -2 0.24719463E-02 0.30784346E+03</pdfrwt>
<totfact> 0.10315572E+04</totfact>
</mgrwt>
</event>
<event>
 4    1  0.5121375E-004  0.3144505E+03  0.7818608E-02  0.1078232E+00
          2   -1    0    0  501    0  0.00000000000E+00  0.00000000000E+00  0.16125996969E+04  0.16125996969E+04  0.25500000000E-02 0.  1.
         -2   -1    0    0    0  501 -0.00000000000E+00 -0.00000000000E+00 -0.15329147873E+02  0.15329148085E+02  0.25500000000E-02 0. -1.
    5000001    1    1    2    0    0  0.82694619441E+02 -0.20416836567E+02  0.24260051282E+03  0.26840129679E+03  0.77000000000E+02 0.  0.
   -5000001    1    1    2    0    0 -0.82694619441E+02  0.20416836567E+02  0.13546700362E+04  0.13595275482E+04  0.77000000000E+02 0.  0.
<mgrwt>
<rscale>  0 0.31445050E+03</rscale>
<asrwt>0</asrwt>
<pdfrwt beam="1">  1        2 0.23037131E+00 0.31445050E+03</pdfrwt>
<pdfrwt beam="2">  1       -2 0.21898790E-02 0.31445050E+03</pdfrwt>
<totfact> 0.92848770E+03</totfact>
</mgrwt>
</event>
<event>
 4    1  0.5121375E-004  0.2399091E+03  0.7818608E-02  0.1119853E+00
         -2   -1    0    0    0  501 -0.00000000000E+00  0.00000000000E+00  0.11464691806E+03  0.11464691809E+03  0.25500000000E-02 0. -1.
          2   -1    0    0  501    0  0.00000000000E+00 -0.00000000000E+00 -0.12550786916E+03  0.12550786919E+03  0.25500000000E-02 0.  1.
    5000001    1    1    2    0    0 -0.26943815719E+01  0.86618194130E+02  0.25425097635E+02  0.11868195666E+03  0.77000000000E+02 0.  0.
   -5000001    1    1    2    0    0  0.26943815719E+01 -0.86618194130E+02 -0.36286048730E+02  0.12147283062E+03  0.77000000000E+02 0.  0.
<mgrwt>
<rscale>  0 0.23990907E+03</rscale>
<asrwt>0</asrwt>
<pdfrwt beam="1">  1        2 0.17929696E-01 0.23990907E+03</pdfrwt>
<pdfrwt beam="2">  1       -2 0.16378131E-01 0.23990907E+03</pdfrwt>
<totfact> 0.91486683E+03</totfact>
</mgrwt>
</event>
<event>
 4    1  0.5121375E-004  0.1826815E+03  0.7818608E-02  0.1165233E+00
          2   -1    0    0  501    0  0.00000000000E+00  0.00000000000E+00  0.11062176248E+04  0.11062176248E+04  0.25500000000E-02 0.  1.
         -2   -1    0    0    0  501 -0.00000000000E+00 -0.00000000000E+00 -0.75420354736E+01  0.75420359047E+01  0.25500000000E-02 0. -1.
    5000001    1    1    2    0    0  0.29796294484E+00 -0.45652369454E+02  0.43860111835E+03  0.44764290303E+03  0.77000000000E+02 0.  0.
   -5000001    1    1    2    0    0 -0.29796294484E+00  0.45652369454E+02  0.66007447096E+03  0.66611675765E+03  0.77000000000E+02 0.  0.
<mgrwt>
<rscale>  0 0.18268150E+03</rscale>
<asrwt>0</asrwt>
<pdfrwt beam="1">  1        2 0.15803108E+00 0.18268150E+03</pdfrwt>
<pdfrwt beam="2">  1       -2 0.10774337E-02 0.18268150E+03</pdfrwt>
<totfact> 0.46731021E+04</totfact>
</mgrwt>
</event>
<event>
 4    1  0.5121375E-004  0.1688256E+03  0.7818608E-02  0.1179078E+00
          2   -1    0    0  501    0  0.00000000000E+00  0.00000000000E+00  0.68278067788E+02  0.68278067835E+02  0.25500000000E-02 0.  1.
         -2   -1    0    0    0  501 -0.00000000000E+00 -0.00000000000E+00 -0.10436037672E+03  0.10436037675E+03  0.25500000000E-02 0. -1.
    5000001    1    1    2    0    0 -0.33511703642E+02  0.74849135708E+00 -0.26773949663E+02  0.88144420702E+02  0.77000000000E+02 0.  0.
   -5000001    1    1    2    0    0  0.33511703642E+02 -0.74849135708E+00 -0.93083592719E+01  0.84494023887E+02  0.77000000000E+02 0.  0.
<mgrwt>
<rscale>  0 0.16882565E+03</rscale>
<asrwt>0</asrwt>
<pdfrwt beam="1">  1        2 0.97540097E-02 0.16882565E+03</pdfrwt>
<pdfrwt beam="2">  1       -2 0.14908625E-01 0.16882565E+03</pdfrwt>
<totfact> 0.21593087E+04</totfact>
</mgrwt>
</event>
<event>
 4    1  0.5121375E-004  0.3584801E+03  0.7818608E-02  0.1059187E+00
         -2   -1    0    0    0  501 -0.00000000000E+00  0.00000000000E+00  0.81756552913E+03  0.81756552914E+03  0.25500000000E-02 0. -1.
          2   -1    0    0  501    0  0.00000000000E+00 -0.00000000000E+00 -0.39295922848E+02  0.39295922931E+02  0.25500000000E-02 0.  1.
    5000001    1    1    2    0    0 -0.28422110130E+02 -0.14664767950E+03  0.24015732558E+03  0.29311755198E+03  0.77000000000E+02 0.  0.
   -5000001    1    1    2    0    0  0.28422110130E+02  0.14664767950E+03  0.53811228070E+03  0.56374390009E+03  0.77000000000E+02 0.  0.
<mgrwt>
<rscale>  0 0.35848008E+03</rscale>
<asrwt>0</asrwt>
<pdfrwt beam="1">  1        2 0.56137033E-02 0.35848008E+03</pdfrwt>
<pdfrwt beam="2">  1       -2 0.11679508E+00 0.35848008E+03</pdfrwt>
<totfact> 0.80487876E+02</totfact>
</mgrwt>
</event>
<event>
 4    1  0.5121375E-004  0.2500210E+03  0.7818608E-02  0.1113292E+00
          2   -1    0    0  501    0  0.00000000000E+00  0.00000000000E+00  0.28987745742E+03  0.28987745743E+03  0.25500000000E-02 0.  1.
         -2   -1    0    0    0  501 -0.00000000000E+00 -0.00000000000E+00 -0.53911160907E+02  0.53911160967E+02  0.25500000000E-02 0. -1.
    5000001    1    1    2    0    0 -0.98047140123E+02  0.32180056912E+01  0.10607234269E+03  0.16371908603E+03  0.77000000000E+02 0.  0.
   -5000001    1    1    2    0    0  0.98047140123E+02 -0.32180056912E+01  0.12989395382E+03  0.18006953236E+03  0.77000000000E+02 0.  0.
<mgrwt>
<rscale>  0 0.25002104E+03</rscale>
<asrwt>0</asrwt>
<pdfrwt beam="1">  1        2 0.41411066E-01 0.25002104E+03</pdfrwt>
<pdfrwt beam="2">  1       -2 0.77015943E-02 0.25002104E+03</pdfrwt>
<totfact> 0.12163930E+04</totfact>
</mgrwt>
</event>
<event>
 4    1  0.5121375E-004  0.3349042E+03  0.7818608E-02  0.1068987E+00
          2   -1    0    0  501    0  0.00000000000E+00  0.00000000000E+00  0.23041833874E+04  0.23041833874E+04  0.25500000000E-02 0.  1.
         -2   -1    0    0    0  501 -0.00000000000E+00 -0.00000000000E+00 -0.12169259489E+02  0.12169259756E+02  0.25500000000E-02 0. -1.
    5000001    1    1    2    0    0  0.26745619547E+02 -0.98220474712E+02  0.39632445019E+03  0.41637081986E+03  0.77000000000E+02 0.  0.
   -5000001    1    1    2    0    0 -0.26745619547E+02  0.98220474712E+02  0.18956896778E+04  0.18999818273E+04  0.77000000000E+02 0.  0.
<mgrwt>
<rscale>  0 0.33490420E+03</rscale>
<asrwt>0</asrwt>
<pdfrwt beam="1">  1        2 0.32916921E+00 0.33490420E+03</pdfrwt>
<pdfrwt beam="2">  1       -2 0.17384649E-02 0.33490420E+03</pdfrwt>
<totfact> 0.59578846E+03</totfact>
</mgrwt>
</event>
<event>
 4    1  0.5121375E-004  0.2374907E+03  0.7818608E-02  0.1121476E+00
         -2   -1    0    0    0  501 -0.00000000000E+00  0.00000000000E+00  0.45797319639E+01  0.45797326739E+01  0.25500000000E-02 0. -1.
          2   -1    0    0  501    0  0.00000000000E+00 -0.00000000000E+00 -0.30788827987E+04  0.30788827987E+04  0.25500000000E-02 0.  1.
    5000001    1    1    2    0    0  0.60846576488E+02  0.52628659023E+02 -0.20723772573E+04  0.20753670948E+04  0.77000000000E+02 0.  0.
   -5000001    1    1    2    0    0 -0.60846576488E+02 -0.52628659023E+02 -0.10019258094E+04  0.10080954366E+04  0.77000000000E+02 0.  0.
<mgrwt>
<rscale>  0 0.23749071E+03</rscale>
<asrwt>0</asrwt>
<pdfrwt beam="1">  1        2 0.43983907E+00 0.23749071E+03</pdfrwt>
<pdfrwt beam="2">  1       -2 0.65424945E-03 0.23749071E+03</pdfrwt>
<totfact> 0.99315704E+03</totfact>
</mgrwt>
</event>
<event>
 4    1  0.5121375E-004  0.2170492E+03  0.7818608E-02  0.1136102E+00
         -2   -1    0    0    0  501 -0.00000000000E+00  0.00000000000E+00  0.47408265403E+02  0.47408265471E+02  0.25500000000E-02 0. -1.
          2   -1    0    0  501    0  0.00000000000E+00 -0.00000000000E+00 -0.24842907744E+03  0.24842907745E+03  0.25500000000E-02 0.  1.
    5000001    1    1    2    0    0 -0.37301901688E+02  0.58380237699E+02 -0.56367250726E+02  0.11792349629E+03  0.77000000000E+02 0.  0.
   -5000001    1    1    2    0    0  0.37301901688E+02 -0.58380237699E+02 -0.14465356131E+03  0.17791384663E+03  0.77000000000E+02 0.  0.
<mgrwt>
<rscale>  0 0.21704923E+03</rscale>
<asrwt>0</asrwt>
<pdfrwt beam="1">  1        2 0.35489867E-01 0.21704923E+03</pdfrwt>
<pdfrwt beam="2">  1       -2 0.67726095E-02 0.21704923E+03</pdfrwt>
<totfact> 0.17377579E+04</totfact>
</mgrwt>
</event>
<event>
 4    1  0.5121375E-004  0.3507990E+03  0.7818608E-02  0.1062288E+00
         -2   -1    0    0    0  501 -0.00000000000E+00  0.00000000000E+00  0.76643449392E+02  0.76643449435E+02  0.25500000000E-02 0. -1.
          2   -1    0    0  501    0  0.00000000000E+00 -0.00000000000E+00 -0.40140405973E+03  0.40140405974E+03  0.25500000000E-02 0.  1.
    5000001    1    1    2    0    0  0.65286989524E+02  0.67957536034E+02  0.97534953094E+01  0.12208500471E+03  0.77000000000E+02 0.  0.
   -5000001    1    1    2    0    0 -0.65286989524E+02 -0.67957536034E+02 -0.33451410565E+03  0.35596250446E+03  0.77000000000E+02 0.  0.
<mgrwt>
<rscale>  0 0.35079904E+03</rscale>
<asrwt>0</asrwt>
<pdfrwt beam="1">  1        2 0.57343436E-01 0.35079904E+03</pdfrwt>
<pdfrwt beam="2">  1       -2 0.10949064E-01 0.35079904E+03</pdfrwt>
<totfact> 0.49672957E+03</totfact>
</mgrwt>
</event>
<event>
 4    1  0.5121375E-004  0.1832889E+03  0.7818608E-02  0.1164657E+00
         -2   -1    0    0    0  501 -0.00000000000E+00  0.00000000000E+00  0.11518465056E+03  0.11518465059E+03  0.25500000000E-02 0. -1.
          2   -1    0    0  501    0  0.00000000000E+00 -0.00000000000E+00 -0.72915127884E+02  0.72915127929E+02  0.25500000000E-02 0.  1.
    5000001    1    1    2    0    0 -0.42891289230E+02  0.25076287052E+02  0.20000923263E+02  0.93795094730E+02  0.77000000000E+02 0.  0.
   -5000001    1    1    2    0    0  0.42891289230E+02 -0.25076287052E+02  0.22268599412E+02  0.94304683785E+02  0.77000000000E+02 0.  0.
<mgrwt>
<rscale>  0 0.18328888E+03</rscale>
<asrwt>0</asrwt>
<pdfrwt beam="1">  1        2 0.10416447E-01 0.18328888E+03</pdfrwt>
<pdfrwt beam="2">  1       -2 0.16454950E-01 0.18328888E+03</pdfrwt>
<totfact> 0.17044932E+04</totfact>
</mgrwt>
</event>
<event>
 4    1  0.5121375E-004  0.2156036E+03  0.7818608E-02  0.1137204E+00
         -2   -1    0    0    0  501 -0.00000000000E+00  0.00000000000E+00  0.16196568141E+03  0.16196568143E+03  0.25500000000E-02 0. -1.
          2   -1    0    0  501    0  0.00000000000E+00 -0.00000000000E+00 -0.71751190472E+02  0.71751190517E+02  0.25500000000E-02 0.  1.
    5000001    1    1    2    0    0 -0.62948052829E+02  0.40050219731E+02  0.32951175094E+02  0.11216620434E+03  0.77000000000E+02 0.  0.
   -5000001    1    1    2    0    0  0.62948052829E+02 -0.40050219731E+02  0.57263315849E+02  0.12155066761E+03  0.77000000000E+02 0.  0.
<mgrwt>
<rscale>  0 0.21560362E+03</rscale>
<asrwt>0</asrwt>
<pdfrwt beam="1">  1        2 0.10250170E-01 0.21560362E+03</pdfrwt>
<pdfrwt beam="2">  1       -2 0.23137954E-01 0.21560362E+03</pdfrwt>
<totfact> 0.98630802E+03</totfact>
</mgrwt>
</event>
<event>
 4    1  0.5121375E-004  0.1710016E+03  0.7818608E-02  0.1176807E+00
         -2   -1    0    0    0  501 -0.00000000000E+00  0.00000000000E+00  0.30212039541E+01  0.30212050302E+01  0.25500000000E-02 0. -1.
          2   -1    0    0  501    0  0.00000000000E+00 -0.00000000000E+00 -0.24196925597E+04  0.24196925597E+04  0.25500000000E-02 0.  1.
    5000001    1    1    2    0    0 -0.97564877726E+01 -0.35846144852E+02 -0.12241813170E+04  0.12271630014E+04  0.77000000000E+02 0.  0.
   -5000001    1    1    2    0    0  0.97564877726E+01  0.35846144852E+02 -0.11924900388E+04  0.11955507634E+04  0.77000000000E+02 0.  0.
<mgrwt>
<rscale>  0 0.17100159E+03</rscale>
<asrwt>0</asrwt>
<pdfrwt beam="1">  1        2 0.34566913E+00 0.17100159E+03</pdfrwt>
<pdfrwt beam="2">  1       -2 0.43160219E-03 0.17100159E+03</pdfrwt>
<totfact> 0.38576996E+04</totfact>
</mgrwt>
</event>
<event>
 4    1  0.5121375E-004  0.2375726E+03  0.7818608E-02  0.1121420E+00
          2   -1    0    0  501    0  0.00000000000E+00  0.00000000000E+00  0.65752144599E+03  0.65752144600E+03  0.25500000000E-02 0.  1.
         -2   -1    0    0    0  501 -0.00000000000E+00 -0.00000000000E+00 -0.21459664527E+02  0.21459664679E+02  0.25500000000E-02 0. -1.
    5000001    1    1    2    0    0 -0.32380354624E+02  0.48213243668E+02  0.51620726400E+03  0.52513992768E+03  0.77000000000E+02 0.  0.
   -5000001    1    1    2    0    0  0.32380354624E+02 -0.48213243668E+02  0.11985451746E+03  0.15384118300E+03  0.77000000000E+02 0.  0.
<mgrwt>
<rscale>  0 0.23757264E+03</rscale>
<asrwt>0</asrwt>
<pdfrwt beam="1">  1        2 0.93931614E-01 0.23757264E+03</pdfrwt>
<pdfrwt beam="2">  1       -2 0.30656671E-02 0.23757264E+03</pdfrwt>
<totfact> 0.19970622E+04</totfact>
</mgrwt>
</event>
<event>
 4    1  0.5121375E-004  0.1821296E+03  0.7818608E-02  0.1165758E+00
          2   -1    0    0  501    0  0.00000000000E+00  0.00000000000E+00  0.34523546953E+02  0.34523547047E+02  0.25500000000E-02 0.  1.
         -2   -1    0    0    0  501 -0.00000000000E+00 -0.00000000000E+00 -0.24020701454E+03  0.24020701455E+03  0.25500000000E-02 0. -1.
    5000001    1    1    2    0    0  0.38901212782E+02  0.20918776108E+02 -0.13349298031E+03  0.16031305418E+03  0.77000000000E+02 0.  0.
   -5000001    1    1    2    0    0 -0.38901212782E+02 -0.20918776108E+02 -0.72190487274E+02  0.11441750741E+03  0.77000000000E+02 0.  0.
<mgrwt>
<rscale>  0 0.18212960E+03</rscale>
<asrwt>0</asrwt>
<pdfrwt beam="1">  1        2 0.49319354E-02 0.18212960E+03</pdfrwt>
<pdfrwt beam="2">  1       -2 0.34315287E-01 0.18212960E+03</pdfrwt>
<totfact> 0.12245969E+04</totfact>
</mgrwt>
</event>
<event>
 4    1  0.5121375E-004  0.2684136E+03  0.7818608E-02  0.1102191E+00
         -2   -1    0    0    0  501 -0.00000000000E+00  0.00000000000E+00  0.21643499114E+02  0.21643499264E+02  0.25500000000E-02 0. -1.
          2   -1    0    0  501    0  0.00000000000E+00 -0.00000000000E+00 -0.83218801013E+03  0.83218801013E+03  0.25500000000E-02 0.  1.
    5000001    1    1    2    0    0  0.15201880745E+01  0.10544873026E+03 -0.50386954286E+03  0.52051442046E+03  0.77000000000E+02 0.  0.
   -5000001    1    1    2    0    0 -0.15201880745E+01 -0.10544873026E+03 -0.30667496816E+03  0.33331708894E+03  0.77000000000E+02 0.  0.
<mgrwt>
<rscale>  0 0.26841357E+03</rscale>
<asrwt>0</asrwt>
<pdfrwt beam="1">  1        2 0.11888398E+00 0.26841357E+03</pdfrwt>
<pdfrwt beam="2">  1       -2 0.30919290E-02 0.26841357E+03</pdfrwt>
<totfact> 0.14935873E+04</totfact>
</mgrwt>
</event>
<event>
 4    1  0.5121375E-004  0.2087039E+03  0.7818608E-02  0.1142596E+00
          2   -1    0    0  501    0  0.00000000000E+00  0.00000000000E+00  0.46699544505E+03  0.46699544506E+03  0.25500000000E-02 0.  1.
         -2   -1    0    0    0  501 -0.00000000000E+00 -0.00000000000E+00 -0.23317848740E+02  0.23317848880E+02  0.25500000000E-02 0. -1.
    5000001    1    1    2    0    0  0.85132410644E+01  0.69911016253E+02  0.22054406807E+03  0.24398506395E+03  0.77000000000E+02 0.  0.
   -5000001    1    1    2    0    0 -0.85132410644E+01 -0.69911016253E+02  0.22313352824E+03  0.24632822999E+03  0.77000000000E+02 0.  0.
<mgrwt>
<rscale>  0 0.20870390E+03</rscale>
<asrwt>0</asrwt>
<pdfrwt beam="1">  1        2 0.66713630E-01 0.20870390E+03</pdfrwt>
<pdfrwt beam="2">  1       -2 0.33311215E-02 0.20870390E+03</pdfrwt>
<totfact> 0.25681440E+04</totfact>
</mgrwt>
</event>
<event>
 4    1  0.5121375E-004  0.4346582E+03  0.7818608E-02  0.1032398E+00
         -2   -1    0    0    0  501 -0.00000000000E+00  0.00000000000E+00  0.10923757931E+04  0.10923757931E+04  0.25500000000E-02 0. -1.
          2   -1    0    0  501    0  0.00000000000E+00 -0.00000000000E+00 -0.43237819626E+02  0.43237819701E+02  0.25500000000E-02 0.  1.
    5000001    1    1    2    0    0  0.16063194295E+03  0.11584084111E+03  0.64375966385E+03  0.67792125381E+03  0.77000000000E+02 0.  0.
   -5000001    1    1    2    0    0 -0.16063194295E+03 -0.11584084111E+03  0.40537830963E+03  0.45769235899E+03  0.77000000000E+02 0.  0.
<mgrwt>
<rscale>  0 0.43465825E+03</rscale>
<asrwt>0</asrwt>
<pdfrwt beam="1">  1        2 0.61768306E-02 0.43465825E+03</pdfrwt>
<pdfrwt beam="2">  1       -2 0.15605370E+00 0.43465825E+03</pdfrwt>
<totfact> 0.34119987E+02</totfact>
</mgrwt>
</event>
<event>
 4    1  0.5121375E-004  0.1629236E+03  0.7818608E-02  0.1185435E+00
         -2   -1    0    0    0  501 -0.00000000000E+00  0.00000000000E+00  0.11943969278E+02  0.11943969550E+02  0.25500000000E-02 0. -1.
          2   -1    0    0  501    0  0.00000000000E+00 -0.00000000000E+00 -0.55559609076E+03  0.55559609077E+03  0.25500000000E-02 0.  1.
    5000001    1    1    2    0    0 -0.95879413822E+01  0.23036793736E+02 -0.30382859826E+03  0.31442557085E+03  0.77000000000E+02 0.  0.
   -5000001    1    1    2    0    0  0.95879413822E+01 -0.23036793736E+02 -0.23982352323E+03  0.25311448947E+03  0.77000000000E+02 0.  0.
<mgrwt>
<rscale>  0 0.16292357E+03</rscale>
<asrwt>0</asrwt>
<pdfrwt beam="1">  1        2 0.79370854E-01 0.16292357E+03</pdfrwt>
<pdfrwt beam="2">  1       -2 0.17062817E-02 0.16292357E+03</pdfrwt>
<totfact> 0.55422360E+04</totfact>
</mgrwt>
</event>
<event>
 4    1  0.5121375E-004  0.2405944E+03  0.7818608E-02  0.1119398E+00
         -2   -1    0    0    0  501 -0.00000000000E+00  0.00000000000E+00  0.45965872935E+01  0.45965880008E+01  0.25500000000E-02 0. -1.
          2   -1    0    0  501    0  0.00000000000E+00 -0.00000000000E+00 -0.31482944092E+04  0.31482944092E+04  0.25500000000E-02 0.  1.
    5000001    1    1    2    0    0  0.15203594950E+02  0.91159505467E+02 -0.15574549732E+04  0.15620935306E+04  0.77000000000E+02 0.  0.
   -5000001    1    1    2    0    0 -0.15203594950E+02 -0.91159505467E+02 -0.15862428487E+04  0.15907974666E+04  0.77000000000E+02 0.  0.
<mgrwt>
<rscale>  0 0.24059436E+03</rscale>
<asrwt>0</asrwt>
<pdfrwt beam="1">  1        2 0.44975496E+00 0.24059436E+03</pdfrwt>
<pdfrwt beam="2">  1       -2 0.65665740E-03 0.24059436E+03</pdfrwt>
<totfact> 0.90666879E+03</totfact>
</mgrwt>
</event>
<event>
 4    1  0.5121375E-004  0.1876489E+03  0.7818608E-02  0.1160599E+00
          2   -1    0    0  501    0  0.00000000000E+00  0.00000000000E+00  0.35461486628E+02  0.35461486720E+02  0.25500000000E-02 0.  1.
         -2   -1    0    0    0  501 -0.00000000000E+00 -0.00000000000E+00 -0.24824199308E+03  0.24824199309E+03  0.25500000000E-02 0. -1.
    5000001    1    1    2    0    0  0.18100395141E+02  0.30250416441E+02 -0.16745462659E+03  0.18765064339E+03  0.77000000000E+02 0.  0.
   -5000001    1    1    2    0    0 -0.18100395141E+02 -0.30250416441E+02 -0.45325879861E+02  0.96052836420E+02  0.77000000000E+02 0.  0.
<mgrwt>
<rscale>  0 0.18764893E+03</rscale>
<asrwt>0</asrwt>
<pdfrwt beam="1">  1        2 0.50659268E-02 0.18764893E+03</pdfrwt>
<pdfrwt beam="2">  1       -2 0.35463141E-01 0.18764893E+03</pdfrwt>
<totfact> 0.11149583E+04</totfact>
</mgrwt>
</event>
<event>
 4    1  0.5121375E-004  0.3078129E+03  0.7818608E-02  0.1081399E+00
         -2   -1    0    0    0  501 -0.00000000000E+00  0.00000000000E+00  0.25970231137E+02  0.25970231262E+02  0.25500000000E-02 0. -1.
          2   -1    0    0  501    0  0.00000000000E+00 -0.00000000000E+00 -0.91209022176E+03  0.91209022176E+03  0.25500000000E-02 0.  1.
    5000001    1    1    2    0    0 -0.73629996747E+02 -0.95539332786E+02 -0.61569644505E+03  0.63210778588E+03  0.77000000000E+02 0.  0.
   -5000001    1    1    2    0    0  0.73629996747E+02  0.95539332786E+02 -0.27042354557E+03  0.30595266714E+03  0.77000000000E+02 0.  0.
<mgrwt>
<rscale>  0 0.30781289E+03</rscale>
<asrwt>0</asrwt>
<pdfrwt beam="1">  1        2 0.13029858E+00 0.30781289E+03</pdfrwt>
<pdfrwt beam="2">  1       -2 0.37100336E-02 0.30781289E+03</pdfrwt>
<totfact> 0.10160475E+04</totfact>
</mgrwt>
</event>
<event>
 4    1  0.5121375E-004  0.2897590E+03  0.7818608E-02  0.1090475E+00
          2   -1    0    0  501    0  0.00000000000E+00  0.00000000000E+00  0.34945356005E+03  0.34945356005E+03  0.25500000000E-02 0.  1.
         -2   -1    0    0    0  501 -0.00000000000E+00 -0.00000000000E+00 -0.60065417821E+02  0.60065417875E+02  0.25500000000E-02 0. -1.
    5000001    1    1    2    0    0 -0.11837503503E+03  0.15419531351E+02  0.10445413421E+03  0.17632378462E+03  0.77000000000E+02 0.  0.
   -5000001    1    1    2    0    0  0.11837503503E+03 -0.15419531351E+02  0.18493400801E+03  0.23319519331E+03  0.77000000000E+02 0.  0.
<mgrwt>
<rscale>  0 0.28975903E+03</rscale>
<asrwt>0</asrwt>
<pdfrwt beam="1">  1        2 0.49921937E-01 0.28975903E+03</pdfrwt>
<pdfrwt beam="2">  1       -2 0.85807741E-02 0.28975903E+03</pdfrwt>
<totfact> 0.84576371E+03</totfact>
</mgrwt>
</event>
<event>
 4    1  0.5121375E-004  0.1861645E+03  0.7818608E-02  0.1161967E+00
         -2   -1    0    0    0  501 -0.00000000000E+00  0.00000000000E+00  0.22272249425E+03  0.22272249427E+03  0.25500000000E-02 0. -1.
          2   -1    0    0  501    0  0.00000000000E+00 -0.00000000000E+00 -0.38901783171E+02  0.38901783255E+02  0.25500000000E-02 0.  1.
    5000001    1    1    2    0    0 -0.14480018385E+02  0.34671933841E+02  0.40784416495E+02  0.94890371258E+02  0.77000000000E+02 0.  0.
   -5000001    1    1    2    0    0  0.14480018385E+02 -0.34671933841E+02  0.14303629458E+03  0.16673390626E+03  0.77000000000E+02 0.  0.
<mgrwt>
<rscale>  0 0.18616447E+03</rscale>
<asrwt>0</asrwt>
<pdfrwt beam="1">  1        2 0.55573976E-02 0.18616447E+03</pdfrwt>
<pdfrwt beam="2">  1       -2 0.31817499E-01 0.18616447E+03</pdfrwt>
<totfact> 0.12054426E+04</totfact>
</mgrwt>
</event>
<event>
 4    1  0.5121375E-004  0.1991491E+03  0.7818608E-02  0.1150459E+00
         -2   -1    0    0    0  501 -0.00000000000E+00  0.00000000000E+00  0.37058699386E+03  0.37058699387E+03  0.25500000000E-02 0. -1.
          2   -1    0    0  501    0  0.00000000000E+00 -0.00000000000E+00 -0.26755096872E+02  0.26755096994E+02  0.25500000000E-02 0.  1.
    5000001    1    1    2    0    0 -0.28068656226E+02  0.55819445432E+02  0.15380123379E+03  0.18299584549E+03  0.77000000000E+02 0.  0.
   -5000001    1    1    2    0    0  0.28068656226E+02 -0.55819445432E+02  0.19003066319E+03  0.21434624537E+03  0.77000000000E+02 0.  0.
<mgrwt>
<rscale>  0 0.19914910E+03</rscale>
<asrwt>0</asrwt>
<pdfrwt beam="1">  1        2 0.38221572E-02 0.19914910E+03</pdfrwt>
<pdfrwt beam="2">  1       -2 0.52940993E-01 0.19914910E+03</pdfrwt>
<totfact> 0.75006008E+03</totfact>
</mgrwt>
</event>
<event>
 4    1  0.5121375E-004  0.2750323E+03  0.7818608E-02  0.1098434E+00
          2   -1    0    0  501    0  0.00000000000E+00  0.00000000000E+00  0.58667906563E+03  0.58667906564E+03  0.25500000000E-02 0.  1.
         -2   -1    0    0    0  501 -0.00000000000E+00 -0.00000000000E+00 -0.32233457148E+02  0.32233457249E+02  0.25500000000E-02 0. -1.
    5000001    1    1    2    0    0 -0.11363267695E+03  0.14922817599E+01  0.29565384104E+03  0.32596749209E+03  0.77000000000E+02 0.  0.
   -5000001    1    1    2    0    0  0.11363267695E+03 -0.14922817599E+01  0.25879176744E+03  0.29294503080E+03  0.77000000000E+02 0.  0.
<mgrwt>
<rscale>  0 0.27503232E+03</rscale>
<asrwt>0</asrwt>
<pdfrwt beam="1">  1        2 0.83811298E-01 0.27503232E+03</pdfrwt>
<pdfrwt beam="2">  1       -2 0.46047795E-02 0.27503232E+03</pdfrwt>
<totfact> 0.12463067E+04</totfact>
</mgrwt>
</event>
<event>
 4    1  0.5121375E-004  0.4175550E+03  0.7818608E-02  0.1037865E+00
          2   -1    0    0  501    0  0.00000000000E+00  0.00000000000E+00  0.69074610040E+02  0.69074610087E+02  0.25500000000E-02 0.  1.
         -2   -1    0    0    0  501 -0.00000000000E+00 -0.00000000000E+00 -0.63102840180E+03  0.63102840180E+03  0.25500000000E-02 0. -1.
    5000001    1    1    2    0    0  0.11423051297E+03 -0.24215249364E+02 -0.54085602890E+03  0.55864947184E+03  0.77000000000E+02 0.  0.
   -5000001    1    1    2    0    0 -0.11423051297E+03  0.24215249364E+02 -0.21097762862E+02  0.14145354005E+03  0.77000000000E+02 0.  0.
<mgrwt>
<rscale>  0 0.41755498E+03</rscale>
<asrwt>0</asrwt>
<pdfrwt beam="1">  1        2 0.98678018E-02 0.41755498E+03</pdfrwt>
<pdfrwt beam="2">  1       -2 0.90146911E-01 0.41755498E+03</pdfrwt>
<totfact> 0.71496087E+02</totfact>
</mgrwt>
</event>
<event>
 4    1  0.5121375E-004  0.2998689E+03  0.7818608E-02  0.1085306E+00
         -2   -1    0    0    0  501 -0.00000000000E+00  0.00000000000E+00  0.62890430966E+02  0.62890431018E+02  0.25500000000E-02 0. -1.
          2   -1    0    0  501    0  0.00000000000E+00 -0.00000000000E+00 -0.35745244515E+03  0.35745244516E+03  0.25500000000E-02 0.  1.
    5000001    1    1    2    0    0  0.11341507543E+02 -0.60350500451E+02  0.11188837574E+02  0.99121152053E+02  0.77000000000E+02 0.  0.
   -5000001    1    1    2    0    0 -0.11341507543E+02  0.60350500451E+02 -0.30575085176E+03  0.32122172412E+03  0.77000000000E+02 0.  0.
<mgrwt>
<rscale>  0 0.29986889E+03</rscale>
<asrwt>0</asrwt>
<pdfrwt beam="1">  1        2 0.51064634E-01 0.29986889E+03</pdfrwt>
<pdfrwt beam="2">  1       -2 0.89843475E-02 0.29986889E+03</pdfrwt>
<totfact> 0.76865826E+03</totfact>
</mgrwt>
</event>
<event>
 4    1  0.5121375E-004  0.2178083E+03  0.7818608E-02  0.1135528E+00
          2   -1    0    0  501    0  0.00000000000E+00  0.00000000000E+00  0.56971440192E+03  0.56971440193E+03  0.25500000000E-02 0.  1.
         -2   -1    0    0    0  501 -0.00000000000E+00 -0.00000000000E+00 -0.20817646368E+02  0.20817646524E+02  0.25500000000E-02 0. -1.
    5000001    1    1    2    0    0  0.17044285495E+02 -0.34498127514E+02  0.45532094827E+03  0.46338622595E+03  0.77000000000E+02 0.  0.
   -5000001    1    1    2    0    0 -0.17044285495E+02  0.34498127514E+02  0.93575807286E+02  0.12714582250E+03  0.77000000000E+02 0.  0.
<mgrwt>
<rscale>  0 0.21780829E+03</rscale>
<asrwt>0</asrwt>
<pdfrwt beam="1">  1        2 0.81387767E-01 0.21780829E+03</pdfrwt>
<pdfrwt beam="2">  1       -2 0.29739497E-02 0.21780829E+03</pdfrwt>
<totfact> 0.24470048E+04</totfact>
</mgrwt>
</event>
<event>
 4    1  0.5121375E-004  0.1730459E+03  0.7818608E-02  0.1174708E+00
         -2   -1    0    0    0  501 -0.00000000000E+00  0.00000000000E+00  0.22946098298E+03  0.22946098299E+03  0.25500000000E-02 0. -1.
          2   -1    0    0  501    0  0.00000000000E+00 -0.00000000000E+00 -0.32625243788E+02  0.32625243887E+02  0.25500000000E-02 0.  1.
    5000001    1    1    2    0    0 -0.62864474015E+01  0.38141463989E+02  0.86403218383E+02  0.12201969859E+03  0.77000000000E+02 0.  0.
   -5000001    1    1    2    0    0  0.62864474015E+01 -0.38141463989E+02  0.11043252081E+03  0.14006652829E+03  0.77000000000E+02 0.  0.
<mgrwt>
<rscale>  0 0.17304590E+03</rscale>
<asrwt>0</asrwt>
<pdfrwt beam="1">  1        2 0.46607491E-02 0.17304590E+03</pdfrwt>
<pdfrwt beam="2">  1       -2 0.32780141E-01 0.17304590E+03</pdfrwt>
<totfact> 0.14289406E+04</totfact>
</mgrwt>
</event>
<event>
 4    1  0.5121375E-004  0.2550552E+03  0.7818608E-02  0.1110151E+00
         -2   -1    0    0    0  501 -0.00000000000E+00  0.00000000000E+00  0.52956823540E+01  0.52956829679E+01  0.25500000000E-02 0. -1.
          2   -1    0    0  501    0  0.00000000000E+00 -0.00000000000E+00 -0.30710472973E+04  0.30710472973E+04  0.25500000000E-02 0.  1.
    5000001    1    1    2    0    0  0.36517553620E+02 -0.78196115171E+02 -0.21808508903E+04  0.21839156966E+04  0.77000000000E+02 0.  0.
   -5000001    1    1    2    0    0 -0.36517553620E+02  0.78196115171E+02 -0.88490072459E+03  0.89242728361E+03  0.77000000000E+02 0.  0.
<mgrwt>
<rscale>  0 0.25505522E+03</rscale>
<asrwt>0</asrwt>
<pdfrwt beam="1">  1        2 0.43871990E+00 0.25505522E+03</pdfrwt>
<pdfrwt beam="2">  1       -2 0.75652806E-03 0.25505522E+03</pdfrwt>
<totfact> 0.81336566E+03</totfact>
</mgrwt>
</event>
<event>
 4    1  0.5121375E-004  0.2022838E+03  0.7818608E-02  0.1147826E+00
         -2   -1    0    0    0  501 -0.00000000000E+00  0.00000000000E+00  0.27196623291E+01  0.27196635245E+01  0.25500000000E-02 0. -1.
          2   -1    0    0  501    0  0.00000000000E+00 -0.00000000000E+00 -0.37613784769E+04  0.37613784769E+04  0.25500000000E-02 0.  1.
    5000001    1    1    2    0    0  0.50450810861E+01 -0.58796435523E+02 -0.13470597300E+04  0.13505485515E+04  0.77000000000E+02 0.  0.
   -5000001    1    1    2    0    0 -0.50450810861E+01  0.58796435523E+02 -0.24115990846E+04  0.24135495890E+04  0.77000000000E+02 0.  0.
<mgrwt>
<rscale>  0 0.20228378E+03</rscale>
<asrwt>0</asrwt>
<pdfrwt beam="1">  1        2 0.53733645E+00 0.20228378E+03</pdfrwt>
<pdfrwt beam="2">  1       -2 0.38852569E-03 0.20228378E+03</pdfrwt>
<totfact> 0.85837926E+03</totfact>
</mgrwt>
</event>
<event>
 4    1  0.5121375E-004  0.2159427E+03  0.7818608E-02  0.1136945E+00
         -2   -1    0    0    0  501 -0.00000000000E+00  0.00000000000E+00  0.10433146767E+02  0.10433147078E+02  0.25500000000E-02 0. -1.
          2   -1    0    0  501    0  0.00000000000E+00 -0.00000000000E+00 -0.11173817205E+04  0.11173817205E+04  0.25500000000E-02 0.  1.
    5000001    1    1    2    0    0  0.14580313035E+02  0.74124028997E+02 -0.57788776533E+03  0.58786922569E+03  0.77000000000E+02 0.  0.
   -5000001    1    1    2    0    0 -0.14580313035E+02 -0.74124028997E+02 -0.52906080844E+03  0.53994564192E+03  0.77000000000E+02 0.  0.
<mgrwt>
<rscale>  0 0.21594266E+03</rscale>
<asrwt>0</asrwt>
<pdfrwt beam="1">  1        2 0.15962588E+00 0.21594266E+03</pdfrwt>
<pdfrwt beam="2">  1       -2 0.14904503E-02 0.21594266E+03</pdfrwt>
<totfact> 0.29146278E+04</totfact>
</mgrwt>
</event>
<event>
 4    1  0.5121375E-004  0.2682468E+03  0.7818608E-02  0.1102287E+00
          2   -1    0    0  501    0  0.00000000000E+00  0.00000000000E+00  0.22415655099E+04  0.22415655099E+04  0.25500000000E-02 0.  1.
         -2   -1    0    0    0  501 -0.00000000000E+00 -0.00000000000E+00 -0.80252314785E+01  0.80252318836E+01  0.25500000000E-02 0. -1.
    5000001    1    1    2    0    0  0.58718571062E+02  0.69196867358E+02  0.59817520802E+03  0.60990053003E+03  0.77000000000E+02 0.  0.
   -5000001    1    1    2    0    0 -0.58718571062E+02 -0.69196867358E+02  0.16353650704E+04  0.16396902118E+04  0.77000000000E+02 0.  0.
<mgrwt>
<rscale>  0 0.26824677E+03</rscale>
<asrwt>0</asrwt>
<pdfrwt beam="1">  1        2 0.32022371E+00 0.26824677E+03</pdfrwt>
<pdfrwt beam="2">  1       -2 0.11464614E-02 0.26824677E+03</pdfrwt>
<totfact> 0.11754657E+04</totfact>
</mgrwt>
</event>
<event>
 4    1  0.5121375E-004  0.4238094E+03  0.7818608E-02  0.1035834E+00
          2   -1    0    0  501    0  0.00000000000E+00  0.00000000000E+00  0.23308151954E+03  0.23308151956E+03  0.25500000000E-02 0.  1.
         -2   -1    0    0    0  501 -0.00000000000E+00 -0.00000000000E+00 -0.19265188057E+03  0.19265188059E+03  0.25500000000E-02 0. -1.
    5000001    1    1    2    0    0  0.37472974034E+01  0.19637728470E+03  0.40217851784E+02  0.21476628177E+03  0.77000000000E+02 0.  0.
   -5000001    1    1    2    0    0 -0.37472974034E+01 -0.19637728470E+03  0.21178718898E+00  0.21096711838E+03  0.77000000000E+02 0.  0.
<mgrwt>
<rscale>  0 0.42380936E+03</rscale>
<asrwt>0</asrwt>
<pdfrwt beam="1">  1        2 0.33297360E-01 0.42380936E+03</pdfrwt>
<pdfrwt beam="2">  1       -2 0.27521697E-01 0.42380936E+03</pdfrwt>
<totfact> 0.18847984E+03</totfact>
</mgrwt>
</event>
<event>
 4    1  0.5121375E-004  0.3425407E+03  0.7818608E-02  0.1065719E+00
          2   -1    0    0  501    0  0.00000000000E+00  0.00000000000E+00  0.97117359740E+03  0.97117359740E+03  0.25500000000E-02 0.  1.
         -2   -1    0    0    0  501 -0.00000000000E+00 -0.00000000000E+00 -0.30204212264E+02  0.30204212372E+02  0.25500000000E-02 0. -1.
    5000001    1    1    2    0    0 -0.14674439283E+03  0.42862146541E+02  0.48739314965E+03  0.51657735409E+03  0.77000000000E+02 0.  0.
   -5000001    1    1    2    0    0  0.14674439283E+03 -0.42862146541E+02  0.45357623549E+03  0.48480045569E+03  0.77000000000E+02 0.  0.
<mgrwt>
<rscale>  0 0.34254070E+03</rscale>
<asrwt>0</asrwt>
<pdfrwt beam="1">  1        2 0.13873908E+00 0.34254070E+03</pdfrwt>
<pdfrwt beam="2">  1       -2 0.43148877E-02 0.34254070E+03</pdfrwt>
<totfact> 0.74604217E+03</totfact>
</mgrwt>
</event>
<event>
 4    1  0.5121375E-004  0.1984480E+03  0.7818608E-02  0.1151055E+00
         -2   -1    0    0    0  501 -0.00000000000E+00  0.00000000000E+00  0.21549086072E+02  0.21549086222E+02  0.25500000000E-02 0. -1.
          2   -1    0    0  501    0  0.00000000000E+00 -0.00000000000E+00 -0.45688267419E+03  0.45688267420E+03  0.25500000000E-02 0.  1.
    5000001    1    1    2    0    0  0.61130079668E+02 -0.11696593078E+02 -0.23342198514E+03  0.25355180945E+03  0.77000000000E+02 0.  0.
   -5000001    1    1    2    0    0 -0.61130079668E+02  0.11696593078E+02 -0.20191160298E+03  0.22487995097E+03  0.77000000000E+02 0.  0.
<mgrwt>
<rscale>  0 0.19844802E+03</rscale>
<asrwt>0</asrwt>
<pdfrwt beam="1">  1        2 0.65268948E-01 0.19844802E+03</pdfrwt>
<pdfrwt beam="2">  1       -2 0.30784412E-02 0.19844802E+03</pdfrwt>
<totfact> 0.29452862E+04</totfact>
</mgrwt>
</event>
<event>
 4    1  0.5121375E-004  0.2033205E+03  0.7818608E-02  0.1146967E+00
          2   -1    0    0  501    0  0.00000000000E+00  0.00000000000E+00  0.10768047280E+04  0.10768047280E+04  0.25500000000E-02 0.  1.
         -2   -1    0    0    0  501 -0.00000000000E+00 -0.00000000000E+00 -0.95976562914E+01  0.95976566302E+01  0.25500000000E-02 0. -1.
    5000001    1    1    2    0    0 -0.29467773768E+02  0.46119040806E+02  0.33292816951E+03  0.34607149792E+03  0.77000000000E+02 0.  0.
   -5000001    1    1    2    0    0  0.29467773768E+02 -0.46119040806E+02  0.73427890222E+03  0.74033088674E+03  0.77000000000E+02 0.  0.
<mgrwt>
<rscale>  0 0.20332046E+03</rscale>
<asrwt>0</asrwt>
<pdfrwt beam="1">  1        2 0.15382925E+00 0.20332046E+03</pdfrwt>
<pdfrwt beam="2">  1       -2 0.13710938E-02 0.20332046E+03</pdfrwt>
<totfact> 0.34530606E+04</totfact>
</mgrwt>
</event>
<event>
 4    1  0.5121375E-004  0.2819524E+03  0.7818608E-02  0.1094627E+00
         -2   -1    0    0    0  501 -0.00000000000E+00  0.00000000000E+00  0.77916508434E+02  0.77916508476E+02  0.25500000000E-02 0. -1.
          2   -1    0    0  501    0  0.00000000000E+00 -0.00000000000E+00 -0.25507164883E+03  0.25507164885E+03  0.25500000000E-02 0.  1.
    5000001    1    1    2    0    0  0.74051467554E+02 -0.69799524393E+02 -0.15933661526E+03  0.20413904677E+03  0.77000000000E+02 0.  0.
   -5000001    1    1    2    0    0 -0.74051467554E+02  0.69799524393E+02 -0.17818525137E+02  0.12884911055E+03  0.77000000000E+02 0.  0.
<mgrwt>
<rscale>  0 0.28195242E+03</rscale>
<asrwt>0</asrwt>
<pdfrwt beam="1">  1        2 0.36438806E-01 0.28195242E+03</pdfrwt>
<pdfrwt beam="2">  1       -2 0.11130930E-01 0.28195242E+03</pdfrwt>
<totfact> 0.78495329E+03</totfact>
</mgrwt>
</event>
<event>
 4    1  0.5121375E-004  0.1629739E+03  0.7818608E-02  0.1185380E+00
         -2   -1    0    0    0  501 -0.00000000000E+00  0.00000000000E+00  0.45800887846E+02  0.45800887917E+02  0.25500000000E-02 0. -1.
          2   -1    0    0  501    0  0.00000000000E+00 -0.00000000000E+00 -0.14497801978E+03  0.14497801981E+03  0.25500000000E-02 0.  1.
    5000001    1    1    2    0    0 -0.82646010481E+01 -0.18693887504E+02 -0.29538743136E+02  0.84966478134E+02  0.77000000000E+02 0.  0.
   -5000001    1    1    2    0    0  0.82646010481E+01  0.18693887504E+02 -0.69638388800E+02  0.10581242959E+03  0.77000000000E+02 0.  0.
<mgrwt>
<rscale>  0 0.16297389E+03</rscale>
<asrwt>0</asrwt>
<pdfrwt beam="1">  1        2 0.20711145E-01 0.16297389E+03</pdfrwt>
<pdfrwt beam="2">  1       -2 0.65429841E-02 0.16297389E+03</pdfrwt>
<totfact> 0.32390659E+04</totfact>
</mgrwt>
</event>
<event>
 4    1  0.5121375E-004  0.2297408E+03  0.7818608E-02  0.1126822E+00
         -2   -1    0    0    0  501 -0.00000000000E+00  0.00000000000E+00  0.18791740219E+03  0.18791740221E+03  0.25500000000E-02 0. -1.
          2   -1    0    0  501    0  0.00000000000E+00 -0.00000000000E+00 -0.70218111442E+02  0.70218111489E+02  0.25500000000E-02 0.  1.
    5000001    1    1    2    0    0 -0.43538542345E+02 -0.53047119583E+02  0.11566181591E+03  0.15497179493E+03  0.77000000000E+02 0.  0.
   -5000001    1    1    2    0    0  0.43538542345E+02  0.53047119583E+02  0.20374748403E+01  0.10316371876E+03  0.77000000000E+02 0.  0.
<mgrwt>
<rscale>  0 0.22974077E+03</rscale>
<asrwt>0</asrwt>
<pdfrwt beam="1">  1        2 0.10031159E-01 0.22974077E+03</pdfrwt>
<pdfrwt beam="2">  1       -2 0.26845343E-01 0.22974077E+03</pdfrwt>
<totfact> 0.78298313E+03</totfact>
</mgrwt>
</event>
<event>
 4    1  0.5121375E-004  0.2035882E+03  0.7818608E-02  0.1146746E+00
          2   -1    0    0  501    0  0.00000000000E+00  0.00000000000E+00  0.15781863579E+03  0.15781863581E+03  0.25500000000E-02 0.  1.
         -2   -1    0    0    0  501 -0.00000000000E+00 -0.00000000000E+00 -0.65657916590E+02  0.65657916640E+02  0.25500000000E-02 0. -1.
    5000001    1    1    2    0    0 -0.35983661695E+02  0.50024731407E+02  0.73757474136E+02  0.12315219305E+03  0.77000000000E+02 0.  0.
   -5000001    1    1    2    0    0  0.35983661695E+02 -0.50024731407E+02  0.18403245067E+02  0.10032435941E+03  0.77000000000E+02 0.  0.
<mgrwt>
<rscale>  0 0.20358824E+03</rscale>
<asrwt>0</asrwt>
<pdfrwt beam="1">  1        2 0.22545519E-01 0.20358824E+03</pdfrwt>
<pdfrwt beam="2">  1       -2 0.93797026E-02 0.20358824E+03</pdfrwt>
<totfact> 0.17166193E+04</totfact>
</mgrwt>
</event>
<event>
 4    1  0.5121375E-004  0.3976206E+03  0.7818608E-02  0.1044607E+00
         -2   -1    0    0    0  501 -0.00000000000E+00  0.00000000000E+00  0.21893637022E+02  0.21893637171E+02  0.25500000000E-02 0. -1.
          2   -1    0    0  501    0  0.00000000000E+00 -0.00000000000E+00 -0.18053438098E+04  0.18053438098E+04  0.25500000000E-02 0.  1.
    5000001    1    1    2    0    0  0.50323153301E+02  0.98585684574E+02 -0.15631137481E+04  0.15689184639E+04  0.77000000000E+02 0.  0.
   -5000001    1    1    2    0    0 -0.50323153301E+02 -0.98585684574E+02 -0.22033642469E+03  0.25831898305E+03  0.77000000000E+02 0.  0.
<mgrwt>
<rscale>  0 0.39762063E+03</rscale>
<asrwt>0</asrwt>
<pdfrwt beam="1">  1        2 0.25790616E+00 0.39762063E+03</pdfrwt>
<pdfrwt beam="2">  1       -2 0.31276636E-02 0.39762063E+03</pdfrwt>
<totfact> 0.43787437E+03</totfact>
</mgrwt>
</event>
<event>
 4    1  0.5121375E-004  0.2162260E+03  0.7818608E-02  0.1136728E+00
          2   -1    0    0  501    0  0.00000000000E+00  0.00000000000E+00  0.62625724387E+03  0.62625724387E+03  0.25500000000E-02 0.  1.
         -2   -1    0    0    0  501 -0.00000000000E+00 -0.00000000000E+00 -0.18663920862E+02  0.18663921036E+02  0.25500000000E-02 0. -1.
    5000001    1    1    2    0    0 -0.13059096473E+02  0.62940298825E+02  0.18347460977E+03  0.20910273467E+03  0.77000000000E+02 0.  0.
   -5000001    1    1    2    0    0  0.13059096473E+02 -0.62940298825E+02  0.42411871324E+03  0.43581843024E+03  0.77000000000E+02 0.  0.
<mgrwt>
<rscale>  0 0.21622595E+03</rscale>
<asrwt>0</asrwt>
<pdfrwt beam="1">  1        2 0.89465304E-01 0.21622595E+03</pdfrwt>
<pdfrwt beam="2">  1       -2 0.26662749E-02 0.21622595E+03</pdfrwt>
<totfact> 0.25819977E+04</totfact>
</mgrwt>
</event>
<event>
 4    1  0.5121375E-004  0.2281737E+03  0.7818608E-02  0.1127932E+00
          2   -1    0    0  501    0  0.00000000000E+00  0.00000000000E+00  0.11467858588E+03  0.11467858591E+03  0.25500000000E-02 0.  1.
         -2   -1    0    0    0  501 -0.00000000000E+00 -0.00000000000E+00 -0.11349818335E+03  0.11349818337E+03  0.25500000000E-02 0. -1.
    5000001    1    1    2    0    0 -0.45395186078E+02  0.91844834848E+01  0.70888606445E+02  0.11445205188E+03  0.77000000000E+02 0.  0.
   -5000001    1    1    2    0    0  0.45395186078E+02 -0.91844834848E+01 -0.69708203911E+02  0.11372471740E+03  0.77000000000E+02 0.  0.
<mgrwt>
<rscale>  0 0.22817372E+03</rscale>
<asrwt>0</asrwt>
<pdfrwt beam="1">  1        2 0.16382655E-01 0.22817372E+03</pdfrwt>
<pdfrwt beam="2">  1       -2 0.16214026E-01 0.22817372E+03</pdfrwt>
<totfact> 0.10304731E+04</totfact>
</mgrwt>
</event>
<event>
 4    1  0.5121375E-004  0.2181040E+03  0.7818608E-02  0.1135305E+00
         -2   -1    0    0    0  501 -0.00000000000E+00  0.00000000000E+00  0.80585140365E+02  0.80585140405E+02  0.25500000000E-02 0. -1.
          2   -1    0    0  501    0  0.00000000000E+00 -0.00000000000E+00 -0.14757485375E+03  0.14757485378E+03  0.25500000000E-02 0.  1.
    5000001    1    1    2    0    0  0.75826915285E+02 -0.13612414459E+02 -0.27927702980E+02  0.11244543345E+03  0.77000000000E+02 0.  0.
   -5000001    1    1    2    0    0 -0.75826915285E+02  0.13612414459E+02 -0.39062010409E+02  0.11571456074E+03  0.77000000000E+02 0.  0.
<mgrwt>
<rscale>  0 0.21810401E+03</rscale>
<asrwt>0</asrwt>
<pdfrwt beam="1">  1        2 0.21082122E-01 0.21810401E+03</pdfrwt>
<pdfrwt beam="2">  1       -2 0.11512163E-01 0.21810401E+03</pdfrwt>
<totfact> 0.13437971E+04</totfact>
</mgrwt>
</event>
<event>
 4    1  0.5121375E-004  0.2579816E+03  0.7818608E-02  0.1108362E+00
         -2   -1    0    0    0  501 -0.00000000000E+00  0.00000000000E+00  0.39521550481E+02  0.39521550563E+02  0.25500000000E-02 0. -1.
          2   -1    0    0  501    0  0.00000000000E+00 -0.00000000000E+00 -0.42100135761E+03  0.42100135762E+03  0.25500000000E-02 0.  1.
    5000001    1    1    2    0    0  0.83210863597E+01 -0.93632387595E+02 -0.11347658565E+03  0.16625943575E+03  0.77000000000E+02 0.  0.
   -5000001    1    1    2    0    0 -0.83210863597E+01  0.93632387595E+02 -0.26800322147E+03  0.29426347243E+03  0.77000000000E+02 0.  0.
<mgrwt>
<rscale>  0 0.25798160E+03</rscale>
<asrwt>0</asrwt>
<pdfrwt beam="1">  1        2 0.60143049E-01 0.25798160E+03</pdfrwt>
<pdfrwt beam="2">  1       -2 0.56459360E-02 0.25798160E+03</pdfrwt>
<totfact> 0.13156861E+04</totfact>
</mgrwt>
</event>
<event>
 4    1  0.5121375E-004  0.3247383E+03  0.7818608E-02  0.1073489E+00
         -2   -1    0    0    0  501 -0.00000000000E+00  0.00000000000E+00  0.12297422504E+02  0.12297422769E+02  0.25500000000E-02 0. -1.
          2   -1    0    0  501    0  0.00000000000E+00 -0.00000000000E+00 -0.21438423364E+04  0.21438423364E+04  0.25500000000E-02 0.  1.
    5000001    1    1    2    0    0 -0.13059711992E+03 -0.57664433053E+02 -0.11145367311E+04  0.11262779051E+04  0.77000000000E+02 0.  0.
   -5000001    1    1    2    0    0  0.13059711992E+03  0.57664433053E+02 -0.10170081827E+04  0.10298618540E+04  0.77000000000E+02 0.  0.
<mgrwt>
<rscale>  0 0.32473827E+03</rscale>
<asrwt>0</asrwt>
<pdfrwt beam="1">  1        2 0.30626295E+00 0.32473827E+03</pdfrwt>
<pdfrwt beam="2">  1       -2 0.17567760E-02 0.32473827E+03</pdfrwt>
<totfact> 0.70389588E+03</totfact>
</mgrwt>
</event>
<event>
 4    1  0.5121375E-004  0.2771232E+03  0.7818608E-02  0.1097271E+00
          2   -1    0    0  501    0  0.00000000000E+00  0.00000000000E+00  0.17800728549E+04  0.17800728549E+04  0.25500000000E-02 0.  1.
         -2   -1    0    0    0  501 -0.00000000000E+00 -0.00000000000E+00 -0.10785688239E+02  0.10785688540E+02  0.25500000000E-02 0. -1.
    5000001    1    1    2    0    0  0.85563885178E+02 -0.45689272997E+02  0.48306235740E+03  0.49868520055E+03  0.77000000000E+02 0.  0.
   -5000001    1    1    2    0    0 -0.85563885178E+02  0.45689272997E+02  0.12862248092E+04  0.12921733429E+04  0.77000000000E+02 0.  0.
<mgrwt>
<rscale>  0 0.27712316E+03</rscale>
<asrwt>0</asrwt>
<pdfrwt beam="1">  1        2 0.25429612E+00 0.27712316E+03</pdfrwt>
<pdfrwt beam="2">  1       -2 0.15408126E-02 0.27712316E+03</pdfrwt>
<totfact> 0.12837532E+04</totfact>
</mgrwt>
</event>
<event>
 4    1  0.5121375E-004  0.1791567E+03  0.7818608E-02  0.1168622E+00
          2   -1    0    0  501    0  0.00000000000E+00  0.00000000000E+00  0.14698461524E+04  0.14698461524E+04  0.25500000000E-02 0.  1.
         -2   -1    0    0    0  501 -0.00000000000E+00 -0.00000000000E+00 -0.54592628186E+01  0.54592634141E+01  0.25500000000E-02 0. -1.
    5000001    1    1    2    0    0  0.24293185217E+01 -0.44315473171E+02  0.63993729760E+03  0.64607933538E+03  0.77000000000E+02 0.  0.
   -5000001    1    1    2    0    0 -0.24293185217E+01  0.44315473171E+02  0.82444959202E+03  0.82922608047E+03  0.77000000000E+02 0.  0.
<mgrwt>
<rscale>  0 0.17915666E+03</rscale>
<asrwt>0</asrwt>
<pdfrwt beam="1">  1        2 0.20997827E+00 0.17915666E+03</pdfrwt>
<pdfrwt beam="2">  1       -2 0.77989380E-03 0.17915666E+03</pdfrwt>
<totfact> 0.47928743E+04</totfact>
</mgrwt>
</event>
<event>
 4    1  0.5121375E-004  0.2406886E+03  0.7818608E-02  0.1119335E+00
         -2   -1    0    0    0  501 -0.00000000000E+00  0.00000000000E+00  0.12407593586E+02  0.12407593848E+02  0.25500000000E-02 0. -1.
          2   -1    0    0  501    0  0.00000000000E+00 -0.00000000000E+00 -0.11672489898E+04  0.11672489898E+04  0.25500000000E-02 0.  1.
    5000001    1    1    2    0    0  0.54602359186E+02 -0.20934311940E+01 -0.21170148814E+03  0.23180232993E+03  0.77000000000E+02 0.  0.
   -5000001    1    1    2    0    0 -0.54602359186E+02  0.20934311940E+01 -0.94313990805E+03  0.94785425369E+03  0.77000000000E+02 0.  0.
<mgrwt>
<rscale>  0 0.24068861E+03</rscale>
<asrwt>0</asrwt>
<pdfrwt beam="1">  1        2 0.16674979E+00 0.24068861E+03</pdfrwt>
<pdfrwt beam="2">  1       -2 0.17725141E-02 0.24068861E+03</pdfrwt>
<totfact> 0.21376841E+04</totfact>
</mgrwt>
</event>
<event>
 4    1  0.5121375E-004  0.1986865E+03  0.7818608E-02  0.1150852E+00
         -2   -1    0    0    0  501 -0.00000000000E+00  0.00000000000E+00  0.21339223582E+02  0.21339223734E+02  0.25500000000E-02 0. -1.
          2   -1    0    0  501    0  0.00000000000E+00 -0.00000000000E+00 -0.46248567024E+03  0.46248567024E+03  0.25500000000E-02 0.  1.
    5000001    1    1    2    0    0 -0.37033124066E+02  0.50312955031E+02 -0.20571313743E+03  0.22836317705E+03  0.77000000000E+02 0.  0.
   -5000001    1    1    2    0    0  0.37033124066E+02 -0.50312955031E+02 -0.23543330923E+03  0.25546171693E+03  0.77000000000E+02 0.  0.
<mgrwt>
<rscale>  0 0.19868654E+03</rscale>
<asrwt>0</asrwt>
<pdfrwt beam="1">  1        2 0.66069376E-01 0.19868654E+03</pdfrwt>
<pdfrwt beam="2">  1       -2 0.30484608E-02 0.19868654E+03</pdfrwt>
<totfact> 0.29492672E+04</totfact>
</mgrwt>
</event>
<event>
 4    1  0.5121375E-004  0.3311276E+03  0.7818608E-02  0.1070639E+00
          2   -1    0    0  501    0  0.00000000000E+00  0.00000000000E+00  0.75659379526E+03  0.75659379527E+03  0.25500000000E-02 0.  1.
         -2   -1    0    0    0  501 -0.00000000000E+00 -0.00000000000E+00 -0.36229968248E+02  0.36229968338E+02  0.25500000000E-02 0. -1.
    5000001    1    1    2    0    0 -0.65148244526E+02 -0.24245544103E+02  0.51229633453E+02  0.11569622084E+03  0.77000000000E+02 0.  0.
   -5000001    1    1    2    0    0  0.65148244526E+02  0.24245544103E+02  0.66913419356E+03  0.67712754276E+03  0.77000000000E+02 0.  0.
<mgrwt>
<rscale>  0 0.33112758E+03</rscale>
<asrwt>0</asrwt>
<pdfrwt beam="1">  1        2 0.10808480E+00 0.33112758E+03</pdfrwt>
<pdfrwt beam="2">  1       -2 0.51757109E-02 0.33112758E+03</pdfrwt>
<totfact> 0.77838934E+03</totfact>
</mgrwt>
</event>
<event>
 4    1  0.5121375E-004  0.1626933E+03  0.7818608E-02  0.1185689E+00
         -2   -1    0    0    0  501 -0.00000000000E+00  0.00000000000E+00  0.25250268618E+01  0.25250281494E+01  0.25500000000E-02 0. -1.
          2   -1    0    0  501    0  0.00000000000E+00 -0.00000000000E+00 -0.26206769486E+04  0.26206769486E+04  0.25500000000E-02 0.  1.
    5000001    1    1    2    0    0 -0.16169335988E+02  0.17709988749E+02 -0.14806163739E+04  0.14828111605E+04  0.77000000000E+02 0.  0.
   -5000001    1    1    2    0    0  0.16169335988E+02 -0.17709988749E+02 -0.11375355479E+04  0.11403908163E+04  0.77000000000E+02 0.  0.
<mgrwt>
<rscale>  0 0.16269335E+03</rscale>
<asrwt>0</asrwt>
<pdfrwt beam="1">  1        2 0.37438068E+00 0.16269335E+03</pdfrwt>
<pdfrwt beam="2">  1       -2 0.36071989E-03 0.16269335E+03</pdfrwt>
<totfact> 0.39536663E+04</totfact>
</mgrwt>
</event>
<event>
 4    1  0.5121375E-004  0.2352108E+03  0.7818608E-02  0.1123025E+00
          2   -1    0    0  501    0  0.00000000000E+00  0.00000000000E+00  0.10569233161E+04  0.10569233161E+04  0.25500000000E-02 0.  1.
         -2   -1    0    0    0  501 -0.00000000000E+00 -0.00000000000E+00 -0.13086127255E+02  0.13086127503E+02  0.25500000000E-02 0. -1.
    5000001    1    1    2    0    0 -0.14329811954E+01  0.88025640365E+02  0.46593144121E+03  0.48038700514E+03  0.77000000000E+02 0.  0.
   -5000001    1    1    2    0    0  0.14329811954E+01 -0.88025640365E+02  0.57790574763E+03  0.58962243846E+03  0.77000000000E+02 0.  0.
<mgrwt>
<rscale>  0 0.23521083E+03</rscale>
<asrwt>0</asrwt>
<pdfrwt beam="1">  1        2 0.15098911E+00 0.23521083E+03</pdfrwt>
<pdfrwt beam="2">  1       -2 0.18694459E-02 0.23521083E+03</pdfrwt>
<totfact> 0.22760090E+04</totfact>
</mgrwt>
</event>
<event>
 4    1  0.5121375E-004  0.2068114E+03  0.7818608E-02  0.1144116E+00
         -2   -1    0    0    0  501 -0.00000000000E+00  0.00000000000E+00  0.48567064744E+01  0.48567071438E+01  0.25500000000E-02 0. -1.
          2   -1    0    0  501    0  0.00000000000E+00 -0.00000000000E+00 -0.22016435142E+04  0.22016435142E+04  0.25500000000E-02 0.  1.
    5000001    1    1    2    0    0  0.15430983635E+01  0.33504427770E+02 -0.17419832435E+04  0.17440067512E+04  0.77000000000E+02 0.  0.
   -5000001    1    1    2    0    0 -0.15430983635E+01 -0.33504427770E+02 -0.45480356428E+03  0.46249347013E+03  0.77000000000E+02 0.  0.
<mgrwt>
<rscale>  0 0.20681138E+03</rscale>
<asrwt>0</asrwt>
<pdfrwt beam="1">  1        2 0.31451986E+00 0.20681138E+03</pdfrwt>
<pdfrwt beam="2">  1       -2 0.69381667E-03 0.20681138E+03</pdfrwt>
<totfact> 0.25214605E+04</totfact>
</mgrwt>
</event>
<event>
 4    1  0.5121375E-004  0.2013962E+03  0.7818608E-02  0.1148566E+00
          2   -1    0    0  501    0  0.00000000000E+00  0.00000000000E+00  0.82235898160E+03  0.82235898161E+03  0.25500000000E-02 0.  1.
         -2   -1    0    0    0  501 -0.00000000000E+00 -0.00000000000E+00 -0.12330516524E+02  0.12330516787E+02  0.25500000000E-02 0. -1.
    5000001    1    1    2    0    0  0.22592754909E+02 -0.58317322250E+02  0.47677161283E+03  0.48698204633E+03  0.77000000000E+02 0.  0.
   -5000001    1    1    2    0    0 -0.22592754909E+02  0.58317322250E+02  0.33325685225E+03  0.34770745206E+03  0.77000000000E+02 0.  0.
<mgrwt>
<rscale>  0 0.20139624E+03</rscale>
<asrwt>0</asrwt>
<pdfrwt beam="1">  1        2 0.11747986E+00 0.20139624E+03</pdfrwt>
<pdfrwt beam="2">  1       -2 0.17615023E-02 0.20139624E+03</pdfrwt>
<totfact> 0.34136361E+04</totfact>
</mgrwt>
</event>
<event>
 4    1  0.5121375E-004  0.1820226E+03  0.7818608E-02  0.1165860E+00
          2   -1    0    0  501    0  0.00000000000E+00  0.00000000000E+00  0.24042189020E+04  0.24042189020E+04  0.25500000000E-02 0.  1.
         -2   -1    0    0    0  501 -0.00000000000E+00 -0.00000000000E+00 -0.34452154348E+01  0.34452163785E+01  0.25500000000E-02 0. -1.
    5000001    1    1    2    0    0  0.14265426798E+02 -0.25837791231E+02  0.17097591180E+04  0.17117465746E+04  0.77000000000E+02 0.  0.
   -5000001    1    1    2    0    0 -0.14265426798E+02  0.25837791231E+02  0.69101456851E+03  0.69591754379E+03  0.77000000000E+02 0.  0.
<mgrwt>
<rscale>  0 0.18202256E+03</rscale>
<asrwt>0</asrwt>
<pdfrwt beam="1">  1        2 0.34346006E+00 0.18202256E+03</pdfrwt>
<pdfrwt beam="2">  1       -2 0.49217339E-03 0.18202256E+03</pdfrwt>
<totfact> 0.32664352E+04</totfact>
</mgrwt>
</event>
<event>
 4    1  0.5121375E-004  0.2210874E+03  0.7818608E-02  0.1133075E+00
         -2   -1    0    0    0  501 -0.00000000000E+00  0.00000000000E+00  0.21998705885E+03  0.21998705887E+03  0.25500000000E-02 0. -1.
          2   -1    0    0  501    0  0.00000000000E+00 -0.00000000000E+00 -0.55548333471E+02  0.55548333530E+02  0.25500000000E-02 0.  1.
    5000001    1    1    2    0    0 -0.61000291304E+02  0.32511148196E+02  0.33744227487E+02  0.10883787569E+03  0.77000000000E+02 0.  0.
   -5000001    1    1    2    0    0  0.61000291304E+02 -0.32511148196E+02  0.13069449789E+03  0.16669751671E+03  0.77000000000E+02 0.  0.
<mgrwt>
<rscale>  0 0.22108744E+03</rscale>
<asrwt>0</asrwt>
<pdfrwt beam="1">  1        2 0.79354761E-02 0.22108744E+03</pdfrwt>
<pdfrwt beam="2">  1       -2 0.31426723E-01 0.22108744E+03</pdfrwt>
<totfact> 0.78893997E+03</totfact>
</mgrwt>
</event>
<event>
 4    1  0.5121375E-004  0.4521785E+03  0.7818608E-02  0.1027074E+00
         -2   -1    0    0    0  501 -0.00000000000E+00  0.00000000000E+00  0.20454204187E+02  0.20454204346E+02  0.25500000000E-02 0. -1.
          2   -1    0    0  501    0  0.00000000000E+00 -0.00000000000E+00 -0.24990629235E+04  0.24990629235E+04  0.25500000000E-02 0.  1.
    5000001    1    1    2    0    0  0.16711511304E+03 -0.11672536256E+03 -0.15752460883E+04  0.15902457388E+04  0.77000000000E+02 0.  0.
   -5000001    1    1    2    0    0 -0.16711511304E+03  0.11672536256E+03 -0.90336263101E+03  0.92927138897E+03  0.77000000000E+02 0.  0.
<mgrwt>
<rscale>  0 0.45217848E+03</rscale>
<asrwt>0</asrwt>
<pdfrwt beam="1">  1        2 0.35700880E+00 0.45217848E+03</pdfrwt>
<pdfrwt beam="2">  1       -2 0.29220308E-02 0.45217848E+03</pdfrwt>
<totfact> 0.21830731E+03</totfact>
</mgrwt>
</event>
<event>
 4    1  0.5121375E-004  0.1702445E+03  0.7818608E-02  0.1177593E+00
          2   -1    0    0  501    0  0.00000000000E+00  0.00000000000E+00  0.43457543504E+04  0.43457543504E+04  0.25500000000E-02 0.  1.
         -2   -1    0    0    0  501 -0.00000000000E+00 -0.00000000000E+00 -0.16673273651E+01  0.16673293151E+01  0.25500000000E-02 0. -1.
    5000001    1    1    2    0    0 -0.35724797439E+02 -0.61413132326E+01  0.22149453988E+04  0.22165798195E+04  0.77000000000E+02 0.  0.
   -5000001    1    1    2    0    0  0.35724797439E+02  0.61413132326E+01  0.21291416243E+04  0.21308418602E+04  0.77000000000E+02 0.  0.
<mgrwt>
<rscale>  0 0.17024452E+03</rscale>
<asrwt>0</asrwt>
<pdfrwt beam="1">  1        2 0.62082007E+00 0.17024452E+03</pdfrwt>
<pdfrwt beam="2">  1       -2 0.23819052E-03 0.17024452E+03</pdfrwt>
<totfact> 0.71261048E+03</totfact>
</mgrwt>
</event>
<event>
 4    1  0.5121375E-004  0.2394163E+03  0.7818608E-02  0.1120182E+00
         -2   -1    0    0    0  501 -0.00000000000E+00  0.00000000000E+00  0.26144480176E+02  0.26144480301E+02  0.25500000000E-02 0. -1.
          2   -1    0    0  501    0  0.00000000000E+00 -0.00000000000E+00 -0.54810970580E+03  0.54810970580E+03  0.25500000000E-02 0.  1.
    5000001    1    1    2    0    0 -0.87691185043E+02 -0.15857969935E+02 -0.31241614469E+03  0.33387732270E+03  0.77000000000E+02 0.  0.
   -5000001    1    1    2    0    0  0.87691185043E+02  0.15857969935E+02 -0.20954908092E+03  0.24037686341E+03  0.77000000000E+02 0.  0.
<mgrwt>
<rscale>  0 0.23941632E+03</rscale>
<asrwt>0</asrwt>
<pdfrwt beam="1">  1        2 0.78301379E-01 0.23941632E+03</pdfrwt>
<pdfrwt beam="2">  1       -2 0.37349261E-02 0.23941632E+03</pdfrwt>
<totfact> 0.18311900E+04</totfact>
</mgrwt>
</event>
<event>
 4    1  0.5121375E-004  0.1750885E+03  0.7818608E-02  0.1172643E+00
         -2   -1    0    0    0  501 -0.00000000000E+00  0.00000000000E+00  0.11868605911E+02  0.11868606185E+02  0.25500000000E-02 0. -1.
          2   -1    0    0  501    0  0.00000000000E+00 -0.00000000000E+00 -0.64573655604E+03  0.64573655604E+03  0.25500000000E-02 0.  1.
    5000001    1    1    2    0    0  0.85447930398E+01  0.37039334146E+02 -0.25296684557E+03  0.26714443793E+03  0.77000000000E+02 0.  0.
   -5000001    1    1    2    0    0 -0.85447930398E+01 -0.37039334146E+02 -0.38090110456E+03  0.39046072430E+03  0.77000000000E+02 0.  0.
<mgrwt>
<rscale>  0 0.17508847E+03</rscale>
<asrwt>0</asrwt>
<pdfrwt beam="1">  1        2 0.92248057E-01 0.17508847E+03</pdfrwt>
<pdfrwt beam="2">  1       -2 0.16955156E-02 0.17508847E+03</pdfrwt>
<totfact> 0.47547402E+04</totfact>
</mgrwt>
</event>
<event>
 4    1  0.5121375E-004  0.3524931E+03  0.7818608E-02  0.1061596E+00
         -2   -1    0    0    0  501 -0.00000000000E+00  0.00000000000E+00  0.18246149560E+02  0.18246149738E+02  0.25500000000E-02 0. -1.
          2   -1    0    0  501    0  0.00000000000E+00 -0.00000000000E+00 -0.17024328151E+04  0.17024328151E+04  0.25500000000E-02 0.  1.
    5000001    1    1    2    0    0  0.15204384687E+03 -0.38883638745E+01 -0.62371202950E+03  0.64658962757E+03  0.77000000000E+02 0.  0.
   -5000001    1    1    2    0    0 -0.15204384687E+03  0.38883638745E+01 -0.10604746360E+04  0.10740893373E+04  0.77000000000E+02 0.  0.
<mgrwt>
<rscale>  0 0.35249309E+03</rscale>
<asrwt>0</asrwt>
<pdfrwt beam="1">  1        2 0.24320459E+00 0.35249309E+03</pdfrwt>
<pdfrwt beam="2">  1       -2 0.26065939E-02 0.35249309E+03</pdfrwt>
<totfact> 0.64728203E+03</totfact>
</mgrwt>
</event>
<event>
 4    1  0.5121375E-004  0.1822459E+03  0.7818608E-02  0.1165647E+00
         -2   -1    0    0    0  501 -0.00000000000E+00  0.00000000000E+00  0.25889710740E+01  0.25889723298E+01  0.25500000000E-02 0. -1.
          2   -1    0    0  501    0  0.00000000000E+00 -0.00000000000E+00 -0.32072172643E+04  0.32072172643E+04  0.25500000000E-02 0.  1.
    5000001    1    1    2    0    0 -0.42284943916E+02  0.37898339669E+01 -0.11810787614E+04  0.11843472548E+04  0.77000000000E+02 0.  0.
   -5000001    1    1    2    0    0  0.42284943916E+02 -0.37898339669E+01 -0.20235495319E+04  0.20254589819E+04  0.77000000000E+02 0.  0.
<mgrwt>
<rscale>  0 0.18224593E+03</rscale>
<asrwt>0</asrwt>
<pdfrwt beam="1">  1        2 0.45817135E+00 0.18224593E+03</pdfrwt>
<pdfrwt beam="2">  1       -2 0.36985516E-03 0.18224593E+03</pdfrwt>
<totfact> 0.19089184E+04</totfact>
</mgrwt>
</event>
<event>
 4    1  0.5121375E-004  0.4064025E+03  0.7818608E-02  0.1041585E+00
         -2   -1    0    0    0  501 -0.00000000000E+00  0.00000000000E+00  0.49604911939E+02  0.49604912004E+02  0.25500000000E-02 0. -1.
          2   -1    0    0  501    0  0.00000000000E+00 -0.00000000000E+00 -0.83239216627E+03  0.83239216627E+03  0.25500000000E-02 0.  1.
    5000001    1    1    2    0    0 -0.18740916179E+02 -0.18563018604E+03 -0.44238087415E+03  0.48625057914E+03  0.77000000000E+02 0.  0.
   -5000001    1    1    2    0    0  0.18740916179E+02  0.18563018604E+03 -0.34040638018E+03  0.39574649913E+03  0.77000000000E+02 0.  0.
<mgrwt>
<rscale>  0 0.40640246E+03</rscale>
<asrwt>0</asrwt>
<pdfrwt beam="1">  1        2 0.11891316E+00 0.40640246E+03</pdfrwt>
<pdfrwt beam="2">  1       -2 0.70864165E-02 0.40640246E+03</pdfrwt>
<totfact> 0.42662607E+03</totfact>
</mgrwt>
</event>
<event>
 4    1  0.5121375E-004  0.3331216E+03  0.7818608E-02  0.1069764E+00
         -2   -1    0    0    0  501 -0.00000000000E+00  0.00000000000E+00  0.69996213942E+02  0.69996213988E+02  0.25500000000E-02 0. -1.
          2   -1    0    0  501    0  0.00000000000E+00 -0.00000000000E+00 -0.39634288000E+03  0.39634288001E+03  0.25500000000E-02 0.  1.
    5000001    1    1    2    0    0 -0.23137310052E+02  0.14555391131E+03 -0.17661716064E+03  0.24257761159E+03  0.77000000000E+02 0.  0.
   -5000001    1    1    2    0    0  0.23137310052E+02 -0.14555391131E+03 -0.14972950542E+03  0.22376148240E+03  0.77000000000E+02 0.  0.
<mgrwt>
<rscale>  0 0.33312161E+03</rscale>
<asrwt>0</asrwt>
<pdfrwt beam="1">  1        2 0.56620410E-01 0.33312161E+03</pdfrwt>
<pdfrwt beam="2">  1       -2 0.99994594E-02 0.33312161E+03</pdfrwt>
<totfact> 0.58174695E+03</totfact>
</mgrwt>
</event>
<event>
 4    1  0.5121375E-004  0.2191418E+03  0.7818608E-02  0.1134524E+00
         -2   -1    0    0    0  501 -0.00000000000E+00  0.00000000000E+00  0.18643412502E+02  0.18643412676E+02  0.25500000000E-02 0. -1.
          2   -1    0    0  501    0  0.00000000000E+00 -0.00000000000E+00 -0.64396912290E+03  0.64396912290E+03  0.25500000000E-02 0.  1.
    5000001    1    1    2    0    0  0.74332778012E+02 -0.11649865349E+02 -0.37431168794E+03  0.38948597020E+03  0.77000000000E+02 0.  0.
   -5000001    1    1    2    0    0 -0.74332778012E+02  0.11649865349E+02 -0.25101402245E+03  0.27312656538E+03  0.77000000000E+02 0.  0.
<mgrwt>
<rscale>  0 0.21914180E+03</rscale>
<asrwt>0</asrwt>
<pdfrwt beam="1">  1        2 0.91995575E-01 0.21914180E+03</pdfrwt>
<pdfrwt beam="2">  1       -2 0.26633451E-02 0.21914180E+03</pdfrwt>
<totfact> 0.25068941E+04</totfact>
</mgrwt>
</event>
<event>
 4    1  0.5121375E-004  0.2399744E+03  0.7818608E-02  0.1119810E+00
          2   -1    0    0  501    0  0.00000000000E+00  0.00000000000E+00  0.32022090967E+03  0.32022090968E+03  0.25500000000E-02 0.  1.
         -2   -1    0    0    0  501 -0.00000000000E+00 -0.00000000000E+00 -0.44959350009E+02  0.44959350081E+02  0.25500000000E-02 0. -1.
    5000001    1    1    2    0    0 -0.59235116405E+02 -0.69966563045E+02  0.12547536336E+03  0.17342775375E+03  0.77000000000E+02 0.  0.
   -5000001    1    1    2    0    0  0.59235116405E+02  0.69966563045E+02  0.14978619630E+03  0.19175250601E+03  0.77000000000E+02 0.  0.
<mgrwt>
<rscale>  0 0.23997437E+03</rscale>
<asrwt>0</asrwt>
<pdfrwt beam="1">  1        2 0.45745844E-01 0.23997437E+03</pdfrwt>
<pdfrwt beam="2">  1       -2 0.64227643E-02 0.23997437E+03</pdfrwt>
<totfact> 0.14442748E+04</totfact>
</mgrwt>
</event>
<event>
 4    1  0.5121375E-004  0.2457774E+03  0.7818608E-02  0.1116003E+00
          2   -1    0    0  501    0  0.00000000000E+00  0.00000000000E+00  0.17631956211E+04  0.17631956211E+04  0.25500000000E-02 0.  1.
         -2   -1    0    0    0  501 -0.00000000000E+00 -0.00000000000E+00 -0.85649229385E+01  0.85649233181E+01  0.25500000000E-02 0. -1.
    5000001    1    1    2    0    0 -0.24278768803E+02  0.83053252187E+02  0.58137376661E+03  0.59279993068E+03  0.77000000000E+02 0.  0.
   -5000001    1    1    2    0    0  0.24278768803E+02 -0.83053252187E+02  0.11732569315E+04  0.11789606137E+04  0.77000000000E+02 0.  0.
<mgrwt>
<rscale>  0 0.24577742E+03</rscale>
<asrwt>0</asrwt>
<pdfrwt beam="1">  1        2 0.25188497E+00 0.24577742E+03</pdfrwt>
<pdfrwt beam="2">  1       -2 0.12235610E-02 0.24577742E+03</pdfrwt>
<totfact> 0.18249509E+04</totfact>
</mgrwt>
</event>
<event>
 4    1  0.5121375E-004  0.1718283E+03  0.7818608E-02  0.1175955E+00
         -2   -1    0    0    0  501 -0.00000000000E+00  0.00000000000E+00  0.17923540644E+01  0.17923558783E+01  0.25500000000E-02 0. -1.
          2   -1    0    0  501    0  0.00000000000E+00 -0.00000000000E+00 -0.41181799253E+04  0.41181799253E+04  0.25500000000E-02 0.  1.
    5000001    1    1    2    0    0  0.57348143790E+01 -0.37045126560E+02 -0.22225924549E+04  0.22242417697E+04  0.77000000000E+02 0.  0.
   -5000001    1    1    2    0    0 -0.57348143790E+01  0.37045126560E+02 -0.18937951163E+04  0.18957305114E+04  0.77000000000E+02 0.  0.
<mgrwt>
<rscale>  0 0.17182829E+03</rscale>
<asrwt>0</asrwt>
<pdfrwt beam="1">  1        2 0.58830535E+00 0.17182829E+03</pdfrwt>
<pdfrwt beam="2">  1       -2 0.25605335E-03 0.17182829E+03</pdfrwt>
<totfact> 0.92179636E+03</totfact>
</mgrwt>
</event>
<event>
 4    1  0.5121375E-004  0.2845979E+03  0.7818608E-02  0.1093204E+00
          2   -1    0    0  501    0  0.00000000000E+00  0.00000000000E+00  0.51976479010E+02  0.51976479073E+02  0.25500000000E-02 0.  1.
         -2   -1    0    0    0  501 -0.00000000000E+00 -0.00000000000E+00 -0.38957976221E+03  0.38957976222E+03  0.25500000000E-02 0. -1.
    5000001    1    1    2    0    0 -0.64955464761E+01  0.11695932022E+03 -0.20675213346E+03  0.24979415406E+03  0.77000000000E+02 0.  0.
   -5000001    1    1    2    0    0  0.64955464761E+01 -0.11695932022E+03 -0.13085114974E+03  0.19176208723E+03  0.77000000000E+02 0.  0.
<mgrwt>
<rscale>  0 0.28459785E+03</rscale>
<asrwt>0</asrwt>
<pdfrwt beam="1">  1        2 0.74252115E-02 0.28459785E+03</pdfrwt>
<pdfrwt beam="2">  1       -2 0.55654250E-01 0.28459785E+03</pdfrwt>
<totfact> 0.28868092E+03</totfact>
</mgrwt>
</event>
<event>
 4    1  0.5121375E-004  0.5601622E+03  0.7818608E-02  0.9991688E-01
          2   -1    0    0  501    0  0.00000000000E+00  0.00000000000E+00  0.11265240117E+04  0.11265240117E+04  0.25500000000E-02 0.  1.
         -2   -1    0    0    0  501 -0.00000000000E+00 -0.00000000000E+00 -0.69634940739E+02  0.69634940786E+02  0.25500000000E-02 0. -1.
    5000001    1    1    2    0    0  0.83443342649E+02 -0.14391342612E+03  0.98063385603E+03  0.99761998037E+03  0.77000000000E+02 0.  0.
   -5000001    1    1    2    0    0 -0.83443342649E+02  0.14391342612E+03  0.76255214954E+02  0.19853897214E+03  0.77000000000E+02 0.  0.
<mgrwt>
<rscale>  0 0.56016224E+03</rscale>
<asrwt>0</asrwt>
<pdfrwt beam="1">  1        2 0.16093198E+00 0.56016224E+03</pdfrwt>
<pdfrwt beam="2">  1       -2 0.99478498E-02 0.56016224E+03</pdfrwt>
<totfact> 0.16418827E+03</totfact>
</mgrwt>
</event>
<event>
 4    1  0.5121375E-004  0.1832485E+03  0.7818608E-02  0.1164696E+00
          2   -1    0    0  501    0  0.00000000000E+00  0.00000000000E+00  0.75690461967E+03  0.75690461967E+03  0.25500000000E-02 0.  1.
         -2   -1    0    0    0  501 -0.00000000000E+00 -0.00000000000E+00 -0.11091227626E+02  0.11091227919E+02  0.25500000000E-02 0. -1.
    5000001    1    1    2    0    0  0.47495764319E+02 -0.85850961303E+01  0.42186262739E+03  0.43153983349E+03  0.77000000000E+02 0.  0.
   -5000001    1    1    2    0    0 -0.47495764319E+02  0.85850961303E+01  0.32395076465E+03  0.33645601410E+03  0.77000000000E+02 0.  0.
<mgrwt>
<rscale>  0 0.18324848E+03</rscale>
<asrwt>0</asrwt>
<pdfrwt beam="1">  1        2 0.10812925E+00 0.18324848E+03</pdfrwt>
<pdfrwt beam="2">  1       -2 0.15844608E-02 0.18324848E+03</pdfrwt>
<totfact> 0.43727517E+04</totfact>
</mgrwt>
</event>
<event>
 4    1  0.5121375E-004  0.2448240E+03  0.7818608E-02  0.1116620E+00
         -2   -1    0    0    0  501 -0.00000000000E+00  0.00000000000E+00  0.65015170160E+02  0.65015170210E+02  0.25500000000E-02 0. -1.
          2   -1    0    0  501    0  0.00000000000E+00 -0.00000000000E+00 -0.23048006821E+03  0.23048006822E+03  0.25500000000E-02 0.  1.
    5000001    1    1    2    0    0 -0.49461717561E+02 -0.26865491136E+02 -0.17534318809E+03  0.19960573571E+03  0.77000000000E+02 0.  0.
   -5000001    1    1    2    0    0  0.49461717561E+02  0.26865491136E+02  0.98782900447E+01  0.95889502722E+02  0.77000000000E+02 0.  0.
<mgrwt>
<rscale>  0 0.24482403E+03</rscale>
<asrwt>0</asrwt>
<pdfrwt beam="1">  1        2 0.32925724E-01 0.24482403E+03</pdfrwt>
<pdfrwt beam="2">  1       -2 0.92878816E-02 0.24482403E+03</pdfrwt>
<totfact> 0.11610284E+04</totfact>
</mgrwt>
</event>
<event>
 4    1  0.5121375E-004  0.2189886E+03  0.7818608E-02  0.1134639E+00
         -2   -1    0    0    0  501 -0.00000000000E+00  0.00000000000E+00  0.41896731364E+02  0.41896731442E+02  0.25500000000E-02 0. -1.
          2   -1    0    0  501    0  0.00000000000E+00 -0.00000000000E+00 -0.28615603740E+03  0.28615603741E+03  0.25500000000E-02 0.  1.
    5000001    1    1    2    0    0  0.13929075103E+02 -0.74210562584E+02 -0.15050451913E+03  0.18515354982E+03  0.77000000000E+02 0.  0.
   -5000001    1    1    2    0    0 -0.13929075103E+02  0.74210562584E+02 -0.93754786903E+02  0.14289921903E+03  0.77000000000E+02 0.  0.
<mgrwt>
<rscale>  0 0.21898861E+03</rscale>
<asrwt>0</asrwt>
<pdfrwt beam="1">  1        2 0.40879433E-01 0.21898861E+03</pdfrwt>
<pdfrwt beam="2">  1       -2 0.59852475E-02 0.21898861E+03</pdfrwt>
<totfact> 0.18050681E+04</totfact>
</mgrwt>
</event>
<event>
 4    1  0.5121375E-004  0.2722192E+03  0.7818608E-02  0.1100016E+00
          2   -1    0    0  501    0  0.00000000000E+00  0.00000000000E+00  0.16045787470E+04  0.16045787470E+04  0.25500000000E-02 0.  1.
         -2   -1    0    0    0  501 -0.00000000000E+00 -0.00000000000E+00 -0.11545601461E+02  0.11545601743E+02  0.25500000000E-02 0. -1.
    5000001    1    1    2    0    0  0.10427199963E+03  0.35784091221E+02  0.67146508089E+03  0.68479741964E+03  0.77000000000E+02 0.  0.
   -5000001    1    1    2    0    0 -0.10427199963E+03 -0.35784091221E+02  0.92156806462E+03  0.93132692907E+03  0.77000000000E+02 0.  0.
<mgrwt>
<rscale>  0 0.27221923E+03</rscale>
<asrwt>0</asrwt>
<pdfrwt beam="1">  1        2 0.22922566E+00 0.27221923E+03</pdfrwt>
<pdfrwt beam="2">  1       -2 0.16493707E-02 0.27221923E+03</pdfrwt>
<totfact> 0.14178387E+04</totfact>
</mgrwt>
</event>
<event>
 4    1  0.5121375E-004  0.1812927E+03  0.7818608E-02  0.1166558E+00
         -2   -1    0    0    0  501 -0.00000000000E+00  0.00000000000E+00  0.17170342153E+02  0.17170342343E+02  0.25500000000E-02 0. -1.
          2   -1    0    0  501    0  0.00000000000E+00 -0.00000000000E+00 -0.47854392020E+03  0.47854392021E+03  0.25500000000E-02 0.  1.
    5000001    1    1    2    0    0  0.40523089314E+02  0.32082430007E+01 -0.29960870156E+03  0.31200446734E+03  0.77000000000E+02 0.  0.
   -5000001    1    1    2    0    0 -0.40523089314E+02 -0.32082430007E+01 -0.16176487649E+03  0.18370979521E+03  0.77000000000E+02 0.  0.
<mgrwt>
<rscale>  0 0.18129272E+03</rscale>
<asrwt>0</asrwt>
<pdfrwt beam="1">  1        2 0.68363409E-01 0.18129272E+03</pdfrwt>
<pdfrwt beam="2">  1       -2 0.24529063E-02 0.18129272E+03</pdfrwt>
<totfact> 0.38846657E+04</totfact>
</mgrwt>
</event>
<event>
 4    1  0.5121375E-004  0.1841338E+03  0.7818608E-02  0.1163861E+00
         -2   -1    0    0    0  501 -0.00000000000E+00  0.00000000000E+00  0.42537141052E+02  0.42537141128E+02  0.25500000000E-02 0. -1.
          2   -1    0    0  501    0  0.00000000000E+00 -0.00000000000E+00 -0.19926859795E+03  0.19926859797E+03  0.25500000000E-02 0.  1.
    5000001    1    1    2    0    0  0.28020298741E+02  0.23002523338E+02 -0.12447897550E+03  0.15079213694E+03  0.77000000000E+02 0.  0.
   -5000001    1    1    2    0    0 -0.28020298741E+02 -0.23002523338E+02 -0.32252481406E+02  0.91013602161E+02  0.77000000000E+02 0.  0.
<mgrwt>
<rscale>  0 0.18413383E+03</rscale>
<asrwt>0</asrwt>
<pdfrwt beam="1">  1        2 0.28466942E-01 0.18413383E+03</pdfrwt>
<pdfrwt beam="2">  1       -2 0.60767345E-02 0.18413383E+03</pdfrwt>
<totfact> 0.25748146E+04</totfact>
</mgrwt>
</event>
<event>
 4    1  0.5121375E-004  0.1974057E+03  0.7818608E-02  0.1151946E+00
         -2   -1    0    0    0  501 -0.00000000000E+00  0.00000000000E+00  0.21490978427E+03  0.21490978428E+03  0.25500000000E-02 0. -1.
          2   -1    0    0  501    0  0.00000000000E+00 -0.00000000000E+00 -0.45331803434E+02  0.45331803506E+02  0.25500000000E-02 0.  1.
    5000001    1    1    2    0    0  0.11229843687E+02  0.52241732144E+02  0.43986535122E+02  0.10353319873E+03  0.77000000000E+02 0.  0.
   -5000001    1    1    2    0    0 -0.11229843687E+02 -0.52241732144E+02  0.12559144571E+03  0.15670838906E+03  0.77000000000E+02 0.  0.
<mgrwt>
<rscale>  0 0.19740565E+03</rscale>
<asrwt>0</asrwt>
<pdfrwt beam="1">  1        2 0.64759719E-02 0.19740565E+03</pdfrwt>
<pdfrwt beam="2">  1       -2 0.30701398E-01 0.19740565E+03</pdfrwt>
<totfact> 0.10596681E+04</totfact>
</mgrwt>
</event>
<event>
 4    1  0.5121375E-004  0.3672531E+03  0.7818608E-02  0.1055748E+00
          2   -1    0    0  501    0  0.00000000000E+00  0.00000000000E+00  0.26886208865E+02  0.26886208986E+02  0.25500000000E-02 0.  1.
         -2   -1    0    0    0  501 -0.00000000000E+00 -0.00000000000E+00 -0.12541262687E+04  0.12541262687E+04  0.25500000000E-02 0. -1.
    5000001    1    1    2    0    0 -0.12768404837E+02 -0.16579526593E+03 -0.57255546404E+03  0.60116541964E+03  0.77000000000E+02 0.  0.
   -5000001    1    1    2    0    0  0.12768404837E+02  0.16579526593E+03 -0.65468459580E+03  0.67984705805E+03  0.77000000000E+02 0.  0.
<mgrwt>
<rscale>  0 0.36725305E+03</rscale>
<asrwt>0</asrwt>
<pdfrwt beam="1">  1        2 0.38408878E-02 0.36725305E+03</pdfrwt>
<pdfrwt beam="2">  1       -2 0.17916086E+00 0.36725305E+03</pdfrwt>
<totfact> 0.44308496E+02</totfact>
</mgrwt>
</event>
<event>
 4    1  0.5121375E-004  0.3723020E+03  0.7818608E-02  0.1053816E+00
          2   -1    0    0  501    0  0.00000000000E+00  0.00000000000E+00  0.26331851608E+03  0.26331851609E+03  0.25500000000E-02 0.  1.
         -2   -1    0    0    0  501 -0.00000000000E+00 -0.00000000000E+00 -0.13159802984E+03  0.13159802986E+03  0.25500000000E-02 0. -1.
    5000001    1    1    2    0    0 -0.12566812682E+03  0.10254398753E+03  0.13727688279E+02  0.18006997780E+03  0.77000000000E+02 0.  0.
   -5000001    1    1    2    0    0  0.12566812682E+03 -0.10254398753E+03  0.11799279796E+03  0.21484656816E+03  0.77000000000E+02 0.  0.
<mgrwt>
<rscale>  0 0.37230202E+03</rscale>
<asrwt>0</asrwt>
<pdfrwt beam="1">  1        2 0.37616930E-01 0.37230202E+03</pdfrwt>
<pdfrwt beam="2">  1       -2 0.18799719E-01 0.37230202E+03</pdfrwt>
<totfact> 0.32131574E+03</totfact>
</mgrwt>
</event>
<event>
 4    1  0.5121375E-004  0.3520337E+03  0.7818608E-02  0.1061783E+00
          2   -1    0    0  501    0  0.00000000000E+00  0.00000000000E+00  0.67556298607E+03  0.67556298607E+03  0.25500000000E-02 0. -1.
         -2   -1    0    0    0  501 -0.00000000000E+00 -0.00000000000E+00 -0.45860903691E+02  0.45860903762E+02  0.25500000000E-02 0.  1.
    5000001    1    1    2    0    0 -0.43888094793E+02 -0.11593481319E+03  0.11316496703E+03  0.18466823099E+03  0.77000000000E+02 0.  0.
   -5000001    1    1    2    0    0  0.43888094793E+02  0.11593481319E+03  0.51653711535E+03  0.53675565885E+03  0.77000000000E+02 0.  0.
<mgrwt>
<rscale>  0 0.35203369E+03</rscale>
<asrwt>0</asrwt>
<pdfrwt beam="1">  1        2 0.96508989E-01 0.35203369E+03</pdfrwt>
<pdfrwt beam="2">  1       -2 0.65515583E-02 0.35203369E+03</pdfrwt>
<totfact> 0.62148520E+03</totfact>
</mgrwt>
</event>
<event>
 4    1  0.5121375E-004  0.2540969E+03  0.7818608E-02  0.1110743E+00
          2   -1    0    0  501    0  0.00000000000E+00  0.00000000000E+00  0.50901404011E+03  0.50901404012E+03  0.25500000000E-02 0.  1.
         -2   -1    0    0    0  501 -0.00000000000E+00 -0.00000000000E+00 -0.31710919485E+02  0.31710919587E+02  0.25500000000E-02 0. -1.
    5000001    1    1    2    0    0 -0.75036897911E+02 -0.61081606536E+02  0.17658009057E+03  0.21557139674E+03  0.77000000000E+02 0.  0.
   -5000001    1    1    2    0    0  0.75036897911E+02  0.61081606536E+02  0.30072303005E+03  0.32515356297E+03  0.77000000000E+02 0.  0.
<mgrwt>
<rscale>  0 0.25409686E+03</rscale>
<asrwt>0</asrwt>
<pdfrwt beam="1">  1        2 0.72716294E-01 0.25409686E+03</pdfrwt>
<pdfrwt beam="2">  1       -2 0.45301312E-02 0.25409686E+03</pdfrwt>
<totfact> 0.14923239E+04</totfact>
</mgrwt>
</event>
<event>
 4    1  0.5121375E-004  0.1823235E+03  0.7818608E-02  0.1165573E+00
         -2   -1    0    0    0  501 -0.00000000000E+00  0.00000000000E+00  0.46566923899E+01  0.46566930881E+01  0.25500000000E-02 0. -1.
          2   -1    0    0  501    0  0.00000000000E+00 -0.00000000000E+00 -0.17846274060E+04  0.17846274060E+04  0.25500000000E-02 0.  1.
    5000001    1    1    2    0    0  0.43600180624E+02 -0.63291794950E+01 -0.68402965783E+03  0.68975836860E+03  0.77000000000E+02 0.  0.
   -5000001    1    1    2    0    0 -0.43600180624E+02  0.63291794950E+01 -0.10959410558E+04  0.10995257305E+04  0.77000000000E+02 0.  0.
<mgrwt>
<rscale>  0 0.18232347E+03</rscale>
<asrwt>0</asrwt>
<pdfrwt beam="1">  1        2 0.25494634E+00 0.18232347E+03</pdfrwt>
<pdfrwt beam="2">  1       -2 0.66524296E-03 0.18232347E+03</pdfrwt>
<totfact> 0.42257188E+04</totfact>
</mgrwt>
</event>
<event>
 4    1  0.5121375E-004  0.3108716E+03  0.7818608E-02  0.1079929E+00
         -2   -1    0    0    0  501 -0.00000000000E+00  0.00000000000E+00  0.46269661809E+02  0.46269661879E+02  0.25500000000E-02 0. -1.
          2   -1    0    0  501    0  0.00000000000E+00 -0.00000000000E+00 -0.52216275946E+03  0.52216275946E+03  0.25500000000E-02 0.  1.
    5000001    1    1    2    0    0 -0.10220887189E+03  0.77408913545E+02 -0.31536196067E+03  0.34902859428E+03  0.77000000000E+02 0.  0.
   -5000001    1    1    2    0    0  0.10220887189E+03 -0.77408913545E+02 -0.16053113698E+03  0.21940382706E+03  0.77000000000E+02 0.  0.
<mgrwt>
<rscale>  0 0.31087164E+03</rscale>
<asrwt>0</asrwt>
<pdfrwt beam="1">  1        2 0.74594676E-01 0.31087164E+03</pdfrwt>
<pdfrwt beam="2">  1       -2 0.66099520E-02 0.31087164E+03</pdfrwt>
<totfact> 0.82121809E+03</totfact>
</mgrwt>
</event>
<event>
 4    1  0.5121375E-004  0.2300433E+03  0.7818608E-02  0.1126609E+00
          2   -1    0    0  501    0  0.00000000000E+00  0.00000000000E+00  0.29292894573E+02  0.29292894684E+02  0.25500000000E-02 0.  1.
         -2   -1    0    0    0  501 -0.00000000000E+00 -0.00000000000E+00 -0.45164458900E+03  0.45164458901E+03  0.25500000000E-02 0. -1.
    5000001    1    1    2    0    0 -0.55728324853E+02 -0.61372076249E+02 -0.16788399397E+03  0.20245052078E+03  0.77000000000E+02 0.  0.
   -5000001    1    1    2    0    0  0.55728324853E+02  0.61372076249E+02 -0.25446770046E+03  0.27848696291E+03  0.77000000000E+02 0.  0.
<mgrwt>
<rscale>  0 0.23004328E+03</rscale>
<asrwt>0</asrwt>
<pdfrwt beam="1">  1        2 0.41846995E-02 0.23004328E+03</pdfrwt>
<pdfrwt beam="2">  1       -2 0.64520651E-01 0.23004328E+03</pdfrwt>
<totfact> 0.44656677E+03</totfact>
</mgrwt>
</event>
<event>
 4    1  0.5121375E-004  0.2972190E+03  0.7818608E-02  0.1086639E+00
         -2   -1    0    0    0  501 -0.00000000000E+00  0.00000000000E+00  0.67013469482E+01  0.67013474334E+01  0.25500000000E-02 0. -1.
          2   -1    0    0  501    0  0.00000000000E+00 -0.00000000000E+00 -0.32955746634E+04  0.32955746634E+04  0.25500000000E-02 0.  1.
    5000001    1    1    2    0    0  0.28105523165E+02 -0.12373819849E+03 -0.15622425276E+04  0.15692774698E+04  0.77000000000E+02 0.  0.
   -5000001    1    1    2    0    0 -0.28105523165E+02  0.12373819849E+03 -0.17266307888E+04  0.17329985410E+04  0.77000000000E+02 0.  0.
<mgrwt>
<rscale>  0 0.29721904E+03</rscale>
<asrwt>0</asrwt>
<pdfrwt beam="1">  1        2 0.47079534E+00 0.29721904E+03</pdfrwt>
<pdfrwt beam="2">  1       -2 0.95733742E-03 0.29721904E+03</pdfrwt>
<totfact> 0.43512683E+03</totfact>
</mgrwt>
</event>
<event>
 4    1  0.5121375E-004  0.1965317E+03  0.7818608E-02  0.1152699E+00
          2   -1    0    0  501    0  0.00000000000E+00  0.00000000000E+00  0.12062123669E+02  0.12062123938E+02  0.25500000000E-02 0.  1.
         -2   -1    0    0    0  501 -0.00000000000E+00 -0.00000000000E+00 -0.80053671482E+03  0.80053671482E+03  0.25500000000E-02 0. -1.
    5000001    1    1    2    0    0 -0.60147312021E+02  0.83602794064E+01 -0.42024961732E+03  0.43153949329E+03  0.77000000000E+02 0.  0.
   -5000001    1    1    2    0    0  0.60147312021E+02 -0.83602794064E+01 -0.36822497383E+03  0.38105934547E+03  0.77000000000E+02 0.  0.
<mgrwt>
<rscale>  0 0.19653166E+03</rscale>
<asrwt>0</asrwt>
<pdfrwt beam="1">  1        2 0.17231611E-02 0.19653166E+03</pdfrwt>
<pdfrwt beam="2">  1       -2 0.11436235E+00 0.19653166E+03</pdfrwt>
<totfact> 0.41075435E+03</totfact>
</mgrwt>
</event>
<event>
 4    1  0.5121375E-004  0.3158989E+03  0.7818608E-02  0.1077552E+00
          2   -1    0    0  501    0  0.00000000000E+00  0.00000000000E+00  0.88007970639E+03  0.88007970639E+03  0.25500000000E-02 0.  1.
         -2   -1    0    0    0  501 -0.00000000000E+00 -0.00000000000E+00 -0.28347456582E+02  0.28347456696E+02  0.25500000000E-02 0. -1.
    5000001    1    1    2    0    0 -0.12818535952E+02  0.13325367352E+03  0.52116238384E+03  0.54356240368E+03  0.77000000000E+02 0.  0.
   -5000001    1    1    2    0    0  0.12818535952E+02 -0.13325367352E+03  0.33056986597E+03  0.36486475941E+03  0.77000000000E+02 0.  0.
<mgrwt>
<rscale>  0 0.31589885E+03</rscale>
<asrwt>0</asrwt>
<pdfrwt beam="1">  1        2 0.12572568E+00 0.31589885E+03</pdfrwt>
<pdfrwt beam="2">  1       -2 0.40496366E-02 0.31589885E+03</pdfrwt>
<totfact> 0.93344325E+03</totfact>
</mgrwt>
</event>
<event>
 4    1  0.5121375E-004  0.1938832E+03  0.7818608E-02  0.1155005E+00
          2   -1    0    0  501    0  0.00000000000E+00  0.00000000000E+00  0.22062682152E+04  0.22062682152E+04  0.25500000000E-02 0.  1.
         -2   -1    0    0    0  501 -0.00000000000E+00 -0.00000000000E+00 -0.42595335885E+01  0.42595343518E+01  0.25500000000E-02 0. -1.
    5000001    1    1    2    0    0 -0.10474577635E+02  0.57517363522E+02  0.11821947730E+04  0.11861414102E+04  0.77000000000E+02 0.  0.
   -5000001    1    1    2    0    0  0.10474577635E+02 -0.57517363522E+02  0.10198139086E+04  0.10243863393E+04  0.77000000000E+02 0.  0.
<mgrwt>
<rscale>  0 0.19388321E+03</rscale>
<asrwt>0</asrwt>
<pdfrwt beam="1">  1        2 0.31518080E+00 0.19388321E+03</pdfrwt>
<pdfrwt beam="2">  1       -2 0.60850558E-03 0.19388321E+03</pdfrwt>
<totfact> 0.30187376E+04</totfact>
</mgrwt>
</event>
<event>
 4    1  0.5121375E-004  0.2089905E+03  0.7818608E-02  0.1142368E+00
         -2   -1    0    0    0  501 -0.00000000000E+00  0.00000000000E+00  0.82208463773E+02  0.82208463812E+02  0.25500000000E-02 0. -1.
          2   -1    0    0  501    0  0.00000000000E+00 -0.00000000000E+00 -0.13282394638E+03  0.13282394641E+03  0.25500000000E-02 0.  1.
    5000001    1    1    2    0    0  0.68307455258E+02 -0.14349784354E+01 -0.43779043202E+02  0.11186407927E+03  0.77000000000E+02 0.  0.
   -5000001    1    1    2    0    0 -0.68307455258E+02  0.14349784354E+01 -0.68364394056E+01  0.10316833095E+03  0.77000000000E+02 0.  0.
<mgrwt>
<rscale>  0 0.20899046E+03</rscale>
<asrwt>0</asrwt>
<pdfrwt beam="1">  1        2 0.18974849E-01 0.20899046E+03</pdfrwt>
<pdfrwt beam="2">  1       -2 0.11744066E-01 0.20899046E+03</pdfrwt>
<totfact> 0.14633494E+04</totfact>
</mgrwt>
</event>
<event>
 4    1  0.5121375E-004  0.3924885E+03  0.7818608E-02  0.1046412E+00
         -2   -1    0    0    0  501 -0.00000000000E+00  0.00000000000E+00  0.12061407951E+03  0.12061407954E+03  0.25500000000E-02 0. -1.
          2   -1    0    0  501    0  0.00000000000E+00 -0.00000000000E+00 -0.31929772500E+03  0.31929772501E+03  0.25500000000E-02 0.  1.
    5000001    1    1    2    0    0 -0.35101479387E+02 -0.16784571971E+03 -0.16253205185E+03  0.24849540712E+03  0.77000000000E+02 0.  0.
   -5000001    1    1    2    0    0  0.35101479387E+02  0.16784571971E+03 -0.36151593643E+02  0.19141639743E+03  0.77000000000E+02 0.  0.
<mgrwt>
<rscale>  0 0.39248848E+03</rscale>
<asrwt>0</asrwt>
<pdfrwt beam="1">  1        2 0.45613960E-01 0.39248848E+03</pdfrwt>
<pdfrwt beam="2">  1       -2 0.17230583E-01 0.39248848E+03</pdfrwt>
<totfact> 0.30236480E+03</totfact>
</mgrwt>
</event>
<event>
 4    1  0.5121375E-004  0.4275396E+03  0.7818608E-02  0.1034640E+00
         -2   -1    0    0    0  501 -0.00000000000E+00  0.00000000000E+00  0.40366966724E+02  0.40366966805E+02  0.25500000000E-02 0. -1.
          2   -1    0    0  501    0  0.00000000000E+00 -0.00000000000E+00 -0.11320524926E+04  0.11320524926E+04  0.25500000000E-02 0.  1.
    5000001    1    1    2    0    0 -0.82485890032E+02  0.14786355046E+03 -0.25691636790E+03  0.31717908459E+03  0.77000000000E+02 0.  0.
   -5000001    1    1    2    0    0  0.82485890032E+02 -0.14786355046E+03 -0.83476915802E+03  0.85524037486E+03  0.77000000000E+02 0.  0.
<mgrwt>
<rscale>  0 0.42753959E+03</rscale>
<asrwt>0</asrwt>
<pdfrwt beam="1">  1        2 0.16172176E+00 0.42753959E+03</pdfrwt>
<pdfrwt beam="2">  1       -2 0.57667102E-02 0.42753959E+03</pdfrwt>
<totfact> 0.38631422E+03</totfact>
</mgrwt>
</event>
<event>
 4    1  0.5121375E-004  0.1984961E+03  0.7818608E-02  0.1151014E+00
         -2   -1    0    0    0  501 -0.00000000000E+00  0.00000000000E+00  0.52208118101E+01  0.52208124328E+01  0.25500000000E-02 0. -1.
          2   -1    0    0  501    0  0.00000000000E+00 -0.00000000000E+00 -0.18867136333E+04  0.18867136333E+04  0.25500000000E-02 0.  1.
    5000001    1    1    2    0    0 -0.12000214339E+02 -0.58959725187E+02 -0.77540493666E+03  0.78153827171E+03  0.77000000000E+02 0.  0.
   -5000001    1    1    2    0    0  0.12000214339E+02  0.58959725187E+02 -0.11060878848E+04  0.11103961740E+04  0.77000000000E+02 0.  0.
<mgrwt>
<rscale>  0 0.19849612E+03</rscale>
<asrwt>0</asrwt>
<pdfrwt beam="1">  1        2 0.26953008E+00 0.19849612E+03</pdfrwt>
<pdfrwt beam="2">  1       -2 0.74583151E-03 0.19849612E+03</pdfrwt>
<totfact> 0.32186040E+04</totfact>
</mgrwt>
</event>
<event>
 4    1  0.5121375E-004  0.1971344E+03  0.7818608E-02  0.1152180E+00
         -2   -1    0    0    0  501 -0.00000000000E+00  0.00000000000E+00  0.50013915734E+03  0.50013915734E+03  0.25500000000E-02 0. -1.
          2   -1    0    0  501    0  0.00000000000E+00 -0.00000000000E+00 -0.19425574367E+02  0.19425574535E+02  0.25500000000E-02 0.  1.
    5000001    1    1    2    0    0  0.22604048222E+02 -0.47775007409E+02  0.32341316106E+03  0.33662808420E+03  0.77000000000E+02 0.  0.
   -5000001    1    1    2    0    0 -0.22604048222E+02  0.47775007409E+02  0.15730042191E+03  0.18293664768E+03  0.77000000000E+02 0.  0.
<mgrwt>
<rscale>  0 0.19713437E+03</rscale>
<asrwt>0</asrwt>
<pdfrwt beam="1">  1        2 0.27750825E-02 0.19713437E+03</pdfrwt>
<pdfrwt beam="2">  1       -2 0.71448440E-01 0.19713437E+03</pdfrwt>
<totfact> 0.61953093E+03</totfact>
</mgrwt>
</event>
<event>
 4    1  0.5121375E-004  0.3720499E+03  0.7818608E-02  0.1053912E+00
         -2   -1    0    0    0  501 -0.00000000000E+00  0.00000000000E+00  0.93819151294E+02  0.93819151328E+02  0.25500000000E-02 0. -1.
          2   -1    0    0  501    0  0.00000000000E+00 -0.00000000000E+00 -0.36885097781E+03  0.36885097781E+03  0.25500000000E-02 0.  1.
    5000001    1    1    2    0    0  0.77548760654E+01  0.16721696681E+03 -0.16933365819E+03  0.25024895582E+03  0.77000000000E+02 0.  0.
   -5000001    1    1    2    0    0 -0.77548760654E+01 -0.16721696681E+03 -0.10569816832E+03  0.21242117333E+03  0.77000000000E+02 0.  0.
<mgrwt>
<rscale>  0 0.37204992E+03</rscale>
<asrwt>0</asrwt>
<pdfrwt beam="1">  1        2 0.52692996E-01 0.37204992E+03</pdfrwt>
<pdfrwt beam="2">  1       -2 0.13402736E-01 0.37204992E+03</pdfrwt>
<totfact> 0.39251581E+03</totfact>
</mgrwt>
</event>
<event>
 4    1  0.5121375E-004  0.1764195E+03  0.7818608E-02  0.1171314E+00
         -2   -1    0    0    0  501 -0.00000000000E+00  0.00000000000E+00  0.33974035419E+02  0.33974035515E+02  0.25500000000E-02 0. -1.
          2   -1    0    0  501    0  0.00000000000E+00 -0.00000000000E+00 -0.22902675373E+03  0.22902675375E+03  0.25500000000E-02 0.  1.
    5000001    1    1    2    0    0 -0.28499477959E+02 -0.29495147627E+02 -0.11695097630E+03  0.14590652774E+03  0.77000000000E+02 0.  0.
   -5000001    1    1    2    0    0  0.28499477959E+02  0.29495147627E+02 -0.78101742011E+02  0.11709426153E+03  0.77000000000E+02 0.  0.
<mgrwt>
<rscale>  0 0.17641953E+03</rscale>
<asrwt>0</asrwt>
<pdfrwt beam="1">  1        2 0.32718107E-01 0.17641953E+03</pdfrwt>
<pdfrwt beam="2">  1       -2 0.48534338E-02 0.17641953E+03</pdfrwt>
<totfact> 0.30993468E+04</totfact>
</mgrwt>
</event>
<event>
 4    1  0.5121375E-004  0.1737735E+03  0.7818608E-02  0.1173969E+00
          2   -1    0    0  501    0  0.00000000000E+00  0.00000000000E+00  0.27084771644E+02  0.27084771764E+02  0.25500000000E-02 0.  1.
         -2   -1    0    0    0  501 -0.00000000000E+00 -0.00000000000E+00 -0.27872876909E+03  0.27872876910E+03  0.25500000000E-02 0. -1.
    5000001    1    1    2    0    0 -0.25188491020E+02 -0.31013006369E+02 -0.13445032073E+03  0.16000673545E+03  0.77000000000E+02 0.  0.
   -5000001    1    1    2    0    0  0.25188491020E+02  0.31013006369E+02 -0.11719367671E+03  0.14580680541E+03  0.77000000000E+02 0.  0.
<mgrwt>
<rscale>  0 0.17377347E+03</rscale>
<asrwt>0</asrwt>
<pdfrwt beam="1">  1        2 0.38692533E-02 0.17377347E+03</pdfrwt>
<pdfrwt beam="2">  1       -2 0.39818394E-01 0.17377347E+03</pdfrwt>
<totfact> 0.12732233E+04</totfact>
</mgrwt>
</event>
<event>
 4    1  0.5121375E-004  0.2976944E+03  0.7818608E-02  0.1086399E+00
         -2   -1    0    0    0  501 -0.00000000000E+00  0.00000000000E+00  0.24852766412E+03  0.24852766413E+03  0.25500000000E-02 0. -1.
          2   -1    0    0  501    0  0.00000000000E+00 -0.00000000000E+00 -0.89146998030E+02  0.89146998066E+02  0.25500000000E-02 0.  1.
    5000001    1    1    2    0    0 -0.96543388472E+02  0.42764058426E+02 -0.11328229832E+01  0.13068922618E+03  0.77000000000E+02 0.  0.
   -5000001    1    1    2    0    0  0.96543388472E+02 -0.42764058426E+02  0.16051348907E+03  0.20698543602E+03  0.77000000000E+02 0.  0.
<mgrwt>
<rscale>  0 0.29769444E+03</rscale>
<asrwt>0</asrwt>
<pdfrwt beam="1">  1        2 0.12735285E-01 0.29769444E+03</pdfrwt>
<pdfrwt beam="2">  1       -2 0.35503952E-01 0.29769444E+03</pdfrwt>
<totfact> 0.35473585E+03</totfact>
</mgrwt>
</event>
<event>
 4    1  0.5121375E-004  0.2187824E+03  0.7818608E-02  0.1134794E+00
          2   -1    0    0  501    0  0.00000000000E+00  0.00000000000E+00  0.15195598267E+03  0.15195598269E+03  0.25500000000E-02 0.  1.
         -2   -1    0    0    0  501 -0.00000000000E+00 -0.00000000000E+00 -0.78749379976E+02  0.78749380017E+02  0.25500000000E-02 0. -1.
    5000001    1    1    2    0    0  0.34140794163E+02 -0.69258139188E+02  0.27461614406E+02  0.11245187386E+03  0.77000000000E+02 0.  0.
   -5000001    1    1    2    0    0 -0.34140794163E+02  0.69258139188E+02  0.45744988285E+02  0.11825348884E+03  0.77000000000E+02 0.  0.
<mgrwt>
<rscale>  0 0.21878244E+03</rscale>
<asrwt>0</asrwt>
<pdfrwt beam="1">  1        2 0.21707998E-01 0.21878244E+03</pdfrwt>
<pdfrwt beam="2">  1       -2 0.11249911E-01 0.21878244E+03</pdfrwt>
<totfact> 0.13491714E+04</totfact>
</mgrwt>
</event>
<event>
 4    1  0.5121375E-004  0.2298673E+03  0.7818608E-02  0.1126733E+00
         -2   -1    0    0    0  501 -0.00000000000E+00  0.00000000000E+00  0.25432436980E+02  0.25432437108E+02  0.25500000000E-02 0. -1.
          2   -1    0    0  501    0  0.00000000000E+00 -0.00000000000E+00 -0.51940543399E+03  0.51940543399E+03  0.25500000000E-02 0.  1.
    5000001    1    1    2    0    0 -0.69547269869E+02 -0.49280197131E+02 -0.25628354169E+03  0.28084802708E+03  0.77000000000E+02 0.  0.
   -5000001    1    1    2    0    0  0.69547269869E+02  0.49280197131E+02 -0.23768945532E+03  0.26398984402E+03  0.77000000000E+02 0.  0.
<mgrwt>
<rscale>  0 0.22986732E+03</rscale>
<asrwt>0</asrwt>
<pdfrwt beam="1">  1        2 0.74200770E-01 0.22986732E+03</pdfrwt>
<pdfrwt beam="2">  1       -2 0.36332056E-02 0.22986732E+03</pdfrwt>
<totfact> 0.20211740E+04</totfact>
</mgrwt>
</event>
<event>
 4    1  0.5121375E-004  0.1927960E+03  0.7818608E-02  0.1155963E+00
         -2   -1    0    0    0  501 -0.00000000000E+00  0.00000000000E+00  0.66035665247E+01  0.66035670171E+01  0.25500000000E-02 0. -1.
          2   -1    0    0  501    0  0.00000000000E+00 -0.00000000000E+00 -0.14072052984E+04  0.14072052984E+04  0.25500000000E-02 0.  1.
    5000001    1    1    2    0    0 -0.53193225945E+02  0.21436383577E+02 -0.63699023026E+03  0.64418521504E+03  0.77000000000E+02 0.  0.
   -5000001    1    1    2    0    0  0.53193225945E+02 -0.21436383577E+02 -0.76361150166E+03  0.76962365043E+03  0.77000000000E+02 0.  0.
<mgrwt>
<rscale>  0 0.19279600E+03</rscale>
<asrwt>0</asrwt>
<pdfrwt beam="1">  1        2 0.20102914E+00 0.19279600E+03</pdfrwt>
<pdfrwt beam="2">  1       -2 0.94336758E-03 0.19279600E+03</pdfrwt>
<totfact> 0.39418846E+04</totfact>
</mgrwt>
</event>
<event>
 4    1  0.5121375E-004  0.3492375E+03  0.7818608E-02  0.1062928E+00
          2   -1    0    0  501    0  0.00000000000E+00  0.00000000000E+00  0.63905521888E+03  0.63905521889E+03  0.25500000000E-02 0. -1.
         -2   -1    0    0    0  501 -0.00000000000E+00 -0.00000000000E+00 -0.47713731751E+02  0.47713731819E+02  0.25500000000E-02 0.  1.
    5000001    1    1    2    0    0 -0.11067210376E+03  0.10677012211E+02  0.51287920422E+03  0.53041153010E+03  0.77000000000E+02 0.  0.
   -5000001    1    1    2    0    0  0.11067210376E+03 -0.10677012211E+02  0.78462282909E+02  0.15635742061E+03  0.77000000000E+02 0.  0.
<mgrwt>
<rscale>  0 0.34923751E+03</rscale>
<asrwt>0</asrwt>
<pdfrwt beam="1">  1        2 0.91293603E-01 0.34923751E+03</pdfrwt>
<pdfrwt beam="2">  1       -2 0.68162474E-02 0.34923751E+03</pdfrwt>
<totfact> 0.62379083E+03</totfact>
</mgrwt>
</event>
<event>
 4    1  0.5121375E-004  0.2531305E+03  0.7818608E-02  0.1111342E+00
          2   -1    0    0  501    0  0.00000000000E+00  0.00000000000E+00  0.19553542831E+04  0.19553542831E+04  0.25500000000E-02 0.  1.
         -2   -1    0    0    0  501 -0.00000000000E+00 -0.00000000000E+00 -0.81922556698E+01  0.81922560667E+01  0.25500000000E-02 0. -1.
    5000001    1    1    2    0    0 -0.79443311553E+02  0.60662308486E+02  0.89655259284E+03  0.90538760051E+03  0.77000000000E+02 0.  0.
   -5000001    1    1    2    0    0  0.79443311553E+02 -0.60662308486E+02  0.10506094346E+04  0.10581589386E+04  0.77000000000E+02 0.  0.
<mgrwt>
<rscale>  0 0.25313050E+03</rscale>
<asrwt>0</asrwt>
<pdfrwt beam="1">  1        2 0.27933615E+00 0.25313050E+03</pdfrwt>
<pdfrwt beam="2">  1       -2 0.11703230E-02 0.25313050E+03</pdfrwt>
<totfact> 0.15708514E+04</totfact>
</mgrwt>
</event>
<event>
 4    1  0.5121375E-004  0.2071535E+03  0.7818608E-02  0.1143840E+00
         -2   -1    0    0    0  501 -0.00000000000E+00  0.00000000000E+00  0.24108152329E+02  0.24108152464E+02  0.25500000000E-02 0. -1.
          2   -1    0    0  501    0  0.00000000000E+00 -0.00000000000E+00 -0.44500054173E+03  0.44500054173E+03  0.25500000000E-02 0.  1.
    5000001    1    1    2    0    0  0.54410724319E+02  0.31600462888E+01 -0.30728377808E+03  0.32143869258E+03  0.77000000000E+02 0.  0.
   -5000001    1    1    2    0    0 -0.54410724319E+02 -0.31600462888E+01 -0.11360861132E+03  0.14767000162E+03  0.77000000000E+02 0.  0.
<mgrwt>
<rscale>  0 0.20715348E+03</rscale>
<asrwt>0</asrwt>
<pdfrwt beam="1">  1        2 0.63571501E-01 0.20715348E+03</pdfrwt>
<pdfrwt beam="2">  1       -2 0.34440220E-02 0.20715348E+03</pdfrwt>
<totfact> 0.25739943E+04</totfact>
</mgrwt>
</event>
<event>
 4    1  0.5121375E-004  0.2353443E+03  0.7818608E-02  0.1122934E+00
          2   -1    0    0  501    0  0.00000000000E+00  0.00000000000E+00  0.76123078313E+03  0.76123078314E+03  0.25500000000E-02 0.  1.
         -2   -1    0    0    0  501 -0.00000000000E+00 -0.00000000000E+00 -0.18189923743E+02  0.18189923922E+02  0.25500000000E-02 0. -1.
    5000001    1    1    2    0    0 -0.82502892229E+02 -0.25131409805E+02  0.29900605043E+03  0.32058061884E+03  0.77000000000E+02 0.  0.
   -5000001    1    1    2    0    0  0.82502892229E+02  0.25131409805E+02  0.44403480896E+03  0.45884008822E+03  0.77000000000E+02 0.  0.
<mgrwt>
<rscale>  0 0.23534426E+03</rscale>
<asrwt>0</asrwt>
<pdfrwt beam="1">  1        2 0.10874722E+00 0.23534426E+03</pdfrwt>
<pdfrwt beam="2">  1       -2 0.25985613E-02 0.23534426E+03</pdfrwt>
<totfact> 0.21432018E+04</totfact>
</mgrwt>
</event>
<event>
 4    1  0.5121375E-004  0.2770831E+03  0.7818608E-02  0.1097293E+00
          2   -1    0    0  501    0  0.00000000000E+00  0.00000000000E+00  0.10367302183E+04  0.10367302183E+04  0.25500000000E-02 0.  1.
         -2   -1    0    0    0  501 -0.00000000000E+00 -0.00000000000E+00 -0.18513749465E+02  0.18513749641E+02  0.25500000000E-02 0. -1.
    5000001    1    1    2    0    0 -0.98346859068E+02 -0.14560104991E+00  0.73737859502E+03  0.74788255648E+03  0.77000000000E+02 0.  0.
   -5000001    1    1    2    0    0  0.98346859068E+02  0.14560104991E+00  0.28083787377E+03  0.30736141143E+03  0.77000000000E+02 0.  0.
<mgrwt>
<rscale>  0 0.27708312E+03</rscale>
<asrwt>0</asrwt>
<pdfrwt beam="1">  1        2 0.14810432E+00 0.27708312E+03</pdfrwt>
<pdfrwt beam="2">  1       -2 0.26448213E-02 0.27708312E+03</pdfrwt>
<totfact> 0.14125984E+04</totfact>
</mgrwt>
</event>
<event>
 4    1  0.5121375E-004  0.2776012E+03  0.7818608E-02  0.1097006E+00
         -2   -1    0    0    0  501 -0.00000000000E+00  0.00000000000E+00  0.99739068954E+01  0.99739072214E+01  0.25500000000E-02 0. -1.
          2   -1    0    0  501    0  0.00000000000E+00 -0.00000000000E+00 -0.19316008993E+04  0.19316008993E+04  0.25500000000E-02 0.  1.
    5000001    1    1    2    0    0  0.11502759622E+03 -0.28027143846E+01 -0.10298411058E+04  0.10391058206E+04  0.77000000000E+02 0.  0.
   -5000001    1    1    2    0    0 -0.11502759622E+03  0.28027143846E+01 -0.89178588655E+03  0.90246898592E+03  0.77000000000E+02 0.  0.
<mgrwt>
<rscale>  0 0.27760121E+03</rscale>
<asrwt>0</asrwt>
<pdfrwt beam="1">  1        2 0.27594275E+00 0.27760121E+03</pdfrwt>
<pdfrwt beam="2">  1       -2 0.14248451E-02 0.27760121E+03</pdfrwt>
<totfact> 0.12136827E+04</totfact>
</mgrwt>
</event>
<event>
 4    1  0.5121375E-004  0.2023655E+03  0.7818608E-02  0.1147758E+00
         -2   -1    0    0    0  501 -0.00000000000E+00  0.00000000000E+00  0.74451741432E+02  0.74451741476E+02  0.25500000000E-02 0. -1.
          2   -1    0    0  501    0  0.00000000000E+00 -0.00000000000E+00 -0.13751125575E+03  0.13751125577E+03  0.25500000000E-02 0.  1.
    5000001    1    1    2    0    0  0.34105010876E+02 -0.20975978212E+02 -0.86014144692E+02  0.12219073826E+03  0.77000000000E+02 0.  0.
   -5000001    1    1    2    0    0 -0.34105010876E+02  0.20975978212E+02  0.22954630374E+02  0.89772258991E+02  0.77000000000E+02 0.  0.
<mgrwt>
<rscale>  0 0.20236554E+03</rscale>
<asrwt>0</asrwt>
<pdfrwt beam="1">  1        2 0.19644465E-01 0.20236554E+03</pdfrwt>
<pdfrwt beam="2">  1       -2 0.10635963E-01 0.20236554E+03</pdfrwt>
<totfact> 0.16439398E+04</totfact>
</mgrwt>
</event>
<event>
 4    1  0.5121375E-004  0.4190179E+03  0.7818608E-02  0.1037386E+00
         -2   -1    0    0    0  501 -0.00000000000E+00  0.00000000000E+00  0.12456972169E+03  0.12456972171E+03  0.25500000000E-02 0. -1.
          2   -1    0    0  501    0  0.00000000000E+00 -0.00000000000E+00 -0.35236493524E+03  0.35236493525E+03  0.25500000000E-02 0.  1.
    5000001    1    1    2    0    0  0.79770179536E+01 -0.19452760946E+03 -0.12274197074E+03  0.24269160480E+03  0.77000000000E+02 0.  0.
   -5000001    1    1    2    0    0 -0.79770179536E+01  0.19452760946E+03 -0.10505324281E+03  0.23424305216E+03  0.77000000000E+02 0.  0.
<mgrwt>
<rscale>  0 0.41901791E+03</rscale>
<asrwt>0</asrwt>
<pdfrwt beam="1">  1        2 0.50337847E-01 0.41901791E+03</pdfrwt>
<pdfrwt beam="2">  1       -2 0.17795675E-01 0.41901791E+03</pdfrwt>
<totfact> 0.25735248E+03</totfact>
</mgrwt>
</event>
<event>
 4    1  0.5121375E-004  0.2595205E+03  0.7818608E-02  0.1107432E+00
          2   -1    0    0  501    0  0.00000000000E+00  0.00000000000E+00  0.24872488396E+04  0.24872488396E+04  0.25500000000E-02 0.  1.
         -2   -1    0    0    0  501 -0.00000000000E+00 -0.00000000000E+00 -0.67696178283E+01  0.67696183086E+01  0.25500000000E-02 0. -1.
    5000001    1    1    2    0    0 -0.21799272246E+02  0.95204564836E+02  0.15958922118E+04  0.16007311046E+04  0.77000000000E+02 0.  0.
   -5000001    1    1    2    0    0  0.21799272246E+02 -0.95204564836E+02  0.88458700995E+03  0.89328735332E+03  0.77000000000E+02 0.  0.
<mgrwt>
<rscale>  0 0.25952052E+03</rscale>
<asrwt>0</asrwt>
<pdfrwt beam="1">  1        2 0.35532236E+00 0.25952052E+03</pdfrwt>
<pdfrwt beam="2">  1       -2 0.96708532E-03 0.25952052E+03</pdfrwt>
<totfact> 0.11379806E+04</totfact>
</mgrwt>
</event>
<event>
 4    1  0.5121375E-004  0.1784815E+03  0.7818608E-02  0.1169281E+00
          2   -1    0    0  501    0  0.00000000000E+00  0.00000000000E+00  0.10809287497E+04  0.10809287497E+04  0.25500000000E-02 0.  1.
         -2   -1    0    0    0  501 -0.00000000000E+00 -0.00000000000E+00 -0.73676572218E+01  0.73676576631E+01  0.25500000000E-02 0. -1.
    5000001    1    1    2    0    0  0.14701833684E+02 -0.36285263694E+02  0.40014300842E+03  0.40936071069E+03  0.77000000000E+02 0.  0.
   -5000001    1    1    2    0    0 -0.14701833684E+02  0.36285263694E+02  0.67341808409E+03  0.67893569670E+03  0.77000000000E+02 0.  0.
<mgrwt>
<rscale>  0 0.17848151E+03</rscale>
<asrwt>0</asrwt>
<pdfrwt beam="1">  1        2 0.15441842E+00 0.17848151E+03</pdfrwt>
<pdfrwt beam="2">  1       -2 0.10525223E-02 0.17848151E+03</pdfrwt>
<totfact> 0.49829409E+04</totfact>
</mgrwt>
</event>
<event>
 4    1  0.5121375E-004  0.4775344E+03  0.7818608E-02  0.1019815E+00
         -2   -1    0    0    0  501 -0.00000000000E+00  0.00000000000E+00  0.11711129817E+02  0.11711130095E+02  0.25500000000E-02 0. -1.
          2   -1    0    0  501    0  0.00000000000E+00 -0.00000000000E+00 -0.48679990656E+04  0.48679990656E+04  0.25500000000E-02 0.  1.
    5000001    1    1    2    0    0  0.20518996202E+03  0.51788878134E+02 -0.32389435518E+04  0.32467629018E+04  0.77000000000E+02 0.  0.
   -5000001    1    1    2    0    0 -0.20518996202E+03 -0.51788878134E+02 -0.16173443840E+04  0.16329472939E+04  0.77000000000E+02 0.  0.
<mgrwt>
<rscale>  0 0.47753437E+03</rscale>
<asrwt>0</asrwt>
<pdfrwt beam="1">  1        2 0.69542714E+00 0.47753437E+03</pdfrwt>
<pdfrwt beam="2">  1       -2 0.16730217E-02 0.47753437E+03</pdfrwt>
<totfact> 0.15360858E+02</totfact>
</mgrwt>
</event>
<event>
 4    1  0.5121375E-004  0.2476011E+03  0.7818608E-02  0.1114830E+00
         -2   -1    0    0    0  501 -0.00000000000E+00  0.00000000000E+00  0.25638837977E+02  0.25638838103E+02  0.25500000000E-02 0. -1.
          2   -1    0    0  501    0  0.00000000000E+00 -0.00000000000E+00 -0.59778769869E+03  0.59778769869E+03  0.25500000000E-02 0.  1.
    5000001    1    1    2    0    0  0.58670817009E+02 -0.76588415968E+02 -0.30989878807E+03  0.33357804045E+03  0.77000000000E+02 0.  0.
   -5000001    1    1    2    0    0 -0.58670817009E+02  0.76588415968E+02 -0.26225007264E+03  0.28984849634E+03  0.77000000000E+02 0.  0.
<mgrwt>
<rscale>  0 0.24760115E+03</rscale>
<asrwt>0</asrwt>
<pdfrwt beam="1">  1        2 0.85398234E-01 0.24760115E+03</pdfrwt>
<pdfrwt beam="2">  1       -2 0.36626915E-02 0.24760115E+03</pdfrwt>
<totfact> 0.17128971E+04</totfact>
</mgrwt>
</event>
<event>
 4    1  0.5121375E-004  0.1793164E+03  0.7818608E-02  0.1168466E+00
         -2   -1    0    0    0  501 -0.00000000000E+00  0.00000000000E+00  0.39792039652E+01  0.39792047823E+01  0.25500000000E-02 0. -1.
          2   -1    0    0  501    0  0.00000000000E+00 -0.00000000000E+00 -0.20201497858E+04  0.20201497858E+04  0.25500000000E-02 0.  1.
    5000001    1    1    2    0    0  0.34592809270E+02  0.13484622793E+02 -0.70287153240E+03  0.70805076694E+03  0.77000000000E+02 0.  0.
   -5000001    1    1    2    0    0 -0.34592809270E+02 -0.13484622793E+02 -0.13132990494E+04  0.13160782236E+04  0.77000000000E+02 0.  0.
<mgrwt>
<rscale>  0 0.17931636E+03</rscale>
<asrwt>0</asrwt>
<pdfrwt beam="1">  1        2 0.28859217E+00 0.17931636E+03</pdfrwt>
<pdfrwt beam="2">  1       -2 0.56845906E-03 0.17931636E+03</pdfrwt>
<totfact> 0.40721603E+04</totfact>
</mgrwt>
</event>
<event>
 4    1  0.5121375E-004  0.1790253E+03  0.7818608E-02  0.1168750E+00
          2   -1    0    0  501    0  0.00000000000E+00  0.00000000000E+00  0.15188634551E+04  0.15188634551E+04  0.25500000000E-02 0.  1.
         -2   -1    0    0    0  501 -0.00000000000E+00 -0.00000000000E+00 -0.52753339928E+01  0.52753346092E+01  0.25500000000E-02 0. -1.
    5000001    1    1    2    0    0  0.13391793702E+02 -0.29384288041E+02  0.10314445910E+04  0.10348186898E+04  0.77000000000E+02 0.  0.
   -5000001    1    1    2    0    0 -0.13391793702E+02  0.29384288041E+02  0.48214353013E+03  0.48932009990E+03  0.77000000000E+02 0.  0.
<mgrwt>
<rscale>  0 0.17902528E+03</rscale>
<asrwt>0</asrwt>
<pdfrwt beam="1">  1        2 0.21698054E+00 0.17902528E+03</pdfrwt>
<pdfrwt beam="2">  1       -2 0.75361902E-03 0.17902528E+03</pdfrwt>
<totfact> 0.47589559E+04</totfact>
</mgrwt>
</event>
<event>
 4    1  0.5121375E-004  0.2110974E+03  0.7818608E-02  0.1140700E+00
          2   -1    0    0  501    0  0.00000000000E+00  0.00000000000E+00  0.23381223022E+02  0.23381223161E+02  0.25500000000E-02 0.  1.
         -2   -1    0    0    0  501 -0.00000000000E+00 -0.00000000000E+00 -0.47647346040E+03  0.47647346040E+03  0.25500000000E-02 0. -1.
    5000001    1    1    2    0    0 -0.32784530661E+02  0.49290158812E+02 -0.12870951772E+03  0.16124355850E+03  0.77000000000E+02 0.  0.
   -5000001    1    1    2    0    0  0.32784530661E+02 -0.49290158812E+02 -0.32438271966E+03  0.33861112507E+03  0.77000000000E+02 0.  0.
<mgrwt>
<rscale>  0 0.21109744E+03</rscale>
<asrwt>0</asrwt>
<pdfrwt beam="1">  1        2 0.33401750E-02 0.21109744E+03</pdfrwt>
<pdfrwt beam="2">  1       -2 0.68067631E-01 0.21109744E+03</pdfrwt>
<totfact> 0.53699541E+03</totfact>
</mgrwt>
</event>
<event>
 4    1  0.5121375E-004  0.2356509E+03  0.7818608E-02  0.1122724E+00
         -2   -1    0    0    0  501 -0.00000000000E+00  0.00000000000E+00  0.10532597005E+02  0.10532597314E+02  0.25500000000E-02 0. -1.
          2   -1    0    0  501    0  0.00000000000E+00 -0.00000000000E+00 -0.13180827655E+04  0.13180827655E+04  0.25500000000E-02 0.  1.
    5000001    1    1    2    0    0 -0.88962230893E+02  0.60608114437E+01 -0.64430240425E+03  0.65498519073E+03  0.77000000000E+02 0.  0.
   -5000001    1    1    2    0    0  0.88962230893E+02 -0.60608114437E+01 -0.66324776421E+03  0.67363017205E+03  0.77000000000E+02 0.  0.
<mgrwt>
<rscale>  0 0.23565088E+03</rscale>
<asrwt>0</asrwt>
<pdfrwt beam="1">  1        2 0.18829743E+00 0.23565088E+03</pdfrwt>
<pdfrwt beam="2">  1       -2 0.15046576E-02 0.23565088E+03</pdfrwt>
<totfact> 0.22541350E+04</totfact>
</mgrwt>
</event>
<event>
 4    1  0.5121375E-004  0.2385472E+03  0.7818608E-02  0.1120764E+00
          2   -1    0    0  501    0  0.00000000000E+00  0.00000000000E+00  0.46818756312E+03  0.46818756312E+03  0.25500000000E-02 0.  1.
         -2   -1    0    0    0  501 -0.00000000000E+00 -0.00000000000E+00 -0.30385671667E+02  0.30385671774E+02  0.25500000000E-02 0. -1.
    5000001    1    1    2    0    0  0.81632326795E+02  0.33145874132E+02  0.26723051086E+03  0.29172526748E+03  0.77000000000E+02 0.  0.
   -5000001    1    1    2    0    0 -0.81632326795E+02 -0.33145874132E+02  0.17057138059E+03  0.20684796742E+03  0.77000000000E+02 0.  0.
<mgrwt>
<rscale>  0 0.23854722E+03</rscale>
<asrwt>0</asrwt>
<pdfrwt beam="1">  1        2 0.66883935E-01 0.23854722E+03</pdfrwt>
<pdfrwt beam="2">  1       -2 0.43408104E-02 0.23854722E+03</pdfrwt>
<totfact> 0.17388501E+04</totfact>
</mgrwt>
</event>
<event>
 4    1  0.5121375E-004  0.1771174E+03  0.7818608E-02  0.1170622E+00
         -2   -1    0    0    0  501 -0.00000000000E+00  0.00000000000E+00  0.51493805095E+01  0.51493811409E+01  0.25500000000E-02 0. -1.
          2   -1    0    0  501    0  0.00000000000E+00 -0.00000000000E+00 -0.15230266980E+04  0.15230266980E+04  0.25500000000E-02 0.  1.
    5000001    1    1    2    0    0  0.34618711473E+01  0.41262697545E+02 -0.88066734099E+03  0.88499636171E+03  0.77000000000E+02 0.  0.
   -5000001    1    1    2    0    0 -0.34618711473E+01 -0.41262697545E+02 -0.63720997652E+03  0.64317971744E+03  0.77000000000E+02 0.  0.
<mgrwt>
<rscale>  0 0.17711741E+03</rscale>
<asrwt>0</asrwt>
<pdfrwt beam="1">  1        2 0.21757495E+00 0.17711741E+03</pdfrwt>
<pdfrwt beam="2">  1       -2 0.73562681E-03 0.17711741E+03</pdfrwt>
<totfact> 0.48993047E+04</totfact>
</mgrwt>
</event>
<event>
 4    1  0.5121375E-004  0.1573257E+03  0.7818608E-02  0.1191749E+00
          2   -1    0    0  501    0  0.00000000000E+00  0.00000000000E+00  0.84533243667E+03  0.84533243667E+03  0.25500000000E-02 0.  1.
         -2   -1    0    0    0  501 -0.00000000000E+00 -0.00000000000E+00 -0.73200167504E+01  0.73200171946E+01  0.25500000000E-02 0. -1.
    5000001    1    1    2    0    0 -0.13328185989E+02  0.77637501821E+00  0.46766394051E+03  0.47414850474E+03  0.77000000000E+02 0.  0.
   -5000001    1    1    2    0    0  0.13328185989E+02 -0.77637501821E+00  0.37034847941E+03  0.37850394912E+03  0.77000000000E+02 0.  0.
<mgrwt>
<rscale>  0 0.15732575E+03</rscale>
<asrwt>0</asrwt>
<pdfrwt beam="1">  1        2 0.12076169E+00 0.15732575E+03</pdfrwt>
<pdfrwt beam="2">  1       -2 0.10457174E-02 0.15732575E+03</pdfrwt>
<totfact> 0.68622499E+04</totfact>
</mgrwt>
</event>
<event>
 4    1  0.5121375E-004  0.4596942E+03  0.7818608E-02  0.1024870E+00
          2   -1    0    0  501    0  0.00000000000E+00  0.00000000000E+00  0.13374843401E+04  0.13374843401E+04  0.25500000000E-02 0.  1.
         -2   -1    0    0    0  501 -0.00000000000E+00 -0.00000000000E+00 -0.39499296075E+02  0.39499296158E+02  0.25500000000E-02 0. -1.
    5000001    1    1    2    0    0  0.12938175712E+03 -0.16295384766E+03  0.82889556531E+03  0.85807368783E+03  0.77000000000E+02 0.  0.
   -5000001    1    1    2    0    0 -0.12938175712E+03  0.16295384766E+03  0.46908947871E+03  0.51890994843E+03  0.77000000000E+02 0.  0.
<mgrwt>
<rscale>  0 0.45969420E+03</rscale>
<asrwt>0</asrwt>
<pdfrwt beam="1">  1        2 0.19106922E+00 0.45969420E+03</pdfrwt>
<pdfrwt beam="2">  1       -2 0.56427558E-02 0.45969420E+03</pdfrwt>
<totfact> 0.30829410E+03</totfact>
</mgrwt>
</event>
<event>
 4    1  0.5121375E-004  0.1785650E+03  0.7818608E-02  0.1169199E+00
         -2   -1    0    0    0  501 -0.00000000000E+00  0.00000000000E+00  0.45814976918E+03  0.45814976919E+03  0.25500000000E-02 0. -1.
          2   -1    0    0  501    0  0.00000000000E+00 -0.00000000000E+00 -0.17399032283E+02  0.17399032470E+02  0.25500000000E-02 0.  1.
    5000001    1    1    2    0    0  0.29340755955E+02 -0.34173302235E+02  0.23022122001E+03  0.24689978673E+03  0.77000000000E+02 0.  0.
   -5000001    1    1    2    0    0 -0.29340755955E+02  0.34173302235E+02  0.21052951689E+03  0.22864901493E+03  0.77000000000E+02 0.  0.
<mgrwt>
<rscale>  0 0.17856498E+03</rscale>
<asrwt>0</asrwt>
<pdfrwt beam="1">  1        2 0.24855761E-02 0.17856498E+03</pdfrwt>
<pdfrwt beam="2">  1       -2 0.65449967E-01 0.17856498E+03</pdfrwt>
<totfact> 0.86020260E+03</totfact>
</mgrwt>
</event>
<event>
 4    1  0.5121375E-004  0.3398905E+03  0.7818608E-02  0.1066843E+00
         -2   -1    0    0    0  501 -0.00000000000E+00  0.00000000000E+00  0.25983055787E+03  0.25983055788E+03  0.25500000000E-02 0. -1.
          2   -1    0    0  501    0  0.00000000000E+00 -0.00000000000E+00 -0.11115467970E+03  0.11115467973E+03  0.25500000000E-02 0.  1.
    5000001    1    1    2    0    0 -0.41577097795E+02  0.13950222526E+03  0.28510443085E+02  0.16712681197E+03  0.77000000000E+02 0.  0.
   -5000001    1    1    2    0    0  0.41577097795E+02 -0.13950222526E+03  0.12016543509E+03  0.20385842564E+03  0.77000000000E+02 0.  0.
<mgrwt>
<rscale>  0 0.33989047E+03</rscale>
<asrwt>0</asrwt>
<pdfrwt beam="1">  1        2 0.15879240E-01 0.33989047E+03</pdfrwt>
<pdfrwt beam="2">  1       -2 0.37118651E-01 0.33989047E+03</pdfrwt>
<totfact> 0.25131360E+03</totfact>
</mgrwt>
</event>
<event>
 4    1  0.5121375E-004  0.2180169E+03  0.7818608E-02  0.1135370E+00
          2   -1    0    0  501    0  0.00000000000E+00  0.00000000000E+00  0.25316199860E+02  0.25316199989E+02  0.25500000000E-02 0.  1.
         -2   -1    0    0    0  501 -0.00000000000E+00 -0.00000000000E+00 -0.46937709041E+03  0.46937709042E+03  0.25500000000E-02 0. -1.
    5000001    1    1    2    0    0 -0.68891483796E+02 -0.40320614247E+01 -0.30035573222E+03  0.31765525328E+03  0.77000000000E+02 0.  0.
   -5000001    1    1    2    0    0  0.68891483796E+02  0.40320614247E+01 -0.14370515833E+03  0.17703803713E+03  0.77000000000E+02 0.  0.
<mgrwt>
<rscale>  0 0.21801692E+03</rscale>
<asrwt>0</asrwt>
<pdfrwt beam="1">  1        2 0.36166003E-02 0.21801692E+03</pdfrwt>
<pdfrwt beam="2">  1       -2 0.67053865E-01 0.21801692E+03</pdfrwt>
<totfact> 0.49905558E+03</totfact>
</mgrwt>
</event>
<event>
 4    1  0.5121375E-004  0.2210640E+03  0.7818608E-02  0.1133092E+00
          2   -1    0    0  501    0  0.00000000000E+00  0.00000000000E+00  0.15761956192E+04  0.15761956192E+04  0.25500000000E-02 0.  1.
         -2   -1    0    0    0  501 -0.00000000000E+00 -0.00000000000E+00 -0.77511467438E+01  0.77511471632E+01  0.25500000000E-02 0. -1.
    5000001    1    1    2    0    0  0.50017747514E+02  0.51863524053E+02  0.10215077105E+04  0.10269365135E+04  0.77000000000E+02 0.  0.
   -5000001    1    1    2    0    0 -0.50017747514E+02 -0.51863524053E+02  0.54693676198E+03  0.55701025286E+03  0.77000000000E+02 0.  0.
<mgrwt>
<rscale>  0 0.22106401E+03</rscale>
<asrwt>0</asrwt>
<pdfrwt beam="1">  1        2 0.22517112E+00 0.22106401E+03</pdfrwt>
<pdfrwt beam="2">  1       -2 0.11073051E-02 0.22106401E+03</pdfrwt>
<totfact> 0.25949973E+04</totfact>
</mgrwt>
</event>
<event>
 4    1  0.5121375E-004  0.1737424E+03  0.7818608E-02  0.1174000E+00
         -2   -1    0    0    0  501 -0.00000000000E+00  0.00000000000E+00  0.79382453845E+02  0.79382453886E+02  0.25500000000E-02 0. -1.
          2   -1    0    0  501    0  0.00000000000E+00 -0.00000000000E+00 -0.95066460439E+02  0.95066460474E+02  0.25500000000E-02 0.  1.
    5000001    1    1    2    0    0 -0.25652525910E+02 -0.17665746390E+02  0.17707057504E+02  0.84927442953E+02  0.77000000000E+02 0.  0.
   -5000001    1    1    2    0    0  0.25652525910E+02  0.17665746390E+02 -0.33391064099E+02  0.89521471406E+02  0.77000000000E+02 0.  0.
<mgrwt>
<rscale>  0 0.17374244E+03</rscale>
<asrwt>0</asrwt>
<pdfrwt beam="1">  1        2 0.13580923E-01 0.17374244E+03</pdfrwt>
<pdfrwt beam="2">  1       -2 0.11340351E-01 0.17374244E+03</pdfrwt>
<totfact> 0.22545606E+04</totfact>
</mgrwt>
</event>
<event>
 4    1  0.5121375E-004  0.4175301E+03  0.7818608E-02  0.1037873E+00
         -2   -1    0    0    0  501 -0.00000000000E+00  0.00000000000E+00  0.50640114368E+02  0.50640114433E+02  0.25500000000E-02 0. -1.
          2   -1    0    0  501    0  0.00000000000E+00 -0.00000000000E+00 -0.86063881505E+03  0.86063881506E+03  0.25500000000E-02 0.  1.
    5000001    1    1    2    0    0  0.14432404213E+03 -0.35522277262E+02 -0.67727225336E+03  0.69765175158E+03  0.77000000000E+02 0.  0.
   -5000001    1    1    2    0    0 -0.14432404213E+03  0.35522277262E+02 -0.13272644733E+03  0.21362717791E+03  0.77000000000E+02 0.  0.
<mgrwt>
<rscale>  0 0.41753011E+03</rscale>
<asrwt>0</asrwt>
<pdfrwt beam="1">  1        2 0.12294839E+00 0.41753011E+03</pdfrwt>
<pdfrwt beam="2">  1       -2 0.72343026E-02 0.41753011E+03</pdfrwt>
<totfact> 0.39581353E+03</totfact>
</mgrwt>
</event>
<event>
 4    1  0.5121375E-004  0.1982908E+03  0.7818608E-02  0.1151189E+00
         -2   -1    0    0    0  501 -0.00000000000E+00  0.00000000000E+00  0.30604727605E+02  0.30604727712E+02  0.25500000000E-02 0. -1.
          2   -1    0    0  501    0  0.00000000000E+00 -0.00000000000E+00 -0.32118614174E+03  0.32118614175E+03  0.25500000000E-02 0.  1.
    5000001    1    1    2    0    0  0.29280143004E+02 -0.55166644053E+02 -0.14592792994E+03  0.17642178473E+03  0.77000000000E+02 0.  0.
   -5000001    1    1    2    0    0 -0.29280143004E+02  0.55166644053E+02 -0.14465348420E+03  0.17536908473E+03  0.77000000000E+02 0.  0.
<mgrwt>
<rscale>  0 0.19829084E+03</rscale>
<asrwt>0</asrwt>
<pdfrwt beam="1">  1        2 0.45883733E-01 0.19829084E+03</pdfrwt>
<pdfrwt beam="2">  1       -2 0.43721041E-02 0.19829084E+03</pdfrwt>
<totfact> 0.25484024E+04</totfact>
</mgrwt>
</event>
<event>
 4    1  0.5121375E-004  0.1996728E+03  0.7818608E-02  0.1150015E+00
          2   -1    0    0  501    0  0.00000000000E+00  0.00000000000E+00  0.23361668957E+03  0.23361668958E+03  0.25500000000E-02 0.  1.
         -2   -1    0    0    0  501 -0.00000000000E+00 -0.00000000000E+00 -0.42665226543E+02  0.42665226619E+02  0.25500000000E-02 0. -1.
    5000001    1    1    2    0    0  0.36546082492E+02 -0.50389341088E+02  0.77777305248E+02  0.12590874097E+03  0.77000000000E+02 0.  0.
   -5000001    1    1    2    0    0 -0.36546082492E+02  0.50389341088E+02  0.11317415778E+03  0.15037317523E+03  0.77000000000E+02 0.  0.
<mgrwt>
<rscale>  0 0.19967282E+03</rscale>
<asrwt>0</asrwt>
<pdfrwt beam="1">  1        2 0.33373814E-01 0.19967282E+03</pdfrwt>
<pdfrwt beam="2">  1       -2 0.60950321E-02 0.19967282E+03</pdfrwt>
<totfact> 0.21700337E+04</totfact>
</mgrwt>
</event>
<event>
 4    1  0.5121375E-004  0.1177513E+04  0.7818608E-02  0.9132771E-01
          2   -1    0    0  501    0  0.00000000000E+00  0.00000000000E+00  0.77619898831E+03  0.77619898832E+03  0.25500000000E-02 0.  1.
         -2   -1    0    0    0  501 -0.00000000000E+00 -0.00000000000E+00 -0.44657874962E+03  0.44657874963E+03  0.25500000000E-02 0. -1.
    5000001    1    1    2    0    0  0.38788817188E+03 -0.43320937512E+03  0.21752957861E+03  0.62560028304E+03  0.77000000000E+02 0.  0.
   -5000001    1    1    2    0    0 -0.38788817188E+03  0.43320937512E+03  0.11209066008E+03  0.59717745491E+03  0.77000000000E+02 0.  0.
<mgrwt>
<rscale>  0 0.11775126E+04</rscale>
<asrwt>0</asrwt>
<pdfrwt beam="1">  1        2 0.11088557E+00 0.11775126E+04</pdfrwt>
<pdfrwt beam="2">  1       -2 0.63796964E-01 0.11775126E+04</pdfrwt>
<totfact> 0.88824640E+01</totfact>
</mgrwt>
</event>
<event>
 4    1  0.5121375E-004  0.3682318E+03  0.7818608E-02  0.1055371E+00
         -2   -1    0    0    0  501 -0.00000000000E+00  0.00000000000E+00  0.17283085483E+03  0.17283085485E+03  0.25500000000E-02 0. -1.
          2   -1    0    0  501    0  0.00000000000E+00 -0.00000000000E+00 -0.19613778777E+03  0.19613778778E+03  0.25500000000E-02 0.  1.
    5000001    1    1    2    0    0 -0.12146273783E+03  0.84306695253E+02 -0.89968975579E+02  0.18943133878E+03  0.77000000000E+02 0.  0.
   -5000001    1    1    2    0    0  0.12146273783E+03 -0.84306695253E+02  0.66662042641E+02  0.17953730385E+03  0.77000000000E+02 0.  0.
<mgrwt>
<rscale>  0 0.36823178E+03</rscale>
<asrwt>0</asrwt>
<pdfrwt beam="1">  1        2 0.28019684E-01 0.36823178E+03</pdfrwt>
<pdfrwt beam="2">  1       -2 0.24690122E-01 0.36823178E+03</pdfrwt>
<totfact> 0.27660076E+03</totfact>
</mgrwt>
</event>
<event>
 4    1  0.5121375E-004  0.1884350E+03  0.7818608E-02  0.1159880E+00
         -2   -1    0    0    0  501 -0.00000000000E+00  0.00000000000E+00  0.16585886484E+02  0.16585886680E+02  0.25500000000E-02 0. -1.
          2   -1    0    0  501    0  0.00000000000E+00 -0.00000000000E+00 -0.53521055497E+03  0.53521055498E+03  0.25500000000E-02 0.  1.
    5000001    1    1    2    0    0 -0.27224440309E+02  0.32003212036E+02 -0.36001242994E+03  0.37054463353E+03  0.77000000000E+02 0.  0.
   -5000001    1    1    2    0    0  0.27224440309E+02 -0.32003212036E+02 -0.15861223855E+03  0.18125180813E+03  0.77000000000E+02 0.  0.
<mgrwt>
<rscale>  0 0.18843505E+03</rscale>
<asrwt>0</asrwt>
<pdfrwt beam="1">  1        2 0.76458640E-01 0.18843505E+03</pdfrwt>
<pdfrwt beam="2">  1       -2 0.23694127E-02 0.18843505E+03</pdfrwt>
<totfact> 0.36272543E+04</totfact>
</mgrwt>
</event>
<event>
 4    1  0.5121375E-004  0.1755535E+03  0.7818608E-02  0.1172177E+00
          2   -1    0    0  501    0  0.00000000000E+00  0.00000000000E+00  0.28297194463E+04  0.28297194463E+04  0.25500000000E-02 0.  1.
         -2   -1    0    0    0  501 -0.00000000000E+00 -0.00000000000E+00 -0.27227980990E+01  0.27227992931E+01  0.25500000000E-02 0. -1.
    5000001    1    1    2    0    0  0.23122106763E+02  0.35197394284E+02  0.13891999842E+04  0.13919694985E+04  0.77000000000E+02 0.  0.
   -5000001    1    1    2    0    0 -0.23122106763E+02 -0.35197394284E+02  0.14377966639E+04  0.14404727471E+04  0.77000000000E+02 0.  0.
<mgrwt>
<rscale>  0 0.17555348E+03</rscale>
<asrwt>0</asrwt>
<pdfrwt beam="1">  1        2 0.40424341E+00 0.17555348E+03</pdfrwt>
<pdfrwt beam="2">  1       -2 0.38897338E-03 0.17555348E+03</pdfrwt>
<totfact> 0.27996358E+04</totfact>
</mgrwt>
</event>
<event>
 4    1  0.5121375E-004  0.1967102E+03  0.7818608E-02  0.1152545E+00
         -2   -1    0    0    0  501 -0.00000000000E+00  0.00000000000E+00  0.33786809831E+02  0.33786809928E+02  0.25500000000E-02 0. -1.
          2   -1    0    0  501    0  0.00000000000E+00 -0.00000000000E+00 -0.28631661982E+03  0.28631661983E+03  0.25500000000E-02 0.  1.
    5000001    1    1    2    0    0 -0.12627518970E+02  0.48872853591E+02 -0.69971327017E+02  0.11564167353E+03  0.77000000000E+02 0.  0.
   -5000001    1    1    2    0    0  0.12627518970E+02 -0.48872853591E+02 -0.18255848297E+03  0.20446175622E+03  0.77000000000E+02 0.  0.
<mgrwt>
<rscale>  0 0.19671019E+03</rscale>
<asrwt>0</asrwt>
<pdfrwt beam="1">  1        2 0.40902373E-01 0.19671019E+03</pdfrwt>
<pdfrwt beam="2">  1       -2 0.48266873E-02 0.19671019E+03</pdfrwt>
<totfact> 0.24812956E+04</totfact>
</mgrwt>
</event>
<event>
 4    1  0.5121375E-004  0.2761967E+03  0.7818608E-02  0.1097785E+00
         -2   -1    0    0    0  501 -0.00000000000E+00  0.00000000000E+00  0.13919439025E+03  0.13919439027E+03  0.25500000000E-02 0. -1.
          2   -1    0    0  501    0  0.00000000000E+00 -0.00000000000E+00 -0.13701089824E+03  0.13701089827E+03  0.25500000000E-02 0.  1.
    5000001    1    1    2    0    0 -0.17127523169E+02  0.99526124639E+02 -0.53162570531E+02  0.13767374638E+03  0.77000000000E+02 0.  0.
   -5000001    1    1    2    0    0  0.17127523169E+02 -0.99526124639E+02  0.55346062540E+02  0.13853154216E+03  0.77000000000E+02 0.  0.
<mgrwt>
<rscale>  0 0.27619666E+03</rscale>
<asrwt>0</asrwt>
<pdfrwt beam="1">  1        2 0.19572985E-01 0.27619666E+03</pdfrwt>
<pdfrwt beam="2">  1       -2 0.19884913E-01 0.27619666E+03</pdfrwt>
<totfact> 0.59994413E+03</totfact>
</mgrwt>
</event>
<event>
 4    1  0.5121375E-004  0.2421500E+03  0.7818608E-02  0.1118369E+00
          2   -1    0    0  501    0  0.00000000000E+00  0.00000000000E+00  0.26397148994E+02  0.26397149117E+02  0.25500000000E-02 0.  1.
         -2   -1    0    0    0  501 -0.00000000000E+00 -0.00000000000E+00 -0.55533122500E+03  0.55533122501E+03  0.25500000000E-02 0. -1.
    5000001    1    1    2    0    0 -0.86324043421E+02  0.77916644883E+01 -0.18063888344E+03  0.21464379031E+03  0.77000000000E+02 0.  0.
   -5000001    1    1    2    0    0  0.86324043421E+02 -0.77916644883E+01 -0.34829519257E+03  0.36708458382E+03  0.77000000000E+02 0.  0.
<mgrwt>
<rscale>  0 0.24215005E+03</rscale>
<asrwt>0</asrwt>
<pdfrwt beam="1">  1        2 0.37710216E-02 0.24215005E+03</pdfrwt>
<pdfrwt beam="2">  1       -2 0.79333025E-01 0.24215005E+03</pdfrwt>
<totfact> 0.33008707E+03</totfact>
</mgrwt>
</event>
<event>
 4    1  0.5121375E-004  0.4784964E+03  0.7818608E-02  0.1019549E+00
         -2   -1    0    0    0  501 -0.00000000000E+00  0.00000000000E+00  0.44285287415E+02  0.44285287489E+02  0.25500000000E-02 0. -1.
          2   -1    0    0  501    0  0.00000000000E+00 -0.00000000000E+00 -0.12925220839E+04  0.12925220839E+04  0.25500000000E-02 0.  1.
    5000001    1    1    2    0    0 -0.20947720001E+03  0.86137671476E+02 -0.61514511846E+03  0.66002493327E+03  0.77000000000E+02 0.  0.
   -5000001    1    1    2    0    0  0.20947720001E+03 -0.86137671476E+02 -0.63309167806E+03  0.67678243816E+03  0.77000000000E+02 0.  0.
<mgrwt>
<rscale>  0 0.47849645E+03</rscale>
<asrwt>0</asrwt>
<pdfrwt beam="1">  1        2 0.18464599E+00 0.47849645E+03</pdfrwt>
<pdfrwt beam="2">  1       -2 0.63264705E-02 0.47849645E+03</pdfrwt>
<totfact> 0.27273810E+03</totfact>
</mgrwt>
</event>
<event>
 4    1  0.5121375E-004  0.2053760E+03  0.7818608E-02  0.1145281E+00
          2   -1    0    0  501    0  0.00000000000E+00  0.00000000000E+00  0.36343894503E+03  0.36343894504E+03  0.25500000000E-02 0.  1.
         -2   -1    0    0    0  501 -0.00000000000E+00 -0.00000000000E+00 -0.29014021840E+02  0.29014021952E+02  0.25500000000E-02 0. -1.
    5000001    1    1    2    0    0 -0.52657628480E+01 -0.33332326276E+02  0.54533303105E+02  0.10020805048E+03  0.77000000000E+02 0.  0.
   -5000001    1    1    2    0    0  0.52657628480E+01  0.33332326276E+02  0.27989162009E+03  0.29224491651E+03  0.77000000000E+02 0.  0.
<mgrwt>
<rscale>  0 0.20537600E+03</rscale>
<asrwt>0</asrwt>
<pdfrwt beam="1">  1        2 0.51919847E-01 0.20537600E+03</pdfrwt>
<pdfrwt beam="2">  1       -2 0.41448605E-02 0.20537600E+03</pdfrwt>
<totfact> 0.24255633E+04</totfact>
</mgrwt>
</event>
<event>
 4    1  0.5121375E-004  0.2119837E+03  0.7818608E-02  0.1140005E+00
          2   -1    0    0  501    0  0.00000000000E+00  0.00000000000E+00  0.20754054442E+04  0.20754054442E+04  0.25500000000E-02 0.  1.
         -2   -1    0    0    0  501 -0.00000000000E+00 -0.00000000000E+00 -0.54130466810E+01  0.54130472817E+01  0.25500000000E-02 0. -1.
    5000001    1    1    2    0    0  0.71468454966E+02  0.12154668459E+02  0.96573213953E+03  0.97150555394E+03  0.77000000000E+02 0.  0.
   -5000001    1    1    2    0    0 -0.71468454966E+02 -0.12154668459E+02  0.11042602580E+04  0.11093129375E+04  0.77000000000E+02 0.  0.
<mgrwt>
<rscale>  0 0.21198365E+03</rscale>
<asrwt>0</asrwt>
<pdfrwt beam="1">  1        2 0.29648670E+00 0.21198365E+03</pdfrwt>
<pdfrwt beam="2">  1       -2 0.77329187E-03 0.21198365E+03</pdfrwt>
<totfact> 0.24857624E+04</totfact>
</mgrwt>
</event>
<event>
 4    1  0.5121375E-004  0.2010279E+03  0.7818608E-02  0.1148875E+00
          2   -1    0    0  501    0  0.00000000000E+00  0.00000000000E+00  0.16624135663E+04  0.16624135663E+04  0.25500000000E-02 0.  1.
         -2   -1    0    0    0  501 -0.00000000000E+00 -0.00000000000E+00 -0.60773404102E+01  0.60773409452E+01  0.25500000000E-02 0. -1.
    5000001    1    1    2    0    0  0.42494885129E+02  0.37589361593E+02  0.57164148077E+03  0.57958757570E+03  0.77000000000E+02 0.  0.
   -5000001    1    1    2    0    0 -0.42494885129E+02 -0.37589361593E+02  0.10846947451E+04  0.10889033315E+04  0.77000000000E+02 0.  0.
<mgrwt>
<rscale>  0 0.20102789E+03</rscale>
<asrwt>0</asrwt>
<pdfrwt beam="1">  1        2 0.23748726E+00 0.20102789E+03</pdfrwt>
<pdfrwt beam="2">  1       -2 0.86819295E-03 0.20102789E+03</pdfrwt>
<totfact> 0.33262059E+04</totfact>
</mgrwt>
</event>
<event>
 4    1  0.5121375E-004  0.3104388E+03  0.7818608E-02  0.1080136E+00
          2   -1    0    0  501    0  0.00000000000E+00  0.00000000000E+00  0.37828637180E+03  0.37828637181E+03  0.25500000000E-02 0.  1.
         -2   -1    0    0    0  501 -0.00000000000E+00 -0.00000000000E+00 -0.63689988070E+02  0.63689988121E+02  0.25500000000E-02 0. -1.
    5000001    1    1    2    0    0  0.48069761841E+02 -0.70241447803E+02  0.30607126060E+03  0.32688404604E+03  0.77000000000E+02 0.  0.
   -5000001    1    1    2    0    0 -0.48069761841E+02  0.70241447803E+02  0.85251231380E+01  0.11509231389E+03  0.77000000000E+02 0.  0.
<mgrwt>
<rscale>  0 0.31043875E+03</rscale>
<asrwt>0</asrwt>
<pdfrwt beam="1">  1        2 0.54040909E-01 0.31043875E+03</pdfrwt>
<pdfrwt beam="2">  1       -2 0.90985699E-02 0.31043875E+03</pdfrwt>
<totfact> 0.70950194E+03</totfact>
</mgrwt>
</event>
<event>
 4    1  0.5121375E-004  0.4118667E+03  0.7818608E-02  0.1039746E+00
          2   -1    0    0  501    0  0.00000000000E+00  0.00000000000E+00  0.14525354477E+04  0.14525354477E+04  0.25500000000E-02 0.  1.
         -2   -1    0    0    0  501 -0.00000000000E+00 -0.00000000000E+00 -0.29196221747E+02  0.29196221858E+02  0.25500000000E-02 0. -1.
    5000001    1    1    2    0    0  0.12623199479E+03  0.86050148056E+02  0.11240682362E+04  0.11370125523E+04  0.77000000000E+02 0.  0.
   -5000001    1    1    2    0    0 -0.12623199479E+03 -0.86050148056E+02  0.29927098980E+03  0.34471911729E+03  0.77000000000E+02 0.  0.
<mgrwt>
<rscale>  0 0.41186671E+03</rscale>
<asrwt>0</asrwt>
<pdfrwt beam="1">  1        2 0.20750502E+00 0.41186671E+03</pdfrwt>
<pdfrwt beam="2">  1       -2 0.41708896E-02 0.41186671E+03</pdfrwt>
<totfact> 0.42687356E+03</totfact>
</mgrwt>
</event>
<event>
 4    1  0.5121375E-004  0.3585248E+03  0.7818608E-02  0.1059169E+00
          2   -1    0    0  501    0  0.00000000000E+00  0.00000000000E+00  0.19054179572E+04  0.19054179572E+04  0.25500000000E-02 0.  1.
         -2   -1    0    0    0  501 -0.00000000000E+00 -0.00000000000E+00 -0.16865072524E+02  0.16865072716E+02  0.25500000000E-02 0. -1.
    5000001    1    1    2    0    0 -0.11402213679E+03 -0.10685245133E+03  0.11709617311E+04  0.11838491752E+04  0.77000000000E+02 0.  0.
   -5000001    1    1    2    0    0  0.11402213679E+03  0.10685245133E+03  0.71759115362E+03  0.73843385472E+03  0.77000000000E+02 0.  0.
<mgrwt>
<rscale>  0 0.35852482E+03</rscale>
<asrwt>0</asrwt>
<pdfrwt beam="1">  1        2 0.27220246E+00 0.35852482E+03</pdfrwt>
<pdfrwt beam="2">  1       -2 0.24092970E-02 0.35852482E+03</pdfrwt>
<totfact> 0.57756225E+03</totfact>
</mgrwt>
</event>
<event>
 4    1  0.5121375E-004  0.3427941E+03  0.7818608E-02  0.1065612E+00
         -2   -1    0    0    0  501 -0.00000000000E+00  0.00000000000E+00  0.66469135457E+03  0.66469135458E+03  0.25500000000E-02 0. -1.
          2   -1    0    0  501    0  0.00000000000E+00 -0.00000000000E+00 -0.44196372275E+02  0.44196372349E+02  0.25500000000E-02 0.  1.
    5000001    1    1    2    0    0  0.40110487147E+02  0.12273167368E+03  0.48047582517E+03  0.50344605816E+03  0.77000000000E+02 0.  0.
   -5000001    1    1    2    0    0 -0.40110487147E+02 -0.12273167368E+03  0.14001915712E+03  0.20544166876E+03  0.77000000000E+02 0.  0.
<mgrwt>
<rscale>  0 0.34279409E+03</rscale>
<asrwt>0</asrwt>
<pdfrwt beam="1">  1        2 0.63137680E-02 0.34279409E+03</pdfrwt>
<pdfrwt beam="2">  1       -2 0.94955900E-01 0.34279409E+03</pdfrwt>
<totfact> 0.11239856E+03</totfact>
</mgrwt>
</event>
<event>
 4    1  0.5121375E-004  0.3157358E+03  0.7818608E-02  0.1077629E+00
         -2   -1    0    0    0  501 -0.00000000000E+00  0.00000000000E+00  0.27917654172E+03  0.27917654174E+03  0.25500000000E-02 0. -1.
          2   -1    0    0  501    0  0.00000000000E+00 -0.00000000000E+00 -0.89270676702E+02  0.89270676738E+02  0.25500000000E-02 0.  1.
    5000001    1    1    2    0    0  0.12787582263E+03 -0.32402172955E+02  0.48404266075E+02  0.16023139455E+03  0.77000000000E+02 0.  0.
   -5000001    1    1    2    0    0 -0.12787582263E+03  0.32402172955E+02  0.14150159895E+03  0.20821582392E+03  0.77000000000E+02 0.  0.
<mgrwt>
<rscale>  0 0.31573583E+03</rscale>
<asrwt>0</asrwt>
<pdfrwt beam="1">  1        2 0.12752954E-01 0.31573583E+03</pdfrwt>
<pdfrwt beam="2">  1       -2 0.39882363E-01 0.31573583E+03</pdfrwt>
<totfact> 0.28461879E+03</totfact>
</mgrwt>
</event>
<event>
 4    1  0.5121375E-004  0.3708500E+03  0.7818608E-02  0.1054368E+00
          2   -1    0    0  501    0  0.00000000000E+00  0.00000000000E+00  0.46943146441E+03  0.46943146442E+03  0.25500000000E-02 0.  1.
         -2   -1    0    0    0  501 -0.00000000000E+00 -0.00000000000E+00 -0.73242717392E+02  0.73242717436E+02  0.25500000000E-02 0. -1.
    5000001    1    1    2    0    0  0.14553844760E+03  0.79258516865E+02  0.15204997171E+03  0.23772157269E+03  0.77000000000E+02 0.  0.
   -5000001    1    1    2    0    0 -0.14553844760E+03 -0.79258516865E+02  0.24413877531E+03  0.30495260916E+03  0.77000000000E+02 0.  0.
<mgrwt>
<rscale>  0 0.37085003E+03</rscale>
<asrwt>0</asrwt>
<pdfrwt beam="1">  1        2 0.67061638E-01 0.37085003E+03</pdfrwt>
<pdfrwt beam="2">  1       -2 0.10463245E-01 0.37085003E+03</pdfrwt>
<totfact> 0.45047523E+03</totfact>
</mgrwt>
</event>
<event>
 4    1  0.5121375E-004  0.2385650E+03  0.7818608E-02  0.1120752E+00
         -2   -1    0    0    0  501 -0.00000000000E+00  0.00000000000E+00  0.52612997045E+02  0.52612997107E+02  0.25500000000E-02 0. -1.
          2   -1    0    0  501    0  0.00000000000E+00 -0.00000000000E+00 -0.27043346318E+03  0.27043346319E+03  0.25500000000E-02 0.  1.
    5000001    1    1    2    0    0  0.70913178459E+02  0.57077592257E+02 -0.10406849015E+03  0.15825858921E+03  0.77000000000E+02 0.  0.
   -5000001    1    1    2    0    0 -0.70913178459E+02 -0.57077592257E+02 -0.11375197598E+03  0.16478787109E+03  0.77000000000E+02 0.  0.
<mgrwt>
<rscale>  0 0.23856500E+03</rscale>
<asrwt>0</asrwt>
<pdfrwt beam="1">  1        2 0.38633351E-01 0.23856500E+03</pdfrwt>
<pdfrwt beam="2">  1       -2 0.75161426E-02 0.23856500E+03</pdfrwt>
<totfact> 0.13578928E+04</totfact>
</mgrwt>
</event>
<event>
 4    1  0.5121375E-004  0.2584877E+03  0.7818608E-02  0.1108055E+00
          2   -1    0    0  501    0  0.00000000000E+00  0.00000000000E+00  0.52974547270E+02  0.52974547332E+02  0.25500000000E-02 0.  1.
         -2   -1    0    0    0  501 -0.00000000000E+00 -0.00000000000E+00 -0.31532083746E+03  0.31532083747E+03  0.25500000000E-02 0. -1.
    5000001    1    1    2    0    0  0.34599163394E+02  0.69618225767E+02 -0.33169773902E+02  0.11433736645E+03  0.77000000000E+02 0.  0.
   -5000001    1    1    2    0    0 -0.34599163394E+02 -0.69618225767E+02 -0.22917651628E+03  0.25395801835E+03  0.77000000000E+02 0.  0.
<mgrwt>
<rscale>  0 0.25848775E+03</rscale>
<asrwt>0</asrwt>
<pdfrwt beam="1">  1        2 0.75677927E-02 0.25848775E+03</pdfrwt>
<pdfrwt beam="2">  1       -2 0.45045833E-01 0.25848775E+03</pdfrwt>
<totfact> 0.42821758E+03</totfact>
</mgrwt>
</event>
<event>
 4    1  0.5121375E-004  0.1994012E+03  0.7818608E-02  0.1150245E+00
         -2   -1    0    0    0  501 -0.00000000000E+00  0.00000000000E+00  0.38533102344E+02  0.38533102428E+02  0.25500000000E-02 0. -1.
          2   -1    0    0  501    0  0.00000000000E+00 -0.00000000000E+00 -0.25796536067E+03  0.25796536068E+03  0.25500000000E-02 0.  1.
    5000001    1    1    2    0    0  0.19027582064E+02 -0.45216647827E+02 -0.16927956224E+03  0.19233087196E+03  0.77000000000E+02 0.  0.
   -5000001    1    1    2    0    0 -0.19027582064E+02  0.45216647827E+02 -0.50152696089E+02  0.10416759114E+03  0.77000000000E+02 0.  0.
<mgrwt>
<rscale>  0 0.19940116E+03</rscale>
<asrwt>0</asrwt>
<pdfrwt beam="1">  1        2 0.36852193E-01 0.19940116E+03</pdfrwt>
<pdfrwt beam="2">  1       -2 0.55047291E-02 0.19940116E+03</pdfrwt>
<totfact> 0.22768157E+04</totfact>
</mgrwt>
</event>
<event>
 4    1  0.5121375E-004  0.2263708E+03  0.7818608E-02  0.1129221E+00
          2   -1    0    0  501    0  0.00000000000E+00  0.00000000000E+00  0.79537054648E+01  0.79537058736E+01  0.25500000000E-02 0.  1.
         -2   -1    0    0    0  501 -0.00000000000E+00 -0.00000000000E+00 -0.16106875886E+04  0.16106875886E+04  0.25500000000E-02 0. -1.
    5000001    1    1    2    0    0 -0.60681008050E+02 -0.19830402715E+02 -0.42256417067E+03  0.43424061065E+03  0.77000000000E+02 0.  0.
   -5000001    1    1    2    0    0  0.60681008050E+02  0.19830402715E+02 -0.11801697125E+04  0.11844006838E+04  0.77000000000E+02 0.  0.
<mgrwt>
<rscale>  0 0.22637080E+03</rscale>
<asrwt>0</asrwt>
<pdfrwt beam="1">  1        2 0.11362447E-02 0.22637080E+03</pdfrwt>
<pdfrwt beam="2">  1       -2 0.23009802E+00 0.22637080E+03</pdfrwt>
<totfact> 0.11283859E+03</totfact>
</mgrwt>
</event>
<event>
 4    1  0.5121375E-004  0.2640256E+03  0.7818608E-02  0.1104748E+00
         -2   -1    0    0    0  501 -0.00000000000E+00  0.00000000000E+00  0.15843729674E+02  0.15843729879E+02  0.25500000000E-02 0. -1.
          2   -1    0    0  501    0  0.00000000000E+00 -0.00000000000E+00 -0.10999546229E+04  0.10999546229E+04  0.25500000000E-02 0.  1.
    5000001    1    1    2    0    0  0.18459799815E+02 -0.60496079996E+02 -0.17611718571E+03  0.20235316406E+03  0.77000000000E+02 0.  0.
   -5000001    1    1    2    0    0 -0.18459799815E+02  0.60496079996E+02 -0.90799370749E+03  0.91344518869E+03  0.77000000000E+02 0.  0.
<mgrwt>
<rscale>  0 0.26402563E+03</rscale>
<asrwt>0</asrwt>
<pdfrwt beam="1">  1        2 0.15713633E+00 0.26402563E+03</pdfrwt>
<pdfrwt beam="2">  1       -2 0.22633907E-02 0.26402563E+03</pdfrwt>
<totfact> 0.16334588E+04</totfact>
</mgrwt>
</event>
<event>
 4    1  0.5121375E-004  0.1839928E+03  0.7818608E-02  0.1163994E+00
         -2   -1    0    0    0  501 -0.00000000000E+00  0.00000000000E+00  0.20833368839E+02  0.20833368995E+02  0.25500000000E-02 0. -1.
          2   -1    0    0  501    0  0.00000000000E+00 -0.00000000000E+00 -0.40623955459E+03  0.40623955460E+03  0.25500000000E-02 0.  1.
    5000001    1    1    2    0    0  0.28798139728E+02 -0.29533043050E+01 -0.28830144914E+03  0.29980790589E+03  0.77000000000E+02 0.  0.
   -5000001    1    1    2    0    0 -0.28798139728E+02  0.29533043050E+01 -0.97104736605E+02  0.12726501770E+03  0.77000000000E+02 0.  0.
<mgrwt>
<rscale>  0 0.18399281E+03</rscale>
<asrwt>0</asrwt>
<pdfrwt beam="1">  1        2 0.58034217E-01 0.18399281E+03</pdfrwt>
<pdfrwt beam="2">  1       -2 0.29761958E-02 0.18399281E+03</pdfrwt>
<totfact> 0.34920229E+04</totfact>
</mgrwt>
</event>
<event>
 4    1  0.5121375E-004  0.2617782E+03  0.7818608E-02  0.1106080E+00
         -2   -1    0    0    0  501 -0.00000000000E+00  0.00000000000E+00  0.12050768704E+02  0.12050768974E+02  0.25500000000E-02 0. -1.
          2   -1    0    0  501    0  0.00000000000E+00 -0.00000000000E+00 -0.14216481098E+04  0.14216481098E+04  0.25500000000E-02 0.  1.
    5000001    1    1    2    0    0 -0.47112689981E+02  0.94670347154E+02 -0.67977722711E+03  0.69224862491E+03  0.77000000000E+02 0.  0.
   -5000001    1    1    2    0    0  0.47112689981E+02 -0.94670347154E+02 -0.72982011403E+03  0.74145025391E+03  0.77000000000E+02 0.  0.
<mgrwt>
<rscale>  0 0.26177817E+03</rscale>
<asrwt>0</asrwt>
<pdfrwt beam="1">  1        2 0.20309248E+00 0.26177817E+03</pdfrwt>
<pdfrwt beam="2">  1       -2 0.17215393E-02 0.26177817E+03</pdfrwt>
<totfact> 0.16443939E+04</totfact>
</mgrwt>
</event>
<event>
 4    1  0.5121375E-004  0.1629830E+03  0.7818608E-02  0.1185370E+00
         -2   -1    0    0    0  501 -0.00000000000E+00  0.00000000000E+00  0.16815820526E+01  0.16815839861E+01  0.25500000000E-02 0. -1.
          2   -1    0    0  501    0  0.00000000000E+00 -0.00000000000E+00 -0.39491726162E+04  0.39491726162E+04  0.25500000000E-02 0.  1.
    5000001    1    1    2    0    0 -0.18255090562E+02  0.62418975341E+01 -0.24204968734E+04  0.24217981591E+04  0.77000000000E+02 0.  0.
   -5000001    1    1    2    0    0  0.18255090562E+02 -0.62418975341E+01 -0.15269941608E+04  0.15290560410E+04  0.77000000000E+02 0.  0.
<mgrwt>
<rscale>  0 0.16298296E+03</rscale>
<asrwt>0</asrwt>
<pdfrwt beam="1">  1        2 0.56416157E+00 0.16298296E+03</pdfrwt>
<pdfrwt beam="2">  1       -2 0.24022868E-03 0.16298296E+03</pdfrwt>
<totfact> 0.12976612E+04</totfact>
</mgrwt>
</event>
<event>
 4    1  0.5121375E-004  0.4469958E+03  0.7818608E-02  0.1028622E+00
         -2   -1    0    0    0  501 -0.00000000000E+00  0.00000000000E+00  0.86859194118E+02  0.86859194156E+02  0.25500000000E-02 0. -1.
          2   -1    0    0  501    0  0.00000000000E+00 -0.00000000000E+00 -0.57508387805E+03  0.57508387806E+03  0.25500000000E-02 0.  1.
    5000001    1    1    2    0    0  0.16236908948E+03  0.12821454266E+03 -0.19239555153E+03  0.29282714768E+03  0.77000000000E+02 0.  0.
   -5000001    1    1    2    0    0 -0.16236908948E+03 -0.12821454266E+03 -0.29582913240E+03  0.36911592454E+03  0.77000000000E+02 0.  0.
<mgrwt>
<rscale>  0 0.44699585E+03</rscale>
<asrwt>0</asrwt>
<pdfrwt beam="1">  1        2 0.82154838E-01 0.44699585E+03</pdfrwt>
<pdfrwt beam="2">  1       -2 0.12408457E-01 0.44699585E+03</pdfrwt>
<totfact> 0.27235656E+03</totfact>
</mgrwt>
</event>
<event>
 4    1  0.5121375E-004  0.2111075E+03  0.7818608E-02  0.1140692E+00
         -2   -1    0    0    0  501 -0.00000000000E+00  0.00000000000E+00  0.85634859263E+02  0.85634859301E+02  0.25500000000E-02 0. -1.
          2   -1    0    0  501    0  0.00000000000E+00 -0.00000000000E+00 -0.13010583564E+03  0.13010583566E+03  0.25500000000E-02 0.  1.
    5000001    1    1    2    0    0 -0.65699847641E+02 -0.21960949433E+02 -0.14459187885E+01  0.10358496011E+03  0.77000000000E+02 0.  0.
   -5000001    1    1    2    0    0  0.65699847641E+02  0.21960949433E+02 -0.43025057586E+02  0.11215573485E+03  0.77000000000E+02 0.  0.
<mgrwt>
<rscale>  0 0.21110751E+03</rscale>
<asrwt>0</asrwt>
<pdfrwt beam="1">  1        2 0.18586548E-01 0.21110751E+03</pdfrwt>
<pdfrwt beam="2">  1       -2 0.12233551E-01 0.21110751E+03</pdfrwt>
<totfact> 0.14042446E+04</totfact>
</mgrwt>
</event>
<event>
 4    1  0.5121375E-004  0.2358505E+03  0.7818608E-02  0.1122588E+00
          2   -1    0    0  501    0  0.00000000000E+00  0.00000000000E+00  0.14264984374E+04  0.14264984374E+04  0.25500000000E-02 0.  1.
         -2   -1    0    0    0  501 -0.00000000000E+00 -0.00000000000E+00 -0.97486020255E+01  0.97486023590E+01  0.25500000000E-02 0. -1.
    5000001    1    1    2    0    0  0.87245441852E+02 -0.71540082425E+01  0.81635573404E+03  0.82463848532E+03  0.77000000000E+02 0.  0.
   -5000001    1    1    2    0    0 -0.87245441852E+02  0.71540082425E+01  0.60039410132E+03  0.61160855444E+03  0.77000000000E+02 0.  0.
<mgrwt>
<rscale>  0 0.23585051E+03</rscale>
<asrwt>0</asrwt>
<pdfrwt beam="1">  1        2 0.20378541E+00 0.23585051E+03</pdfrwt>
<pdfrwt beam="2">  1       -2 0.13926580E-02 0.23585051E+03</pdfrwt>
<totfact> 0.22187247E+04</totfact>
</mgrwt>
</event>
<event>
 4    1  0.5121375E-004  0.2459000E+03  0.7818608E-02  0.1115924E+00
         -2   -1    0    0    0  501 -0.00000000000E+00  0.00000000000E+00  0.17199307713E+02  0.17199307902E+02  0.25500000000E-02 0. -1.
          2   -1    0    0  501    0  0.00000000000E+00 -0.00000000000E+00 -0.87891346214E+03  0.87891346215E+03  0.25500000000E-02 0.  1.
    5000001    1    1    2    0    0 -0.70784208219E+02 -0.64620539957E+02 -0.42641642805E+03  0.44378619675E+03  0.77000000000E+02 0.  0.
   -5000001    1    1    2    0    0  0.70784208219E+02  0.64620539957E+02 -0.43529772638E+03  0.45232657330E+03  0.77000000000E+02 0.  0.
<mgrwt>
<rscale>  0 0.24590001E+03</rscale>
<asrwt>0</asrwt>
<pdfrwt beam="1">  1        2 0.12555904E+00 0.24590001E+03</pdfrwt>
<pdfrwt beam="2">  1       -2 0.24570445E-02 0.24590001E+03</pdfrwt>
<totfact> 0.19513743E+04</totfact>
</mgrwt>
</event>
<event>
 4    1  0.5121375E-004  0.1898932E+03  0.7818608E-02  0.1158558E+00
          2   -1    0    0  501    0  0.00000000000E+00  0.00000000000E+00  0.67766735562E+03  0.67766735563E+03  0.25500000000E-02 0.  1.
         -2   -1    0    0    0  501 -0.00000000000E+00 -0.00000000000E+00 -0.13302776397E+02  0.13302776641E+02  0.25500000000E-02 0. -1.
    5000001    1    1    2    0    0  0.54764686298E+02 -0.89736646134E+01  0.34121328312E+03  0.35416832453E+03  0.77000000000E+02 0.  0.
   -5000001    1    1    2    0    0 -0.54764686298E+02  0.89736646134E+01  0.32315129611E+03  0.33680180774E+03  0.77000000000E+02 0.  0.
<mgrwt>
<rscale>  0 0.18989321E+03</rscale>
<asrwt>0</asrwt>
<pdfrwt beam="1">  1        2 0.96809600E-01 0.18989321E+03</pdfrwt>
<pdfrwt beam="2">  1       -2 0.19003971E-02 0.18989321E+03</pdfrwt>
<totfact> 0.38363106E+04</totfact>
</mgrwt>
</event>
<event>
 4    1  0.5121375E-004  0.1751218E+03  0.7818608E-02  0.1172609E+00
          2   -1    0    0  501    0  0.00000000000E+00  0.00000000000E+00  0.15088426014E+03  0.15088426016E+03  0.25500000000E-02 0.  1.
         -2   -1    0    0    0  501 -0.00000000000E+00 -0.00000000000E+00 -0.50813217255E+02  0.50813217319E+02  0.25500000000E-02 0. -1.
    5000001    1    1    2    0    0  0.37441146198E+02  0.12678655060E+02  0.34785005820E+02  0.93282283166E+02  0.77000000000E+02 0.  0.
   -5000001    1    1    2    0    0 -0.37441146198E+02 -0.12678655060E+02  0.65286037067E+02  0.10841519432E+03  0.77000000000E+02 0.  0.
<mgrwt>
<rscale>  0 0.17512184E+03</rscale>
<asrwt>0</asrwt>
<pdfrwt beam="1">  1        2 0.21554895E-01 0.17512184E+03</pdfrwt>
<pdfrwt beam="2">  1       -2 0.72590309E-02 0.17512184E+03</pdfrwt>
<totfact> 0.26580424E+04</totfact>
</mgrwt>
</event>
<event>
 4    1  0.5121375E-004  0.1006170E+04  0.7818608E-02  0.9301804E-01
         -2   -1    0    0    0  501 -0.00000000000E+00  0.00000000000E+00  0.26104638485E+03  0.26104638486E+03  0.25500000000E-02 0. -1.
          2   -1    0    0  501    0  0.00000000000E+00 -0.00000000000E+00 -0.96953769208E+03  0.96953769208E+03  0.25500000000E-02 0.  1.
    5000001    1    1    2    0    0  0.28245826373E+03  0.40684642128E+03 -0.40697305548E+03  0.64564909134E+03  0.77000000000E+02 0.  0.
   -5000001    1    1    2    0    0 -0.28245826373E+03 -0.40684642128E+03 -0.30151825175E+03  0.58493498561E+03  0.77000000000E+02 0.  0.
<mgrwt>
<rscale>  0 0.10061696E+04</rscale>
<asrwt>0</asrwt>
<pdfrwt beam="1">  1        2 0.13850538E+00 0.10061696E+04</pdfrwt>
<pdfrwt beam="2">  1       -2 0.37292341E-01 0.10061696E+04</pdfrwt>
<totfact> 0.19816537E+02</totfact>
</mgrwt>
</event>
<event>
 4    1  0.5121375E-004  0.3030026E+03  0.7818608E-02  0.1083749E+00
          2   -1    0    0  501    0  0.00000000000E+00  0.00000000000E+00  0.11599203218E+04  0.11599203218E+04  0.25500000000E-02 0.  1.
         -2   -1    0    0    0  501 -0.00000000000E+00 -0.00000000000E+00 -0.19788126475E+02  0.19788126639E+02  0.25500000000E-02 0. -1.
    5000001    1    1    2    0    0 -0.10383062558E+03  0.78965091571E+02  0.58063264908E+03  0.60006629440E+03  0.77000000000E+02 0.  0.
   -5000001    1    1    2    0    0  0.10383062558E+03 -0.78965091571E+02  0.55949954624E+03  0.57964215404E+03  0.77000000000E+02 0.  0.
<mgrwt>
<rscale>  0 0.30300264E+03</rscale>
<asrwt>0</asrwt>
<pdfrwt beam="1">  1        2 0.16570289E+00 0.30300264E+03</pdfrwt>
<pdfrwt beam="2">  1       -2 0.28268755E-02 0.30300264E+03</pdfrwt>
<totfact> 0.10930783E+04</totfact>
</mgrwt>
</event>
<event>
 4    1  0.5121375E-004  0.2264682E+03  0.7818608E-02  0.1129151E+00
         -2   -1    0    0    0  501 -0.00000000000E+00  0.00000000000E+00  0.10931906068E+02  0.10931906366E+02  0.25500000000E-02 0. -1.
          2   -1    0    0  501    0  0.00000000000E+00 -0.00000000000E+00 -0.11728934055E+04  0.11728934055E+04  0.25500000000E-02 0.  1.
    5000001    1    1    2    0    0 -0.32954865895E+00  0.63062235177E+02 -0.86325720609E+03  0.86897580977E+03  0.77000000000E+02 0.  0.
   -5000001    1    1    2    0    0  0.32954865895E+00 -0.63062235177E+02 -0.29870429335E+03  0.31484950210E+03  0.77000000000E+02 0.  0.
<mgrwt>
<rscale>  0 0.22646819E+03</rscale>
<asrwt>0</asrwt>
<pdfrwt beam="1">  1        2 0.16755612E+00 0.22646819E+03</pdfrwt>
<pdfrwt beam="2">  1       -2 0.15617016E-02 0.22646819E+03</pdfrwt>
<totfact> 0.25455313E+04</totfact>
</mgrwt>
</event>
<event>
 4    1  0.5121375E-004  0.3589034E+03  0.7818608E-02  0.1059019E+00
         -2   -1    0    0    0  501 -0.00000000000E+00  0.00000000000E+00  0.48776320752E+02  0.48776320819E+02  0.25500000000E-02 0. -1.
          2   -1    0    0  501    0  0.00000000000E+00 -0.00000000000E+00 -0.66021599392E+03  0.66021599393E+03  0.25500000000E-02 0.  1.
    5000001    1    1    2    0    0  0.82939581627E+01 -0.15841401695E+03 -0.37153838368E+03  0.41125850880E+03  0.77000000000E+02 0.  0.
   -5000001    1    1    2    0    0 -0.82939581627E+01  0.15841401695E+03 -0.23990128948E+03  0.29773380595E+03  0.77000000000E+02 0.  0.
<mgrwt>
<rscale>  0 0.35890337E+03</rscale>
<asrwt>0</asrwt>
<pdfrwt beam="1">  1        2 0.94316565E-01 0.35890337E+03</pdfrwt>
<pdfrwt beam="2">  1       -2 0.69680462E-02 0.35890337E+03</pdfrwt>
<totfact> 0.58049069E+03</totfact>
</mgrwt>
</event>
<event>
 4    1  0.5121375E-004  0.2060466E+03  0.7818608E-02  0.1144735E+00
         -2   -1    0    0    0  501 -0.00000000000E+00  0.00000000000E+00  0.41168030339E+01  0.41168038236E+01  0.25500000000E-02 0. -1.
          2   -1    0    0  501    0  0.00000000000E+00 -0.00000000000E+00 -0.25781662788E+04  0.25781662788E+04  0.25500000000E-02 0.  1.
    5000001    1    1    2    0    0  0.51737772455E+02 -0.27342552675E+02 -0.84209538394E+03  0.84763084414E+03  0.77000000000E+02 0.  0.
   -5000001    1    1    2    0    0 -0.51737772455E+02  0.27342552675E+02 -0.17319540918E+04  0.17346522385E+04  0.77000000000E+02 0.  0.
<mgrwt>
<rscale>  0 0.20604663E+03</rscale>
<asrwt>0</asrwt>
<pdfrwt beam="1">  1        2 0.36830844E+00 0.20604663E+03</pdfrwt>
<pdfrwt beam="2">  1       -2 0.58811642E-03 0.20604663E+03</pdfrwt>
<totfact> 0.20893282E+04</totfact>
</mgrwt>
</event>
<event>
 4    1  0.5121375E-004  0.2882876E+03  0.7818608E-02  0.1091247E+00
         -2   -1    0    0    0  501 -0.00000000000E+00  0.00000000000E+00  0.29130919040E+02  0.29130919151E+02  0.25500000000E-02 0. -1.
          2   -1    0    0  501    0  0.00000000000E+00 -0.00000000000E+00 -0.71324359161E+03  0.71324359162E+03  0.25500000000E-02 0.  1.
    5000001    1    1    2    0    0  0.67618243263E+02 -0.68776007316E+01 -0.81613887953E+02  0.13118443094E+03  0.77000000000E+02 0.  0.
   -5000001    1    1    2    0    0 -0.67618243263E+02  0.68776007316E+01 -0.60249878462E+03  0.61119007983E+03  0.77000000000E+02 0.  0.
<mgrwt>
<rscale>  0 0.28828764E+03</rscale>
<asrwt>0</asrwt>
<pdfrwt beam="1">  1        2 0.10189193E+00 0.28828764E+03</pdfrwt>
<pdfrwt beam="2">  1       -2 0.41615603E-02 0.28828764E+03</pdfrwt>
<totfact> 0.11590818E+04</totfact>
</mgrwt>
</event>
<event>
 4    1  0.5121375E-004  0.2147026E+03  0.7818608E-02  0.1137895E+00
          2   -1    0    0  501    0  0.00000000000E+00  0.00000000000E+00  0.49968520359E+02  0.49968520424E+02  0.25500000000E-02 0.  1.
         -2   -1    0    0    0  501 -0.00000000000E+00 -0.00000000000E+00 -0.23063118098E+03  0.23063118099E+03  0.25500000000E-02 0. -1.
    5000001    1    1    2    0    0  0.44809797395E+02 -0.39031554113E+02 -0.14970532195E+03  0.17852748690E+03  0.77000000000E+02 0.  0.
   -5000001    1    1    2    0    0 -0.44809797395E+02  0.39031554113E+02 -0.30957338674E+02  0.10207221452E+03  0.77000000000E+02 0.  0.
<mgrwt>
<rscale>  0 0.21470257E+03</rscale>
<asrwt>0</asrwt>
<pdfrwt beam="1">  1        2 0.71383602E-02 0.21470257E+03</pdfrwt>
<pdfrwt beam="2">  1       -2 0.32947311E-01 0.21470257E+03</pdfrwt>
<totfact> 0.82650606E+03</totfact>
</mgrwt>
</event>
<event>
 4    1  0.5121375E-004  0.2415671E+03  0.7818608E-02  0.1118753E+00
          2   -1    0    0  501    0  0.00000000000E+00  0.00000000000E+00  0.96054488831E+03  0.96054488831E+03  0.25500000000E-02 0.  1.
         -2   -1    0    0    0  501 -0.00000000000E+00 -0.00000000000E+00 -0.15187908352E+02  0.15187908566E+02  0.25500000000E-02 0. -1.
    5000001    1    1    2    0    0 -0.59473950963E+02 -0.71415108001E+02  0.45356188637E+03  0.46934491929E+03  0.77000000000E+02 0.  0.
   -5000001    1    1    2    0    0  0.59473950963E+02  0.71415108001E+02  0.49179509358E+03  0.50638787759E+03  0.77000000000E+02 0.  0.
<mgrwt>
<rscale>  0 0.24156712E+03</rscale>
<asrwt>0</asrwt>
<pdfrwt beam="1">  1        2 0.13722075E+00 0.24156712E+03</pdfrwt>
<pdfrwt beam="2">  1       -2 0.21697004E-02 0.24156712E+03</pdfrwt>
<totfact> 0.20857555E+04</totfact>
</mgrwt>
</event>
<event>
 4    1  0.5121375E-004  0.2342989E+03  0.7818608E-02  0.1123650E+00
         -2   -1    0    0    0  501 -0.00000000000E+00  0.00000000000E+00  0.23372695042E+02  0.23372695181E+02  0.25500000000E-02 0. -1.
          2   -1    0    0  501    0  0.00000000000E+00 -0.00000000000E+00 -0.58718039689E+03  0.58718039689E+03  0.25500000000E-02 0.  1.
    5000001    1    1    2    0    0  0.81178534634E+02  0.31054781620E+02 -0.32232718847E+03  0.34260497716E+03  0.77000000000E+02 0.  0.
   -5000001    1    1    2    0    0 -0.81178534634E+02 -0.31054781620E+02 -0.24148051338E+03  0.26794811492E+03  0.77000000000E+02 0.  0.
<mgrwt>
<rscale>  0 0.23429886E+03</rscale>
<asrwt>0</asrwt>
<pdfrwt beam="1">  1        2 0.83882905E-01 0.23429886E+03</pdfrwt>
<pdfrwt beam="2">  1       -2 0.33389568E-02 0.23429886E+03</pdfrwt>
<totfact> 0.20008176E+04</totfact>
</mgrwt>
</event>
<event>
 4    1  0.5121375E-004  0.2950988E+03  0.7818608E-02  0.1087717E+00
          2   -1    0    0  501    0  0.00000000000E+00  0.00000000000E+00  0.79092514758E+03  0.79092514758E+03  0.25500000000E-02 0.  1.
         -2   -1    0    0    0  501 -0.00000000000E+00 -0.00000000000E+00 -0.27525771126E+02  0.27525771244E+02  0.25500000000E-02 0. -1.
    5000001    1    1    2    0    0 -0.75178992707E+02 -0.71984102186E+02  0.57797580454E+03  0.59229943655E+03  0.77000000000E+02 0.  0.
   -5000001    1    1    2    0    0  0.75178992707E+02  0.71984102186E+02  0.18542357191E+03  0.22615148227E+03  0.77000000000E+02 0.  0.
<mgrwt>
<rscale>  0 0.29509879E+03</rscale>
<asrwt>0</asrwt>
<pdfrwt beam="1">  1        2 0.11298931E+00 0.29509879E+03</pdfrwt>
<pdfrwt beam="2">  1       -2 0.39322527E-02 0.29509879E+03</pdfrwt>
<totfact> 0.11143084E+04</totfact>
</mgrwt>
</event>
<event>
 4    1  0.5121375E-004  0.3555590E+03  0.7818608E-02  0.1060356E+00
          2   -1    0    0  501    0  0.00000000000E+00  0.00000000000E+00  0.15537839094E+04  0.15537839094E+04  0.25500000000E-02 0.  1.
         -2   -1    0    0    0  501 -0.00000000000E+00 -0.00000000000E+00 -0.20341025263E+02  0.20341025423E+02  0.25500000000E-02 0. -1.
    5000001    1    1    2    0    0 -0.51407877068E+02 -0.11953250641E+03  0.35269655449E+03  0.38373773526E+03  0.77000000000E+02 0.  0.
   -5000001    1    1    2    0    0  0.51407877068E+02  0.11953250641E+03  0.11807463296E+04  0.11903871995E+04  0.77000000000E+02 0.  0.
<mgrwt>
<rscale>  0 0.35555904E+03</rscale>
<asrwt>0</asrwt>
<pdfrwt beam="1">  1        2 0.22196918E+00 0.35555904E+03</pdfrwt>
<pdfrwt beam="2">  1       -2 0.29058601E-02 0.35555904E+03</pdfrwt>
<totfact> 0.65337931E+03</totfact>
</mgrwt>
</event>
<event>
 4    1  0.5121375E-004  0.2940404E+03  0.7818608E-02  0.1088258E+00
         -2   -1    0    0    0  501 -0.00000000000E+00  0.00000000000E+00  0.14064657672E+02  0.14064657904E+02  0.25500000000E-02 0. -1.
          2   -1    0    0  501    0  0.00000000000E+00 -0.00000000000E+00 -0.15368261960E+04  0.15368261960E+04  0.25500000000E-02 0.  1.
    5000001    1    1    2    0    0  0.12417105420E+03 -0.71172703507E+01 -0.83904700392E+03  0.85170298874E+03  0.77000000000E+02 0.  0.
   -5000001    1    1    2    0    0 -0.12417105420E+03  0.71172703507E+01 -0.68371453444E+03  0.69918786520E+03  0.77000000000E+02 0.  0.
<mgrwt>
<rscale>  0 0.29404037E+03</rscale>
<asrwt>0</asrwt>
<pdfrwt beam="1">  1        2 0.21954649E+00 0.29404037E+03</pdfrwt>
<pdfrwt beam="2">  1       -2 0.20092378E-02 0.29404037E+03</pdfrwt>
<totfact> 0.11493593E+04</totfact>
</mgrwt>
</event>
<event>
 4    1  0.5121375E-004  0.2553618E+03  0.7818608E-02  0.1109962E+00
          2   -1    0    0  501    0  0.00000000000E+00  0.00000000000E+00  0.64532884217E+02  0.64532884267E+02  0.25500000000E-02 0.  1.
         -2   -1    0    0    0  501 -0.00000000000E+00 -0.00000000000E+00 -0.25262176955E+03  0.25262176957E+03  0.25500000000E-02 0. -1.
    5000001    1    1    2    0    0 -0.15754731653E+02 -0.92594614094E+02 -0.14296397322E+03  0.18758910354E+03  0.77000000000E+02 0.  0.
   -5000001    1    1    2    0    0  0.15754731653E+02  0.92594614094E+02 -0.45124912115E+02  0.12956555029E+03  0.77000000000E+02 0.  0.
<mgrwt>
<rscale>  0 0.25536179E+03</rscale>
<asrwt>0</asrwt>
<pdfrwt beam="1">  1        2 0.92189836E-02 0.25536179E+03</pdfrwt>
<pdfrwt beam="2">  1       -2 0.36088824E-01 0.25536179E+03</pdfrwt>
<totfact> 0.50947281E+03</totfact>
</mgrwt>
</event>
<event>
 4    1  0.5121375E-004  0.2750076E+03  0.7818608E-02  0.1098447E+00
          2   -1    0    0  501    0  0.00000000000E+00  0.00000000000E+00  0.22393411561E+04  0.22393411561E+04  0.25500000000E-02 0.  1.
         -2   -1    0    0    0  501 -0.00000000000E+00 -0.00000000000E+00 -0.84432392614E+01  0.84432396464E+01  0.25500000000E-02 0. -1.
    5000001    1    1    2    0    0  0.10866007251E+02  0.78182691354E+02  0.44403936596E+03  0.45752656957E+03  0.77000000000E+02 0.  0.
   -5000001    1    1    2    0    0 -0.10866007251E+02 -0.78182691354E+02  0.17868585509E+04  0.17902578262E+04  0.77000000000E+02 0.  0.
<mgrwt>
<rscale>  0 0.27500759E+03</rscale>
<asrwt>0</asrwt>
<pdfrwt beam="1">  1        2 0.31990581E+00 0.27500759E+03</pdfrwt>
<pdfrwt beam="2">  1       -2 0.12061773E-02 0.27500759E+03</pdfrwt>
<totfact> 0.10948286E+04</totfact>
</mgrwt>
</event>
<event>
 4    1  0.5121375E-004  0.2444360E+03  0.7818608E-02  0.1116872E+00
         -2   -1    0    0    0  501 -0.00000000000E+00  0.00000000000E+00  0.43461946088E+03  0.43461946089E+03  0.25500000000E-02 0. -1.
          2   -1    0    0  501    0  0.00000000000E+00 -0.00000000000E+00 -0.34368557244E+02  0.34368557339E+02  0.25500000000E-02 0.  1.
    5000001    1    1    2    0    0 -0.70375959319E+02  0.58095021475E+02  0.25017387199E+03  0.27720709478E+03  0.77000000000E+02 0.  0.
   -5000001    1    1    2    0    0  0.70375959319E+02 -0.58095021475E+02  0.15007703165E+03  0.19178092345E+03  0.77000000000E+02 0.  0.
<mgrwt>
<rscale>  0 0.24443604E+03</rscale>
<asrwt>0</asrwt>
<pdfrwt beam="1">  1        2 0.49097946E-02 0.24443604E+03</pdfrwt>
<pdfrwt beam="2">  1       -2 0.62088486E-01 0.24443604E+03</pdfrwt>
<totfact> 0.39256987E+03</totfact>
</mgrwt>
</event>
<event>
 4    1  0.5121375E-004  0.2155270E+03  0.7818608E-02  0.1137262E+00
         -2   -1    0    0    0  501 -0.00000000000E+00  0.00000000000E+00  0.10846273243E+02  0.10846273543E+02  0.25500000000E-02 0. -1.
          2   -1    0    0  501    0  0.00000000000E+00 -0.00000000000E+00 -0.10706881573E+04  0.10706881573E+04  0.25500000000E-02 0.  1.
    5000001    1    1    2    0    0 -0.33932530947E+02  0.61977748708E+02 -0.39798058172E+03  0.41147320863E+03  0.77000000000E+02 0.  0.
   -5000001    1    1    2    0    0  0.33932530947E+02 -0.61977748708E+02 -0.66186130234E+03  0.67006122222E+03  0.77000000000E+02 0.  0.
<mgrwt>
<rscale>  0 0.21552704E+03</rscale>
<asrwt>0</asrwt>
<pdfrwt beam="1">  1        2 0.15295538E+00 0.21552704E+03</pdfrwt>
<pdfrwt beam="2">  1       -2 0.15494683E-02 0.21552704E+03</pdfrwt>
<totfact> 0.29251566E+04</totfact>
</mgrwt>
</event>
<event>
 4    1  0.5121375E-004  0.1681729E+03  0.7818608E-02  0.1179767E+00
         -2   -1    0    0    0  501 -0.00000000000E+00  0.00000000000E+00  0.67351158631E+01  0.67351163459E+01  0.25500000000E-02 0. -1.
          2   -1    0    0  501    0  0.00000000000E+00 -0.00000000000E+00 -0.10498004186E+04  0.10498004186E+04  0.25500000000E-02 0.  1.
    5000001    1    1    2    0    0  0.73991959246E+01  0.19809442732E+02 -0.35598527853E+03  0.36483103027E+03  0.77000000000E+02 0.  0.
   -5000001    1    1    2    0    0 -0.73991959246E+01 -0.19809442732E+02 -0.68708002421E+03  0.69170450468E+03  0.77000000000E+02 0.  0.
<mgrwt>
<rscale>  0 0.16817286E+03</rscale>
<asrwt>0</asrwt>
<pdfrwt beam="1">  1        2 0.14997138E+00 0.16817286E+03</pdfrwt>
<pdfrwt beam="2">  1       -2 0.96216011E-03 0.16817286E+03</pdfrwt>
<totfact> 0.58722107E+04</totfact>
</mgrwt>
</event>
<event>
 4    1  0.5121375E-004  0.1862026E+03  0.7818608E-02  0.1161932E+00
          2   -1    0    0  501    0  0.00000000000E+00  0.00000000000E+00  0.81304548359E+03  0.81304548360E+03  0.25500000000E-02 0.  1.
         -2   -1    0    0    0  501 -0.00000000000E+00 -0.00000000000E+00 -0.10660971160E+02  0.10660971465E+02  0.25500000000E-02 0. -1.
    5000001    1    1    2    0    0 -0.13871081408E+02  0.48084987776E+02  0.46890271934E+03  0.47781098057E+03  0.77000000000E+02 0.  0.
   -5000001    1    1    2    0    0  0.13871081408E+02 -0.48084987776E+02  0.33348179309E+03  0.34589547449E+03  0.77000000000E+02 0.  0.
<mgrwt>
<rscale>  0 0.18620263E+03</rscale>
<asrwt>0</asrwt>
<pdfrwt beam="1">  1        2 0.11614938E+00 0.18620263E+03</pdfrwt>
<pdfrwt beam="2">  1       -2 0.15229956E-02 0.18620263E+03</pdfrwt>
<totfact> 0.42513456E+04</totfact>
</mgrwt>
</event>
<event>
 4    1  0.5121375E-004  0.3978244E+03  0.7818608E-02  0.1044536E+00
          2   -1    0    0  501    0  0.00000000000E+00  0.00000000000E+00  0.84015280980E+02  0.84015281019E+02  0.25500000000E-02 0.  1.
         -2   -1    0    0    0  501 -0.00000000000E+00 -0.00000000000E+00 -0.47093877836E+03  0.47093877836E+03  0.25500000000E-02 0. -1.
    5000001    1    1    2    0    0 -0.15652282928E+03  0.83115076451E+02 -0.12759390046E+03  0.23155283512E+03  0.77000000000E+02 0.  0.
   -5000001    1    1    2    0    0  0.15652282928E+03 -0.83115076451E+02 -0.25932959691E+03  0.32340122426E+03  0.77000000000E+02 0.  0.
<mgrwt>
<rscale>  0 0.39782435E+03</rscale>
<asrwt>0</asrwt>
<pdfrwt beam="1">  1        2 0.12002183E-01 0.39782435E+03</pdfrwt>
<pdfrwt beam="2">  1       -2 0.67276967E-01 0.39782435E+03</pdfrwt>
<totfact> 0.10691787E+03</totfact>
</mgrwt>
</event>
<event>
 4    1  0.5121375E-004  0.3663270E+03  0.7818608E-02  0.1056106E+00
         -2   -1    0    0    0  501 -0.00000000000E+00  0.00000000000E+00  0.45566710728E+02  0.45566710800E+02  0.25500000000E-02 0. -1.
          2   -1    0    0  501    0  0.00000000000E+00 -0.00000000000E+00 -0.73625822336E+03  0.73625822336E+03  0.25500000000E-02 0.  1.
    5000001    1    1    2    0    0 -0.12498748169E+03 -0.90955590189E+02 -0.47560487771E+03  0.50598793431E+03  0.77000000000E+02 0.  0.
   -5000001    1    1    2    0    0  0.12498748169E+03  0.90955590189E+02 -0.21508663492E+03  0.27583699985E+03  0.77000000000E+02 0.  0.
<mgrwt>
<rscale>  0 0.36632699E+03</rscale>
<asrwt>0</asrwt>
<pdfrwt beam="1">  1        2 0.10517974E+00 0.36632699E+03</pdfrwt>
<pdfrwt beam="2">  1       -2 0.65095305E-02 0.36632699E+03</pdfrwt>
<totfact> 0.56653268E+03</totfact>
</mgrwt>
</event>
<event>
 4    1  0.5121375E-004  0.2427415E+03  0.7818608E-02  0.1117980E+00
         -2   -1    0    0    0  501 -0.00000000000E+00  0.00000000000E+00  0.12110050114E+02  0.12110050383E+02  0.25500000000E-02 0. -1.
          2   -1    0    0  501    0  0.00000000000E+00 -0.00000000000E+00 -0.12164157238E+04  0.12164157238E+04  0.25500000000E-02 0.  1.
    5000001    1    1    2    0    0 -0.71639421739E+02 -0.33167656215E+02 -0.85870122008E+03  0.86575347850E+03  0.77000000000E+02 0.  0.
   -5000001    1    1    2    0    0  0.71639421739E+02  0.33167656215E+02 -0.34560445360E+03  0.36277229569E+03  0.77000000000E+02 0.  0.
<mgrwt>
<rscale>  0 0.24274147E+03</rscale>
<asrwt>0</asrwt>
<pdfrwt beam="1">  1        2 0.17377360E+00 0.24274147E+03</pdfrwt>
<pdfrwt beam="2">  1       -2 0.17300079E-02 0.24274147E+03</pdfrwt>
<totfact> 0.20840005E+04</totfact>
</mgrwt>
</event>
<event>
 4    1  0.5121375E-004  0.2030316E+03  0.7818608E-02  0.1147206E+00
         -2   -1    0    0    0  501 -0.00000000000E+00  0.00000000000E+00  0.87869611553E+01  0.87869615253E+01  0.25500000000E-02 0. -1.
          2   -1    0    0  501    0  0.00000000000E+00 -0.00000000000E+00 -0.11728120683E+04  0.11728120683E+04  0.25500000000E-02 0.  1.
    5000001    1    1    2    0    0  0.26196852173E+02  0.59961099935E+02 -0.52533442932E+03  0.53496436442E+03  0.77000000000E+02 0.  0.
   -5000001    1    1    2    0    0 -0.26196852173E+02 -0.59961099935E+02 -0.63869067786E+03  0.64663466544E+03  0.77000000000E+02 0.  0.
<mgrwt>
<rscale>  0 0.20303157E+03</rscale>
<asrwt>0</asrwt>
<pdfrwt beam="1">  1        2 0.16754448E+00 0.20303157E+03</pdfrwt>
<pdfrwt beam="2">  1       -2 0.12552809E-02 0.20303157E+03</pdfrwt>
<totfact> 0.34728219E+04</totfact>
</mgrwt>
</event>
<event>
 4    1  0.5121375E-004  0.3540778E+03  0.7818608E-02  0.1060954E+00
         -2   -1    0    0    0  501 -0.00000000000E+00  0.00000000000E+00  0.81991285291E+02  0.81991285331E+02  0.25500000000E-02 0. -1.
          2   -1    0    0  501    0  0.00000000000E+00 -0.00000000000E+00 -0.38226950615E+03  0.38226950615E+03  0.25500000000E-02 0.  1.
    5000001    1    1    2    0    0  0.52326218609E+02  0.10332669572E+03 -0.65102164067E+01  0.13923297785E+03  0.77000000000E+02 0.  0.
   -5000001    1    1    2    0    0 -0.52326218609E+02 -0.10332669572E+03 -0.29376800445E+03  0.32502781364E+03  0.77000000000E+02 0.  0.
<mgrwt>
<rscale>  0 0.35407778E+03</rscale>
<asrwt>0</asrwt>
<pdfrwt beam="1">  1        2 0.54609928E-01 0.35407778E+03</pdfrwt>
<pdfrwt beam="2">  1       -2 0.11713041E-01 0.35407778E+03</pdfrwt>
<totfact> 0.46991246E+03</totfact>
</mgrwt>
</event>
<event>
 4    1  0.5121375E-004  0.2450195E+03  0.7818608E-02  0.1116493E+00
         -2   -1    0    0    0  501 -0.00000000000E+00  0.00000000000E+00  0.18014615023E+02  0.18014615203E+02  0.25500000000E-02 0. -1.
          2   -1    0    0  501    0  0.00000000000E+00 -0.00000000000E+00 -0.83313683483E+03  0.83313683483E+03  0.25500000000E-02 0.  1.
    5000001    1    1    2    0    0 -0.70830231876E+02 -0.61503932378E+02 -0.34943479743E+03  0.36990989862E+03  0.77000000000E+02 0.  0.
   -5000001    1    1    2    0    0  0.70830231876E+02  0.61503932378E+02 -0.46568742237E+03  0.48124155141E+03  0.77000000000E+02 0.  0.
<mgrwt>
<rscale>  0 0.24501950E+03</rscale>
<asrwt>0</asrwt>
<pdfrwt beam="1">  1        2 0.11901952E+00 0.24501950E+03</pdfrwt>
<pdfrwt beam="2">  1       -2 0.25735170E-02 0.24501950E+03</pdfrwt>
<totfact> 0.19496291E+04</totfact>
</mgrwt>
</event>
<event>
 4    1  0.5121375E-004  0.1791335E+03  0.7818608E-02  0.1168644E+00
          2   -1    0    0  501    0  0.00000000000E+00  0.00000000000E+00  0.14810700308E+03  0.14810700310E+03  0.25500000000E-02 0.  1.
         -2   -1    0    0    0  501 -0.00000000000E+00 -0.00000000000E+00 -0.54164914061E+02  0.54164914121E+02  0.25500000000E-02 0. -1.
    5000001    1    1    2    0    0  0.27802988763E+02  0.25806607317E+02  0.75852516788E+02  0.11454951536E+03  0.77000000000E+02 0.  0.
   -5000001    1    1    2    0    0 -0.27802988763E+02 -0.25806607317E+02  0.18089572229E+02  0.87722401864E+02  0.77000000000E+02 0.  0.
<mgrwt>
<rscale>  0 0.17913350E+03</rscale>
<asrwt>0</asrwt>
<pdfrwt beam="1">  1        2 0.21158143E-01 0.17913350E+03</pdfrwt>
<pdfrwt beam="2">  1       -2 0.77378450E-02 0.17913350E+03</pdfrwt>
<totfact> 0.24643038E+04</totfact>
</mgrwt>
</event>
<event>
 4    1  0.5121375E-004  0.3019959E+03  0.7818608E-02  0.1084247E+00
          2   -1    0    0  501    0  0.00000000000E+00  0.00000000000E+00  0.10750773091E+04  0.10750773091E+04  0.25500000000E-02 0.  1.
         -2   -1    0    0    0  501 -0.00000000000E+00 -0.00000000000E+00 -0.21208128512E+02  0.21208128665E+02  0.25500000000E-02 0. -1.
    5000001    1    1    2    0    0 -0.10855134136E+03 -0.25761360312E+02  0.76839542595E+03  0.78026122037E+03  0.77000000000E+02 0.  0.
   -5000001    1    1    2    0    0  0.10855134136E+03  0.25761360312E+02  0.28547375469E+03  0.31602421745E+03  0.77000000000E+02 0.  0.
<mgrwt>
<rscale>  0 0.30199588E+03</rscale>
<asrwt>0</asrwt>
<pdfrwt beam="1">  1        2 0.15358255E+00 0.30199588E+03</pdfrwt>
<pdfrwt beam="2">  1       -2 0.30297311E-02 0.30199588E+03</pdfrwt>
<totfact> 0.11000096E+04</totfact>
</mgrwt>
</event>
<event>
 4    1  0.5121375E-004  0.5498313E+03  0.7818608E-02  0.1001533E+00
         -2   -1    0    0    0  501 -0.00000000000E+00  0.00000000000E+00  0.80847374392E+02  0.80847374432E+02  0.25500000000E-02 0. -1.
          2   -1    0    0  501    0  0.00000000000E+00 -0.00000000000E+00 -0.93483064301E+03  0.93483064301E+03  0.25500000000E-02 0.  1.
    5000001    1    1    2    0    0 -0.24862262321E+03  0.25946941421E+02 -0.27064855399E+03  0.37638556338E+03  0.77000000000E+02 0.  0.
   -5000001    1    1    2    0    0  0.24862262321E+03 -0.25946941421E+02 -0.58333471463E+03  0.63929245407E+03  0.77000000000E+02 0.  0.
<mgrwt>
<rscale>  0 0.54983126E+03</rscale>
<asrwt>0</asrwt>
<pdfrwt beam="1">  1        2 0.13354723E+00 0.54983126E+03</pdfrwt>
<pdfrwt beam="2">  1       -2 0.11549625E-01 0.54983126E+03</pdfrwt>
<totfact> 0.16781370E+03</totfact>
</mgrwt>
</event>
<event>
 4    1  0.5121375E-004  0.1697460E+03  0.7818608E-02  0.1178113E+00
         -2   -1    0    0    0  501 -0.00000000000E+00  0.00000000000E+00  0.22375210776E+02  0.22375210921E+02  0.25500000000E-02 0. -1.
          2   -1    0    0  501    0  0.00000000000E+00 -0.00000000000E+00 -0.32193768622E+03  0.32193768623E+03  0.25500000000E-02 0.  1.
    5000001    1    1    2    0    0  0.32555454049E+02  0.11665351148E+02 -0.16775126879E+03  0.18779091082E+03  0.77000000000E+02 0.  0.
   -5000001    1    1    2    0    0 -0.32555454049E+02 -0.11665351148E+02 -0.13181120665E+03  0.15652198633E+03  0.77000000000E+02 0.  0.
<mgrwt>
<rscale>  0 0.16974597E+03</rscale>
<asrwt>0</asrwt>
<pdfrwt beam="1">  1        2 0.45991095E-01 0.16974597E+03</pdfrwt>
<pdfrwt beam="2">  1       -2 0.31964589E-02 0.16974597E+03</pdfrwt>
<totfact> 0.39982540E+04</totfact>
</mgrwt>
</event>
<event>
 4    1  0.5121375E-004  0.2907041E+03  0.7818608E-02  0.1089982E+00
         -2   -1    0    0    0  501 -0.00000000000E+00  0.00000000000E+00  0.13529798816E+02  0.13529799056E+02  0.25500000000E-02 0. -1.
          2   -1    0    0  501    0  0.00000000000E+00 -0.00000000000E+00 -0.15615318679E+04  0.15615318679E+04  0.25500000000E-02 0.  1.
    5000001    1    1    2    0    0 -0.76062287822E+02  0.94925488864E+02 -0.88261889087E+03  0.89428263238E+03  0.77000000000E+02 0.  0.
   -5000001    1    1    2    0    0  0.76062287822E+02 -0.94925488864E+02 -0.66538317824E+03  0.68077903460E+03  0.77000000000E+02 0.  0.
<mgrwt>
<rscale>  0 0.29070406E+03</rscale>
<asrwt>0</asrwt>
<pdfrwt beam="1">  1        2 0.22307587E+00 0.29070406E+03</pdfrwt>
<pdfrwt beam="2">  1       -2 0.19328294E-02 0.29070406E+03</pdfrwt>
<totfact> 0.11823038E+04</totfact>
</mgrwt>
</event>
<event>
 4    1  0.5121375E-004  0.4377371E+03  0.7818608E-02  0.1031443E+00
          2   -1    0    0  501    0  0.00000000000E+00  0.00000000000E+00  0.32466947757E+03  0.32466947758E+03  0.25500000000E-02 0.  1.
         -2   -1    0    0    0  501 -0.00000000000E+00 -0.00000000000E+00 -0.14754524651E+03  0.14754524653E+03  0.25500000000E-02 0. -1.
    5000001    1    1    2    0    0  0.70073831268E+02 -0.66555437359E+02  0.28344085820E+03  0.30920492908E+03  0.77000000000E+02 0.  0.
   -5000001    1    1    2    0    0 -0.70073831268E+02  0.66555437359E+02 -0.10631662714E+03  0.16300979503E+03  0.77000000000E+02 0.  0.
<mgrwt>
<rscale>  0 0.43773708E+03</rscale>
<asrwt>0</asrwt>
<pdfrwt beam="1">  1        2 0.46381354E-01 0.43773708E+03</pdfrwt>
<pdfrwt beam="2">  1       -2 0.21077892E-01 0.43773708E+03</pdfrwt>
<totfact> 0.21040455E+03</totfact>
</mgrwt>
</event>
<event>
 4    1  0.5121375E-004  0.1728591E+03  0.7818608E-02  0.1174899E+00
          2   -1    0    0  501    0  0.00000000000E+00  0.00000000000E+00  0.50886723683E+03  0.50886723683E+03  0.25500000000E-02 0.  1.
         -2   -1    0    0    0  501 -0.00000000000E+00 -0.00000000000E+00 -0.14679790022E+02  0.14679790243E+02  0.25500000000E-02 0. -1.
    5000001    1    1    2    0    0  0.22496364284E+02  0.30617576247E+02  0.27700666058E+03  0.29000898674E+03  0.77000000000E+02 0.  0.
   -5000001    1    1    2    0    0 -0.22496364284E+02 -0.30617576247E+02  0.21718078622E+03  0.23353804034E+03  0.77000000000E+02 0.  0.
<mgrwt>
<rscale>  0 0.17285907E+03</rscale>
<asrwt>0</asrwt>
<pdfrwt beam="1">  1        2 0.72695321E-01 0.17285907E+03</pdfrwt>
<pdfrwt beam="2">  1       -2 0.20971128E-02 0.17285907E+03</pdfrwt>
<totfact> 0.45490681E+04</totfact>
</mgrwt>
</event>
<event>
 4    1  0.5121375E-004  0.1719059E+03  0.7818608E-02  0.1175875E+00
         -2   -1    0    0    0  501 -0.00000000000E+00  0.00000000000E+00  0.37222163000E+02  0.37222163087E+02  0.25500000000E-02 0. -1.
          2   -1    0    0  501    0  0.00000000000E+00 -0.00000000000E+00 -0.19848140773E+03  0.19848140775E+03  0.25500000000E-02 0.  1.
    5000001    1    1    2    0    0  0.27442728261E+02  0.24188555859E+02 -0.65564903865E+02  0.10754508909E+03  0.77000000000E+02 0.  0.
   -5000001    1    1    2    0    0 -0.27442728261E+02 -0.24188555859E+02 -0.95694340869E+02  0.12815848175E+03  0.77000000000E+02 0.  0.
<mgrwt>
<rscale>  0 0.17190587E+03</rscale>
<asrwt>0</asrwt>
<pdfrwt beam="1">  1        2 0.28354486E-01 0.17190587E+03</pdfrwt>
<pdfrwt beam="2">  1       -2 0.53174520E-02 0.17190587E+03</pdfrwt>
<totfact> 0.31474972E+04</totfact>
</mgrwt>
</event>
<event>
 4    1  0.5121375E-004  0.4782711E+03  0.7818608E-02  0.1019611E+00
         -2   -1    0    0    0  501 -0.00000000000E+00  0.00000000000E+00  0.29534815668E+02  0.29534815778E+02  0.25500000000E-02 0. -1.
          2   -1    0    0  501    0  0.00000000000E+00 -0.00000000000E+00 -0.19362169255E+04  0.19362169255E+04  0.25500000000E-02 0.  1.
    5000001    1    1    2    0    0  0.10866326756E+03  0.16241100020E+03 -0.14232587041E+04  0.14386727833E+04  0.77000000000E+02 0.  0.
   -5000001    1    1    2    0    0 -0.10866326756E+03 -0.16241100020E+03 -0.48342340575E+03  0.52707895796E+03  0.77000000000E+02 0.  0.
<mgrwt>
<rscale>  0 0.47827110E+03</rscale>
<asrwt>0</asrwt>
<pdfrwt beam="1">  1        2 0.27660234E+00 0.47827110E+03</pdfrwt>
<pdfrwt beam="2">  1       -2 0.42192606E-02 0.47827110E+03</pdfrwt>
<totfact> 0.23879139E+03</totfact>
</mgrwt>
</event>
<event>
 4    1  0.5121375E-004  0.1881269E+03  0.7818608E-02  0.1160162E+00
          2   -1    0    0  501    0  0.00000000000E+00  0.00000000000E+00  0.56908486519E+03  0.56908486519E+03  0.25500000000E-02 0.  1.
         -2   -1    0    0    0  501 -0.00000000000E+00 -0.00000000000E+00 -0.15547648525E+02  0.15547648734E+02  0.25500000000E-02 0. -1.
    5000001    1    1    2    0    0  0.12587511704E+02 -0.51072635274E+02  0.31509136353E+03  0.32860071043E+03  0.77000000000E+02 0.  0.
   -5000001    1    1    2    0    0 -0.12587511704E+02  0.51072635274E+02  0.23844585313E+03  0.25603180349E+03  0.77000000000E+02 0.  0.
<mgrwt>
<rscale>  0 0.18812689E+03</rscale>
<asrwt>0</asrwt>
<pdfrwt beam="1">  1        2 0.81297860E-01 0.18812689E+03</pdfrwt>
<pdfrwt beam="2">  1       -2 0.22210920E-02 0.18812689E+03</pdfrwt>
<totfact> 0.37240051E+04</totfact>
</mgrwt>
</event>
<event>
 4    1  0.5121375E-004  0.2719019E+03  0.7818608E-02  0.1100196E+00
          2   -1    0    0  501    0  0.00000000000E+00  0.00000000000E+00  0.70925984165E+03  0.70925984166E+03  0.25500000000E-02 0.  1.
         -2   -1    0    0    0  501 -0.00000000000E+00 -0.00000000000E+00 -0.26059076562E+02  0.26059076687E+02  0.25500000000E-02 0. -1.
    5000001    1    1    2    0    0  0.11176646009E+03  0.78660282947E+01  0.34105573337E+03  0.36715341380E+03  0.77000000000E+02 0.  0.
   -5000001    1    1    2    0    0 -0.11176646009E+03 -0.78660282947E+01  0.34214503173E+03  0.36816550455E+03  0.77000000000E+02 0.  0.
<mgrwt>
<rscale>  0 0.27190187E+03</rscale>
<asrwt>0</asrwt>
<pdfrwt beam="1">  1        2 0.10132285E+00 0.27190187E+03</pdfrwt>
<pdfrwt beam="2">  1       -2 0.37227245E-02 0.27190187E+03</pdfrwt>
<totfact> 0.13764998E+04</totfact>
</mgrwt>
</event>
<event>
 4    1  0.5121375E-004  0.2422564E+03  0.7818608E-02  0.1118299E+00
         -2   -1    0    0    0  501 -0.00000000000E+00  0.00000000000E+00  0.29328454305E+02  0.29328454416E+02  0.25500000000E-02 0. -1.
          2   -1    0    0  501    0  0.00000000000E+00 -0.00000000000E+00 -0.50026648336E+03  0.50026648337E+03  0.25500000000E-02 0.  1.
    5000001    1    1    2    0    0 -0.17703436232E+02  0.78117799137E+02 -0.13000867285E+03  0.17101771023E+03  0.77000000000E+02 0.  0.
   -5000001    1    1    2    0    0  0.17703436232E+02 -0.78117799137E+02 -0.34092935621E+03  0.35857722755E+03  0.77000000000E+02 0.  0.
<mgrwt>
<rscale>  0 0.24225642E+03</rscale>
<asrwt>0</asrwt>
<pdfrwt beam="1">  1        2 0.71466635E-01 0.24225642E+03</pdfrwt>
<pdfrwt beam="2">  1       -2 0.41897795E-02 0.24225642E+03</pdfrwt>
<totfact> 0.17068527E+04</totfact>
</mgrwt>
</event>
<event>
 4    1  0.5121375E-004  0.3908977E+03  0.7818608E-02  0.1046978E+00
          2   -1    0    0  501    0  0.00000000000E+00  0.00000000000E+00  0.51473296789E+03  0.51473296789E+03  0.25500000000E-02 0.  1.
         -2   -1    0    0    0  501 -0.00000000000E+00 -0.00000000000E+00 -0.74213729522E+02  0.74213729566E+02  0.25500000000E-02 0. -1.
    5000001    1    1    2    0    0  0.16936175582E+03  0.22363017390E+02  0.13653878546E+03  0.23185199765E+03  0.77000000000E+02 0.  0.
   -5000001    1    1    2    0    0 -0.16936175582E+03 -0.22363017390E+02  0.30398045290E+03  0.35709469980E+03  0.77000000000E+02 0.  0.
<mgrwt>
<rscale>  0 0.39089770E+03</rscale>
<asrwt>0</asrwt>
<pdfrwt beam="1">  1        2 0.73533283E-01 0.39089770E+03</pdfrwt>
<pdfrwt beam="2">  1       -2 0.10601961E-01 0.39089770E+03</pdfrwt>
<totfact> 0.39832347E+03</totfact>
</mgrwt>
</event>
<event>
 4    1  0.5121375E-004  0.2368736E+03  0.7818608E-02  0.1121893E+00
          2   -1    0    0  501    0  0.00000000000E+00  0.00000000000E+00  0.28455104080E+04  0.28455104080E+04  0.25500000000E-02 0.  1.
         -2   -1    0    0    0  501 -0.00000000000E+00 -0.00000000000E+00 -0.49296162939E+01  0.49296169534E+01  0.25500000000E-02 0. -1.
    5000001    1    1    2    0    0  0.55213485514E+02 -0.70820615945E+02  0.14906501639E+04  0.14953364169E+04  0.77000000000E+02 0.  0.
   -5000001    1    1    2    0    0 -0.55213485514E+02  0.70820615945E+02  0.13499306278E+04  0.13551036080E+04  0.77000000000E+02 0.  0.
<mgrwt>
<rscale>  0 0.23687360E+03</rscale>
<asrwt>0</asrwt>
<pdfrwt beam="1">  1        2 0.40650069E+00 0.23687360E+03</pdfrwt>
<pdfrwt beam="2">  1       -2 0.70423233E-03 0.23687360E+03</pdfrwt>
<totfact> 0.11842224E+04</totfact>
</mgrwt>
</event>
<event>
 4    1  0.5121375E-004  0.2282236E+03  0.7818608E-02  0.1127896E+00
         -2   -1    0    0    0  501 -0.00000000000E+00  0.00000000000E+00  0.37566354804E+02  0.37566354891E+02  0.25500000000E-02 0. -1.
          2   -1    0    0  501    0  0.00000000000E+00 -0.00000000000E+00 -0.34662673076E+03  0.34662673077E+03  0.25500000000E-02 0.  1.
    5000001    1    1    2    0    0 -0.73394485454E+02 -0.29653233932E+02 -0.10613589690E+03  0.15316622797E+03  0.77000000000E+02 0.  0.
   -5000001    1    1    2    0    0  0.73394485454E+02  0.29653233932E+02 -0.20292447905E+03  0.23102685770E+03  0.77000000000E+02 0.  0.
<mgrwt>
<rscale>  0 0.22822360E+03</rscale>
<asrwt>0</asrwt>
<pdfrwt beam="1">  1        2 0.49518103E-01 0.22822360E+03</pdfrwt>
<pdfrwt beam="2">  1       -2 0.53666223E-02 0.22822360E+03</pdfrwt>
<totfact> 0.17405838E+04</totfact>
</mgrwt>
</event>
<event>
 4    1  0.5121375E-004  0.3590290E+03  0.7818608E-02  0.1058969E+00
          2   -1    0    0  501    0  0.00000000000E+00  0.00000000000E+00  0.56535198302E+03  0.56535198303E+03  0.25500000000E-02 0.  1.
         -2   -1    0    0    0  501 -0.00000000000E+00 -0.00000000000E+00 -0.57000683733E+02  0.57000683790E+02  0.25500000000E-02 0. -1.
    5000001    1    1    2    0    0  0.14027713817E+03 -0.80387498468E+02  0.27586949294E+03  0.32889634011E+03  0.77000000000E+02 0.  0.
   -5000001    1    1    2    0    0 -0.14027713817E+03  0.80387498468E+02  0.23248180634E+03  0.29345632670E+03  0.77000000000E+02 0.  0.
<mgrwt>
<rscale>  0 0.35902897E+03</rscale>
<asrwt>0</asrwt>
<pdfrwt beam="1">  1        2 0.80764572E-01 0.35902897E+03</pdfrwt>
<pdfrwt beam="2">  1       -2 0.81429545E-02 0.35902897E+03</pdfrwt>
<totfact> 0.54431832E+03</totfact>
</mgrwt>
</event>
<event>
 4    1  0.5121375E-004  0.3226001E+03  0.7818608E-02  0.1074459E+00
          2   -1    0    0  501    0  0.00000000000E+00  0.00000000000E+00  0.33975169663E+03  0.33975169664E+03  0.25500000000E-02 0.  1.
         -2   -1    0    0    0  501 -0.00000000000E+00 -0.00000000000E+00 -0.76578591543E+02  0.76578591586E+02  0.25500000000E-02 0. -1.
    5000001    1    1    2    0    0  0.10063119211E+02 -0.13037217442E+03  0.20216108954E+03  0.25277712784E+03  0.77000000000E+02 0.  0.
   -5000001    1    1    2    0    0 -0.10063119211E+02  0.13037217442E+03  0.61012015546E+02  0.16355316039E+03  0.77000000000E+02 0.  0.
<mgrwt>
<rscale>  0 0.32260010E+03</rscale>
<asrwt>0</asrwt>
<pdfrwt beam="1">  1        2 0.48535957E-01 0.32260010E+03</pdfrwt>
<pdfrwt beam="2">  1       -2 0.10939799E-01 0.32260010E+03</pdfrwt>
<totfact> 0.59480370E+03</totfact>
</mgrwt>
</event>
<event>
 4    1  0.5121375E-004  0.4481640E+03  0.7818608E-02  0.1028271E+00
         -2   -1    0    0    0  501 -0.00000000000E+00  0.00000000000E+00  0.59763884354E+02  0.59763884409E+02  0.25500000000E-02 0. -1.
          2   -1    0    0  501    0  0.00000000000E+00 -0.00000000000E+00 -0.84018545088E+03  0.84018545089E+03  0.25500000000E-02 0.  1.
    5000001    1    1    2    0    0  0.19315665254E+03  0.30615115427E+02 -0.23418709838E+03  0.31467344146E+03  0.77000000000E+02 0.  0.
   -5000001    1    1    2    0    0 -0.19315665254E+03 -0.30615115427E+02 -0.54623446815E+03  0.58527589383E+03  0.77000000000E+02 0.  0.
<mgrwt>
<rscale>  0 0.44816402E+03</rscale>
<asrwt>0</asrwt>
<pdfrwt beam="1">  1        2 0.12002649E+00 0.44816402E+03</pdfrwt>
<pdfrwt beam="2">  1       -2 0.85376983E-02 0.44816402E+03</pdfrwt>
<totfact> 0.31451176E+03</totfact>
</mgrwt>
</event>
<event>
 4    1  0.5121375E-004  0.1830074E+03  0.7818608E-02  0.1164924E+00
          2   -1    0    0  501    0  0.00000000000E+00  0.00000000000E+00  0.34767138006E+04  0.34767138006E+04  0.25500000000E-02 0.  1.
         -2   -1    0    0    0  501 -0.00000000000E+00 -0.00000000000E+00 -0.24082868225E+01  0.24082881726E+01  0.25500000000E-02 0. -1.
    5000001    1    1    2    0    0  0.41162066614E+02 -0.20647998528E+02  0.20789623784E+04  0.20808974570E+04  0.77000000000E+02 0.  0.
   -5000001    1    1    2    0    0 -0.41162066614E+02  0.20647998528E+02  0.13953431354E+04  0.13982246319E+04  0.77000000000E+02 0.  0.
<mgrwt>
<rscale>  0 0.18300739E+03</rscale>
<asrwt>0</asrwt>
<pdfrwt beam="1">  1        2 0.49666854E+00 0.18300739E+03</pdfrwt>
<pdfrwt beam="2">  1       -2 0.34404444E-03 0.18300739E+03</pdfrwt>
<totfact> 0.14997528E+04</totfact>
</mgrwt>
</event>
<event>
 4    1  0.5121375E-004  0.3011102E+03  0.7818608E-02  0.1084687E+00
         -2   -1    0    0    0  501 -0.00000000000E+00  0.00000000000E+00  0.35451695880E+03  0.35451695881E+03  0.25500000000E-02 0. -1.
          2   -1    0    0  501    0  0.00000000000E+00 -0.00000000000E+00 -0.63937244913E+02  0.63937244964E+02  0.25500000000E-02 0.  1.
    5000001    1    1    2    0    0 -0.76334367429E+02 -0.69759423855E+02  0.25333457817E+03  0.28425467694E+03  0.77000000000E+02 0.  0.
   -5000001    1    1    2    0    0  0.76334367429E+02  0.69759423855E+02  0.37245135719E+02  0.13419952683E+03  0.77000000000E+02 0.  0.
<mgrwt>
<rscale>  0 0.30111020E+03</rscale>
<asrwt>0</asrwt>
<pdfrwt beam="1">  1        2 0.91338920E-02 0.30111020E+03</pdfrwt>
<pdfrwt beam="2">  1       -2 0.50645281E-01 0.30111020E+03</pdfrwt>
<totfact> 0.26897462E+03</totfact>
</mgrwt>
</event>
<event>
 4    1  0.5121375E-004  0.2423994E+03  0.7818608E-02  0.1118205E+00
         -2   -1    0    0    0  501 -0.00000000000E+00  0.00000000000E+00  0.11863289588E+03  0.11863289590E+03  0.25500000000E-02 0. -1.
          2   -1    0    0  501    0  0.00000000000E+00 -0.00000000000E+00 -0.12382200726E+03  0.12382200729E+03  0.25500000000E-02 0.  1.
    5000001    1    1    2    0    0 -0.89948798750E+02  0.12567234882E+02 -0.25219232105E+02  0.12171167346E+03  0.77000000000E+02 0.  0.
   -5000001    1    1    2    0    0  0.89948798750E+02 -0.12567234882E+02  0.20030120720E+02  0.12074322973E+03  0.77000000000E+02 0.  0.
<mgrwt>
<rscale>  0 0.24239937E+03</rscale>
<asrwt>0</asrwt>
<pdfrwt beam="1">  1        2 0.17688858E-01 0.24239937E+03</pdfrwt>
<pdfrwt beam="2">  1       -2 0.16947556E-01 0.24239937E+03</pdfrwt>
<totfact> 0.87827289E+03</totfact>
</mgrwt>
</event>
<event>
 4    1  0.5121375E-004  0.2803561E+03  0.7818608E-02  0.1095495E+00
          2   -1    0    0  501    0  0.00000000000E+00  0.00000000000E+00  0.22550529406E+03  0.22550529407E+03  0.25500000000E-02 0.  1.
         -2   -1    0    0    0  501 -0.00000000000E+00 -0.00000000000E+00 -0.87137144731E+02  0.87137144768E+02  0.25500000000E-02 0. -1.
    5000001    1    1    2    0    0 -0.97834178188E+02 -0.62854225923E+02  0.84903795490E+02  0.16327839608E+03  0.77000000000E+02 0.  0.
   -5000001    1    1    2    0    0  0.97834178188E+02  0.62854225923E+02  0.53464353835E+02  0.14936404276E+03  0.77000000000E+02 0.  0.
<mgrwt>
<rscale>  0 0.28035611E+03</rscale>
<asrwt>0</asrwt>
<pdfrwt beam="1">  1        2 0.32215042E-01 0.28035611E+03</pdfrwt>
<pdfrwt beam="2">  1       -2 0.12448164E-01 0.28035611E+03</pdfrwt>
<totfact> 0.74925014E+03</totfact>
</mgrwt>
</event>
<event>
 4    1  0.5121375E-004  0.3827960E+03  0.7818608E-02  0.1049905E+00
         -2   -1    0    0    0  501 -0.00000000000E+00  0.00000000000E+00  0.10260960754E+03  0.10260960757E+03  0.25500000000E-02 0. -1.
          2   -1    0    0  501    0  0.00000000000E+00 -0.00000000000E+00 -0.35701531009E+03  0.35701531010E+03  0.25500000000E-02 0.  1.
    5000001    1    1    2    0    0  0.44172595319E+01  0.43559619588E+02  0.76518342347E+02  0.11705131078E+03  0.77000000000E+02 0.  0.
   -5000001    1    1    2    0    0 -0.44172595319E+01 -0.43559619588E+02 -0.33092404490E+03  0.34257360689E+03  0.77000000000E+02 0.  0.
<mgrwt>
<rscale>  0 0.38279603E+03</rscale>
<asrwt>0</asrwt>
<pdfrwt beam="1">  1        2 0.51002187E-01 0.38279603E+03</pdfrwt>
<pdfrwt beam="2">  1       -2 0.14658516E-01 0.38279603E+03</pdfrwt>
<totfact> 0.35095037E+03</totfact>
</mgrwt>
</event>
<event>
 4    1  0.5121375E-004  0.3255537E+03  0.7818608E-02  0.1073121E+00
          2   -1    0    0  501    0  0.00000000000E+00  0.00000000000E+00  0.66171696861E+03  0.66171696862E+03  0.25500000000E-02 0.  1.
         -2   -1    0    0    0  501 -0.00000000000E+00 -0.00000000000E+00 -0.40041757718E+02  0.40041757800E+02  0.25500000000E-02 0. -1.
    5000001    1    1    2    0    0  0.39319884483E+02  0.99944796464E+02  0.10597429896E+03  0.16939470976E+03  0.77000000000E+02 0.  0.
   -5000001    1    1    2    0    0 -0.39319884483E+02 -0.99944796464E+02  0.51570091194E+03  0.53236401666E+03  0.77000000000E+02 0.  0.
<mgrwt>
<rscale>  0 0.32555375E+03</rscale>
<asrwt>0</asrwt>
<pdfrwt beam="1">  1        2 0.94530991E-01 0.32555375E+03</pdfrwt>
<pdfrwt beam="2">  1       -2 0.57202514E-02 0.32555375E+03</pdfrwt>
<totfact> 0.78373076E+03</totfact>
</mgrwt>
</event>
<event>
 4    1  0.5121375E-004  0.2751188E+03  0.7818608E-02  0.1098385E+00
          2   -1    0    0  501    0  0.00000000000E+00  0.00000000000E+00  0.11569219611E+04  0.11569219611E+04  0.25500000000E-02 0.  1.
         -2   -1    0    0    0  501 -0.00000000000E+00 -0.00000000000E+00 -0.16355974083E+02  0.16355974282E+02  0.25500000000E-02 0. -1.
    5000001    1    1    2    0    0  0.11082419306E+03  0.18584022106E+02  0.65189434312E+03  0.66597492613E+03  0.77000000000E+02 0.  0.
   -5000001    1    1    2    0    0 -0.11082419306E+03 -0.18584022106E+02  0.48867164387E+03  0.50730300922E+03  0.77000000000E+02 0.  0.
<mgrwt>
<rscale>  0 0.27511878E+03</rscale>
<asrwt>0</asrwt>
<pdfrwt beam="1">  1        2 0.16527457E+00 0.27511878E+03</pdfrwt>
<pdfrwt beam="2">  1       -2 0.23365676E-02 0.27511878E+03</pdfrwt>
<totfact> 0.14510605E+04</totfact>
</mgrwt>
</event>
<event>
 4    1  0.5121375E-004  0.2371481E+03  0.7818608E-02  0.1121707E+00
         -2   -1    0    0    0  501 -0.00000000000E+00  0.00000000000E+00  0.23731172129E+02  0.23731172266E+02  0.25500000000E-02 0. -1.
          2   -1    0    0  501    0  0.00000000000E+00 -0.00000000000E+00 -0.59246129832E+03  0.59246129833E+03  0.25500000000E-02 0.  1.
    5000001    1    1    2    0    0 -0.61843902278E+02 -0.25037064968E+02 -0.44197301237E+03  0.45356440175E+03  0.77000000000E+02 0.  0.
   -5000001    1    1    2    0    0  0.61843902278E+02  0.25037064968E+02 -0.12675711382E+03  0.16262806884E+03  0.77000000000E+02 0.  0.
<mgrwt>
<rscale>  0 0.23714806E+03</rscale>
<asrwt>0</asrwt>
<pdfrwt beam="1">  1        2 0.84637319E-01 0.23714806E+03</pdfrwt>
<pdfrwt beam="2">  1       -2 0.33901678E-02 0.23714806E+03</pdfrwt>
<totfact> 0.19375655E+04</totfact>
</mgrwt>
</event>
<event>
 4    1  0.5121375E-004  0.3334646E+03  0.7818608E-02  0.1069614E+00
         -2   -1    0    0    0  501 -0.00000000000E+00  0.00000000000E+00  0.23509998433E+02  0.23509998571E+02  0.25500000000E-02 0. -1.
          2   -1    0    0  501    0  0.00000000000E+00 -0.00000000000E+00 -0.11824613686E+04  0.11824613686E+04  0.25500000000E-02 0.  1.
    5000001    1    1    2    0    0  0.85854650927E+02 -0.64696153674E+02 -0.21219180307E+03  0.25002194839E+03  0.77000000000E+02 0.  0.
   -5000001    1    1    2    0    0 -0.85854650927E+02  0.64696153674E+02 -0.94675956709E+03  0.95594941878E+03  0.77000000000E+02 0.  0.
<mgrwt>
<rscale>  0 0.33346463E+03</rscale>
<asrwt>0</asrwt>
<pdfrwt beam="1">  1        2 0.16892302E+00 0.33346463E+03</pdfrwt>
<pdfrwt beam="2">  1       -2 0.33585720E-02 0.33346463E+03</pdfrwt>
<totfact> 0.82277542E+03</totfact>
</mgrwt>
</event>
<event>
 4    1  0.5121375E-004  0.1749155E+03  0.7818608E-02  0.1172817E+00
         -2   -1    0    0    0  501 -0.00000000000E+00  0.00000000000E+00  0.58734725942E+01  0.58734731478E+01  0.25500000000E-02 0. -1.
          2   -1    0    0  501    0  0.00000000000E+00 -0.00000000000E+00 -0.13022722680E+04  0.13022722680E+04  0.25500000000E-02 0.  1.
    5000001    1    1    2    0    0  0.16142212099E+02  0.30516783091E+02 -0.82005005849E+03  0.82438033910E+03  0.77000000000E+02 0.  0.
   -5000001    1    1    2    0    0 -0.16142212099E+02 -0.30516783091E+02 -0.47634873692E+03  0.48376540205E+03  0.77000000000E+02 0.  0.
<mgrwt>
<rscale>  0 0.17491553E+03</rscale>
<asrwt>0</asrwt>
<pdfrwt beam="1">  1        2 0.18603871E+00 0.17491553E+03</pdfrwt>
<pdfrwt beam="2">  1       -2 0.83906838E-03 0.17491553E+03</pdfrwt>
<totfact> 0.52406290E+04</totfact>
</mgrwt>
</event>
<event>
 4    1  0.5121375E-004  0.2305874E+03  0.7818608E-02  0.1126227E+00
          2   -1    0    0  501    0  0.00000000000E+00  0.00000000000E+00  0.23247921832E+04  0.23247921832E+04  0.25500000000E-02 0.  1.
         -2   -1    0    0    0  501 -0.00000000000E+00 -0.00000000000E+00 -0.57177719596E+01  0.57177725282E+01  0.25500000000E-02 0. -1.
    5000001    1    1    2    0    0  0.43720499558E+02 -0.71182746013E+02  0.96118369081E+03  0.96787476095E+03  0.77000000000E+02 0.  0.
   -5000001    1    1    2    0    0 -0.43720499558E+02  0.71182746013E+02  0.13578907204E+04  0.13626351948E+04  0.77000000000E+02 0.  0.
<mgrwt>
<rscale>  0 0.23058736E+03</rscale>
<asrwt>0</asrwt>
<pdfrwt beam="1">  1        2 0.33211388E+00 0.23058736E+03</pdfrwt>
<pdfrwt beam="2">  1       -2 0.81682286E-03 0.23058736E+03</pdfrwt>
<totfact> 0.17430261E+04</totfact>
</mgrwt>
</event>
<event>
 4    1  0.5121375E-004  0.1721063E+03  0.7818608E-02  0.1175669E+00
          2   -1    0    0  501    0  0.00000000000E+00  0.00000000000E+00  0.51082868217E+03  0.51082868218E+03  0.25500000000E-02 0.  1.
         -2   -1    0    0    0  501 -0.00000000000E+00 -0.00000000000E+00 -0.14496343414E+02  0.14496343638E+02  0.25500000000E-02 0. -1.
    5000001    1    1    2    0    0  0.38060630486E+02  0.45755943784E+01  0.25600798364E+03  0.27007153745E+03  0.77000000000E+02 0.  0.
   -5000001    1    1    2    0    0 -0.38060630486E+02 -0.45755943784E+01  0.24032435512E+03  0.25525348836E+03  0.77000000000E+02 0.  0.
<mgrwt>
<rscale>  0 0.17210634E+03</rscale>
<asrwt>0</asrwt>
<pdfrwt beam="1">  1        2 0.72975515E-01 0.17210634E+03</pdfrwt>
<pdfrwt beam="2">  1       -2 0.20709065E-02 0.17210634E+03</pdfrwt>
<totfact> 0.46119264E+04</totfact>
</mgrwt>
</event>
<event>
 4    1  0.5121375E-004  0.2003269E+03  0.7818608E-02  0.1149463E+00
          2   -1    0    0  501    0  0.00000000000E+00  0.00000000000E+00  0.18754123650E+04  0.18754123650E+04  0.25500000000E-02 0.  1.
         -2   -1    0    0    0  501 -0.00000000000E+00 -0.00000000000E+00 -0.53496073966E+01  0.53496080043E+01  0.25500000000E-02 0. -1.
    5000001    1    1    2    0    0 -0.48429656166E+02  0.39013290932E+02  0.10793366517E+04  0.10838653405E+04  0.77000000000E+02 0.  0.
   -5000001    1    1    2    0    0  0.48429656166E+02 -0.39013290932E+02  0.79072610584E+03  0.79689663252E+03  0.77000000000E+02 0.  0.
<mgrwt>
<rscale>  0 0.20032694E+03</rscale>
<asrwt>0</asrwt>
<pdfrwt beam="1">  1        2 0.26791652E+00 0.20032694E+03</pdfrwt>
<pdfrwt beam="2">  1       -2 0.76422835E-03 0.20032694E+03</pdfrwt>
<totfact> 0.31487192E+04</totfact>
</mgrwt>
</event>
<event>
 4    1  0.5121375E-004  0.2355781E+03  0.7818608E-02  0.1122774E+00
         -2   -1    0    0    0  501 -0.00000000000E+00  0.00000000000E+00  0.41961040270E+02  0.41961040348E+02  0.25500000000E-02 0. -1.
          2   -1    0    0  501    0  0.00000000000E+00 -0.00000000000E+00 -0.33064635667E+03  0.33064635668E+03  0.25500000000E-02 0.  1.
    5000001    1    1    2    0    0  0.53568852139E+02 -0.88041250723E+01 -0.32522454044E+02  0.99668673889E+02  0.77000000000E+02 0.  0.
   -5000001    1    1    2    0    0 -0.53568852139E+02  0.88041250723E+01 -0.25616286236E+03  0.27293872314E+03  0.77000000000E+02 0.  0.
<mgrwt>
<rscale>  0 0.23557814E+03</rscale>
<asrwt>0</asrwt>
<pdfrwt beam="1">  1        2 0.47235193E-01 0.23557814E+03</pdfrwt>
<pdfrwt beam="2">  1       -2 0.59944345E-02 0.23557814E+03</pdfrwt>
<totfact> 0.15496818E+04</totfact>
</mgrwt>
</event>
<event>
 4    1  0.5121375E-004  0.3660600E+03  0.7818608E-02  0.1056210E+00
          2   -1    0    0  501    0  0.00000000000E+00  0.00000000000E+00  0.13607766558E+04  0.13607766558E+04  0.25500000000E-02 0.  1.
         -2   -1    0    0    0  501 -0.00000000000E+00 -0.00000000000E+00 -0.24618283658E+02  0.24618283790E+02  0.25500000000E-02 0. -1.
    5000001    1    1    2    0    0  0.13228682978E+03  0.19970963091E+01  0.28834869828E+03  0.32646250248E+03  0.77000000000E+02 0.  0.
   -5000001    1    1    2    0    0 -0.13228682978E+03 -0.19970963091E+01  0.10478096739E+04  0.10589324371E+04  0.77000000000E+02 0.  0.
<mgrwt>
<rscale>  0 0.36606003E+03</rscale>
<asrwt>0</asrwt>
<pdfrwt beam="1">  1        2 0.19439671E+00 0.36606003E+03</pdfrwt>
<pdfrwt beam="2">  1       -2 0.35168968E-02 0.36606003E+03</pdfrwt>
<totfact> 0.61672302E+03</totfact>
</mgrwt>
</event>
<event>
 4    1  0.5121375E-004  0.2161815E+03  0.7818608E-02  0.1136762E+00
         -2   -1    0    0    0  501 -0.00000000000E+00  0.00000000000E+00  0.22335390130E+02  0.22335390276E+02  0.25500000000E-02 0. -1.
          2   -1    0    0  501    0  0.00000000000E+00 -0.00000000000E+00 -0.52309833539E+03  0.52309833540E+03  0.25500000000E-02 0.  1.
    5000001    1    1    2    0    0 -0.61273663579E+02 -0.42483866025E+02 -0.21512527756E+03  0.24034813452E+03  0.77000000000E+02 0.  0.
   -5000001    1    1    2    0    0  0.61273663579E+02  0.42483866025E+02 -0.28563766770E+03  0.30508559115E+03  0.77000000000E+02 0.  0.
<mgrwt>
<rscale>  0 0.21618146E+03</rscale>
<asrwt>0</asrwt>
<pdfrwt beam="1">  1        2 0.74728326E-01 0.21618146E+03</pdfrwt>
<pdfrwt beam="2">  1       -2 0.31907704E-02 0.21618146E+03</pdfrwt>
<totfact> 0.24233303E+04</totfact>
</mgrwt>
</event>
<event>
 4    1  0.5121375E-004  0.2078030E+03  0.7818608E-02  0.1143318E+00
          2   -1    0    0  501    0  0.00000000000E+00  0.00000000000E+00  0.27340550180E+04  0.27340550180E+04  0.25500000000E-02 0.  1.
         -2   -1    0    0    0  501 -0.00000000000E+00 -0.00000000000E+00 -0.39485366586E+01  0.39485374820E+01  0.25500000000E-02 0. -1.
    5000001    1    1    2    0    0  0.44192969778E+02 -0.52010656060E+02  0.15552580156E+04  0.15586579555E+04  0.77000000000E+02 0.  0.
   -5000001    1    1    2    0    0 -0.44192969778E+02  0.52010656060E+02  0.11748484657E+04  0.11793456000E+04  0.77000000000E+02 0.  0.
<mgrwt>
<rscale>  0 0.20780296E+03</rscale>
<asrwt>0</asrwt>
<pdfrwt beam="1">  1        2 0.39058030E+00 0.20780296E+03</pdfrwt>
<pdfrwt beam="2">  1       -2 0.56407526E-03 0.20780296E+03</pdfrwt>
<totfact> 0.18527833E+04</totfact>
</mgrwt>
</event>
<event>
 4    1  0.5121375E-004  0.3507097E+03  0.7818608E-02  0.1062324E+00
         -2   -1    0    0    0  501 -0.00000000000E+00  0.00000000000E+00  0.10587359405E+03  0.10587359408E+03  0.25500000000E-02 0. -1.
          2   -1    0    0  501    0  0.00000000000E+00 -0.00000000000E+00 -0.29043423457E+03  0.29043423458E+03  0.25500000000E-02 0.  1.
    5000001    1    1    2    0    0 -0.11906030133E+03 -0.15672967566E+01  0.24295061167E+02  0.14386473428E+03  0.77000000000E+02 0.  0.
   -5000001    1    1    2    0    0  0.11906030133E+03  0.15672967566E+01 -0.20885570169E+03  0.25244309438E+03  0.77000000000E+02 0.  0.
<mgrwt>
<rscale>  0 0.35070966E+03</rscale>
<asrwt>0</asrwt>
<pdfrwt beam="1">  1        2 0.41490605E-01 0.35070966E+03</pdfrwt>
<pdfrwt beam="2">  1       -2 0.15124799E-01 0.35070966E+03</pdfrwt>
<totfact> 0.41611166E+03</totfact>
</mgrwt>
</event>
<event>
 4    1  0.5121375E-004  0.1615551E+03  0.7818608E-02  0.1186952E+00
          2   -1    0    0  501    0  0.00000000000E+00  0.00000000000E+00  0.62806771345E+03  0.62806771346E+03  0.25500000000E-02 0.  1.
         -2   -1    0    0    0  501 -0.00000000000E+00 -0.00000000000E+00 -0.10389030115E+02  0.10389030428E+02  0.25500000000E-02 0. -1.
    5000001    1    1    2    0    0  0.58720354658E+01 -0.23678143829E+02  0.30513378566E+03  0.31564341027E+03  0.77000000000E+02 0.  0.
   -5000001    1    1    2    0    0 -0.58720354658E+01  0.23678143829E+02  0.31254489768E+03  0.32281333361E+03  0.77000000000E+02 0.  0.
<mgrwt>
<rscale>  0 0.16155512E+03</rscale>
<asrwt>0</asrwt>
<pdfrwt beam="1">  1        2 0.89723974E-01 0.16155512E+03</pdfrwt>
<pdfrwt beam="2">  1       -2 0.14841469E-02 0.16155512E+03</pdfrwt>
<totfact> 0.59060792E+04</totfact>
</mgrwt>
</event>
<event>
 4    1  0.5121375E-004  0.3244171E+03  0.7818608E-02  0.1073634E+00
          2   -1    0    0  501    0  0.00000000000E+00  0.00000000000E+00  0.15987711841E+03  0.15987711843E+03  0.25500000000E-02 0.  1.
         -2   -1    0    0    0  501 -0.00000000000E+00 -0.00000000000E+00 -0.16457394459E+03  0.16457394461E+03  0.25500000000E-02 0. -1.
    5000001    1    1    2    0    0 -0.14426749007E+02  0.10297044714E+03  0.95496209703E+02  0.16080911087E+03  0.77000000000E+02 0.  0.
   -5000001    1    1    2    0    0  0.14426749007E+02 -0.10297044714E+03 -0.10019303588E+03  0.16364195217E+03  0.77000000000E+02 0.  0.
<mgrwt>
<rscale>  0 0.32441707E+03</rscale>
<asrwt>0</asrwt>
<pdfrwt beam="1">  1        2 0.22839589E-01 0.32441707E+03</pdfrwt>
<pdfrwt beam="2">  1       -2 0.23510563E-01 0.32441707E+03</pdfrwt>
<totfact> 0.37834810E+03</totfact>
</mgrwt>
</event>
<event>
 4    1  0.5121375E-004  0.3581599E+03  0.7818608E-02  0.1059315E+00
          2   -1    0    0  501    0  0.00000000000E+00  0.00000000000E+00  0.20296456043E+03  0.20296456045E+03  0.25500000000E-02 0.  1.
         -2   -1    0    0    0  501 -0.00000000000E+00 -0.00000000000E+00 -0.15800609161E+03  0.15800609163E+03  0.25500000000E-02 0. -1.
    5000001    1    1    2    0    0 -0.13810299106E+03  0.35544957867E+02  0.99266091105E+02  0.19004903844E+03  0.77000000000E+02 0.  0.
   -5000001    1    1    2    0    0  0.13810299106E+03 -0.35544957867E+02 -0.54307622281E+02  0.17092161363E+03  0.77000000000E+02 0.  0.
<mgrwt>
<rscale>  0 0.35815995E+03</rscale>
<asrwt>0</asrwt>
<pdfrwt beam="1">  1        2 0.28994937E-01 0.35815995E+03</pdfrwt>
<pdfrwt beam="2">  1       -2 0.22572299E-01 0.35815995E+03</pdfrwt>
<totfact> 0.31165760E+03</totfact>
</mgrwt>
</event>
<event>
 4    1  0.5121375E-004  0.6261158E+03  0.7818608E-02  0.9852658E-01
         -2   -1    0    0    0  501 -0.00000000000E+00  0.00000000000E+00  0.17816256227E+03  0.17816256229E+03  0.25500000000E-02 0. -1.
          2   -1    0    0  501    0  0.00000000000E+00 -0.00000000000E+00 -0.55008884114E+03  0.55008884115E+03  0.25500000000E-02 0.  1.
    5000001    1    1    2    0    0  0.15217483647E+03  0.22749326410E+03 -0.33572034195E+02  0.28629783014E+03  0.77000000000E+02 0.  0.
   -5000001    1    1    2    0    0 -0.15217483647E+03 -0.22749326410E+03 -0.33835424467E+03  0.44195357330E+03  0.77000000000E+02 0.  0.
<mgrwt>
<rscale>  0 0.62611576E+03</rscale>
<asrwt>0</asrwt>
<pdfrwt beam="1">  1        2 0.78584119E-01 0.62611576E+03</pdfrwt>
<pdfrwt beam="2">  1       -2 0.25451795E-01 0.62611576E+03</pdfrwt>
<totfact> 0.83660577E+02</totfact>
</mgrwt>
</event>
<event>
 4    1  0.5121375E-004  0.1680507E+03  0.7818608E-02  0.1179896E+00
          2   -1    0    0  501    0  0.00000000000E+00  0.00000000000E+00  0.11101981746E+04  0.11101981746E+04  0.25500000000E-02 0.  1.
         -2   -1    0    0    0  501 -0.00000000000E+00 -0.00000000000E+00 -0.63594612022E+01  0.63594617134E+01  0.25500000000E-02 0. -1.
    5000001    1    1    2    0    0 -0.17590722058E+02  0.28511903693E+02  0.57174121101E+03  0.57787487792E+03  0.77000000000E+02 0.  0.
   -5000001    1    1    2    0    0  0.17590722058E+02 -0.28511903693E+02  0.53209750239E+03  0.53868275841E+03  0.77000000000E+02 0.  0.
<mgrwt>
<rscale>  0 0.16805074E+03</rscale>
<asrwt>0</asrwt>
<pdfrwt beam="1">  1        2 0.15859978E+00 0.16805074E+03</pdfrwt>
<pdfrwt beam="2">  1       -2 0.90849428E-03 0.16805074E+03</pdfrwt>
<totfact> 0.58992938E+04</totfact>
</mgrwt>
</event>
<event>
 4    1  0.5121375E-004  0.2055929E+03  0.7818608E-02  0.1145104E+00
          2   -1    0    0  501    0  0.00000000000E+00  0.00000000000E+00  0.17942055952E+04  0.17942055952E+04  0.25500000000E-02 0.  1.
         -2   -1    0    0    0  501 -0.00000000000E+00 -0.00000000000E+00 -0.58895759646E+01  0.58895765166E+01  0.25500000000E-02 0. -1.
    5000001    1    1    2    0    0  0.53463706940E+02  0.28647442653E+02  0.11653093488E+04  0.11694246116E+04  0.77000000000E+02 0.  0.
   -5000001    1    1    2    0    0 -0.53463706940E+02 -0.28647442653E+02  0.62300667040E+03  0.63067056003E+03  0.77000000000E+02 0.  0.
<mgrwt>
<rscale>  0 0.20559291E+03</rscale>
<asrwt>0</asrwt>
<pdfrwt beam="1">  1        2 0.25631523E+00 0.20559291E+03</pdfrwt>
<pdfrwt beam="2">  1       -2 0.84136756E-03 0.20559291E+03</pdfrwt>
<totfact> 0.30057965E+04</totfact>
</mgrwt>
</event>
<event>
 4    1  0.5121375E-004  0.2507731E+03  0.7818608E-02  0.1112817E+00
          2   -1    0    0  501    0  0.00000000000E+00  0.00000000000E+00  0.61971516930E+02  0.61971516982E+02  0.25500000000E-02 0.  1.
         -2   -1    0    0    0  501 -0.00000000000E+00 -0.00000000000E+00 -0.25369368909E+03  0.25369368911E+03  0.25500000000E-02 0. -1.
    5000001    1    1    2    0    0  0.29987855852E+02 -0.93887097799E+02 -0.84692460016E+02  0.15104923507E+03  0.77000000000E+02 0.  0.
   -5000001    1    1    2    0    0 -0.29987855852E+02  0.93887097799E+02 -0.10702971215E+03  0.16461597102E+03  0.77000000000E+02 0.  0.
<mgrwt>
<rscale>  0 0.25077307E+03</rscale>
<asrwt>0</asrwt>
<pdfrwt beam="1">  1        2 0.88530740E-02 0.25077307E+03</pdfrwt>
<pdfrwt beam="2">  1       -2 0.36241955E-01 0.25077307E+03</pdfrwt>
<totfact> 0.53136958E+03</totfact>
</mgrwt>
</event>
<event>
 4    1  0.5121375E-004  0.3287059E+03  0.7818608E-02  0.1071711E+00
          2   -1    0    0  501    0  0.00000000000E+00  0.00000000000E+00  0.28623076978E+04  0.28623076978E+04  0.25500000000E-02 0.  1.
         -2   -1    0    0    0  501 -0.00000000000E+00 -0.00000000000E+00 -0.94371001644E+01  0.94371005089E+01  0.25500000000E-02 0. -1.
    5000001    1    1    2    0    0 -0.12074378583E+02  0.97458339347E+02  0.23608330709E+04  0.23641289532E+04  0.77000000000E+02 0.  0.
   -5000001    1    1    2    0    0  0.12074378583E+02 -0.97458339347E+02  0.49203752666E+03  0.50761584508E+03  0.77000000000E+02 0.  0.
<mgrwt>
<rscale>  0 0.32870586E+03</rscale>
<asrwt>0</asrwt>
<pdfrwt beam="1">  1        2 0.40890124E+00 0.32870586E+03</pdfrwt>
<pdfrwt beam="2">  1       -2 0.13481567E-02 0.32870586E+03</pdfrwt>
<totfact> 0.45122701E+03</totfact>
</mgrwt>
</event>
<event>
 4    1  0.5121375E-004  0.2714322E+03  0.7818608E-02  0.1100463E+00
          2   -1    0    0  501    0  0.00000000000E+00  0.00000000000E+00  0.79758836160E+03  0.79758836160E+03  0.25500000000E-02 0.  1.
         -2   -1    0    0    0  501 -0.00000000000E+00 -0.00000000000E+00 -0.23093184684E+02  0.23093184825E+02  0.25500000000E-02 0. -1.
    5000001    1    1    2    0    0 -0.88541131679E+02 -0.68107161882E+02  0.39760636598E+03  0.42011657878E+03  0.77000000000E+02 0.  0.
   -5000001    1    1    2    0    0  0.88541131679E+02  0.68107161882E+02  0.37688881093E+03  0.40056496764E+03  0.77000000000E+02 0.  0.
<mgrwt>
<rscale>  0 0.27143217E+03</rscale>
<asrwt>0</asrwt>
<pdfrwt beam="1">  1        2 0.11394121E+00 0.27143217E+03</pdfrwt>
<pdfrwt beam="2">  1       -2 0.32990260E-02 0.27143217E+03</pdfrwt>
<totfact> 0.14303150E+04</totfact>
</mgrwt>
</event>
<event>
 4    1  0.5121375E-004  0.2840176E+03  0.7818608E-02  0.1093515E+00
          2   -1    0    0  501    0  0.00000000000E+00  0.00000000000E+00  0.28545673124E+03  0.28545673125E+03  0.25500000000E-02 0.  1.
         -2   -1    0    0    0  501 -0.00000000000E+00 -0.00000000000E+00 -0.70646430286E+02  0.70646430332E+02  0.25500000000E-02 0. -1.
    5000001    1    1    2    0    0  0.32497625000E+02 -0.93927235629E+02  0.19018562109E+03  0.22798682350E+03  0.77000000000E+02 0.  0.
   -5000001    1    1    2    0    0 -0.32497625000E+02  0.93927235629E+02  0.24624679866E+02  0.12811633808E+03  0.77000000000E+02 0.  0.
<mgrwt>
<rscale>  0 0.28401760E+03</rscale>
<asrwt>0</asrwt>
<pdfrwt beam="1">  1        2 0.40779533E-01 0.28401760E+03</pdfrwt>
<pdfrwt beam="2">  1       -2 0.10092347E-01 0.28401760E+03</pdfrwt>
<totfact> 0.81300638E+03</totfact>
</mgrwt>
</event>
<event>
 4    1  0.5121375E-004  0.2319191E+03  0.7818608E-02  0.1125296E+00
          2   -1    0    0  501    0  0.00000000000E+00  0.00000000000E+00  0.27095780376E+04  0.27095780376E+04  0.25500000000E-02 0.  1.
         -2   -1    0    0    0  501 -0.00000000000E+00 -0.00000000000E+00 -0.49626217878E+01  0.49626224430E+01  0.25500000000E-02 0. -1.
    5000001    1    1    2    0    0 -0.47926771996E+02 -0.55610148207E+02  0.18922667492E+04  0.18952551053E+04  0.77000000000E+02 0.  0.
   -5000001    1    1    2    0    0  0.47926771996E+02  0.55610148207E+02  0.81234866663E+03  0.81928555476E+03  0.77000000000E+02 0.  0.
<mgrwt>
<rscale>  0 0.23191905E+03</rscale>
<asrwt>0</asrwt>
<pdfrwt beam="1">  1        2 0.38708238E+00 0.23191905E+03</pdfrwt>
<pdfrwt beam="2">  1       -2 0.70894637E-03 0.23191905E+03</pdfrwt>
<totfact> 0.13760923E+04</totfact>
</mgrwt>
</event>
<event>
 4    1  0.5121375E-004  0.2370151E+03  0.7818608E-02  0.1121797E+00
         -2   -1    0    0    0  501 -0.00000000000E+00  0.00000000000E+00  0.16322526733E+03  0.16322526735E+03  0.25500000000E-02 0. -1.
          2   -1    0    0  501    0  0.00000000000E+00 -0.00000000000E+00 -0.86040817558E+02  0.86040817596E+02  0.25500000000E-02 0.  1.
    5000001    1    1    2    0    0 -0.65568883324E+02  0.50613207467E+02  0.75835377342E+02  0.13616526608E+03  0.77000000000E+02 0.  0.
   -5000001    1    1    2    0    0  0.65568883324E+02 -0.50613207467E+02  0.13490724264E+01  0.11310081886E+03  0.77000000000E+02 0.  0.
<mgrwt>
<rscale>  0 0.23701507E+03</rscale>
<asrwt>0</asrwt>
<pdfrwt beam="1">  1        2 0.12291545E-01 0.23701507E+03</pdfrwt>
<pdfrwt beam="2">  1       -2 0.23317895E-01 0.23701507E+03</pdfrwt>
<totfact> 0.78358836E+03</totfact>
</mgrwt>
</event>
<event>
 4    1  0.5121375E-004  0.5251944E+03  0.7818608E-02  0.1007404E+00
          2   -1    0    0  501    0  0.00000000000E+00  0.00000000000E+00  0.79666544485E+03  0.79666544486E+03  0.25500000000E-02 0.  1.
         -2   -1    0    0    0  501 -0.00000000000E+00 -0.00000000000E+00 -0.86557403142E+02  0.86557403180E+02  0.25500000000E-02 0. -1.
    5000001    1    1    2    0    0  0.17873294819E+03 -0.63548751091E+02  0.78494427742E+02  0.21925849065E+03  0.77000000000E+02 0.  0.
   -5000001    1    1    2    0    0 -0.17873294819E+03  0.63548751091E+02  0.63161361397E+03  0.66396435739E+03  0.77000000000E+02 0.  0.
<mgrwt>
<rscale>  0 0.52519441E+03</rscale>
<asrwt>0</asrwt>
<pdfrwt beam="1">  1        2 0.11380935E+00 0.52519441E+03</pdfrwt>
<pdfrwt beam="2">  1       -2 0.12365343E-01 0.52519441E+03</pdfrwt>
<totfact> 0.18504539E+03</totfact>
</mgrwt>
</event>
<event>
 4    1  0.5121375E-004  0.1836466E+03  0.7818608E-02  0.1164320E+00
         -2   -1    0    0    0  501 -0.00000000000E+00  0.00000000000E+00  0.45807004557E+01  0.45807011655E+01  0.25500000000E-02 0. -1.
          2   -1    0    0  501    0  0.00000000000E+00 -0.00000000000E+00 -0.18406610578E+04  0.18406610578E+04  0.25500000000E-02 0.  1.
    5000001    1    1    2    0    0  0.35679589332E+02  0.18441405314E+02 -0.12176932550E+04  0.12207862146E+04  0.77000000000E+02 0.  0.
   -5000001    1    1    2    0    0 -0.35679589332E+02 -0.18441405314E+02 -0.61838710236E+03  0.62445554436E+03  0.77000000000E+02 0.  0.
<mgrwt>
<rscale>  0 0.18364659E+03</rscale>
<asrwt>0</asrwt>
<pdfrwt beam="1">  1        2 0.26295111E+00 0.18364659E+03</pdfrwt>
<pdfrwt beam="2">  1       -2 0.65438701E-03 0.18364659E+03</pdfrwt>
<totfact> 0.40673255E+04</totfact>
</mgrwt>
</event>
<event>
 4    1  0.5121375E-004  0.2528245E+03  0.7818608E-02  0.1111533E+00
          2   -1    0    0  501    0  0.00000000000E+00  0.00000000000E+00  0.14210494290E+04  0.14210494290E+04  0.25500000000E-02 0.  1.
         -2   -1    0    0    0  501 -0.00000000000E+00 -0.00000000000E+00 -0.11245246121E+02  0.11245246410E+02  0.25500000000E-02 0. -1.
    5000001    1    1    2    0    0  0.32834387456E+02  0.68123486848E+02  0.10777783760E+04  0.10831685623E+04  0.77000000000E+02 0.  0.
   -5000001    1    1    2    0    0 -0.32834387456E+02 -0.68123486848E+02  0.33202580681E+03  0.34912611310E+03  0.77000000000E+02 0.  0.
<mgrwt>
<rscale>  0 0.25282445E+03</rscale>
<asrwt>0</asrwt>
<pdfrwt beam="1">  1        2 0.20300688E+00 0.25282445E+03</pdfrwt>
<pdfrwt beam="2">  1       -2 0.16064652E-02 0.25282445E+03</pdfrwt>
<totfact> 0.18184722E+04</totfact>
</mgrwt>
</event>
<event>
 4    1  0.5121375E-004  0.4156116E+03  0.7818608E-02  0.1038504E+00
          2   -1    0    0  501    0  0.00000000000E+00  0.00000000000E+00  0.42046092357E+03  0.42046092357E+03  0.25500000000E-02 0.  1.
         -2   -1    0    0    0  501 -0.00000000000E+00 -0.00000000000E+00 -0.10270454056E+03  0.10270454060E+03  0.25500000000E-02 0. -1.
    5000001    1    1    2    0    0 -0.14645918681E+03  0.12501736824E+03  0.17551179206E+03  0.27168552577E+03  0.77000000000E+02 0.  0.
   -5000001    1    1    2    0    0  0.14645918681E+03 -0.12501736824E+03  0.14224459094E+03  0.25147993840E+03  0.77000000000E+02 0.  0.
<mgrwt>
<rscale>  0 0.41561158E+03</rscale>
<asrwt>0</asrwt>
<pdfrwt beam="1">  1        2 0.60065845E-01 0.41561158E+03</pdfrwt>
<pdfrwt beam="2">  1       -2 0.14672078E-01 0.41561158E+03</pdfrwt>
<totfact> 0.29335830E+03</totfact>
</mgrwt>
</event>
<event>
 4    1  0.5121375E-004  0.2405016E+03  0.7818608E-02  0.1119459E+00
         -2   -1    0    0    0  501 -0.00000000000E+00  0.00000000000E+00  0.14006518744E+03  0.14006518746E+03  0.25500000000E-02 0. -1.
          2   -1    0    0  501    0  0.00000000000E+00 -0.00000000000E+00 -0.10323949934E+03  0.10323949937E+03  0.25500000000E-02 0.  1.
    5000001    1    1    2    0    0 -0.31936699505E+02  0.82866439309E+02 -0.72692548007E+01  0.11776519691E+03  0.77000000000E+02 0.  0.
   -5000001    1    1    2    0    0  0.31936699505E+02 -0.82866439309E+02  0.44094942901E+02  0.12553948992E+03  0.77000000000E+02 0.  0.
<mgrwt>
<rscale>  0 0.24050164E+03</rscale>
<asrwt>0</asrwt>
<pdfrwt beam="1">  1        2 0.14748500E-01 0.24050164E+03</pdfrwt>
<pdfrwt beam="2">  1       -2 0.20009312E-01 0.24050164E+03</pdfrwt>
<totfact> 0.82075019E+03</totfact>
</mgrwt>
</event>
<event>
 4    1  0.5121375E-004  0.2717225E+03  0.7818608E-02  0.1100298E+00
          2   -1    0    0  501    0  0.00000000000E+00  0.00000000000E+00  0.11606132480E+04  0.11606132480E+04  0.25500000000E-02 0.  1.
         -2   -1    0    0    0  501 -0.00000000000E+00 -0.00000000000E+00 -0.15903898348E+02  0.15903898552E+02  0.25500000000E-02 0. -1.
    5000001    1    1    2    0    0 -0.88054506628E+02  0.24680511405E+02  0.85184133338E+03  0.86018915421E+03  0.77000000000E+02 0.  0.
   -5000001    1    1    2    0    0  0.88054506628E+02 -0.24680511405E+02  0.29286801628E+03  0.31632799234E+03  0.77000000000E+02 0.  0.
<mgrwt>
<rscale>  0 0.27172247E+03</rscale>
<asrwt>0</asrwt>
<pdfrwt beam="1">  1        2 0.16580192E+00 0.27172247E+03</pdfrwt>
<pdfrwt beam="2">  1       -2 0.22719851E-02 0.27172247E+03</pdfrwt>
<totfact> 0.15046289E+04</totfact>
</mgrwt>
</event>
<event>
 4    1  0.5121375E-004  0.3164855E+03  0.7818608E-02  0.1077278E+00
         -2   -1    0    0    0  501 -0.00000000000E+00  0.00000000000E+00  0.43966348534E+02  0.43966348608E+02  0.25500000000E-02 0. -1.
          2   -1    0    0  501    0  0.00000000000E+00 -0.00000000000E+00 -0.56954401893E+03  0.56954401894E+03  0.25500000000E-02 0.  1.
    5000001    1    1    2    0    0  0.50192108706E+02 -0.11970403238E+03 -0.17056244378E+03  0.22774733889E+03  0.77000000000E+02 0.  0.
   -5000001    1    1    2    0    0 -0.50192108706E+02  0.11970403238E+03 -0.35501522662E+03  0.38576302865E+03  0.77000000000E+02 0.  0.
<mgrwt>
<rscale>  0 0.31648552E+03</rscale>
<asrwt>0</asrwt>
<pdfrwt beam="1">  1        2 0.81363427E-01 0.31648552E+03</pdfrwt>
<pdfrwt beam="2">  1       -2 0.62809073E-02 0.31648552E+03</pdfrwt>
<totfact> 0.80628070E+03</totfact>
</mgrwt>
</event>
<event>
 4    1  0.5121375E-004  0.2359494E+03  0.7818608E-02  0.1122521E+00
          2   -1    0    0  501    0  0.00000000000E+00  0.00000000000E+00  0.11799775556E+04  0.11799775556E+04  0.25500000000E-02 0.  1.
         -2   -1    0    0    0  501 -0.00000000000E+00 -0.00000000000E+00 -0.11795160594E+02  0.11795160869E+02  0.25500000000E-02 0. -1.
    5000001    1    1    2    0    0 -0.60746543042E+01  0.50619908961E+02  0.21327484208E+03  0.23241005760E+03  0.77000000000E+02 0.  0.
   -5000001    1    1    2    0    0  0.60746543042E+01 -0.50619908961E+02  0.95490755296E+03  0.95936265891E+03  0.77000000000E+02 0.  0.
<mgrwt>
<rscale>  0 0.23594936E+03</rscale>
<asrwt>0</asrwt>
<pdfrwt beam="1">  1        2 0.16856815E+00 0.23594936E+03</pdfrwt>
<pdfrwt beam="2">  1       -2 0.16850237E-02 0.23594936E+03</pdfrwt>
<totfact> 0.22631674E+04</totfact>
</mgrwt>
</event>
<event>
 4    1  0.5121375E-004  0.6121388E+03  0.7818608E-02  0.9880537E-01
         -2   -1    0    0    0  501 -0.00000000000E+00  0.00000000000E+00  0.36202031693E+02  0.36202031783E+02  0.25500000000E-02 0. -1.
          2   -1    0    0  501    0  0.00000000000E+00 -0.00000000000E+00 -0.25876579122E+04  0.25876579122E+04  0.25500000000E-02 0.  1.
    5000001    1    1    2    0    0  0.96832016741E+02 -0.27627468008E+03 -0.10818747140E+04  0.11234260256E+04  0.77000000000E+02 0.  0.
   -5000001    1    1    2    0    0 -0.96832016741E+02  0.27627468008E+03 -0.14695811665E+04  0.15004339183E+04  0.77000000000E+02 0.  0.
<mgrwt>
<rscale>  0 0.61213879E+03</rscale>
<asrwt>0</asrwt>
<pdfrwt beam="1">  1        2 0.36966530E+00 0.61213879E+03</pdfrwt>
<pdfrwt beam="2">  1       -2 0.51717205E-02 0.61213879E+03</pdfrwt>
<totfact> 0.81142912E+02</totfact>
</mgrwt>
</event>
<event>
 4    1  0.5121375E-004  0.2130539E+03  0.7818608E-02  0.1139170E+00
          2   -1    0    0  501    0  0.00000000000E+00  0.00000000000E+00  0.10248758927E+04  0.10248758927E+04  0.25500000000E-02 0.  1.
         -2   -1    0    0    0  501 -0.00000000000E+00 -0.00000000000E+00 -0.11072547111E+02  0.11072547405E+02  0.25500000000E-02 0. -1.
    5000001    1    1    2    0    0  0.49047638441E+02 -0.52756831326E+02  0.43315481919E+03  0.44580382622E+03  0.77000000000E+02 0.  0.
   -5000001    1    1    2    0    0 -0.49047638441E+02  0.52756831326E+02  0.58064852643E+03  0.59014461392E+03  0.77000000000E+02 0.  0.
<mgrwt>
<rscale>  0 0.21305386E+03</rscale>
<asrwt>0</asrwt>
<pdfrwt beam="1">  1        2 0.14641083E+00 0.21305386E+03</pdfrwt>
<pdfrwt beam="2">  1       -2 0.15817926E-02 0.21305386E+03</pdfrwt>
<totfact> 0.30127931E+04</totfact>
</mgrwt>
</event>
<event>
 4    1  0.5121375E-004  0.1900343E+03  0.7818608E-02  0.1158430E+00
         -2   -1    0    0    0  501 -0.00000000000E+00  0.00000000000E+00  0.26789895061E+02  0.26789895182E+02  0.25500000000E-02 0. -1.
          2   -1    0    0  501    0  0.00000000000E+00 -0.00000000000E+00 -0.33700256758E+03  0.33700256759E+03  0.25500000000E-02 0.  1.
    5000001    1    1    2    0    0  0.78806301518E+01 -0.47429237389E+02 -0.10138067566E+03  0.13608335051E+03  0.77000000000E+02 0.  0.
   -5000001    1    1    2    0    0 -0.78806301518E+01  0.47429237389E+02 -0.20883199686E+03  0.22770911225E+03  0.77000000000E+02 0.  0.
<mgrwt>
<rscale>  0 0.19003435E+03</rscale>
<asrwt>0</asrwt>
<pdfrwt beam="1">  1        2 0.48143221E-01 0.19003435E+03</pdfrwt>
<pdfrwt beam="2">  1       -2 0.38271281E-02 0.19003435E+03</pdfrwt>
<totfact> 0.29445053E+04</totfact>
</mgrwt>
</event>
<event>
 4    1  0.5121375E-004  0.4538733E+03  0.7818608E-02  0.1026573E+00
         -2   -1    0    0    0  501 -0.00000000000E+00  0.00000000000E+00  0.17062440779E+02  0.17062440969E+02  0.25500000000E-02 0. -1.
          2   -1    0    0  501    0  0.00000000000E+00 -0.00000000000E+00 -0.30183392361E+04  0.30183392361E+04  0.25500000000E-02 0.  1.
    5000001    1    1    2    0    0  0.63101898246E+02  0.15398759086E+03 -0.23948316839E+04  0.24018413399E+04  0.77000000000E+02 0.  0.
   -5000001    1    1    2    0    0 -0.63101898246E+02 -0.15398759086E+03 -0.60644511135E+03  0.63356033713E+03  0.77000000000E+02 0.  0.
<mgrwt>
<rscale>  0 0.45387326E+03</rscale>
<asrwt>0</asrwt>
<pdfrwt beam="1">  1        2 0.43119098E+00 0.45387326E+03</pdfrwt>
<pdfrwt beam="2">  1       -2 0.24374935E-02 0.45387326E+03</pdfrwt>
<totfact> 0.15344802E+03</totfact>
</mgrwt>
</event>
<event>
 4    1  0.5121375E-004  0.2874061E+03  0.7818608E-02  0.1091711E+00
          2   -1    0    0  501    0  0.00000000000E+00  0.00000000000E+00  0.11652522483E+03  0.11652522486E+03  0.25500000000E-02 0.  1.
         -2   -1    0    0    0  501 -0.00000000000E+00 -0.00000000000E+00 -0.17721971943E+03  0.17721971945E+03  0.25500000000E-02 0. -1.
    5000001    1    1    2    0    0 -0.83788000741E+02  0.82015394178E+02  0.15600974876E+01  0.14027967727E+03  0.77000000000E+02 0.  0.
   -5000001    1    1    2    0    0  0.83788000741E+02 -0.82015394178E+02 -0.62254592093E+02  0.15346526704E+03  0.77000000000E+02 0.  0.
<mgrwt>
<rscale>  0 0.28740611E+03</rscale>
<asrwt>0</asrwt>
<pdfrwt beam="1">  1        2 0.16646461E-01 0.28740611E+03</pdfrwt>
<pdfrwt beam="2">  1       -2 0.25317103E-01 0.28740611E+03</pdfrwt>
<totfact> 0.47640077E+03</totfact>
</mgrwt>
</event>
<event>
 4    1  0.5121375E-004  0.4196251E+03  0.7818608E-02  0.1037188E+00
         -2   -1    0    0    0  501 -0.00000000000E+00  0.00000000000E+00  0.78033218130E+02  0.78033218172E+02  0.25500000000E-02 0. -1.
          2   -1    0    0  501    0  0.00000000000E+00 -0.00000000000E+00 -0.56413556835E+03  0.56413556836E+03  0.25500000000E-02 0.  1.
    5000001    1    1    2    0    0  0.13977082811E+03  0.83386407274E+02 -0.40789603066E+03  0.44586696350E+03  0.77000000000E+02 0.  0.
   -5000001    1    1    2    0    0 -0.13977082811E+03 -0.83386407274E+02 -0.78206319560E+02  0.19630182303E+03  0.77000000000E+02 0.  0.
<mgrwt>
<rscale>  0 0.41962514E+03</rscale>
<asrwt>0</asrwt>
<pdfrwt beam="1">  1        2 0.80590793E-01 0.41962514E+03</pdfrwt>
<pdfrwt beam="2">  1       -2 0.11147603E-01 0.41962514E+03</pdfrwt>
<totfact> 0.33135781E+03</totfact>
</mgrwt>
</event>
<event>
 4    1  0.5121375E-004  0.2323361E+03  0.7818608E-02  0.1125006E+00
         -2   -1    0    0    0  501 -0.00000000000E+00  0.00000000000E+00  0.33920598729E+02  0.33920598825E+02  0.25500000000E-02 0. -1.
          2   -1    0    0  501    0  0.00000000000E+00 -0.00000000000E+00 -0.39784128196E+03  0.39784128197E+03  0.25500000000E-02 0.  1.
    5000001    1    1    2    0    0  0.84118049797E+02  0.19939666776E+02 -0.16407977530E+03  0.20080988341E+03  0.77000000000E+02 0.  0.
   -5000001    1    1    2    0    0 -0.84118049797E+02 -0.19939666776E+02 -0.19984090793E+03  0.23095199739E+03  0.77000000000E+02 0.  0.
<mgrwt>
<rscale>  0 0.23233609E+03</rscale>
<asrwt>0</asrwt>
<pdfrwt beam="1">  1        2 0.56834466E-01 0.23233609E+03</pdfrwt>
<pdfrwt beam="2">  1       -2 0.48458001E-02 0.23233609E+03</pdfrwt>
<totfact> 0.17542488E+04</totfact>
</mgrwt>
</event>
<event>
 4    1  0.5121375E-004  0.4158886E+03  0.7818608E-02  0.1038413E+00
         -2   -1    0    0    0  501 -0.00000000000E+00  0.00000000000E+00  0.25550383023E+02  0.25550383150E+02  0.25500000000E-02 0. -1.
          2   -1    0    0  501    0  0.00000000000E+00 -0.00000000000E+00 -0.16923751477E+04  0.16923751477E+04  0.25500000000E-02 0.  1.
    5000001    1    1    2    0    0 -0.61886213749E+01  0.18745331700E+03 -0.10242678973E+04  0.10441411641E+04  0.77000000000E+02 0.  0.
   -5000001    1    1    2    0    0  0.61886213749E+01 -0.18745331700E+03 -0.64255686733E+03  0.67378436672E+03  0.77000000000E+02 0.  0.
<mgrwt>
<rscale>  0 0.41588861E+03</rscale>
<asrwt>0</asrwt>
<pdfrwt beam="1">  1        2 0.24176781E+00 0.41588861E+03</pdfrwt>
<pdfrwt beam="2">  1       -2 0.36500558E-02 0.41588861E+03</pdfrwt>
<totfact> 0.39474293E+03</totfact>
</mgrwt>
</event>
<event>
 4    1  0.5121375E-004  0.3006583E+03  0.7818608E-02  0.1084912E+00
          2   -1    0    0  501    0  0.00000000000E+00  0.00000000000E+00  0.93799938473E+03  0.93799938473E+03  0.25500000000E-02 0.  1.
         -2   -1    0    0    0  501 -0.00000000000E+00 -0.00000000000E+00 -0.24092612129E+02  0.24092612264E+02  0.25500000000E-02 0. -1.
    5000001    1    1    2    0    0  0.23677083470E+02 -0.10159554449E+03  0.70039370415E+03  0.71229389985E+03  0.77000000000E+02 0.  0.
   -5000001    1    1    2    0    0 -0.23677083470E+02  0.10159554449E+03  0.21351306845E+03  0.24979809715E+03  0.77000000000E+02 0.  0.
<mgrwt>
<rscale>  0 0.30065831E+03</rscale>
<asrwt>0</asrwt>
<pdfrwt beam="1">  1        2 0.13399992E+00 0.30065831E+03</pdfrwt>
<pdfrwt beam="2">  1       -2 0.34418015E-02 0.30065831E+03</pdfrwt>
<totfact> 0.10952702E+04</totfact>
</mgrwt>
</event>
<event>
 4    1  0.5121375E-004  0.1987295E+03  0.7818608E-02  0.1150815E+00
          2   -1    0    0  501    0  0.00000000000E+00  0.00000000000E+00  0.18854633275E+02  0.18854633447E+02  0.25500000000E-02 0.  1.
         -2   -1    0    0    0  501 -0.00000000000E+00 -0.00000000000E+00 -0.52365657358E+03  0.52365657359E+03  0.25500000000E-02 0. -1.
    5000001    1    1    2    0    0  0.59333367615E+02  0.50612896114E+01 -0.19792001000E+03  0.22056154588E+03  0.77000000000E+02 0.  0.
   -5000001    1    1    2    0    0 -0.59333367615E+02 -0.50612896114E+01 -0.30688193031E+03  0.32194966115E+03  0.77000000000E+02 0.  0.
<mgrwt>
<rscale>  0 0.19872949E+03</rscale>
<asrwt>0</asrwt>
<pdfrwt beam="1">  1        2 0.26935194E-02 0.19872949E+03</pdfrwt>
<pdfrwt beam="2">  1       -2 0.74808073E-01 0.19872949E+03</pdfrwt>
<totfact> 0.58468447E+03</totfact>
</mgrwt>
</event>
<event>
 4    1  0.5121375E-004  0.1690955E+04  0.7818608E-02  0.8766540E-01
         -2   -1    0    0    0  501 -0.00000000000E+00  0.00000000000E+00  0.61708453202E+03  0.61708453203E+03  0.25500000000E-02 0. -1.
          2   -1    0    0  501    0  0.00000000000E+00 -0.00000000000E+00 -0.11584030355E+04  0.11584030355E+04  0.25500000000E-02 0.  1.
    5000001    1    1    2    0    0 -0.82578748475E+03 -0.67573715393E+02 -0.42785102870E+03  0.93566910804E+03  0.77000000000E+02 0.  0.
   -5000001    1    1    2    0    0  0.82578748475E+03  0.67573715393E+02 -0.11346747473E+03  0.83981845944E+03  0.77000000000E+02 0.  0.
<mgrwt>
<rscale>  0 0.16909555E+04</rscale>
<asrwt>0</asrwt>
<pdfrwt beam="1">  1        2 0.16548615E+00 0.16909555E+04</pdfrwt>
<pdfrwt beam="2">  1       -2 0.88154933E-01 0.16909555E+04</pdfrwt>
<totfact> 0.23902343E+01</totfact>
</mgrwt>
</event>
<event>
 4    1  0.5121375E-004  0.2759440E+03  0.7818608E-02  0.1097925E+00
          2   -1    0    0  501    0  0.00000000000E+00  0.00000000000E+00  0.64900214920E+03  0.64900214920E+03  0.25500000000E-02 0.  1.
         -2   -1    0    0    0  501 -0.00000000000E+00 -0.00000000000E+00 -0.29331602764E+02  0.29331602875E+02  0.25500000000E-02 0. -1.
    5000001    1    1    2    0    0 -0.12029396622E+01  0.11441288272E+03  0.30015144625E+03  0.33032051931E+03  0.77000000000E+02 0.  0.
   -5000001    1    1    2    0    0  0.12029396622E+01 -0.11441288272E+03  0.31951910019E+03  0.34801323277E+03  0.77000000000E+02 0.  0.
<mgrwt>
<rscale>  0 0.27594400E+03</rscale>
<asrwt>0</asrwt>
<pdfrwt beam="1">  1        2 0.92714588E-01 0.27594400E+03</pdfrwt>
<pdfrwt beam="2">  1       -2 0.41902292E-02 0.27594400E+03</pdfrwt>
<totfact> 0.12799295E+04</totfact>
</mgrwt>
</event>
<event>
 4    1  0.5121375E-004  0.2327235E+03  0.7818608E-02  0.1124737E+00
          2   -1    0    0  501    0  0.00000000000E+00  0.00000000000E+00  0.11449313324E+03  0.11449313327E+03  0.25500000000E-02 0.  1.
         -2   -1    0    0    0  501 -0.00000000000E+00 -0.00000000000E+00 -0.11826084595E+03  0.11826084598E+03  0.25500000000E-02 0. -1.
    5000001    1    1    2    0    0 -0.84713064525E+02  0.18399270750E+02  0.79265234991E+01  0.11621818378E+03  0.77000000000E+02 0.  0.
   -5000001    1    1    2    0    0  0.84713064525E+02 -0.18399270750E+02 -0.11694236206E+02  0.11653579547E+03  0.77000000000E+02 0.  0.
<mgrwt>
<rscale>  0 0.23272348E+03</rscale>
<asrwt>0</asrwt>
<pdfrwt beam="1">  1        2 0.16356162E-01 0.23272348E+03</pdfrwt>
<pdfrwt beam="2">  1       -2 0.16894407E-01 0.23272348E+03</pdfrwt>
<totfact> 0.96520208E+03</totfact>
</mgrwt>
</event>
<event>
 4    1  0.5121375E-004  0.2641546E+03  0.7818608E-02  0.1104672E+00
          2   -1    0    0  501    0  0.00000000000E+00  0.00000000000E+00  0.28049045043E+03  0.28049045044E+03  0.25500000000E-02 0.  1.
         -2   -1    0    0    0  501 -0.00000000000E+00 -0.00000000000E+00 -0.62192521677E+02  0.62192521729E+02  0.25500000000E-02 0. -1.
    5000001    1    1    2    0    0 -0.81302692726E+02  0.61934918236E+02  0.15157120763E+03  0.19836555378E+03  0.77000000000E+02 0.  0.
   -5000001    1    1    2    0    0  0.81302692726E+02 -0.61934918236E+02  0.66726721124E+02  0.14431741840E+03  0.77000000000E+02 0.  0.
<mgrwt>
<rscale>  0 0.26415456E+03</rscale>
<asrwt>0</asrwt>
<pdfrwt beam="1">  1        2 0.40070063E-01 0.26415456E+03</pdfrwt>
<pdfrwt beam="2">  1       -2 0.88846462E-02 0.26415456E+03</pdfrwt>
<totfact> 0.10105151E+04</totfact>
</mgrwt>
</event>
<event>
 4    1  0.5121375E-004  0.2121093E+03  0.7818608E-02  0.1139906E+00
         -2   -1    0    0    0  501 -0.00000000000E+00  0.00000000000E+00  0.15088898233E+02  0.15088898448E+02  0.25500000000E-02 0. -1.
          2   -1    0    0  501    0  0.00000000000E+00 -0.00000000000E+00 -0.74542147747E+03  0.74542147748E+03  0.25500000000E-02 0.  1.
    5000001    1    1    2    0    0  0.57388418739E+02 -0.44673441851E+02 -0.34571142372E+03  0.36157231020E+03  0.77000000000E+02 0.  0.
   -5000001    1    1    2    0    0 -0.57388418739E+02  0.44673441851E+02 -0.38462115552E+03  0.39893806573E+03  0.77000000000E+02 0.  0.
<mgrwt>
<rscale>  0 0.21210930E+03</rscale>
<asrwt>0</asrwt>
<pdfrwt beam="1">  1        2 0.10648876E+00 0.21210930E+03</pdfrwt>
<pdfrwt beam="2">  1       -2 0.21555574E-02 0.21210930E+03</pdfrwt>
<totfact> 0.28749902E+04</totfact>
</mgrwt>
</event>
<event>
 4    1  0.5121375E-004  0.2034005E+03  0.7818608E-02  0.1146901E+00
          2   -1    0    0  501    0  0.00000000000E+00  0.00000000000E+00  0.28960928689E+03  0.28960928690E+03  0.25500000000E-02 0.  1.
         -2   -1    0    0    0  501 -0.00000000000E+00 -0.00000000000E+00 -0.35713415799E+02  0.35713415890E+02  0.25500000000E-02 0. -1.
    5000001    1    1    2    0    0  0.34173600106E+02 -0.52924519720E+02  0.16069141428E+03  0.18899621783E+03  0.77000000000E+02 0.  0.
   -5000001    1    1    2    0    0 -0.34173600106E+02  0.52924519720E+02  0.93204456814E+02  0.13632648496E+03  0.77000000000E+02 0.  0.
<mgrwt>
<rscale>  0 0.20340046E+03</rscale>
<asrwt>0</asrwt>
<pdfrwt beam="1">  1        2 0.41372753E-01 0.20340046E+03</pdfrwt>
<pdfrwt beam="2">  1       -2 0.51019169E-02 0.20340046E+03</pdfrwt>
<totfact> 0.22598802E+04</totfact>
</mgrwt>
</event>
<event>
 4    1  0.5121375E-004  0.2321820E+03  0.7818608E-02  0.1125113E+00
         -2   -1    0    0    0  501 -0.00000000000E+00  0.00000000000E+00  0.13621167731E+03  0.13621167733E+03  0.25500000000E-02 0. -1.
          2   -1    0    0  501    0  0.00000000000E+00 -0.00000000000E+00 -0.98942483484E+02  0.98942483517E+02  0.25500000000E-02 0.  1.
    5000001    1    1    2    0    0  0.62012088382E+02  0.58919869818E+02  0.34030219831E+02  0.12001710722E+03  0.77000000000E+02 0.  0.
   -5000001    1    1    2    0    0 -0.62012088382E+02 -0.58919869818E+02  0.32389739932E+01  0.11513705362E+03  0.77000000000E+02 0.  0.
<mgrwt>
<rscale>  0 0.23218201E+03</rscale>
<asrwt>0</asrwt>
<pdfrwt beam="1">  1        2 0.14134641E-01 0.23218201E+03</pdfrwt>
<pdfrwt beam="2">  1       -2 0.19458811E-01 0.23218201E+03</pdfrwt>
<totfact> 0.90363048E+03</totfact>
</mgrwt>
</event>
<event>
 4    1  0.5121375E-004  0.3195440E+03  0.7818608E-02  0.1075859E+00
         -2   -1    0    0    0  501 -0.00000000000E+00  0.00000000000E+00  0.38746007940E+02  0.38746008024E+02  0.25500000000E-02 0. -1.
          2   -1    0    0  501    0  0.00000000000E+00 -0.00000000000E+00 -0.65883150185E+03  0.65883150186E+03  0.25500000000E-02 0.  1.
    5000001    1    1    2    0    0 -0.14271856437E+02  0.13087075732E+03 -0.41398963310E+03  0.44118846009E+03  0.77000000000E+02 0.  0.
   -5000001    1    1    2    0    0  0.14271856437E+02 -0.13087075732E+03 -0.20609586082E+03  0.25638904979E+03  0.77000000000E+02 0.  0.
<mgrwt>
<rscale>  0 0.31954399E+03</rscale>
<asrwt>0</asrwt>
<pdfrwt beam="1">  1        2 0.94118779E-01 0.31954399E+03</pdfrwt>
<pdfrwt beam="2">  1       -2 0.55351444E-02 0.31954399E+03</pdfrwt>
<totfact> 0.82809790E+03</totfact>
</mgrwt>
</event>
<event>
 4    1  0.5121375E-004  0.2255451E+03  0.7818608E-02  0.1129815E+00
          2   -1    0    0  501    0  0.00000000000E+00  0.00000000000E+00  0.12516151636E+04  0.12516151636E+04  0.25500000000E-02 0.  1.
         -2   -1    0    0    0  501 -0.00000000000E+00 -0.00000000000E+00 -0.10160989074E+02  0.10160989394E+02  0.25500000000E-02 0. -1.
    5000001    1    1    2    0    0 -0.52785147779E+02 -0.61607503565E+02  0.70119461216E+03  0.71005960344E+03  0.77000000000E+02 0.  0.
   -5000001    1    1    2    0    0  0.52785147779E+02  0.61607503565E+02  0.54025956233E+03  0.55171654952E+03  0.77000000000E+02 0.  0.
<mgrwt>
<rscale>  0 0.22554510E+03</rscale>
<asrwt>0</asrwt>
<pdfrwt beam="1">  1        2 0.17880217E+00 0.22554510E+03</pdfrwt>
<pdfrwt beam="2">  1       -2 0.14515699E-02 0.22554510E+03</pdfrwt>
<totfact> 0.25683616E+04</totfact>
</mgrwt>
</event>
<event>
 4    1  0.5121375E-004  0.5590257E+03  0.7818608E-02  0.9994262E-01
         -2   -1    0    0    0  501 -0.00000000000E+00  0.00000000000E+00  0.34381208439E+03  0.34381208440E+03  0.25500000000E-02 0. -1.
          2   -1    0    0  501    0  0.00000000000E+00 -0.00000000000E+00 -0.22723878409E+03  0.22723878411E+03  0.25500000000E-02 0.  1.
    5000001    1    1    2    0    0  0.13934422369E+03  0.10340430224E+03 -0.15128292055E+03  0.24274427789E+03  0.77000000000E+02 0.  0.
   -5000001    1    1    2    0    0 -0.13934422369E+03 -0.10340430224E+03  0.26785622085E+03  0.32830659062E+03  0.77000000000E+02 0.  0.
<mgrwt>
<rscale>  0 0.55902572E+03</rscale>
<asrwt>0</asrwt>
<pdfrwt beam="1">  1        2 0.32462684E-01 0.55902572E+03</pdfrwt>
<pdfrwt beam="2">  1       -2 0.49116012E-01 0.55902572E+03</pdfrwt>
<totfact> 0.64293758E+02</totfact>
</mgrwt>
</event>
<event>
 4    1  0.5121375E-004  0.3729857E+03  0.7818608E-02  0.1053557E+00
          2   -1    0    0  501    0  0.00000000000E+00  0.00000000000E+00  0.32560879233E+03  0.32560879234E+03  0.25500000000E-02 0. -1.
         -2   -1    0    0    0  501 -0.00000000000E+00 -0.00000000000E+00 -0.10681403505E+03  0.10681403508E+03  0.25500000000E-02 0.  1.
    5000001    1    1    2    0    0 -0.46313688029E+02 -0.14621808224E+03  0.19400569409E+03  0.25902103122E+03  0.77000000000E+02 0.  0.
   -5000001    1    1    2    0    0  0.46313688029E+02  0.14621808224E+03  0.24789063191E+02  0.17340179620E+03  0.77000000000E+02 0.  0.
<mgrwt>
<rscale>  0 0.37298573E+03</rscale>
<asrwt>0</asrwt>
<pdfrwt beam="1">  1        2 0.46515543E-01 0.37298573E+03</pdfrwt>
<pdfrwt beam="2">  1       -2 0.15259148E-01 0.37298573E+03</pdfrwt>
<totfact> 0.36266128E+03</totfact>
</mgrwt>
</event>
<event>
 4    1  0.5121375E-004  0.2624325E+03  0.7818608E-02  0.1105690E+00
          2   -1    0    0  501    0  0.00000000000E+00  0.00000000000E+00  0.49556301130E+03  0.49556301130E+03  0.25500000000E-02 0.  1.
         -2   -1    0    0    0  501 -0.00000000000E+00 -0.00000000000E+00 -0.34743730174E+02  0.34743730267E+02  0.25500000000E-02 0. -1.
    5000001    1    1    2    0    0 -0.10064237227E+03  0.33850045463E+02  0.23796916384E+03  0.27172235023E+03  0.77000000000E+02 0.  0.
   -5000001    1    1    2    0    0  0.10064237227E+03 -0.33850045463E+02  0.22285011728E+03  0.25858439135E+03  0.77000000000E+02 0.  0.
<mgrwt>
<rscale>  0 0.26243253E+03</rscale>
<asrwt>0</asrwt>
<pdfrwt beam="1">  1        2 0.70794714E-01 0.26243253E+03</pdfrwt>
<pdfrwt beam="2">  1       -2 0.49633902E-02 0.26243253E+03</pdfrwt>
<totfact> 0.13407565E+04</totfact>
</mgrwt>
</event>
<event>
 4    1  0.5121375E-004  0.2103669E+03  0.7818608E-02  0.1141276E+00
         -2   -1    0    0    0  501 -0.00000000000E+00  0.00000000000E+00  0.34306517343E+02  0.34306517438E+02  0.25500000000E-02 0. -1.
          2   -1    0    0  501    0  0.00000000000E+00 -0.00000000000E+00 -0.32249150590E+03  0.32249150591E+03  0.25500000000E-02 0.  1.
    5000001    1    1    2    0    0  0.49113743072E+02  0.51354536561E+02 -0.12844513383E+03  0.16576067262E+03  0.77000000000E+02 0.  0.
   -5000001    1    1    2    0    0 -0.49113743072E+02 -0.51354536561E+02 -0.15973985473E+03  0.19103735073E+03  0.77000000000E+02 0.  0.
<mgrwt>
<rscale>  0 0.21036692E+03</rscale>
<asrwt>0</asrwt>
<pdfrwt beam="1">  1        2 0.46070213E-01 0.21036692E+03</pdfrwt>
<pdfrwt beam="2">  1       -2 0.49009312E-02 0.21036692E+03</pdfrwt>
<totfact> 0.21458603E+04</totfact>
</mgrwt>
</event>
<event>
 4    1  0.5121375E-004  0.4277740E+03  0.7818608E-02  0.1034565E+00
          2   -1    0    0  501    0  0.00000000000E+00  0.00000000000E+00  0.24443337383E+04  0.24443337383E+04  0.25500000000E-02 0.  1.
         -2   -1    0    0    0  501 -0.00000000000E+00 -0.00000000000E+00 -0.18715798022E+02  0.18715798196E+02  0.25500000000E-02 0. -1.
    5000001    1    1    2    0    0  0.16814921514E+03 -0.10684152832E+03  0.12783031071E+04  0.12960235740E+04  0.77000000000E+02 0.  0.
   -5000001    1    1    2    0    0 -0.16814921514E+03  0.10684152832E+03  0.11473148331E+04  0.11670259624E+04  0.77000000000E+02 0.  0.
<mgrwt>
<rscale>  0 0.42777404E+03</rscale>
<asrwt>0</asrwt>
<pdfrwt beam="1">  1        2 0.34919058E+00 0.42777404E+03</pdfrwt>
<pdfrwt beam="2">  1       -2 0.26736851E-02 0.42777404E+03</pdfrwt>
<totfact> 0.26633866E+03</totfact>
</mgrwt>
</event>
<event>
 4    1  0.5121375E-004  0.2824522E+03  0.7818608E-02  0.1094357E+00
         -2   -1    0    0    0  501 -0.00000000000E+00  0.00000000000E+00  0.33111108418E+02  0.33111108517E+02  0.25500000000E-02 0. -1.
          2   -1    0    0  501    0  0.00000000000E+00 -0.00000000000E+00 -0.60236016127E+03  0.60236016127E+03  0.25500000000E-02 0.  1.
    5000001    1    1    2    0    0  0.10857046291E+03 -0.17786309254E+02 -0.38299962251E+03  0.40585910001E+03  0.77000000000E+02 0.  0.
   -5000001    1    1    2    0    0 -0.10857046291E+03  0.17786309254E+02 -0.18624943034E+03  0.22961216978E+03  0.77000000000E+02 0.  0.
<mgrwt>
<rscale>  0 0.28245221E+03</rscale>
<asrwt>0</asrwt>
<pdfrwt beam="1">  1        2 0.86051445E-01 0.28245221E+03</pdfrwt>
<pdfrwt beam="2">  1       -2 0.47301587E-02 0.28245221E+03</pdfrwt>
<totfact> 0.11624485E+04</totfact>
</mgrwt>
</event>
<event>
 4    1  0.5121375E-004  0.1762719E+03  0.7818608E-02  0.1171461E+00
          2   -1    0    0  501    0  0.00000000000E+00  0.00000000000E+00  0.88448196553E+03  0.88448196553E+03  0.25500000000E-02 0.  1.
         -2   -1    0    0    0  501 -0.00000000000E+00 -0.00000000000E+00 -0.87824820173E+01  0.87824823875E+01  0.25500000000E-02 0. -1.
    5000001    1    1    2    0    0 -0.38431352107E+02 -0.12429385322E+02  0.36485457134E+03  0.37507241524E+03  0.77000000000E+02 0.  0.
   -5000001    1    1    2    0    0  0.38431352107E+02  0.12429385322E+02  0.51084491217E+03  0.51819203268E+03  0.77000000000E+02 0.  0.
<mgrwt>
<rscale>  0 0.17627192E+03</rscale>
<asrwt>0</asrwt>
<pdfrwt beam="1">  1        2 0.12635463E+00 0.17627192E+03</pdfrwt>
<pdfrwt beam="2">  1       -2 0.12546397E-02 0.17627192E+03</pdfrwt>
<totfact> 0.50421701E+04</totfact>
</mgrwt>
</event>
<event>
 4    1  0.5121375E-004  0.1962764E+03  0.7818608E-02  0.1152919E+00
         -2   -1    0    0    0  501 -0.00000000000E+00  0.00000000000E+00  0.10227424008E+02  0.10227424326E+02  0.25500000000E-02 0. -1.
          2   -1    0    0  501    0  0.00000000000E+00 -0.00000000000E+00 -0.94169408458E+03  0.94169408458E+03  0.25500000000E-02 0.  1.
    5000001    1    1    2    0    0  0.58356939215E+02 -0.16931164807E+02 -0.48099947157E+03  0.49089885756E+03  0.77000000000E+02 0.  0.
   -5000001    1    1    2    0    0 -0.58356939215E+02  0.16931164807E+02 -0.45046718899E+03  0.46102265135E+03  0.77000000000E+02 0.  0.
<mgrwt>
<rscale>  0 0.19627639E+03</rscale>
<asrwt>0</asrwt>
<pdfrwt beam="1">  1        2 0.13452767E+00 0.19627639E+03</pdfrwt>
<pdfrwt beam="2">  1       -2 0.14610612E-02 0.19627639E+03</pdfrwt>
<totfact> 0.37641987E+04</totfact>
</mgrwt>
</event>
<event>
 4    1  0.5121375E-004  0.1713897E+03  0.7818608E-02  0.1176406E+00
         -2   -1    0    0    0  501 -0.00000000000E+00  0.00000000000E+00  0.71804323756E+03  0.71804323756E+03  0.25500000000E-02 0. -1.
          2   -1    0    0  501    0  0.00000000000E+00 -0.00000000000E+00 -0.10227247828E+02  0.10227248145E+02  0.25500000000E-02 0.  1.
    5000001    1    1    2    0    0 -0.41105846997E+01  0.33998062141E+02  0.28782752873E+03  0.29991073911E+03  0.77000000000E+02 0.  0.
   -5000001    1    1    2    0    0  0.41105846997E+01 -0.33998062141E+02  0.41998846100E+03  0.42835974660E+03  0.77000000000E+02 0.  0.
<mgrwt>
<rscale>  0 0.17138969E+03</rscale>
<asrwt>0</asrwt>
<pdfrwt beam="1">  1        2 0.14610352E-02 0.17138969E+03</pdfrwt>
<pdfrwt beam="2">  1       -2 0.10257762E+00 0.17138969E+03</pdfrwt>
<totfact> 0.65928903E+03</totfact>
</mgrwt>
</event>
<event>
 4    1  0.5121375E-004  0.6734399E+03  0.7818608E-02  0.9763763E-01
          2   -1    0    0  501    0  0.00000000000E+00  0.00000000000E+00  0.42750613953E+03  0.42750613954E+03  0.25500000000E-02 0.  1.
         -2   -1    0    0    0  501 -0.00000000000E+00 -0.00000000000E+00 -0.26521336155E+03  0.26521336156E+03  0.25500000000E-02 0. -1.
    5000001    1    1    2    0    0 -0.25358381659E+03  0.20427079982E+03  0.42384307096E+02  0.33727843273E+03  0.77000000000E+02 0.  0.
   -5000001    1    1    2    0    0  0.25358381659E+03 -0.20427079982E+03  0.11990847089E+03  0.35544106837E+03  0.77000000000E+02 0.  0.
<mgrwt>
<rscale>  0 0.67343995E+03</rscale>
<asrwt>0</asrwt>
<pdfrwt beam="1">  1        2 0.61072306E-01 0.67343995E+03</pdfrwt>
<pdfrwt beam="2">  1       -2 0.37887623E-01 0.67343995E+03</pdfrwt>
<totfact> 0.53087165E+02</totfact>
</mgrwt>
</event>
<event>
 4    1  0.5121375E-004  0.1956343E+03  0.7818608E-02  0.1153476E+00
         -2   -1    0    0    0  501 -0.00000000000E+00  0.00000000000E+00  0.79472884818E+01  0.79472888909E+01  0.25500000000E-02 0. -1.
          2   -1    0    0  501    0  0.00000000000E+00 -0.00000000000E+00 -0.12039566460E+04  0.12039566460E+04  0.25500000000E-02 0.  1.
    5000001    1    1    2    0    0  0.53189596294E+02  0.18185005372E+02 -0.46237468411E+03  0.47210081135E+03  0.77000000000E+02 0.  0.
   -5000001    1    1    2    0    0 -0.53189596294E+02 -0.18185005372E+02 -0.73363467345E+03  0.73980312359E+03  0.77000000000E+02 0.  0.
<mgrwt>
<rscale>  0 0.19563426E+03</rscale>
<asrwt>0</asrwt>
<pdfrwt beam="1">  1        2 0.17199369E+00 0.19563426E+03</pdfrwt>
<pdfrwt beam="2">  1       -2 0.11353277E-02 0.19563426E+03</pdfrwt>
<totfact> 0.38535976E+04</totfact>
</mgrwt>
</event>
<event>
 4    1  0.5121375E-004  0.2586974E+03  0.7818608E-02  0.1107928E+00
         -2   -1    0    0    0  501 -0.00000000000E+00  0.00000000000E+00  0.36005151765E+02  0.36005151856E+02  0.25500000000E-02 0. -1.
          2   -1    0    0  501    0  0.00000000000E+00 -0.00000000000E+00 -0.46468589373E+03  0.46468589373E+03  0.25500000000E-02 0.  1.
    5000001    1    1    2    0    0 -0.68989848357E+02  0.32766452023E+02 -0.35076901278E+03  0.36715274735E+03  0.77000000000E+02 0.  0.
   -5000001    1    1    2    0    0  0.68989848357E+02 -0.32766452023E+02 -0.77911729179E+02  0.13353829824E+03  0.77000000000E+02 0.  0.
<mgrwt>
<rscale>  0 0.25869740E+03</rscale>
<asrwt>0</asrwt>
<pdfrwt beam="1">  1        2 0.66383696E-01 0.25869740E+03</pdfrwt>
<pdfrwt beam="2">  1       -2 0.51435934E-02 0.25869740E+03</pdfrwt>
<totfact> 0.13621054E+04</totfact>
</mgrwt>
</event>
<event>
 4    1  0.5121375E-004  0.1749887E+03  0.7818608E-02  0.1172743E+00
          2   -1    0    0  501    0  0.00000000000E+00  0.00000000000E+00  0.65559078114E+02  0.65559078164E+02  0.25500000000E-02 0.  1.
         -2   -1    0    0    0  501 -0.00000000000E+00 -0.00000000000E+00 -0.11676894413E+03  0.11676894416E+03  0.25500000000E-02 0. -1.
    5000001    1    1    2    0    0 -0.39193838745E+02  0.13774450836E+02 -0.24969566379E+02  0.90985557846E+02  0.77000000000E+02 0.  0.
   -5000001    1    1    2    0    0  0.39193838745E+02 -0.13774450836E+02 -0.26240299636E+02  0.91342464475E+02  0.77000000000E+02 0.  0.
<mgrwt>
<rscale>  0 0.17498873E+03</rscale>
<asrwt>0</asrwt>
<pdfrwt beam="1">  1        2 0.93655826E-02 0.17498873E+03</pdfrwt>
<pdfrwt beam="2">  1       -2 0.16681278E-01 0.17498873E+03</pdfrwt>
<totfact> 0.18926781E+04</totfact>
</mgrwt>
</event>
<event>
 4    1  0.5121375E-004  0.3151410E+03  0.7818608E-02  0.1077908E+00
         -2   -1    0    0    0  501 -0.00000000000E+00  0.00000000000E+00  0.12547688006E+03  0.12547688008E+03  0.25500000000E-02 0. -1.
          2   -1    0    0  501    0  0.00000000000E+00 -0.00000000000E+00 -0.19787281462E+03  0.19787281463E+03  0.25500000000E-02 0.  1.
    5000001    1    1    2    0    0  0.30164769989E+02  0.10639991176E+03  0.47590676459E+02  0.14291510437E+03  0.77000000000E+02 0.  0.
   -5000001    1    1    2    0    0 -0.30164769989E+02 -0.10639991176E+03 -0.11998661102E+03  0.18043459035E+03  0.77000000000E+02 0.  0.
<mgrwt>
<rscale>  0 0.31514101E+03</rscale>
<asrwt>0</asrwt>
<pdfrwt beam="1">  1        2 0.28267545E-01 0.31514101E+03</pdfrwt>
<pdfrwt beam="2">  1       -2 0.17925269E-01 0.31514101E+03</pdfrwt>
<totfact> 0.47498777E+03</totfact>
</mgrwt>
</event>
<event>
 4    1  0.5121375E-004  0.2187054E+03  0.7818608E-02  0.1134852E+00
          2   -1    0    0  501    0  0.00000000000E+00  0.00000000000E+00  0.19987168628E+04  0.19987168628E+04  0.25500000000E-02 0.  1.
         -2   -1    0    0    0  501 -0.00000000000E+00 -0.00000000000E+00 -0.59828452648E+01  0.59828458082E+01  0.25500000000E-02 0. -1.
    5000001    1    1    2    0    0  0.38971640996E+02 -0.61098820096E+02  0.12518987879E+04  0.12563564103E+04  0.77000000000E+02 0.  0.
   -5000001    1    1    2    0    0 -0.38971640996E+02  0.61098820096E+02  0.74083522964E+03  0.74834329829E+03  0.77000000000E+02 0.  0.
<mgrwt>
<rscale>  0 0.21870541E+03</rscale>
<asrwt>0</asrwt>
<pdfrwt beam="1">  1        2 0.28553098E+00 0.21870541E+03</pdfrwt>
<pdfrwt beam="2">  1       -2 0.85469221E-03 0.21870541E+03</pdfrwt>
<totfact> 0.23468393E+04</totfact>
</mgrwt>
</event>
<event>
 4    1  0.5121375E-004  0.4157452E+03  0.7818608E-02  0.1038460E+00
         -2   -1    0    0    0  501 -0.00000000000E+00  0.00000000000E+00  0.54785136913E+02  0.54785136973E+02  0.25500000000E-02 0. -1.
          2   -1    0    0  501    0  0.00000000000E+00 -0.00000000000E+00 -0.78873614846E+03  0.78873614847E+03  0.25500000000E-02 0.  1.
    5000001    1    1    2    0    0 -0.13563355194E+03  0.10471811945E+03 -0.54753587150E+03  0.57886688931E+03  0.77000000000E+02 0.  0.
   -5000001    1    1    2    0    0  0.13563355194E+03 -0.10471811945E+03 -0.18641514005E+03  0.26465439613E+03  0.77000000000E+02 0.  0.
<mgrwt>
<rscale>  0 0.41574520E+03</rscale>
<asrwt>0</asrwt>
<pdfrwt beam="1">  1        2 0.11267659E+00 0.41574520E+03</pdfrwt>
<pdfrwt beam="2">  1       -2 0.78264486E-02 0.41574520E+03</pdfrwt>
<totfact> 0.39081912E+03</totfact>
</mgrwt>
</event>
<event>
 4    1  0.5121375E-004  0.2179114E+03  0.7818608E-02  0.1135450E+00
         -2   -1    0    0    0  501 -0.00000000000E+00  0.00000000000E+00  0.22670115758E+03  0.22670115760E+03  0.25500000000E-02 0. -1.
          2   -1    0    0  501    0  0.00000000000E+00 -0.00000000000E+00 -0.52365627265E+02  0.52365627327E+02  0.25500000000E-02 0.  1.
    5000001    1    1    2    0    0 -0.27111409540E+02  0.63634672626E+02  0.43589222459E+02  0.11230948492E+03  0.77000000000E+02 0.  0.
   -5000001    1    1    2    0    0  0.27111409540E+02 -0.63634672626E+02  0.13074630786E+03  0.16675730001E+03  0.77000000000E+02 0.  0.
<mgrwt>
<rscale>  0 0.21791143E+03</rscale>
<asrwt>0</asrwt>
<pdfrwt beam="1">  1        2 0.74808040E-02 0.21791143E+03</pdfrwt>
<pdfrwt beam="2">  1       -2 0.32385879E-01 0.21791143E+03</pdfrwt>
<totfact> 0.80418699E+03</totfact>
</mgrwt>
</event>
<event>
 4    1  0.5121375E-004  0.2422965E+03  0.7818608E-02  0.1118272E+00
         -2   -1    0    0    0  501 -0.00000000000E+00  0.00000000000E+00  0.26781108666E+03  0.26781108668E+03  0.25500000000E-02 0. -1.
          2   -1    0    0  501    0  0.00000000000E+00 -0.00000000000E+00 -0.54803183784E+02  0.54803183843E+02  0.25500000000E-02 0.  1.
    5000001    1    1    2    0    0  0.90048717612E+02  0.14547865218E+02  0.78974439143E+02  0.14313061854E+03  0.77000000000E+02 0.  0.
   -5000001    1    1    2    0    0 -0.90048717612E+02 -0.14547865218E+02  0.13403346374E+03  0.17948365198E+03  0.77000000000E+02 0.  0.
<mgrwt>
<rscale>  0 0.24229651E+03</rscale>
<asrwt>0</asrwt>
<pdfrwt beam="1">  1        2 0.78290263E-02 0.24229651E+03</pdfrwt>
<pdfrwt beam="2">  1       -2 0.38258726E-01 0.24229651E+03</pdfrwt>
<totfact> 0.55967567E+03</totfact>
</mgrwt>
</event>
<event>
 4    1  0.5121375E-004  0.3031823E+03  0.7818608E-02  0.1083661E+00
          2   -1    0    0  501    0  0.00000000000E+00  0.00000000000E+00  0.28190736809E+03  0.28190736810E+03  0.25500000000E-02 0.  1.
         -2   -1    0    0    0  501 -0.00000000000E+00 -0.00000000000E+00 -0.81515686600E+02  0.81515686640E+02  0.25500000000E-02 0. -1.
    5000001    1    1    2    0    0 -0.25423972070E+02  0.12613233624E+03  0.12686856935E+03  0.19641888527E+03  0.77000000000E+02 0.  0.
   -5000001    1    1    2    0    0  0.25423972070E+02 -0.12613233624E+03  0.73523112139E+02  0.16700416947E+03  0.77000000000E+02 0.  0.
<mgrwt>
<rscale>  0 0.30318227E+03</rscale>
<asrwt>0</asrwt>
<pdfrwt beam="1">  1        2 0.40272481E-01 0.30318227E+03</pdfrwt>
<pdfrwt beam="2">  1       -2 0.11645098E-01 0.30318227E+03</pdfrwt>
<totfact> 0.65669563E+03</totfact>
</mgrwt>
</event>
<event>
 4    1  0.5121375E-004  0.2703210E+03  0.7818608E-02  0.1101096E+00
          2   -1    0    0  501    0  0.00000000000E+00  0.00000000000E+00  0.70189849941E+03  0.70189849942E+03  0.25500000000E-02 0.  1.
         -2   -1    0    0    0  501 -0.00000000000E+00 -0.00000000000E+00 -0.26027073266E+02  0.26027073391E+02  0.25500000000E-02 0. -1.
    5000001    1    1    2    0    0  0.10747739875E+03 -0.27469179525E+02  0.35350212854E+03  0.37841604346E+03  0.77000000000E+02 0.  0.
   -5000001    1    1    2    0    0 -0.10747739875E+03  0.27469179525E+02  0.32236929761E+03  0.34950952935E+03  0.77000000000E+02 0.  0.
<mgrwt>
<rscale>  0 0.27032102E+03</rscale>
<asrwt>0</asrwt>
<pdfrwt beam="1">  1        2 0.10027123E+00 0.27032102E+03</pdfrwt>
<pdfrwt beam="2">  1       -2 0.37181527E-02 0.27032102E+03</pdfrwt>
<totfact> 0.13958968E+04</totfact>
</mgrwt>
</event>
<event>
 4    1  0.5121375E-004  0.3387561E+03  0.7818608E-02  0.1067327E+00
         -2   -1    0    0    0  501 -0.00000000000E+00  0.00000000000E+00  0.17078523055E+02  0.17078523246E+02  0.25500000000E-02 0.  1.
          2   -1    0    0  501    0  0.00000000000E+00 -0.00000000000E+00 -0.16798243300E+04  0.16798243300E+04  0.25500000000E-02 0. -1.
    5000001    1    1    2    0    0  0.32778183021E+02 -0.14421668785E+03 -0.68218091395E+03  0.70226253047E+03  0.77000000000E+02 0.  0.
   -5000001    1    1    2    0    0 -0.32778183021E+02  0.14421668785E+03 -0.98056489301E+03  0.99464032280E+03  0.77000000000E+02 0.  0.
<mgrwt>
<rscale>  0 0.33875607E+03</rscale>
<asrwt>0</asrwt>
<pdfrwt beam="1">  1        2 0.23997480E+00 0.33875607E+03</pdfrwt>
<pdfrwt beam="2">  1       -2 0.24397901E-02 0.33875607E+03</pdfrwt>
<totfact> 0.73283386E+03</totfact>
</mgrwt>
</event>
<event>
 4    1  0.5121375E-004  0.1776659E+03  0.7818608E-02  0.1170081E+00
         -2   -1    0    0    0  501 -0.00000000000E+00  0.00000000000E+00  0.23803208270E+02  0.23803208406E+02  0.25500000000E-02 0. -1.
          2   -1    0    0  501    0  0.00000000000E+00 -0.00000000000E+00 -0.33152221004E+03  0.33152221005E+03  0.25500000000E-02 0.  1.
    5000001    1    1    2    0    0 -0.39780561715E+02  0.23123999625E+01 -0.19256032983E+03  0.21117841014E+03  0.77000000000E+02 0.  0.
   -5000001    1    1    2    0    0  0.39780561715E+02 -0.23123999625E+01 -0.11515867194E+03  0.14414700832E+03  0.77000000000E+02 0.  0.
<mgrwt>
<rscale>  0 0.17766589E+03</rscale>
<asrwt>0</asrwt>
<pdfrwt beam="1">  1        2 0.47360313E-01 0.17766589E+03</pdfrwt>
<pdfrwt beam="2">  1       -2 0.34004585E-02 0.17766589E+03</pdfrwt>
<totfact> 0.35512138E+04</totfact>
</mgrwt>
</event>
<event>
 4    1  0.5121375E-004  0.2313617E+03  0.7818608E-02  0.1125685E+00
         -2   -1    0    0    0  501 -0.00000000000E+00  0.00000000000E+00  0.67978718815E+01  0.67978723598E+01  0.25500000000E-02 0. -1.
          2   -1    0    0  501    0  0.00000000000E+00 -0.00000000000E+00 -0.19685663628E+04  0.19685663628E+04  0.25500000000E-02 0.  1.
    5000001    1    1    2    0    0  0.96853048487E+01  0.34300760376E+02 -0.16522285100E+04  0.16544057533E+04  0.77000000000E+02 0.  0.
   -5000001    1    1    2    0    0 -0.96853048487E+01 -0.34300760376E+02 -0.30953998092E+03  0.32095848186E+03  0.77000000000E+02 0.  0.
<mgrwt>
<rscale>  0 0.23136173E+03</rscale>
<asrwt>0</asrwt>
<pdfrwt beam="1">  1        2 0.28122340E+00 0.23136173E+03</pdfrwt>
<pdfrwt beam="2">  1       -2 0.97112585E-03 0.23136173E+03</pdfrwt>
<totfact> 0.20227111E+04</totfact>
</mgrwt>
</event>
<event>
 4    1  0.5121375E-004  0.3473092E+03  0.7818608E-02  0.1063725E+00
         -2   -1    0    0    0  501 -0.00000000000E+00  0.00000000000E+00  0.27836065854E+04  0.27836065854E+04  0.25500000000E-02 0. -1.
          2   -1    0    0  501    0  0.00000000000E+00 -0.00000000000E+00 -0.10833396667E+02  0.10833396967E+02  0.25500000000E-02 0.  1.
    5000001    1    1    2    0    0  0.12420607027E+03 -0.81498966781E+02  0.10126440107E+04  0.10263752344E+04  0.77000000000E+02 0.  0.
   -5000001    1    1    2    0    0 -0.12420607027E+03  0.81498966781E+02  0.17601291781E+04  0.17680647480E+04  0.77000000000E+02 0.  0.
<mgrwt>
<rscale>  0 0.34730917E+03</rscale>
<asrwt>0</asrwt>
<pdfrwt beam="1">  1        2 0.15476281E-02 0.34730917E+03</pdfrwt>
<pdfrwt beam="2">  1       -2 0.39765809E+00 0.34730917E+03</pdfrwt>
<totfact> 0.72415664E+01</totfact>
</mgrwt>
</event>
<event>
 4    1  0.5121375E-004  0.2338238E+03  0.7818608E-02  0.1123977E+00
          2   -1    0    0  501    0  0.00000000000E+00  0.00000000000E+00  0.37243095645E+03  0.37243095646E+03  0.25500000000E-02 0.  1.
         -2   -1    0    0    0  501 -0.00000000000E+00 -0.00000000000E+00 -0.36700481672E+02  0.36700481760E+02  0.25500000000E-02 0. -1.
    5000001    1    1    2    0    0 -0.54073264674E+02 -0.60073380578E+02  0.10708425474E+03  0.15468925826E+03  0.77000000000E+02 0.  0.
   -5000001    1    1    2    0    0  0.54073264674E+02  0.60073380578E+02  0.22864622003E+03  0.25444217996E+03  0.77000000000E+02 0.  0.
<mgrwt>
<rscale>  0 0.23382383E+03</rscale>
<asrwt>0</asrwt>
<pdfrwt beam="1">  1        2 0.53204425E-01 0.23382383E+03</pdfrwt>
<pdfrwt beam="2">  1       -2 0.52429257E-02 0.23382383E+03</pdfrwt>
<totfact> 0.16721140E+04</totfact>
</mgrwt>
</event>
<event>
 4    1  0.5121375E-004  0.4605535E+03  0.7818608E-02  0.1024621E+00
         -2   -1    0    0    0  501 -0.00000000000E+00  0.00000000000E+00  0.13141469218E+03  0.13141469220E+03  0.25500000000E-02 0. -1.
          2   -1    0    0  501    0  0.00000000000E+00 -0.00000000000E+00 -0.40351176316E+03  0.40351176317E+03  0.25500000000E-02 0.  1.
    5000001    1    1    2    0    0  0.20777343946E+02 -0.18890684397E+03 -0.25776031206E+03  0.32937345399E+03  0.77000000000E+02 0.  0.
   -5000001    1    1    2    0    0 -0.20777343946E+02  0.18890684397E+03 -0.14336758924E+02  0.20555300138E+03  0.77000000000E+02 0.  0.
<mgrwt>
<rscale>  0 0.46055347E+03</rscale>
<asrwt>0</asrwt>
<pdfrwt beam="1">  1        2 0.57644537E-01 0.46055347E+03</pdfrwt>
<pdfrwt beam="2">  1       -2 0.18773528E-01 0.46055347E+03</pdfrwt>
<totfact> 0.20260388E+03</totfact>
</mgrwt>
</event>
<event>
 4    1  0.5121375E-004  0.2108132E+03  0.7818608E-02  0.1140924E+00
          2   -1    0    0  501    0  0.00000000000E+00  0.00000000000E+00  0.14718553583E+03  0.14718553585E+03  0.25500000000E-02 0.  1.
         -2   -1    0    0    0  501 -0.00000000000E+00 -0.00000000000E+00 -0.75486703832E+02  0.75486703875E+02  0.25500000000E-02 0. -1.
    5000001    1    1    2    0    0  0.57086289723E+02 -0.22992344329E+02  0.75286863361E+02  0.12403468937E+03  0.77000000000E+02 0.  0.
   -5000001    1    1    2    0    0 -0.57086289723E+02  0.22992344329E+02 -0.35880313598E+01  0.98637550361E+02  0.77000000000E+02 0.  0.
<mgrwt>
<rscale>  0 0.21081320E+03</rscale>
<asrwt>0</asrwt>
<pdfrwt beam="1">  1        2 0.21026505E-01 0.21081320E+03</pdfrwt>
<pdfrwt beam="2">  1       -2 0.10783815E-01 0.21081320E+03</pdfrwt>
<totfact> 0.14928160E+04</totfact>
</mgrwt>
</event>
<event>
 4    1  0.5121375E-004  0.1938282E+03  0.7818608E-02  0.1155053E+00
          2   -1    0    0  501    0  0.00000000000E+00  0.00000000000E+00  0.43626425703E+03  0.43626425703E+03  0.25500000000E-02 0.  1.
         -2   -1    0    0    0  501 -0.00000000000E+00 -0.00000000000E+00 -0.21529011161E+02  0.21529011312E+02  0.25500000000E-02 0. -1.
    5000001    1    1    2    0    0 -0.22975449544E+02 -0.42353450114E+02  0.12756458334E+03  0.15659951769E+03  0.77000000000E+02 0.  0.
   -5000001    1    1    2    0    0  0.22975449544E+02  0.42353450114E+02  0.28717066252E+03  0.30119375065E+03  0.77000000000E+02 0.  0.
<mgrwt>
<rscale>  0 0.19382815E+03</rscale>
<asrwt>0</asrwt>
<pdfrwt beam="1">  1        2 0.62323467E-01 0.19382815E+03</pdfrwt>
<pdfrwt beam="2">  1       -2 0.30755730E-02 0.19382815E+03</pdfrwt>
<totfact> 0.30946973E+04</totfact>
</mgrwt>
</event>
<event>
 4    1  0.5121375E-004  0.3699345E+03  0.7818608E-02  0.1054718E+00
         -2   -1    0    0    0  501 -0.00000000000E+00  0.00000000000E+00  0.55255572961E+02  0.55255573020E+02  0.25500000000E-02 0. -1.
          2   -1    0    0  501    0  0.00000000000E+00 -0.00000000000E+00 -0.61917511491E+03  0.61917511491E+03  0.25500000000E-02 0.  1.
    5000001    1    1    2    0    0  0.10380240881E+03  0.12518418436E+03 -0.20380270659E+03  0.27186497256E+03  0.77000000000E+02 0.  0.
   -5000001    1    1    2    0    0 -0.10380240881E+03 -0.12518418436E+03 -0.36011683536E+03  0.40256571538E+03  0.77000000000E+02 0.  0.
<mgrwt>
<rscale>  0 0.36993446E+03</rscale>
<asrwt>0</asrwt>
<pdfrwt beam="1">  1        2 0.88453584E-01 0.36993446E+03</pdfrwt>
<pdfrwt beam="2">  1       -2 0.78936536E-02 0.36993446E+03</pdfrwt>
<totfact> 0.51513750E+03</totfact>
</mgrwt>
</event>
<event>
 4    1  0.5121375E-004  0.2942571E+03  0.7818608E-02  0.1088147E+00
          2   -1    0    0  501    0  0.00000000000E+00  0.00000000000E+00  0.11221476032E+04  0.11221476032E+04  0.25500000000E-02 0.  1.
         -2   -1    0    0    0  501 -0.00000000000E+00 -0.00000000000E+00 -0.19290513197E+02  0.19290513365E+02  0.25500000000E-02 0. -1.
    5000001    1    1    2    0    0 -0.10134580075E+03 -0.48884570629E+02  0.33695067325E+03  0.36349061718E+03  0.77000000000E+02 0.  0.
   -5000001    1    1    2    0    0  0.10134580075E+03  0.48884570629E+02  0.76590641673E+03  0.77794749936E+03  0.77000000000E+02 0.  0.
<mgrwt>
<rscale>  0 0.29425705E+03</rscale>
<asrwt>0</asrwt>
<pdfrwt beam="1">  1        2 0.16030682E+00 0.29425705E+03</pdfrwt>
<pdfrwt beam="2">  1       -2 0.27557872E-02 0.29425705E+03</pdfrwt>
<totfact> 0.11905584E+04</totfact>
</mgrwt>
</event>
<event>
 4    1  0.5121375E-004  0.1713861E+03  0.7818608E-02  0.1176410E+00
          2   -1    0    0  501    0  0.00000000000E+00  0.00000000000E+00  0.19351379896E+02  0.19351380064E+02  0.25500000000E-02 0.  1.
         -2   -1    0    0    0  501 -0.00000000000E+00 -0.00000000000E+00 -0.37947164081E+03  0.37947164081E+03  0.25500000000E-02 0. -1.
    5000001    1    1    2    0    0 -0.28322611368E+02 -0.34363093099E+01 -0.12304416333E+03  0.14792851201E+03  0.77000000000E+02 0.  0.
   -5000001    1    1    2    0    0  0.28322611368E+02  0.34363093099E+01 -0.23707609758E+03  0.25089450886E+03  0.77000000000E+02 0.  0.
<mgrwt>
<rscale>  0 0.17138611E+03</rscale>
<asrwt>0</asrwt>
<pdfrwt beam="1">  1        2 0.27644831E-02 0.17138611E+03</pdfrwt>
<pdfrwt beam="2">  1       -2 0.54210230E-01 0.17138611E+03</pdfrwt>
<totfact> 0.10932014E+04</totfact>
</mgrwt>
</event>
<event>
 4    1  0.5121375E-004  0.2487350E+03  0.7818608E-02  0.1114107E+00
         -2   -1    0    0    0  501 -0.00000000000E+00  0.00000000000E+00  0.14581239799E+02  0.14581240022E+02  0.25500000000E-02 0. -1.
          2   -1    0    0  501    0  0.00000000000E+00 -0.00000000000E+00 -0.10607653707E+04  0.10607653708E+04  0.25500000000E-02 0.  1.
    5000001    1    1    2    0    0  0.51059428830E+02  0.81209557465E+02 -0.60236434165E+03  0.61479578527E+03  0.77000000000E+02 0.  0.
   -5000001    1    1    2    0    0 -0.51059428830E+02 -0.81209557465E+02 -0.44381978930E+03  0.46055082550E+03  0.77000000000E+02 0.  0.
<mgrwt>
<rscale>  0 0.24873499E+03</rscale>
<asrwt>0</asrwt>
<pdfrwt beam="1">  1        2 0.15153786E+00 0.24873499E+03</pdfrwt>
<pdfrwt beam="2">  1       -2 0.20830349E-02 0.24873499E+03</pdfrwt>
<totfact> 0.19376472E+04</totfact>
</mgrwt>
</event>
<event>
 4    1  0.5121375E-004  0.1880480E+03  0.7818608E-02  0.1160234E+00
         -2   -1    0    0    0  501 -0.00000000000E+00  0.00000000000E+00  0.87185230770E+01  0.87185234499E+01  0.25500000000E-02 0. -1.
          2   -1    0    0  501    0  0.00000000000E+00 -0.00000000000E+00 -0.10139919570E+04  0.10139919570E+04  0.25500000000E-02 0.  1.
    5000001    1    1    2    0    0  0.45988665696E+02  0.22370116774E+02 -0.40904716393E+03  0.41936137377E+03  0.77000000000E+02 0.  0.
   -5000001    1    1    2    0    0 -0.45988665696E+02 -0.22370116774E+02 -0.59622626999E+03  0.60334910668E+03  0.77000000000E+02 0.  0.
<mgrwt>
<rscale>  0 0.18804800E+03</rscale>
<asrwt>0</asrwt>
<pdfrwt beam="1">  1        2 0.14485592E+00 0.18804800E+03</pdfrwt>
<pdfrwt beam="2">  1       -2 0.12455040E-02 0.18804800E+03</pdfrwt>
<totfact> 0.42849600E+04</totfact>
</mgrwt>
</event>
<event>
 4    1  0.5121375E-004  0.1887063E+03  0.7818608E-02  0.1159633E+00
          2   -1    0    0  501    0  0.00000000000E+00  0.00000000000E+00  0.27256782835E+04  0.27256782835E+04  0.25500000000E-02 0.  1.
         -2   -1    0    0    0  501 -0.00000000000E+00 -0.00000000000E+00 -0.32661649976E+01  0.32661659930E+01  0.25500000000E-02 0. -1.
    5000001    1    1    2    0    0  0.42579428890E+02 -0.12637971838E+02  0.90371791291E+03  0.90807917728E+03  0.77000000000E+02 0.  0.
   -5000001    1    1    2    0    0 -0.42579428890E+02  0.12637971838E+02  0.18186942056E+04  0.18208652722E+04  0.77000000000E+02 0.  0.
<mgrwt>
<rscale>  0 0.18870629E+03</rscale>
<asrwt>0</asrwt>
<pdfrwt beam="1">  1        2 0.38938255E+00 0.18870629E+03</pdfrwt>
<pdfrwt beam="2">  1       -2 0.46659514E-03 0.18870629E+03</pdfrwt>
<totfact> 0.24462955E+04</totfact>
</mgrwt>
</event>
<event>
 4    1  0.5121375E-004  0.2027973E+03  0.7818608E-02  0.1147400E+00
         -2   -1    0    0    0  501 -0.00000000000E+00  0.00000000000E+00  0.25931447375E+03  0.25931447376E+03  0.25500000000E-02 0. -1.
          2   -1    0    0  501    0  0.00000000000E+00 -0.00000000000E+00 -0.39649494289E+02  0.39649494371E+02  0.25500000000E-02 0.  1.
    5000001    1    1    2    0    0 -0.42689719111E+02  0.48804908966E+02  0.91876475450E+02  0.13628873027E+03  0.77000000000E+02 0.  0.
   -5000001    1    1    2    0    0  0.42689719111E+02 -0.48804908966E+02  0.12778850401E+03  0.16267523786E+03  0.77000000000E+02 0.  0.
<mgrwt>
<rscale>  0 0.20279732E+03</rscale>
<asrwt>0</asrwt>
<pdfrwt beam="1">  1        2 0.56642136E-02 0.20279732E+03</pdfrwt>
<pdfrwt beam="2">  1       -2 0.37044924E-01 0.20279732E+03</pdfrwt>
<totfact> 0.89308326E+03</totfact>
</mgrwt>
</event>
<event>
 4    1  0.5121375E-004  0.4247279E+03  0.7818608E-02  0.1035538E+00
          2   -1    0    0  501    0  0.00000000000E+00  0.00000000000E+00  0.17263138883E+04  0.17263138883E+04  0.25500000000E-02 0. -1.
         -2   -1    0    0    0  501 -0.00000000000E+00 -0.00000000000E+00 -0.26124130658E+02  0.26124130782E+02  0.25500000000E-02 0.  1.
    5000001    1    1    2    0    0 -0.54546877842E+02 -0.18552419041E+03  0.67626908128E+03  0.70757576090E+03  0.77000000000E+02 0.  0.
   -5000001    1    1    2    0    0  0.54546877842E+02  0.18552419041E+03  0.10239206764E+04  0.10448622582E+04  0.77000000000E+02 0.  0.
<mgrwt>
<rscale>  0 0.42472791E+03</rscale>
<asrwt>0</asrwt>
<pdfrwt beam="1">  1        2 0.24661630E+00 0.42472791E+03</pdfrwt>
<pdfrwt beam="2">  1       -2 0.37320183E-02 0.42472791E+03</pdfrwt>
<totfact> 0.36696411E+03</totfact>
</mgrwt>
</event>
<event>
 4    1  0.5121375E-004  0.2002162E+03  0.7818608E-02  0.1149557E+00
         -2   -1    0    0    0  501 -0.00000000000E+00  0.00000000000E+00  0.79247368040E+01  0.79247372142E+01  0.25500000000E-02 0. -1.
          2   -1    0    0  501    0  0.00000000000E+00 -0.00000000000E+00 -0.12646014861E+04  0.12646014861E+04  0.25500000000E-02 0.  1.
    5000001    1    1    2    0    0 -0.37423324255E+01 -0.57400648742E+02 -0.80627634227E+03  0.81198483953E+03  0.77000000000E+02 0.  0.
   -5000001    1    1    2    0    0  0.37423324255E+01  0.57400648742E+02 -0.45040040704E+03  0.46054138379E+03  0.77000000000E+02 0.  0.
<mgrwt>
<rscale>  0 0.20021623E+03</rscale>
<asrwt>0</asrwt>
<pdfrwt beam="1">  1        2 0.18065723E+00 0.20021623E+03</pdfrwt>
<pdfrwt beam="2">  1       -2 0.11321061E-02 0.20021623E+03</pdfrwt>
<totfact> 0.35988164E+04</totfact>
</mgrwt>
</event>
<event>
 4    1  0.5121375E-004  0.2183238E+03  0.7818608E-02  0.1135139E+00
          2   -1    0    0  501    0  0.00000000000E+00  0.00000000000E+00  0.36279782388E+03  0.36279782388E+03  0.25500000000E-02 0.  1.
         -2   -1    0    0    0  501 -0.00000000000E+00 -0.00000000000E+00 -0.32845625298E+02  0.32845625397E+02  0.25500000000E-02 0. -1.
    5000001    1    1    2    0    0 -0.42889251291E+02 -0.64219868689E+02  0.15616469925E+03  0.19047333856E+03  0.77000000000E+02 0.  0.
   -5000001    1    1    2    0    0  0.42889251291E+02  0.64219868689E+02  0.17378749933E+03  0.20517011072E+03  0.77000000000E+02 0.  0.
<mgrwt>
<rscale>  0 0.21832381E+03</rscale>
<asrwt>0</asrwt>
<pdfrwt beam="1">  1        2 0.51828261E-01 0.21832381E+03</pdfrwt>
<pdfrwt beam="2">  1       -2 0.46922322E-02 0.21832381E+03</pdfrwt>
<totfact> 0.20254139E+04</totfact>
</mgrwt>
</event>
<event>
 4    1  0.5121375E-004  0.5213995E+03  0.7818608E-02  0.1008339E+00
         -2   -1    0    0    0  501 -0.00000000000E+00  0.00000000000E+00  0.30306066287E+02  0.30306066395E+02  0.25500000000E-02 0. -1.
          2   -1    0    0  501    0  0.00000000000E+00 -0.00000000000E+00 -0.22425992595E+04  0.22425992595E+04  0.25500000000E-02 0.  1.
    5000001    1    1    2    0    0 -0.13210357983E+03 -0.20938858523E+03 -0.98752829316E+03  0.10209975834E+04  0.77000000000E+02 0.  0.
   -5000001    1    1    2    0    0  0.13210357983E+03  0.20938858523E+03 -0.12247649001E+04  0.12519077425E+04  0.77000000000E+02 0.  0.
<mgrwt>
<rscale>  0 0.52139951E+03</rscale>
<asrwt>0</asrwt>
<pdfrwt beam="1">  1        2 0.32037122E+00 0.52139951E+03</pdfrwt>
<pdfrwt beam="2">  1       -2 0.43294395E-02 0.52139951E+03</pdfrwt>
<totfact> 0.16104095E+03</totfact>
</mgrwt>
</event>
<event>
 4    1  0.5121375E-004  0.2443578E+03  0.7818608E-02  0.1116923E+00
         -2   -1    0    0    0  501 -0.00000000000E+00  0.00000000000E+00  0.25444851393E+03  0.25444851394E+03  0.25500000000E-02 0. -1.
          2   -1    0    0  501    0  0.00000000000E+00 -0.00000000000E+00 -0.58666792017E+02  0.58666792072E+02  0.25500000000E-02 0.  1.
    5000001    1    1    2    0    0  0.79255512551E+02 -0.17228577804E+02  0.16093189810E+03  0.19597534536E+03  0.77000000000E+02 0.  0.
   -5000001    1    1    2    0    0 -0.79255512551E+02  0.17228577804E+02  0.34849823818E+02  0.11713996066E+03  0.77000000000E+02 0.  0.
<mgrwt>
<rscale>  0 0.24435775E+03</rscale>
<asrwt>0</asrwt>
<pdfrwt beam="1">  1        2 0.83809704E-02 0.24435775E+03</pdfrwt>
<pdfrwt beam="2">  1       -2 0.36349787E-01 0.24435775E+03</pdfrwt>
<totfact> 0.56553329E+03</totfact>
</mgrwt>
</event>
<event>
 4    1  0.5121375E-004  0.1816662E+03  0.7818608E-02  0.1166200E+00
          2   -1    0    0  501    0  0.00000000000E+00  0.00000000000E+00  0.24928185743E+03  0.24928185744E+03  0.25500000000E-02 0.  1.
         -2   -1    0    0    0  501 -0.00000000000E+00 -0.00000000000E+00 -0.33097689045E+02  0.33097689143E+02  0.25500000000E-02 0. -1.
    5000001    1    1    2    0    0 -0.30640325692E+02 -0.33903276398E+02  0.13183870296E+03  0.15936971264E+03  0.77000000000E+02 0.  0.
   -5000001    1    1    2    0    0  0.30640325692E+02  0.33903276398E+02  0.84345465417E+02  0.12300983394E+03  0.77000000000E+02 0.  0.
<mgrwt>
<rscale>  0 0.18166621E+03</rscale>
<asrwt>0</asrwt>
<pdfrwt beam="1">  1        2 0.35611693E-01 0.18166621E+03</pdfrwt>
<pdfrwt beam="2">  1       -2 0.47282415E-02 0.18166621E+03</pdfrwt>
<totfact> 0.29498658E+04</totfact>
</mgrwt>
</event>
<event>
 4    1  0.5121375E-004  0.4024939E+03  0.7818608E-02  0.1042920E+00
          2   -1    0    0  501    0  0.00000000000E+00  0.00000000000E+00  0.17289736091E+04  0.17289736091E+04  0.25500000000E-02 0.  1.
         -2   -1    0    0    0  501 -0.00000000000E+00 -0.00000000000E+00 -0.23424495781E+02  0.23424495920E+02  0.25500000000E-02 0. -1.
    5000001    1    1    2    0    0 -0.14543468912E+03  0.10781187097E+03  0.10373226918E+04  0.10558134377E+04  0.77000000000E+02 0.  0.
   -5000001    1    1    2    0    0  0.14543468912E+03 -0.10781187097E+03  0.66822642154E+03  0.69658466733E+03  0.77000000000E+02 0.  0.
<mgrwt>
<rscale>  0 0.40249390E+03</rscale>
<asrwt>0</asrwt>
<pdfrwt beam="1">  1        2 0.24699630E+00 0.40249390E+03</pdfrwt>
<pdfrwt beam="2">  1       -2 0.33463556E-02 0.40249390E+03</pdfrwt>
<totfact> 0.43163679E+03</totfact>
</mgrwt>
</event>
<event>
 4    1  0.5121375E-004  0.2140070E+03  0.7818608E-02  0.1138432E+00
          2   -1    0    0  501    0  0.00000000000E+00  0.00000000000E+00  0.39666942513E+03  0.39666942514E+03  0.25500000000E-02 0.  1.
         -2   -1    0    0    0  501 -0.00000000000E+00 -0.00000000000E+00 -0.28864716166E+02  0.28864716279E+02  0.25500000000E-02 0. -1.
    5000001    1    1    2    0    0 -0.41504315930E+02  0.45484127295E+02  0.26659104910E+03  0.28423793121E+03  0.77000000000E+02 0.  0.
   -5000001    1    1    2    0    0  0.41504315930E+02 -0.45484127295E+02  0.10121365986E+03  0.14129621021E+03  0.77000000000E+02 0.  0.
<mgrwt>
<rscale>  0 0.21400701E+03</rscale>
<asrwt>0</asrwt>
<pdfrwt beam="1">  1        2 0.56667056E-01 0.21400701E+03</pdfrwt>
<pdfrwt beam="2">  1       -2 0.41235312E-02 0.21400701E+03</pdfrwt>
<totfact> 0.22319048E+04</totfact>
</mgrwt>
</event>
<event>
 4    1  0.5121375E-004  0.2717225E+03  0.7818608E-02  0.1100298E+00
          2   -1    0    0  501    0  0.00000000000E+00  0.00000000000E+00  0.15252261516E+04  0.15252261516E+04  0.25500000000E-02 0.  1.
         -2   -1    0    0    0  501 -0.00000000000E+00 -0.00000000000E+00 -0.12101997351E+02  0.12101997620E+02  0.25500000000E-02 0. -1.
    5000001    1    1    2    0    0  0.68486083332E+02  0.63362009576E+02  0.40668865066E+03  0.42429912379E+03  0.77000000000E+02 0.  0.
   -5000001    1    1    2    0    0 -0.68486083332E+02 -0.63362009576E+02  0.11064355036E+04  0.11130290255E+04  0.77000000000E+02 0.  0.
<mgrwt>
<rscale>  0 0.27172253E+03</rscale>
<asrwt>0</asrwt>
<pdfrwt beam="1">  1        2 0.21788935E+00 0.27172253E+03</pdfrwt>
<pdfrwt beam="2">  1       -2 0.17288576E-02 0.27172253E+03</pdfrwt>
<totfact> 0.14499053E+04</totfact>
</mgrwt>
</event>
<event>
 4    1  0.5121375E-004  0.2045235E+03  0.7818608E-02  0.1145978E+00
          2   -1    0    0  501    0  0.00000000000E+00  0.00000000000E+00  0.27617895315E+04  0.27617895315E+04  0.25500000000E-02 0.  1.
         -2   -1    0    0    0  501 -0.00000000000E+00 -0.00000000000E+00 -0.37864826206E+01  0.37864834793E+01  0.25500000000E-02 0. -1.
    5000001    1    1    2    0    0  0.50973395812E+01  0.55216333440E+02  0.86345107202E+03  0.86864928487E+03  0.77000000000E+02 0.  0.
   -5000001    1    1    2    0    0 -0.50973395812E+01 -0.55216333440E+02  0.18945519769E+04  0.18969267302E+04  0.77000000000E+02 0.  0.
<mgrwt>
<rscale>  0 0.20452354E+03</rscale>
<asrwt>0</asrwt>
<pdfrwt beam="1">  1        2 0.39454342E+00 0.20452354E+03</pdfrwt>
<pdfrwt beam="2">  1       -2 0.54092333E-03 0.20452354E+03</pdfrwt>
<totfact> 0.19038184E+04</totfact>
</mgrwt>
</event>
<event>
 4    1  0.5121375E-004  0.1674180E+03  0.7818608E-02  0.1180567E+00
          2   -1    0    0  501    0  0.00000000000E+00  0.00000000000E+00  0.51531211132E+03  0.51531211132E+03  0.25500000000E-02 0.  1.
         -2   -1    0    0    0  501 -0.00000000000E+00 -0.00000000000E+00 -0.13597970947E+02  0.13597971186E+02  0.25500000000E-02 0. -1.
    5000001    1    1    2    0    0 -0.23332028359E+02 -0.12607882362E+02  0.18969074408E+03  0.20643381660E+03  0.77000000000E+02 0.  0.
   -5000001    1    1    2    0    0  0.23332028359E+02  0.12607882362E+02  0.31202339629E+03  0.32247626591E+03  0.77000000000E+02 0.  0.
<mgrwt>
<rscale>  0 0.16741803E+03</rscale>
<asrwt>0</asrwt>
<pdfrwt beam="1">  1        2 0.73616014E-01 0.16741803E+03</pdfrwt>
<pdfrwt beam="2">  1       -2 0.19425673E-02 0.16741803E+03</pdfrwt>
<totfact> 0.50010238E+04</totfact>
</mgrwt>
</event>
<event>
 4    1  0.5121375E-004  0.2728873E+03  0.7818608E-02  0.1099638E+00
         -2   -1    0    0    0  501 -0.00000000000E+00  0.00000000000E+00  0.31207913079E+01  0.31207923497E+01  0.25500000000E-02 0. -1.
          2   -1    0    0  501    0  0.00000000000E+00 -0.00000000000E+00 -0.59654308661E+04  0.59654308661E+04  0.25500000000E-02 0.  1.
    5000001    1    1    2    0    0 -0.57532400556E+02 -0.94204426157E+02 -0.34718928711E+04  0.34745004762E+04  0.77000000000E+02 0.  0.
   -5000001    1    1    2    0    0  0.57532400556E+02  0.94204426157E+02 -0.24904172037E+04  0.24940511823E+04  0.77000000000E+02 0.  0.
<mgrwt>
<rscale>  0 0.27288729E+03</rscale>
<asrwt>0</asrwt>
<pdfrwt beam="1">  1        2 0.85219710E+00 0.27288729E+03</pdfrwt>
<pdfrwt beam="2">  1       -2 0.44583123E-03 0.27288729E+03</pdfrwt>
<totfact> 0.56391293E+01</totfact>
</mgrwt>
</event>
<event>
 4    1  0.5121375E-004  0.2099223E+03  0.7818608E-02  0.1141628E+00
          2   -1    0    0  501    0  0.00000000000E+00  0.00000000000E+00  0.21118858943E+03  0.21118858944E+03  0.25500000000E-02 0.  1.
         -2   -1    0    0    0  501 -0.00000000000E+00 -0.00000000000E+00 -0.52165897445E+02  0.52165897507E+02  0.25500000000E-02 0. -1.
    5000001    1    1    2    0    0  0.12752018717E+02  0.70176725301E+02  0.78664603475E+02  0.13116595059E+03  0.77000000000E+02 0.  0.
   -5000001    1    1    2    0    0 -0.12752018717E+02 -0.70176725301E+02  0.80358088508E+02  0.13218853636E+03  0.77000000000E+02 0.  0.
<mgrwt>
<rscale>  0 0.20992229E+03</rscale>
<asrwt>0</asrwt>
<pdfrwt beam="1">  1        2 0.30169799E-01 0.20992229E+03</pdfrwt>
<pdfrwt beam="2">  1       -2 0.74522710E-02 0.20992229E+03</pdfrwt>
<totfact> 0.17841846E+04</totfact>
</mgrwt>
</event>
<event>
 4    1  0.5121375E-004  0.1977644E+03  0.7818608E-02  0.1151639E+00
         -2   -1    0    0    0  501 -0.00000000000E+00  0.00000000000E+00  0.60083961890E+01  0.60083967302E+01  0.25500000000E-02 0. -1.
          2   -1    0    0  501    0  0.00000000000E+00 -0.00000000000E+00 -0.16273374446E+04  0.16273374446E+04  0.25500000000E-02 0.  1.
    5000001    1    1    2    0    0  0.38454684935E+02 -0.79330684605E+01 -0.12073562267E+04  0.12104460974E+04  0.77000000000E+02 0.  0.
   -5000001    1    1    2    0    0 -0.38454684935E+02  0.79330684605E+01 -0.41397282167E+03  0.42289974397E+03  0.77000000000E+02 0.  0.
<mgrwt>
<rscale>  0 0.19776439E+03</rscale>
<asrwt>0</asrwt>
<pdfrwt beam="1">  1        2 0.23247650E+00 0.19776439E+03</pdfrwt>
<pdfrwt beam="2">  1       -2 0.85834339E-03 0.19776439E+03</pdfrwt>
<totfact> 0.35142774E+04</totfact>
</mgrwt>
</event>
<event>
 4    1  0.5121375E-004  0.3301847E+03  0.7818608E-02  0.1071055E+00
         -2   -1    0    0    0  501 -0.00000000000E+00  0.00000000000E+00  0.90251919624E+02  0.90251919660E+02  0.25500000000E-02 0. -1.
          2   -1    0    0  501    0  0.00000000000E+00 -0.00000000000E+00 -0.30199338012E+03  0.30199338013E+03  0.25500000000E-02 0.  1.
    5000001    1    1    2    0    0 -0.11629409087E+03  0.53220477232E+02 -0.18961748357E+03  0.24133073746E+03  0.77000000000E+02 0.  0.
   -5000001    1    1    2    0    0  0.11629409087E+03 -0.53220477232E+02 -0.22123976935E+02  0.15091456233E+03  0.77000000000E+02 0.  0.
<mgrwt>
<rscale>  0 0.33018469E+03</rscale>
<asrwt>0</asrwt>
<pdfrwt beam="1">  1        2 0.43141911E-01 0.33018469E+03</pdfrwt>
<pdfrwt beam="2">  1       -2 0.12893132E-01 0.33018469E+03</pdfrwt>
<totfact> 0.51811957E+03</totfact>
</mgrwt>
</event>
<event>
 4    1  0.5121375E-004  0.3164892E+03  0.7818608E-02  0.1077276E+00
         -2   -1    0    0    0  501 -0.00000000000E+00  0.00000000000E+00  0.13270836174E+03  0.13270836177E+03  0.25500000000E-02 0. -1.
          2   -1    0    0  501    0  0.00000000000E+00 -0.00000000000E+00 -0.18869465783E+03  0.18869465784E+03  0.25500000000E-02 0.  1.
    5000001    1    1    2    0    0 -0.43948158506E+02  0.54180696769E+02 -0.14920019858E+03  0.18181498231E+03  0.77000000000E+02 0.  0.
   -5000001    1    1    2    0    0  0.43948158506E+02 -0.54180696769E+02  0.93213902491E+02  0.13958803730E+03  0.77000000000E+02 0.  0.
<mgrwt>
<rscale>  0 0.31648923E+03</rscale>
<asrwt>0</asrwt>
<pdfrwt beam="1">  1        2 0.26956379E-01 0.31648923E+03</pdfrwt>
<pdfrwt beam="2">  1       -2 0.18958338E-01 0.31648923E+03</pdfrwt>
<totfact> 0.45533527E+03</totfact>
</mgrwt>
</event>
<event>
 4    1  0.5121375E-004  0.3332460E+03  0.7818608E-02  0.1069710E+00
         -2   -1    0    0    0  501 -0.00000000000E+00  0.00000000000E+00  0.20194228886E+02  0.20194229047E+02  0.25500000000E-02 0. -1.
          2   -1    0    0  501    0  0.00000000000E+00 -0.00000000000E+00 -0.13748095724E+04  0.13748095724E+04  0.25500000000E-02 0.  1.
    5000001    1    1    2    0    0 -0.14456501808E+03 -0.17112448310E+02 -0.78340210911E+03  0.80052466851E+03  0.77000000000E+02 0.  0.
   -5000001    1    1    2    0    0  0.14456501808E+03  0.17112448310E+02 -0.57121323436E+03  0.59447913289E+03  0.77000000000E+02 0.  0.
<mgrwt>
<rscale>  0 0.33324597E+03</rscale>
<asrwt>0</asrwt>
<pdfrwt beam="1">  1        2 0.19640131E+00 0.33324597E+03</pdfrwt>
<pdfrwt beam="2">  1       -2 0.28848907E-02 0.33324597E+03</pdfrwt>
<totfact> 0.81536453E+03</totfact>
</mgrwt>
</event>
<event>
 4    1  0.5121375E-004  0.3213019E+03  0.7818608E-02  0.1075052E+00
         -2   -1    0    0    0  501 -0.00000000000E+00  0.00000000000E+00  0.47685924554E+02  0.47685924622E+02  0.25500000000E-02 0. -1.
          2   -1    0    0  501    0  0.00000000000E+00 -0.00000000000E+00 -0.54122330016E+03  0.54122330016E+03  0.25500000000E-02 0.  1.
    5000001    1    1    2    0    0  0.11039405174E+03 -0.33487470275E+02 -0.98186590828E+02  0.16993488148E+03  0.77000000000E+02 0.  0.
   -5000001    1    1    2    0    0 -0.11039405174E+03  0.33487470275E+02 -0.39535078477E+03  0.41897434330E+03  0.77000000000E+02 0.  0.
<mgrwt>
<rscale>  0 0.32130194E+03</rscale>
<asrwt>0</asrwt>
<pdfrwt beam="1">  1        2 0.77317611E-01 0.32130194E+03</pdfrwt>
<pdfrwt beam="2">  1       -2 0.68122753E-02 0.32130194E+03</pdfrwt>
<totfact> 0.75362123E+03</totfact>
</mgrwt>
</event>
<event>
 4    1  0.5121375E-004  0.2452052E+03  0.7818608E-02  0.1116373E+00
         -2   -1    0    0    0  501 -0.00000000000E+00  0.00000000000E+00  0.46648868199E+02  0.46648868269E+02  0.25500000000E-02 0. -1.
          2   -1    0    0  501    0  0.00000000000E+00 -0.00000000000E+00 -0.32222434285E+03  0.32222434286E+03  0.25500000000E-02 0.  1.
    5000001    1    1    2    0    0  0.29361283154E+02  0.87092553206E+02 -0.99281119257E+02  0.15566932393E+03  0.77000000000E+02 0.  0.
   -5000001    1    1    2    0    0 -0.29361283154E+02 -0.87092553206E+02 -0.17629435539E+03  0.21320388720E+03  0.77000000000E+02 0.  0.
<mgrwt>
<rscale>  0 0.24520523E+03</rscale>
<asrwt>0</asrwt>
<pdfrwt beam="1">  1        2 0.46032048E-01 0.24520523E+03</pdfrwt>
<pdfrwt beam="2">  1       -2 0.66641242E-02 0.24520523E+03</pdfrwt>
<totfact> 0.13570684E+04</totfact>
</mgrwt>
</event>
<event>
 4    1  0.5121375E-004  0.3151515E+03  0.7818608E-02  0.1077903E+00
         -2   -1    0    0    0  501 -0.00000000000E+00  0.00000000000E+00  0.64746248461E+01  0.64746253482E+01  0.25500000000E-02 0. -1.
          2   -1    0    0  501    0  0.00000000000E+00 -0.00000000000E+00 -0.38349890946E+04  0.38349890946E+04  0.25500000000E-02 0.  1.
    5000001    1    1    2    0    0 -0.63355724657E+01  0.11843061485E+03 -0.27618418852E+04  0.27654593739E+04  0.77000000000E+02 0.  0.
   -5000001    1    1    2    0    0  0.63355724657E+01 -0.11843061485E+03 -0.10666725846E+04  0.10760043460E+04  0.77000000000E+02 0.  0.
<mgrwt>
<rscale>  0 0.31515150E+03</rscale>
<asrwt>0</asrwt>
<pdfrwt beam="1">  1        2 0.54785413E+00 0.31515150E+03</pdfrwt>
<pdfrwt beam="2">  1       -2 0.92494890E-03 0.31515150E+03</pdfrwt>
<totfact> 0.21922498E+03</totfact>
</mgrwt>
</event>
<event>
 4    1  0.5121375E-004  0.2294699E+03  0.7818608E-02  0.1127013E+00
         -2   -1    0    0    0  501 -0.00000000000E+00  0.00000000000E+00  0.17462974195E+02  0.17462974381E+02  0.25500000000E-02 0. -1.
          2   -1    0    0  501    0  0.00000000000E+00 -0.00000000000E+00 -0.75382976090E+03  0.75382976090E+03  0.25500000000E-02 0.  1.
    5000001    1    1    2    0    0 -0.50833541104E+02 -0.52357109495E+02 -0.22129524665E+03  0.24540966160E+03  0.77000000000E+02 0.  0.
   -5000001    1    1    2    0    0  0.50833541104E+02  0.52357109495E+02 -0.51507154005E+03  0.52588307368E+03  0.77000000000E+02 0.  0.
<mgrwt>
<rscale>  0 0.22946991E+03</rscale>
<asrwt>0</asrwt>
<pdfrwt beam="1">  1        2 0.10768995E+00 0.22946991E+03</pdfrwt>
<pdfrwt beam="2">  1       -2 0.24947111E-02 0.22946991E+03</pdfrwt>
<totfact> 0.22997782E+04</totfact>
</mgrwt>
</event>
<event>
 4    1  0.5121375E-004  0.2813523E+03  0.7818608E-02  0.1094953E+00
          2   -1    0    0  501    0  0.00000000000E+00  0.00000000000E+00  0.22111285087E+04  0.22111285087E+04  0.25500000000E-02 0.  1.
         -2   -1    0    0    0  501 -0.00000000000E+00 -0.00000000000E+00 -0.89500820217E+01  0.89500823850E+01  0.25500000000E-02 0. -1.
    5000001    1    1    2    0    0  0.36281250337E+02  0.85268956241E+02  0.52806387580E+03  0.54163417631E+03  0.77000000000E+02 0.  0.
   -5000001    1    1    2    0    0 -0.36281250337E+02 -0.85268956241E+02  0.16741145509E+04  0.16784444148E+04  0.77000000000E+02 0.  0.
<mgrwt>
<rscale>  0 0.28135232E+03</rscale>
<asrwt>0</asrwt>
<pdfrwt beam="1">  1        2 0.31587557E+00 0.28135232E+03</pdfrwt>
<pdfrwt beam="2">  1       -2 0.12785829E-02 0.28135232E+03</pdfrwt>
<totfact> 0.10384389E+04</totfact>
</mgrwt>
</event>
<event>
 4    1  0.5121375E-004  0.1873339E+03  0.7818608E-02  0.1160888E+00
         -2   -1    0    0    0  501 -0.00000000000E+00  0.00000000000E+00  0.66582422163E+02  0.66582422212E+02  0.25500000000E-02 0. -1.
          2   -1    0    0  501    0  0.00000000000E+00 -0.00000000000E+00 -0.13176890882E+03  0.13176890884E+03  0.25500000000E-02 0.  1.
    5000001    1    1    2    0    0 -0.96215136810E+01 -0.21042055539E+02 -0.83473004812E+02  0.11589686863E+03  0.77000000000E+02 0.  0.
   -5000001    1    1    2    0    0  0.96215136810E+01  0.21042055539E+02  0.18286518157E+02  0.82454462421E+02  0.77000000000E+02 0.  0.
<mgrwt>
<rscale>  0 0.18733385E+03</rscale>
<asrwt>0</asrwt>
<pdfrwt beam="1">  1        2 0.18824130E-01 0.18733385E+03</pdfrwt>
<pdfrwt beam="2">  1       -2 0.95117747E-02 0.18733385E+03</pdfrwt>
<totfact> 0.20474837E+04</totfact>
</mgrwt>
</event>
<event>
 4    1  0.5121375E-004  0.4843522E+03  0.7818608E-02  0.1017946E+00
          2   -1    0    0  501    0  0.00000000000E+00  0.00000000000E+00  0.11244759290E+04  0.11244759290E+04  0.25500000000E-02 0.  1.
         -2   -1    0    0    0  501 -0.00000000000E+00 -0.00000000000E+00 -0.52156966483E+02  0.52156966546E+02  0.25500000000E-02 0. -1.
    5000001    1    1    2    0    0  0.60489519117E+02  0.14931210506E+03  0.13871090233E+03  0.22610351847E+03  0.77000000000E+02 0.  0.
   -5000001    1    1    2    0    0 -0.60489519117E+02 -0.14931210506E+03  0.93360806019E+03  0.95052937708E+03  0.77000000000E+02 0.  0.
<mgrwt>
<rscale>  0 0.48435216E+03</rscale>
<asrwt>0</asrwt>
<pdfrwt beam="1">  1        2 0.16063942E+00 0.48435216E+03</pdfrwt>
<pdfrwt beam="2">  1       -2 0.74509953E-02 0.48435216E+03</pdfrwt>
<totfact> 0.26144245E+03</totfact>
</mgrwt>
</event>
<event>
 4    1  0.5121375E-004  0.3422631E+03  0.7818608E-02  0.1065836E+00
          2   -1    0    0  501    0  0.00000000000E+00  0.00000000000E+00  0.69637630274E+02  0.69637630321E+02  0.25500000000E-02 0.  1.
         -2   -1    0    0    0  501 -0.00000000000E+00 -0.00000000000E+00 -0.42054853608E+03  0.42054853609E+03  0.25500000000E-02 0. -1.
    5000001    1    1    2    0    0  0.14825758895E+03  0.10663722801E+02 -0.22635319511E+03  0.28152938852E+03  0.77000000000E+02 0.  0.
   -5000001    1    1    2    0    0 -0.14825758895E+03 -0.10663722801E+02 -0.12455771070E+03  0.20865677789E+03  0.77000000000E+02 0.  0.
<mgrwt>
<rscale>  0 0.34226308E+03</rscale>
<asrwt>0</asrwt>
<pdfrwt beam="1">  1        2 0.99482331E-02 0.34226308E+03</pdfrwt>
<pdfrwt beam="2">  1       -2 0.60078361E-01 0.34226308E+03</pdfrwt>
<totfact> 0.17099676E+03</totfact>
</mgrwt>
</event>
<event>
 4    1  0.5121375E-004  0.2034347E+03  0.7818608E-02  0.1146873E+00
          2   -1    0    0  501    0  0.00000000000E+00  0.00000000000E+00  0.45011793517E+02  0.45011793589E+02  0.25500000000E-02 0.  1.
         -2   -1    0    0    0  501 -0.00000000000E+00 -0.00000000000E+00 -0.22986022667E+03  0.22986022668E+03  0.25500000000E-02 0. -1.
    5000001    1    1    2    0    0 -0.56163203681E+02 -0.32733157392E+02 -0.11112960411E+03  0.15001517907E+03  0.77000000000E+02 0.  0.
   -5000001    1    1    2    0    0  0.56163203681E+02  0.32733157392E+02 -0.73718829041E+02  0.12485684121E+03  0.77000000000E+02 0.  0.
<mgrwt>
<rscale>  0 0.20343472E+03</rscale>
<asrwt>0</asrwt>
<pdfrwt beam="1">  1        2 0.64302563E-02 0.20343472E+03</pdfrwt>
<pdfrwt beam="2">  1       -2 0.32837175E-01 0.20343472E+03</pdfrwt>
<totfact> 0.94779003E+03</totfact>
</mgrwt>
</event>
<event>
 4    1  0.5121375E-004  0.2016786E+03  0.7818608E-02  0.1148330E+00
          2   -1    0    0  501    0  0.00000000000E+00  0.00000000000E+00  0.45695426510E+03  0.45695426511E+03  0.25500000000E-02 0.  1.
         -2   -1    0    0    0  501 -0.00000000000E+00 -0.00000000000E+00 -0.22252915558E+02  0.22252915704E+02  0.25500000000E-02 0. -1.
    5000001    1    1    2    0    0  0.16871588284E+02 -0.62508415583E+02  0.23374609783E+03  0.25447630687E+03  0.77000000000E+02 0.  0.
   -5000001    1    1    2    0    0 -0.16871588284E+02  0.62508415583E+02  0.20095525172E+03  0.22473087394E+03  0.77000000000E+02 0.  0.
<mgrwt>
<rscale>  0 0.20167860E+03</rscale>
<asrwt>0</asrwt>
<pdfrwt beam="1">  1        2 0.65279174E-01 0.20167860E+03</pdfrwt>
<pdfrwt beam="2">  1       -2 0.31789883E-02 0.20167860E+03</pdfrwt>
<totfact> 0.28113232E+04</totfact>
</mgrwt>
</event>
<event>
 4    1  0.5121375E-004  0.1622484E+03  0.7818608E-02  0.1186182E+00
          2   -1    0    0  501    0  0.00000000000E+00  0.00000000000E+00  0.43203626426E+03  0.43203626427E+03  0.25500000000E-02 0.  1.
         -2   -1    0    0    0  501 -0.00000000000E+00 -0.00000000000E+00 -0.15232825633E+02  0.15232825847E+02  0.25500000000E-02 0. -1.
    5000001    1    1    2    0    0 -0.22096356775E+02 -0.96494976734E+01  0.23159260141E+03  0.24524578450E+03  0.77000000000E+02 0.  0.
   -5000001    1    1    2    0    0  0.22096356775E+02  0.96494976734E+01  0.18521083721E+03  0.20202330561E+03  0.77000000000E+02 0.  0.
<mgrwt>
<rscale>  0 0.16224837E+03</rscale>
<asrwt>0</asrwt>
<pdfrwt beam="1">  1        2 0.61719476E-01 0.16224837E+03</pdfrwt>
<pdfrwt beam="2">  1       -2 0.21761176E-02 0.16224837E+03</pdfrwt>
<totfact> 0.51146328E+04</totfact>
</mgrwt>
</event>
<event>
 4    1  0.5121375E-004  0.2418212E+03  0.7818608E-02  0.1118585E+00
         -2   -1    0    0    0  501 -0.00000000000E+00  0.00000000000E+00  0.56982297833E+02  0.56982297890E+02  0.25500000000E-02 0. -1.
          2   -1    0    0  501    0  0.00000000000E+00 -0.00000000000E+00 -0.25656000472E+03  0.25656000473E+03  0.25500000000E-02 0.  1.
    5000001    1    1    2    0    0 -0.55729821645E+02  0.37936440930E+02 -0.18326924849E+03  0.20990856108E+03  0.77000000000E+02 0.  0.
   -5000001    1    1    2    0    0  0.55729821645E+02 -0.37936440930E+02 -0.16308458393E+02  0.10363374154E+03  0.77000000000E+02 0.  0.
<mgrwt>
<rscale>  0 0.24182124E+03</rscale>
<asrwt>0</asrwt>
<pdfrwt beam="1">  1        2 0.36651429E-01 0.24182124E+03</pdfrwt>
<pdfrwt beam="2">  1       -2 0.81403284E-02 0.24182124E+03</pdfrwt>
<totfact> 0.12704097E+04</totfact>
</mgrwt>
</event>
<event>
 4    1  0.5121375E-004  0.1824732E+03  0.7818608E-02  0.1165431E+00
          2   -1    0    0  501    0  0.00000000000E+00  0.00000000000E+00  0.15428297536E+04  0.15428297536E+04  0.25500000000E-02 0.  1.
         -2   -1    0    0    0  501 -0.00000000000E+00 -0.00000000000E+00 -0.53953573894E+01  0.53953579920E+01  0.25500000000E-02 0. -1.
    5000001    1    1    2    0    0 -0.44582927309E+01  0.47728498568E+02  0.68505282560E+03  0.69103130162E+03  0.77000000000E+02 0.  0.
   -5000001    1    1    2    0    0  0.44582927309E+01 -0.47728498568E+02  0.85238157065E+03  0.85719381001E+03  0.77000000000E+02 0.  0.
<mgrwt>
<rscale>  0 0.18247321E+03</rscale>
<asrwt>0</asrwt>
<pdfrwt beam="1">  1        2 0.22040462E+00 0.18247321E+03</pdfrwt>
<pdfrwt beam="2">  1       -2 0.77076408E-03 0.18247321E+03</pdfrwt>
<totfact> 0.44900325E+04</totfact>
</mgrwt>
</event>
<event>
 4    1  0.5121375E-004  0.1884117E+03  0.7818608E-02  0.1159902E+00
          2   -1    0    0  501    0  0.00000000000E+00  0.00000000000E+00  0.75543794497E+03  0.75543794497E+03  0.25500000000E-02 0.  1.
         -2   -1    0    0    0  501 -0.00000000000E+00 -0.00000000000E+00 -0.11747815587E+02  0.11747815864E+02  0.25500000000E-02 0. -1.
    5000001    1    1    2    0    0  0.47651387067E+02  0.17118261947E+02  0.45143464203E+03  0.46074496807E+03  0.77000000000E+02 0.  0.
   -5000001    1    1    2    0    0 -0.47651387067E+02 -0.17118261947E+02  0.29225548736E+03  0.30644079277E+03  0.77000000000E+02 0.  0.
<mgrwt>
<rscale>  0 0.18841174E+03</rscale>
<asrwt>0</asrwt>
<pdfrwt beam="1">  1        2 0.10791970E+00 0.18841174E+03</pdfrwt>
<pdfrwt beam="2">  1       -2 0.16782595E-02 0.18841174E+03</pdfrwt>
<totfact> 0.40411219E+04</totfact>
</mgrwt>
</event>
<event>
 4    1  0.5121375E-004  0.2702544E+03  0.7818608E-02  0.1101134E+00
          2   -1    0    0  501    0  0.00000000000E+00  0.00000000000E+00  0.77372870710E+03  0.77372870710E+03  0.25500000000E-02 0.  1.
         -2   -1    0    0    0  501 -0.00000000000E+00 -0.00000000000E+00 -0.23599172338E+02  0.23599172476E+02  0.25500000000E-02 0. -1.
    5000001    1    1    2    0    0 -0.55866058682E+02  0.76336753365E+02  0.54663961798E+03  0.56008230500E+03  0.77000000000E+02 0.  0.
   -5000001    1    1    2    0    0  0.55866058682E+02 -0.76336753365E+02  0.20348991678E+03  0.23724557458E+03  0.77000000000E+02 0.  0.
<mgrwt>
<rscale>  0 0.27025438E+03</rscale>
<asrwt>0</asrwt>
<pdfrwt beam="1">  1        2 0.11053266E+00 0.27025438E+03</pdfrwt>
<pdfrwt beam="2">  1       -2 0.33713108E-02 0.27025438E+03</pdfrwt>
<totfact> 0.14371960E+04</totfact>
</mgrwt>
</event>
<event>
 4    1  0.5121375E-004  0.3261938E+03  0.7818608E-02  0.1072834E+00
         -2   -1    0    0    0  501 -0.00000000000E+00  0.00000000000E+00  0.18031659690E+03  0.18031659692E+03  0.25500000000E-02 0. -1.
          2   -1    0    0  501    0  0.00000000000E+00 -0.00000000000E+00 -0.14752164581E+03  0.14752164583E+03  0.25500000000E-02 0.  1.
    5000001    1    1    2    0    0 -0.10805479023E+03 -0.88960800829E+02 -0.16658137066E+02  0.16061243821E+03  0.77000000000E+02 0.  0.
   -5000001    1    1    2    0    0  0.10805479023E+03  0.88960800829E+02  0.49453088165E+02  0.16722580454E+03  0.77000000000E+02 0.  0.
<mgrwt>
<rscale>  0 0.32619381E+03</rscale>
<asrwt>0</asrwt>
<pdfrwt beam="1">  1        2 0.21074521E-01 0.32619381E+03</pdfrwt>
<pdfrwt beam="2">  1       -2 0.25759514E-01 0.32619381E+03</pdfrwt>
<totfact> 0.35288030E+03</totfact>
</mgrwt>
</event>
<event>
 4    1  0.5121375E-004  0.4440875E+03  0.7818608E-02  0.1029500E+00
          2   -1    0    0  501    0  0.00000000000E+00  0.00000000000E+00  0.68081662091E+03  0.68081662092E+03  0.25500000000E-02 0.  1.
         -2   -1    0    0    0  501 -0.00000000000E+00 -0.00000000000E+00 -0.72418072450E+02  0.72418072495E+02  0.25500000000E-02 0. -1.
    5000001    1    1    2    0    0 -0.21326895233E+02 -0.19391417719E+03  0.18052188513E+03  0.27672133200E+03  0.77000000000E+02 0.  0.
   -5000001    1    1    2    0    0  0.21326895233E+02  0.19391417719E+03  0.42787666334E+03  0.47651336141E+03  0.77000000000E+02 0.  0.
<mgrwt>
<rscale>  0 0.44408750E+03</rscale>
<asrwt>0</asrwt>
<pdfrwt beam="1">  1        2 0.97259515E-01 0.44408750E+03</pdfrwt>
<pdfrwt beam="2">  1       -2 0.10345439E-01 0.44408750E+03</pdfrwt>
<totfact> 0.30016422E+03</totfact>
</mgrwt>
</event>
<event>
 4    1  0.5121375E-004  0.1615669E+03  0.7818608E-02  0.1186939E+00
          2   -1    0    0  501    0  0.00000000000E+00  0.00000000000E+00  0.87507202140E+03  0.87507202141E+03  0.25500000000E-02 0.  1.
         -2   -1    0    0    0  501 -0.00000000000E+00 -0.00000000000E+00 -0.74576354898E+01  0.74576359258E+01  0.25500000000E-02 0. -1.
    5000001    1    1    2    0    0 -0.19702670564E+02  0.13778085806E+02  0.45757767221E+03  0.46463357281E+03  0.77000000000E+02 0.  0.
   -5000001    1    1    2    0    0  0.19702670564E+02 -0.13778085806E+02  0.41003671370E+03  0.41789608452E+03  0.77000000000E+02 0.  0.
<mgrwt>
<rscale>  0 0.16156693E+03</rscale>
<asrwt>0</asrwt>
<pdfrwt beam="1">  1        2 0.12501033E+00 0.16156693E+03</pdfrwt>
<pdfrwt beam="2">  1       -2 0.10653762E-02 0.16156693E+03</pdfrwt>
<totfact> 0.64156486E+04</totfact>
</mgrwt>
</event>
<event>
 4    1  0.5121375E-004  0.2147696E+03  0.7818608E-02  0.1137844E+00
         -2   -1    0    0    0  501 -0.00000000000E+00  0.00000000000E+00  0.41234928236E+02  0.41234928314E+02  0.25500000000E-02 0. -1.
          2   -1    0    0  501    0  0.00000000000E+00 -0.00000000000E+00 -0.27965369072E+03  0.27965369073E+03  0.25500000000E-02 0.  1.
    5000001    1    1    2    0    0  0.33063068535E+02  0.35390892450E+02 -0.33942933278E+02  0.97091732340E+02  0.77000000000E+02 0.  0.
   -5000001    1    1    2    0    0 -0.33063068535E+02 -0.35390892450E+02 -0.20447582921E+03  0.22379688671E+03  0.77000000000E+02 0.  0.
<mgrwt>
<rscale>  0 0.21476964E+03</rscale>
<asrwt>0</asrwt>
<pdfrwt beam="1">  1        2 0.39950526E-01 0.21476964E+03</pdfrwt>
<pdfrwt beam="2">  1       -2 0.58907042E-02 0.21476964E+03</pdfrwt>
<totfact> 0.18931253E+04</totfact>
</mgrwt>
</event>
<event>
 4    1  0.5121375E-004  0.2026808E+03  0.7818608E-02  0.1147497E+00
          2   -1    0    0  501    0  0.00000000000E+00  0.00000000000E+00  0.12740295486E+04  0.12740295486E+04  0.25500000000E-02 0.  1.
         -2   -1    0    0    0  501 -0.00000000000E+00 -0.00000000000E+00 -0.80609385040E+01  0.80609389073E+01  0.25500000000E-02 0. -1.
    5000001    1    1    2    0    0  0.58255212830E+02 -0.30709347274E+02  0.64585555026E+03  0.65375463718E+03  0.77000000000E+02 0.  0.
   -5000001    1    1    2    0    0 -0.58255212830E+02  0.30709347274E+02  0.62011305987E+03  0.62833585036E+03  0.77000000000E+02 0.  0.
<mgrwt>
<rscale>  0 0.20268077E+03</rscale>
<asrwt>0</asrwt>
<pdfrwt beam="1">  1        2 0.18200428E+00 0.20268077E+03</pdfrwt>
<pdfrwt beam="2">  1       -2 0.11515623E-02 0.20268077E+03</pdfrwt>
<totfact> 0.34742584E+04</totfact>
</mgrwt>
</event>
<event>
 4    1  0.5121375E-004  0.3088954E+03  0.7818608E-02  0.1080877E+00
          2   -1    0    0  501    0  0.00000000000E+00  0.00000000000E+00  0.12125614877E+04  0.12125614877E+04  0.25500000000E-02 0.  1.
         -2   -1    0    0    0  501 -0.00000000000E+00 -0.00000000000E+00 -0.19672480965E+02  0.19672481130E+02  0.25500000000E-02 0. -1.
    5000001    1    1    2    0    0 -0.13291395064E+03  0.12384495799E+02  0.55545134503E+03  0.57643272869E+03  0.77000000000E+02 0.  0.
   -5000001    1    1    2    0    0  0.13291395064E+03 -0.12384495799E+02  0.63743766169E+03  0.65580124012E+03  0.77000000000E+02 0.  0.
<mgrwt>
<rscale>  0 0.30889541E+03</rscale>
<asrwt>0</asrwt>
<pdfrwt beam="1">  1        2 0.17322311E+00 0.30889541E+03</pdfrwt>
<pdfrwt beam="2">  1       -2 0.28103538E-02 0.30889541E+03</pdfrwt>
<totfact> 0.10323600E+04</totfact>
</mgrwt>
</event>
<event>
 4    1  0.5121375E-004  0.2760291E+03  0.7818608E-02  0.1097878E+00
         -2   -1    0    0    0  501 -0.00000000000E+00  0.00000000000E+00  0.35902383232E+02  0.35902383323E+02  0.25500000000E-02 0. -1.
          2   -1    0    0  501    0  0.00000000000E+00 -0.00000000000E+00 -0.53055019591E+03  0.53055019592E+03  0.25500000000E-02 0.  1.
    5000001    1    1    2    0    0  0.91082128515E+02  0.25732863420E+02 -0.37969750889E+03  0.39881992510E+03  0.77000000000E+02 0.  0.
   -5000001    1    1    2    0    0 -0.91082128515E+02 -0.25732863420E+02 -0.11495030379E+03  0.16763265414E+03  0.77000000000E+02 0.  0.
<mgrwt>
<rscale>  0 0.27602910E+03</rscale>
<asrwt>0</asrwt>
<pdfrwt beam="1">  1        2 0.75792880E-01 0.27602910E+03</pdfrwt>
<pdfrwt beam="2">  1       -2 0.51289122E-02 0.27602910E+03</pdfrwt>
<totfact> 0.11853031E+04</totfact>
</mgrwt>
</event>
<event>
 4    1  0.5121375E-004  0.2284789E+03  0.7818608E-02  0.1127715E+00
          2   -1    0    0  501    0  0.00000000000E+00  0.00000000000E+00  0.10159850483E+03  0.10159850486E+03  0.25500000000E-02 0.  1.
         -2   -1    0    0    0  501 -0.00000000000E+00 -0.00000000000E+00 -0.12845321622E+03  0.12845321625E+03  0.25500000000E-02 0. -1.
    5000001    1    1    2    0    0 -0.84252211216E+02 -0.28462976082E+01 -0.17342335577E+02  0.11548286933E+03  0.77000000000E+02 0.  0.
   -5000001    1    1    2    0    0  0.84252211216E+02  0.28462976082E+01 -0.95123758169E+01  0.11456885178E+03  0.77000000000E+02 0.  0.
<mgrwt>
<rscale>  0 0.22847892E+03</rscale>
<asrwt>0</asrwt>
<pdfrwt beam="1">  1        2 0.14514072E-01 0.22847892E+03</pdfrwt>
<pdfrwt beam="2">  1       -2 0.18350459E-01 0.22847892E+03</pdfrwt>
<totfact> 0.96614876E+03</totfact>
</mgrwt>
</event>
<event>
 4    1  0.5121375E-004  0.4349296E+03  0.7818608E-02  0.1032314E+00
         -2   -1    0    0    0  501 -0.00000000000E+00  0.00000000000E+00  0.22650768919E+02  0.22650769063E+02  0.25500000000E-02 0. -1.
          2   -1    0    0  501    0  0.00000000000E+00 -0.00000000000E+00 -0.20878296191E+04  0.20878296191E+04  0.25500000000E-02 0.  1.
    5000001    1    1    2    0    0 -0.18232897927E+03  0.41857442291E+02 -0.14197553690E+04  0.14340956070E+04  0.77000000000E+02 0.  0.
   -5000001    1    1    2    0    0  0.18232897927E+03 -0.41857442291E+02 -0.64542348121E+03  0.67638478121E+03  0.77000000000E+02 0.  0.
<mgrwt>
<rscale>  0 0.43492963E+03</rscale>
<asrwt>0</asrwt>
<pdfrwt beam="1">  1        2 0.29826125E+00 0.43492963E+03</pdfrwt>
<pdfrwt beam="2">  1       -2 0.32358255E-02 0.43492963E+03</pdfrwt>
<totfact> 0.30102812E+03</totfact>
</mgrwt>
</event>
<event>
 4    1  0.5121375E-004  0.2235224E+03  0.7818608E-02  0.1131284E+00
         -2   -1    0    0    0  501 -0.00000000000E+00  0.00000000000E+00  0.48335001926E+01  0.48335008652E+01  0.25500000000E-02 0.  1.
          2   -1    0    0  501    0  0.00000000000E+00 -0.00000000000E+00 -0.25841661646E+04  0.25841661646E+04  0.25500000000E-02 0. -1.
    5000001    1    1    2    0    0 -0.14585800796E+02 -0.73686412065E+02 -0.16408228176E+04  0.16443451437E+04  0.77000000000E+02 0.  0.
   -5000001    1    1    2    0    0  0.14585800796E+02  0.73686412065E+02 -0.93850984680E+03  0.94465452175E+03  0.77000000000E+02 0.  0.
<mgrwt>
<rscale>  0 0.22352242E+03</rscale>
<asrwt>0</asrwt>
<pdfrwt beam="1">  1        2 0.36916571E+00 0.22352242E+03</pdfrwt>
<pdfrwt beam="2">  1       -2 0.69050173E-03 0.22352242E+03</pdfrwt>
<totfact> 0.16516788E+04</totfact>
</mgrwt>
</event>
<event>
 4    1  0.5121375E-004  0.2270653E+03  0.7818608E-02  0.1128723E+00
         -2   -1    0    0    0  501 -0.00000000000E+00  0.00000000000E+00  0.68654936748E+01  0.68654941484E+01  0.25500000000E-02 0. -1.
          2   -1    0    0  501    0  0.00000000000E+00 -0.00000000000E+00 -0.18774563405E+04  0.18774563405E+04  0.25500000000E-02 0.  1.
    5000001    1    1    2    0    0  0.72982037778E+02 -0.28380837289E+02 -0.11742047764E+04  0.11793293462E+04  0.77000000000E+02 0.  0.
   -5000001    1    1    2    0    0 -0.72982037778E+02  0.28380837289E+02 -0.69638607042E+03  0.70499248850E+03  0.77000000000E+02 0.  0.
<mgrwt>
<rscale>  0 0.22706532E+03</rscale>
<asrwt>0</asrwt>
<pdfrwt beam="1">  1        2 0.26820772E+00 0.22706532E+03</pdfrwt>
<pdfrwt beam="2">  1       -2 0.98078605E-03 0.22706532E+03</pdfrwt>
<totfact> 0.22057661E+04</totfact>
</mgrwt>
</event>
<event>
 4    1  0.5121375E-004  0.2205199E+03  0.7818608E-02  0.1133496E+00
          2   -1    0    0  501    0  0.00000000000E+00  0.00000000000E+00  0.17780956470E+04  0.17780956470E+04  0.25500000000E-02 0.  1.
         -2   -1    0    0    0  501 -0.00000000000E+00 -0.00000000000E+00 -0.68372331113E+01  0.68372335868E+01  0.25500000000E-02 0. -1.
    5000001    1    1    2    0    0  0.55973029069E+02  0.25394182784E+02  0.48495300974E+03  0.49485984497E+03  0.77000000000E+02 0.  0.
   -5000001    1    1    2    0    0 -0.55973029069E+02 -0.25394182784E+02  0.12863054041E+04  0.12900730356E+04  0.77000000000E+02 0.  0.
<mgrwt>
<rscale>  0 0.22051988E+03</rscale>
<asrwt>0</asrwt>
<pdfrwt beam="1">  1        2 0.25401361E+00 0.22051988E+03</pdfrwt>
<pdfrwt beam="2">  1       -2 0.97674781E-03 0.22051988E+03</pdfrwt>
<totfact> 0.24765789E+04</totfact>
</mgrwt>
</event>
<event>
 4    1  0.5121375E-004  0.2697214E+03  0.7818608E-02  0.1101439E+00
          2   -1    0    0  501    0  0.00000000000E+00  0.00000000000E+00  0.13507407555E+03  0.13507407557E+03  0.25500000000E-02 0.  1.
         -2   -1    0    0    0  501 -0.00000000000E+00 -0.00000000000E+00 -0.13464769698E+03  0.13464769700E+03  0.25500000000E-02 0. -1.
    5000001    1    1    2    0    0  0.96383227717E+02  0.54400465787E+02 -0.28324569867E+01  0.13485607170E+03  0.77000000000E+02 0.  0.
   -5000001    1    1    2    0    0 -0.96383227717E+02 -0.54400465787E+02  0.32588355574E+01  0.13486570087E+03  0.77000000000E+02 0.  0.
<mgrwt>
<rscale>  0 0.26972144E+03</rscale>
<asrwt>0</asrwt>
<pdfrwt beam="1">  1        2 0.19296296E-01 0.26972144E+03</pdfrwt>
<pdfrwt beam="2">  1       -2 0.19235385E-01 0.26972144E+03</pdfrwt>
<totfact> 0.64476058E+03</totfact>
</mgrwt>
</event>
<event>
 4    1  0.5121375E-004  0.2882752E+03  0.7818608E-02  0.1091253E+00
          2   -1    0    0  501    0  0.00000000000E+00  0.00000000000E+00  0.11113520404E+02  0.11113520696E+02  0.25500000000E-02 0.  1.
         -2   -1    0    0    0  501 -0.00000000000E+00 -0.00000000000E+00 -0.18694026616E+04  0.18694026616E+04  0.25500000000E-02 0. -1.
    5000001    1    1    2    0    0  0.39563852289E+02  0.65271857105E+02 -0.30956725761E+03  0.32800396449E+03  0.77000000000E+02 0.  0.
   -5000001    1    1    2    0    0 -0.39563852289E+02 -0.65271857105E+02 -0.15487218836E+04  0.15525122178E+04  0.77000000000E+02 0.  0.
<mgrwt>
<rscale>  0 0.28827518E+03</rscale>
<asrwt>0</asrwt>
<pdfrwt beam="1">  1        2 0.15876470E-02 0.28827518E+03</pdfrwt>
<pdfrwt beam="2">  1       -2 0.26705732E+00 0.28827518E+03</pdfrwt>
<totfact> 0.43059619E+02</totfact>
</mgrwt>
</event>
<event>
 4    1  0.5121375E-004  0.3062799E+03  0.7818608E-02  0.1082143E+00
          2   -1    0    0  501    0  0.00000000000E+00  0.00000000000E+00  0.41692717119E+03  0.41692717120E+03  0.25500000000E-02 0.  1.
         -2   -1    0    0    0  501 -0.00000000000E+00 -0.00000000000E+00 -0.56249246990E+02  0.56249247048E+02  0.25500000000E-02 0. -1.
    5000001    1    1    2    0    0 -0.10156818836E+03 -0.84847783923E+02  0.17608101161E+03  0.23334259357E+03  0.77000000000E+02 0.  0.
   -5000001    1    1    2    0    0  0.10156818836E+03  0.84847783923E+02  0.18459691259E+03  0.23983382468E+03  0.77000000000E+02 0.  0.
<mgrwt>
<rscale>  0 0.30627987E+03</rscale>
<asrwt>0</asrwt>
<pdfrwt beam="1">  1        2 0.59561024E-01 0.30627987E+03</pdfrwt>
<pdfrwt beam="2">  1       -2 0.80356068E-02 0.30627987E+03</pdfrwt>
<totfact> 0.77592485E+03</totfact>
</mgrwt>
</event>
<event>
 4    1  0.5121375E-004  0.3035720E+03  0.7818608E-02  0.1083469E+00
         -2   -1    0    0    0  501 -0.00000000000E+00  0.00000000000E+00  0.82782333064E+02  0.82782333103E+02  0.25500000000E-02 0. -1.
          2   -1    0    0  501    0  0.00000000000E+00 -0.00000000000E+00 -0.27830803307E+03  0.27830803308E+03  0.25500000000E-02 0.  1.
    5000001    1    1    2    0    0  0.79207764472E+01  0.10127458198E+03 -0.19578218519E+03  0.23362136823E+03  0.77000000000E+02 0.  0.
   -5000001    1    1    2    0    0 -0.79207764472E+01 -0.10127458198E+03  0.25648518858E+00  0.12746899795E+03  0.77000000000E+02 0.  0.
<mgrwt>
<rscale>  0 0.30357199E+03</rscale>
<asrwt>0</asrwt>
<pdfrwt beam="1">  1        2 0.39758290E-01 0.30357199E+03</pdfrwt>
<pdfrwt beam="2">  1       -2 0.11826048E-01 0.30357199E+03</pdfrwt>
<totfact> 0.64953017E+03</totfact>
</mgrwt>
</event>
<event>
 4    1  0.5121375E-004  0.2908065E+03  0.7818608E-02  0.1089929E+00
          2   -1    0    0  501    0  0.00000000000E+00  0.00000000000E+00  0.14161601564E+03  0.14161601566E+03  0.25500000000E-02 0.  1.
         -2   -1    0    0    0  501 -0.00000000000E+00 -0.00000000000E+00 -0.14929172142E+03  0.14929172144E+03  0.25500000000E-02 0. -1.
    5000001    1    1    2    0    0 -0.88484486462E+02 -0.77524859191E+02 -0.40911394645E+02  0.14643206735E+03  0.77000000000E+02 0.  0.
   -5000001    1    1    2    0    0  0.88484486462E+02  0.77524859191E+02  0.33235688863E+02  0.14447566976E+03  0.77000000000E+02 0.  0.
<mgrwt>
<rscale>  0 0.29080646E+03</rscale>
<asrwt>0</asrwt>
<pdfrwt beam="1">  1        2 0.20230859E-01 0.29080646E+03</pdfrwt>
<pdfrwt beam="2">  1       -2 0.21327389E-01 0.29080646E+03</pdfrwt>
<totfact> 0.51307302E+03</totfact>
</mgrwt>
</event>
<event>
 4    1  0.5121375E-004  0.2853111E+03  0.7818608E-02  0.1092823E+00
          2   -1    0    0  501    0  0.00000000000E+00  0.00000000000E+00  0.18388720464E+03  0.18388720466E+03  0.25500000000E-02 0.  1.
         -2   -1    0    0    0  501 -0.00000000000E+00 -0.00000000000E+00 -0.11066895560E+03  0.11066895563E+03  0.25500000000E-02 0. -1.
    5000001    1    1    2    0    0 -0.47878637772E+02 -0.56921585618E+02 -0.60728368678E+02  0.12308275926E+03  0.77000000000E+02 0.  0.
   -5000001    1    1    2    0    0  0.47878637772E+02  0.56921585618E+02  0.13394661771E+03  0.17147340103E+03  0.77000000000E+02 0.  0.
<mgrwt>
<rscale>  0 0.28531109E+03</rscale>
<asrwt>0</asrwt>
<pdfrwt beam="1">  1        2 0.26269600E-01 0.28531109E+03</pdfrwt>
<pdfrwt beam="2">  1       -2 0.15809851E-01 0.28531109E+03</pdfrwt>
<totfact> 0.63399098E+03</totfact>
</mgrwt>
</event>
<event>
 4    1  0.5121375E-004  0.2272455E+03  0.7818608E-02  0.1128594E+00
         -2   -1    0    0    0  501 -0.00000000000E+00  0.00000000000E+00  0.43996924009E+01  0.43996931399E+01  0.25500000000E-02 0. -1.
          2   -1    0    0  501    0  0.00000000000E+00 -0.00000000000E+00 -0.29343247558E+04  0.29343247558E+04  0.25500000000E-02 0.  1.
    5000001    1    1    2    0    0 -0.48347255946E+02 -0.32013597229E+02 -0.68702291579E+03  0.69375198334E+03  0.77000000000E+02 0.  0.
   -5000001    1    1    2    0    0  0.48347255946E+02  0.32013597229E+02 -0.22429021476E+04  0.22449724656E+04  0.77000000000E+02 0.  0.
<mgrwt>
<rscale>  0 0.22724548E+03</rscale>
<asrwt>0</asrwt>
<pdfrwt beam="1">  1        2 0.41918800E+00 0.22724548E+03</pdfrwt>
<pdfrwt beam="2">  1       -2 0.62852942E-03 0.22724548E+03</pdfrwt>
<totfact> 0.12537850E+04</totfact>
</mgrwt>
</event>
<event>
 4    1  0.5121375E-004  0.2295276E+03  0.7818608E-02  0.1126973E+00
         -2   -1    0    0    0  501 -0.00000000000E+00  0.00000000000E+00  0.52378320559E+02  0.52378320621E+02  0.25500000000E-02 0. -1.
          2   -1    0    0  501    0  0.00000000000E+00 -0.00000000000E+00 -0.25145382758E+03  0.25145382759E+03  0.25500000000E-02 0.  1.
    5000001    1    1    2    0    0  0.51812019582E+02  0.39293277426E+02 -0.26873850813E+02  0.10430556496E+03  0.77000000000E+02 0.  0.
   -5000001    1    1    2    0    0 -0.51812019582E+02 -0.39293277426E+02 -0.17220165620E+03  0.19952658325E+03  0.77000000000E+02 0.  0.
<mgrwt>
<rscale>  0 0.22952759E+03</rscale>
<asrwt>0</asrwt>
<pdfrwt beam="1">  1        2 0.35921975E-01 0.22952759E+03</pdfrwt>
<pdfrwt beam="2">  1       -2 0.74826174E-02 0.22952759E+03</pdfrwt>
<totfact> 0.14756927E+04</totfact>
</mgrwt>
</event>
<event>
 4    1  0.5121375E-004  0.2483041E+03  0.7818608E-02  0.1114381E+00
         -2   -1    0    0    0  501 -0.00000000000E+00  0.00000000000E+00  0.14598217463E+02  0.14598217686E+02  0.25500000000E-02 0. -1.
          2   -1    0    0  501    0  0.00000000000E+00 -0.00000000000E+00 -0.10558635212E+04  0.10558635212E+04  0.25500000000E-02 0.  1.
    5000001    1    1    2    0    0  0.46617275391E+01  0.91558724634E+02 -0.37895611047E+03  0.39741850161E+03  0.77000000000E+02 0.  0.
   -5000001    1    1    2    0    0 -0.46617275391E+01 -0.91558724634E+02 -0.66230919329E+03  0.67304323730E+03  0.77000000000E+02 0.  0.
<mgrwt>
<rscale>  0 0.24830405E+03</rscale>
<asrwt>0</asrwt>
<pdfrwt beam="1">  1        2 0.15083760E+00 0.24830405E+03</pdfrwt>
<pdfrwt beam="2">  1       -2 0.20854603E-02 0.24830405E+03</pdfrwt>
<totfact> 0.19467004E+04</totfact>
</mgrwt>
</event>
<event>
 4    1  0.5121375E-004  0.2701980E+03  0.7818608E-02  0.1101166E+00
         -2   -1    0    0    0  501 -0.00000000000E+00  0.00000000000E+00  0.18500913880E+03  0.18500913882E+03  0.25500000000E-02 0. -1.
          2   -1    0    0  501    0  0.00000000000E+00 -0.00000000000E+00 -0.98653208319E+02  0.98653208352E+02  0.25500000000E-02 0.  1.
    5000001    1    1    2    0    0  0.21032694686E+01  0.10120510544E+03 -0.46538953558E+01  0.12726961873E+03  0.77000000000E+02 0.  0.
   -5000001    1    1    2    0    0 -0.21032694686E+01 -0.10120510544E+03  0.91009825835E+02  0.15639272844E+03  0.77000000000E+02 0.  0.
<mgrwt>
<rscale>  0 0.27019804E+03</rscale>
<asrwt>0</asrwt>
<pdfrwt beam="1">  1        2 0.14093316E-01 0.27019804E+03</pdfrwt>
<pdfrwt beam="2">  1       -2 0.26429877E-01 0.27019804E+03</pdfrwt>
<totfact> 0.53630753E+03</totfact>
</mgrwt>
</event>
<event>
 4    1  0.5121375E-004  0.2156153E+03  0.7818608E-02  0.1137195E+00
          2   -1    0    0  501    0  0.00000000000E+00  0.00000000000E+00  0.17150161768E+04  0.17150161768E+04  0.25500000000E-02 0.  1.
         -2   -1    0    0    0  501 -0.00000000000E+00 -0.00000000000E+00 -0.67768990031E+01  0.67768994828E+01  0.25500000000E-02 0. -1.
    5000001    1    1    2    0    0 -0.49987571724E+01  0.59536857380E+02  0.48610509511E+03  0.49577897137E+03  0.77000000000E+02 0.  0.
   -5000001    1    1    2    0    0  0.49987571724E+01 -0.59536857380E+02  0.12221341827E+04  0.12260141049E+04  0.77000000000E+02 0.  0.
<mgrwt>
<rscale>  0 0.21561532E+03</rscale>
<asrwt>0</asrwt>
<pdfrwt beam="1">  1        2 0.24500221E+00 0.21561532E+03</pdfrwt>
<pdfrwt beam="2">  1       -2 0.96812888E-03 0.21561532E+03</pdfrwt>
<totfact> 0.26895750E+04</totfact>
</mgrwt>
</event>
<event>
 4    1  0.5121375E-004  0.1979175E+03  0.7818608E-02  0.1151508E+00
         -2   -1    0    0    0  501 -0.00000000000E+00  0.00000000000E+00  0.69107126889E+01  0.69107131593E+01  0.25500000000E-02 0. -1.
          2   -1    0    0  501    0  0.00000000000E+00 -0.00000000000E+00 -0.14170515475E+04  0.14170515475E+04  0.25500000000E-02 0.  1.
    5000001    1    1    2    0    0 -0.37340955283E+02  0.42256123085E+02 -0.51691636670E+03  0.52565336206E+03  0.77000000000E+02 0.  0.
   -5000001    1    1    2    0    0  0.37340955283E+02 -0.42256123085E+02 -0.89322446809E+03  0.89830889858E+03  0.77000000000E+02 0.  0.
<mgrwt>
<rscale>  0 0.19791752E+03</rscale>
<asrwt>0</asrwt>
<pdfrwt beam="1">  1        2 0.20243575E+00 0.19791752E+03</pdfrwt>
<pdfrwt beam="2">  1       -2 0.98724561E-03 0.19791752E+03</pdfrwt>
<totfact> 0.36562144E+04</totfact>
</mgrwt>
</event>
<event>
 4    1  0.5121375E-004  0.2054615E+03  0.7818608E-02  0.1145211E+00
          2   -1    0    0  501    0  0.00000000000E+00  0.00000000000E+00  0.35812833183E+03  0.35812833184E+03  0.25500000000E-02 0.  1.
         -2   -1    0    0    0  501 -0.00000000000E+00 -0.00000000000E+00 -0.29468786266E+02  0.29468786376E+02  0.25500000000E-02 0. -1.
    5000001    1    1    2    0    0 -0.49609900664E+02 -0.81744510719E+01  0.77949938977E+02  0.12055354363E+03  0.77000000000E+02 0.  0.
   -5000001    1    1    2    0    0  0.49609900664E+02  0.81744510719E+01  0.25070960659E+03  0.26704357459E+03  0.77000000000E+02 0.  0.
<mgrwt>
<rscale>  0 0.20546150E+03</rscale>
<asrwt>0</asrwt>
<pdfrwt beam="1">  1        2 0.51161191E-01 0.20546150E+03</pdfrwt>
<pdfrwt beam="2">  1       -2 0.42098265E-02 0.20546150E+03</pdfrwt>
<totfact> 0.24073830E+04</totfact>
</mgrwt>
</event>
<event>
 4    1  0.5121375E-004  0.2620965E+03  0.7818608E-02  0.1105890E+00
         -2   -1    0    0    0  501 -0.00000000000E+00  0.00000000000E+00  0.54696835735E+01  0.54696841680E+01  0.25500000000E-02 0. -1.
          2   -1    0    0  501    0  0.00000000000E+00 -0.00000000000E+00 -0.31397867273E+04  0.31397867273E+04  0.25500000000E-02 0.  1.
    5000001    1    1    2    0    0  0.10347506200E+03 -0.18929302459E+02 -0.14064995729E+04  0.14125280370E+04  0.77000000000E+02 0.  0.
   -5000001    1    1    2    0    0 -0.10347506200E+03  0.18929302459E+02 -0.17278174709E+04  0.17327283744E+04  0.77000000000E+02 0.  0.
<mgrwt>
<rscale>  0 0.26209648E+03</rscale>
<asrwt>0</asrwt>
<pdfrwt beam="1">  1        2 0.44853981E+00 0.26209648E+03</pdfrwt>
<pdfrwt beam="2">  1       -2 0.78138542E-03 0.26209648E+03</pdfrwt>
<totfact> 0.71278338E+03</totfact>
</mgrwt>
</event>
<event>
 4    1  0.5121375E-004  0.4154420E+03  0.7818608E-02  0.1038560E+00
         -2   -1    0    0    0  501 -0.00000000000E+00  0.00000000000E+00  0.47280834827E+02  0.47280834896E+02  0.25500000000E-02 0. -1.
          2   -1    0    0  501    0  0.00000000000E+00 -0.00000000000E+00 -0.91259013768E+03  0.91259013768E+03  0.25500000000E-02 0.  1.
    5000001    1    1    2    0    0  0.17479244941E+03 -0.19379690245E+02 -0.61591310023E+03  0.64514023267E+03  0.77000000000E+02 0.  0.
   -5000001    1    1    2    0    0 -0.17479244941E+03  0.19379690245E+02 -0.24939620262E+03  0.31473073991E+03  0.77000000000E+02 0.  0.
<mgrwt>
<rscale>  0 0.41544205E+03</rscale>
<asrwt>0</asrwt>
<pdfrwt beam="1">  1        2 0.13037001E+00 0.41544205E+03</pdfrwt>
<pdfrwt beam="2">  1       -2 0.67544056E-02 0.41544205E+03</pdfrwt>
<totfact> 0.40811636E+03</totfact>
</mgrwt>
</event>
<event>
 4    1  0.5121375E-004  0.3985577E+03  0.7818608E-02  0.1044280E+00
          2   -1    0    0  501    0  0.00000000000E+00  0.00000000000E+00  0.21118682236E+04  0.21118682236E+04  0.25500000000E-02 0.  1.
         -2   -1    0    0    0  501 -0.00000000000E+00 -0.00000000000E+00 -0.18804232522E+02  0.18804232695E+02  0.25500000000E-02 0. -1.
    5000001    1    1    2    0    0 -0.14577418687E+03 -0.10183145685E+03  0.79788450965E+03  0.82107761503E+03  0.77000000000E+02 0.  0.
   -5000001    1    1    2    0    0  0.14577418687E+03  0.10183145685E+03  0.12951794815E+04  0.13095948413E+04  0.77000000000E+02 0.  0.
<mgrwt>
<rscale>  0 0.39855771E+03</rscale>
<asrwt>0</asrwt>
<pdfrwt beam="1">  1        2 0.30169544E+00 0.39855771E+03</pdfrwt>
<pdfrwt beam="2">  1       -2 0.26863192E-02 0.39855771E+03</pdfrwt>
<totfact> 0.38799876E+03</totfact>
</mgrwt>
</event>
<event>
 4    1  0.5121375E-004  0.2036478E+03  0.7818608E-02  0.1146697E+00
         -2   -1    0    0    0  501 -0.00000000000E+00  0.00000000000E+00  0.32401733061E+02  0.32401733161E+02  0.25500000000E-02 0. -1.
          2   -1    0    0  501    0  0.00000000000E+00 -0.00000000000E+00 -0.31998623854E+03  0.31998623855E+03  0.25500000000E-02 0.  1.
    5000001    1    1    2    0    0  0.25122808007E+01  0.52589740022E+02 -0.73140283628E+02  0.11853477717E+03  0.77000000000E+02 0.  0.
   -5000001    1    1    2    0    0 -0.25122808007E+01 -0.52589740022E+02 -0.21444422186E+03  0.23385319454E+03  0.77000000000E+02 0.  0.
<mgrwt>
<rscale>  0 0.20364782E+03</rscale>
<asrwt>0</asrwt>
<pdfrwt beam="1">  1        2 0.45712318E-01 0.20364782E+03</pdfrwt>
<pdfrwt beam="2">  1       -2 0.46288192E-02 0.20364782E+03</pdfrwt>
<totfact> 0.23529808E+04</totfact>
</mgrwt>
</event>
<event>
 4    1  0.5121375E-004  0.1896682E+03  0.7818608E-02  0.1158761E+00
         -2   -1    0    0    0  501 -0.00000000000E+00  0.00000000000E+00  0.17921515584E+02  0.17921515765E+02  0.25500000000E-02 0. -1.
          2   -1    0    0  501    0  0.00000000000E+00 -0.00000000000E+00 -0.50182747895E+03  0.50182747896E+03  0.25500000000E-02 0.  1.
    5000001    1    1    2    0    0  0.15881308025E+02 -0.31242531482E+02 -0.35937748957E+03  0.36920115348E+03  0.77000000000E+02 0.  0.
   -5000001    1    1    2    0    0 -0.15881308025E+02  0.31242531482E+02 -0.12452847380E+03  0.15054784125E+03  0.77000000000E+02 0.  0.
<mgrwt>
<rscale>  0 0.18966823E+03</rscale>
<asrwt>0</asrwt>
<pdfrwt beam="1">  1        2 0.71689631E-01 0.18966823E+03</pdfrwt>
<pdfrwt beam="2">  1       -2 0.25602168E-02 0.18966823E+03</pdfrwt>
<totfact> 0.34771418E+04</totfact>
</mgrwt>
</event>
<event>
 4    1  0.5121375E-004  0.2267160E+03  0.7818608E-02  0.1128973E+00
         -2   -1    0    0    0  501 -0.00000000000E+00  0.00000000000E+00  0.11197297607E+02  0.11197297898E+02  0.25500000000E-02 0. -1.
          2   -1    0    0  501    0  0.00000000000E+00 -0.00000000000E+00 -0.11476018576E+04  0.11476018576E+04  0.25500000000E-02 0.  1.
    5000001    1    1    2    0    0 -0.79239692246E+02  0.24831641512E+02 -0.59401298778E+03  0.60471147575E+03  0.77000000000E+02 0.  0.
   -5000001    1    1    2    0    0  0.79239692246E+02 -0.24831641512E+02 -0.54239157219E+03  0.55408767973E+03  0.77000000000E+02 0.  0.
<mgrwt>
<rscale>  0 0.22671603E+03</rscale>
<asrwt>0</asrwt>
<pdfrwt beam="1">  1        2 0.16394305E+00 0.22671603E+03</pdfrwt>
<pdfrwt beam="2">  1       -2 0.15996147E-02 0.22671603E+03</pdfrwt>
<totfact> 0.25377362E+04</totfact>
</mgrwt>
</event>
<event>
 4    1  0.5121375E-004  0.2025331E+03  0.7818608E-02  0.1147619E+00
          2   -1    0    0  501    0  0.00000000000E+00  0.00000000000E+00  0.42356518926E+03  0.42356518927E+03  0.25500000000E-02 0.  1.
         -2   -1    0    0    0  501 -0.00000000000E+00 -0.00000000000E+00 -0.24210940261E+02  0.24210940395E+02  0.25500000000E-02 0. -1.
    5000001    1    1    2    0    0 -0.56203051570E+02 -0.33255326629E+02  0.21697458926E+03  0.23931500609E+03  0.77000000000E+02 0.  0.
   -5000001    1    1    2    0    0  0.56203051570E+02  0.33255326629E+02  0.18237965974E+03  0.20846112357E+03  0.77000000000E+02 0.  0.
<mgrwt>
<rscale>  0 0.20253307E+03</rscale>
<asrwt>0</asrwt>
<pdfrwt beam="1">  1        2 0.60509306E-01 0.20253307E+03</pdfrwt>
<pdfrwt beam="2">  1       -2 0.34587061E-02 0.20253307E+03</pdfrwt>
<totfact> 0.26933278E+04</totfact>
</mgrwt>
</event>
<event>
 4    1  0.5121375E-004  0.3461925E+03  0.7818608E-02  0.1064189E+00
          2   -1    0    0  501    0  0.00000000000E+00  0.00000000000E+00  0.22782443681E+03  0.22782443683E+03  0.25500000000E-02 0.  1.
         -2   -1    0    0    0  501 -0.00000000000E+00 -0.00000000000E+00 -0.13151489994E+03  0.13151489997E+03  0.25500000000E-02 0. -1.
    5000001    1    1    2    0    0  0.70376775175E+02  0.11881294944E+03 -0.24975753226E+02  0.16006934650E+03  0.77000000000E+02 0.  0.
   -5000001    1    1    2    0    0 -0.70376775175E+02 -0.11881294944E+03  0.12128529009E+03  0.19926999030E+03  0.77000000000E+02 0.  0.
<mgrwt>
<rscale>  0 0.34619248E+03</rscale>
<asrwt>0</asrwt>
<pdfrwt beam="1">  1        2 0.32546348E-01 0.34619248E+03</pdfrwt>
<pdfrwt beam="2">  1       -2 0.18787843E-01 0.34619248E+03</pdfrwt>
<totfact> 0.37636430E+03</totfact>
</mgrwt>
</event>
<event>
 4    1  0.5121375E-004  0.5253227E+03  0.7818608E-02  0.1007373E+00
          2   -1    0    0  501    0  0.00000000000E+00  0.00000000000E+00  0.21402989636E+03  0.21402989638E+03  0.25500000000E-02 0.  1.
         -2   -1    0    0    0  501 -0.00000000000E+00 -0.00000000000E+00 -0.32234277342E+03  0.32234277343E+03  0.25500000000E-02 0. -1.
    5000001    1    1    2    0    0 -0.11223247264E+03  0.95841820787E+02 -0.26160546122E+03  0.31007773197E+03  0.77000000000E+02 0.  0.
   -5000001    1    1    2    0    0  0.11223247264E+03 -0.95841820787E+02  0.15329258417E+03  0.22629493783E+03  0.77000000000E+02 0.  0.
<mgrwt>
<rscale>  0 0.52532272E+03</rscale>
<asrwt>0</asrwt>
<pdfrwt beam="1">  1        2 0.30575699E-01 0.52532272E+03</pdfrwt>
<pdfrwt beam="2">  1       -2 0.46048968E-01 0.52532272E+03</pdfrwt>
<totfact> 0.78235364E+02</totfact>
</mgrwt>
</event>
<event>
 4    1  0.5121375E-004  0.2183639E+03  0.7818608E-02  0.1135109E+00
         -2   -1    0    0    0  501 -0.00000000000E+00  0.00000000000E+00  0.16108630287E+04  0.16108630287E+04  0.25500000000E-02 0. -1.
          2   -1    0    0  501    0  0.00000000000E+00 -0.00000000000E+00 -0.74001963737E+01  0.74001968130E+01  0.25500000000E-02 0.  1.
    5000001    1    1    2    0    0 -0.13339485486E+02 -0.75340736664E+02  0.88864231873E+03  0.89524764122E+03  0.77000000000E+02 0.  0.
   -5000001    1    1    2    0    0  0.13339485486E+02  0.75340736664E+02  0.71482051362E+03  0.72301558432E+03  0.77000000000E+02 0.  0.
<mgrwt>
<rscale>  0 0.21836394E+03</rscale>
<asrwt>0</asrwt>
<pdfrwt beam="1">  1        2 0.10571687E-02 0.21836394E+03</pdfrwt>
<pdfrwt beam="2">  1       -2 0.23012378E+00 0.21836394E+03</pdfrwt>
<totfact> 0.12458329E+03</totfact>
</mgrwt>
</event>
<event>
 4    1  0.5121375E-004  0.1747335E+03  0.7818608E-02  0.1173000E+00
         -2   -1    0    0    0  501 -0.00000000000E+00  0.00000000000E+00  0.33134295748E+01  0.33134305561E+01  0.25500000000E-02 0. -1.
          2   -1    0    0  501    0  0.00000000000E+00 -0.00000000000E+00 -0.23036403740E+04  0.23036403740E+04  0.25500000000E-02 0.  1.
    5000001    1    1    2    0    0  0.14531326108E+02 -0.19139434625E+02 -0.70704156563E+03  0.71162788937E+03  0.77000000000E+02 0.  0.
   -5000001    1    1    2    0    0 -0.14531326108E+02  0.19139434625E+02 -0.15932853788E+04  0.15953259152E+04  0.77000000000E+02 0.  0.
<mgrwt>
<rscale>  0 0.17473353E+03</rscale>
<asrwt>0</asrwt>
<pdfrwt beam="1">  1        2 0.32909045E+00 0.17473353E+03</pdfrwt>
<pdfrwt beam="2">  1       -2 0.47334863E-03 0.17473353E+03</pdfrwt>
<totfact> 0.38560482E+04</totfact>
</mgrwt>
</event>
<event>
 4    1  0.5121375E-004  0.4998439E+03  0.7818608E-02  0.1013820E+00
          2   -1    0    0  501    0  0.00000000000E+00  0.00000000000E+00  0.22976806134E+03  0.22976806135E+03  0.25500000000E-02 0.  1.
         -2   -1    0    0    0  501 -0.00000000000E+00 -0.00000000000E+00 -0.27184364471E+03  0.27184364472E+03  0.25500000000E-02 0. -1.
    5000001    1    1    2    0    0  0.69031494901E+01 -0.19896380391E+03 -0.15148882925E+03  0.26174818839E+03  0.77000000000E+02 0.  0.
   -5000001    1    1    2    0    0 -0.69031494901E+01  0.19896380391E+03  0.10941324588E+03  0.23986351768E+03  0.77000000000E+02 0.  0.
<mgrwt>
<rscale>  0 0.49984392E+03</rscale>
<asrwt>0</asrwt>
<pdfrwt beam="1">  1        2 0.32824009E-01 0.49984392E+03</pdfrwt>
<pdfrwt beam="2">  1       -2 0.38834806E-01 0.49984392E+03</pdfrwt>
<totfact> 0.10087923E+03</totfact>
</mgrwt>
</event>
<event>
 4    1  0.5121375E-004  0.2601513E+03  0.7818608E-02  0.1107052E+00
          2   -1    0    0  501    0  0.00000000000E+00  0.00000000000E+00  0.70253727400E+03  0.70253727400E+03  0.25500000000E-02 0.  1.
         -2   -1    0    0    0  501 -0.00000000000E+00 -0.00000000000E+00 -0.24083677392E+02  0.24083677527E+02  0.25500000000E-02 0. -1.
    5000001    1    1    2    0    0 -0.45333380402E+02 -0.89874030749E+02  0.42105108827E+03  0.43971067273E+03  0.77000000000E+02 0.  0.
   -5000001    1    1    2    0    0  0.45333380402E+02  0.89874030749E+02  0.25740250834E+03  0.28691027880E+03  0.77000000000E+02 0.  0.
<mgrwt>
<rscale>  0 0.26015135E+03</rscale>
<asrwt>0</asrwt>
<pdfrwt beam="1">  1        2 0.10036248E+00 0.26015135E+03</pdfrwt>
<pdfrwt beam="2">  1       -2 0.34405249E-02 0.26015135E+03</pdfrwt>
<totfact> 0.15633636E+04</totfact>
</mgrwt>
</event>
<event>
 4    1  0.5121375E-004  0.3132434E+03  0.7818608E-02  0.1078802E+00
          2   -1    0    0  501    0  0.00000000000E+00  0.00000000000E+00  0.14794219204E+04  0.14794219204E+04  0.25500000000E-02 0.  1.
         -2   -1    0    0    0  501 -0.00000000000E+00 -0.00000000000E+00 -0.16581045274E+02  0.16581045470E+02  0.25500000000E-02 0. -1.
    5000001    1    1    2    0    0 -0.31356707389E+02 -0.12204540637E+03  0.48220364320E+03  0.50430910941E+03  0.77000000000E+02 0.  0.
   -5000001    1    1    2    0    0  0.31356707389E+02  0.12204540637E+03  0.98063723193E+03  0.99169385647E+03  0.77000000000E+02 0.  0.
<mgrwt>
<rscale>  0 0.31324343E+03</rscale>
<asrwt>0</asrwt>
<pdfrwt beam="1">  1        2 0.21134604E+00 0.31324343E+03</pdfrwt>
<pdfrwt beam="2">  1       -2 0.23687202E-02 0.31324343E+03</pdfrwt>
<totfact> 0.96473930E+03</totfact>
</mgrwt>
</event>
<event>
 4    1  0.5121375E-004  0.2189601E+03  0.7818608E-02  0.1134661E+00
         -2   -1    0    0    0  501 -0.00000000000E+00  0.00000000000E+00  0.20216753925E+02  0.20216754085E+02  0.25500000000E-02 0. -1.
          2   -1    0    0  501    0  0.00000000000E+00 -0.00000000000E+00 -0.59286893275E+03  0.59286893276E+03  0.25500000000E-02 0.  1.
    5000001    1    1    2    0    0 -0.28940845316E+01  0.74846410544E+02 -0.22715919738E+03  0.25127805684E+03  0.77000000000E+02 0.  0.
   -5000001    1    1    2    0    0  0.28940845316E+01 -0.74846410544E+02 -0.34549298145E+03  0.36180763000E+03  0.77000000000E+02 0.  0.
<mgrwt>
<rscale>  0 0.21896014E+03</rscale>
<asrwt>0</asrwt>
<pdfrwt beam="1">  1        2 0.84695551E-01 0.21896014E+03</pdfrwt>
<pdfrwt beam="2">  1       -2 0.28881081E-02 0.21896014E+03</pdfrwt>
<totfact> 0.24440952E+04</totfact>
</mgrwt>
</event>
<event>
 4    1  0.5121375E-004  0.2444920E+03  0.7818608E-02  0.1116836E+00
          2   -1    0    0  501    0  0.00000000000E+00  0.00000000000E+00  0.16126896063E+02  0.16126896265E+02  0.25500000000E-02 0.  1.
         -2   -1    0    0    0  501 -0.00000000000E+00 -0.00000000000E+00 -0.92665629892E+03  0.92665629893E+03  0.25500000000E-02 0. -1.
    5000001    1    1    2    0    0  0.34213376377E+02  0.78692239856E+02 -0.29853156613E+03  0.32002049889E+03  0.77000000000E+02 0.  0.
   -5000001    1    1    2    0    0 -0.34213376377E+02 -0.78692239856E+02 -0.61199783673E+03  0.62276269630E+03  0.77000000000E+02 0.  0.
<mgrwt>
<rscale>  0 0.24449204E+03</rscale>
<asrwt>0</asrwt>
<pdfrwt beam="1">  1        2 0.23038429E-02 0.24449204E+03</pdfrwt>
<pdfrwt beam="2">  1       -2 0.13237944E+00 0.24449204E+03</pdfrwt>
<totfact> 0.19520813E+03</totfact>
</mgrwt>
</event>
<event>
 4    1  0.5121375E-004  0.3148759E+03  0.7818608E-02  0.1078032E+00
         -2   -1    0    0    0  501 -0.00000000000E+00  0.00000000000E+00  0.75963590175E+01  0.75963594455E+01  0.25500000000E-02 0.  1.
          2   -1    0    0  501    0  0.00000000000E+00 -0.00000000000E+00 -0.32629728799E+04  0.32629728799E+04  0.25500000000E-02 0. -1.
    5000001    1    1    2    0    0 -0.43358060742E+01 -0.13450701340E+03 -0.13438442620E+04  0.13527591568E+04  0.77000000000E+02 0.  0.
   -5000001    1    1    2    0    0  0.43358060742E+01  0.13450701340E+03 -0.19115322590E+04  0.19178100826E+04  0.77000000000E+02 0.  0.
<mgrwt>
<rscale>  0 0.31487594E+03</rscale>
<asrwt>0</asrwt>
<pdfrwt beam="1">  1        2 0.46613809E+00 0.31487594E+03</pdfrwt>
<pdfrwt beam="2">  1       -2 0.10851963E-02 0.31487594E+03</pdfrwt>
<totfact> 0.37745342E+03</totfact>
</mgrwt>
</event>
<event>
 4    1  0.5121375E-004  0.3735344E+03  0.7818608E-02  0.1053350E+00
         -2   -1    0    0    0  501 -0.00000000000E+00  0.00000000000E+00  0.69535384749E+02  0.69535384796E+02  0.25500000000E-02 0. -1.
          2   -1    0    0  501    0  0.00000000000E+00 -0.00000000000E+00 -0.50164364324E+03  0.50164364324E+03  0.25500000000E-02 0.  1.
    5000001    1    1    2    0    0 -0.72696943318E+02  0.15232725985E+03 -0.18309656248E+03  0.26065646137E+03  0.77000000000E+02 0.  0.
   -5000001    1    1    2    0    0  0.72696943318E+02 -0.15232725985E+03 -0.24901169601E+03  0.31052256667E+03  0.77000000000E+02 0.  0.
<mgrwt>
<rscale>  0 0.37353438E+03</rscale>
<asrwt>0</asrwt>
<pdfrwt beam="1">  1        2 0.71663375E-01 0.37353438E+03</pdfrwt>
<pdfrwt beam="2">  1       -2 0.99336267E-02 0.37353438E+03</pdfrwt>
<totfact> 0.45479467E+03</totfact>
</mgrwt>
</event>
<event>
 4    1  0.5121375E-004  0.2927147E+03  0.7818608E-02  0.1088940E+00
          2   -1    0    0  501    0  0.00000000000E+00  0.00000000000E+00  0.19680141182E+04  0.19680141182E+04  0.25500000000E-02 0.  1.
         -2   -1    0    0    0  501 -0.00000000000E+00 -0.00000000000E+00 -0.10884307270E+02  0.10884307568E+02  0.25500000000E-02 0. -1.
    5000001    1    1    2    0    0 -0.98693867402E+02 -0.75761966504E+02  0.95602530475E+03  0.96715755611E+03  0.77000000000E+02 0.  0.
   -5000001    1    1    2    0    0  0.98693867402E+02  0.75761966504E+02  0.10011045062E+04  0.10117408696E+04  0.77000000000E+02 0.  0.
<mgrwt>
<rscale>  0 0.29271468E+03</rscale>
<asrwt>0</asrwt>
<pdfrwt beam="1">  1        2 0.28114506E+00 0.29271468E+03</pdfrwt>
<pdfrwt beam="2">  1       -2 0.15549001E-02 0.29271468E+03</pdfrwt>
<totfact> 0.10260978E+04</totfact>
</mgrwt>
</event>
<event>
 4    1  0.5121375E-004  0.3485449E+03  0.7818608E-02  0.1063214E+00
         -2   -1    0    0    0  501 -0.00000000000E+00  0.00000000000E+00  0.65908415625E+02  0.65908415674E+02  0.25500000000E-02 0. -1.
          2   -1    0    0  501    0  0.00000000000E+00 -0.00000000000E+00 -0.46080425587E+03  0.46080425587E+03  0.25500000000E-02 0.  1.
    5000001    1    1    2    0    0  0.13129120041E+03 -0.11441576026E+02 -0.70351002047E+02  0.16806710700E+03  0.77000000000E+02 0.  0.
   -5000001    1    1    2    0    0 -0.13129120041E+03  0.11441576026E+02 -0.32454483819E+03  0.35864556454E+03  0.77000000000E+02 0.  0.
<mgrwt>
<rscale>  0 0.34854485E+03</rscale>
<asrwt>0</asrwt>
<pdfrwt beam="1">  1        2 0.65829177E-01 0.34854485E+03</pdfrwt>
<pdfrwt beam="2">  1       -2 0.94154882E-02 0.34854485E+03</pdfrwt>
<totfact> 0.54355352E+03</totfact>
</mgrwt>
</event>
<event>
 4    1  0.5121375E-004  0.2161339E+03  0.7818608E-02  0.1136799E+00
         -2   -1    0    0    0  501 -0.00000000000E+00  0.00000000000E+00  0.76939986175E+02  0.76939986218E+02  0.25500000000E-02 0. -1.
          2   -1    0    0  501    0  0.00000000000E+00 -0.00000000000E+00 -0.15178665187E+03  0.15178665190E+03  0.25500000000E-02 0.  1.
    5000001    1    1    2    0    0  0.20184445105E+02 -0.67582808216E+02 -0.66876831584E+02  0.12400144513E+03  0.77000000000E+02 0.  0.
   -5000001    1    1    2    0    0 -0.20184445105E+02  0.67582808216E+02 -0.79698341147E+01  0.10472519299E+03  0.77000000000E+02 0.  0.
<mgrwt>
<rscale>  0 0.21613387E+03</rscale>
<asrwt>0</asrwt>
<pdfrwt beam="1">  1        2 0.21683807E-01 0.21613387E+03</pdfrwt>
<pdfrwt beam="2">  1       -2 0.10991427E-01 0.21613387E+03</pdfrwt>
<totfact> 0.14008759E+04</totfact>
</mgrwt>
</event>
<event>
 4    1  0.5121375E-004  0.2074412E+03  0.7818608E-02  0.1143608E+00
          2   -1    0    0  501    0  0.00000000000E+00  0.00000000000E+00  0.89915915156E+03  0.89915915156E+03  0.25500000000E-02 0.  1.
         -2   -1    0    0    0  501 -0.00000000000E+00 -0.00000000000E+00 -0.11964466350E+02  0.11964466622E+02  0.25500000000E-02 0. -1.
    5000001    1    1    2    0    0 -0.48296931964E+02 -0.44228867341E+02  0.54567927203E+03  0.55496275034E+03  0.77000000000E+02 0.  0.
   -5000001    1    1    2    0    0  0.48296931964E+02  0.44228867341E+02  0.34151541318E+03  0.35616086784E+03  0.77000000000E+02 0.  0.
<mgrwt>
<rscale>  0 0.20744117E+03</rscale>
<asrwt>0</asrwt>
<pdfrwt beam="1">  1        2 0.12845131E+00 0.20744117E+03</pdfrwt>
<pdfrwt beam="2">  1       -2 0.17092095E-02 0.20744117E+03</pdfrwt>
<totfact> 0.31939631E+04</totfact>
</mgrwt>
</event>
<event>
 4    1  0.5121375E-004  0.2035742E+03  0.7818608E-02  0.1146758E+00
          2   -1    0    0  501    0  0.00000000000E+00  0.00000000000E+00  0.81586317289E+03  0.81586317289E+03  0.25500000000E-02 0.  1.
         -2   -1    0    0    0  501 -0.00000000000E+00 -0.00000000000E+00 -0.12698958905E+02  0.12698959162E+02  0.25500000000E-02 0. -1.
    5000001    1    1    2    0    0 -0.64789182005E+02 -0.28749949918E+00  0.33933627495E+03  0.35394325571E+03  0.77000000000E+02 0.  0.
   -5000001    1    1    2    0    0  0.64789182005E+02  0.28749949918E+00  0.46382793903E+03  0.47461887635E+03  0.77000000000E+02 0.  0.
<mgrwt>
<rscale>  0 0.20357419E+03</rscale>
<asrwt>0</asrwt>
<pdfrwt beam="1">  1        2 0.11655188E+00 0.20357419E+03</pdfrwt>
<pdfrwt beam="2">  1       -2 0.18141370E-02 0.20357419E+03</pdfrwt>
<totfact> 0.33050061E+04</totfact>
</mgrwt>
</event>
<event>
 4    1  0.5121375E-004  0.1773798E+03  0.7818608E-02  0.1170363E+00
         -2   -1    0    0    0  501 -0.00000000000E+00  0.00000000000E+00  0.92698213718E+01  0.92698217226E+01  0.25500000000E-02 0. -1.
          2   -1    0    0  501    0  0.00000000000E+00 -0.00000000000E+00 -0.84854895807E+03  0.84854895807E+03  0.25500000000E-02 0.  1.
    5000001    1    1    2    0    0 -0.34585451072E+02  0.26573783060E+01 -0.28864736545E+03  0.30074826128E+03  0.77000000000E+02 0.  0.
   -5000001    1    1    2    0    0  0.34585451072E+02 -0.26573783060E+01 -0.55063177125E+03  0.55707051851E+03  0.77000000000E+02 0.  0.
<mgrwt>
<rscale>  0 0.17737979E+03</rscale>
<asrwt>0</asrwt>
<pdfrwt beam="1">  1        2 0.12122123E+00 0.17737979E+03</pdfrwt>
<pdfrwt beam="2">  1       -2 0.13242608E-02 0.17737979E+03</pdfrwt>
<totfact> 0.49163345E+04</totfact>
</mgrwt>
</event>
<event>
 4    1  0.5121375E-004  0.2861755E+03  0.7818608E-02  0.1092363E+00
         -2   -1    0    0    0  501 -0.00000000000E+00  0.00000000000E+00  0.11580421045E+02  0.11580421326E+02  0.25500000000E-02 0.  1.
          2   -1    0    0  501    0  0.00000000000E+00 -0.00000000000E+00 -0.17679930151E+04  0.17679930151E+04  0.25500000000E-02 0. -1.
    5000001    1    1    2    0    0 -0.62820733008E+02  0.74507950104E+02 -0.43642249719E+03  0.45375265859E+03  0.77000000000E+02 0.  0.
   -5000001    1    1    2    0    0  0.62820733008E+02 -0.74507950104E+02 -0.13199900969E+04  0.13258207779E+04  0.77000000000E+02 0.  0.
<mgrwt>
<rscale>  0 0.28617550E+03</rscale>
<asrwt>0</asrwt>
<pdfrwt beam="1">  1        2 0.25257026E+00 0.28617550E+03</pdfrwt>
<pdfrwt beam="2">  1       -2 0.16543470E-02 0.28617550E+03</pdfrwt>
<totfact> 0.11734832E+04</totfact>
</mgrwt>
</event>
<event>
 4    1  0.5121375E-004  0.3431605E+03  0.7818608E-02  0.1065458E+00
         -2   -1    0    0    0  501 -0.00000000000E+00  0.00000000000E+00  0.61028758944E+02  0.61028758997E+02  0.25500000000E-02 0. -1.
          2   -1    0    0  501    0  0.00000000000E+00 -0.00000000000E+00 -0.48239181456E+03  0.48239181457E+03  0.25500000000E-02 0.  1.
    5000001    1    1    2    0    0  0.10627669105E+03 -0.10938428891E+03 -0.18558716965E+03  0.25225236423E+03  0.77000000000E+02 0.  0.
   -5000001    1    1    2    0    0 -0.10627669105E+03  0.10938428891E+03 -0.23577588597E+03  0.29116820933E+03  0.77000000000E+02 0.  0.
<mgrwt>
<rscale>  0 0.34316045E+03</rscale>
<asrwt>0</asrwt>
<pdfrwt beam="1">  1        2 0.68913114E-01 0.34316045E+03</pdfrwt>
<pdfrwt beam="2">  1       -2 0.87183944E-02 0.34316045E+03</pdfrwt>
<totfact> 0.58351330E+03</totfact>
</mgrwt>
</event>
<event>
 4    1  0.5121375E-004  0.1683167E+03  0.7818608E-02  0.1179615E+00
          2   -1    0    0  501    0  0.00000000000E+00  0.00000000000E+00  0.36904246321E+03  0.36904246322E+03  0.25500000000E-02 0.  1.
         -2   -1    0    0    0  501 -0.00000000000E+00 -0.00000000000E+00 -0.19191904393E+02  0.19191904562E+02  0.25500000000E-02 0. -1.
    5000001    1    1    2    0    0 -0.17427086603E+02  0.29094714846E+02  0.17065848148E+03  0.19027223413E+03  0.77000000000E+02 0.  0.
   -5000001    1    1    2    0    0  0.17427086603E+02 -0.29094714846E+02  0.17919207734E+03  0.19796213365E+03  0.77000000000E+02 0.  0.
<mgrwt>
<rscale>  0 0.16831670E+03</rscale>
<asrwt>0</asrwt>
<pdfrwt beam="1">  1        2 0.52720351E-01 0.16831670E+03</pdfrwt>
<pdfrwt beam="2">  1       -2 0.27417007E-02 0.16831670E+03</pdfrwt>
<totfact> 0.43313417E+04</totfact>
</mgrwt>
</event>
<event>
 4    1  0.5121375E-004  0.1996173E+03  0.7818608E-02  0.1150062E+00
          2   -1    0    0  501    0  0.00000000000E+00  0.00000000000E+00  0.39857664705E+02  0.39857664786E+02  0.25500000000E-02 0.  1.
         -2   -1    0    0    0  501 -0.00000000000E+00 -0.00000000000E+00 -0.24993348717E+03  0.24993348718E+03  0.25500000000E-02 0. -1.
    5000001    1    1    2    0    0 -0.75598707861E+01 -0.54912919257E+02 -0.60053256788E+02  0.11228523500E+03  0.77000000000E+02 0.  0.
   -5000001    1    1    2    0    0  0.75598707861E+01  0.54912919257E+02 -0.15002256568E+03  0.17750591697E+03  0.77000000000E+02 0.  0.
<mgrwt>
<rscale>  0 0.19961729E+03</rscale>
<asrwt>0</asrwt>
<pdfrwt beam="1">  1        2 0.56939523E-02 0.19961729E+03</pdfrwt>
<pdfrwt beam="2">  1       -2 0.35704783E-01 0.19961729E+03</pdfrwt>
<totfact> 0.94924028E+03</totfact>
</mgrwt>
</event>
<event>
 4    1  0.5121375E-004  0.2064888E+03  0.7818608E-02  0.1144377E+00
         -2   -1    0    0    0  501 -0.00000000000E+00  0.00000000000E+00  0.47262839312E+01  0.47262846191E+01  0.25500000000E-02 0. -1.
          2   -1    0    0  501    0  0.00000000000E+00 -0.00000000000E+00 -0.22553466791E+04  0.22553466791E+04  0.25500000000E-02 0.  1.
    5000001    1    1    2    0    0 -0.17047424345E+02  0.60756567370E+02 -0.82587506257E+03  0.83185370957E+03  0.77000000000E+02 0.  0.
   -5000001    1    1    2    0    0  0.17047424345E+02 -0.60756567370E+02 -0.14247453326E+04  0.14282192541E+04  0.77000000000E+02 0.  0.
<mgrwt>
<rscale>  0 0.20648883E+03</rscale>
<asrwt>0</asrwt>
<pdfrwt beam="1">  1        2 0.32219169E+00 0.20648883E+03</pdfrwt>
<pdfrwt beam="2">  1       -2 0.67518491E-03 0.20648883E+03</pdfrwt>
<totfact> 0.24691706E+04</totfact>
</mgrwt>
</event>
<event>
 4    1  0.5121375E-004  0.2471004E+03  0.7818608E-02  0.1115151E+00
         -2   -1    0    0    0  501 -0.00000000000E+00  0.00000000000E+00  0.67556028745E+03  0.67556028746E+03  0.25500000000E-02 0. -1.
          2   -1    0    0  501    0  0.00000000000E+00 -0.00000000000E+00 -0.22595548969E+02  0.22595549113E+02  0.25500000000E-02 0.  1.
    5000001    1    1    2    0    0  0.27362223464E+02 -0.86455972317E+02  0.42071374649E+03  0.43720976991E+03  0.77000000000E+02 0.  0.
   -5000001    1    1    2    0    0 -0.27362223464E+02  0.86455972317E+02  0.23225099199E+03  0.26094606666E+03  0.77000000000E+02 0.  0.
<mgrwt>
<rscale>  0 0.24710043E+03</rscale>
<asrwt>0</asrwt>
<pdfrwt beam="1">  1        2 0.32279356E-02 0.24710043E+03</pdfrwt>
<pdfrwt beam="2">  1       -2 0.96508613E-01 0.24710043E+03</pdfrwt>
<totfact> 0.26234213E+03</totfact>
</mgrwt>
</event>
<event>
 4    1  0.5121375E-004  0.1828070E+03  0.7818608E-02  0.1165114E+00
          2   -1    0    0  501    0  0.00000000000E+00  0.00000000000E+00  0.71864280000E+03  0.71864280000E+03  0.25500000000E-02 0.  1.
         -2   -1    0    0    0  501 -0.00000000000E+00 -0.00000000000E+00 -0.11625523073E+02  0.11625523353E+02  0.25500000000E-02 0. -1.
    5000001    1    1    2    0    0 -0.47015841307E+02  0.91350052203E+01  0.39934583916E+03  0.40951194965E+03  0.77000000000E+02 0.  0.
   -5000001    1    1    2    0    0  0.47015841307E+02 -0.91350052203E+01  0.30767143777E+03  0.32075637370E+03  0.77000000000E+02 0.  0.
<mgrwt>
<rscale>  0 0.18280699E+03</rscale>
<asrwt>0</asrwt>
<pdfrwt beam="1">  1        2 0.10266326E+00 0.18280699E+03</pdfrwt>
<pdfrwt beam="2">  1       -2 0.16607889E-02 0.18280699E+03</pdfrwt>
<totfact> 0.43432594E+04</totfact>
</mgrwt>
</event>
<event>
 4    1  0.5121375E-004  0.3282466E+03  0.7818608E-02  0.1071915E+00
         -2   -1    0    0    0  501 -0.00000000000E+00  0.00000000000E+00  0.16047452869E+02  0.16047453072E+02  0.25500000000E-02 0. -1.
          2   -1    0    0  501    0  0.00000000000E+00 -0.00000000000E+00 -0.16785503426E+04  0.16785503426E+04  0.25500000000E-02 0.  1.
    5000001    1    1    2    0    0 -0.14362432403E+03 -0.13948727832E+02 -0.76104341495E+03  0.77842057585E+03  0.77000000000E+02 0.  0.
   -5000001    1    1    2    0    0  0.14362432403E+03  0.13948727832E+02 -0.90145947482E+03  0.91617721987E+03  0.77000000000E+02 0.  0.
<mgrwt>
<rscale>  0 0.32824660E+03</rscale>
<asrwt>0</asrwt>
<pdfrwt beam="1">  1        2 0.23979280E+00 0.32824660E+03</pdfrwt>
<pdfrwt beam="2">  1       -2 0.22924943E-02 0.32824660E+03</pdfrwt>
<totfact> 0.80477118E+03</totfact>
</mgrwt>
</event>
<event>
 4    1  0.5121375E-004  0.2859114E+03  0.7818608E-02  0.1092503E+00
         -2   -1    0    0    0  501 -0.00000000000E+00  0.00000000000E+00  0.18303314571E+02  0.18303314749E+02  0.25500000000E-02 0. -1.
          2   -1    0    0  501    0  0.00000000000E+00 -0.00000000000E+00 -0.11165371833E+04  0.11165371833E+04  0.25500000000E-02 0.  1.
    5000001    1    1    2    0    0  0.10075360772E+03  0.57321140359E+02 -0.41926095053E+03  0.44175303875E+03  0.77000000000E+02 0.  0.
   -5000001    1    1    2    0    0 -0.10075360772E+03 -0.57321140359E+02 -0.67897291823E+03  0.69308745933E+03  0.77000000000E+02 0.  0.
<mgrwt>
<rscale>  0 0.28591139E+03</rscale>
<asrwt>0</asrwt>
<pdfrwt beam="1">  1        2 0.15950527E+00 0.28591139E+03</pdfrwt>
<pdfrwt beam="2">  1       -2 0.26147599E-02 0.28591139E+03</pdfrwt>
<totfact> 0.12953393E+04</totfact>
</mgrwt>
</event>
<event>
 4    1  0.5121375E-004  0.1849415E+03  0.7818608E-02  0.1163105E+00
         -2   -1    0    0    0  501 -0.00000000000E+00  0.00000000000E+00  0.21755497087E+02  0.21755497236E+02  0.25500000000E-02 0. -1.
          2   -1    0    0  501    0  0.00000000000E+00 -0.00000000000E+00 -0.39304278431E+03  0.39304278432E+03  0.25500000000E-02 0.  1.
    5000001    1    1    2    0    0 -0.33728016656E+02 -0.34243983773E+02 -0.14605146725E+03  0.17196005530E+03  0.77000000000E+02 0.  0.
   -5000001    1    1    2    0    0  0.33728016656E+02  0.34243983773E+02 -0.22523581997E+03  0.24283822626E+03  0.77000000000E+02 0.  0.
<mgrwt>
<rscale>  0 0.18494152E+03</rscale>
<asrwt>0</asrwt>
<pdfrwt beam="1">  1        2 0.56148965E-01 0.18494152E+03</pdfrwt>
<pdfrwt beam="2">  1       -2 0.31079284E-02 0.18494152E+03</pdfrwt>
<totfact> 0.33950608E+04</totfact>
</mgrwt>
</event>
<event>
 4    1  0.5121375E-004  0.2940474E+03  0.7818608E-02  0.1088255E+00
         -2   -1    0    0    0  501 -0.00000000000E+00  0.00000000000E+00  0.77670938829E+01  0.77670943015E+01  0.25500000000E-02 0. -1.
          2   -1    0    0  501    0  0.00000000000E+00 -0.00000000000E+00 -0.27830185967E+04  0.27830185967E+04  0.25500000000E-02 0.  1.
    5000001    1    1    2    0    0 -0.62593718961E+02 -0.25862699538E+02 -0.23875633127E+04  0.23897645125E+04  0.77000000000E+02 0.  0.
   -5000001    1    1    2    0    0  0.62593718961E+02  0.25862699538E+02 -0.38768819013E+03  0.40102117855E+03  0.77000000000E+02 0.  0.
<mgrwt>
<rscale>  0 0.29404739E+03</rscale>
<asrwt>0</asrwt>
<pdfrwt beam="1">  1        2 0.39757345E+00 0.29404739E+03</pdfrwt>
<pdfrwt beam="2">  1       -2 0.11095867E-02 0.29404739E+03</pdfrwt>
<totfact> 0.66039842E+03</totfact>
</mgrwt>
</event>
<event>
 4    1  0.5121375E-004  0.1821490E+03  0.7818608E-02  0.1165739E+00
          2   -1    0    0  501    0  0.00000000000E+00  0.00000000000E+00  0.10939677607E+03  0.10939677610E+03  0.25500000000E-02 0.  1.
         -2   -1    0    0    0  501 -0.00000000000E+00 -0.00000000000E+00 -0.75820920783E+02  0.75820920825E+02  0.25500000000E-02 0. -1.
    5000001    1    1    2    0    0 -0.16100781868E+02  0.45868927358E+02  0.18353550367E+02  0.92892661092E+02  0.77000000000E+02 0.  0.
   -5000001    1    1    2    0    0  0.16100781868E+02 -0.45868927358E+02  0.15222304916E+02  0.92325035829E+02  0.77000000000E+02 0.  0.
<mgrwt>
<rscale>  0 0.18214900E+03</rscale>
<asrwt>0</asrwt>
<pdfrwt beam="1">  1        2 0.15628111E-01 0.18214900E+03</pdfrwt>
<pdfrwt beam="2">  1       -2 0.10831560E-01 0.18214900E+03</pdfrwt>
<totfact> 0.20634454E+04</totfact>
</mgrwt>
</event>
<event>
 4    1  0.5121375E-004  0.2166415E+03  0.7818608E-02  0.1136412E+00
         -2   -1    0    0    0  501 -0.00000000000E+00  0.00000000000E+00  0.31225497882E+02  0.31225497986E+02  0.25500000000E-02 0. -1.
          2   -1    0    0  501    0  0.00000000000E+00 -0.00000000000E+00 -0.37576277721E+03  0.37576277722E+03  0.25500000000E-02 0.  1.
    5000001    1    1    2    0    0  0.16200160337E+02  0.54775789466E+02 -0.77560031426E+02  0.12331824999E+03  0.77000000000E+02 0.  0.
   -5000001    1    1    2    0    0 -0.16200160337E+02 -0.54775789466E+02 -0.26697724790E+03  0.28367002521E+03  0.77000000000E+02 0.  0.
<mgrwt>
<rscale>  0 0.21664145E+03</rscale>
<asrwt>0</asrwt>
<pdfrwt beam="1">  1        2 0.53680394E-01 0.21664145E+03</pdfrwt>
<pdfrwt beam="2">  1       -2 0.44607856E-02 0.21664145E+03</pdfrwt>
<totfact> 0.21039178E+04</totfact>
</mgrwt>
</event>
<event>
 4    1  0.5121375E-004  0.2643719E+03  0.7818608E-02  0.1104545E+00
         -2   -1    0    0    0  501 -0.00000000000E+00  0.00000000000E+00  0.69909122754E+02  0.69909122801E+02  0.25500000000E-02 0. -1.
          2   -1    0    0  501    0  0.00000000000E+00 -0.00000000000E+00 -0.24994055871E+03  0.24994055872E+03  0.25500000000E-02 0.  1.
    5000001    1    1    2    0    0 -0.27385265207E+01 -0.92117419992E+02 -0.23188680745E+02  0.12231039820E+03  0.77000000000E+02 0.  0.
   -5000001    1    1    2    0    0  0.27385265207E+01  0.92117419992E+02 -0.15684275521E+03  0.19753928332E+03  0.77000000000E+02 0.  0.
<mgrwt>
<rscale>  0 0.26437190E+03</rscale>
<asrwt>0</asrwt>
<pdfrwt beam="1">  1        2 0.35705794E-01 0.26437190E+03</pdfrwt>
<pdfrwt beam="2">  1       -2 0.99870177E-02 0.26437190E+03</pdfrwt>
<totfact> 0.95144730E+03</totfact>
</mgrwt>
</event>
<event>
 4    1  0.5121375E-004  0.2814115E+03  0.7818608E-02  0.1094920E+00
          2   -1    0    0  501    0  0.00000000000E+00  0.00000000000E+00  0.39342039547E+03  0.39342039548E+03  0.25500000000E-02 0.  1.
         -2   -1    0    0    0  501 -0.00000000000E+00 -0.00000000000E+00 -0.50323046821E+02  0.50323046886E+02  0.25500000000E-02 0. -1.
    5000001    1    1    2    0    0  0.10306010032E+03  0.55695932832E+02  0.19058168921E+03  0.23658783036E+03  0.77000000000E+02 0.  0.
   -5000001    1    1    2    0    0 -0.10306010032E+03 -0.55695932832E+02  0.15251565944E+03  0.20715561201E+03  0.77000000000E+02 0.  0.
<mgrwt>
<rscale>  0 0.28141153E+03</rscale>
<asrwt>0</asrwt>
<pdfrwt beam="1">  1        2 0.56202916E-01 0.28141153E+03</pdfrwt>
<pdfrwt beam="2">  1       -2 0.71890064E-02 0.28141153E+03</pdfrwt>
<totfact> 0.97995418E+03</totfact>
</mgrwt>
</event>
<event>
 4    1  0.5121375E-004  0.3952179E+03  0.7818608E-02  0.1045448E+00
         -2   -1    0    0    0  501 -0.00000000000E+00  0.00000000000E+00  0.18657760410E+04  0.18657760410E+04  0.25500000000E-02 0. -1.
          2   -1    0    0  501    0  0.00000000000E+00 -0.00000000000E+00 -0.20929254219E+02  0.20929254374E+02  0.25500000000E-02 0.  1.
    5000001    1    1    2    0    0 -0.10371842218E+02  0.16799647075E+03  0.59203011479E+03  0.62028948573E+03  0.77000000000E+02 0.  0.
   -5000001    1    1    2    0    0  0.10371842218E+02 -0.16799647075E+03  0.12528166720E+04  0.12664158097E+04  0.77000000000E+02 0.  0.
<mgrwt>
<rscale>  0 0.39521792E+03</rscale>
<asrwt>0</asrwt>
<pdfrwt beam="1">  1        2 0.29898941E-02 0.39521792E+03</pdfrwt>
<pdfrwt beam="2">  1       -2 0.26653938E+00 0.39521792E+03</pdfrwt>
<totfact> 0.17963180E+02</totfact>
</mgrwt>
</event>
<event>
 4    1  0.5121375E-004  0.2414518E+03  0.7818608E-02  0.1118829E+00
          2   -1    0    0  501    0  0.00000000000E+00  0.00000000000E+00  0.23694926203E+03  0.23694926204E+03  0.25500000000E-02 0.  1.
         -2   -1    0    0    0  501 -0.00000000000E+00 -0.00000000000E+00 -0.61509999192E+02  0.61509999245E+02  0.25500000000E-02 0. -1.
    5000001    1    1    2    0    0  0.32809676408E+02  0.50133694113E+02 -0.17314687961E+00  0.97564809902E+02  0.77000000000E+02 0.  0.
   -5000001    1    1    2    0    0 -0.32809676408E+02 -0.50133694113E+02  0.17561240972E+03  0.20089445139E+03  0.77000000000E+02 0.  0.
<mgrwt>
<rscale>  0 0.24145185E+03</rscale>
<asrwt>0</asrwt>
<pdfrwt beam="1">  1        2 0.33849894E-01 0.24145185E+03</pdfrwt>
<pdfrwt beam="2">  1       -2 0.87871428E-02 0.24145185E+03</pdfrwt>
<totfact> 0.12283753E+04</totfact>
</mgrwt>
</event>
<event>
 4    1  0.5121375E-004  0.2731679E+03  0.7818608E-02  0.1099480E+00
          2   -1    0    0  501    0  0.00000000000E+00  0.00000000000E+00  0.13998620307E+03  0.13998620309E+03  0.25500000000E-02 0.  1.
         -2   -1    0    0    0  501 -0.00000000000E+00 -0.00000000000E+00 -0.13326436326E+03  0.13326436329E+03  0.25500000000E-02 0. -1.
    5000001    1    1    2    0    0  0.41507458084E+02 -0.63803535140E+02 -0.79925391427E+02  0.13457647777E+03  0.77000000000E+02 0.  0.
   -5000001    1    1    2    0    0 -0.41507458084E+02  0.63803535140E+02  0.86647231230E+02  0.13867408861E+03  0.77000000000E+02 0.  0.
<mgrwt>
<rscale>  0 0.27316788E+03</rscale>
<asrwt>0</asrwt>
<pdfrwt beam="1">  1        2 0.19998029E-01 0.27316788E+03</pdfrwt>
<pdfrwt beam="2">  1       -2 0.19037766E-01 0.27316788E+03</pdfrwt>
<totfact> 0.63016271E+03</totfact>
</mgrwt>
</event>
<event>
 4    1  0.5121375E-004  0.1951394E+03  0.7818608E-02  0.1153906E+00
         -2   -1    0    0    0  501 -0.00000000000E+00  0.00000000000E+00  0.15774945236E+03  0.15774945238E+03  0.25500000000E-02 0. -1.
          2   -1    0    0  501    0  0.00000000000E+00 -0.00000000000E+00 -0.60347886005E+02  0.60347886059E+02  0.25500000000E-02 0.  1.
    5000001    1    1    2    0    0 -0.32964884662E+02 -0.38813862845E+02  0.84002329592E+02  0.12481422574E+03  0.77000000000E+02 0.  0.
   -5000001    1    1    2    0    0  0.32964884662E+02  0.38813862845E+02  0.13399236764E+02  0.93283112703E+02  0.77000000000E+02 0.  0.
<mgrwt>
<rscale>  0 0.19513940E+03</rscale>
<asrwt>0</asrwt>
<pdfrwt beam="1">  1        2 0.86211266E-02 0.19513940E+03</pdfrwt>
<pdfrwt beam="2">  1       -2 0.22535636E-01 0.19513940E+03</pdfrwt>
<totfact> 0.12720727E+04</totfact>
</mgrwt>
</event>
<event>
 4    1  0.5121375E-004  0.1683105E+03  0.7818608E-02  0.1179621E+00
         -2   -1    0    0    0  501 -0.00000000000E+00  0.00000000000E+00  0.10544124876E+02  0.10544125185E+02  0.25500000000E-02 0. -1.
          2   -1    0    0  501    0  0.00000000000E+00 -0.00000000000E+00 -0.67166403291E+03  0.67166403292E+03  0.25500000000E-02 0.  1.
    5000001    1    1    2    0    0 -0.29818901451E+02  0.10624551073E+02 -0.38037753069E+03  0.38938170710E+03  0.77000000000E+02 0.  0.
   -5000001    1    1    2    0    0  0.29818901451E+02 -0.10624551073E+02 -0.28074237734E+03  0.29282645100E+03  0.77000000000E+02 0.  0.
<mgrwt>
<rscale>  0 0.16831054E+03</rscale>
<asrwt>0</asrwt>
<pdfrwt beam="1">  1        2 0.95951977E-01 0.16831054E+03</pdfrwt>
<pdfrwt beam="2">  1       -2 0.15063040E-02 0.16831054E+03</pdfrwt>
<totfact> 0.53744908E+04</totfact>
</mgrwt>
</event>
<event>
 4    1  0.5121375E-004  0.1758340E+03  0.7818608E-02  0.1171897E+00
          2   -1    0    0  501    0  0.00000000000E+00  0.00000000000E+00  0.54512253013E+03  0.54512253014E+03  0.25500000000E-02 0.  1.
         -2   -1    0    0    0  501 -0.00000000000E+00 -0.00000000000E+00 -0.14179197959E+02  0.14179198188E+02  0.25500000000E-02 0. -1.
    5000001    1    1    2    0    0  0.36582164770E+02 -0.12079097971E+01  0.33374419831E+03  0.34446175947E+03  0.77000000000E+02 0.  0.
   -5000001    1    1    2    0    0 -0.36582164770E+02  0.12079097971E+01  0.19719913386E+03  0.21483996886E+03  0.77000000000E+02 0.  0.
<mgrwt>
<rscale>  0 0.17583402E+03</rscale>
<asrwt>0</asrwt>
<pdfrwt beam="1">  1        2 0.77874641E-01 0.17583402E+03</pdfrwt>
<pdfrwt beam="2">  1       -2 0.20255999E-02 0.17583402E+03</pdfrwt>
<totfact> 0.44430111E+04</totfact>
</mgrwt>
</event>
<event>
 4    1  0.5121375E-004  0.2144130E+03  0.7818608E-02  0.1138118E+00
          2   -1    0    0  501    0  0.00000000000E+00  0.00000000000E+00  0.23826606211E+03  0.23826606213E+03  0.25500000000E-02 0.  1.
         -2   -1    0    0    0  501 -0.00000000000E+00 -0.00000000000E+00 -0.48236958542E+02  0.48236958609E+02  0.25500000000E-02 0. -1.
    5000001    1    1    2    0    0 -0.19674100554E+02 -0.70496193486E+02  0.11426014770E+03  0.15601655323E+03  0.77000000000E+02 0.  0.
   -5000001    1    1    2    0    0  0.19674100554E+02  0.70496193486E+02  0.75768955866E+02  0.13048646750E+03  0.77000000000E+02 0.  0.
<mgrwt>
<rscale>  0 0.21441297E+03</rscale>
<asrwt>0</asrwt>
<pdfrwt beam="1">  1        2 0.34038009E-01 0.21441297E+03</pdfrwt>
<pdfrwt beam="2">  1       -2 0.68909941E-02 0.21441297E+03</pdfrwt>
<totfact> 0.17686955E+04</totfact>
</mgrwt>
</event>
<event>
 4    1  0.5121375E-004  0.1928394E+03  0.7818608E-02  0.1155925E+00
         -2   -1    0    0    0  501 -0.00000000000E+00  0.00000000000E+00  0.16931242274E+03  0.16931242276E+03  0.25500000000E-02 0. -1.
          2   -1    0    0  501    0  0.00000000000E+00 -0.00000000000E+00 -0.54908902681E+02  0.54908902740E+02  0.25500000000E-02 0.  1.
    5000001    1    1    2    0    0 -0.55282648615E+02 -0.13457975515E+02  0.70482985081E+02  0.11888708731E+03  0.77000000000E+02 0.  0.
   -5000001    1    1    2    0    0  0.55282648615E+02  0.13457975515E+02  0.43920534983E+02  0.10533423819E+03  0.77000000000E+02 0.  0.
<mgrwt>
<rscale>  0 0.19283941E+03</rscale>
<asrwt>0</asrwt>
<pdfrwt beam="1">  1        2 0.78441289E-02 0.19283941E+03</pdfrwt>
<pdfrwt beam="2">  1       -2 0.24187489E-01 0.19283941E+03</pdfrwt>
<totfact> 0.12660196E+04</totfact>
</mgrwt>
</event>
<event>
 4    1  0.5121375E-004  0.1762466E+03  0.7818608E-02  0.1171486E+00
         -2   -1    0    0    0  501 -0.00000000000E+00  0.00000000000E+00  0.43467400303E+01  0.43467407783E+01  0.25500000000E-02 0. -1.
          2   -1    0    0  501    0  0.00000000000E+00 -0.00000000000E+00 -0.17865615615E+04  0.17865615615E+04  0.25500000000E-02 0.  1.
    5000001    1    1    2    0    0  0.33337073152E+02  0.26930864026E+02 -0.89411222491E+03  0.89844437926E+03  0.77000000000E+02 0.  0.
   -5000001    1    1    2    0    0 -0.33337073152E+02 -0.26930864026E+02 -0.88810259660E+03  0.89246392307E+03  0.77000000000E+02 0.  0.
<mgrwt>
<rscale>  0 0.17624664E+03</rscale>
<asrwt>0</asrwt>
<pdfrwt beam="1">  1        2 0.25522261E+00 0.17624664E+03</pdfrwt>
<pdfrwt beam="2">  1       -2 0.62096406E-03 0.17624664E+03</pdfrwt>
<totfact> 0.46424398E+04</totfact>
</mgrwt>
</event>
<event>
 4    1  0.5121375E-004  0.1618868E+03  0.7818608E-02  0.1186583E+00
         -2   -1    0    0    0  501 -0.00000000000E+00  0.00000000000E+00  0.19294746191E+02  0.19294746359E+02  0.25500000000E-02 0. -1.
          2   -1    0    0  501    0  0.00000000000E+00 -0.00000000000E+00 -0.33956551839E+03  0.33956551840E+03  0.25500000000E-02 0.  1.
    5000001    1    1    2    0    0 -0.23619958826E+02 -0.32446694797E+01 -0.14378551790E+03  0.16483842238E+03  0.77000000000E+02 0.  0.
   -5000001    1    1    2    0    0  0.23619958826E+02  0.32446694797E+01 -0.17648525430E+03  0.19402184238E+03  0.77000000000E+02 0.  0.
<mgrwt>
<rscale>  0 0.16188676E+03</rscale>
<asrwt>0</asrwt>
<pdfrwt beam="1">  1        2 0.48509356E-01 0.16188676E+03</pdfrwt>
<pdfrwt beam="2">  1       -2 0.27563925E-02 0.16188676E+03</pdfrwt>
<totfact> 0.46776807E+04</totfact>
</mgrwt>
</event>
<event>
 4    1  0.5121375E-004  0.2949875E+03  0.7818608E-02  0.1087774E+00
          2   -1    0    0  501    0  0.00000000000E+00  0.00000000000E+00  0.13531134511E+04  0.13531134511E+04  0.25500000000E-02 0.  1.
         -2   -1    0    0    0  501 -0.00000000000E+00 -0.00000000000E+00 -0.16077293782E+02  0.16077293984E+02  0.25500000000E-02 0. -1.
    5000001    1    1    2    0    0 -0.50208589726E+02  0.26913522980E+02  0.11891172858E+04  0.11929686331E+04  0.77000000000E+02 0.  0.
   -5000001    1    1    2    0    0  0.50208589726E+02 -0.26913522980E+02  0.14791887159E+03  0.17622211205E+03  0.77000000000E+02 0.  0.
<mgrwt>
<rscale>  0 0.29498748E+03</rscale>
<asrwt>0</asrwt>
<pdfrwt beam="1">  1        2 0.19330193E+00 0.29498748E+03</pdfrwt>
<pdfrwt beam="2">  1       -2 0.22967562E-02 0.29498748E+03</pdfrwt>
<totfact> 0.11714222E+04</totfact>
</mgrwt>
</event>
<event>
 4    1  0.5121375E-004  0.1992881E+03  0.7818608E-02  0.1150341E+00
          2   -1    0    0  501    0  0.00000000000E+00  0.00000000000E+00  0.42303245090E+01  0.42303252776E+01  0.25500000000E-02 0.  1.
         -2   -1    0    0    0  501 -0.00000000000E+00 -0.00000000000E+00 -0.23470861725E+04  0.23470861725E+04  0.25500000000E-02 0. -1.
    5000001    1    1    2    0    0 -0.24655744135E+02  0.43545241428E+02 -0.71510449633E+03  0.72097679189E+03  0.77000000000E+02 0.  0.
   -5000001    1    1    2    0    0  0.24655744135E+02 -0.43545241428E+02 -0.16277513516E+04  0.16303397058E+04  0.77000000000E+02 0.  0.
<mgrwt>
<rscale>  0 0.19928810E+03</rscale>
<asrwt>0</asrwt>
<pdfrwt beam="1">  1        2 0.60433363E-03 0.19928810E+03</pdfrwt>
<pdfrwt beam="2">  1       -2 0.33529719E+00 0.19928810E+03</pdfrwt>
<totfact> 0.66128995E+02</totfact>
</mgrwt>
</event>
<event>
 4    1  0.5121375E-004  0.2360340E+03  0.7818608E-02  0.1122463E+00
          2   -1    0    0  501    0  0.00000000000E+00  0.00000000000E+00  0.13814855778E+02  0.13814856013E+02  0.25500000000E-02 0.  1.
         -2   -1    0    0    0  501 -0.00000000000E+00 -0.00000000000E+00 -0.10081910193E+04  0.10081910193E+04  0.25500000000E-02 0. -1.
    5000001    1    1    2    0    0  0.59678981267E+02  0.42512850724E+02 -0.27513124937E+03  0.29494936457E+03  0.77000000000E+02 0.  0.
   -5000001    1    1    2    0    0 -0.59678981267E+02 -0.42512850724E+02 -0.71924491413E+03  0.72705651072E+03  0.77000000000E+02 0.  0.
<mgrwt>
<rscale>  0 0.23603401E+03</rscale>
<asrwt>0</asrwt>
<pdfrwt beam="1">  1        2 0.19735515E-02 0.23603401E+03</pdfrwt>
<pdfrwt beam="2">  1       -2 0.14402724E+00 0.23603401E+03</pdfrwt>
<totfact> 0.19506082E+03</totfact>
</mgrwt>
</event>
<event>
 4    1  0.5121375E-004  0.2064046E+03  0.7818608E-02  0.1144445E+00
         -2   -1    0    0    0  501 -0.00000000000E+00  0.00000000000E+00  0.65566251528E+01  0.65566256487E+01  0.25500000000E-02 0. -1.
          2   -1    0    0  501    0  0.00000000000E+00 -0.00000000000E+00 -0.16244197848E+04  0.16244197848E+04  0.25500000000E-02 0.  1.
    5000001    1    1    2    0    0 -0.65421584417E+02 -0.67962474760E+01 -0.65177838870E+03  0.65959854507E+03  0.77000000000E+02 0.  0.
   -5000001    1    1    2    0    0  0.65421584417E+02  0.67962474760E+01 -0.96608477092E+03  0.97137786535E+03  0.77000000000E+02 0.  0.
<mgrwt>
<rscale>  0 0.20640457E+03</rscale>
<asrwt>0</asrwt>
<pdfrwt beam="1">  1        2 0.23205971E+00 0.20640457E+03</pdfrwt>
<pdfrwt beam="2">  1       -2 0.93666181E-03 0.20640457E+03</pdfrwt>
<totfact> 0.31171005E+04</totfact>
</mgrwt>
</event>
<event>
 4    1  0.5121375E-004  0.3854839E+03  0.7818608E-02  0.1048925E+00
         -2   -1    0    0    0  501 -0.00000000000E+00  0.00000000000E+00  0.95829192613E+02  0.95829192647E+02  0.25500000000E-02 0. -1.
          2   -1    0    0  501    0  0.00000000000E+00 -0.00000000000E+00 -0.38766336320E+03  0.38766336320E+03  0.25500000000E-02 0.  1.
    5000001    1    1    2    0    0 -0.16280739670E+02 -0.15641291505E+03 -0.24696314629E+03  0.30273727571E+03  0.77000000000E+02 0.  0.
   -5000001    1    1    2    0    0  0.16280739670E+02  0.15641291505E+03 -0.44871024290E+02  0.18075528014E+03  0.77000000000E+02 0.  0.
<mgrwt>
<rscale>  0 0.38548394E+03</rscale>
<asrwt>0</asrwt>
<pdfrwt beam="1">  1        2 0.55380480E-01 0.38548394E+03</pdfrwt>
<pdfrwt beam="2">  1       -2 0.13689885E-01 0.38548394E+03</pdfrwt>
<totfact> 0.35926367E+03</totfact>
</mgrwt>
</event>
<event>
 4    1  0.5121375E-004  0.3594651E+03  0.7818608E-02  0.1058796E+00
          2   -1    0    0  501    0  0.00000000000E+00  0.00000000000E+00  0.24379158097E+02  0.24379158230E+02  0.25500000000E-02 0. -1.
         -2   -1    0    0    0  501 -0.00000000000E+00 -0.00000000000E+00 -0.13250573589E+04  0.13250573589E+04  0.25500000000E-02 0.  1.
    5000001    1    1    2    0    0 -0.12006800404E+03  0.80002804019E+02 -0.93020847787E+03  0.94447529695E+03  0.77000000000E+02 0.  0.
   -5000001    1    1    2    0    0  0.12006800404E+03 -0.80002804019E+02 -0.37046972295E+03  0.40496122020E+03  0.77000000000E+02 0.  0.
<mgrwt>
<rscale>  0 0.35946506E+03</rscale>
<asrwt>0</asrwt>
<pdfrwt beam="1">  1        2 0.34827377E-02 0.35946506E+03</pdfrwt>
<pdfrwt beam="2">  1       -2 0.18929386E+00 0.35946506E+03</pdfrwt>
<totfact> 0.43339906E+02</totfact>
</mgrwt>
</event>
<event>
 4    1  0.5121375E-004  0.2580847E+03  0.7818608E-02  0.1108299E+00
         -2   -1    0    0    0  501 -0.00000000000E+00  0.00000000000E+00  0.65068522336E+03  0.65068522337E+03  0.25500000000E-02 0. -1.
          2   -1    0    0  501    0  0.00000000000E+00 -0.00000000000E+00 -0.25591366612E+02  0.25591366739E+02  0.25500000000E-02 0.  1.
    5000001    1    1    2    0    0 -0.70849108159E+02 -0.96194370749E+01  0.50882614949E+03  0.51956248912E+03  0.77000000000E+02 0.  0.
   -5000001    1    1    2    0    0  0.70849108159E+02  0.96194370749E+01  0.11626770726E+03  0.15671410099E+03  0.77000000000E+02 0.  0.
<mgrwt>
<rscale>  0 0.25808467E+03</rscale>
<asrwt>0</asrwt>
<pdfrwt beam="1">  1        2 0.36559098E-02 0.25808467E+03</pdfrwt>
<pdfrwt beam="2">  1       -2 0.92955026E-01 0.25808467E+03</pdfrwt>
<totfact> 0.24204432E+03</totfact>
</mgrwt>
</event>
<event>
 4    1  0.5121375E-004  0.2003447E+03  0.7818608E-02  0.1149449E+00
          2   -1    0    0  501    0  0.00000000000E+00  0.00000000000E+00  0.14860311625E+03  0.14860311627E+03  0.25500000000E-02 0.  1.
         -2   -1    0    0    0  501 -0.00000000000E+00 -0.00000000000E+00 -0.67525505173E+02  0.67525505221E+02  0.25500000000E-02 0. -1.
    5000001    1    1    2    0    0 -0.61720509006E+02  0.11775850318E+02  0.54073506455E+02  0.11314166334E+03  0.77000000000E+02 0.  0.
   -5000001    1    1    2    0    0  0.61720509006E+02 -0.11775850318E+02  0.27004104617E+02  0.10298695815E+03  0.77000000000E+02 0.  0.
<mgrwt>
<rscale>  0 0.20034471E+03</rscale>
<asrwt>0</asrwt>
<pdfrwt beam="1">  1        2 0.21229017E-01 0.20034471E+03</pdfrwt>
<pdfrwt beam="2">  1       -2 0.96465007E-02 0.20034471E+03</pdfrwt>
<totfact> 0.17556537E+04</totfact>
</mgrwt>
</event>
<event>
 4    1  0.5121375E-004  0.2829622E+03  0.7818608E-02  0.1094082E+00
          2   -1    0    0  501    0  0.00000000000E+00  0.00000000000E+00  0.16089013064E+04  0.16089013064E+04  0.25500000000E-02 0.  1.
         -2   -1    0    0    0  501 -0.00000000000E+00 -0.00000000000E+00 -0.12441345321E+02  0.12441345582E+02  0.25500000000E-02 0. -1.
    5000001    1    1    2    0    0 -0.13647728626E+02  0.11371252490E+03  0.97678743910E+03  0.98648846927E+03  0.77000000000E+02 0.  0.
   -5000001    1    1    2    0    0  0.13647728626E+02 -0.11371252490E+03  0.61967252199E+03  0.63485418273E+03  0.77000000000E+02 0.  0.
<mgrwt>
<rscale>  0 0.28296217E+03</rscale>
<asrwt>0</asrwt>
<pdfrwt beam="1">  1        2 0.22984316E+00 0.28296217E+03</pdfrwt>
<pdfrwt beam="2">  1       -2 0.17773342E-02 0.28296217E+03</pdfrwt>
<totfact> 0.12656876E+04</totfact>
</mgrwt>
</event>
<event>
 4    1  0.5121375E-004  0.4667344E+03  0.7818608E-02  0.1022846E+00
         -2   -1    0    0    0  501 -0.00000000000E+00  0.00000000000E+00  0.18876150580E+02  0.18876150752E+02  0.25500000000E-02 0. -1.
          2   -1    0    0  501    0  0.00000000000E+00 -0.00000000000E+00 -0.28851353801E+04  0.28851353801E+04  0.25500000000E-02 0.  1.
    5000001    1    1    2    0    0  0.66813816117E+00  0.21864256618E+03 -0.16008038014E+04  0.16175001789E+04  0.77000000000E+02 0.  0.
   -5000001    1    1    2    0    0 -0.66813816117E+00 -0.21864256618E+03 -0.12654554281E+04  0.12865113520E+04  0.77000000000E+02 0.  0.
<mgrwt>
<rscale>  0 0.46673440E+03</rscale>
<asrwt>0</asrwt>
<pdfrwt beam="1">  1        2 0.41216192E+00 0.46673440E+03</pdfrwt>
<pdfrwt beam="2">  1       -2 0.26965948E-02 0.46673440E+03</pdfrwt>
<totfact> 0.15520210E+03</totfact>
</mgrwt>
</event>
<event>
 4    1  0.5121375E-004  0.3854973E+03  0.7818608E-02  0.1048920E+00
          2   -1    0    0  501    0  0.00000000000E+00  0.00000000000E+00  0.13670151067E+04  0.13670151067E+04  0.25500000000E-02 0.  1.
         -2   -1    0    0    0  501 -0.00000000000E+00 -0.00000000000E+00 -0.27177490425E+02  0.27177490544E+02  0.25500000000E-02 0. -1.
    5000001    1    1    2    0    0  0.15793844190E+03 -0.21871420466E+02  0.39448306844E+03  0.43239889193E+03  0.77000000000E+02 0.  0.
   -5000001    1    1    2    0    0 -0.15793844190E+03  0.21871420466E+02  0.94535454787E+03  0.96179370535E+03  0.77000000000E+02 0.  0.
<mgrwt>
<rscale>  0 0.38549729E+03</rscale>
<asrwt>0</asrwt>
<pdfrwt beam="1">  1        2 0.19528790E+00 0.38549729E+03</pdfrwt>
<pdfrwt beam="2">  1       -2 0.38824981E-02 0.38549729E+03</pdfrwt>
<totfact> 0.52729977E+03</totfact>
</mgrwt>
</event>
<event>
 4    1  0.5121375E-004  0.2145494E+03  0.7818608E-02  0.1138013E+00
          2   -1    0    0  501    0  0.00000000000E+00  0.00000000000E+00  0.89545431501E+03  0.89545431501E+03  0.25500000000E-02 0.  1.
         -2   -1    0    0    0  501 -0.00000000000E+00 -0.00000000000E+00 -0.12851421251E+02  0.12851421504E+02  0.25500000000E-02 0. -1.
    5000001    1    1    2    0    0 -0.61865492273E+02 -0.40603281651E+02  0.39835748184E+03  0.41242411296E+03  0.77000000000E+02 0.  0.
   -5000001    1    1    2    0    0  0.61865492273E+02  0.40603281651E+02  0.48424541192E+03  0.49588162355E+03  0.77000000000E+02 0.  0.
<mgrwt>
<rscale>  0 0.21454940E+03</rscale>
<asrwt>0</asrwt>
<pdfrwt beam="1">  1        2 0.12792207E+00 0.21454940E+03</pdfrwt>
<pdfrwt beam="2">  1       -2 0.18359170E-02 0.21454940E+03</pdfrwt>
<totfact> 0.28993874E+04</totfact>
</mgrwt>
</event>
<event>
 4    1  0.5121375E-004  0.3652548E+03  0.7818608E-02  0.1056522E+00
         -2   -1    0    0    0  501 -0.00000000000E+00  0.00000000000E+00  0.34999900617E+02  0.34999900710E+02  0.25500000000E-02 0. -1.
          2   -1    0    0  501    0  0.00000000000E+00 -0.00000000000E+00 -0.95293901551E+03  0.95293901551E+03  0.25500000000E-02 0.  1.
    5000001    1    1    2    0    0 -0.70589091751E+02  0.13223861596E+03 -0.64934359975E+03  0.67085466531E+03  0.77000000000E+02 0.  0.
   -5000001    1    1    2    0    0  0.70589091751E+02 -0.13223861596E+03 -0.26859551513E+03  0.31708425091E+03  0.77000000000E+02 0.  0.
<mgrwt>
<rscale>  0 0.36525482E+03</rscale>
<asrwt>0</asrwt>
<pdfrwt beam="1">  1        2 0.13613413E+00 0.36525482E+03</pdfrwt>
<pdfrwt beam="2">  1       -2 0.49999864E-02 0.36525482E+03</pdfrwt>
<totfact> 0.61211551E+03</totfact>
</mgrwt>
</event>
<event>
 4    1  0.5121375E-004  0.1753352E+03  0.7818608E-02  0.1172396E+00
          2   -1    0    0  501    0  0.00000000000E+00  0.00000000000E+00  0.63451542837E+03  0.63451542838E+03  0.25500000000E-02 0.  1.
         -2   -1    0    0    0  501 -0.00000000000E+00 -0.00000000000E+00 -0.12112564880E+02  0.12112565148E+02  0.25500000000E-02 0. -1.
    5000001    1    1    2    0    0 -0.32942630838E+02  0.24828315800E+02  0.28386397580E+03  0.29700070530E+03  0.77000000000E+02 0.  0.
   -5000001    1    1    2    0    0  0.32942630838E+02 -0.24828315800E+02  0.33853888769E+03  0.34962728823E+03  0.77000000000E+02 0.  0.
<mgrwt>
<rscale>  0 0.17533521E+03</rscale>
<asrwt>0</asrwt>
<pdfrwt beam="1">  1        2 0.90645039E-01 0.17533521E+03</pdfrwt>
<pdfrwt beam="2">  1       -2 0.17303669E-02 0.17533521E+03</pdfrwt>
<totfact> 0.47103828E+04</totfact>
</mgrwt>
</event>
<event>
 4    1  0.5121375E-004  0.3053902E+03  0.7818608E-02  0.1082577E+00
         -2   -1    0    0    0  501 -0.00000000000E+00  0.00000000000E+00  0.20215322260E+02  0.20215322421E+02  0.25500000000E-02 0. -1.
          2   -1    0    0  501    0  0.00000000000E+00 -0.00000000000E+00 -0.11533723006E+04  0.11533723006E+04  0.25500000000E-02 0.  1.
    5000001    1    1    2    0    0 -0.98287758218E+02  0.68181748933E+02 -0.35339007842E+03  0.38094984162E+03  0.77000000000E+02 0.  0.
   -5000001    1    1    2    0    0  0.98287758218E+02 -0.68181748933E+02 -0.77976689997E+03  0.79263778145E+03  0.77000000000E+02 0.  0.
<mgrwt>
<rscale>  0 0.30539020E+03</rscale>
<asrwt>0</asrwt>
<pdfrwt beam="1">  1        2 0.16476743E+00 0.30539020E+03</pdfrwt>
<pdfrwt beam="2">  1       -2 0.28879039E-02 0.30539020E+03</pdfrwt>
<totfact> 0.10679420E+04</totfact>
</mgrwt>
</event>
<event>
 4    1  0.5121375E-004  0.2044486E+03  0.7818608E-02  0.1146039E+00
         -2   -1    0    0    0  501 -0.00000000000E+00  0.00000000000E+00  0.16617684054E+02  0.16617684250E+02  0.25500000000E-02 0.  1.
          2   -1    0    0  501    0  0.00000000000E+00 -0.00000000000E+00 -0.62883653953E+03  0.62883653953E+03  0.25500000000E-02 0. -1.
    5000001    1    1    2    0    0 -0.47390745417E+02 -0.47561372095E+02 -0.29479673247E+03  0.31199692361E+03  0.77000000000E+02 0.  0.
   -5000001    1    1    2    0    0  0.47390745417E+02  0.47561372095E+02 -0.31742212300E+03  0.33345730017E+03  0.77000000000E+02 0.  0.
<mgrwt>
<rscale>  0 0.20444860E+03</rscale>
<asrwt>0</asrwt>
<pdfrwt beam="1">  1        2 0.89833777E-01 0.20444860E+03</pdfrwt>
<pdfrwt beam="2">  1       -2 0.23739553E-02 0.20444860E+03</pdfrwt>
<totfact> 0.30369830E+04</totfact>
</mgrwt>
</event>
<event>
 4    1  0.5121375E-004  0.2026790E+03  0.7818608E-02  0.1147498E+00
         -2   -1    0    0    0  501 -0.00000000000E+00  0.00000000000E+00  0.18406228453E+02  0.18406228629E+02  0.25500000000E-02 0. -1.
          2   -1    0    0  501    0  0.00000000000E+00 -0.00000000000E+00 -0.55794684510E+03  0.55794684510E+03  0.25500000000E-02 0.  1.
    5000001    1    1    2    0    0 -0.59733082214E+02  0.94663332274E+01 -0.19545054430E+03  0.21860367756E+03  0.77000000000E+02 0.  0.
   -5000001    1    1    2    0    0  0.59733082214E+02 -0.94663332274E+01 -0.34409007234E+03  0.35774939617E+03  0.77000000000E+02 0.  0.
<mgrwt>
<rscale>  0 0.20267903E+03</rscale>
<asrwt>0</asrwt>
<pdfrwt beam="1">  1        2 0.79706682E-01 0.20267903E+03</pdfrwt>
<pdfrwt beam="2">  1       -2 0.26294616E-02 0.20267903E+03</pdfrwt>
<totfact> 0.29890382E+04</totfact>
</mgrwt>
</event>
<event>
 4    1  0.5121375E-004  0.1743415E+03  0.7818608E-02  0.1173394E+00
         -2   -1    0    0    0  501 -0.00000000000E+00  0.00000000000E+00  0.53851309548E+02  0.53851309609E+02  0.25500000000E-02 0. -1.
          2   -1    0    0  501    0  0.00000000000E+00 -0.00000000000E+00 -0.14110600764E+03  0.14110600767E+03  0.25500000000E-02 0.  1.
    5000001    1    1    2    0    0 -0.26682111969E+02  0.28872626312E+02 -0.31166033801E+02  0.91901497878E+02  0.77000000000E+02 0.  0.
   -5000001    1    1    2    0    0  0.26682111969E+02 -0.28872626312E+02 -0.56088664294E+02  0.10305581940E+03  0.77000000000E+02 0.  0.
<mgrwt>
<rscale>  0 0.17434154E+03</rscale>
<asrwt>0</asrwt>
<pdfrwt beam="1">  1        2 0.20158001E-01 0.17434154E+03</pdfrwt>
<pdfrwt beam="2">  1       -2 0.76930443E-02 0.17434154E+03</pdfrwt>
<totfact> 0.26202974E+04</totfact>
</mgrwt>
</event>
<event>
 4    1  0.5121375E-004  0.3334036E+03  0.7818608E-02  0.1069641E+00
         -2   -1    0    0    0  501 -0.00000000000E+00  0.00000000000E+00  0.97863172331E+02  0.97863172364E+02  0.25500000000E-02 0. -1.
          2   -1    0    0  501    0  0.00000000000E+00 -0.00000000000E+00 -0.28396276744E+03  0.28396276746E+03  0.25500000000E-02 0.  1.
    5000001    1    1    2    0    0  0.85488609806E+02 -0.11420623663E+03 -0.48560201024E+02  0.16922901647E+03  0.77000000000E+02 0.  0.
   -5000001    1    1    2    0    0 -0.85488609806E+02  0.11420623663E+03 -0.13753939409E+03  0.21259692335E+03  0.77000000000E+02 0.  0.
<mgrwt>
<rscale>  0 0.33340364E+03</rscale>
<asrwt>0</asrwt>
<pdfrwt beam="1">  1        2 0.40566109E-01 0.33340364E+03</pdfrwt>
<pdfrwt beam="2">  1       -2 0.13980453E-01 0.33340364E+03</pdfrwt>
<totfact> 0.48509013E+03</totfact>
</mgrwt>
</event>
<event>
 4    1  0.5121375E-004  0.1981284E+03  0.7818608E-02  0.1151328E+00
         -2   -1    0    0    0  501 -0.00000000000E+00  0.00000000000E+00  0.17467957050E+03  0.17467957052E+03  0.25500000000E-02 0. -1.
          2   -1    0    0  501    0  0.00000000000E+00 -0.00000000000E+00 -0.56181230704E+02  0.56181230762E+02  0.25500000000E-02 0.  1.
    5000001    1    1    2    0    0 -0.45896668643E+02 -0.16166000918E+02  0.10463054251E+03  0.13872416590E+03  0.77000000000E+02 0.  0.
   -5000001    1    1    2    0    0  0.45896668643E+02  0.16166000918E+02  0.13867797286E+02  0.92136635383E+02  0.77000000000E+02 0.  0.
<mgrwt>
<rscale>  0 0.19812838E+03</rscale>
<asrwt>0</asrwt>
<pdfrwt beam="1">  1        2 0.80258900E-02 0.19812838E+03</pdfrwt>
<pdfrwt beam="2">  1       -2 0.24954225E-01 0.19812838E+03</pdfrwt>
<totfact> 0.11667039E+04</totfact>
</mgrwt>
</event>
<event>
 4    1  0.5121375E-004  0.2252931E+03  0.7818608E-02  0.1129997E+00
          2   -1    0    0  501    0  0.00000000000E+00  0.00000000000E+00  0.14269947991E+03  0.14269947993E+03  0.25500000000E-02 0.  1.
         -2   -1    0    0    0  501 -0.00000000000E+00 -0.00000000000E+00 -0.88922827062E+02  0.88922827099E+02  0.25500000000E-02 0. -1.
    5000001    1    1    2    0    0 -0.74999785544E+02  0.22584101776E+02  0.11812283390E+01  0.10984263646E+03  0.77000000000E+02 0.  0.
   -5000001    1    1    2    0    0  0.74999785544E+02 -0.22584101776E+02  0.52595424511E+02  0.12177967057E+03  0.77000000000E+02 0.  0.
<mgrwt>
<rscale>  0 0.22529306E+03</rscale>
<asrwt>0</asrwt>
<pdfrwt beam="1">  1        2 0.20385640E-01 0.22529306E+03</pdfrwt>
<pdfrwt beam="2">  1       -2 0.12703261E-01 0.22529306E+03</pdfrwt>
<totfact> 0.11937988E+04</totfact>
</mgrwt>
</event>
<event>
 4    1  0.5121375E-004  0.1980150E+03  0.7818608E-02  0.1151425E+00
         -2   -1    0    0    0  501 -0.00000000000E+00  0.00000000000E+00  0.48103913097E+01  0.48103919856E+01  0.25500000000E-02 0. -1.
          2   -1    0    0  501    0  0.00000000000E+00 -0.00000000000E+00 -0.20377724405E+04  0.20377724405E+04  0.25500000000E-02 0.  1.
    5000001    1    1    2    0    0  0.47522528389E+02 -0.11359520424E+02 -0.14141291454E+04  0.14170665719E+04  0.77000000000E+02 0.  0.
   -5000001    1    1    2    0    0 -0.47522528389E+02  0.11359520424E+02 -0.61883290377E+03  0.62551626054E+03  0.77000000000E+02 0.  0.
<mgrwt>
<rscale>  0 0.19801498E+03</rscale>
<asrwt>0</asrwt>
<pdfrwt beam="1">  1        2 0.29110980E+00 0.19801498E+03</pdfrwt>
<pdfrwt beam="2">  1       -2 0.68720011E-03 0.19801498E+03</pdfrwt>
<totfact> 0.30610114E+04</totfact>
</mgrwt>
</event>
<event>
 4    1  0.5121375E-004  0.2278415E+03  0.7818608E-02  0.1128168E+00
          2   -1    0    0  501    0  0.00000000000E+00  0.00000000000E+00  0.67968696535E+02  0.67968696583E+02  0.25500000000E-02 0.  1.
         -2   -1    0    0    0  501 -0.00000000000E+00 -0.00000000000E+00 -0.19093996043E+03  0.19093996045E+03  0.25500000000E-02 0. -1.
    5000001    1    1    2    0    0  0.19111297550E+02  0.68951659862E+02 -0.11139948896E+03  0.15316141561E+03  0.77000000000E+02 0.  0.
   -5000001    1    1    2    0    0 -0.19111297550E+02 -0.68951659862E+02 -0.11571774931E+02  0.10574724141E+03  0.77000000000E+02 0.  0.
<mgrwt>
<rscale>  0 0.22784153E+03</rscale>
<asrwt>0</asrwt>
<pdfrwt beam="1">  1        2 0.97098139E-02 0.22784153E+03</pdfrwt>
<pdfrwt beam="2">  1       -2 0.27277137E-01 0.22784153E+03</pdfrwt>
<totfact> 0.79203523E+03</totfact>
</mgrwt>
</event>
<event>
 4    1  0.5121375E-004  0.2707637E+03  0.7818608E-02  0.1100843E+00
         -2   -1    0    0    0  501 -0.00000000000E+00  0.00000000000E+00  0.10024024092E+03  0.10024024095E+03  0.25500000000E-02 0. -1.
          2   -1    0    0  501    0  0.00000000000E+00 -0.00000000000E+00 -0.18284313249E+03  0.18284313251E+03  0.25500000000E-02 0.  1.
    5000001    1    1    2    0    0 -0.55054544166E+02 -0.17257766824E+02  0.58270583934E+02  0.11248686279E+03  0.77000000000E+02 0.  0.
   -5000001    1    1    2    0    0  0.55054544166E+02  0.17257766824E+02 -0.14087347551E+03  0.17059651067E+03  0.77000000000E+02 0.  0.
<mgrwt>
<rscale>  0 0.27076366E+03</rscale>
<asrwt>0</asrwt>
<pdfrwt beam="1">  1        2 0.26120447E-01 0.27076366E+03</pdfrwt>
<pdfrwt beam="2">  1       -2 0.14320035E-01 0.27076366E+03</pdfrwt>
<totfact> 0.74989210E+03</totfact>
</mgrwt>
</event>
<event>
 4    1  0.5121375E-004  0.2089551E+03  0.7818608E-02  0.1142396E+00
          2   -1    0    0  501    0  0.00000000000E+00  0.00000000000E+00  0.90313967440E+03  0.90313967441E+03  0.25500000000E-02 0.  1.
         -2   -1    0    0    0  501 -0.00000000000E+00 -0.00000000000E+00 -0.12086229707E+02  0.12086229976E+02  0.25500000000E-02 0. -1.
    5000001    1    1    2    0    0 -0.16024161552E+02  0.26463586221E+02  0.16749217114E+03  0.18692170164E+03  0.77000000000E+02 0.  0.
   -5000001    1    1    2    0    0  0.16024161552E+02 -0.26463586221E+02  0.72356127356E+03  0.72830420275E+03  0.77000000000E+02 0.  0.
<mgrwt>
<rscale>  0 0.20895505E+03</rscale>
<asrwt>0</asrwt>
<pdfrwt beam="1">  1        2 0.12901995E+00 0.20895505E+03</pdfrwt>
<pdfrwt beam="2">  1       -2 0.17266043E-02 0.20895505E+03</pdfrwt>
<totfact> 0.31309218E+04</totfact>
</mgrwt>
</event>
<event>
 4    1  0.5121375E-004  0.3689643E+03  0.7818608E-02  0.1055090E+00
          2   -1    0    0  501    0  0.00000000000E+00  0.00000000000E+00  0.89491256376E+03  0.89491256376E+03  0.25500000000E-02 0. -1.
         -2   -1    0    0    0  501 -0.00000000000E+00 -0.00000000000E+00 -0.38030159595E+02  0.38030159681E+02  0.25500000000E-02 0.  1.
    5000001    1    1    2    0    0  0.65310015499E+02 -0.15373224283E+03  0.46470330389E+03  0.49977711158E+03  0.77000000000E+02 0.  0.
   -5000001    1    1    2    0    0 -0.65310015499E+02  0.15373224283E+03  0.39217910028E+03  0.43316561187E+03  0.77000000000E+02 0.  0.
<mgrwt>
<rscale>  0 0.36896432E+03</rscale>
<asrwt>0</asrwt>
<pdfrwt beam="1">  1        2 0.12784466E+00 0.36896432E+03</pdfrwt>
<pdfrwt beam="2">  1       -2 0.54328795E-02 0.36896432E+03</pdfrwt>
<totfact> 0.58581586E+03</totfact>
</mgrwt>
</event>
<event>
 4    1  0.5121375E-004  0.3680711E+03  0.7818608E-02  0.1055433E+00
          2   -1    0    0  501    0  0.00000000000E+00  0.00000000000E+00  0.64612295722E+03  0.64612295723E+03  0.25500000000E-02 0.  1.
         -2   -1    0    0    0  501 -0.00000000000E+00 -0.00000000000E+00 -0.52418948603E+02  0.52418948665E+02  0.25500000000E-02 0. -1.
    5000001    1    1    2    0    0 -0.19507014110E+02  0.14109924003E+03  0.13085221354E+03  0.20818458378E+03  0.77000000000E+02 0.  0.
   -5000001    1    1    2    0    0  0.19507014110E+02 -0.14109924003E+03  0.46285179508E+03  0.49035732211E+03  0.77000000000E+02 0.  0.
<mgrwt>
<rscale>  0 0.36807111E+03</rscale>
<asrwt>0</asrwt>
<pdfrwt beam="1">  1        2 0.92303268E-01 0.36807111E+03</pdfrwt>
<pdfrwt beam="2">  1       -2 0.74884222E-02 0.36807111E+03</pdfrwt>
<totfact> 0.53232840E+03</totfact>
</mgrwt>
</event>
<event>
 4    1  0.5121375E-004  0.3230764E+03  0.7818608E-02  0.1074242E+00
         -2   -1    0    0    0  501 -0.00000000000E+00  0.00000000000E+00  0.19731752572E+02  0.19731752737E+02  0.25500000000E-02 0. -1.
          2   -1    0    0  501    0  0.00000000000E+00 -0.00000000000E+00 -0.13224669867E+04  0.13224669867E+04  0.25500000000E-02 0.  1.
    5000001    1    1    2    0    0  0.45653306462E+02  0.13260553814E+03 -0.55873792712E+03  0.58119319021E+03  0.77000000000E+02 0.  0.
   -5000001    1    1    2    0    0 -0.45653306462E+02 -0.13260553814E+03 -0.74399730703E+03  0.76100554926E+03  0.77000000000E+02 0.  0.
<mgrwt>
<rscale>  0 0.32307641E+03</rscale>
<asrwt>0</asrwt>
<pdfrwt beam="1">  1        2 0.18892380E+00 0.32307641E+03</pdfrwt>
<pdfrwt beam="2">  1       -2 0.28188227E-02 0.32307641E+03</pdfrwt>
<totfact> 0.89858361E+03</totfact>
</mgrwt>
</event>
<event>
 4    1  0.5121375E-004  0.3442839E+03  0.7818608E-02  0.1064986E+00
         -2   -1    0    0    0  501 -0.00000000000E+00  0.00000000000E+00  0.14701034962E+04  0.14701034962E+04  0.25500000000E-02 0. -1.
          2   -1    0    0  501    0  0.00000000000E+00 -0.00000000000E+00 -0.20156981503E+02  0.20156981664E+02  0.25500000000E-02 0.  1.
    5000001    1    1    2    0    0 -0.81528866536E+02 -0.11234633216E+03  0.43670167825E+03  0.46465687363E+03  0.77000000000E+02 0.  0.
   -5000001    1    1    2    0    0  0.81528866536E+02  0.11234633216E+03  0.10132448365E+04  0.10256036043E+04  0.77000000000E+02 0.  0.
<mgrwt>
<rscale>  0 0.34428389E+03</rscale>
<asrwt>0</asrwt>
<pdfrwt beam="1">  1        2 0.28795672E-02 0.34428389E+03</pdfrwt>
<pdfrwt beam="2">  1       -2 0.21001490E+00 0.34428389E+03</pdfrwt>
<totfact> 0.41459768E+02</totfact>
</mgrwt>
</event>
<event>
 4    1  0.5121375E-004  0.3274785E+03  0.7818608E-02  0.1072258E+00
         -2   -1    0    0    0  501 -0.00000000000E+00  0.00000000000E+00  0.15419327995E+03  0.15419327997E+03  0.25500000000E-02 0. -1.
          2   -1    0    0  501    0  0.00000000000E+00 -0.00000000000E+00 -0.17387616420E+03  0.17387616422E+03  0.25500000000E-02 0.  1.
    5000001    1    1    2    0    0 -0.86734586359E+02 -0.87082165326E+01  0.10561763802E+03  0.15710762861E+03  0.77000000000E+02 0.  0.
   -5000001    1    1    2    0    0  0.86734586359E+02  0.87082165326E+01 -0.12530052227E+03  0.17096181558E+03  0.77000000000E+02 0.  0.
<mgrwt>
<rscale>  0 0.32747846E+03</rscale>
<asrwt>0</asrwt>
<pdfrwt beam="1">  1        2 0.24839452E-01 0.32747846E+03</pdfrwt>
<pdfrwt beam="2">  1       -2 0.22027612E-01 0.32747846E+03</pdfrwt>
<totfact> 0.38574133E+03</totfact>
</mgrwt>
</event>
<event>
 4    1  0.5121375E-004  0.2440858E+03  0.7818608E-02  0.1117101E+00
          2   -1    0    0  501    0  0.00000000000E+00  0.00000000000E+00  0.26482341483E+04  0.26482341483E+04  0.25500000000E-02 0.  1.
         -2   -1    0    0    0  501 -0.00000000000E+00 -0.00000000000E+00 -0.56243021927E+01  0.56243027707E+01  0.25500000000E-02 0. -1.
    5000001    1    1    2    0    0 -0.75838403420E+02 -0.47343570061E+02  0.16603838243E+04  0.16645709120E+04  0.77000000000E+02 0.  0.
   -5000001    1    1    2    0    0  0.75838403420E+02  0.47343570061E+02  0.98222602182E+03  0.98928753909E+03  0.77000000000E+02 0.  0.
<mgrwt>
<rscale>  0 0.24408580E+03</rscale>
<asrwt>0</asrwt>
<pdfrwt beam="1">  1        2 0.37831993E+00 0.24408580E+03</pdfrwt>
<pdfrwt beam="2">  1       -2 0.80347017E-03 0.24408580E+03</pdfrwt>
<totfact> 0.12349019E+04</totfact>
</mgrwt>
</event>
<event>
 4    1  0.5121375E-004  0.3033497E+03  0.7818608E-02  0.1083578E+00
          2   -1    0    0  501    0  0.00000000000E+00  0.00000000000E+00  0.55621090101E+03  0.55621090102E+03  0.25500000000E-02 0.  1.
         -2   -1    0    0    0  501 -0.00000000000E+00 -0.00000000000E+00 -0.41360690835E+02  0.41360690914E+02  0.25500000000E-02 0. -1.
    5000001    1    1    2    0    0  0.11644948446E+03  0.59280005337E+02  0.25488271788E+03  0.29659534949E+03  0.77000000000E+02 0.  0.
   -5000001    1    1    2    0    0 -0.11644948446E+03 -0.59280005337E+02  0.25996749229E+03  0.30097624244E+03  0.77000000000E+02 0.  0.
<mgrwt>
<rscale>  0 0.30334975E+03</rscale>
<asrwt>0</asrwt>
<pdfrwt beam="1">  1        2 0.79458698E-01 0.30334975E+03</pdfrwt>
<pdfrwt beam="2">  1       -2 0.59086702E-02 0.30334975E+03</pdfrwt>
<totfact> 0.90863792E+03</totfact>
</mgrwt>
</event>
<event>
 4    1  0.5121375E-004  0.2504326E+03  0.7818608E-02  0.1113032E+00
          2   -1    0    0  501    0  0.00000000000E+00  0.00000000000E+00  0.35760936872E+03  0.35760936873E+03  0.25500000000E-02 0.  1.
         -2   -1    0    0    0  501 -0.00000000000E+00 -0.00000000000E+00 -0.43844273843E+02  0.43844273917E+02  0.25500000000E-02 0. -1.
    5000001    1    1    2    0    0 -0.72574698461E+02  0.66496197161E+02  0.14433246816E+03  0.19091802550E+03  0.77000000000E+02 0.  0.
   -5000001    1    1    2    0    0  0.72574698461E+02 -0.66496197161E+02  0.16943262672E+03  0.21053561715E+03  0.77000000000E+02 0.  0.
<mgrwt>
<rscale>  0 0.25043261E+03</rscale>
<asrwt>0</asrwt>
<pdfrwt beam="1">  1        2 0.51087050E-01 0.25043261E+03</pdfrwt>
<pdfrwt beam="2">  1       -2 0.62634681E-02 0.25043261E+03</pdfrwt>
<totfact> 0.13363742E+04</totfact>
</mgrwt>
</event>
<event>
 4    1  0.5121375E-004  0.2343569E+03  0.7818608E-02  0.1123610E+00
         -2   -1    0    0    0  501 -0.00000000000E+00  0.00000000000E+00  0.99875511406E+03  0.99875511406E+03  0.25500000000E-02 0. -1.
          2   -1    0    0  501    0  0.00000000000E+00 -0.00000000000E+00 -0.13747901003E+02  0.13747901240E+02  0.25500000000E-02 0.  1.
    5000001    1    1    2    0    0 -0.21134547361E+02 -0.53149739765E+02  0.78329288775E+03  0.78914403750E+03  0.77000000000E+02 0.  0.
   -5000001    1    1    2    0    0  0.21134547361E+02  0.53149739765E+02  0.20171432531E+03  0.22335897780E+03  0.77000000000E+02 0.  0.
<mgrwt>
<rscale>  0 0.23435688E+03</rscale>
<asrwt>0</asrwt>
<pdfrwt beam="1">  1        2 0.19639858E-02 0.23435688E+03</pdfrwt>
<pdfrwt beam="2">  1       -2 0.14267931E+00 0.23435688E+03</pdfrwt>
<totfact> 0.20106617E+03</totfact>
</mgrwt>
</event>
<event>
 4    1  0.5121375E-004  0.2206378E+03  0.7818608E-02  0.1133408E+00
         -2   -1    0    0    0  501 -0.00000000000E+00  0.00000000000E+00  0.30507000293E+02  0.30507000399E+02  0.25500000000E-02 0. -1.
          2   -1    0    0  501    0  0.00000000000E+00 -0.00000000000E+00 -0.39893321893E+03  0.39893321893E+03  0.25500000000E-02 0.  1.
    5000001    1    1    2    0    0  0.65580967503E+02 -0.22083643907E+02 -0.25839734309E+03  0.27836439704E+03  0.77000000000E+02 0.  0.
   -5000001    1    1    2    0    0 -0.65580967503E+02  0.22083643907E+02 -0.11002887555E+03  0.15107582229E+03  0.77000000000E+02 0.  0.
<mgrwt>
<rscale>  0 0.22063777E+03</rscale>
<asrwt>0</asrwt>
<pdfrwt beam="1">  1        2 0.56990457E-01 0.22063777E+03</pdfrwt>
<pdfrwt beam="2">  1       -2 0.43581432E-02 0.22063777E+03</pdfrwt>
<totfact> 0.20456734E+04</totfact>
</mgrwt>
</event>
<event>
 4    1  0.5121375E-004  0.3099400E+03  0.7818608E-02  0.1080375E+00
          2   -1    0    0  501    0  0.00000000000E+00  0.00000000000E+00  0.57737920944E+04  0.57737920944E+04  0.25500000000E-02 0. -1.
         -2   -1    0    0    0  501 -0.00000000000E+00 -0.00000000000E+00 -0.41594318532E+01  0.41594326348E+01  0.25500000000E-02 0.  1.
    5000001    1    1    2    0    0  0.67696016994E+01 -0.12047713521E+03  0.39918107295E+04  0.39943763553E+04  0.77000000000E+02 0.  0.
   -5000001    1    1    2    0    0 -0.67696016994E+01  0.12047713521E+03  0.17778219330E+04  0.17835751717E+04  0.77000000000E+02 0.  0.
<mgrwt>
<rscale>  0 0.30993997E+03</rscale>
<asrwt>0</asrwt>
<pdfrwt beam="1">  1        2 0.82483208E+00 0.30993997E+03</pdfrwt>
<pdfrwt beam="2">  1       -2 0.59420127E-03 0.30993997E+03</pdfrwt>
<totfact> 0.72740399E+01</totfact>
</mgrwt>
</event>
<event>
 4    1  0.5121375E-004  0.1737146E+03  0.7818608E-02  0.1174029E+00
         -2   -1    0    0    0  501 -0.00000000000E+00  0.00000000000E+00  0.22785520978E+02  0.22785521120E+02  0.25500000000E-02 0. -1.
          2   -1    0    0  501    0  0.00000000000E+00 -0.00000000000E+00 -0.33109588724E+03  0.33109588725E+03  0.25500000000E-02 0.  1.
    5000001    1    1    2    0    0 -0.32605331308E+02 -0.22905205830E+02 -0.16482565373E+03  0.18623708603E+03  0.77000000000E+02 0.  0.
   -5000001    1    1    2    0    0  0.32605331308E+02  0.22905205830E+02 -0.14348471253E+03  0.16764432234E+03  0.77000000000E+02 0.  0.
<mgrwt>
<rscale>  0 0.17371462E+03</rscale>
<asrwt>0</asrwt>
<pdfrwt beam="1">  1        2 0.47299410E-01 0.17371462E+03</pdfrwt>
<pdfrwt beam="2">  1       -2 0.32550746E-02 0.17371462E+03</pdfrwt>
<totfact> 0.37860050E+04</totfact>
</mgrwt>
</event>
<event>
 4    1  0.5121375E-004  0.2378014E+03  0.7818608E-02  0.1121266E+00
         -2   -1    0    0    0  501 -0.00000000000E+00  0.00000000000E+00  0.12306760590E+02  0.12306760854E+02  0.25500000000E-02 0. -1.
          2   -1    0    0  501    0  0.00000000000E+00 -0.00000000000E+00 -0.11487490673E+04  0.11487490673E+04  0.25500000000E-02 0.  1.
    5000001    1    1    2    0    0  0.83908902721E+02  0.69943842508E+01 -0.73152862218E+03  0.74037338582E+03  0.77000000000E+02 0.  0.
   -5000001    1    1    2    0    0 -0.83908902721E+02 -0.69943842508E+01 -0.40491368451E+03  0.42068244231E+03  0.77000000000E+02 0.  0.
<mgrwt>
<rscale>  0 0.23780143E+03</rscale>
<asrwt>0</asrwt>
<pdfrwt beam="1">  1        2 0.16410694E+00 0.23780143E+03</pdfrwt>
<pdfrwt beam="2">  1       -2 0.17581094E-02 0.23780143E+03</pdfrwt>
<totfact> 0.22131402E+04</totfact>
</mgrwt>
</event>
<event>
 4    1  0.5121375E-004  0.2795336E+03  0.7818608E-02  0.1095944E+00
          2   -1    0    0  501    0  0.00000000000E+00  0.00000000000E+00  0.81280950708E+02  0.81280950748E+02  0.25500000000E-02 0.  1.
         -2   -1    0    0    0  501 -0.00000000000E+00 -0.00000000000E+00 -0.24033622487E+03  0.24033622489E+03  0.25500000000E-02 0. -1.
    5000001    1    1    2    0    0 -0.81111033952E+02  0.73370946921E+02 -0.32884800144E+02  0.13774144533E+03  0.77000000000E+02 0.  0.
   -5000001    1    1    2    0    0  0.81111033952E+02 -0.73370946921E+02 -0.12617047402E+03  0.18387573031E+03  0.77000000000E+02 0.  0.
<mgrwt>
<rscale>  0 0.27953359E+03</rscale>
<asrwt>0</asrwt>
<pdfrwt beam="1">  1        2 0.11611565E-01 0.27953359E+03</pdfrwt>
<pdfrwt beam="2">  1       -2 0.34333746E-01 0.27953359E+03</pdfrwt>
<totfact> 0.42174199E+03</totfact>
</mgrwt>
</event>
<event>
 4    1  0.5121375E-004  0.3107676E+03  0.7818608E-02  0.1079979E+00
         -2   -1    0    0    0  501 -0.00000000000E+00  0.00000000000E+00  0.40351208521E+02  0.40351208602E+02  0.25500000000E-02 0. -1.
          2   -1    0    0  501    0  0.00000000000E+00 -0.00000000000E+00 -0.59834951494E+03  0.59834951495E+03  0.25500000000E-02 0.  1.
    5000001    1    1    2    0    0 -0.72097777782E+02  0.33800299127E+02 -0.50295929224E+03  0.51501223232E+03  0.77000000000E+02 0.  0.
   -5000001    1    1    2    0    0  0.72097777782E+02 -0.33800299127E+02 -0.55039014182E+02  0.12368849124E+03  0.77000000000E+02 0.  0.
<mgrwt>
<rscale>  0 0.31076760E+03</rscale>
<asrwt>0</asrwt>
<pdfrwt beam="1">  1        2 0.85478497E-01 0.31076760E+03</pdfrwt>
<pdfrwt beam="2">  1       -2 0.57644587E-02 0.31076760E+03</pdfrwt>
<totfact> 0.86925593E+03</totfact>
</mgrwt>
</event>
<event>
 4    1  0.5121375E-004  0.2049540E+03  0.7818608E-02  0.1145625E+00
         -2   -1    0    0    0  501 -0.00000000000E+00  0.00000000000E+00  0.15134262114E+02  0.15134262329E+02  0.25500000000E-02 0. -1.
          2   -1    0    0  501    0  0.00000000000E+00 -0.00000000000E+00 -0.69389149869E+03  0.69389149869E+03  0.25500000000E-02 0.  1.
    5000001    1    1    2    0    0  0.58951965308E+02 -0.29369598303E+02 -0.39236885738E+03  0.40524095025E+03  0.77000000000E+02 0.  0.
   -5000001    1    1    2    0    0 -0.58951965308E+02  0.29369598303E+02 -0.28638837920E+03  0.30378481078E+03  0.77000000000E+02 0.  0.
<mgrwt>
<rscale>  0 0.20495400E+03</rscale>
<asrwt>0</asrwt>
<pdfrwt beam="1">  1        2 0.99127337E-01 0.20495400E+03</pdfrwt>
<pdfrwt beam="2">  1       -2 0.21620379E-02 0.20495400E+03</pdfrwt>
<totfact> 0.31087014E+04</totfact>
</mgrwt>
</event>
<event>
 4    1  0.5121375E-004  0.2612292E+03  0.7818608E-02  0.1106407E+00
          2   -1    0    0  501    0  0.00000000000E+00  0.00000000000E+00  0.14507410023E+04  0.14507410023E+04  0.25500000000E-02 0.  1.
         -2   -1    0    0    0  501 -0.00000000000E+00 -0.00000000000E+00 -0.11759628289E+02  0.11759628566E+02  0.25500000000E-02 0. -1.
    5000001    1    1    2    0    0  0.10256444257E+03  0.23272621357E+02  0.76636327450E+03  0.77736911972E+03  0.77000000000E+02 0.  0.
   -5000001    1    1    2    0    0 -0.10256444257E+03 -0.23272621357E+02  0.67261809948E+03  0.68513151113E+03  0.77000000000E+02 0.  0.
<mgrwt>
<rscale>  0 0.26122921E+03</rscale>
<asrwt>0</asrwt>
<pdfrwt beam="1">  1        2 0.20724879E+00 0.26122921E+03</pdfrwt>
<pdfrwt beam="2">  1       -2 0.16799463E-02 0.26122921E+03</pdfrwt>
<totfact> 0.16470002E+04</totfact>
</mgrwt>
</event>
<event>
 4    1  0.5121375E-004  0.4165631E+03  0.7818608E-02  0.1038191E+00
         -2   -1    0    0    0  501 -0.00000000000E+00  0.00000000000E+00  0.96258458677E+02  0.96258458711E+02  0.25500000000E-02 0. -1.
          2   -1    0    0  501    0  0.00000000000E+00 -0.00000000000E+00 -0.45067424513E+03  0.45067424513E+03  0.25500000000E-02 0.  1.
    5000001    1    1    2    0    0  0.17218938544E+02  0.18573103664E+03 -0.24492045909E+03  0.31734451484E+03  0.77000000000E+02 0.  0.
   -5000001    1    1    2    0    0 -0.17218938544E+02 -0.18573103664E+03 -0.10949532736E+03  0.22958818901E+03  0.77000000000E+02 0.  0.
<mgrwt>
<rscale>  0 0.41656312E+03</rscale>
<asrwt>0</asrwt>
<pdfrwt beam="1">  1        2 0.64382034E-01 0.41656312E+03</pdfrwt>
<pdfrwt beam="2">  1       -2 0.13751209E-01 0.41656312E+03</pdfrwt>
<totfact> 0.30257153E+03</totfact>
</mgrwt>
</event>
<event>
 4    1  0.5121375E-004  0.1909373E+03  0.7818608E-02  0.1157619E+00
          2   -1    0    0  501    0  0.00000000000E+00  0.00000000000E+00  0.22957771459E+03  0.22957771460E+03  0.25500000000E-02 0.  1.
         -2   -1    0    0    0  501 -0.00000000000E+00 -0.00000000000E+00 -0.39700133502E+02  0.39700133584E+02  0.25500000000E-02 0. -1.
    5000001    1    1    2    0    0  0.28303579366E+02  0.40141499348E+02  0.13414480663E+03  0.16228450856E+03  0.77000000000E+02 0.  0.
   -5000001    1    1    2    0    0 -0.28303579366E+02 -0.40141499348E+02  0.55732774459E+02  0.10699333962E+03  0.77000000000E+02 0.  0.
<mgrwt>
<rscale>  0 0.19093733E+03</rscale>
<asrwt>0</asrwt>
<pdfrwt beam="1">  1        2 0.32796816E-01 0.19093733E+03</pdfrwt>
<pdfrwt beam="2">  1       -2 0.56714477E-02 0.19093733E+03</pdfrwt>
<totfact> 0.24592571E+04</totfact>
</mgrwt>
</event>
<event>
 4    1  0.5121375E-004  0.2171833E+03  0.7818608E-02  0.1136001E+00
          2   -1    0    0  501    0  0.00000000000E+00  0.00000000000E+00  0.21920713451E+04  0.21920713451E+04  0.25500000000E-02 0.  1.
         -2   -1    0    0    0  501 -0.00000000000E+00 -0.00000000000E+00 -0.53794553032E+01  0.53794559076E+01  0.25500000000E-02 0. -1.
    5000001    1    1    2    0    0  0.55267365647E+02 -0.52024555631E+02  0.11955895467E+04  0.12004684087E+04  0.77000000000E+02 0.  0.
   -5000001    1    1    2    0    0 -0.55267365647E+02  0.52024555631E+02  0.99110234307E+03  0.99698239229E+03  0.77000000000E+02 0.  0.
<mgrwt>
<rscale>  0 0.21718334E+03</rscale>
<asrwt>0</asrwt>
<pdfrwt beam="1">  1        2 0.31315367E+00 0.21718334E+03</pdfrwt>
<pdfrwt beam="2">  1       -2 0.76849214E-03 0.21718334E+03</pdfrwt>
<totfact> 0.22044621E+04</totfact>
</mgrwt>
</event>
<event>
 4    1  0.5121375E-004  0.2624328E+03  0.7818608E-02  0.1105690E+00
         -2   -1    0    0    0  501 -0.00000000000E+00  0.00000000000E+00  0.15340800070E+02  0.15340800282E+02  0.25500000000E-02 0. -1.
          2   -1    0    0  501    0  0.00000000000E+00 -0.00000000000E+00 -0.11223498454E+04  0.11223498454E+04  0.25500000000E-02 0.  1.
    5000001    1    1    2    0    0  0.62029611198E+02 -0.84031998159E+02 -0.63797864463E+03  0.65104132003E+03  0.77000000000E+02 0.  0.
   -5000001    1    1    2    0    0 -0.62029611198E+02  0.84031998159E+02 -0.46903040065E+03  0.48664932561E+03  0.77000000000E+02 0.  0.
<mgrwt>
<rscale>  0 0.26243281E+03</rscale>
<asrwt>0</asrwt>
<pdfrwt beam="1">  1        2 0.16033564E+00 0.26243281E+03</pdfrwt>
<pdfrwt beam="2">  1       -2 0.21915436E-02 0.26243281E+03</pdfrwt>
<totfact> 0.16638312E+04</totfact>
</mgrwt>
</event>
<event>
 4    1  0.5121375E-004  0.3054196E+03  0.7818608E-02  0.1082562E+00
          2   -1    0    0  501    0  0.00000000000E+00  0.00000000000E+00  0.62528144096E+03  0.62528144097E+03  0.25500000000E-02 0.  1.
         -2   -1    0    0    0  501 -0.00000000000E+00 -0.00000000000E+00 -0.37295651737E+02  0.37295651824E+02  0.25500000000E-02 0. -1.
    5000001    1    1    2    0    0  0.61931810750E+02 -0.97966364459E+02  0.43048108142E+03  0.45241122798E+03  0.77000000000E+02 0.  0.
   -5000001    1    1    2    0    0 -0.61931810750E+02  0.97966364459E+02  0.15750470781E+03  0.21016586481E+03  0.77000000000E+02 0.  0.
<mgrwt>
<rscale>  0 0.30541957E+03</rscale>
<asrwt>0</asrwt>
<pdfrwt beam="1">  1        2 0.89325918E-01 0.30541957E+03</pdfrwt>
<pdfrwt beam="2">  1       -2 0.53279504E-02 0.30541957E+03</pdfrwt>
<totfact> 0.93167716E+03</totfact>
</mgrwt>
</event>
<event>
 4    1  0.5121375E-004  0.2714190E+03  0.7818608E-02  0.1100470E+00
         -2   -1    0    0    0  501 -0.00000000000E+00  0.00000000000E+00  0.33442501794E+01  0.33442511516E+01  0.25500000000E-02 0. -1.
          2   -1    0    0  501    0  0.00000000000E+00 -0.00000000000E+00 -0.55070844285E+04  0.55070844285E+04  0.25500000000E-02 0.  1.
    5000001    1    1    2    0    0  0.46483828676E+02  0.10161046134E+03 -0.27188915992E+04  0.27222758788E+04  0.77000000000E+02 0.  0.
   -5000001    1    1    2    0    0 -0.46483828676E+02 -0.10161046134E+03 -0.27848485791E+04  0.27881528008E+04  0.77000000000E+02 0.  0.
<mgrwt>
<rscale>  0 0.27141902E+03</rscale>
<asrwt>0</asrwt>
<pdfrwt beam="1">  1        2 0.78672053E+00 0.27141902E+03</pdfrwt>
<pdfrwt beam="2">  1       -2 0.47775363E-03 0.27141902E+03</pdfrwt>
<totfact> 0.22707762E+02</totfact>
</mgrwt>
</event>
<event>
 4    1  0.5121375E-004  0.2475901E+03  0.7818608E-02  0.1114837E+00
         -2   -1    0    0    0  501 -0.00000000000E+00  0.00000000000E+00  0.84665179426E+01  0.84665183267E+01  0.25500000000E-02 0. -1.
          2   -1    0    0  501    0  0.00000000000E+00 -0.00000000000E+00 -0.18100966326E+04  0.18100966326E+04  0.25500000000E-02 0.  1.
    5000001    1    1    2    0    0  0.73398443274E+02 -0.52532720103E+02 -0.11604186491E+04  0.11664679419E+04  0.77000000000E+02 0.  0.
   -5000001    1    1    2    0    0 -0.73398443274E+02  0.52532720103E+02 -0.64121146554E+03  0.65209520907E+03  0.77000000000E+02 0.  0.
<mgrwt>
<rscale>  0 0.24759011E+03</rscale>
<asrwt>0</asrwt>
<pdfrwt beam="1">  1        2 0.25858499E+00 0.24759011E+03</pdfrwt>
<pdfrwt beam="2">  1       -2 0.12095037E-02 0.24759011E+03</pdfrwt>
<totfact> 0.17609729E+04</totfact>
</mgrwt>
</event>
<event>
 4    1  0.5121375E-004  0.1910227E+03  0.7818608E-02  0.1157542E+00
          2   -1    0    0  501    0  0.00000000000E+00  0.00000000000E+00  0.27728834832E+02  0.27728834950E+02  0.25500000000E-02 0.  1.
         -2   -1    0    0    0  501 -0.00000000000E+00 -0.00000000000E+00 -0.32898656414E+03  0.32898656415E+03  0.25500000000E-02 0. -1.
    5000001    1    1    2    0    0  0.42913929149E+02  0.35420059497E+02 -0.13221550332E+03  0.16280701842E+03  0.77000000000E+02 0.  0.
   -5000001    1    1    2    0    0 -0.42913929149E+02 -0.35420059497E+02 -0.16904222599E+03  0.19390838068E+03  0.77000000000E+02 0.  0.
<mgrwt>
<rscale>  0 0.19102266E+03</rscale>
<asrwt>0</asrwt>
<pdfrwt beam="1">  1        2 0.39612623E-02 0.19102266E+03</pdfrwt>
<pdfrwt beam="2">  1       -2 0.46998078E-01 0.19102266E+03</pdfrwt>
<totfact> 0.90315635E+03</totfact>
</mgrwt>
</event>
<event>
 4    1  0.5121375E-004  0.3625004E+03  0.7818608E-02  0.1057598E+00
          2   -1    0    0  501    0  0.00000000000E+00  0.00000000000E+00  0.28355593080E+04  0.28355593080E+04  0.25500000000E-02 0.  1.
         -2   -1    0    0    0  501 -0.00000000000E+00 -0.00000000000E+00 -0.11585592693E+02  0.11585592974E+02  0.25500000000E-02 0. -1.
    5000001    1    1    2    0    0 -0.14711746343E+03 -0.44843298826E+02  0.96297983150E+03  0.97821962022E+03  0.77000000000E+02 0.  0.
   -5000001    1    1    2    0    0  0.14711746343E+03  0.44843298826E+02  0.18609938838E+04  0.18689252807E+04  0.77000000000E+02 0.  0.
<mgrwt>
<rscale>  0 0.36250040E+03</rscale>
<asrwt>0</asrwt>
<pdfrwt beam="1">  1        2 0.40508037E+00 0.36250040E+03</pdfrwt>
<pdfrwt beam="2">  1       -2 0.16550828E-02 0.36250040E+03</pdfrwt>
<totfact> 0.34391599E+03</totfact>
</mgrwt>
</event>
<event>
 4    1  0.5121375E-004  0.1996788E+03  0.7818608E-02  0.1150010E+00
         -2   -1    0    0    0  501 -0.00000000000E+00  0.00000000000E+00  0.13644026728E+04  0.13644026728E+04  0.25500000000E-02 0. -1.
          2   -1    0    0  501    0  0.00000000000E+00 -0.00000000000E+00 -0.73056915866E+01  0.73056920316E+01  0.25500000000E-02 0.  1.
    5000001    1    1    2    0    0 -0.33819292775E+02 -0.53654235546E+02  0.65074251138E+03  0.65834439138E+03  0.77000000000E+02 0.  0.
   -5000001    1    1    2    0    0  0.33819292775E+02  0.53654235546E+02  0.70635446983E+03  0.71336397344E+03  0.77000000000E+02 0.  0.
<mgrwt>
<rscale>  0 0.19967880E+03</rscale>
<asrwt>0</asrwt>
<pdfrwt beam="1">  1        2 0.10436705E-02 0.19967880E+03</pdfrwt>
<pdfrwt beam="2">  1       -2 0.19491463E+00 0.19967880E+03</pdfrwt>
<totfact> 0.20769627E+03</totfact>
</mgrwt>
</event>
<event>
 4    1  0.5121375E-004  0.2222732E+03  0.7818608E-02  0.1132200E+00
          2   -1    0    0  501    0  0.00000000000E+00  0.00000000000E+00  0.18229961179E+03  0.18229961181E+03  0.25500000000E-02 0.  1.
         -2   -1    0    0    0  501 -0.00000000000E+00 -0.00000000000E+00 -0.67752983601E+02  0.67752983649E+02  0.25500000000E-02 0. -1.
    5000001    1    1    2    0    0 -0.50249692747E+02 -0.37185279294E+02  0.11368587379E+03  0.15086833504E+03  0.77000000000E+02 0.  0.
   -5000001    1    1    2    0    0  0.50249692747E+02  0.37185279294E+02  0.86075440115E+00  0.99184260422E+02  0.77000000000E+02 0.  0.
<mgrwt>
<rscale>  0 0.22227319E+03</rscale>
<asrwt>0</asrwt>
<pdfrwt beam="1">  1        2 0.26042802E-01 0.22227319E+03</pdfrwt>
<pdfrwt beam="2">  1       -2 0.96789977E-02 0.22227319E+03</pdfrwt>
<totfact> 0.13991214E+04</totfact>
</mgrwt>
</event>
<event>
 4    1  0.5121375E-004  0.2626389E+03  0.7818608E-02  0.1105568E+00
          2   -1    0    0  501    0  0.00000000000E+00  0.00000000000E+00  0.15228531501E+04  0.15228531501E+04  0.25500000000E-02 0.  1.
         -2   -1    0    0    0  501 -0.00000000000E+00 -0.00000000000E+00 -0.11324004558E+02  0.11324004846E+02  0.25500000000E-02 0. -1.
    5000001    1    1    2    0    0 -0.71446695642E+02  0.61570146405E+02  0.46838919415E+03  0.48395552527E+03  0.77000000000E+02 0.  0.
   -5000001    1    1    2    0    0  0.71446695642E+02 -0.61570146405E+02  0.10431399514E+04  0.10502216297E+04  0.77000000000E+02 0.  0.
<mgrwt>
<rscale>  0 0.26263889E+03</rscale>
<asrwt>0</asrwt>
<pdfrwt beam="1">  1        2 0.21755067E+00 0.26263889E+03</pdfrwt>
<pdfrwt beam="2">  1       -2 0.16177134E-02 0.26263889E+03</pdfrwt>
<totfact> 0.16007592E+04</totfact>
</mgrwt>
</event>
<event>
 4    1  0.5121375E-004  0.3186616E+03  0.7818608E-02  0.1076267E+00
          2   -1    0    0  501    0  0.00000000000E+00  0.00000000000E+00  0.37543770975E+03  0.37543770976E+03  0.25500000000E-02 0.  1.
         -2   -1    0    0    0  501 -0.00000000000E+00 -0.00000000000E+00 -0.67617903586E+02  0.67617903634E+02  0.25500000000E-02 0. -1.
    5000001    1    1    2    0    0  0.75992841414E+01  0.10548415764E+03  0.28036923621E+03  0.30938740318E+03  0.77000000000E+02 0.  0.
   -5000001    1    1    2    0    0 -0.75992841414E+01 -0.10548415764E+03  0.27450569957E+02  0.13366821022E+03  0.77000000000E+02 0.  0.
<mgrwt>
<rscale>  0 0.31866164E+03</rscale>
<asrwt>0</asrwt>
<pdfrwt beam="1">  1        2 0.53633959E-01 0.31866164E+03</pdfrwt>
<pdfrwt beam="2">  1       -2 0.96597003E-02 0.31866164E+03</pdfrwt>
<totfact> 0.65110634E+03</totfact>
</mgrwt>
</event>
<event>
 4    1  0.5121375E-004  0.2997775E+03  0.7818608E-02  0.1085352E+00
         -2   -1    0    0    0  501 -0.00000000000E+00  0.00000000000E+00  0.20168356012E+02  0.20168356173E+02  0.25500000000E-02 0.  1.
          2   -1    0    0  501    0  0.00000000000E+00 -0.00000000000E+00 -0.11139551609E+04  0.11139551609E+04  0.25500000000E-02 0. -1.
    5000001    1    1    2    0    0 -0.41166747039E+02 -0.10976573850E+03 -0.34690373515E+03  0.37418500755E+03  0.77000000000E+02 0.  0.
   -5000001    1    1    2    0    0  0.41166747039E+02  0.10976573850E+03 -0.74688306976E+03  0.75993850955E+03  0.77000000000E+02 0.  0.
<mgrwt>
<rscale>  0 0.29977755E+03</rscale>
<asrwt>0</asrwt>
<pdfrwt beam="1">  1        2 0.15913641E+00 0.29977755E+03</pdfrwt>
<pdfrwt beam="2">  1       -2 0.28811944E-02 0.29977755E+03</pdfrwt>
<totfact> 0.11267388E+04</totfact>
</mgrwt>
</event>
<event>
 4    1  0.5121375E-004  0.3058915E+03  0.7818608E-02  0.1082332E+00
         -2   -1    0    0    0  501 -0.00000000000E+00  0.00000000000E+00  0.11734842887E+02  0.11734843164E+02  0.25500000000E-02 0. -1.
          2   -1    0    0  501    0  0.00000000000E+00 -0.00000000000E+00 -0.19934140426E+04  0.19934140426E+04  0.25500000000E-02 0.  1.
    5000001    1    1    2    0    0  0.85594441272E+02 -0.71902938509E+02 -0.14528210727E+04  0.14591485566E+04  0.77000000000E+02 0.  0.
   -5000001    1    1    2    0    0 -0.85594441272E+02  0.71902938509E+02 -0.52885812700E+03  0.54600032916E+03  0.77000000000E+02 0.  0.
<mgrwt>
<rscale>  0 0.30589149E+03</rscale>
<asrwt>0</asrwt>
<pdfrwt beam="1">  1        2 0.28477322E+00 0.30589149E+03</pdfrwt>
<pdfrwt beam="2">  1       -2 0.16764074E-02 0.30589149E+03</pdfrwt>
<totfact> 0.89337944E+03</totfact>
</mgrwt>
</event>
<event>
 4    1  0.5121375E-004  0.1707504E+03  0.7818608E-02  0.1177068E+00
         -2   -1    0    0    0  501 -0.00000000000E+00  0.00000000000E+00  0.94019968808E+01  0.94019972266E+01  0.25500000000E-02 0. -1.
          2   -1    0    0  501    0  0.00000000000E+00 -0.00000000000E+00 -0.77525281012E+03  0.77525281013E+03  0.25500000000E-02 0.  1.
    5000001    1    1    2    0    0 -0.34390251072E+02 -0.11581218914E+02 -0.41309775734E+03  0.42177668394E+03  0.77000000000E+02 0.  0.
   -5000001    1    1    2    0    0  0.34390251072E+02  0.11581218914E+02 -0.35275305590E+03  0.36287812341E+03  0.77000000000E+02 0.  0.
<mgrwt>
<rscale>  0 0.17075040E+03</rscale>
<asrwt>0</asrwt>
<pdfrwt beam="1">  1        2 0.11075036E+00 0.17075040E+03</pdfrwt>
<pdfrwt beam="2">  1       -2 0.13431429E-02 0.17075040E+03</pdfrwt>
<totfact> 0.53627526E+04</totfact>
</mgrwt>
</event>
<event>
 4    1  0.5121375E-004  0.2879869E+03  0.7818608E-02  0.1091405E+00
         -2   -1    0    0    0  501 -0.00000000000E+00  0.00000000000E+00  0.48804509678E+02  0.48804509745E+02  0.25500000000E-02 0. -1.
          2   -1    0    0  501    0  0.00000000000E+00 -0.00000000000E+00 -0.42483998780E+03  0.42483998780E+03  0.25500000000E-02 0.  1.
    5000001    1    1    2    0    0 -0.11870870019E+03  0.23398389472E+02 -0.16683607561E+03  0.22000571869E+03  0.77000000000E+02 0.  0.
   -5000001    1    1    2    0    0  0.11870870019E+03 -0.23398389472E+02 -0.20919940251E+03  0.25363877886E+03  0.77000000000E+02 0.  0.
<mgrwt>
<rscale>  0 0.28798686E+03</rscale>
<asrwt>0</asrwt>
<pdfrwt beam="1">  1        2 0.60691425E-01 0.28798686E+03</pdfrwt>
<pdfrwt beam="2">  1       -2 0.69720731E-02 0.28798686E+03</pdfrwt>
<totfact> 0.94634423E+03</totfact>
</mgrwt>
</event>
<event>
 4    1  0.5121375E-004  0.2624832E+03  0.7818608E-02  0.1105660E+00
         -2   -1    0    0    0  501 -0.00000000000E+00  0.00000000000E+00  0.18404746830E+02  0.18404747007E+02  0.25500000000E-02 0. -1.
          2   -1    0    0  501    0  0.00000000000E+00 -0.00000000000E+00 -0.93586515688E+03  0.93586515688E+03  0.25500000000E-02 0.  1.
    5000001    1    1    2    0    0 -0.75347245244E+02  0.74600378929E+02 -0.48518176133E+03  0.50256618015E+03  0.77000000000E+02 0.  0.
   -5000001    1    1    2    0    0  0.75347245244E+02 -0.74600378929E+02 -0.43227864872E+03  0.45170372374E+03  0.77000000000E+02 0.  0.
<mgrwt>
<rscale>  0 0.26248323E+03</rscale>
<asrwt>0</asrwt>
<pdfrwt beam="1">  1        2 0.13369499E+00 0.26248323E+03</pdfrwt>
<pdfrwt beam="2">  1       -2 0.26292502E-02 0.26248323E+03</pdfrwt>
<totfact> 0.16324011E+04</totfact>
</mgrwt>
</event>
<event>
 4    1  0.5121375E-004  0.6336976E+03  0.7818608E-02  0.9837860E-01
         -2   -1    0    0    0  501 -0.00000000000E+00  0.00000000000E+00  0.64871119399E+02  0.64871119449E+02  0.25500000000E-02 0. -1.
          2   -1    0    0  501    0  0.00000000000E+00 -0.00000000000E+00 -0.15475787518E+04  0.15475787518E+04  0.25500000000E-02 0.  1.
    5000001    1    1    2    0    0  0.22561039349E+02  0.28979134602E+03 -0.48720654733E+03  0.57252706878E+03  0.77000000000E+02 0.  0.
   -5000001    1    1    2    0    0 -0.22561039349E+02 -0.28979134602E+03 -0.99550108502E+03  0.10399228024E+04  0.77000000000E+02 0.  0.
<mgrwt>
<rscale>  0 0.63369761E+03</rscale>
<asrwt>0</asrwt>
<pdfrwt beam="1">  1        2 0.22108266E+00 0.63369761E+03</pdfrwt>
<pdfrwt beam="2">  1       -2 0.92673037E-02 0.63369761E+03</pdfrwt>
<totfact> 0.10870054E+03</totfact>
</mgrwt>
</event>
<event>
 4    1  0.5121375E-004  0.2318304E+03  0.7818608E-02  0.1125358E+00
          2   -1    0    0  501    0  0.00000000000E+00  0.00000000000E+00  0.23375617030E+04  0.23375617030E+04  0.25500000000E-02 0.  1.
         -2   -1    0    0    0  501 -0.00000000000E+00 -0.00000000000E+00 -0.57480131448E+01  0.57480137104E+01  0.25500000000E-02 0. -1.
    5000001    1    1    2    0    0  0.29671558898E+02 -0.65495013775E+02  0.16545817220E+04  0.16579323488E+04  0.77000000000E+02 0.  0.
   -5000001    1    1    2    0    0 -0.29671558898E+02  0.65495013775E+02  0.67723196785E+03  0.68537736797E+03  0.77000000000E+02 0.  0.
<mgrwt>
<rscale>  0 0.23183042E+03</rscale>
<asrwt>0</asrwt>
<pdfrwt beam="1">  1        2 0.33393727E+00 0.23183042E+03</pdfrwt>
<pdfrwt beam="2">  1       -2 0.82114505E-03 0.23183042E+03</pdfrwt>
<totfact> 0.17053272E+04</totfact>
</mgrwt>
</event>
<event>
 4    1  0.5121375E-004  0.2462027E+03  0.7818608E-02  0.1115728E+00
         -2   -1    0    0    0  501 -0.00000000000E+00  0.00000000000E+00  0.12030763399E+02  0.12030763669E+02  0.25500000000E-02 0. -1.
          2   -1    0    0  501    0  0.00000000000E+00 -0.00000000000E+00 -0.12595988754E+04  0.12595988754E+04  0.25500000000E-02 0.  1.
    5000001    1    1    2    0    0  0.87649105102E+02 -0.34967917176E+02 -0.71615121396E+03  0.72643422422E+03  0.77000000000E+02 0.  0.
   -5000001    1    1    2    0    0 -0.87649105102E+02  0.34967917176E+02 -0.53141689807E+03  0.54519541489E+03  0.77000000000E+02 0.  0.
<mgrwt>
<rscale>  0 0.24620265E+03</rscale>
<asrwt>0</asrwt>
<pdfrwt beam="1">  1        2 0.17994261E+00 0.24620265E+03</pdfrwt>
<pdfrwt beam="2">  1       -2 0.17186813E-02 0.24620265E+03</pdfrwt>
<totfact> 0.19966100E+04</totfact>
</mgrwt>
</event>
<event>
 4    1  0.5121375E-004  0.1947460E+03  0.7818608E-02  0.1154249E+00
         -2   -1    0    0    0  501 -0.00000000000E+00  0.00000000000E+00  0.40581479745E+02  0.40581479825E+02  0.25500000000E-02 0. -1.
          2   -1    0    0  501    0  0.00000000000E+00 -0.00000000000E+00 -0.23364099282E+03  0.23364099283E+03  0.25500000000E-02 0.  1.
    5000001    1    1    2    0    0 -0.43848411623E+02 -0.38116705831E+02 -0.11525969124E+03  0.15029758112E+03  0.77000000000E+02 0.  0.
   -5000001    1    1    2    0    0  0.43848411623E+02  0.38116705831E+02 -0.77799821833E+02  0.12392489154E+03  0.77000000000E+02 0.  0.
<mgrwt>
<rscale>  0 0.19474596E+03</rscale>
<asrwt>0</asrwt>
<pdfrwt beam="1">  1        2 0.33377284E-01 0.19474596E+03</pdfrwt>
<pdfrwt beam="2">  1       -2 0.57973544E-02 0.19474596E+03</pdfrwt>
<totfact> 0.23374629E+04</totfact>
</mgrwt>
</event>
<event>
 4    1  0.5121375E-004  0.2393172E+03  0.7818608E-02  0.1120249E+00
         -2   -1    0    0    0  501 -0.00000000000E+00  0.00000000000E+00  0.39566274514E+03  0.39566274515E+03  0.25500000000E-02 0. -1.
          2   -1    0    0  501    0  0.00000000000E+00 -0.00000000000E+00 -0.36187839132E+02  0.36187839222E+02  0.25500000000E-02 0.  1.
    5000001    1    1    2    0    0 -0.37977587993E+02  0.73294183444E+02  0.25134825808E+03  0.27553453750E+03  0.77000000000E+02 0.  0.
   -5000001    1    1    2    0    0  0.37977587993E+02 -0.73294183444E+02  0.10812664793E+03  0.15631604687E+03  0.77000000000E+02 0.  0.
<mgrwt>
<rscale>  0 0.23931719E+03</rscale>
<asrwt>0</asrwt>
<pdfrwt beam="1">  1        2 0.51696912E-02 0.23931719E+03</pdfrwt>
<pdfrwt beam="2">  1       -2 0.56523251E-01 0.23931719E+03</pdfrwt>
<totfact> 0.44470611E+03</totfact>
</mgrwt>
</event>
<event>
 4    1  0.5121375E-004  0.1919297E+03  0.7818608E-02  0.1156732E+00
         -2   -1    0    0    0  501 -0.00000000000E+00  0.00000000000E+00  0.51860309386E+02  0.51860309448E+02  0.25500000000E-02 0. -1.
          2   -1    0    0  501    0  0.00000000000E+00 -0.00000000000E+00 -0.17757809335E+03  0.17757809336E+03  0.25500000000E-02 0.  1.
    5000001    1    1    2    0    0 -0.20622085194E+02  0.35843248997E+02 -0.11022936410E+03  0.14067523452E+03  0.77000000000E+02 0.  0.
   -5000001    1    1    2    0    0  0.20622085194E+02 -0.35843248997E+02 -0.15488419862E+02  0.88763168298E+02  0.77000000000E+02 0.  0.
<mgrwt>
<rscale>  0 0.19192973E+03</rscale>
<asrwt>0</asrwt>
<pdfrwt beam="1">  1        2 0.25368299E-01 0.19192973E+03</pdfrwt>
<pdfrwt beam="2">  1       -2 0.74086157E-02 0.19192973E+03</pdfrwt>
<totfact> 0.21640989E+04</totfact>
</mgrwt>
</event>
<event>
 4    1  0.5121375E-004  0.2132272E+03  0.7818608E-02  0.1139036E+00
         -2   -1    0    0    0  501 -0.00000000000E+00  0.00000000000E+00  0.17805747445E+02  0.17805747627E+02  0.25500000000E-02 0. -1.
          2   -1    0    0  501    0  0.00000000000E+00 -0.00000000000E+00 -0.63835890369E+03  0.63835890369E+03  0.25500000000E-02 0.  1.
    5000001    1    1    2    0    0  0.40118162431E+02 -0.31576156185E+02 -0.47400925508E+03  0.48292887105E+03  0.77000000000E+02 0.  0.
   -5000001    1    1    2    0    0 -0.40118162431E+02  0.31576156185E+02 -0.14654390116E+03  0.17323578026E+03  0.77000000000E+02 0.  0.
<mgrwt>
<rscale>  0 0.21322718E+03</rscale>
<asrwt>0</asrwt>
<pdfrwt beam="1">  1        2 0.91194115E-01 0.21322718E+03</pdfrwt>
<pdfrwt beam="2">  1       -2 0.25436786E-02 0.21322718E+03</pdfrwt>
<totfact> 0.27048495E+04</totfact>
</mgrwt>
</event>
<event>
 4    1  0.5121375E-004  0.3150615E+03  0.7818608E-02  0.1077945E+00
         -2   -1    0    0    0  501 -0.00000000000E+00  0.00000000000E+00  0.18639456926E+03  0.18639456928E+03  0.25500000000E-02 0. -1.
          2   -1    0    0  501    0  0.00000000000E+00 -0.00000000000E+00 -0.13313661765E+03  0.13313661768E+03  0.25500000000E-02 0.  1.
    5000001    1    1    2    0    0 -0.91000042125E+02 -0.51595102097E+02 -0.63763902407E+02  0.14469933475E+03  0.77000000000E+02 0.  0.
   -5000001    1    1    2    0    0  0.91000042125E+02  0.51595102097E+02  0.11702185401E+03  0.17483185220E+03  0.77000000000E+02 0.  0.
<mgrwt>
<rscale>  0 0.31506153E+03</rscale>
<asrwt>0</asrwt>
<pdfrwt beam="1">  1        2 0.19019517E-01 0.31506153E+03</pdfrwt>
<pdfrwt beam="2">  1       -2 0.26627796E-01 0.31506153E+03</pdfrwt>
<totfact> 0.37393462E+03</totfact>
</mgrwt>
</event>
<event>
 4    1  0.5121375E-004  0.3217457E+03  0.7818608E-02  0.1074849E+00
          2   -1    0    0  501    0  0.00000000000E+00  0.00000000000E+00  0.10246979754E+04  0.10246979754E+04  0.25500000000E-02 0. -1.
         -2   -1    0    0    0  501 -0.00000000000E+00 -0.00000000000E+00 -0.25256301292E+02  0.25256301421E+02  0.25500000000E-02 0.  1.
    5000001    1    1    2    0    0  0.65200768377E+01  0.14076093742E+03  0.53151553172E+03  0.55524221144E+03  0.77000000000E+02 0.  0.
   -5000001    1    1    2    0    0 -0.65200768377E+01 -0.14076093742E+03  0.46792614239E+03  0.49471206539E+03  0.77000000000E+02 0.  0.
<mgrwt>
<rscale>  0 0.32174574E+03</rscale>
<asrwt>0</asrwt>
<pdfrwt beam="1">  1        2 0.14638540E+00 0.32174574E+03</pdfrwt>
<pdfrwt beam="2">  1       -2 0.36080437E-02 0.32174574E+03</pdfrwt>
<totfact> 0.90706485E+03</totfact>
</mgrwt>
</event>
<event>
 4    1  0.5121375E-004  0.2547240E+03  0.7818608E-02  0.1110355E+00
         -2   -1    0    0    0  501 -0.00000000000E+00  0.00000000000E+00  0.18111716728E+02  0.18111716907E+02  0.25500000000E-02 0. -1.
          2   -1    0    0  501    0  0.00000000000E+00 -0.00000000000E+00 -0.89561211480E+03  0.89561211481E+03  0.25500000000E-02 0.  1.
    5000001    1    1    2    0    0  0.41909872214E+02 -0.87017267443E+02 -0.55010283436E+03  0.56380011581E+03  0.77000000000E+02 0.  0.
   -5000001    1    1    2    0    0 -0.41909872214E+02  0.87017267443E+02 -0.32739756372E+03  0.34992371590E+03  0.77000000000E+02 0.  0.
<mgrwt>
<rscale>  0 0.25472395E+03</rscale>
<asrwt>0</asrwt>
<pdfrwt beam="1">  1        2 0.12794456E+00 0.25472395E+03</pdfrwt>
<pdfrwt beam="2">  1       -2 0.25873887E-02 0.25472395E+03</pdfrwt>
<totfact> 0.17677689E+04</totfact>
</mgrwt>
</event>
<event>
 4    1  0.5121375E-004  0.2298164E+03  0.7818608E-02  0.1126769E+00
          2   -1    0    0  501    0  0.00000000000E+00  0.00000000000E+00  0.32133579220E+03  0.32133579221E+03  0.25500000000E-02 0.  1.
         -2   -1    0    0    0  501 -0.00000000000E+00 -0.00000000000E+00 -0.41090632490E+02  0.41090632569E+02  0.25500000000E-02 0. -1.
    5000001    1    1    2    0    0  0.42002421722E+02 -0.66689899830E+02  0.19154293858E+03  0.22097385250E+03  0.77000000000E+02 0.  0.
   -5000001    1    1    2    0    0 -0.42002421722E+02  0.66689899830E+02  0.88702221125E+02  0.14145257227E+03  0.77000000000E+02 0.  0.
<mgrwt>
<rscale>  0 0.22981637E+03</rscale>
<asrwt>0</asrwt>
<pdfrwt beam="1">  1        2 0.45905114E-01 0.22981637E+03</pdfrwt>
<pdfrwt beam="2">  1       -2 0.58700903E-02 0.22981637E+03</pdfrwt>
<totfact> 0.16474136E+04</totfact>
</mgrwt>
</event>
<event>
 4    1  0.5121375E-004  0.2355372E+03  0.7818608E-02  0.1122802E+00
         -2   -1    0    0    0  501 -0.00000000000E+00  0.00000000000E+00  0.54655597097E+03  0.54655597098E+03  0.25500000000E-02 0. -1.
          2   -1    0    0  501    0  0.00000000000E+00 -0.00000000000E+00 -0.25376066039E+02  0.25376066167E+02  0.25500000000E-02 0.  1.
    5000001    1    1    2    0    0 -0.17558064755E+02  0.82667426678E+02  0.32919479910E+03  0.34848300508E+03  0.77000000000E+02 0.  0.
   -5000001    1    1    2    0    0  0.17558064755E+02 -0.82667426678E+02  0.19198510583E+03  0.22344903207E+03  0.77000000000E+02 0.  0.
<mgrwt>
<rscale>  0 0.23553718E+03</rscale>
<asrwt>0</asrwt>
<pdfrwt beam="1">  1        2 0.36251524E-02 0.23553718E+03</pdfrwt>
<pdfrwt beam="2">  1       -2 0.78079423E-01 0.23553718E+03</pdfrwt>
<totfact> 0.35997886E+03</totfact>
</mgrwt>
</event>
<event>
 4    1  0.5121375E-004  0.3073485E+03  0.7818608E-02  0.1081624E+00
         -2   -1    0    0    0  501 -0.00000000000E+00  0.00000000000E+00  0.22813153389E+02  0.22813153532E+02  0.25500000000E-02 0. -1.
          2   -1    0    0  501    0  0.00000000000E+00 -0.00000000000E+00 -0.10351824911E+04  0.10351824911E+04  0.25500000000E-02 0.  1.
    5000001    1    1    2    0    0 -0.93064762858E+02 -0.45839311745E+02 -0.79263312530E+03  0.80309312282E+03  0.77000000000E+02 0.  0.
   -5000001    1    1    2    0    0  0.93064762858E+02  0.45839311745E+02 -0.21973621242E+03  0.25490252183E+03  0.77000000000E+02 0.  0.
<mgrwt>
<rscale>  0 0.30734851E+03</rscale>
<asrwt>0</asrwt>
<pdfrwt beam="1">  1        2 0.14788318E+00 0.30734851E+03</pdfrwt>
<pdfrwt beam="2">  1       -2 0.32590226E-02 0.30734851E+03</pdfrwt>
<totfact> 0.10405811E+04</totfact>
</mgrwt>
</event>
<event>
 4    1  0.5121375E-004  0.2442800E+03  0.7818608E-02  0.1116974E+00
          2   -1    0    0  501    0  0.00000000000E+00  0.00000000000E+00  0.31275838633E+04  0.31275838633E+04  0.25500000000E-02 0.  1.
         -2   -1    0    0    0  501 -0.00000000000E+00 -0.00000000000E+00 -0.47698746097E+01  0.47698752913E+01  0.25500000000E-02 0. -1.
    5000001    1    1    2    0    0  0.65889126343E+01  0.74517839190E+02  0.81450105647E+03  0.82154567317E+03  0.77000000000E+02 0.  0.
   -5000001    1    1    2    0    0 -0.65889126343E+01 -0.74517839190E+02  0.23083129322E+04  0.23108080654E+04  0.77000000000E+02 0.  0.
<mgrwt>
<rscale>  0 0.24428004E+03</rscale>
<asrwt>0</asrwt>
<pdfrwt beam="1">  1        2 0.44679523E+00 0.24428004E+03</pdfrwt>
<pdfrwt beam="2">  1       -2 0.68141447E-03 0.24428004E+03</pdfrwt>
<totfact> 0.88203191E+03</totfact>
</mgrwt>
</event>
<event>
 4    1  0.5121375E-004  0.1971093E+03  0.7818608E-02  0.1152201E+00
         -2   -1    0    0    0  501 -0.00000000000E+00  0.00000000000E+00  0.33097273813E+02  0.33097273911E+02  0.25500000000E-02 0. -1.
          2   -1    0    0  501    0  0.00000000000E+00 -0.00000000000E+00 -0.29346886346E+03  0.29346886347E+03  0.25500000000E-02 0.  1.
    5000001    1    1    2    0    0  0.61091106602E+02 -0.27630472958E+01 -0.11916335755E+03  0.15449486567E+03  0.77000000000E+02 0.  0.
   -5000001    1    1    2    0    0 -0.61091106602E+02  0.27630472958E+01 -0.14120823209E+03  0.17207127171E+03  0.77000000000E+02 0.  0.
<mgrwt>
<rscale>  0 0.19710930E+03</rscale>
<asrwt>0</asrwt>
<pdfrwt beam="1">  1        2 0.41924122E-01 0.19710930E+03</pdfrwt>
<pdfrwt beam="2">  1       -2 0.47281822E-02 0.19710930E+03</pdfrwt>
<totfact> 0.24933859E+04</totfact>
</mgrwt>
</event>
<event>
 4    1  0.5121375E-004  0.2209613E+03  0.7818608E-02  0.1133168E+00
          2   -1    0    0  501    0  0.00000000000E+00  0.00000000000E+00  0.52514656607E+02  0.52514656669E+02  0.25500000000E-02 0.  1.
         -2   -1    0    0    0  501 -0.00000000000E+00 -0.00000000000E+00 -0.23242987274E+03  0.23242987275E+03  0.25500000000E-02 0. -1.
    5000001    1    1    2    0    0  0.32559954900E+02  0.62294298093E+02 -0.42817877889E+02  0.11270803390E+03  0.77000000000E+02 0.  0.
   -5000001    1    1    2    0    0 -0.32559954900E+02 -0.62294298093E+02 -0.13709733824E+03  0.17223649553E+03  0.77000000000E+02 0.  0.
<mgrwt>
<rscale>  0 0.22096131E+03</rscale>
<asrwt>0</asrwt>
<pdfrwt beam="1">  1        2 0.75020939E-02 0.22096131E+03</pdfrwt>
<pdfrwt beam="2">  1       -2 0.33204267E-01 0.22096131E+03</pdfrwt>
<totfact> 0.76599642E+03</totfact>
</mgrwt>
</event>
<event>
 4    1  0.5121375E-004  0.1866212E+03  0.7818608E-02  0.1161545E+00
         -2   -1    0    0    0  501 -0.00000000000E+00  0.00000000000E+00  0.56006201518E+01  0.56006207323E+01  0.25500000000E-02 0. -1.
          2   -1    0    0  501    0  0.00000000000E+00 -0.00000000000E+00 -0.15546257405E+04  0.15546257405E+04  0.25500000000E-02 0.  1.
    5000001    1    1    2    0    0  0.40738255331E+02  0.20923670919E+02 -0.99259914736E+03  0.99663407166E+03  0.77000000000E+02 0.  0.
   -5000001    1    1    2    0    0 -0.40738255331E+02 -0.20923670919E+02 -0.55642597294E+03  0.56359228953E+03  0.77000000000E+02 0.  0.
<mgrwt>
<rscale>  0 0.18662121E+03</rscale>
<asrwt>0</asrwt>
<pdfrwt beam="1">  1        2 0.22208912E+00 0.18662121E+03</pdfrwt>
<pdfrwt beam="2">  1       -2 0.80008963E-03 0.18662121E+03</pdfrwt>
<totfact> 0.42057633E+04</totfact>
</mgrwt>
</event>
<event>
 4    1  0.5121375E-004  0.2423239E+03  0.7818608E-02  0.1118254E+00
          2   -1    0    0  501    0  0.00000000000E+00  0.00000000000E+00  0.18432507504E+03  0.18432507505E+03  0.25500000000E-02 0.  1.
         -2   -1    0    0    0  501 -0.00000000000E+00 -0.00000000000E+00 -0.79643117250E+02  0.79643117291E+02  0.25500000000E-02 0. -1.
    5000001    1    1    2    0    0 -0.33241498243E+02 -0.86907080924E+02  0.41814203835E+02  0.12780948933E+03  0.77000000000E+02 0.  0.
   -5000001    1    1    2    0    0  0.33241498243E+02  0.86907080924E+02  0.62867753951E+02  0.13615870302E+03  0.77000000000E+02 0.  0.
<mgrwt>
<rscale>  0 0.24232394E+03</rscale>
<asrwt>0</asrwt>
<pdfrwt beam="1">  1        2 0.26332153E-01 0.24232394E+03</pdfrwt>
<pdfrwt beam="2">  1       -2 0.11377588E-01 0.24232394E+03</pdfrwt>
<totfact> 0.10738920E+04</totfact>
</mgrwt>
</event>
<event>
 4    1  0.5121375E-004  0.1768577E+03  0.7818608E-02  0.1170879E+00
          2   -1    0    0  501    0  0.00000000000E+00  0.00000000000E+00  0.11410817889E+04  0.11410817889E+04  0.25500000000E-02 0.  1.
         -2   -1    0    0    0  501 -0.00000000000E+00 -0.00000000000E+00 -0.68528514612E+01  0.68528519356E+01  0.25500000000E-02 0. -1.
    5000001    1    1    2    0    0  0.29846674530E+02 -0.25529116752E+02  0.44601341333E+03  0.45431214452E+03  0.77000000000E+02 0.  0.
   -5000001    1    1    2    0    0 -0.29846674530E+02  0.25529116752E+02  0.68821552407E+03  0.69362249629E+03  0.77000000000E+02 0.  0.
<mgrwt>
<rscale>  0 0.17685773E+03</rscale>
<asrwt>0</asrwt>
<pdfrwt beam="1">  1        2 0.16301155E+00 0.17685773E+03</pdfrwt>
<pdfrwt beam="2">  1       -2 0.97897965E-03 0.17685773E+03</pdfrwt>
<totfact> 0.51189475E+04</totfact>
</mgrwt>
</event>
<event>
 4    1  0.5121375E-004  0.2564975E+03  0.7818608E-02  0.1109266E+00
          2   -1    0    0  501    0  0.00000000000E+00  0.00000000000E+00  0.22187604706E+04  0.22187604706E+04  0.25500000000E-02 0.  1.
         -2   -1    0    0    0  501 -0.00000000000E+00 -0.00000000000E+00 -0.74130330973E+01  0.74130335359E+01  0.25500000000E-02 0. -1.
    5000001    1    1    2    0    0 -0.57783999566E+02 -0.73343544826E+02  0.14739467126E+04  0.14789070890E+04  0.77000000000E+02 0.  0.
   -5000001    1    1    2    0    0  0.57783999566E+02  0.73343544826E+02  0.73740072486E+03  0.74726641514E+03  0.77000000000E+02 0.  0.
<mgrwt>
<rscale>  0 0.25649753E+03</rscale>
<asrwt>0</asrwt>
<pdfrwt beam="1">  1        2 0.31696565E+00 0.25649753E+03</pdfrwt>
<pdfrwt beam="2">  1       -2 0.10590052E-02 0.25649753E+03</pdfrwt>
<totfact> 0.13523968E+04</totfact>
</mgrwt>
</event>
<event>
 4    1  0.5121375E-004  0.2125527E+03  0.7818608E-02  0.1139560E+00
          2   -1    0    0  501    0  0.00000000000E+00  0.00000000000E+00  0.13933236268E+03  0.13933236270E+03  0.25500000000E-02 0.  1.
         -2   -1    0    0    0  501 -0.00000000000E+00 -0.00000000000E+00 -0.81062761027E+02  0.81062761067E+02  0.25500000000E-02 0. -1.
    5000001    1    1    2    0    0 -0.36600951582E+02 -0.61282120204E+02  0.46189714161E+02  0.11470665895E+03  0.77000000000E+02 0.  0.
   -5000001    1    1    2    0    0  0.36600951582E+02  0.61282120204E+02  0.12079887489E+02  0.10568846482E+03  0.77000000000E+02 0.  0.
<mgrwt>
<rscale>  0 0.21255273E+03</rscale>
<asrwt>0</asrwt>
<pdfrwt beam="1">  1        2 0.19904623E-01 0.21255273E+03</pdfrwt>
<pdfrwt beam="2">  1       -2 0.11580395E-01 0.21255273E+03</pdfrwt>
<totfact> 0.14186087E+04</totfact>
</mgrwt>
</event>
<event>
 4    1  0.5121375E-004  0.2392576E+03  0.7818608E-02  0.1120288E+00
          2   -1    0    0  501    0  0.00000000000E+00  0.00000000000E+00  0.16186122225E+04  0.16186122225E+04  0.25500000000E-02 0.  1.
         -2   -1    0    0    0  501 -0.00000000000E+00 -0.00000000000E+00 -0.88415562628E+01  0.88415566306E+01  0.25500000000E-02 0. -1.
    5000001    1    1    2    0    0  0.87864915012E+01  0.87087742645E+02  0.62229314795E+03  0.63311866134E+03  0.77000000000E+02 0.  0.
   -5000001    1    1    2    0    0 -0.87864915012E+01 -0.87087742645E+02  0.98747751826E+03  0.99433511777E+03  0.77000000000E+02 0.  0.
<mgrwt>
<rscale>  0 0.23925761E+03</rscale>
<asrwt>0</asrwt>
<pdfrwt beam="1">  1        2 0.23123066E+00 0.23925761E+03</pdfrwt>
<pdfrwt beam="2">  1       -2 0.12630776E-02 0.23925761E+03</pdfrwt>
<totfact> 0.20502035E+04</totfact>
</mgrwt>
</event>
<event>
 4    1  0.5121375E-004  0.1977395E+03  0.7818608E-02  0.1151660E+00
         -2   -1    0    0    0  501 -0.00000000000E+00  0.00000000000E+00  0.56925594993E+01  0.56925600704E+01  0.25500000000E-02 0. -1.
          2   -1    0    0  501    0  0.00000000000E+00 -0.00000000000E+00 -0.17171936211E+04  0.17171936212E+04  0.25500000000E-02 0.  1.
    5000001    1    1    2    0    0 -0.45436894555E+02 -0.41897173310E+02 -0.90046977136E+03  0.90586681894E+03  0.77000000000E+02 0.  0.
   -5000001    1    1    2    0    0  0.45436894555E+02  0.41897173310E+02 -0.81103129029E+03  0.81701936229E+03  0.77000000000E+02 0.  0.
<mgrwt>
<rscale>  0 0.19773950E+03</rscale>
<asrwt>0</asrwt>
<pdfrwt beam="1">  1        2 0.24531304E+00 0.19773950E+03</pdfrwt>
<pdfrwt beam="2">  1       -2 0.81322393E-03 0.19773950E+03</pdfrwt>
<totfact> 0.34329178E+04</totfact>
</mgrwt>
</event>
<event>
 4    1  0.5121375E-004  0.2333607E+03  0.7818608E-02  0.1124296E+00
          2   -1    0    0  501    0  0.00000000000E+00  0.00000000000E+00  0.59255530953E+03  0.59255530954E+03  0.25500000000E-02 0.  1.
         -2   -1    0    0    0  501 -0.00000000000E+00 -0.00000000000E+00 -0.22975592088E+02  0.22975592230E+02  0.25500000000E-02 0. -1.
    5000001    1    1    2    0    0  0.70563200287E+02 -0.61932469800E+00  0.42199384329E+03  0.43472675622E+03  0.77000000000E+02 0.  0.
   -5000001    1    1    2    0    0 -0.70563200287E+02  0.61932469800E+00  0.14758587415E+03  0.18080414555E+03  0.77000000000E+02 0.  0.
<mgrwt>
<rscale>  0 0.23336074E+03</rscale>
<asrwt>0</asrwt>
<pdfrwt beam="1">  1        2 0.84650739E-01 0.23336074E+03</pdfrwt>
<pdfrwt beam="2">  1       -2 0.32822282E-02 0.23336074E+03</pdfrwt>
<totfact> 0.20309708E+04</totfact>
</mgrwt>
</event>
<event>
 4    1  0.5121375E-004  0.1997713E+03  0.7818608E-02  0.1149932E+00
          2   -1    0    0  501    0  0.00000000000E+00  0.00000000000E+00  0.74712490606E+03  0.74712490606E+03  0.25500000000E-02 0. -1.
         -2   -1    0    0    0  501 -0.00000000000E+00 -0.00000000000E+00 -0.13354046795E+02  0.13354047039E+02  0.25500000000E-02 0.  1.
    5000001    1    1    2    0    0  0.29192149020E+02 -0.46220542326E+02  0.49080200897E+03  0.49980409372E+03  0.77000000000E+02 0.  0.
   -5000001    1    1    2    0    0 -0.29192149020E+02  0.46220542326E+02  0.24296885030E+03  0.26067485938E+03  0.77000000000E+02 0.  0.
<mgrwt>
<rscale>  0 0.19977128E+03</rscale>
<asrwt>0</asrwt>
<pdfrwt beam="1">  1        2 0.10673212E+00 0.19977128E+03</pdfrwt>
<pdfrwt beam="2">  1       -2 0.19077212E-02 0.19977128E+03</pdfrwt>
<totfact> 0.34133857E+04</totfact>
</mgrwt>
</event>
<event>
 4    1  0.5121375E-004  0.2513726E+03  0.7818608E-02  0.1112440E+00
          2   -1    0    0  501    0  0.00000000000E+00  0.00000000000E+00  0.39829601637E+03  0.39829601638E+03  0.25500000000E-02 0.  1.
         -2   -1    0    0    0  501 -0.00000000000E+00 -0.00000000000E+00 -0.39661561608E+02  0.39661561690E+02  0.25500000000E-02 0. -1.
    5000001    1    1    2    0    0 -0.43912630713E+02 -0.80125091978E+02  0.24723634339E+03  0.27459635648E+03  0.77000000000E+02 0.  0.
   -5000001    1    1    2    0    0  0.43912630713E+02  0.80125091978E+02  0.11139811137E+03  0.16336122159E+03  0.77000000000E+02 0.  0.
<mgrwt>
<rscale>  0 0.25137257E+03</rscale>
<asrwt>0</asrwt>
<pdfrwt beam="1">  1        2 0.56899431E-01 0.25137257E+03</pdfrwt>
<pdfrwt beam="2">  1       -2 0.56659373E-02 0.25137257E+03</pdfrwt>
<totfact> 0.13875936E+04</totfact>
</mgrwt>
</event>
<event>
 4    1  0.5121375E-004  0.2218399E+03  0.7818608E-02  0.1132519E+00
          2   -1    0    0  501    0  0.00000000000E+00  0.00000000000E+00  0.17718166090E+04  0.17718166090E+04  0.25500000000E-02 0.  1.
         -2   -1    0    0    0  501 -0.00000000000E+00 -0.00000000000E+00 -0.69438550788E+01  0.69438555470E+01  0.25500000000E-02 0. -1.
    5000001    1    1    2    0    0  0.41511227287E+02 -0.56711309622E+02  0.11861652541E+04  0.11907377396E+04  0.77000000000E+02 0.  0.
   -5000001    1    1    2    0    0 -0.41511227287E+02  0.56711309622E+02  0.57870749984E+03  0.58802272490E+03  0.77000000000E+02 0.  0.
<mgrwt>
<rscale>  0 0.22183993E+03</rscale>
<asrwt>0</asrwt>
<pdfrwt beam="1">  1        2 0.25311699E+00 0.22183993E+03</pdfrwt>
<pdfrwt beam="2">  1       -2 0.99197803E-03 0.22183993E+03</pdfrwt>
<totfact> 0.24395778E+04</totfact>
</mgrwt>
</event>
<event>
 4    1  0.5121375E-004  0.2822388E+03  0.7818608E-02  0.1094472E+00
          2   -1    0    0  501    0  0.00000000000E+00  0.00000000000E+00  0.19608288174E+03  0.19608288176E+03  0.25500000000E-02 0.  1.
         -2   -1    0    0    0  501 -0.00000000000E+00 -0.00000000000E+00 -0.10156262015E+03  0.10156262018E+03  0.25500000000E-02 0. -1.
    5000001    1    1    2    0    0 -0.48375513059E+02  0.81868700553E+02 -0.26884308418E+02  0.12527745381E+03  0.77000000000E+02 0.  0.
   -5000001    1    1    2    0    0  0.48375513059E+02 -0.81868700553E+02  0.12140457001E+03  0.17236804812E+03  0.77000000000E+02 0.  0.
<mgrwt>
<rscale>  0 0.28223884E+03</rscale>
<asrwt>0</asrwt>
<pdfrwt beam="1">  1        2 0.28011840E-01 0.28223884E+03</pdfrwt>
<pdfrwt beam="2">  1       -2 0.14508946E-01 0.28223884E+03</pdfrwt>
<totfact> 0.68030991E+03</totfact>
</mgrwt>
</event>
<event>
 4    1  0.5121375E-004  0.3045519E+03  0.7818608E-02  0.1082987E+00
         -2   -1    0    0    0  501 -0.00000000000E+00  0.00000000000E+00  0.20086266939E+02  0.20086267101E+02  0.25500000000E-02 0. -1.
          2   -1    0    0  501    0  0.00000000000E+00 -0.00000000000E+00 -0.11544190869E+04  0.11544190869E+04  0.25500000000E-02 0.  1.
    5000001    1    1    2    0    0 -0.12508189625E+03  0.10080472921E+01 -0.41230618714E+03  0.43768926065E+03  0.77000000000E+02 0.  0.
   -5000001    1    1    2    0    0  0.12508189625E+03 -0.10080472921E+01 -0.72202663278E+03  0.73681609332E+03  0.77000000000E+02 0.  0.
<mgrwt>
<rscale>  0 0.30455193E+03</rscale>
<asrwt>0</asrwt>
<pdfrwt beam="1">  1        2 0.16491697E+00 0.30455193E+03</pdfrwt>
<pdfrwt beam="2">  1       -2 0.28694674E-02 0.30455193E+03</pdfrwt>
<totfact> 0.10766649E+04</totfact>
</mgrwt>
</event>
<event>
 4    1  0.5121375E-004  0.2571694E+03  0.7818608E-02  0.1108856E+00
          2   -1    0    0  501    0  0.00000000000E+00  0.00000000000E+00  0.26412198971E+03  0.26412198972E+03  0.25500000000E-02 0.  1.
         -2   -1    0    0    0  501 -0.00000000000E+00 -0.00000000000E+00 -0.62599970362E+02  0.62599970414E+02  0.25500000000E-02 0. -1.
    5000001    1    1    2    0    0 -0.73574955019E+02  0.36029678234E+02  0.21486128098E+02  0.11446425390E+03  0.77000000000E+02 0.  0.
   -5000001    1    1    2    0    0  0.73574955019E+02 -0.36029678234E+02  0.18003589125E+03  0.21225770624E+03  0.77000000000E+02 0.  0.
<mgrwt>
<rscale>  0 0.25716943E+03</rscale>
<asrwt>0</asrwt>
<pdfrwt beam="1">  1        2 0.37731713E-01 0.25716943E+03</pdfrwt>
<pdfrwt beam="2">  1       -2 0.89428529E-02 0.25716943E+03</pdfrwt>
<totfact> 0.10658595E+04</totfact>
</mgrwt>
</event>
<event>
 4    1  0.5121375E-004  0.2249189E+03  0.7818608E-02  0.1130268E+00
          2   -1    0    0  501    0  0.00000000000E+00  0.00000000000E+00  0.59313931626E+03  0.59313931627E+03  0.25500000000E-02 0.  1.
         -2   -1    0    0    0  501 -0.00000000000E+00 -0.00000000000E+00 -0.21322349862E+02  0.21322350014E+02  0.25500000000E-02 0. -1.
    5000001    1    1    2    0    0 -0.32420451811E+02 -0.61147168803E+02  0.16595042695E+03  0.19559807298E+03  0.77000000000E+02 0.  0.
   -5000001    1    1    2    0    0  0.32420451811E+02  0.61147168803E+02  0.40586653945E+03  0.41886359330E+03  0.77000000000E+02 0.  0.
<mgrwt>
<rscale>  0 0.22491887E+03</rscale>
<asrwt>0</asrwt>
<pdfrwt beam="1">  1        2 0.84734198E-01 0.22491887E+03</pdfrwt>
<pdfrwt beam="2">  1       -2 0.30460496E-02 0.22491887E+03</pdfrwt>
<totfact> 0.22615269E+04</totfact>
</mgrwt>
</event>
<event>
 4    1  0.5121375E-004  0.2500742E+03  0.7818608E-02  0.1113258E+00
          2   -1    0    0  501    0  0.00000000000E+00  0.00000000000E+00  0.16773613792E+04  0.16773613792E+04  0.25500000000E-02 0.  1.
         -2   -1    0    0    0  501 -0.00000000000E+00 -0.00000000000E+00 -0.93207567879E+01  0.93207571367E+01  0.25500000000E-02 0. -1.
    5000001    1    1    2    0    0  0.96437164793E+02 -0.19974516309E+02  0.81726716390E+03  0.82677307966E+03  0.77000000000E+02 0.  0.
   -5000001    1    1    2    0    0 -0.96437164793E+02  0.19974516309E+02  0.85077345847E+03  0.85990905664E+03  0.77000000000E+02 0.  0.
<mgrwt>
<rscale>  0 0.25007421E+03</rscale>
<asrwt>0</asrwt>
<pdfrwt beam="1">  1        2 0.23962311E+00 0.25007421E+03</pdfrwt>
<pdfrwt beam="2">  1       -2 0.13315364E-02 0.25007421E+03</pdfrwt>
<totfact> 0.17790901E+04</totfact>
</mgrwt>
</event>
<event>
 4    1  0.5121375E-004  0.2804949E+03  0.7818608E-02  0.1095419E+00
         -2   -1    0    0    0  501 -0.00000000000E+00  0.00000000000E+00  0.12543638057E+02  0.12543638316E+02  0.25500000000E-02 0. -1.
          2   -1    0    0  501    0  0.00000000000E+00 -0.00000000000E+00 -0.15680730768E+04  0.15680730768E+04  0.25500000000E-02 0.  1.
    5000001    1    1    2    0    0 -0.94462919146E+02 -0.67628023875E+02 -0.68982309075E+03  0.70376252333E+03  0.77000000000E+02 0.  0.
   -5000001    1    1    2    0    0  0.94462919146E+02  0.67628023875E+02 -0.86570634798E+03  0.87685419178E+03  0.77000000000E+02 0.  0.
<mgrwt>
<rscale>  0 0.28049486E+03</rscale>
<asrwt>0</asrwt>
<pdfrwt beam="1">  1        2 0.22401031E+00 0.28049486E+03</pdfrwt>
<pdfrwt beam="2">  1       -2 0.17919493E-02 0.28049486E+03</pdfrwt>
<totfact> 0.13103709E+04</totfact>
</mgrwt>
</event>
<event>
 4    1  0.5121375E-004  0.2266147E+03  0.7818608E-02  0.1129045E+00
          2   -1    0    0  501    0  0.00000000000E+00  0.00000000000E+00  0.21118187905E+04  0.21118187905E+04  0.25500000000E-02 0.  1.
         -2   -1    0    0    0  501 -0.00000000000E+00 -0.00000000000E+00 -0.60793852364E+01  0.60793857712E+01  0.25500000000E-02 0. -1.
    5000001    1    1    2    0    0  0.68723935758E+02  0.39302502258E+02  0.12896517364E+04  0.12943717654E+04  0.77000000000E+02 0.  0.
   -5000001    1    1    2    0    0 -0.68723935758E+02 -0.39302502258E+02  0.81608766893E+03  0.82352641088E+03  0.77000000000E+02 0.  0.
<mgrwt>
<rscale>  0 0.22661474E+03</rscale>
<asrwt>0</asrwt>
<pdfrwt beam="1">  1        2 0.30168860E+00 0.22661474E+03</pdfrwt>
<pdfrwt beam="2">  1       -2 0.86848307E-03 0.22661474E+03</pdfrwt>
<totfact> 0.20244636E+04</totfact>
</mgrwt>
</event>
<event>
 4    1  0.5121375E-004  0.2282725E+03  0.7818608E-02  0.1127862E+00
         -2   -1    0    0    0  501 -0.00000000000E+00  0.00000000000E+00  0.62463663185E+02  0.62463663237E+02  0.25500000000E-02 0. -1.
          2   -1    0    0  501    0  0.00000000000E+00 -0.00000000000E+00 -0.20855463851E+03  0.20855463852E+03  0.25500000000E-02 0.  1.
    5000001    1    1    2    0    0 -0.37106113796E+01  0.68679485858E+02 -0.15277792585E+02  0.10436978184E+03  0.77000000000E+02 0.  0.
   -5000001    1    1    2    0    0  0.37106113796E+01 -0.68679485858E+02 -0.13081318274E+03  0.16664851992E+03  0.77000000000E+02 0.  0.
<mgrwt>
<rscale>  0 0.22827253E+03</rscale>
<asrwt>0</asrwt>
<pdfrwt beam="1">  1        2 0.29793520E-01 0.22827253E+03</pdfrwt>
<pdfrwt beam="2">  1       -2 0.89233805E-02 0.22827253E+03</pdfrwt>
<totfact> 0.13735525E+04</totfact>
</mgrwt>
</event>
<event>
 4    1  0.5121375E-004  0.1616167E+03  0.7818608E-02  0.1186884E+00
         -2   -1    0    0    0  501 -0.00000000000E+00  0.00000000000E+00  0.28103430140E+01  0.28103441709E+01  0.25500000000E-02 0. -1.
          2   -1    0    0  501    0  0.00000000000E+00 -0.00000000000E+00 -0.23235556123E+04  0.23235556123E+04  0.25500000000E-02 0.  1.
    5000001    1    1    2    0    0 -0.76363733618E+01  0.17681851694E+02 -0.13786867024E+04  0.13809695817E+04  0.77000000000E+02 0.  0.
   -5000001    1    1    2    0    0  0.76363733618E+01 -0.17681851694E+02 -0.94205856689E+03  0.94539637482E+03  0.77000000000E+02 0.  0.
<mgrwt>
<rscale>  0 0.16161670E+03</rscale>
<asrwt>0</asrwt>
<pdfrwt beam="1">  1        2 0.33193529E+00 0.16161670E+03</pdfrwt>
<pdfrwt beam="2">  1       -2 0.40147914E-03 0.16161670E+03</pdfrwt>
<totfact> 0.47436321E+04</totfact>
</mgrwt>
</event>
<event>
 4    1  0.5121375E-004  0.2384962E+03  0.7818608E-02  0.1120799E+00
          2   -1    0    0  501    0  0.00000000000E+00  0.00000000000E+00  0.24886197322E+02  0.24886197452E+02  0.25500000000E-02 0.  1.
         -2   -1    0    0    0  501 -0.00000000000E+00 -0.00000000000E+00 -0.57140549859E+03  0.57140549860E+03  0.25500000000E-02 0. -1.
    5000001    1    1    2    0    0 -0.24170317441E+01  0.46878054671E+02 -0.78183364704E+02  0.11935255577E+03  0.77000000000E+02 0.  0.
   -5000001    1    1    2    0    0  0.24170317441E+01 -0.46878054671E+02 -0.46833593657E+03  0.47693914028E+03  0.77000000000E+02 0.  0.
<mgrwt>
<rscale>  0 0.23849621E+03</rscale>
<asrwt>0</asrwt>
<pdfrwt beam="1">  1        2 0.35551714E-02 0.23849621E+03</pdfrwt>
<pdfrwt beam="2">  1       -2 0.81629349E-01 0.23849621E+03</pdfrwt>
<totfact> 0.33528831E+03</totfact>
</mgrwt>
</event>
<event>
 4    1  0.5121375E-004  0.1922342E+03  0.7818608E-02  0.1156462E+00
          2   -1    0    0  501    0  0.00000000000E+00  0.00000000000E+00  0.13831926909E+04  0.13831926909E+04  0.25500000000E-02 0.  1.
         -2   -1    0    0    0  501 -0.00000000000E+00 -0.00000000000E+00 -0.66791117911E+01  0.66791122779E+01  0.25500000000E-02 0. -1.
    5000001    1    1    2    0    0 -0.49968945029E+02  0.10187624627E+02  0.88074792443E+03  0.88557698116E+03  0.77000000000E+02 0.  0.
   -5000001    1    1    2    0    0  0.49968945029E+02 -0.10187624627E+02  0.49576565468E+03  0.50429482203E+03  0.77000000000E+02 0.  0.
<mgrwt>
<rscale>  0 0.19223422E+03</rscale>
<asrwt>0</asrwt>
<pdfrwt beam="1">  1        2 0.19759917E+00 0.19223422E+03</pdfrwt>
<pdfrwt beam="2">  1       -2 0.95415784E-03 0.19223422E+03</pdfrwt>
<totfact> 0.39875990E+04</totfact>
</mgrwt>
</event>
<event>
 4    1  0.5121375E-004  0.1809270E+03  0.7818608E-02  0.1166909E+00
          2   -1    0    0  501    0  0.00000000000E+00  0.00000000000E+00  0.18041137713E+04  0.18041137713E+04  0.25500000000E-02 0.  1.
         -2   -1    0    0    0  501 -0.00000000000E+00 -0.00000000000E+00 -0.45361017527E+01  0.45361024694E+01  0.25500000000E-02 0. -1.
    5000001    1    1    2    0    0 -0.44220113973E+02 -0.46069619071E+00  0.72692800912E+03  0.73233118271E+03  0.77000000000E+02 0.  0.
   -5000001    1    1    2    0    0  0.44220113973E+02  0.46069619071E+00  0.10726496604E+04  0.10763186910E+04  0.77000000000E+02 0.  0.
<mgrwt>
<rscale>  0 0.18092699E+03</rscale>
<asrwt>0</asrwt>
<pdfrwt beam="1">  1        2 0.25772983E+00 0.18092699E+03</pdfrwt>
<pdfrwt beam="2">  1       -2 0.64801638E-03 0.18092699E+03</pdfrwt>
<totfact> 0.42912260E+04</totfact>
</mgrwt>
</event>
<event>
 4    1  0.5121375E-004  0.1755683E+03  0.7818608E-02  0.1172162E+00
          2   -1    0    0  501    0  0.00000000000E+00  0.00000000000E+00  0.21948346855E+04  0.21948346855E+04  0.25500000000E-02 0.  1.
         -2   -1    0    0    0  501 -0.00000000000E+00 -0.00000000000E+00 -0.35109949935E+01  0.35109959195E+01  0.25500000000E-02 0. -1.
    5000001    1    1    2    0    0 -0.28422617292E+02  0.28656371611E+02  0.94332225107E+03  0.94731985209E+03  0.77000000000E+02 0.  0.
   -5000001    1    1    2    0    0  0.28422617292E+02 -0.28656371611E+02  0.12480014395E+04  0.12510258293E+04  0.77000000000E+02 0.  0.
<mgrwt>
<rscale>  0 0.17556827E+03</rscale>
<asrwt>0</asrwt>
<pdfrwt beam="1">  1        2 0.31354829E+00 0.17556827E+03</pdfrwt>
<pdfrwt beam="2">  1       -2 0.50157001E-03 0.17556827E+03</pdfrwt>
<totfact> 0.40079793E+04</totfact>
</mgrwt>
</event>
<event>
 4    1  0.5121375E-004  0.2334400E+03  0.7818608E-02  0.1124242E+00
         -2   -1    0    0    0  501 -0.00000000000E+00  0.00000000000E+00  0.81254904704E+01  0.81254908705E+01  0.25500000000E-02 0. -1.
          2   -1    0    0  501    0  0.00000000000E+00 -0.00000000000E+00 -0.16766439593E+04  0.16766439593E+04  0.25500000000E-02 0.  1.
    5000001    1    1    2    0    0 -0.76400618759E+02 -0.42489541189E+02 -0.88637239616E+03  0.89399521270E+03  0.77000000000E+02 0.  0.
   -5000001    1    1    2    0    0  0.76400618759E+02  0.42489541189E+02 -0.78214607270E+03  0.79077423751E+03  0.77000000000E+02 0.  0.
<mgrwt>
<rscale>  0 0.23343997E+03</rscale>
<asrwt>0</asrwt>
<pdfrwt beam="1">  1        2 0.23952034E+00 0.23343997E+03</pdfrwt>
<pdfrwt beam="2">  1       -2 0.11607855E-02 0.23343997E+03</pdfrwt>
<totfact> 0.21677139E+04</totfact>
</mgrwt>
</event>
<event>
 4    1  0.5121375E-004  0.2368206E+03  0.7818608E-02  0.1121929E+00
         -2   -1    0    0    0  501 -0.00000000000E+00  0.00000000000E+00  0.22511779107E+02  0.22511779252E+02  0.25500000000E-02 0. -1.
          2   -1    0    0  501    0  0.00000000000E+00 -0.00000000000E+00 -0.62282928529E+03  0.62282928530E+03  0.25500000000E-02 0.  1.
    5000001    1    1    2    0    0  0.88912980193E+02  0.89930693841E+01 -0.32816184256E+03  0.34871992810E+03  0.77000000000E+02 0.  0.
   -5000001    1    1    2    0    0 -0.88912980193E+02 -0.89930693841E+01 -0.27215566363E+03  0.29662113645E+03  0.77000000000E+02 0.  0.
<mgrwt>
<rscale>  0 0.23682057E+03</rscale>
<asrwt>0</asrwt>
<pdfrwt beam="1">  1        2 0.88975601E-01 0.23682057E+03</pdfrwt>
<pdfrwt beam="2">  1       -2 0.32159688E-02 0.23682057E+03</pdfrwt>
<totfact> 0.19796258E+04</totfact>
</mgrwt>
</event>
<event>
 4    1  0.5121375E-004  0.3037939E+03  0.7818608E-02  0.1083359E+00
          2   -1    0    0  501    0  0.00000000000E+00  0.00000000000E+00  0.96625221357E+03  0.96625221357E+03  0.25500000000E-02 0.  1.
         -2   -1    0    0    0  501 -0.00000000000E+00 -0.00000000000E+00 -0.23878527791E+02  0.23878527927E+02  0.25500000000E-02 0. -1.
    5000001    1    1    2    0    0 -0.12811287088E+03  0.11043825031E+02  0.55160483330E+03  0.57160455375E+03  0.77000000000E+02 0.  0.
   -5000001    1    1    2    0    0  0.12811287088E+03 -0.11043825031E+02  0.39076885248E+03  0.41852618774E+03  0.77000000000E+02 0.  0.
<mgrwt>
<rscale>  0 0.30379388E+03</rscale>
<asrwt>0</asrwt>
<pdfrwt beam="1">  1        2 0.13803606E+00 0.30379388E+03</pdfrwt>
<pdfrwt beam="2">  1       -2 0.34112175E-02 0.30379388E+03</pdfrwt>
<totfact> 0.10673046E+04</totfact>
</mgrwt>
</event>
<event>
 4    1  0.5121375E-004  0.1772968E+03  0.7818608E-02  0.1170445E+00
          2   -1    0    0  501    0  0.00000000000E+00  0.00000000000E+00  0.58843509444E+03  0.58843509445E+03  0.25500000000E-02 0.  1.
         -2   -1    0    0    0  501 -0.00000000000E+00 -0.00000000000E+00 -0.13354977068E+02  0.13354977311E+02  0.25500000000E-02 0. -1.
    5000001    1    1    2    0    0 -0.16631683314E+02  0.39756285251E+02  0.25866652579E+03  0.27330303085E+03  0.77000000000E+02 0.  0.
   -5000001    1    1    2    0    0  0.16631683314E+02 -0.39756285251E+02  0.31641359158E+03  0.32848704091E+03  0.77000000000E+02 0.  0.
<mgrwt>
<rscale>  0 0.17729678E+03</rscale>
<asrwt>0</asrwt>
<pdfrwt beam="1">  1        2 0.84062158E-01 0.17729678E+03</pdfrwt>
<pdfrwt beam="2">  1       -2 0.19078538E-02 0.17729678E+03</pdfrwt>
<totfact> 0.44552911E+04</totfact>
</mgrwt>
</event>
<event>
 4    1  0.5121375E-004  0.1718380E+03  0.7818608E-02  0.1175945E+00
         -2   -1    0    0    0  501 -0.00000000000E+00  0.00000000000E+00  0.43082431187E+03  0.43082431188E+03  0.25500000000E-02 0. -1.
          2   -1    0    0  501    0  0.00000000000E+00 -0.00000000000E+00 -0.17134776261E+02  0.17134776451E+02  0.25500000000E-02 0.  1.
    5000001    1    1    2    0    0  0.33938244698E+02  0.51545546129E+01  0.25005153795E+03  0.26388093057E+03  0.77000000000E+02 0.  0.
   -5000001    1    1    2    0    0 -0.33938244698E+02 -0.51545546129E+01  0.16363799766E+03  0.18407815776E+03  0.77000000000E+02 0.  0.
<mgrwt>
<rscale>  0 0.17183804E+03</rscale>
<asrwt>0</asrwt>
<pdfrwt beam="1">  1        2 0.24478255E-02 0.17183804E+03</pdfrwt>
<pdfrwt beam="2">  1       -2 0.61546323E-01 0.17183804E+03</pdfrwt>
<totfact> 0.99521634E+03</totfact>
</mgrwt>
</event>
<event>
 4    1  0.5121375E-004  0.2931800E+03  0.7818608E-02  0.1088700E+00
          2   -1    0    0  501    0  0.00000000000E+00  0.00000000000E+00  0.11914900064E+03  0.11914900066E+03  0.25500000000E-02 0.  1.
         -2   -1    0    0    0  501 -0.00000000000E+00 -0.00000000000E+00 -0.18035089284E+03  0.18035089286E+03  0.25500000000E-02 0. -1.
    5000001    1    1    2    0    0 -0.12358267706E+03 -0.72260342145E+01 -0.46252276659E+02  0.15294824855E+03  0.77000000000E+02 0.  0.
   -5000001    1    1    2    0    0  0.12358267706E+03  0.72260342145E+01 -0.14949615550E+02  0.14655164497E+03  0.77000000000E+02 0.  0.
<mgrwt>
<rscale>  0 0.29318000E+03</rscale>
<asrwt>0</asrwt>
<pdfrwt beam="1">  1        2 0.17021286E-01 0.29318000E+03</pdfrwt>
<pdfrwt beam="2">  1       -2 0.25764413E-01 0.29318000E+03</pdfrwt>
<totfact> 0.45023947E+03</totfact>
</mgrwt>
</event>
<event>
 4    1  0.5121375E-004  0.1952435E+03  0.7818608E-02  0.1153815E+00
         -2   -1    0    0    0  501 -0.00000000000E+00  0.00000000000E+00  0.37423296024E+02  0.37423296111E+02  0.25500000000E-02 0. -1.
          2   -1    0    0  501    0  0.00000000000E+00 -0.00000000000E+00 -0.25465444673E+03  0.25465444674E+03  0.25500000000E-02 0.  1.
    5000001    1    1    2    0    0 -0.36789452983E+02  0.41737891832E+02 -0.14224965258E+03  0.17105402399E+03  0.77000000000E+02 0.  0.
   -5000001    1    1    2    0    0  0.36789452983E+02 -0.41737891832E+02 -0.74981498127E+02  0.12102371886E+03  0.77000000000E+02 0.  0.
<mgrwt>
<rscale>  0 0.19524353E+03</rscale>
<asrwt>0</asrwt>
<pdfrwt beam="1">  1        2 0.36379206E-01 0.19524353E+03</pdfrwt>
<pdfrwt beam="2">  1       -2 0.53461853E-02 0.19524353E+03</pdfrwt>
<totfact> 0.24094564E+04</totfact>
</mgrwt>
</event>
<event>
 4    1  0.5121375E-004  0.3681084E+03  0.7818608E-02  0.1055419E+00
          2   -1    0    0  501    0  0.00000000000E+00  0.00000000000E+00  0.93113661914E+03  0.93113661915E+03  0.25500000000E-02 0.  1.
         -2   -1    0    0    0  501 -0.00000000000E+00 -0.00000000000E+00 -0.36381279144E+02  0.36381279233E+02  0.25500000000E-02 0. -1.
    5000001    1    1    2    0    0 -0.98034715180E+02  0.11344205546E+03  0.64171636960E+03  0.66348233160E+03  0.77000000000E+02 0.  0.
   -5000001    1    1    2    0    0  0.98034715180E+02 -0.11344205546E+03  0.25303897040E+03  0.30403556678E+03  0.77000000000E+02 0.  0.
<mgrwt>
<rscale>  0 0.36810836E+03</rscale>
<asrwt>0</asrwt>
<pdfrwt beam="1">  1        2 0.13301951E+00 0.36810836E+03</pdfrwt>
<pdfrwt beam="2">  1       -2 0.51973259E-02 0.36810836E+03</pdfrwt>
<totfact> 0.59507450E+03</totfact>
</mgrwt>
</event>
<event>
 4    1  0.5121375E-004  0.2103179E+03  0.7818608E-02  0.1141315E+00
          2   -1    0    0  501    0  0.00000000000E+00  0.00000000000E+00  0.33518064966E+03  0.33518064967E+03  0.25500000000E-02 0.  1.
         -2   -1    0    0    0  501 -0.00000000000E+00 -0.00000000000E+00 -0.32992358362E+02  0.32992358461E+02  0.25500000000E-02 0. -1.
    5000001    1    1    2    0    0 -0.25181650598E+02 -0.99141511109E+01  0.35015121860E+02  0.88811399482E+02  0.77000000000E+02 0.  0.
   -5000001    1    1    2    0    0  0.25181650598E+02  0.99141511109E+01  0.26717316944E+03  0.27936160865E+03  0.77000000000E+02 0.  0.
<mgrwt>
<rscale>  0 0.21031786E+03</rscale>
<asrwt>0</asrwt>
<pdfrwt beam="1">  1        2 0.47882950E-01 0.21031786E+03</pdfrwt>
<pdfrwt beam="2">  1       -2 0.47131941E-02 0.21031786E+03</pdfrwt>
<totfact> 0.21841352E+04</totfact>
</mgrwt>
</event>
<event>
 4    1  0.5121375E-004  0.8024599E+03  0.7818608E-02  0.9556463E-01
         -2   -1    0    0    0  501 -0.00000000000E+00  0.00000000000E+00  0.39308852900E+03  0.39308852901E+03  0.25500000000E-02 0. -1.
          2   -1    0    0  501    0  0.00000000000E+00 -0.00000000000E+00 -0.40953995105E+03  0.40953995106E+03  0.25500000000E-02 0.  1.
    5000001    1    1    2    0    0 -0.30676928026E+03 -0.17963808305E+03  0.16115929020E+03  0.39784236704E+03  0.77000000000E+02 0.  0.
   -5000001    1    1    2    0    0  0.30676928026E+03  0.17963808305E+03 -0.17761071225E+03  0.40478611303E+03  0.77000000000E+02 0.  0.
<mgrwt>
<rscale>  0 0.80245986E+03</rscale>
<asrwt>0</asrwt>
<pdfrwt beam="1">  1        2 0.58505707E-01 0.80245986E+03</pdfrwt>
<pdfrwt beam="2">  1       -2 0.56155504E-01 0.80245986E+03</pdfrwt>
<totfact> 0.25241375E+02</totfact>
</mgrwt>
</event>
<event>
 4    1  0.5121375E-004  0.2780649E+03  0.7818608E-02  0.1096751E+00
         -2   -1    0    0    0  501 -0.00000000000E+00  0.00000000000E+00  0.31149192602E+02  0.31149192706E+02  0.25500000000E-02 0. -1.
          2   -1    0    0  501    0  0.00000000000E+00 -0.00000000000E+00 -0.62056270376E+03  0.62056270376E+03  0.25500000000E-02 0.  1.
    5000001    1    1    2    0    0  0.11074133131E+03  0.30139930927E+01 -0.21598009493E+03  0.25465491949E+03  0.77000000000E+02 0.  0.
   -5000001    1    1    2    0    0 -0.11074133131E+03 -0.30139930927E+01 -0.37343341623E+03  0.39705697698E+03  0.77000000000E+02 0.  0.
<mgrwt>
<rscale>  0 0.27806494E+03</rscale>
<asrwt>0</asrwt>
<pdfrwt beam="1">  1        2 0.88651807E-01 0.27806494E+03</pdfrwt>
<pdfrwt beam="2">  1       -2 0.44498851E-02 0.27806494E+03</pdfrwt>
<totfact> 0.12314725E+04</totfact>
</mgrwt>
</event>
<event>
 4    1  0.5121375E-004  0.1754396E+03  0.7818608E-02  0.1172291E+00
          2   -1    0    0  501    0  0.00000000000E+00  0.00000000000E+00  0.40522037969E+01  0.40522045993E+01  0.25500000000E-02 0.  1.
         -2   -1    0    0    0  501 -0.00000000000E+00 -0.00000000000E+00 -0.18989090552E+04  0.18989090552E+04  0.25500000000E-02 0. -1.
    5000001    1    1    2    0    0  0.31470718636E+01  0.20970841569E+02 -0.55392863501E+03  0.55965669204E+03  0.77000000000E+02 0.  0.
   -5000001    1    1    2    0    0 -0.31470718636E+01 -0.20970841569E+02 -0.13409282164E+04  0.13433045678E+04  0.77000000000E+02 0.  0.
<mgrwt>
<rscale>  0 0.17543964E+03</rscale>
<asrwt>0</asrwt>
<pdfrwt beam="1">  1        2 0.57888753E-03 0.17543964E+03</pdfrwt>
<pdfrwt beam="2">  1       -2 0.27127215E+00 0.17543964E+03</pdfrwt>
<totfact> 0.16466559E+03</totfact>
</mgrwt>
</event>
<event>
 4    1  0.5121375E-004  0.2254865E+03  0.7818608E-02  0.1129858E+00
          2   -1    0    0  501    0  0.00000000000E+00  0.00000000000E+00  0.80243805482E+03  0.80243805482E+03  0.25500000000E-02 0.  1.
         -2   -1    0    0    0  501 -0.00000000000E+00 -0.00000000000E+00 -0.15840522862E+02  0.15840523067E+02  0.25500000000E-02 0. -1.
    5000001    1    1    2    0    0  0.59218899899E+02  0.54281817852E+02  0.32751118620E+03  0.34589878713E+03  0.77000000000E+02 0.  0.
   -5000001    1    1    2    0    0 -0.59218899899E+02 -0.54281817852E+02  0.45908634576E+03  0.47237979076E+03  0.77000000000E+02 0.  0.
<mgrwt>
<rscale>  0 0.22548648E+03</rscale>
<asrwt>0</asrwt>
<pdfrwt beam="1">  1        2 0.11463401E+00 0.22548648E+03</pdfrwt>
<pdfrwt beam="2">  1       -2 0.22629319E-02 0.22548648E+03</pdfrwt>
<totfact> 0.24573909E+04</totfact>
</mgrwt>
</event>
<event>
 4    1  0.5121375E-004  0.2074881E+03  0.7818608E-02  0.1143571E+00
         -2   -1    0    0    0  501 -0.00000000000E+00  0.00000000000E+00  0.72623774871E+01  0.72623779348E+01  0.25500000000E-02 0. -1.
          2   -1    0    0  501    0  0.00000000000E+00 -0.00000000000E+00 -0.14819979820E+04  0.14819979820E+04  0.25500000000E-02 0.  1.
    5000001    1    1    2    0    0  0.18371134902E+02  0.66803036073E+02 -0.69571013247E+03  0.70337879741E+03  0.77000000000E+02 0.  0.
   -5000001    1    1    2    0    0 -0.18371134902E+02 -0.66803036073E+02 -0.77902547202E+03  0.78588156250E+03  0.77000000000E+02 0.  0.
<mgrwt>
<rscale>  0 0.20748811E+03</rscale>
<asrwt>0</asrwt>
<pdfrwt beam="1">  1        2 0.21171380E+00 0.20748811E+03</pdfrwt>
<pdfrwt beam="2">  1       -2 0.10374835E-02 0.20748811E+03</pdfrwt>
<totfact> 0.31657531E+04</totfact>
</mgrwt>
</event>
<event>
 4    1  0.5121375E-004  0.7375072E+03  0.7818608E-02  0.9655156E-01
         -2   -1    0    0    0  501 -0.00000000000E+00  0.00000000000E+00  0.18594586492E+03  0.18594586494E+03  0.25500000000E-02 0. -1.
          2   -1    0    0  501    0  0.00000000000E+00 -0.00000000000E+00 -0.73128382641E+03  0.73128382641E+03  0.25500000000E-02 0.  1.
    5000001    1    1    2    0    0  0.33623395291E+03  0.26487628960E+02 -0.43142987971E+03  0.55300597346E+03  0.77000000000E+02 0.  0.
   -5000001    1    1    2    0    0 -0.33623395291E+03 -0.26487628960E+02 -0.11390808178E+03  0.36422371789E+03  0.77000000000E+02 0.  0.
<mgrwt>
<rscale>  0 0.73750716E+03</rscale>
<asrwt>0</asrwt>
<pdfrwt beam="1">  1        2 0.10446912E+00 0.73750716E+03</pdfrwt>
<pdfrwt beam="2">  1       -2 0.26563695E-01 0.73750716E+03</pdfrwt>
<totfact> 0.54892672E+02</totfact>
</mgrwt>
</event>
<event>
 4    1  0.5121375E-004  0.4412721E+03  0.7818608E-02  0.1030357E+00
          2   -1    0    0  501    0  0.00000000000E+00  0.00000000000E+00  0.11562596631E+04  0.11562596631E+04  0.25500000000E-02 0.  1.
         -2   -1    0    0    0  501 -0.00000000000E+00 -0.00000000000E+00 -0.42101501011E+02  0.42101501088E+02  0.25500000000E-02 0. -1.
    5000001    1    1    2    0    0  0.62975092044E+02 -0.18849875897E+03  0.71198387995E+03  0.74320097528E+03  0.77000000000E+02 0.  0.
   -5000001    1    1    2    0    0 -0.62975092044E+02  0.18849875897E+03  0.40217428212E+03  0.45516018889E+03  0.77000000000E+02 0.  0.
<mgrwt>
<rscale>  0 0.44127210E+03</rscale>
<asrwt>0</asrwt>
<pdfrwt beam="1">  1        2 0.16517993E+00 0.44127210E+03</pdfrwt>
<pdfrwt beam="2">  1       -2 0.60145011E-02 0.44127210E+03</pdfrwt>
<totfact> 0.35074269E+03</totfact>
</mgrwt>
</event>
<event>
 4    1  0.5121375E-004  0.2045614E+03  0.7818608E-02  0.1145947E+00
         -2   -1    0    0    0  501 -0.00000000000E+00  0.00000000000E+00  0.12414076110E+02  0.12414076371E+02  0.25500000000E-02 0. -1.
          2   -1    0    0  501    0  0.00000000000E+00 -0.00000000000E+00 -0.84269991789E+03  0.84269991789E+03  0.25500000000E-02 0.  1.
    5000001    1    1    2    0    0  0.16131409791E+02  0.40868658535E+02 -0.62837043897E+03  0.63459347476E+03  0.77000000000E+02 0.  0.
   -5000001    1    1    2    0    0 -0.16131409791E+02 -0.40868658535E+02 -0.20191540281E+03  0.22052051951E+03  0.77000000000E+02 0.  0.
<mgrwt>
<rscale>  0 0.20456139E+03</rscale>
<asrwt>0</asrwt>
<pdfrwt beam="1">  1        2 0.12038567E+00 0.20456139E+03</pdfrwt>
<pdfrwt beam="2">  1       -2 0.17734400E-02 0.20456139E+03</pdfrwt>
<totfact> 0.32826590E+04</totfact>
</mgrwt>
</event>
<event>
 4    1  0.5121375E-004  0.2268232E+03  0.7818608E-02  0.1128896E+00
         -2   -1    0    0    0  501 -0.00000000000E+00  0.00000000000E+00  0.57061475561E+01  0.57061481259E+01  0.25500000000E-02 0. -1.
          2   -1    0    0  501    0  0.00000000000E+00 -0.00000000000E+00 -0.22540928866E+04  0.22540928866E+04  0.25500000000E-02 0.  1.
    5000001    1    1    2    0    0  0.49706743065E+02  0.66651674060E+02 -0.11687276342E+04  0.11742088779E+04  0.77000000000E+02 0.  0.
   -5000001    1    1    2    0    0 -0.49706743065E+02 -0.66651674060E+02 -0.10796591049E+04  0.10855901569E+04  0.77000000000E+02 0.  0.
<mgrwt>
<rscale>  0 0.22682317E+03</rscale>
<asrwt>0</asrwt>
<pdfrwt beam="1">  1        2 0.32201270E+00 0.22682317E+03</pdfrwt>
<pdfrwt beam="2">  1       -2 0.81516542E-03 0.22682317E+03</pdfrwt>
<totfact> 0.18919101E+04</totfact>
</mgrwt>
</event>
<event>
 4    1  0.5121375E-004  0.4728762E+03  0.7818608E-02  0.1021112E+00
          2   -1    0    0  501    0  0.00000000000E+00  0.00000000000E+00  0.10500432447E+04  0.10500432447E+04  0.25500000000E-02 0.  1.
         -2   -1    0    0    0  501 -0.00000000000E+00 -0.00000000000E+00 -0.53238734192E+02  0.53238734253E+02  0.25500000000E-02 0. -1.
    5000001    1    1    2    0    0  0.20237061182E+03  0.37082854410E+02  0.70240076072E+03  0.73595165009E+03  0.77000000000E+02 0.  0.
   -5000001    1    1    2    0    0 -0.20237061182E+03 -0.37082854410E+02  0.29440374983E+03  0.36733032890E+03  0.77000000000E+02 0.  0.
<mgrwt>
<rscale>  0 0.47287619E+03</rscale>
<asrwt>0</asrwt>
<pdfrwt beam="1">  1        2 0.15000616E+00 0.47287619E+03</pdfrwt>
<pdfrwt beam="2">  1       -2 0.76055343E-02 0.47287619E+03</pdfrwt>
<totfact> 0.27955329E+03</totfact>
</mgrwt>
</event>
<event>
 4    1  0.5121375E-004  0.2258035E+03  0.7818608E-02  0.1129629E+00
         -2   -1    0    0    0  501 -0.00000000000E+00  0.00000000000E+00  0.95437780886E+01  0.95437784292E+01  0.25500000000E-02 0. -1.
          2   -1    0    0  501    0  0.00000000000E+00 -0.00000000000E+00 -0.13356141934E+04  0.13356141934E+04  0.25500000000E-02 0.  1.
    5000001    1    1    2    0    0 -0.50982937776E+02  0.40822143289E+02 -0.96398310740E+03  0.96925648756E+03  0.77000000000E+02 0.  0.
   -5000001    1    1    2    0    0  0.50982937776E+02 -0.40822143289E+02 -0.36208730794E+03  0.37590148430E+03  0.77000000000E+02 0.  0.
<mgrwt>
<rscale>  0 0.22580350E+03</rscale>
<asrwt>0</asrwt>
<pdfrwt beam="1">  1        2 0.19080191E+00 0.22580350E+03</pdfrwt>
<pdfrwt beam="2">  1       -2 0.13633977E-02 0.22580350E+03</pdfrwt>
<totfact> 0.25423541E+04</totfact>
</mgrwt>
</event>
<event>
 4    1  0.5121375E-004  0.3883848E+03  0.7818608E-02  0.1047877E+00
         -2   -1    0    0    0  501 -0.00000000000E+00  0.00000000000E+00  0.14734088430E+02  0.14734088651E+02  0.25500000000E-02 0. -1.
          2   -1    0    0  501    0  0.00000000000E+00 -0.00000000000E+00 -0.25594184334E+04  0.25594184334E+04  0.25500000000E-02 0.  1.
    5000001    1    1    2    0    0 -0.52993928628E+02 -0.15057974850E+03 -0.74631208975E+03  0.76706802335E+03  0.77000000000E+02 0.  0.
   -5000001    1    1    2    0    0  0.52993928628E+02  0.15057974850E+03 -0.17983722552E+04  0.18070844987E+04  0.77000000000E+02 0.  0.
<mgrwt>
<rscale>  0 0.38838485E+03</rscale>
<asrwt>0</asrwt>
<pdfrwt beam="1">  1        2 0.36563092E+00 0.38838485E+03</pdfrwt>
<pdfrwt beam="2">  1       -2 0.21048714E-02 0.38838485E+03</pdfrwt>
<totfact> 0.33367086E+03</totfact>
</mgrwt>
</event>
<event>
 4    1  0.5121375E-004  0.2804959E+03  0.7818608E-02  0.1095418E+00
         -2   -1    0    0    0  501 -0.00000000000E+00  0.00000000000E+00  0.56639779097E+03  0.56639779098E+03  0.25500000000E-02 0. -1.
          2   -1    0    0  501    0  0.00000000000E+00 -0.00000000000E+00 -0.34727346976E+02  0.34727347070E+02  0.25500000000E-02 0.  1.
    5000001    1    1    2    0    0  0.79474030517E+02  0.70116977531E+02  0.37316009908E+03  0.39548700562E+03  0.77000000000E+02 0.  0.
   -5000001    1    1    2    0    0 -0.79474030517E+02 -0.70116977531E+02  0.15851034491E+03  0.20563813243E+03  0.77000000000E+02 0.  0.
<mgrwt>
<rscale>  0 0.28049594E+03</rscale>
<asrwt>0</asrwt>
<pdfrwt beam="1">  1        2 0.49610499E-02 0.28049594E+03</pdfrwt>
<pdfrwt beam="2">  1       -2 0.80913965E-01 0.28049594E+03</pdfrwt>
<totfact> 0.22044943E+03</totfact>
</mgrwt>
</event>
<event>
 4    1  0.5121375E-004  0.4288559E+03  0.7818608E-02  0.1034222E+00
          2   -1    0    0  501    0  0.00000000000E+00  0.00000000000E+00  0.12906553011E+04  0.12906553011E+04  0.25500000000E-02 0.  1.
         -2   -1    0    0    0  501 -0.00000000000E+00 -0.00000000000E+00 -0.35624805117E+02  0.35624805208E+02  0.25500000000E-02 0. -1.
    5000001    1    1    2    0    0  0.38247600876E+02 -0.16988488453E+03  0.32251218839E+03  0.37452218175E+03  0.77000000000E+02 0.  0.
   -5000001    1    1    2    0    0 -0.38247600876E+02  0.16988488453E+03  0.93251830758E+03  0.95175792454E+03  0.77000000000E+02 0.  0.
<mgrwt>
<rscale>  0 0.42885589E+03</rscale>
<asrwt>0</asrwt>
<pdfrwt beam="1">  1        2 0.18437930E+00 0.42885589E+03</pdfrwt>
<pdfrwt beam="2">  1       -2 0.50892586E-02 0.42885589E+03</pdfrwt>
<totfact> 0.38309743E+03</totfact>
</mgrwt>
</event>
<event>
 4    1  0.5121375E-004  0.4586069E+03  0.7818608E-02  0.1025186E+00
         -2   -1    0    0    0  501 -0.00000000000E+00  0.00000000000E+00  0.56577910286E+02  0.56577910344E+02  0.25500000000E-02 0. -1.
          2   -1    0    0  501    0  0.00000000000E+00 -0.00000000000E+00 -0.92933929847E+03  0.92933929847E+03  0.25500000000E-02 0.  1.
    5000001    1    1    2    0    0  0.64935460839E+02  0.20598317504E+03 -0.43138822438E+03  0.48853913109E+03  0.77000000000E+02 0.  0.
   -5000001    1    1    2    0    0 -0.64935460839E+02 -0.20598317504E+03 -0.44137316380E+03  0.49737807773E+03  0.77000000000E+02 0.  0.
<mgrwt>
<rscale>  0 0.45860691E+03</rscale>
<asrwt>0</asrwt>
<pdfrwt beam="1">  1        2 0.13276275E+00 0.45860691E+03</pdfrwt>
<pdfrwt beam="2">  1       -2 0.80825592E-02 0.45860691E+03</pdfrwt>
<totfact> 0.30055216E+03</totfact>
</mgrwt>
</event>
<event>
 4    1  0.5121375E-004  0.2319069E+03  0.7818608E-02  0.1125305E+00
         -2   -1    0    0    0  501 -0.00000000000E+00  0.00000000000E+00  0.60238412134E+01  0.60238417531E+01  0.25500000000E-02 0. -1.
          2   -1    0    0  501    0  0.00000000000E+00 -0.00000000000E+00 -0.22319977314E+04  0.22319977314E+04  0.25500000000E-02 0.  1.
    5000001    1    1    2    0    0 -0.50285495070E+01 -0.79885366106E+02 -0.79157361723E+03  0.79932768594E+03  0.77000000000E+02 0.  0.
   -5000001    1    1    2    0    0  0.50285495070E+01  0.79885366106E+02 -0.14344002729E+04  0.14386938872E+04  0.77000000000E+02 0.  0.
<mgrwt>
<rscale>  0 0.23190688E+03</rscale>
<asrwt>0</asrwt>
<pdfrwt beam="1">  1        2 0.31885629E+00 0.23190688E+03</pdfrwt>
<pdfrwt beam="2">  1       -2 0.86055021E-03 0.23190688E+03</pdfrwt>
<totfact> 0.17947364E+04</totfact>
</mgrwt>
</event>
<event>
 4    1  0.5121375E-004  0.2455846E+03  0.7818608E-02  0.1116127E+00
         -2   -1    0    0    0  501 -0.00000000000E+00  0.00000000000E+00  0.10204452582E+02  0.10204452901E+02  0.25500000000E-02 0. -1.
          2   -1    0    0  501    0  0.00000000000E+00 -0.00000000000E+00 -0.14775854602E+04  0.14775854603E+04  0.25500000000E-02 0.  1.
    5000001    1    1    2    0    0 -0.62492852773E+02 -0.69459860374E+02 -0.85768634346E+03  0.86618987099E+03  0.77000000000E+02 0.  0.
   -5000001    1    1    2    0    0  0.62492852773E+02  0.69459860374E+02 -0.60969466421E+03  0.62160004216E+03  0.77000000000E+02 0.  0.
<mgrwt>
<rscale>  0 0.24558462E+03</rscale>
<asrwt>0</asrwt>
<pdfrwt beam="1">  1        2 0.21108350E+00 0.24558462E+03</pdfrwt>
<pdfrwt beam="2">  1       -2 0.14577799E-02 0.24558462E+03</pdfrwt>
<totfact> 0.19591381E+04</totfact>
</mgrwt>
</event>
<event>
 4    1  0.5121375E-004  0.3181700E+03  0.7818608E-02  0.1076495E+00
         -2   -1    0    0    0  501 -0.00000000000E+00  0.00000000000E+00  0.30113179044E+02  0.30113179152E+02  0.25500000000E-02 0. -1.
          2   -1    0    0  501    0  0.00000000000E+00 -0.00000000000E+00 -0.84043054001E+03  0.84043054002E+03  0.25500000000E-02 0.  1.
    5000001    1    1    2    0    0  0.53544270272E+02  0.11693039912E+03 -0.25936483987E+03  0.29956439588E+03  0.77000000000E+02 0.  0.
   -5000001    1    1    2    0    0 -0.53544270272E+02 -0.11693039912E+03 -0.55095252110E+03  0.57097932329E+03  0.77000000000E+02 0.  0.
<mgrwt>
<rscale>  0 0.31816999E+03</rscale>
<asrwt>0</asrwt>
<pdfrwt beam="1">  1        2 0.12006149E+00 0.31816999E+03</pdfrwt>
<pdfrwt beam="2">  1       -2 0.43018833E-02 0.31816999E+03</pdfrwt>
<totfact> 0.90386716E+03</totfact>
</mgrwt>
</event>
<event>
 4    1  0.5121375E-004  0.4363733E+03  0.7818608E-02  0.1031865E+00
          2   -1    0    0  501    0  0.00000000000E+00  0.00000000000E+00  0.12107963595E+03  0.12107963598E+03  0.25500000000E-02 0.  1.
         -2   -1    0    0    0  501 -0.00000000000E+00 -0.00000000000E+00 -0.39317432382E+03  0.39317432383E+03  0.25500000000E-02 0. -1.
    5000001    1    1    2    0    0  0.69008227554E+02  0.15327400027E+03 -0.27257404996E+03  0.32936403468E+03  0.77000000000E+02 0.  0.
   -5000001    1    1    2    0    0 -0.69008227554E+02 -0.15327400027E+03  0.47936208407E+00  0.18488992513E+03  0.77000000000E+02 0.  0.
<mgrwt>
<rscale>  0 0.43637325E+03</rscale>
<asrwt>0</asrwt>
<pdfrwt beam="1">  1        2 0.17297091E-01 0.43637325E+03</pdfrwt>
<pdfrwt beam="2">  1       -2 0.56167760E-01 0.43637325E+03</pdfrwt>
<totfact> 0.10057225E+03</totfact>
</mgrwt>
</event>
<event>
 4    1  0.5121375E-004  0.2369530E+03  0.7818608E-02  0.1121839E+00
          2   -1    0    0  501    0  0.00000000000E+00  0.00000000000E+00  0.13650774028E+03  0.13650774030E+03  0.25500000000E-02 0.  1.
         -2   -1    0    0    0  501 -0.00000000000E+00 -0.00000000000E+00 -0.10282698221E+03  0.10282698224E+03  0.25500000000E-02 0. -1.
    5000001    1    1    2    0    0  0.13143099098E+02  0.88505873803E+02  0.27023794304E+02  0.12110043852E+03  0.77000000000E+02 0.  0.
   -5000001    1    1    2    0    0 -0.13143099098E+02 -0.88505873803E+02  0.66569637608E+01  0.11823428402E+03  0.77000000000E+02 0.  0.
<mgrwt>
<rscale>  0 0.23695298E+03</rscale>
<asrwt>0</asrwt>
<pdfrwt beam="1">  1        2 0.19501106E-01 0.23695298E+03</pdfrwt>
<pdfrwt beam="2">  1       -2 0.14689569E-01 0.23695298E+03</pdfrwt>
<totfact> 0.99368823E+03</totfact>
</mgrwt>
</event>
<event>
 4    1  0.5121375E-004  0.1783480E+03  0.7818608E-02  0.1169412E+00
         -2   -1    0    0    0  501 -0.00000000000E+00  0.00000000000E+00  0.82727363424E+01  0.82727367354E+01  0.25500000000E-02 0. -1.
          2   -1    0    0  501    0  0.00000000000E+00 -0.00000000000E+00 -0.96122947165E+03  0.96122947165E+03  0.25500000000E-02 0.  1.
    5000001    1    1    2    0    0  0.92251821743E+01  0.36350507539E+02 -0.61145527265E+03  0.61742450051E+03  0.77000000000E+02 0.  0.
   -5000001    1    1    2    0    0 -0.92251821743E+01 -0.36350507539E+02 -0.34150146266E+03  0.35207770788E+03  0.77000000000E+02 0.  0.
<mgrwt>
<rscale>  0 0.17834795E+03</rscale>
<asrwt>0</asrwt>
<pdfrwt beam="1">  1        2 0.13731842E+00 0.17834795E+03</pdfrwt>
<pdfrwt beam="2">  1       -2 0.11818201E-02 0.17834795E+03</pdfrwt>
<totfact> 0.49417387E+04</totfact>
</mgrwt>
</event>
<event>
 4    1  0.5121375E-004  0.1956505E+03  0.7818608E-02  0.1153461E+00
         -2   -1    0    0    0  501 -0.00000000000E+00  0.00000000000E+00  0.48918549105E+02  0.48918549172E+02  0.25500000000E-02 0. -1.
          2   -1    0    0  501    0  0.00000000000E+00 -0.00000000000E+00 -0.19562685233E+03  0.19562685235E+03  0.25500000000E-02 0.  1.
    5000001    1    1    2    0    0  0.16231626537E+02  0.53123213785E+02 -0.43901869094E+02  0.10460361204E+03  0.77000000000E+02 0.  0.
   -5000001    1    1    2    0    0 -0.16231626537E+02 -0.53123213785E+02 -0.10280643414E+03  0.13994178948E+03  0.77000000000E+02 0.  0.
<mgrwt>
<rscale>  0 0.19565052E+03</rscale>
<asrwt>0</asrwt>
<pdfrwt beam="1">  1        2 0.27946693E-01 0.19565052E+03</pdfrwt>
<pdfrwt beam="2">  1       -2 0.69883643E-02 0.19565052E+03</pdfrwt>
<totfact> 0.21314356E+04</totfact>
</mgrwt>
</event>
<event>
 4    1  0.5121375E-004  0.4961173E+03  0.7818608E-02  0.1014797E+00
          2   -1    0    0  501    0  0.00000000000E+00  0.00000000000E+00  0.13610882206E+03  0.13610882208E+03  0.25500000000E-02 0.  1.
         -2   -1    0    0    0  501 -0.00000000000E+00 -0.00000000000E+00 -0.45208740763E+03  0.45208740764E+03  0.25500000000E-02 0. -1.
    5000001    1    1    2    0    0 -0.61003225744E+02 -0.22669356524E+03 -0.18430634932E+03  0.30823561843E+03  0.77000000000E+02 0.  0.
   -5000001    1    1    2    0    0  0.61003225744E+02  0.22669356524E+03 -0.13167223626E+03  0.27996061129E+03  0.77000000000E+02 0.  0.
<mgrwt>
<rscale>  0 0.49611726E+03</rscale>
<asrwt>0</asrwt>
<pdfrwt beam="1">  1        2 0.19444118E-01 0.49611726E+03</pdfrwt>
<pdfrwt beam="2">  1       -2 0.64583915E-01 0.49611726E+03</pdfrwt>
<totfact> 0.65441470E+02</totfact>
</mgrwt>
</event>
<event>
 4    1  0.5121375E-004  0.3190920E+03  0.7818608E-02  0.1076068E+00
         -2   -1    0    0    0  501 -0.00000000000E+00  0.00000000000E+00  0.22582393259E+02  0.22582393403E+02  0.25500000000E-02 0. -1.
          2   -1    0    0  501    0  0.00000000000E+00 -0.00000000000E+00 -0.11272021896E+04  0.11272021896E+04  0.25500000000E-02 0.  1.
    5000001    1    1    2    0    0 -0.93099097624E+02 -0.63051426552E+02 -0.25336617572E+03  0.28769140301E+03  0.77000000000E+02 0.  0.
   -5000001    1    1    2    0    0  0.93099097624E+02  0.63051426552E+02 -0.85125362060E+03  0.86209317998E+03  0.77000000000E+02 0.  0.
<mgrwt>
<rscale>  0 0.31909198E+03</rscale>
<asrwt>0</asrwt>
<pdfrwt beam="1">  1        2 0.16102885E+00 0.31909198E+03</pdfrwt>
<pdfrwt beam="2">  1       -2 0.32260569E-02 0.31909198E+03</pdfrwt>
<totfact> 0.93704832E+03</totfact>
</mgrwt>
</event>
<event>
 4    1  0.5121375E-004  0.1839907E+03  0.7818608E-02  0.1163996E+00
         -2   -1    0    0    0  501 -0.00000000000E+00  0.00000000000E+00  0.37431886236E+01  0.37431894922E+01  0.25500000000E-02 0. -1.
          2   -1    0    0  501    0  0.00000000000E+00 -0.00000000000E+00 -0.22609439854E+04  0.22609439854E+04  0.25500000000E-02 0.  1.
    5000001    1    1    2    0    0  0.27167408895E+02  0.42372960176E+02 -0.11381737696E+04  0.11418853120E+04  0.77000000000E+02 0.  0.
   -5000001    1    1    2    0    0 -0.27167408895E+02 -0.42372960176E+02 -0.11190270271E+04  0.11228018629E+04  0.77000000000E+02 0.  0.
<mgrwt>
<rscale>  0 0.18399066E+03</rscale>
<asrwt>0</asrwt>
<pdfrwt beam="1">  1        2 0.32299112E+00 0.18399066E+03</pdfrwt>
<pdfrwt beam="2">  1       -2 0.53474274E-03 0.18399066E+03</pdfrwt>
<totfact> 0.34079166E+04</totfact>
</mgrwt>
</event>
<event>
 4    1  0.5121375E-004  0.2347230E+03  0.7818608E-02  0.1123359E+00
          2   -1    0    0  501    0  0.00000000000E+00  0.00000000000E+00  0.15357053072E+04  0.15357053072E+04  0.25500000000E-02 0.  1.
         -2   -1    0    0    0  501 -0.00000000000E+00 -0.00000000000E+00 -0.89689865377E+01  0.89689869002E+01  0.25500000000E-02 0. -1.
    5000001    1    1    2    0    0  0.17142407600E+02 -0.79653798281E+02  0.99191672198E+03  0.99823162296E+03  0.77000000000E+02 0.  0.
   -5000001    1    1    2    0    0 -0.17142407600E+02  0.79653798281E+02  0.53481959869E+03  0.54644267116E+03  0.77000000000E+02 0.  0.
<mgrwt>
<rscale>  0 0.23472299E+03</rscale>
<asrwt>0</asrwt>
<pdfrwt beam="1">  1        2 0.21938630E+00 0.23472299E+03</pdfrwt>
<pdfrwt beam="2">  1       -2 0.12812848E-02 0.23472299E+03</pdfrwt>
<totfact> 0.22060184E+04</totfact>
</mgrwt>
</event>
<event>
 4    1  0.5121375E-004  0.2629076E+03  0.7818608E-02  0.1105409E+00
          2   -1    0    0  501    0  0.00000000000E+00  0.00000000000E+00  0.58306132886E+03  0.58306132887E+03  0.25500000000E-02 0.  1.
         -2   -1    0    0    0  501 -0.00000000000E+00 -0.00000000000E+00 -0.29636840790E+02  0.29636840900E+02  0.25500000000E-02 0. -1.
    5000001    1    1    2    0    0 -0.10325797827E+03  0.23507320377E+02  0.30391908348E+03  0.33092387869E+03  0.77000000000E+02 0.  0.
   -5000001    1    1    2    0    0  0.10325797827E+03 -0.23507320377E+02  0.24950540459E+03  0.28177429107E+03  0.77000000000E+02 0.  0.
<mgrwt>
<rscale>  0 0.26290756E+03</rscale>
<asrwt>0</asrwt>
<pdfrwt beam="1">  1        2 0.83294466E-01 0.26290756E+03</pdfrwt>
<pdfrwt beam="2">  1       -2 0.42338349E-02 0.26290756E+03</pdfrwt>
<totfact> 0.14218974E+04</totfact>
</mgrwt>
</event>
<event>
 4    1  0.5121375E-004  0.1973803E+03  0.7818608E-02  0.1151968E+00
         -2   -1    0    0    0  501 -0.00000000000E+00  0.00000000000E+00  0.38746767447E+01  0.38746775838E+01  0.25500000000E-02 0. -1.
          2   -1    0    0  501    0  0.00000000000E+00 -0.00000000000E+00 -0.25136917595E+04  0.25136917595E+04  0.25500000000E-02 0.  1.
    5000001    1    1    2    0    0  0.27534594804E+02  0.55182235403E+02 -0.12199520852E+04  0.12239343623E+04  0.77000000000E+02 0.  0.
   -5000001    1    1    2    0    0 -0.27534594804E+02 -0.55182235403E+02 -0.12898649975E+04  0.12936320747E+04  0.77000000000E+02 0.  0.
<mgrwt>
<rscale>  0 0.19738028E+03</rscale>
<asrwt>0</asrwt>
<pdfrwt beam="1">  1        2 0.35909778E+00 0.19738028E+03</pdfrwt>
<pdfrwt beam="2">  1       -2 0.55352692E-03 0.19738028E+03</pdfrwt>
<totfact> 0.24490337E+04</totfact>
</mgrwt>
</event>
<event>
 4    1  0.5121375E-004  0.2634337E+03  0.7818608E-02  0.1105098E+00
          2   -1    0    0  501    0  0.00000000000E+00  0.00000000000E+00  0.35251012366E+02  0.35251012459E+02  0.25500000000E-02 0.  1.
         -2   -1    0    0    0  501 -0.00000000000E+00 -0.00000000000E+00 -0.49216558413E+03  0.49216558414E+03  0.25500000000E-02 0. -1.
    5000001    1    1    2    0    0  0.88645922294E+02  0.51663351316E+02 -0.16862430788E+03  0.21187344953E+03  0.77000000000E+02 0.  0.
   -5000001    1    1    2    0    0 -0.88645922294E+02 -0.51663351316E+02 -0.28829026389E+03  0.31554314707E+03  0.77000000000E+02 0.  0.
<mgrwt>
<rscale>  0 0.26343375E+03</rscale>
<asrwt>0</asrwt>
<pdfrwt beam="1">  1        2 0.50358592E-02 0.26343375E+03</pdfrwt>
<pdfrwt beam="2">  1       -2 0.70309365E-01 0.26343375E+03</pdfrwt>
<totfact> 0.29283059E+03</totfact>
</mgrwt>
</event>
<event>
 4    1  0.5121375E-004  0.2028877E+03  0.7818608E-02  0.1147325E+00
         -2   -1    0    0    0  501 -0.00000000000E+00  0.00000000000E+00  0.10472115549E+03  0.10472115552E+03  0.25500000000E-02 0. -1.
          2   -1    0    0  501    0  0.00000000000E+00 -0.00000000000E+00 -0.98269087015E+02  0.98269087048E+02  0.25500000000E-02 0.  1.
    5000001    1    1    2    0    0 -0.58729616572E+02  0.22039812754E+02 -0.17446723214E+02  0.10083803528E+03  0.77000000000E+02 0.  0.
   -5000001    1    1    2    0    0  0.58729616572E+02 -0.22039812754E+02  0.23898791686E+02  0.10215220728E+03  0.77000000000E+02 0.  0.
<mgrwt>
<rscale>  0 0.20288768E+03</rscale>
<asrwt>0</asrwt>
<pdfrwt beam="1">  1        2 0.14038441E-01 0.20288768E+03</pdfrwt>
<pdfrwt beam="2">  1       -2 0.14960165E-01 0.20288768E+03</pdfrwt>
<totfact> 0.14015072E+04</totfact>
</mgrwt>
</event>
<event>
 4    1  0.5121375E-004  0.2262229E+03  0.7818608E-02  0.1129327E+00
         -2   -1    0    0    0  501 -0.00000000000E+00  0.00000000000E+00  0.34515673989E+03  0.34515673990E+03  0.25500000000E-02 0. -1.
          2   -1    0    0  501    0  0.00000000000E+00 -0.00000000000E+00 -0.37067801412E+02  0.37067801499E+02  0.25500000000E-02 0.  1.
    5000001    1    1    2    0    0 -0.57963660100E+02  0.53857838715E+02  0.19559432268E+03  0.22460318730E+03  0.77000000000E+02 0.  0.
   -5000001    1    1    2    0    0  0.57963660100E+02 -0.53857838715E+02  0.11249461581E+03  0.15762135410E+03  0.77000000000E+02 0.  0.
<mgrwt>
<rscale>  0 0.22622291E+03</rscale>
<asrwt>0</asrwt>
<pdfrwt beam="1">  1        2 0.52954007E-02 0.22622291E+03</pdfrwt>
<pdfrwt beam="2">  1       -2 0.49308101E-01 0.22622291E+03</pdfrwt>
<totfact> 0.56561275E+03</totfact>
</mgrwt>
</event>
<event>
 4    1  0.5121375E-004  0.2296431E+03  0.7818608E-02  0.1126891E+00
         -2   -1    0    0    0  501 -0.00000000000E+00  0.00000000000E+00  0.45447797039E+01  0.45447804193E+01  0.25500000000E-02 0. -1.
          2   -1    0    0  501    0  0.00000000000E+00 -0.00000000000E+00 -0.29009090435E+04  0.29009090435E+04  0.25500000000E-02 0.  1.
    5000001    1    1    2    0    0  0.48369775003E+02  0.68051410215E+02 -0.12348295947E+04  0.12400418370E+04  0.77000000000E+02 0.  0.
   -5000001    1    1    2    0    0 -0.48369775003E+02 -0.68051410215E+02 -0.16615346691E+04  0.16654119869E+04  0.77000000000E+02 0.  0.
<mgrwt>
<rscale>  0 0.22964315E+03</rscale>
<asrwt>0</asrwt>
<pdfrwt beam="1">  1        2 0.41441439E+00 0.22964315E+03</pdfrwt>
<pdfrwt beam="2">  1       -2 0.64925615E-03 0.22964315E+03</pdfrwt>
<totfact> 0.12456871E+04</totfact>
</mgrwt>
</event>
<event>
 4    1  0.5121375E-004  0.1944333E+03  0.7818608E-02  0.1154523E+00
         -2   -1    0    0    0  501 -0.00000000000E+00  0.00000000000E+00  0.32818771862E+02  0.32818771961E+02  0.25500000000E-02 0.  1.
          2   -1    0    0  501    0  0.00000000000E+00 -0.00000000000E+00 -0.28797769569E+03  0.28797769571E+03  0.25500000000E-02 0. -1.
    5000001    1    1    2    0    0  0.55518985036E+02  0.20360087468E+02 -0.13585920060E+03  0.16698387122E+03  0.77000000000E+02 0.  0.
   -5000001    1    1    2    0    0 -0.55518985036E+02 -0.20360087468E+02 -0.11929972324E+03  0.15381259645E+03  0.77000000000E+02 0.  0.
<mgrwt>
<rscale>  0 0.19443327E+03</rscale>
<asrwt>0</asrwt>
<pdfrwt beam="1">  1        2 0.41139670E-01 0.19443327E+03</pdfrwt>
<pdfrwt beam="2">  1       -2 0.46883961E-02 0.19443327E+03</pdfrwt>
<totfact> 0.25740866E+04</totfact>
</mgrwt>
</event>
<event>
 4    1  0.5121375E-004  0.2088242E+03  0.7818608E-02  0.1142500E+00
          2   -1    0    0  501    0  0.00000000000E+00  0.00000000000E+00  0.42995018240E+03  0.42995018241E+03  0.25500000000E-02 0.  1.
         -2   -1    0    0    0  501 -0.00000000000E+00 -0.00000000000E+00 -0.25356166284E+02  0.25356166413E+02  0.25500000000E-02 0. -1.
    5000001    1    1    2    0    0 -0.10810225766E+02  0.24518137919E+02  0.60074960676E+02  0.10127191599E+03  0.77000000000E+02 0.  0.
   -5000001    1    1    2    0    0  0.10810225766E+02 -0.24518137919E+02  0.34451905544E+03  0.35403443283E+03  0.77000000000E+02 0.  0.
<mgrwt>
<rscale>  0 0.20882422E+03</rscale>
<asrwt>0</asrwt>
<pdfrwt beam="1">  1        2 0.61421450E-01 0.20882422E+03</pdfrwt>
<pdfrwt beam="2">  1       -2 0.36223098E-02 0.20882422E+03</pdfrwt>
<totfact> 0.24795633E+04</totfact>
</mgrwt>
</event>
<event>
 4    1  0.5121375E-004  0.1805963E+03  0.7818608E-02  0.1167227E+00
         -2   -1    0    0    0  501 -0.00000000000E+00  0.00000000000E+00  0.13995716723E+02  0.13995716955E+02  0.25500000000E-02 0. -1.
          2   -1    0    0  501    0  0.00000000000E+00 -0.00000000000E+00 -0.58258925309E+03  0.58258925309E+03  0.25500000000E-02 0.  1.
    5000001    1    1    2    0    0 -0.31726516239E+02  0.34154219358E+02 -0.30804273396E+03  0.32092430335E+03  0.77000000000E+02 0.  0.
   -5000001    1    1    2    0    0  0.31726516239E+02 -0.34154219358E+02 -0.26055080240E+03  0.27566066670E+03  0.77000000000E+02 0.  0.
<mgrwt>
<rscale>  0 0.18059628E+03</rscale>
<asrwt>0</asrwt>
<pdfrwt beam="1">  1        2 0.83227021E-01 0.18059628E+03</pdfrwt>
<pdfrwt beam="2">  1       -2 0.19993885E-02 0.18059628E+03</pdfrwt>
<totfact> 0.42150115E+04</totfact>
</mgrwt>
</event>
<event>
 4    1  0.5121375E-004  0.2362630E+03  0.7818608E-02  0.1122308E+00
          2   -1    0    0  501    0  0.00000000000E+00  0.00000000000E+00  0.99963215400E+02  0.99963215433E+02  0.25500000000E-02 0.  1.
         -2   -1    0    0    0  501 -0.00000000000E+00 -0.00000000000E+00 -0.13960190610E+03  0.13960190613E+03  0.25500000000E-02 0. -1.
    5000001    1    1    2    0    0 -0.10349653336E+02  0.88522743516E+02 -0.10600300073E+02  0.11825716809E+03  0.77000000000E+02 0.  0.
   -5000001    1    1    2    0    0  0.10349653336E+02 -0.88522743516E+02 -0.29038390631E+02  0.12130795347E+03  0.77000000000E+02 0.  0.
<mgrwt>
<rscale>  0 0.23626303E+03</rscale>
<asrwt>0</asrwt>
<pdfrwt beam="1">  1        2 0.14280459E-01 0.23626303E+03</pdfrwt>
<pdfrwt beam="2">  1       -2 0.19943129E-01 0.23626303E+03</pdfrwt>
<totfact> 0.85684809E+03</totfact>
</mgrwt>
</event>
<event>
 4    1  0.5121375E-004  0.1956957E+03  0.7818608E-02  0.1153422E+00
         -2   -1    0    0    0  501 -0.00000000000E+00  0.00000000000E+00  0.72292423501E+02  0.72292423546E+02  0.25500000000E-02 0. -1.
          2   -1    0    0  501    0  0.00000000000E+00 -0.00000000000E+00 -0.13243718268E+03  0.13243718271E+03  0.25500000000E-02 0.  1.
    5000001    1    1    2    0    0 -0.50974296622E+02  0.55136765815E+01  0.32807846876E+01  0.92566425305E+02  0.77000000000E+02 0.  0.
   -5000001    1    1    2    0    0  0.50974296622E+02 -0.55136765815E+01 -0.63425543870E+02  0.11216318095E+03  0.77000000000E+02 0.  0.
<mgrwt>
<rscale>  0 0.19569573E+03</rscale>
<asrwt>0</asrwt>
<pdfrwt beam="1">  1        2 0.18919598E-01 0.19569573E+03</pdfrwt>
<pdfrwt beam="2">  1       -2 0.10327489E-01 0.19569573E+03</pdfrwt>
<totfact> 0.17938395E+04</totfact>
</mgrwt>
</event>
<event>
 4    1  0.5121375E-004  0.1857233E+03  0.7818608E-02  0.1162376E+00
         -2   -1    0    0    0  501 -0.00000000000E+00  0.00000000000E+00  0.21495720480E+02  0.21495720631E+02  0.25500000000E-02 0. -1.
          2   -1    0    0  501    0  0.00000000000E+00 -0.00000000000E+00 -0.40116275351E+03  0.40116275352E+03  0.25500000000E-02 0.  1.
    5000001    1    1    2    0    0 -0.25576848823E+02  0.44649569187E+02 -0.17431114085E+03  0.19738574682E+03  0.77000000000E+02 0.  0.
   -5000001    1    1    2    0    0  0.25576848823E+02 -0.44649569187E+02 -0.20535589218E+03  0.22527272733E+03  0.77000000000E+02 0.  0.
<mgrwt>
<rscale>  0 0.18572326E+03</rscale>
<asrwt>0</asrwt>
<pdfrwt beam="1">  1        2 0.57308960E-01 0.18572326E+03</pdfrwt>
<pdfrwt beam="2">  1       -2 0.30708175E-02 0.18572326E+03</pdfrwt>
<totfact> 0.33822001E+04</totfact>
</mgrwt>
</event>
<event>
 4    1  0.5121375E-004  0.4542394E+03  0.7818608E-02  0.1026465E+00
         -2   -1    0    0    0  501 -0.00000000000E+00  0.00000000000E+00  0.95069416040E+02  0.95069416075E+02  0.25500000000E-02 0. -1.
          2   -1    0    0  501    0  0.00000000000E+00 -0.00000000000E+00 -0.54258627532E+03  0.54258627532E+03  0.25500000000E-02 0.  1.
    5000001    1    1    2    0    0  0.17202721847E+03 -0.99335413508E+02 -0.33423457728E+03  0.39636175512E+03  0.77000000000E+02 0.  0.
   -5000001    1    1    2    0    0 -0.17202721847E+03  0.99335413508E+02 -0.11328228200E+03  0.24129393628E+03  0.77000000000E+02 0.  0.
<mgrwt>
<rscale>  0 0.45423941E+03</rscale>
<asrwt>0</asrwt>
<pdfrwt beam="1">  1        2 0.77512323E-01 0.45423941E+03</pdfrwt>
<pdfrwt beam="2">  1       -2 0.13581345E-01 0.45423941E+03</pdfrwt>
<totfact> 0.25094586E+03</totfact>
</mgrwt>
</event>
<event>
 4    1  0.5121375E-004  0.3230282E+03  0.7818608E-02  0.1074264E+00
          2   -1    0    0  501    0  0.00000000000E+00  0.00000000000E+00  0.11844222945E+03  0.11844222948E+03  0.25500000000E-02 0.  1.
         -2   -1    0    0    0  501 -0.00000000000E+00 -0.00000000000E+00 -0.22024920772E+03  0.22024920774E+03  0.25500000000E-02 0. -1.
    5000001    1    1    2    0    0  0.92046933153E+02 -0.67271075717E+02 -0.13962181611E+03  0.19601348695E+03  0.77000000000E+02 0.  0.
   -5000001    1    1    2    0    0 -0.92046933153E+02  0.67271075717E+02  0.37814837841E+02  0.14267795027E+03  0.77000000000E+02 0.  0.
<mgrwt>
<rscale>  0 0.32302822E+03</rscale>
<asrwt>0</asrwt>
<pdfrwt beam="1">  1        2 0.16920319E-01 0.32302822E+03</pdfrwt>
<pdfrwt beam="2">  1       -2 0.31464172E-01 0.32302822E+03</pdfrwt>
<totfact> 0.31693162E+03</totfact>
</mgrwt>
</event>
<event>
 4    1  0.5121375E-004  0.2767673E+03  0.7818608E-02  0.1097468E+00
          2   -1    0    0  501    0  0.00000000000E+00  0.00000000000E+00  0.30603859816E+04  0.30603859816E+04  0.25500000000E-02 0.  1.
         -2   -1    0    0    0  501 -0.00000000000E+00 -0.00000000000E+00 -0.62573895624E+01  0.62573900820E+01  0.25500000000E-02 0. -1.
    5000001    1    1    2    0    0 -0.59928212088E+02 -0.81615452522E+02  0.92336433265E+03  0.93208538424E+03  0.77000000000E+02 0.  0.
   -5000001    1    1    2    0    0  0.59928212088E+02  0.81615452522E+02  0.21307642593E+04  0.21345579874E+04  0.77000000000E+02 0.  0.
<mgrwt>
<rscale>  0 0.27676725E+03</rscale>
<asrwt>0</asrwt>
<pdfrwt beam="1">  1        2 0.43719958E+00 0.27676725E+03</pdfrwt>
<pdfrwt beam="2">  1       -2 0.89390959E-03 0.27676725E+03</pdfrwt>
<totfact> 0.64690887E+03</totfact>
</mgrwt>
</event>
<event>
 4    1  0.5121375E-004  0.2619987E+03  0.7818608E-02  0.1105948E+00
         -2   -1    0    0    0  501 -0.00000000000E+00  0.00000000000E+00  0.85868420558E+02  0.85868420596E+02  0.25500000000E-02 0. -1.
          2   -1    0    0  501    0  0.00000000000E+00 -0.00000000000E+00 -0.19985026581E+03  0.19985026583E+03  0.25500000000E-02 0.  1.
    5000001    1    1    2    0    0 -0.45235333418E+02  0.64868108785E+02 -0.13393138072E+03  0.17355322431E+03  0.77000000000E+02 0.  0.
   -5000001    1    1    2    0    0  0.45235333418E+02 -0.64868108785E+02  0.19949535462E+02  0.11216546212E+03  0.77000000000E+02 0.  0.
<mgrwt>
<rscale>  0 0.26199868E+03</rscale>
<asrwt>0</asrwt>
<pdfrwt beam="1">  1        2 0.28550038E-01 0.26199868E+03</pdfrwt>
<pdfrwt beam="2">  1       -2 0.12266917E-01 0.26199868E+03</pdfrwt>
<totfact> 0.87334051E+03</totfact>
</mgrwt>
</event>
<event>
 4    1  0.5121375E-004  0.2244408E+03  0.7818608E-02  0.1130615E+00
          2   -1    0    0  501    0  0.00000000000E+00  0.00000000000E+00  0.39560682486E+03  0.39560682487E+03  0.25500000000E-02 0.  1.
         -2   -1    0    0    0  501 -0.00000000000E+00 -0.00000000000E+00 -0.31833161007E+02  0.31833161109E+02  0.25500000000E-02 0. -1.
    5000001    1    1    2    0    0 -0.11728270559E+02 -0.72151859043E+02  0.11266863241E+03  0.15481170441E+03  0.77000000000E+02 0.  0.
   -5000001    1    1    2    0    0  0.11728270559E+02  0.72151859043E+02  0.25110503144E+03  0.27262828156E+03  0.77000000000E+02 0.  0.
<mgrwt>
<rscale>  0 0.22444078E+03</rscale>
<asrwt>0</asrwt>
<pdfrwt beam="1">  1        2 0.56515259E-01 0.22444078E+03</pdfrwt>
<pdfrwt beam="2">  1       -2 0.45475945E-02 0.22444078E+03</pdfrwt>
<totfact> 0.19382984E+04</totfact>
</mgrwt>
</event>
<event>
 4    1  0.5121375E-004  0.1813973E+03  0.7818608E-02  0.1166458E+00
         -2   -1    0    0    0  501 -0.00000000000E+00  0.00000000000E+00  0.69726076677E+01  0.69726081340E+01  0.25500000000E-02 0. -1.
          2   -1    0    0  501    0  0.00000000000E+00 -0.00000000000E+00 -0.11797947769E+04  0.11797947769E+04  0.25500000000E-02 0.  1.
    5000001    1    1    2    0    0 -0.35124667926E+02  0.15428034795E+02 -0.39844132600E+03  0.40762268929E+03  0.77000000000E+02 0.  0.
   -5000001    1    1    2    0    0  0.35124667926E+02 -0.15428034795E+02 -0.77438084324E+03  0.77914469576E+03  0.77000000000E+02 0.  0.
<mgrwt>
<rscale>  0 0.18139731E+03</rscale>
<asrwt>0</asrwt>
<pdfrwt beam="1">  1        2 0.16854198E+00 0.18139731E+03</pdfrwt>
<pdfrwt beam="2">  1       -2 0.99608760E-03 0.18139731E+03</pdfrwt>
<totfact> 0.47673251E+04</totfact>
</mgrwt>
</event>
<event>
 4    1  0.5121375E-004  0.2851595E+03  0.7818608E-02  0.1092904E+00
          2   -1    0    0  501    0  0.00000000000E+00  0.00000000000E+00  0.11456858985E+04  0.11456858985E+04  0.25500000000E-02 0.  1.
         -2   -1    0    0    0  501 -0.00000000000E+00 -0.00000000000E+00 -0.17743938337E+02  0.17743938520E+02  0.25500000000E-02 0. -1.
    5000001    1    1    2    0    0 -0.32651275108E+02 -0.99250023502E+02  0.80476643786E+03  0.81516543869E+03  0.77000000000E+02 0.  0.
   -5000001    1    1    2    0    0  0.32651275108E+02  0.99250023502E+02  0.32317552234E+03  0.34826439837E+03  0.77000000000E+02 0.  0.
<mgrwt>
<rscale>  0 0.28515946E+03</rscale>
<asrwt>0</asrwt>
<pdfrwt beam="1">  1        2 0.16366936E+00 0.28515946E+03</pdfrwt>
<pdfrwt beam="2">  1       -2 0.25348491E-02 0.28515946E+03</pdfrwt>
<totfact> 0.13064376E+04</totfact>
</mgrwt>
</event>
<event>
 4    1  0.5121375E-004  0.1894953E+03  0.7818608E-02  0.1158917E+00
         -2   -1    0    0    0  501 -0.00000000000E+00  0.00000000000E+00  0.34883514685E+01  0.34883524005E+01  0.25500000000E-02 0. -1.
          2   -1    0    0  501    0  0.00000000000E+00 -0.00000000000E+00 -0.25734543190E+04  0.25734543190E+04  0.25500000000E-02 0.  1.
    5000001    1    1    2    0    0 -0.48761594002E+02 -0.34362475245E+01 -0.93598597901E+03  0.94041919044E+03  0.77000000000E+02 0.  0.
   -5000001    1    1    2    0    0  0.48761594002E+02  0.34362475245E+01 -0.16339799885E+04  0.16365234809E+04  0.77000000000E+02 0.  0.
<mgrwt>
<rscale>  0 0.18949527E+03</rscale>
<asrwt>0</asrwt>
<pdfrwt beam="1">  1        2 0.36763512E+00 0.18949527E+03</pdfrwt>
<pdfrwt beam="2">  1       -2 0.49833764E-03 0.18949527E+03</pdfrwt>
<totfact> 0.26540377E+04</totfact>
</mgrwt>
</event>
<event>
 4    1  0.5121375E-004  0.2276918E+03  0.7818608E-02  0.1128275E+00
          2   -1    0    0  501    0  0.00000000000E+00  0.00000000000E+00  0.10323743023E+04  0.10323743023E+04  0.25500000000E-02 0.  1.
         -2   -1    0    0    0  501 -0.00000000000E+00 -0.00000000000E+00 -0.12554445084E+02  0.12554445343E+02  0.25500000000E-02 0. -1.
    5000001    1    1    2    0    0  0.48078636508E+01  0.79650657656E+02  0.39160546460E+03  0.40700268147E+03  0.77000000000E+02 0.  0.
   -5000001    1    1    2    0    0 -0.48078636508E+01 -0.79650657656E+02  0.62821439263E+03  0.63792606619E+03  0.77000000000E+02 0.  0.
<mgrwt>
<rscale>  0 0.22769178E+03</rscale>
<asrwt>0</asrwt>
<pdfrwt beam="1">  1        2 0.14748208E+00 0.22769178E+03</pdfrwt>
<pdfrwt beam="2">  1       -2 0.17934918E-02 0.22769178E+03</pdfrwt>
<totfact> 0.24936399E+04</totfact>
</mgrwt>
</event>
<event>
 4    1  0.5121375E-004  0.2884193E+03  0.7818608E-02  0.1091177E+00
          2   -1    0    0  501    0  0.00000000000E+00  0.00000000000E+00  0.14997322936E+04  0.14997322936E+04  0.25500000000E-02 0.  1.
         -2   -1    0    0    0  501 -0.00000000000E+00 -0.00000000000E+00 -0.13866758348E+02  0.13866758582E+02  0.25500000000E-02 0. -1.
    5000001    1    1    2    0    0  0.95834638471E-01  0.12184289300E+03  0.71847180116E+03  0.73278675535E+03  0.77000000000E+02 0.  0.
   -5000001    1    1    2    0    0 -0.95834638471E-01 -0.12184289300E+03  0.76739373412E+03  0.78081229686E+03  0.77000000000E+02 0.  0.
<mgrwt>
<rscale>  0 0.28841932E+03</rscale>
<asrwt>0</asrwt>
<pdfrwt beam="1">  1        2 0.21424724E+00 0.28841932E+03</pdfrwt>
<pdfrwt beam="2">  1       -2 0.19809676E-02 0.28841932E+03</pdfrwt>
<totfact> 0.12247491E+04</totfact>
</mgrwt>
</event>
<event>
 4    1  0.5121375E-004  0.1689318E+03  0.7818608E-02  0.1178966E+00
          2   -1    0    0  501    0  0.00000000000E+00  0.00000000000E+00  0.21926506188E+04  0.21926506188E+04  0.25500000000E-02 0.  1.
         -2   -1    0    0    0  501 -0.00000000000E+00 -0.00000000000E+00 -0.32538180972E+01  0.32538190964E+01  0.25500000000E-02 0. -1.
    5000001    1    1    2    0    0 -0.33396732963E+02  0.53713254726E+01  0.99293007189E+03  0.99648548438E+03  0.77000000000E+02 0.  0.
   -5000001    1    1    2    0    0  0.33396732963E+02 -0.53713254726E+01  0.11964667288E+04  0.11994189535E+04  0.77000000000E+02 0.  0.
<mgrwt>
<rscale>  0 0.16893179E+03</rscale>
<asrwt>0</asrwt>
<pdfrwt beam="1">  1        2 0.31323572E+00 0.16893179E+03</pdfrwt>
<pdfrwt beam="2">  1       -2 0.46483135E-03 0.16893179E+03</pdfrwt>
<totfact> 0.44667566E+04</totfact>
</mgrwt>
</event>
<event>
 4    1  0.5121375E-004  0.1907226E+03  0.7818608E-02  0.1157811E+00
          2   -1    0    0  501    0  0.00000000000E+00  0.00000000000E+00  0.73925926900E+03  0.73925926901E+03  0.25500000000E-02 0.  1.
         -2   -1    0    0    0  501 -0.00000000000E+00 -0.00000000000E+00 -0.12301207170E+02  0.12301207434E+02  0.25500000000E-02 0. -1.
    5000001    1    1    2    0    0 -0.29560171177E+02  0.46769974076E+02  0.40357780765E+03  0.41456637710E+03  0.77000000000E+02 0.  0.
   -5000001    1    1    2    0    0  0.29560171177E+02 -0.46769974076E+02  0.32338025418E+03  0.33699409934E+03  0.77000000000E+02 0.  0.
<mgrwt>
<rscale>  0 0.19072264E+03</rscale>
<asrwt>0</asrwt>
<pdfrwt beam="1">  1        2 0.10560849E+00 0.19072264E+03</pdfrwt>
<pdfrwt beam="2">  1       -2 0.17573149E-02 0.19072264E+03</pdfrwt>
<totfact> 0.38824560E+04</totfact>
</mgrwt>
</event>
<event>
 4    1  0.5121375E-004  0.2220509E+03  0.7818608E-02  0.1132363E+00
         -2   -1    0    0    0  501 -0.00000000000E+00  0.00000000000E+00  0.18642162893E+02  0.18642163067E+02  0.25500000000E-02 0. -1.
          2   -1    0    0  501    0  0.00000000000E+00 -0.00000000000E+00 -0.66122416997E+03  0.66122416998E+03  0.25500000000E-02 0.  1.
    5000001    1    1    2    0    0  0.64984154342E+02 -0.17771420400E+02 -0.45329810540E+03  0.46470091032E+03  0.77000000000E+02 0.  0.
   -5000001    1    1    2    0    0 -0.64984154342E+02  0.17771420400E+02 -0.18928390168E+03  0.21516542272E+03  0.77000000000E+02 0.  0.
<mgrwt>
<rscale>  0 0.22205088E+03</rscale>
<asrwt>0</asrwt>
<pdfrwt beam="1">  1        2 0.94460581E-01 0.22205088E+03</pdfrwt>
<pdfrwt beam="2">  1       -2 0.26631666E-02 0.22205088E+03</pdfrwt>
<totfact> 0.24337104E+04</totfact>
</mgrwt>
</event>
<event>
 4    1  0.5121375E-004  0.1601941E+03  0.7818608E-02  0.1188478E+00
         -2   -1    0    0    0  501 -0.00000000000E+00  0.00000000000E+00  0.77279045762E+01  0.77279049970E+01  0.25500000000E-02 0. -1.
          2   -1    0    0  501    0  0.00000000000E+00 -0.00000000000E+00 -0.83017854229E+03  0.83017854229E+03  0.25500000000E-02 0.  1.
    5000001    1    1    2    0    0  0.20976047991E+02  0.37047479347E+01 -0.38125959837E+03  0.38954024323E+03  0.77000000000E+02 0.  0.
   -5000001    1    1    2    0    0 -0.20976047991E+02 -0.37047479347E+01 -0.44119103934E+03  0.44836620406E+03  0.77000000000E+02 0.  0.
<mgrwt>
<rscale>  0 0.16019414E+03</rscale>
<asrwt>0</asrwt>
<pdfrwt beam="1">  1        2 0.11859688E+00 0.16019414E+03</pdfrwt>
<pdfrwt beam="2">  1       -2 0.11039869E-02 0.16019414E+03</pdfrwt>
<totfact> 0.65036506E+04</totfact>
</mgrwt>
</event>
<event>
 4    1  0.5121375E-004  0.2708284E+03  0.7818608E-02  0.1100806E+00
          2   -1    0    0  501    0  0.00000000000E+00  0.00000000000E+00  0.44610097633E+02  0.44610097706E+02  0.25500000000E-02 0.  1.
         -2   -1    0    0    0  501 -0.00000000000E+00 -0.00000000000E+00 -0.41105050541E+03  0.41105050541E+03  0.25500000000E-02 0. -1.
    5000001    1    1    2    0    0 -0.70318068187E+02  0.86378251725E+02 -0.18074170702E+03  0.22583710444E+03  0.77000000000E+02 0.  0.
   -5000001    1    1    2    0    0  0.70318068187E+02 -0.86378251725E+02 -0.18569870075E+03  0.22982349868E+03  0.77000000000E+02 0.  0.
<mgrwt>
<rscale>  0 0.27082838E+03</rscale>
<asrwt>0</asrwt>
<pdfrwt beam="1">  1        2 0.63728713E-02 0.27082838E+03</pdfrwt>
<pdfrwt beam="2">  1       -2 0.58721499E-01 0.27082838E+03</pdfrwt>
<totfact> 0.31442486E+03</totfact>
</mgrwt>
</event>
<event>
 4    1  0.5121375E-004  0.1784590E+03  0.7818608E-02  0.1169303E+00
         -2   -1    0    0    0  501 -0.00000000000E+00  0.00000000000E+00  0.15839707716E+02  0.15839707921E+02  0.25500000000E-02 0. -1.
          2   -1    0    0  501    0  0.00000000000E+00 -0.00000000000E+00 -0.50265448512E+03  0.50265448512E+03  0.25500000000E-02 0.  1.
    5000001    1    1    2    0    0  0.44201333221E+02 -0.82028630655E+01 -0.25341114062E+03  0.26863963038E+03  0.77000000000E+02 0.  0.
   -5000001    1    1    2    0    0 -0.44201333221E+02  0.82028630655E+01 -0.23340363678E+03  0.24985456266E+03  0.77000000000E+02 0.  0.
<mgrwt>
<rscale>  0 0.17845896E+03</rscale>
<asrwt>0</asrwt>
<pdfrwt beam="1">  1        2 0.71807774E-01 0.17845896E+03</pdfrwt>
<pdfrwt beam="2">  1       -2 0.22628157E-02 0.17845896E+03</pdfrwt>
<totfact> 0.41378700E+04</totfact>
</mgrwt>
</event>
<event>
 4    1  0.5121375E-004  0.1951516E+03  0.7818608E-02  0.1153895E+00
         -2   -1    0    0    0  501 -0.00000000000E+00  0.00000000000E+00  0.27709667631E+02  0.27709667748E+02  0.25500000000E-02 0. -1.
          2   -1    0    0  501    0  0.00000000000E+00 -0.00000000000E+00 -0.34359995297E+03  0.34359995298E+03  0.25500000000E-02 0.  1.
    5000001    1    1    2    0    0 -0.47526863516E+02  0.11986579814E+02 -0.92321986357E+02  0.12982615305E+03  0.77000000000E+02 0.  0.
   -5000001    1    1    2    0    0  0.47526863516E+02 -0.11986579814E+02 -0.22356829898E+03  0.24148346768E+03  0.77000000000E+02 0.  0.
<mgrwt>
<rscale>  0 0.19515164E+03</rscale>
<asrwt>0</asrwt>
<pdfrwt beam="1">  1        2 0.49085705E-01 0.19515164E+03</pdfrwt>
<pdfrwt beam="2">  1       -2 0.39585242E-02 0.19515164E+03</pdfrwt>
<totfact> 0.27484221E+04</totfact>
</mgrwt>
</event>
<event>
 4    1  0.5121375E-004  0.5194978E+03  0.7818608E-02  0.1008811E+00
          2   -1    0    0  501    0  0.00000000000E+00  0.00000000000E+00  0.17899330517E+03  0.17899330519E+03  0.25500000000E-02 0.  1.
         -2   -1    0    0    0  501 -0.00000000000E+00 -0.00000000000E+00 -0.37693866593E+03  0.37693866594E+03  0.25500000000E-02 0. -1.
    5000001    1    1    2    0    0  0.17474236122E+03  0.13806508946E+03  0.17978926974E+02  0.23632414931E+03  0.77000000000E+02 0.  0.
   -5000001    1    1    2    0    0 -0.17474236122E+03 -0.13806508946E+03 -0.21592428773E+03  0.31960782181E+03  0.77000000000E+02 0.  0.
<mgrwt>
<rscale>  0 0.51949783E+03</rscale>
<asrwt>0</asrwt>
<pdfrwt beam="1">  1        2 0.25570472E-01 0.51949783E+03</pdfrwt>
<pdfrwt beam="2">  1       -2 0.53848381E-01 0.51949783E+03</pdfrwt>
<totfact> 0.69770050E+02</totfact>
</mgrwt>
</event>
<event>
 4    1  0.5121375E-004  0.2067579E+03  0.7818608E-02  0.1144159E+00
          2   -1    0    0  501    0  0.00000000000E+00  0.00000000000E+00  0.18953682919E+04  0.18953682919E+04  0.25500000000E-02 0.  1.
         -2   -1    0    0    0  501 -0.00000000000E+00 -0.00000000000E+00 -0.56385893327E+01  0.56385899093E+01  0.25500000000E-02 0. -1.
    5000001    1    1    2    0    0  0.48483190051E+02  0.49065334287E+02  0.94873562027E+03  0.95435124766E+03  0.77000000000E+02 0.  0.
   -5000001    1    1    2    0    0 -0.48483190051E+02 -0.49065334287E+02  0.94099408227E+03  0.94665563413E+03  0.77000000000E+02 0.  0.
<mgrwt>
<rscale>  0 0.20675787E+03</rscale>
<asrwt>0</asrwt>
<pdfrwt beam="1">  1        2 0.27076680E+00 0.20675787E+03</pdfrwt>
<pdfrwt beam="2">  1       -2 0.80551310E-03 0.20675787E+03</pdfrwt>
<totfact> 0.28599754E+04</totfact>
</mgrwt>
</event>
<event>
 4    1  0.5121375E-004  0.2760698E+03  0.7818608E-02  0.1097855E+00
         -2   -1    0    0    0  501 -0.00000000000E+00  0.00000000000E+00  0.12082332942E+02  0.12082333211E+02  0.25500000000E-02 0. -1.
          2   -1    0    0  501    0  0.00000000000E+00 -0.00000000000E+00 -0.15769827695E+04  0.15769827695E+04  0.25500000000E-02 0.  1.
    5000001    1    1    2    0    0  0.84543528658E+02 -0.76393397709E+02 -0.85081661007E+03  0.86185930605E+03  0.77000000000E+02 0.  0.
   -5000001    1    1    2    0    0 -0.84543528658E+02  0.76393397709E+02 -0.71408382651E+03  0.72720579669E+03  0.77000000000E+02 0.  0.
<mgrwt>
<rscale>  0 0.27606978E+03</rscale>
<asrwt>0</asrwt>
<pdfrwt beam="1">  1        2 0.22528312E+00 0.27606978E+03</pdfrwt>
<pdfrwt beam="2">  1       -2 0.17260486E-02 0.27606978E+03</pdfrwt>
<totfact> 0.13697239E+04</totfact>
</mgrwt>
</event>
<event>
 4    1  0.5121375E-004  0.1736338E+03  0.7818608E-02  0.1174110E+00
         -2   -1    0    0    0  501 -0.00000000000E+00  0.00000000000E+00  0.42102533547E+01  0.42102541269E+01  0.25500000000E-02 0. -1.
          2   -1    0    0  501    0  0.00000000000E+00 -0.00000000000E+00 -0.17901952020E+04  0.17901952020E+04  0.25500000000E-02 0.  1.
    5000001    1    1    2    0    0 -0.34101485514E+02 -0.19897245521E+02 -0.96560189859E+03  0.96947142209E+03  0.77000000000E+02 0.  0.
   -5000001    1    1    2    0    0  0.34101485514E+02  0.19897245521E+02 -0.82038305010E+03  0.82493403408E+03  0.77000000000E+02 0.  0.
<mgrwt>
<rscale>  0 0.17363382E+03</rscale>
<asrwt>0</asrwt>
<pdfrwt beam="1">  1        2 0.25574168E+00 0.17363382E+03</pdfrwt>
<pdfrwt beam="2">  1       -2 0.60146597E-03 0.17363382E+03</pdfrwt>
<totfact> 0.48342386E+04</totfact>
</mgrwt>
</event>
<event>
 4    1  0.5121375E-004  0.5950779E+03  0.7818608E-02  0.9915671E-01
         -2   -1    0    0    0  501 -0.00000000000E+00  0.00000000000E+00  0.56868752497E+02  0.56868752554E+02  0.25500000000E-02 0. -1.
          2   -1    0    0  501    0  0.00000000000E+00 -0.00000000000E+00 -0.15567324783E+04  0.15567324783E+04  0.25500000000E-02 0.  1.
    5000001    1    1    2    0    0  0.92632420733E+02 -0.69277143545E+02 -0.36521752265E+02  0.14367646424E+03  0.77000000000E+02 0.  0.
   -5000001    1    1    2    0    0 -0.92632420733E+02  0.69277143545E+02 -0.14633419735E+04  0.14699247666E+04  0.77000000000E+02 0.  0.
<mgrwt>
<rscale>  0 0.59507792E+03</rscale>
<asrwt>0</asrwt>
<pdfrwt beam="1">  1        2 0.22239033E+00 0.59507792E+03</pdfrwt>
<pdfrwt beam="2">  1       -2 0.81241085E-02 0.59507792E+03</pdfrwt>
<totfact> 0.13300449E+03</totfact>
</mgrwt>
</event>
<event>
 4    1  0.5121375E-004  0.4312062E+03  0.7818608E-02  0.1033480E+00
         -2   -1    0    0    0  501 -0.00000000000E+00  0.00000000000E+00  0.66693186637E+02  0.66693186686E+02  0.25500000000E-02 0. -1.
          2   -1    0    0  501    0  0.00000000000E+00 -0.00000000000E+00 -0.69699330846E+03  0.69699330847E+03  0.25500000000E-02 0.  1.
    5000001    1    1    2    0    0 -0.74462952984E+02 -0.18527850982E+03 -0.36142990220E+03  0.42003979785E+03  0.77000000000E+02 0.  0.
   -5000001    1    1    2    0    0  0.74462952984E+02  0.18527850982E+03 -0.26887021962E+03  0.34364669731E+03  0.77000000000E+02 0.  0.
<mgrwt>
<rscale>  0 0.43120624E+03</rscale>
<asrwt>0</asrwt>
<pdfrwt beam="1">  1        2 0.99570468E-01 0.43120624E+03</pdfrwt>
<pdfrwt beam="2">  1       -2 0.95275985E-02 0.43120624E+03</pdfrwt>
<totfact> 0.33300204E+03</totfact>
</mgrwt>
</event>
<event>
 4    1  0.5121375E-004  0.2858212E+03  0.7818608E-02  0.1092551E+00
         -2   -1    0    0    0  501 -0.00000000000E+00  0.00000000000E+00  0.40929844086E+02  0.40929844165E+02  0.25500000000E-02 0. -1.
          2   -1    0    0  501    0  0.00000000000E+00 -0.00000000000E+00 -0.49898637550E+03  0.49898637551E+03  0.25500000000E-02 0.  1.
    5000001    1    1    2    0    0  0.96355415719E+02 -0.71460823257E+02 -0.24823849385E+03  0.28625576890E+03  0.77000000000E+02 0.  0.
   -5000001    1    1    2    0    0 -0.96355415719E+02  0.71460823257E+02 -0.20981803757E+03  0.25366045077E+03  0.77000000000E+02 0.  0.
<mgrwt>
<rscale>  0 0.28582116E+03</rscale>
<asrwt>0</asrwt>
<pdfrwt beam="1">  1        2 0.71283764E-01 0.28582116E+03</pdfrwt>
<pdfrwt beam="2">  1       -2 0.58471209E-02 0.28582116E+03</pdfrwt>
<totfact> 0.10402282E+04</totfact>
</mgrwt>
</event>
<event>
 4    1  0.5121375E-004  0.1724664E+03  0.7818608E-02  0.1175300E+00
          2   -1    0    0  501    0  0.00000000000E+00  0.00000000000E+00  0.30253414790E+04  0.30253414790E+04  0.25500000000E-02 0.  1.
         -2   -1    0    0    0  501 -0.00000000000E+00 -0.00000000000E+00 -0.24579575251E+01  0.24579588478E+01  0.25500000000E-02 0. -1.
    5000001    1    1    2    0    0  0.18899520276E+02  0.25738823163E+02  0.11238247452E+04  0.11269120359E+04  0.77000000000E+02 0.  0.
   -5000001    1    1    2    0    0 -0.18899520276E+02 -0.25738823163E+02  0.18990587763E+04  0.19008874019E+04  0.77000000000E+02 0.  0.
<mgrwt>
<rscale>  0 0.17246638E+03</rscale>
<asrwt>0</asrwt>
<pdfrwt beam="1">  1        2 0.43219221E+00 0.17246638E+03</pdfrwt>
<pdfrwt beam="2">  1       -2 0.35113642E-03 0.17246638E+03</pdfrwt>
<totfact> 0.25637294E+04</totfact>
</mgrwt>
</event>
<event>
 4    1  0.5121375E-004  0.2121532E+03  0.7818608E-02  0.1139872E+00
          2   -1    0    0  501    0  0.00000000000E+00  0.00000000000E+00  0.24159624819E+04  0.24159624819E+04  0.25500000000E-02 0.  1.
         -2   -1    0    0    0  501 -0.00000000000E+00 -0.00000000000E+00 -0.46574569484E+01  0.46574576465E+01  0.25500000000E-02 0. -1.
    5000001    1    1    2    0    0  0.37292803101E+02  0.58224027893E+02  0.93991214131E+03  0.94559220808E+03  0.77000000000E+02 0.  0.
   -5000001    1    1    2    0    0 -0.37292803101E+02 -0.58224027893E+02  0.14713928836E+04  0.14750277314E+04  0.77000000000E+02 0.  0.
<mgrwt>
<rscale>  0 0.21215317E+03</rscale>
<asrwt>0</asrwt>
<pdfrwt beam="1">  1        2 0.34513790E+00 0.21215317E+03</pdfrwt>
<pdfrwt beam="2">  1       -2 0.66535027E-03 0.21215317E+03</pdfrwt>
<totfact> 0.21072883E+04</totfact>
</mgrwt>
</event>
<event>
 4    1  0.5121375E-004  0.1676578E+03  0.7818608E-02  0.1180313E+00
         -2   -1    0    0    0  501 -0.00000000000E+00  0.00000000000E+00  0.21482885932E+01  0.21482901066E+01  0.25500000000E-02 0. -1.
          2   -1    0    0  501    0  0.00000000000E+00 -0.00000000000E+00 -0.32711060261E+04  0.32711060261E+04  0.25500000000E-02 0.  1.
    5000001    1    1    2    0    0  0.23445967202E+02 -0.19994092531E+02 -0.18726367748E+04  0.18744724504E+04  0.77000000000E+02 0.  0.
   -5000001    1    1    2    0    0 -0.23445967202E+02  0.19994092531E+02 -0.13963209627E+04  0.13987818658E+04  0.77000000000E+02 0.  0.
<mgrwt>
<rscale>  0 0.16765777E+03</rscale>
<asrwt>0</asrwt>
<pdfrwt beam="1">  1        2 0.46729767E+00 0.16765777E+03</pdfrwt>
<pdfrwt beam="2">  1       -2 0.30690057E-03 0.16765777E+03</pdfrwt>
<totfact> 0.22911514E+04</totfact>
</mgrwt>
</event>
<event>
 4    1  0.5121375E-004  0.3625921E+03  0.7818608E-02  0.1057562E+00
         -2   -1    0    0    0  501 -0.00000000000E+00  0.00000000000E+00  0.16704474907E+02  0.16704475102E+02  0.25500000000E-02 0. -1.
          2   -1    0    0  501    0  0.00000000000E+00 -0.00000000000E+00 -0.19676320892E+04  0.19676320892E+04  0.25500000000E-02 0.  1.
    5000001    1    1    2    0    0 -0.53593397231E+02  0.15190099494E+03 -0.80300208622E+03  0.82261018409E+03  0.77000000000E+02 0.  0.
   -5000001    1    1    2    0    0  0.53593397231E+02 -0.15190099494E+03 -0.11479255281E+04  0.11617263803E+04  0.77000000000E+02 0.  0.
<mgrwt>
<rscale>  0 0.36259212E+03</rscale>
<asrwt>0</asrwt>
<pdfrwt beam="1">  1        2 0.28109015E+00 0.36259212E+03</pdfrwt>
<pdfrwt beam="2">  1       -2 0.23863548E-02 0.36259212E+03</pdfrwt>
<totfact> 0.54591515E+03</totfact>
</mgrwt>
</event>
<event>
 4    1  0.5121375E-004  0.3613475E+03  0.7818608E-02  0.1058052E+00
         -2   -1    0    0    0  501 -0.00000000000E+00  0.00000000000E+00  0.18551736052E+03  0.18551736054E+03  0.25500000000E-02 0. -1.
          2   -1    0    0  501    0  0.00000000000E+00 -0.00000000000E+00 -0.17595663686E+03  0.17595663688E+03  0.25500000000E-02 0.  1.
    5000001    1    1    2    0    0  0.16420187347E+02  0.13753331162E+03 -0.82019679481E+02  0.17844120091E+03  0.77000000000E+02 0.  0.
   -5000001    1    1    2    0    0 -0.16420187347E+02 -0.13753331162E+03  0.91580403146E+02  0.18303279651E+03  0.77000000000E+02 0.  0.
<mgrwt>
<rscale>  0 0.36134754E+03</rscale>
<asrwt>0</asrwt>
<pdfrwt beam="1">  1        2 0.25136662E-01 0.36134754E+03</pdfrwt>
<pdfrwt beam="2">  1       -2 0.26502480E-01 0.36134754E+03</pdfrwt>
<totfact> 0.27524041E+03</totfact>
</mgrwt>
</event>
<event>
 4    1  0.5121375E-004  0.2743837E+03  0.7818608E-02  0.1098797E+00
          2   -1    0    0  501    0  0.00000000000E+00  0.00000000000E+00  0.34265794242E+03  0.34265794243E+03  0.25500000000E-02 0.  1.
         -2   -1    0    0    0  501 -0.00000000000E+00 -0.00000000000E+00 -0.54928248849E+02  0.54928248908E+02  0.25500000000E-02 0. -1.
    5000001    1    1    2    0    0  0.68328750313E+02 -0.37598853773E+02  0.24287188512E+02  0.11225577691E+03  0.77000000000E+02 0.  0.
   -5000001    1    1    2    0    0 -0.68328750313E+02  0.37598853773E+02  0.26344250506E+03  0.28533041442E+03  0.77000000000E+02 0.  0.
<mgrwt>
<rscale>  0 0.27438368E+03</rscale>
<asrwt>0</asrwt>
<pdfrwt beam="1">  1        2 0.48951132E-01 0.27438368E+03</pdfrwt>
<pdfrwt beam="2">  1       -2 0.78468930E-02 0.27438368E+03</pdfrwt>
<totfact> 0.99149017E+03</totfact>
</mgrwt>
</event>
<event>
 4    1  0.5121375E-004  0.2166100E+03  0.7818608E-02  0.1136436E+00
          2   -1    0    0  501    0  0.00000000000E+00  0.00000000000E+00  0.48531930046E+03  0.48531930046E+03  0.25500000000E-02 0.  1.
         -2   -1    0    0    0  501 -0.00000000000E+00 -0.00000000000E+00 -0.24169603474E+02  0.24169603608E+02  0.25500000000E-02 0. -1.
    5000001    1    1    2    0    0  0.47972913676E+02 -0.57894738619E+02  0.20198215769E+03  0.22886457400E+03  0.77000000000E+02 0.  0.
   -5000001    1    1    2    0    0 -0.47972913676E+02  0.57894738619E+02  0.25916753929E+03  0.28062433007E+03  0.77000000000E+02 0.  0.
<mgrwt>
<rscale>  0 0.21661002E+03</rscale>
<asrwt>0</asrwt>
<pdfrwt beam="1">  1        2 0.69331325E-01 0.21661002E+03</pdfrwt>
<pdfrwt beam="2">  1       -2 0.34528007E-02 0.21661002E+03</pdfrwt>
<totfact> 0.23406487E+04</totfact>
</mgrwt>
</event>
<event>
 4    1  0.5121375E-004  0.2648664E+03  0.7818608E-02  0.1104254E+00
         -2   -1    0    0    0  501 -0.00000000000E+00  0.00000000000E+00  0.24587157260E+02  0.24587157392E+02  0.25500000000E-02 0. -1.
          2   -1    0    0  501    0  0.00000000000E+00 -0.00000000000E+00 -0.71332158345E+03  0.71332158345E+03  0.25500000000E-02 0.  1.
    5000001    1    1    2    0    0  0.87877611634E+02  0.50856876993E+02 -0.24389253749E+03  0.27517533757E+03  0.77000000000E+02 0.  0.
   -5000001    1    1    2    0    0 -0.87877611634E+02 -0.50856876993E+02 -0.44484188870E+03  0.46273340327E+03  0.77000000000E+02 0.  0.
<mgrwt>
<rscale>  0 0.26486638E+03</rscale>
<asrwt>0</asrwt>
<pdfrwt beam="1">  1        2 0.10190307E+00 0.26486638E+03</pdfrwt>
<pdfrwt beam="2">  1       -2 0.35124515E-02 0.26486638E+03</pdfrwt>
<totfact> 0.14897957E+04</totfact>
</mgrwt>
</event>
<event>
 4    1  0.5121375E-004  0.1914268E+03  0.7818608E-02  0.1157181E+00
          2   -1    0    0  501    0  0.00000000000E+00  0.00000000000E+00  0.70703787148E+03  0.70703787149E+03  0.25500000000E-02 0.  1.
         -2   -1    0    0    0  501 -0.00000000000E+00 -0.00000000000E+00 -0.12956954947E+02  0.12956955198E+02  0.25500000000E-02 0. -1.
    5000001    1    1    2    0    0 -0.40442526610E+01  0.40485597012E+02  0.19769574277E+03  0.21602788305E+03  0.77000000000E+02 0.  0.
   -5000001    1    1    2    0    0  0.40442526610E+01 -0.40485597012E+02  0.49638517377E+03  0.50396694364E+03  0.77000000000E+02 0.  0.
<mgrwt>
<rscale>  0 0.19142683E+03</rscale>
<asrwt>0</asrwt>
<pdfrwt beam="1">  1        2 0.10100540E+00 0.19142683E+03</pdfrwt>
<pdfrwt beam="2">  1       -2 0.18509937E-02 0.19142683E+03</pdfrwt>
<totfact> 0.37959186E+04</totfact>
</mgrwt>
</event>
<event>
 4    1  0.5121375E-004  0.3166599E+03  0.7818608E-02  0.1077197E+00
          2   -1    0    0  501    0  0.00000000000E+00  0.00000000000E+00  0.67050357097E+02  0.67050357145E+02  0.25500000000E-02 0.  1.
         -2   -1    0    0    0  501 -0.00000000000E+00 -0.00000000000E+00 -0.37387371390E+03  0.37387371391E+03  0.25500000000E-02 0. -1.
    5000001    1    1    2    0    0  0.19780571647E+02 -0.48417900173E+02  0.24925979196E+02  0.96363211397E+02  0.77000000000E+02 0.  0.
   -5000001    1    1    2    0    0 -0.19780571647E+02  0.48417900173E+02 -0.33174933600E+03  0.34456085966E+03  0.77000000000E+02 0.  0.
<mgrwt>
<rscale>  0 0.31665986E+03</rscale>
<asrwt>0</asrwt>
<pdfrwt beam="1">  1        2 0.95786227E-02 0.31665986E+03</pdfrwt>
<pdfrwt beam="2">  1       -2 0.53410529E-01 0.31665986E+03</pdfrwt>
<totfact> 0.22792907E+03</totfact>
</mgrwt>
</event>
<event>
 4    1  0.5121375E-004  0.2377201E+03  0.7818608E-02  0.1121321E+00
         -2   -1    0    0    0  501 -0.00000000000E+00  0.00000000000E+00  0.37476111429E+02  0.37476111515E+02  0.25500000000E-02 0. -1.
          2   -1    0    0  501    0  0.00000000000E+00 -0.00000000000E+00 -0.37697904503E+03  0.37697904504E+03  0.25500000000E-02 0.  1.
    5000001    1    1    2    0    0  0.13780757896E+01  0.89553167002E+02 -0.19294929187E+03  0.22623018818E+03  0.77000000000E+02 0.  0.
   -5000001    1    1    2    0    0 -0.13780757896E+01 -0.89553167002E+02 -0.14655364173E+03  0.18822496837E+03  0.77000000000E+02 0.  0.
<mgrwt>
<rscale>  0 0.23772008E+03</rscale>
<asrwt>0</asrwt>
<pdfrwt beam="1">  1        2 0.53854147E-01 0.23772008E+03</pdfrwt>
<pdfrwt beam="2">  1       -2 0.53537304E-02 0.23772008E+03</pdfrwt>
<totfact> 0.16003184E+04</totfact>
</mgrwt>
</event>
<event>
 4    1  0.5121375E-004  0.2196259E+03  0.7818608E-02  0.1134162E+00
          2   -1    0    0  501    0  0.00000000000E+00  0.00000000000E+00  0.44891332793E+04  0.44891332793E+04  0.25500000000E-02 0.  1.
         -2   -1    0    0    0  501 -0.00000000000E+00 -0.00000000000E+00 -0.26862382537E+01  0.26862394641E+01  0.25500000000E-02 0. -1.
    5000001    1    1    2    0    0  0.67486925035E+02  0.37746500413E+02  0.24942112829E+04  0.24965973257E+04  0.77000000000E+02 0.  0.
   -5000001    1    1    2    0    0 -0.67486925035E+02 -0.37746500413E+02  0.19922357582E+04  0.19952221930E+04  0.77000000000E+02 0.  0.
<mgrwt>
<rscale>  0 0.21962590E+03</rscale>
<asrwt>0</asrwt>
<pdfrwt beam="1">  1        2 0.64129947E+00 0.21962590E+03</pdfrwt>
<pdfrwt beam="2">  1       -2 0.38375157E-03 0.21962590E+03</pdfrwt>
<totfact> 0.28255656E+03</totfact>
</mgrwt>
</event>
<event>
 4    1  0.5121375E-004  0.3771791E+03  0.7818608E-02  0.1051981E+00
         -2   -1    0    0    0  501 -0.00000000000E+00  0.00000000000E+00  0.31176003594E+02  0.31176003698E+02  0.25500000000E-02 0. -1.
          2   -1    0    0  501    0  0.00000000000E+00 -0.00000000000E+00 -0.11408140195E+04  0.11408140195E+04  0.25500000000E-02 0.  1.
    5000001    1    1    2    0    0  0.13965732551E+03  0.53145513054E+02 -0.28918256153E+03  0.33449090872E+03  0.77000000000E+02 0.  0.
   -5000001    1    1    2    0    0 -0.13965732551E+03 -0.53145513054E+02 -0.82045545437E+03  0.83749911446E+03  0.77000000000E+02 0.  0.
<mgrwt>
<rscale>  0 0.37717912E+03</rscale>
<asrwt>0</asrwt>
<pdfrwt beam="1">  1        2 0.16297341E+00 0.37717912E+03</pdfrwt>
<pdfrwt beam="2">  1       -2 0.44537155E-02 0.37717912E+03</pdfrwt>
<totfact> 0.56740325E+03</totfact>
</mgrwt>
</event>
<event>
 4    1  0.5121375E-004  0.3651889E+03  0.7818608E-02  0.1056548E+00
          2   -1    0    0  501    0  0.00000000000E+00  0.00000000000E+00  0.55727085643E+03  0.55727085644E+03  0.25500000000E-02 0.  1.
         -2   -1    0    0    0  501 -0.00000000000E+00 -0.00000000000E+00 -0.59828586281E+02  0.59828586335E+02  0.25500000000E-02 0. -1.
    5000001    1    1    2    0    0  0.95450202346E+02  0.78209454151E+02  0.62196010673E+02  0.15819229940E+03  0.77000000000E+02 0.  0.
   -5000001    1    1    2    0    0 -0.95450202346E+02 -0.78209454151E+02  0.43524625948E+03  0.45890714337E+03  0.77000000000E+02 0.  0.
<mgrwt>
<rscale>  0 0.36518887E+03</rscale>
<asrwt>0</asrwt>
<pdfrwt beam="1">  1        2 0.79610130E-01 0.36518887E+03</pdfrwt>
<pdfrwt beam="2">  1       -2 0.85469401E-02 0.36518887E+03</pdfrwt>
<totfact> 0.51281291E+03</totfact>
</mgrwt>
</event>
<event>
 4    1  0.5121375E-004  0.4823774E+03  0.7818608E-02  0.1018484E+00
         -2   -1    0    0    0  501 -0.00000000000E+00  0.00000000000E+00  0.20979337197E+02  0.20979337352E+02  0.25500000000E-02 0. -1.
          2   -1    0    0  501    0  0.00000000000E+00 -0.00000000000E+00 -0.27728225104E+04  0.27728225104E+04  0.25500000000E-02 0.  1.
    5000001    1    1    2    0    0  0.12268406494E+03 -0.17689870457E+03 -0.18207346508E+04  0.18350335692E+04  0.77000000000E+02 0.  0.
   -5000001    1    1    2    0    0 -0.12268406494E+03  0.17689870457E+03 -0.93110852235E+03  0.95876827850E+03  0.77000000000E+02 0.  0.
<mgrwt>
<rscale>  0 0.48237736E+03</rscale>
<asrwt>0</asrwt>
<pdfrwt beam="1">  1        2 0.39611727E+00 0.48237736E+03</pdfrwt>
<pdfrwt beam="2">  1       -2 0.29970499E-02 0.48237736E+03</pdfrwt>
<totfact> 0.15147802E+03</totfact>
</mgrwt>
</event>
<event>
 4    1  0.5121375E-004  0.2584506E+03  0.7818608E-02  0.1108078E+00
          2   -1    0    0  501    0  0.00000000000E+00  0.00000000000E+00  0.17274790162E+04  0.17274790162E+04  0.25500000000E-02 0.  1.
         -2   -1    0    0    0  501 -0.00000000000E+00 -0.00000000000E+00 -0.96667886147E+01  0.96667889510E+01  0.25500000000E-02 0. -1.
    5000001    1    1    2    0    0  0.94516504110E+02  0.41730024143E+02  0.79325283229E+03  0.80365030978E+03  0.77000000000E+02 0.  0.
   -5000001    1    1    2    0    0 -0.94516504110E+02 -0.41730024143E+02  0.92455939533E+03  0.93349549542E+03  0.77000000000E+02 0.  0.
<mgrwt>
<rscale>  0 0.25845057E+03</rscale>
<asrwt>0</asrwt>
<pdfrwt beam="1">  1        2 0.24678273E+00 0.25845057E+03</pdfrwt>
<pdfrwt beam="2">  1       -2 0.13809697E-02 0.25845057E+03</pdfrwt>
<totfact> 0.15957451E+04</totfact>
</mgrwt>
</event>
<event>
 4    1  0.5121375E-004  0.1716420E+03  0.7818608E-02  0.1176146E+00
          2   -1    0    0  501    0  0.00000000000E+00  0.00000000000E+00  0.21805111067E+03  0.21805111068E+03  0.25500000000E-02 0.  1.
         -2   -1    0    0    0  501 -0.00000000000E+00 -0.00000000000E+00 -0.33777609589E+02  0.33777609685E+02  0.25500000000E-02 0. -1.
    5000001    1    1    2    0    0 -0.34054732205E+02 -0.16181297636E+02  0.97759325053E+02  0.13002863075E+03  0.77000000000E+02 0.  0.
   -5000001    1    1    2    0    0  0.34054732205E+02  0.16181297636E+02  0.86514176027E+02  0.12180008962E+03  0.77000000000E+02 0.  0.
<mgrwt>
<rscale>  0 0.17164201E+03</rscale>
<asrwt>0</asrwt>
<pdfrwt beam="1">  1        2 0.31150158E-01 0.17164201E+03</pdfrwt>
<pdfrwt beam="2">  1       -2 0.48253730E-02 0.17164201E+03</pdfrwt>
<totfact> 0.32889215E+04</totfact>
</mgrwt>
</event>
<event>
 4    1  0.5121375E-004  0.2091262E+03  0.7818608E-02  0.1142260E+00
          2   -1    0    0  501    0  0.00000000000E+00  0.00000000000E+00  0.49182537334E+03  0.49182537335E+03  0.25500000000E-02 0.  1.
         -2   -1    0    0    0  501 -0.00000000000E+00 -0.00000000000E+00 -0.22230336048E+02  0.22230336194E+02  0.25500000000E-02 0. -1.
    5000001    1    1    2    0    0 -0.21061936488E+02 -0.48596342744E+02  0.35007312081E+03  0.36233327146E+03  0.77000000000E+02 0.  0.
   -5000001    1    1    2    0    0  0.21061936488E+02  0.48596342744E+02  0.11952191649E+03  0.15172243808E+03  0.77000000000E+02 0.  0.
<mgrwt>
<rscale>  0 0.20912621E+03</rscale>
<asrwt>0</asrwt>
<pdfrwt beam="1">  1        2 0.70260760E-01 0.20912621E+03</pdfrwt>
<pdfrwt beam="2">  1       -2 0.31757627E-02 0.20912621E+03</pdfrwt>
<totfact> 0.26056202E+04</totfact>
</mgrwt>
</event>
<event>
 4    1  0.5121375E-004  0.2302431E+03  0.7818608E-02  0.1126469E+00
          2   -1    0    0  501    0  0.00000000000E+00  0.00000000000E+00  0.78190367460E+03  0.78190367461E+03  0.25500000000E-02 0.  1.
         -2   -1    0    0    0  501 -0.00000000000E+00 -0.00000000000E+00 -0.16949614673E+02  0.16949614865E+02  0.25500000000E-02 0. -1.
    5000001    1    1    2    0    0 -0.84438627920E+02 -0.44991814902E+01  0.42822346841E+03  0.44323183935E+03  0.77000000000E+02 0.  0.
   -5000001    1    1    2    0    0  0.84438627920E+02  0.44991814902E+01  0.33673059152E+03  0.35562145012E+03  0.77000000000E+02 0.  0.
<mgrwt>
<rscale>  0 0.23024305E+03</rscale>
<asrwt>0</asrwt>
<pdfrwt beam="1">  1        2 0.11170053E+00 0.23024305E+03</pdfrwt>
<pdfrwt beam="2">  1       -2 0.24213735E-02 0.23024305E+03</pdfrwt>
<totfact> 0.22992719E+04</totfact>
</mgrwt>
</event>
<event>
 4    1  0.5121375E-004  0.2820630E+03  0.7818608E-02  0.1094567E+00
          2   -1    0    0  501    0  0.00000000000E+00  0.00000000000E+00  0.16618859566E+04  0.16618859566E+04  0.25500000000E-02 0.  1.
         -2   -1    0    0    0  501 -0.00000000000E+00 -0.00000000000E+00 -0.11968261091E+02  0.11968261363E+02  0.25500000000E-02 0. -1.
    5000001    1    1    2    0    0 -0.93129483281E+02  0.59328677051E+02  0.10744754488E+04  0.10828755619E+04  0.77000000000E+02 0.  0.
   -5000001    1    1    2    0    0  0.93129483281E+02 -0.59328677051E+02  0.57544224671E+03  0.59097865602E+03  0.77000000000E+02 0.  0.
<mgrwt>
<rscale>  0 0.28206301E+03</rscale>
<asrwt>0</asrwt>
<pdfrwt beam="1">  1        2 0.23741209E+00 0.28206301E+03</pdfrwt>
<pdfrwt beam="2">  1       -2 0.17097530E-02 0.28206301E+03</pdfrwt>
<totfact> 0.12609248E+04</totfact>
</mgrwt>
</event>
<event>
 4    1  0.5121375E-004  0.1859388E+03  0.7818608E-02  0.1162176E+00
          2   -1    0    0  501    0  0.00000000000E+00  0.00000000000E+00  0.14758001153E+03  0.14758001155E+03  0.25500000000E-02 0.  1.
         -2   -1    0    0    0  501 -0.00000000000E+00 -0.00000000000E+00 -0.58566951364E+02  0.58566951419E+02  0.25500000000E-02 0. -1.
    5000001    1    1    2    0    0 -0.20653369149E+01 -0.30254121650E+02 -0.24619921162E+01  0.82792746654E+02  0.77000000000E+02 0.  0.
   -5000001    1    1    2    0    0  0.20653369149E+01  0.30254121650E+02  0.91475052285E+02  0.12335421632E+03  0.77000000000E+02 0.  0.
<mgrwt>
<rscale>  0 0.18593882E+03</rscale>
<asrwt>0</asrwt>
<pdfrwt beam="1">  1        2 0.21082859E-01 0.18593882E+03</pdfrwt>
<pdfrwt beam="2">  1       -2 0.83667073E-02 0.18593882E+03</pdfrwt>
<totfact> 0.21986119E+04</totfact>
</mgrwt>
</event>
<event>
 4    1  0.5121375E-004  0.2300824E+03  0.7818608E-02  0.1126582E+00
          2   -1    0    0  501    0  0.00000000000E+00  0.00000000000E+00  0.10017253728E+04  0.10017253728E+04  0.25500000000E-02 0.  1.
         -2   -1    0    0    0  501 -0.00000000000E+00 -0.00000000000E+00 -0.13211687799E+02  0.13211688045E+02  0.25500000000E-02 0. -1.
    5000001    1    1    2    0    0 -0.61571563123E+02 -0.50683051223E+02  0.62990745043E+03  0.63958754301E+03  0.77000000000E+02 0.  0.
   -5000001    1    1    2    0    0  0.61571563123E+02  0.50683051223E+02  0.35860623453E+03  0.37534951780E+03  0.77000000000E+02 0.  0.
<mgrwt>
<rscale>  0 0.23008245E+03</rscale>
<asrwt>0</asrwt>
<pdfrwt beam="1">  1        2 0.14310364E+00 0.23008245E+03</pdfrwt>
<pdfrwt beam="2">  1       -2 0.18873838E-02 0.23008245E+03</pdfrwt>
<totfact> 0.24127144E+04</totfact>
</mgrwt>
</event>
<event>
 4    1  0.5121375E-004  0.2040833E+03  0.7818608E-02  0.1146339E+00
          2   -1    0    0  501    0  0.00000000000E+00  0.00000000000E+00  0.11896802343E+02  0.11896802616E+02  0.25500000000E-02 0.  1.
         -2   -1    0    0    0  501 -0.00000000000E+00 -0.00000000000E+00 -0.87523517730E+03  0.87523517730E+03  0.25500000000E-02 0. -1.
    5000001    1    1    2    0    0 -0.26866281039E+02 -0.60087891772E+02 -0.48511113464E+03  0.49557458041E+03  0.77000000000E+02 0.  0.
   -5000001    1    1    2    0    0  0.26866281039E+02  0.60087891772E+02 -0.37822724032E+03  0.39155739951E+03  0.77000000000E+02 0.  0.
<mgrwt>
<rscale>  0 0.20408332E+03</rscale>
<asrwt>0</asrwt>
<pdfrwt beam="1">  1        2 0.16995438E-02 0.20408332E+03</pdfrwt>
<pdfrwt beam="2">  1       -2 0.12503356E+00 0.20408332E+03</pdfrwt>
<totfact> 0.33837960E+03</totfact>
</mgrwt>
</event>
<event>
 4    1  0.5121375E-004  0.2001660E+03  0.7818608E-02  0.1149599E+00
          2   -1    0    0  501    0  0.00000000000E+00  0.00000000000E+00  0.11983491482E+04  0.11983491482E+04  0.25500000000E-02 0.  1.
         -2   -1    0    0    0  501 -0.00000000000E+00 -0.00000000000E+00 -0.83586724835E+01  0.83586728724E+01  0.25500000000E-02 0. -1.
    5000001    1    1    2    0    0  0.26854920048E+02  0.55013220336E+02  0.70615055960E+03  0.71296932189E+03  0.77000000000E+02 0.  0.
   -5000001    1    1    2    0    0 -0.26854920048E+02 -0.55013220336E+02  0.48383991608E+03  0.49373849914E+03  0.77000000000E+02 0.  0.
<mgrwt>
<rscale>  0 0.20016601E+03</rscale>
<asrwt>0</asrwt>
<pdfrwt beam="1">  1        2 0.17119271E+00 0.20016601E+03</pdfrwt>
<pdfrwt beam="2">  1       -2 0.11940963E-02 0.20016601E+03</pdfrwt>
<totfact> 0.36131649E+04</totfact>
</mgrwt>
</event>
<event>
 4    1  0.5121375E-004  0.2549116E+03  0.7818608E-02  0.1110240E+00
          2   -1    0    0  501    0  0.00000000000E+00  0.00000000000E+00  0.30176897865E+03  0.30176897866E+03  0.25500000000E-02 0.  1.
         -2   -1    0    0    0  501 -0.00000000000E+00 -0.00000000000E+00 -0.53832524908E+02  0.53832524968E+02  0.25500000000E-02 0. -1.
    5000001    1    1    2    0    0  0.38982760119E+02 -0.36627181370E+02  0.35225160207E+01  0.93822247472E+02  0.77000000000E+02 0.  0.
   -5000001    1    1    2    0    0 -0.38982760119E+02  0.36627181370E+02  0.24441393772E+03  0.26177925616E+03  0.77000000000E+02 0.  0.
<mgrwt>
<rscale>  0 0.25491164E+03</rscale>
<asrwt>0</asrwt>
<pdfrwt beam="1">  1        2 0.43109856E-01 0.25491164E+03</pdfrwt>
<pdfrwt beam="2">  1       -2 0.76903604E-02 0.25491164E+03</pdfrwt>
<totfact> 0.11687771E+04</totfact>
</mgrwt>
</event>
<event>
 4    1  0.5121375E-004  0.5641412E+03  0.7818608E-02  0.9982728E-01
         -2   -1    0    0    0  501 -0.00000000000E+00  0.00000000000E+00  0.37888729254E+03  0.37888729255E+03  0.25500000000E-02 0. -1.
          2   -1    0    0  501    0  0.00000000000E+00 -0.00000000000E+00 -0.20999340096E+03  0.20999340097E+03  0.25500000000E-02 0.  1.
    5000001    1    1    2    0    0 -0.26880624641E+03  0.33249292430E+02  0.67214903664E+02  0.28949811196E+03  0.77000000000E+02 0.  0.
   -5000001    1    1    2    0    0  0.26880624641E+03 -0.33249292430E+02  0.10167898792E+03  0.29938258156E+03  0.77000000000E+02 0.  0.
<mgrwt>
<rscale>  0 0.56414123E+03</rscale>
<asrwt>0</asrwt>
<pdfrwt beam="1">  1        2 0.29999057E-01 0.56414123E+03</pdfrwt>
<pdfrwt beam="2">  1       -2 0.54126756E-01 0.56414123E+03</pdfrwt>
<totfact> 0.57620605E+02</totfact>
</mgrwt>
</event>
<event>
 4    1  0.5121375E-004  0.2473162E+03  0.7818608E-02  0.1115013E+00
          2   -1    0    0  501    0  0.00000000000E+00  0.00000000000E+00  0.13601241067E+04  0.13601241067E+04  0.25500000000E-02 0.  1.
         -2   -1    0    0    0  501 -0.00000000000E+00 -0.00000000000E+00 -0.11242594146E+02  0.11242594435E+02  0.25500000000E-02 0. -1.
    5000001    1    1    2    0    0  0.44486427654E+02 -0.81242300159E+02  0.82959855518E+03  0.83829715277E+03  0.77000000000E+02 0.  0.
   -5000001    1    1    2    0    0 -0.44486427654E+02  0.81242300159E+02  0.51928295736E+03  0.53306954836E+03  0.77000000000E+02 0.  0.
<mgrwt>
<rscale>  0 0.24731618E+03</rscale>
<asrwt>0</asrwt>
<pdfrwt beam="1">  1        2 0.19430334E+00 0.24731618E+03</pdfrwt>
<pdfrwt beam="2">  1       -2 0.16060858E-02 0.24731618E+03</pdfrwt>
<totfact> 0.19532858E+04</totfact>
</mgrwt>
</event>
<event>
 4    1  0.5121375E-004  0.2143859E+03  0.7818608E-02  0.1138139E+00
          2   -1    0    0  501    0  0.00000000000E+00  0.00000000000E+00  0.10594003298E+03  0.10594003301E+03  0.25500000000E-02 0.  1.
         -2   -1    0    0    0  501 -0.00000000000E+00 -0.00000000000E+00 -0.10846071923E+03  0.10846071926E+03  0.25500000000E-02 0. -1.
    5000001    1    1    2    0    0 -0.71596771446E+02 -0.20770950693E+02 -0.32103765215E+01  0.10722330247E+03  0.77000000000E+02 0.  0.
   -5000001    1    1    2    0    0  0.71596771446E+02  0.20770950693E+02  0.68969026989E+00  0.10717744981E+03  0.77000000000E+02 0.  0.
<mgrwt>
<rscale>  0 0.21438593E+03</rscale>
<asrwt>0</asrwt>
<pdfrwt beam="1">  1        2 0.15134291E-01 0.21438593E+03</pdfrwt>
<pdfrwt beam="2">  1       -2 0.15494388E-01 0.21438593E+03</pdfrwt>
<totfact> 0.12146359E+04</totfact>
</mgrwt>
</event>
<event>
 4    1  0.5121375E-004  0.4879724E+03  0.7818608E-02  0.1016967E+00
          2   -1    0    0  501    0  0.00000000000E+00  0.00000000000E+00  0.17487683832E+04  0.17487683832E+04  0.25500000000E-02 0.  1.
         -2   -1    0    0    0  501 -0.00000000000E+00 -0.00000000000E+00 -0.34040686368E+02  0.34040686463E+02  0.25500000000E-02 0. -1.
    5000001    1    1    2    0    0  0.47931681137E+02 -0.20567087115E+03  0.12040103570E+04  0.12248134115E+04  0.77000000000E+02 0.  0.
   -5000001    1    1    2    0    0 -0.47931681137E+02  0.20567087115E+03  0.51071733984E+03  0.55799565815E+03  0.77000000000E+02 0.  0.
<mgrwt>
<rscale>  0 0.48797244E+03</rscale>
<asrwt>0</asrwt>
<pdfrwt beam="1">  1        2 0.24982408E+00 0.48797244E+03</pdfrwt>
<pdfrwt beam="2">  1       -2 0.48629546E-02 0.48797244E+03</pdfrwt>
<totfact> 0.23817647E+03</totfact>
</mgrwt>
</event>
<event>
 4    1  0.5121375E-004  0.2259491E+03  0.7818608E-02  0.1129524E+00
          2   -1    0    0  501    0  0.00000000000E+00  0.00000000000E+00  0.12103810492E+04  0.12103810492E+04  0.25500000000E-02 0.  1.
         -2   -1    0    0    0  501 -0.00000000000E+00 -0.00000000000E+00 -0.10544823285E+02  0.10544823594E+02  0.25500000000E-02 0. -1.
    5000001    1    1    2    0    0 -0.44237904034E+01  0.70960725212E+02  0.82784643711E+03  0.83445414366E+03  0.77000000000E+02 0.  0.
   -5000001    1    1    2    0    0  0.44237904034E+01 -0.70960725212E+02  0.37198978885E+03  0.38647172918E+03  0.77000000000E+02 0.  0.
<mgrwt>
<rscale>  0 0.22594915E+03</rscale>
<asrwt>0</asrwt>
<pdfrwt beam="1">  1        2 0.17291150E+00 0.22594915E+03</pdfrwt>
<pdfrwt beam="2">  1       -2 0.15064040E-02 0.22594915E+03</pdfrwt>
<totfact> 0.25601379E+04</totfact>
</mgrwt>
</event>
<event>
 4    1  0.5121375E-004  0.2551328E+03  0.7818608E-02  0.1110103E+00
          2   -1    0    0  501    0  0.00000000000E+00  0.00000000000E+00  0.25220824353E+03  0.25220824354E+03  0.25500000000E-02 0.  1.
         -2   -1    0    0    0  501 -0.00000000000E+00 -0.00000000000E+00 -0.64522842470E+02  0.64522842520E+02  0.25500000000E-02 0. -1.
    5000001    1    1    2    0    0 -0.43668962436E+02 -0.34632930071E+02  0.19945800084E+03  0.22095002201E+03  0.77000000000E+02 0.  0.
   -5000001    1    1    2    0    0  0.43668962436E+02  0.34632930071E+02 -0.11772599783E+02  0.95781064053E+02  0.77000000000E+02 0.  0.
<mgrwt>
<rscale>  0 0.25513285E+03</rscale>
<asrwt>0</asrwt>
<pdfrwt beam="1">  1        2 0.36029750E-01 0.25513285E+03</pdfrwt>
<pdfrwt beam="2">  1       -2 0.92175488E-02 0.25513285E+03</pdfrwt>
<totfact> 0.10678467E+04</totfact>
</mgrwt>
</event>
<event>
 4    1  0.5121375E-004  0.1639829E+03  0.7818608E-02  0.1184272E+00
          2   -1    0    0  501    0  0.00000000000E+00  0.00000000000E+00  0.94470028361E+03  0.94470028361E+03  0.25500000000E-02 0.  1.
         -2   -1    0    0    0  501 -0.00000000000E+00 -0.00000000000E+00 -0.71161153107E+01  0.71161157676E+01  0.25500000000E-02 0. -1.
    5000001    1    1    2    0    0  0.28180716979E+01 -0.15354111285E+02  0.60490487590E+03  0.60998573684E+03  0.77000000000E+02 0.  0.
   -5000001    1    1    2    0    0 -0.28180716979E+01  0.15354111285E+02  0.33267929239E+03  0.34183066253E+03  0.77000000000E+02 0.  0.
<mgrwt>
<rscale>  0 0.16398288E+03</rscale>
<asrwt>0</asrwt>
<pdfrwt beam="1">  1        2 0.13495716E+00 0.16398288E+03</pdfrwt>
<pdfrwt beam="2">  1       -2 0.10165881E-02 0.16398288E+03</pdfrwt>
<totfact> 0.62311374E+04</totfact>
</mgrwt>
</event>
<event>
 4    1  0.5121375E-004  0.4656628E+03  0.7818608E-02  0.1023152E+00
          2   -1    0    0  501    0  0.00000000000E+00  0.00000000000E+00  0.21256307530E+04  0.21256307530E+04  0.25500000000E-02 0.  1.
         -2   -1    0    0    0  501 -0.00000000000E+00 -0.00000000000E+00 -0.25503238322E+02  0.25503238449E+02  0.25500000000E-02 0. -1.
    5000001    1    1    2    0    0  0.21834452848E+03  0.18249692097E+02  0.11265418921E+04  0.11502317241E+04  0.77000000000E+02 0.  0.
   -5000001    1    1    2    0    0 -0.21834452848E+03 -0.18249692097E+02  0.97358562257E+03  0.10009022674E+04  0.77000000000E+02 0.  0.
<mgrwt>
<rscale>  0 0.46566283E+03</rscale>
<asrwt>0</asrwt>
<pdfrwt beam="1">  1        2 0.30366159E+00 0.46566283E+03</pdfrwt>
<pdfrwt beam="2">  1       -2 0.36433191E-02 0.46566283E+03</pdfrwt>
<totfact> 0.24053447E+03</totfact>
</mgrwt>
</event>
<event>
 4    1  0.5121375E-004  0.2832330E+03  0.7818608E-02  0.1093936E+00
         -2   -1    0    0    0  501 -0.00000000000E+00  0.00000000000E+00  0.33735655800E+02  0.33735655896E+02  0.25500000000E-02 0. -1.
          2   -1    0    0  501    0  0.00000000000E+00 -0.00000000000E+00 -0.59448177670E+03  0.59448177670E+03  0.25500000000E-02 0.  1.
    5000001    1    1    2    0    0 -0.85988855188E+02  0.72695646419E+02 -0.19598630624E+03  0.23878520151E+03  0.77000000000E+02 0.  0.
   -5000001    1    1    2    0    0  0.85988855188E+02 -0.72695646419E+02 -0.36475981465E+03  0.38943223109E+03  0.77000000000E+02 0.  0.
<mgrwt>
<rscale>  0 0.28323300E+03</rscale>
<asrwt>0</asrwt>
<pdfrwt beam="1">  1        2 0.84925961E-01 0.28323300E+03</pdfrwt>
<pdfrwt beam="2">  1       -2 0.48193798E-02 0.28323300E+03</pdfrwt>
<totfact> 0.11471977E+04</totfact>
</mgrwt>
</event>
<event>
 4    1  0.5121375E-004  0.4221774E+03  0.7818608E-02  0.1036360E+00
         -2   -1    0    0    0  501 -0.00000000000E+00  0.00000000000E+00  0.13253724436E+02  0.13253724682E+02  0.25500000000E-02 0. -1.
          2   -1    0    0  501    0  0.00000000000E+00 -0.00000000000E+00 -0.33619552603E+04  0.33619552603E+04  0.25500000000E-02 0.  1.
    5000001    1    1    2    0    0  0.75383238765E+02 -0.17921619981E+03 -0.19044486850E+04  0.19158953189E+04  0.77000000000E+02 0.  0.
   -5000001    1    1    2    0    0 -0.75383238765E+02  0.17921619981E+03 -0.14442528509E+04  0.14593136662E+04  0.77000000000E+02 0.  0.
<mgrwt>
<rscale>  0 0.42217735E+03</rscale>
<asrwt>0</asrwt>
<pdfrwt beam="1">  1        2 0.48027878E+00 0.42217735E+03</pdfrwt>
<pdfrwt beam="2">  1       -2 0.18933914E-02 0.42217735E+03</pdfrwt>
<totfact> 0.14464923E+03</totfact>
</mgrwt>
</event>
<event>
 4    1  0.5121375E-004  0.1863301E+03  0.7818608E-02  0.1161814E+00
         -2   -1    0    0    0  501 -0.00000000000E+00  0.00000000000E+00  0.18031182046E+03  0.18031182048E+03  0.25500000000E-02 0. -1.
          2   -1    0    0  501    0  0.00000000000E+00 -0.00000000000E+00 -0.48137311903E+02  0.48137311971E+02  0.25500000000E-02 0.  1.
    5000001    1    1    2    0    0 -0.33647104524E+02 -0.23644727821E+02  0.10599546152E+03  0.13731437892E+03  0.77000000000E+02 0.  0.
   -5000001    1    1    2    0    0  0.33647104524E+02  0.23644727821E+02  0.26179047041E+02  0.91134753528E+02  0.77000000000E+02 0.  0.
<mgrwt>
<rscale>  0 0.18633010E+03</rscale>
<asrwt>0</asrwt>
<pdfrwt beam="1">  1        2 0.68767588E-02 0.18633010E+03</pdfrwt>
<pdfrwt beam="2">  1       -2 0.25758832E-01 0.18633010E+03</pdfrwt>
<totfact> 0.13369174E+04</totfact>
</mgrwt>
</event>
<event>
 4    1  0.5121375E-004  0.2171651E+03  0.7818608E-02  0.1136014E+00
         -2   -1    0    0    0  501 -0.00000000000E+00  0.00000000000E+00  0.89904255358E+01  0.89904258974E+01  0.25500000000E-02 0. -1.
          2   -1    0    0  501    0  0.00000000000E+00 -0.00000000000E+00 -0.13114143233E+04  0.13114143233E+04  0.25500000000E-02 0.  1.
    5000001    1    1    2    0    0  0.30844087579E+02  0.29815999789E+02 -0.10367563385E+04  0.10404965435E+04  0.77000000000E+02 0.  0.
   -5000001    1    1    2    0    0 -0.30844087579E+02 -0.29815999789E+02 -0.26566755927E+03  0.27990820572E+03  0.77000000000E+02 0.  0.
<mgrwt>
<rscale>  0 0.21716513E+03</rscale>
<asrwt>0</asrwt>
<pdfrwt beam="1">  1        2 0.18734478E+00 0.21716513E+03</pdfrwt>
<pdfrwt beam="2">  1       -2 0.12843474E-02 0.21716513E+03</pdfrwt>
<totfact> 0.28479578E+04</totfact>
</mgrwt>
</event>
<event>
 4    1  0.5121375E-004  0.2634114E+03  0.7818608E-02  0.1105111E+00
         -2   -1    0    0    0  501 -0.00000000000E+00  0.00000000000E+00  0.14412560823E+02  0.14412561049E+02  0.25500000000E-02 0. -1.
          2   -1    0    0  501    0  0.00000000000E+00 -0.00000000000E+00 -0.12035606271E+04  0.12035606271E+04  0.25500000000E-02 0.  1.
    5000001    1    1    2    0    0  0.81677672264E+02 -0.28795139390E+02 -0.30518682730E+03  0.32644816090E+03  0.77000000000E+02 0.  0.
   -5000001    1    1    2    0    0 -0.81677672264E+02  0.28795139390E+02 -0.88396123894E+03  0.89152502722E+03  0.77000000000E+02 0.  0.
<mgrwt>
<rscale>  0 0.26341140E+03</rscale>
<asrwt>0</asrwt>
<pdfrwt beam="1">  1        2 0.17193717E+00 0.26341140E+03</pdfrwt>
<pdfrwt beam="2">  1       -2 0.20589380E-02 0.26341140E+03</pdfrwt>
<totfact> 0.16462258E+04</totfact>
</mgrwt>
</event>
<event>
 4    1  0.5121375E-004  0.1737618E+03  0.7818608E-02  0.1173981E+00
          2   -1    0    0  501    0  0.00000000000E+00  0.00000000000E+00  0.88092954205E+02  0.88092954242E+02  0.25500000000E-02 0.  1.
         -2   -1    0    0    0  501 -0.00000000000E+00 -0.00000000000E+00 -0.85685535964E+02  0.85685536002E+02  0.25500000000E-02 0. -1.
    5000001    1    1    2    0    0  0.18874624917E+02  0.34197525620E+02 -0.84703664869E+01  0.86755226544E+02  0.77000000000E+02 0.  0.
   -5000001    1    1    2    0    0 -0.18874624917E+02 -0.34197525620E+02  0.10877784728E+02  0.87023263699E+02  0.77000000000E+02 0.  0.
<mgrwt>
<rscale>  0 0.17376181E+03</rscale>
<asrwt>0</asrwt>
<pdfrwt beam="1">  1        2 0.12584708E-01 0.17376181E+03</pdfrwt>
<pdfrwt beam="2">  1       -2 0.12240791E-01 0.17376181E+03</pdfrwt>
<totfact> 0.21853121E+04</totfact>
</mgrwt>
</event>
<event>
 4    1  0.5121375E-004  0.2367299E+03  0.7818608E-02  0.1121991E+00
         -2   -1    0    0    0  501 -0.00000000000E+00  0.00000000000E+00  0.16450070759E+02  0.16450070956E+02  0.25500000000E-02 0. -1.
          2   -1    0    0  501    0  0.00000000000E+00 -0.00000000000E+00 -0.85168387145E+03  0.85168387146E+03  0.25500000000E-02 0.  1.
    5000001    1    1    2    0    0  0.80924351359E+01  0.59072112169E+02 -0.66433630034E+03  0.67143631261E+03  0.77000000000E+02 0.  0.
   -5000001    1    1    2    0    0 -0.80924351359E+01 -0.59072112169E+02 -0.17089750036E+03  0.19669762980E+03  0.77000000000E+02 0.  0.
<mgrwt>
<rscale>  0 0.23672989E+03</rscale>
<asrwt>0</asrwt>
<pdfrwt beam="1">  1        2 0.12166910E+00 0.23672989E+03</pdfrwt>
<pdfrwt beam="2">  1       -2 0.23500107E-02 0.23672989E+03</pdfrwt>
<totfact> 0.21644487E+04</totfact>
</mgrwt>
</event>
<event>
 4    1  0.5121375E-004  0.2166925E+03  0.7818608E-02  0.1136373E+00
         -2   -1    0    0    0  501 -0.00000000000E+00  0.00000000000E+00  0.20986432281E+02  0.20986432436E+02  0.25500000000E-02 0.  1.
          2   -1    0    0  501    0  0.00000000000E+00 -0.00000000000E+00 -0.55935684796E+03  0.55935684796E+03  0.25500000000E-02 0. -1.
    5000001    1    1    2    0    0  0.35508238212E+02  0.66692954003E+02 -0.29611659782E+03  0.31515523889E+03  0.77000000000E+02 0.  0.
   -5000001    1    1    2    0    0 -0.35508238212E+02 -0.66692954003E+02 -0.24225381786E+03  0.26518804151E+03  0.77000000000E+02 0.  0.
<mgrwt>
<rscale>  0 0.21669245E+03</rscale>
<asrwt>0</asrwt>
<pdfrwt beam="1">  1        2 0.79908112E-01 0.21669245E+03</pdfrwt>
<pdfrwt beam="2">  1       -2 0.29980621E-02 0.21669245E+03</pdfrwt>
<totfact> 0.24672984E+04</totfact>
</mgrwt>
</event>
<event>
 4    1  0.5121375E-004  0.3807964E+03  0.7818608E-02  0.1050640E+00
          2   -1    0    0  501    0  0.00000000000E+00  0.00000000000E+00  0.12853602894E+04  0.12853602895E+04  0.25500000000E-02 0.  1.
         -2   -1    0    0    0  501 -0.00000000000E+00 -0.00000000000E+00 -0.28203363587E+02  0.28203363702E+02  0.25500000000E-02 0. -1.
    5000001    1    1    2    0    0  0.13953007269E+03  0.84010088506E+02  0.84111312756E+03  0.86018987992E+03  0.77000000000E+02 0.  0.
   -5000001    1    1    2    0    0 -0.13953007269E+03 -0.84010088506E+02  0.41604379830E+03  0.45337377324E+03  0.77000000000E+02 0.  0.
<mgrwt>
<rscale>  0 0.38079645E+03</rscale>
<asrwt>0</asrwt>
<pdfrwt beam="1">  1        2 0.18362298E+00 0.38079645E+03</pdfrwt>
<pdfrwt beam="2">  1       -2 0.40290501E-02 0.38079645E+03</pdfrwt>
<totfact> 0.55070653E+03</totfact>
</mgrwt>
</event>
<event>
 4    1  0.5121375E-004  0.2341369E+03  0.7818608E-02  0.1123761E+00
         -2   -1    0    0    0  501 -0.00000000000E+00  0.00000000000E+00  0.20568155536E+03  0.20568155538E+03  0.25500000000E-02 0. -1.
          2   -1    0    0  501    0  0.00000000000E+00 -0.00000000000E+00 -0.66632250076E+02  0.66632250125E+02  0.25500000000E-02 0.  1.
    5000001    1    1    2    0    0  0.48485173517E+02 -0.65719419351E+02  0.30842482781E+02  0.11640495211E+03  0.77000000000E+02 0.  0.
   -5000001    1    1    2    0    0 -0.48485173517E+02  0.65719419351E+02  0.10820682251E+03  0.15590885340E+03  0.77000000000E+02 0.  0.
<mgrwt>
<rscale>  0 0.23413692E+03</rscale>
<asrwt>0</asrwt>
<pdfrwt beam="1">  1        2 0.95188929E-02 0.23413692E+03</pdfrwt>
<pdfrwt beam="2">  1       -2 0.29383079E-01 0.23413692E+03</pdfrwt>
<totfact> 0.71145896E+03</totfact>
</mgrwt>
</event>
<event>
 4    1  0.5121375E-004  0.1742953E+03  0.7818608E-02  0.1173441E+00
          2   -1    0    0  501    0  0.00000000000E+00  0.00000000000E+00  0.61541718022E+03  0.61541718023E+03  0.25500000000E-02 0.  1.
         -2   -1    0    0    0  501 -0.00000000000E+00 -0.00000000000E+00 -0.12340758409E+02  0.12340758673E+02  0.25500000000E-02 0. -1.
    5000001    1    1    2    0    0 -0.39528746301E+02 -0.66762299498E+01  0.27396209605E+03  0.28738706287E+03  0.77000000000E+02 0.  0.
   -5000001    1    1    2    0    0  0.39528746301E+02  0.66762299498E+01  0.32911432576E+03  0.34037087603E+03  0.77000000000E+02 0.  0.
<mgrwt>
<rscale>  0 0.17429532E+03</rscale>
<asrwt>0</asrwt>
<pdfrwt beam="1">  1        2 0.87916748E-01 0.17429532E+03</pdfrwt>
<pdfrwt beam="2">  1       -2 0.17629653E-02 0.17429532E+03</pdfrwt>
<totfact> 0.47438938E+04</totfact>
</mgrwt>
</event>
<event>
 4    1  0.5121375E-004  0.2150107E+03  0.7818608E-02  0.1137658E+00
         -2   -1    0    0    0  501 -0.00000000000E+00  0.00000000000E+00  0.20853137267E+03  0.20853137268E+03  0.25500000000E-02 0. -1.
          2   -1    0    0  501    0  0.00000000000E+00 -0.00000000000E+00 -0.55422849711E+02  0.55422849769E+02  0.25500000000E-02 0.  1.
    5000001    1    1    2    0    0 -0.55548127641E+02 -0.45024706126E+01  0.13821194374E+03  0.16774208809E+03  0.77000000000E+02 0.  0.
   -5000001    1    1    2    0    0  0.55548127641E+02  0.45024706126E+01  0.14896579222E+02  0.96212134362E+02  0.77000000000E+02 0.  0.
<mgrwt>
<rscale>  0 0.21501072E+03</rscale>
<asrwt>0</asrwt>
<pdfrwt beam="1">  1        2 0.79175499E-02 0.21501072E+03</pdfrwt>
<pdfrwt beam="2">  1       -2 0.29790196E-01 0.21501072E+03</pdfrwt>
<totfact> 0.87044441E+03</totfact>
</mgrwt>
</event>
<event>
 4    1  0.5121375E-004  0.2037047E+03  0.7818608E-02  0.1146650E+00
         -2   -1    0    0    0  501 -0.00000000000E+00  0.00000000000E+00  0.18924868335E+02  0.18924868506E+02  0.25500000000E-02 0. -1.
          2   -1    0    0  501    0  0.00000000000E+00 -0.00000000000E+00 -0.54816252249E+03  0.54816252249E+03  0.25500000000E-02 0.  1.
    5000001    1    1    2    0    0 -0.30027212341E+02  0.54057423154E+02 -0.19524151559E+03  0.21879691014E+03  0.77000000000E+02 0.  0.
   -5000001    1    1    2    0    0  0.30027212341E+02 -0.54057423154E+02 -0.33399613857E+03  0.34829048086E+03  0.77000000000E+02 0.  0.
<mgrwt>
<rscale>  0 0.20370472E+03</rscale>
<asrwt>0</asrwt>
<pdfrwt beam="1">  1        2 0.78308922E-01 0.20370472E+03</pdfrwt>
<pdfrwt beam="2">  1       -2 0.27035530E-02 0.20370472E+03</pdfrwt>
<totfact> 0.29273517E+04</totfact>
</mgrwt>
</event>
<event>
 4    1  0.5121375E-004  0.1603080E+03  0.7818608E-02  0.1188349E+00
          2   -1    0    0  501    0  0.00000000000E+00  0.00000000000E+00  0.74120625533E+03  0.74120625533E+03  0.25500000000E-02 0.  1.
         -2   -1    0    0    0  501 -0.00000000000E+00 -0.00000000000E+00 -0.86678520561E+01  0.86678524312E+01  0.25500000000E-02 0. -1.
    5000001    1    1    2    0    0  0.14444525965E+02  0.14447525559E+01  0.44522894351E+03  0.45207139234E+03  0.77000000000E+02 0.  0.
   -5000001    1    1    2    0    0 -0.14444525965E+02 -0.14447525559E+01  0.28730945977E+03  0.29780271542E+03  0.77000000000E+02 0.  0.
<mgrwt>
<rscale>  0 0.16030803E+03</rscale>
<asrwt>0</asrwt>
<pdfrwt beam="1">  1        2 0.10588668E+00 0.16030803E+03</pdfrwt>
<pdfrwt beam="2">  1       -2 0.12382638E-02 0.16030803E+03</pdfrwt>
<totfact> 0.63242335E+04</totfact>
</mgrwt>
</event>
<event>
 4    1  0.5121375E-004  0.5369175E+03  0.7818608E-02  0.1004568E+00
         -2   -1    0    0    0  501 -0.00000000000E+00  0.00000000000E+00  0.25572603280E+02  0.25572603407E+02  0.25500000000E-02 0. -1.
          2   -1    0    0  501    0  0.00000000000E+00 -0.00000000000E+00 -0.28182539875E+04  0.28182539875E+04  0.25500000000E-02 0.  1.
    5000001    1    1    2    0    0  0.12893188368E+03 -0.16777325731E+03 -0.21706166164E+04  0.21822641434E+04  0.77000000000E+02 0.  0.
   -5000001    1    1    2    0    0 -0.12893188368E+03  0.16777325731E+03 -0.62206476786E+03  0.66156244747E+03  0.77000000000E+02 0.  0.
<mgrwt>
<rscale>  0 0.53691747E+03</rscale>
<asrwt>0</asrwt>
<pdfrwt beam="1">  1        2 0.40260752E+00 0.53691747E+03</pdfrwt>
<pdfrwt beam="2">  1       -2 0.36532308E-02 0.53691747E+03</pdfrwt>
<totfact> 0.10564735E+03</totfact>
</mgrwt>
</event>
<event>
 4    1  0.5121375E-004  0.3506493E+03  0.7818608E-02  0.1062349E+00
          2   -1    0    0  501    0  0.00000000000E+00  0.00000000000E+00  0.15749726755E+02  0.15749726962E+02  0.25500000000E-02 0.  1.
         -2   -1    0    0    0  501 -0.00000000000E+00 -0.00000000000E+00 -0.19516992621E+04  0.19516992621E+04  0.25500000000E-02 0. -1.
    5000001    1    1    2    0    0  0.15557993382E+03  0.13259300245E+02 -0.85178693068E+03  0.86939685997E+03  0.77000000000E+02 0.  0.
   -5000001    1    1    2    0    0 -0.15557993382E+03 -0.13259300245E+02 -0.10841626046E+04  0.10980521291E+04  0.77000000000E+02 0.  0.
<mgrwt>
<rscale>  0 0.35064929E+03</rscale>
<asrwt>0</asrwt>
<pdfrwt beam="1">  1        2 0.22499622E-02 0.35064929E+03</pdfrwt>
<pdfrwt beam="2">  1       -2 0.27881403E+00 0.35064929E+03</pdfrwt>
<totfact> 0.22588599E+02</totfact>
</mgrwt>
</event>
<event>
 4    1  0.5121375E-004  0.2710559E+03  0.7818608E-02  0.1100677E+00
         -2   -1    0    0    0  501 -0.00000000000E+00  0.00000000000E+00  0.28306512216E+02  0.28306512331E+02  0.25500000000E-02 0. -1.
          2   -1    0    0  501    0  0.00000000000E+00 -0.00000000000E+00 -0.64889022363E+03  0.64889022363E+03  0.25500000000E-02 0.  1.
    5000001    1    1    2    0    0  0.84237986498E+02 -0.71887051406E+02 -0.34334520541E+03  0.36888848804E+03  0.77000000000E+02 0.  0.
   -5000001    1    1    2    0    0 -0.84237986498E+02  0.71887051406E+02 -0.27723850600E+03  0.30830824793E+03  0.77000000000E+02 0.  0.
<mgrwt>
<rscale>  0 0.27105585E+03</rscale>
<asrwt>0</asrwt>
<pdfrwt beam="1">  1        2 0.92698594E-01 0.27105585E+03</pdfrwt>
<pdfrwt beam="2">  1       -2 0.40437879E-02 0.27105585E+03</pdfrwt>
<totfact> 0.13495818E+04</totfact>
</mgrwt>
</event>
<event>
 4    1  0.5121375E-004  0.1812155E+03  0.7818608E-02  0.1166632E+00
          2   -1    0    0  501    0  0.00000000000E+00  0.00000000000E+00  0.25246031212E+03  0.25246031213E+03  0.25500000000E-02 0.  1.
         -2   -1    0    0    0  501 -0.00000000000E+00 -0.00000000000E+00 -0.32519023718E+02  0.32519023818E+02  0.25500000000E-02 0. -1.
    5000001    1    1    2    0    0  0.31385127454E+02 -0.34474681546E+02  0.93685849166E+02  0.12992139249E+03  0.77000000000E+02 0.  0.
   -5000001    1    1    2    0    0 -0.31385127454E+02  0.34474681546E+02  0.12625543923E+03  0.15505794346E+03  0.77000000000E+02 0.  0.
<mgrwt>
<rscale>  0 0.18121548E+03</rscale>
<asrwt>0</asrwt>
<pdfrwt beam="1">  1        2 0.36065760E-01 0.18121548E+03</pdfrwt>
<pdfrwt beam="2">  1       -2 0.46455747E-02 0.18121548E+03</pdfrwt>
<totfact> 0.29875071E+04</totfact>
</mgrwt>
</event>
<event>
 4    1  0.5121375E-004  0.4245599E+03  0.7818608E-02  0.1035592E+00
         -2   -1    0    0    0  501 -0.00000000000E+00  0.00000000000E+00  0.45122936001E+02  0.45122936073E+02  0.25500000000E-02 0. -1.
          2   -1    0    0  501    0  0.00000000000E+00 -0.00000000000E+00 -0.99866671451E+03  0.99866671451E+03  0.25500000000E-02 0.  1.
    5000001    1    1    2    0    0  0.14377508839E+03 -0.12897980236E+03 -0.58184913764E+03  0.61788711302E+03  0.77000000000E+02 0.  0.
   -5000001    1    1    2    0    0 -0.14377508839E+03  0.12897980236E+03 -0.37169464087E+03  0.42590253757E+03  0.77000000000E+02 0.  0.
<mgrwt>
<rscale>  0 0.42455989E+03</rscale>
<asrwt>0</asrwt>
<pdfrwt beam="1">  1        2 0.14266666E+00 0.42455989E+03</pdfrwt>
<pdfrwt beam="2">  1       -2 0.64461343E-02 0.42455989E+03</pdfrwt>
<totfact> 0.38862217E+03</totfact>
</mgrwt>
</event>
<event>
 4    1  0.5121375E-004  0.2265074E+03  0.7818608E-02  0.1129122E+00
          2   -1    0    0  501    0  0.00000000000E+00  0.00000000000E+00  0.42931976779E+03  0.42931976780E+03  0.25500000000E-02 0.  1.
         -2   -1    0    0    0  501 -0.00000000000E+00 -0.00000000000E+00 -0.29876094700E+02  0.29876094809E+02  0.25500000000E-02 0. -1.
    5000001    1    1    2    0    0 -0.10930101115E+02 -0.64809977689E+02  0.96796289141E+02  0.14006542011E+03  0.77000000000E+02 0.  0.
   -5000001    1    1    2    0    0  0.10930101115E+02  0.64809977689E+02  0.30264738395E+03  0.31913044250E+03  0.77000000000E+02 0.  0.
<mgrwt>
<rscale>  0 0.22650738E+03</rscale>
<asrwt>0</asrwt>
<pdfrwt beam="1">  1        2 0.61331398E-01 0.22650738E+03</pdfrwt>
<pdfrwt beam="2">  1       -2 0.42680134E-02 0.22650738E+03</pdfrwt>
<totfact> 0.19536809E+04</totfact>
</mgrwt>
</event>
<event>
 4    1  0.5121375E-004  0.2277905E+03  0.7818608E-02  0.1128205E+00
         -2   -1    0    0    0  501 -0.00000000000E+00  0.00000000000E+00  0.22478935769E+03  0.22478935770E+03  0.25500000000E-02 0. -1.
          2   -1    0    0  501    0  0.00000000000E+00 -0.00000000000E+00 -0.57707911178E+02  0.57707911234E+02  0.25500000000E-02 0.  1.
    5000001    1    1    2    0    0  0.76174769860E+02  0.26353223505E+02  0.54561317031E+02  0.12410892502E+03  0.77000000000E+02 0.  0.
   -5000001    1    1    2    0    0 -0.76174769860E+02 -0.26353223505E+02  0.11252012948E+03  0.15838834392E+03  0.77000000000E+02 0.  0.
<mgrwt>
<rscale>  0 0.22779047E+03</rscale>
<asrwt>0</asrwt>
<pdfrwt beam="1">  1        2 0.82439873E-02 0.22779047E+03</pdfrwt>
<pdfrwt beam="2">  1       -2 0.32112765E-01 0.22779047E+03</pdfrwt>
<totfact> 0.72390238E+03</totfact>
</mgrwt>
</event>
<event>
 4    1  0.5121375E-004  0.2049614E+03  0.7818608E-02  0.1145619E+00
         -2   -1    0    0    0  501 -0.00000000000E+00  0.00000000000E+00  0.82876666808E+01  0.82876670731E+01  0.25500000000E-02 0. -1.
          2   -1    0    0  501    0  0.00000000000E+00 -0.00000000000E+00 -0.12672190012E+04  0.12672190012E+04  0.25500000000E-02 0.  1.
    5000001    1    1    2    0    0  0.57498516533E+02 -0.35298607512E+02 -0.65813129402E+03  0.66604644828E+03  0.77000000000E+02 0.  0.
   -5000001    1    1    2    0    0 -0.57498516533E+02  0.35298607512E+02 -0.60080004052E+03  0.60946022002E+03  0.77000000000E+02 0.  0.
<mgrwt>
<rscale>  0 0.20496135E+03</rscale>
<asrwt>0</asrwt>
<pdfrwt beam="1">  1        2 0.18103116E+00 0.20496135E+03</pdfrwt>
<pdfrwt beam="2">  1       -2 0.11839532E-02 0.20496135E+03</pdfrwt>
<totfact> 0.33677107E+04</totfact>
</mgrwt>
</event>
<event>
 4    1  0.5121375E-004  0.1952457E+03  0.7818608E-02  0.1153813E+00
         -2   -1    0    0    0  501 -0.00000000000E+00  0.00000000000E+00  0.67658835725E+01  0.67658840531E+01  0.25500000000E-02 0. -1.
          2   -1    0    0  501    0  0.00000000000E+00 -0.00000000000E+00 -0.14085703951E+04  0.14085703952E+04  0.25500000000E-02 0.  1.
    5000001    1    1    2    0    0 -0.52332677105E+02 -0.23648348609E+02 -0.57466343376E+03  0.58263626353E+03  0.77000000000E+02 0.  0.
   -5000001    1    1    2    0    0  0.52332677105E+02  0.23648348609E+02 -0.82714107782E+03  0.83270001567E+03  0.77000000000E+02 0.  0.
<mgrwt>
<rscale>  0 0.19524573E+03</rscale>
<asrwt>0</asrwt>
<pdfrwt beam="1">  1        2 0.20122415E+00 0.19524573E+03</pdfrwt>
<pdfrwt beam="2">  1       -2 0.96655573E-03 0.19524573E+03</pdfrwt>
<totfact> 0.38036080E+04</totfact>
</mgrwt>
</event>
<event>
 4    1  0.5121375E-004  0.1739351E+03  0.7818608E-02  0.1173805E+00
         -2   -1    0    0    0  501 -0.00000000000E+00  0.00000000000E+00  0.25680873256E+02  0.25680873383E+02  0.25500000000E-02 0. -1.
          2   -1    0    0  501    0  0.00000000000E+00 -0.00000000000E+00 -0.29451318065E+03  0.29451318066E+03  0.25500000000E-02 0.  1.
    5000001    1    1    2    0    0  0.23200457082E+02  0.33058594975E+02 -0.13772143510E+03  0.16287211424E+03  0.77000000000E+02 0.  0.
   -5000001    1    1    2    0    0 -0.23200457082E+02 -0.33058594975E+02 -0.13111087229E+03  0.15732193980E+03  0.77000000000E+02 0.  0.
<mgrwt>
<rscale>  0 0.17393511E+03</rscale>
<asrwt>0</asrwt>
<pdfrwt beam="1">  1        2 0.42073309E-01 0.17393511E+03</pdfrwt>
<pdfrwt beam="2">  1       -2 0.36686964E-02 0.17393511E+03</pdfrwt>
<totfact> 0.35919374E+04</totfact>
</mgrwt>
</event>
<event>
 4    1  0.5121375E-004  0.2089915E+03  0.7818608E-02  0.1142367E+00
          2   -1    0    0  501    0  0.00000000000E+00  0.00000000000E+00  0.16238666143E+04  0.16238666143E+04  0.25500000000E-02 0.  1.
         -2   -1    0    0    0  501 -0.00000000000E+00 -0.00000000000E+00 -0.67242986898E+01  0.67242991734E+01  0.25500000000E-02 0. -1.
    5000001    1    1    2    0    0  0.59464386702E+02 -0.30128732601E+02  0.62615831339E+03  0.63438709574E+03  0.77000000000E+02 0.  0.
   -5000001    1    1    2    0    0 -0.59464386702E+02  0.30128732601E+02  0.99098400221E+03  0.99620381772E+03  0.77000000000E+02 0.  0.
<mgrwt>
<rscale>  0 0.20899153E+03</rscale>
<asrwt>0</asrwt>
<pdfrwt beam="1">  1        2 0.23198112E+00 0.20899153E+03</pdfrwt>
<pdfrwt beam="2">  1       -2 0.96061342E-03 0.20899153E+03</pdfrwt>
<totfact> 0.30096033E+04</totfact>
</mgrwt>
</event>
<event>
 4    1  0.5121375E-004  0.4271460E+03  0.7818608E-02  0.1034765E+00
         -2   -1    0    0    0  501 -0.00000000000E+00  0.00000000000E+00  0.21772185495E+02  0.21772185644E+02  0.25500000000E-02 0. -1.
          2   -1    0    0  501    0  0.00000000000E+00 -0.00000000000E+00 -0.20950321551E+04  0.20950321551E+04  0.25500000000E-02 0.  1.
    5000001    1    1    2    0    0 -0.72372120744E+02  0.14181431420E+03 -0.16299778025E+04  0.16395443454E+04  0.77000000000E+02 0.  0.
   -5000001    1    1    2    0    0  0.72372120744E+02 -0.14181431420E+03 -0.44328216706E+03  0.47725999540E+03  0.77000000000E+02 0.  0.
<mgrwt>
<rscale>  0 0.42714601E+03</rscale>
<asrwt>0</asrwt>
<pdfrwt beam="1">  1        2 0.29929018E+00 0.42714601E+03</pdfrwt>
<pdfrwt beam="2">  1       -2 0.31103136E-02 0.42714601E+03</pdfrwt>
<totfact> 0.31702582E+03</totfact>
</mgrwt>
</event>
<event>
 4    1  0.5121375E-004  0.2288211E+03  0.7818608E-02  0.1127472E+00
         -2   -1    0    0    0  501 -0.00000000000E+00  0.00000000000E+00  0.30871598309E+03  0.30871598310E+03  0.25500000000E-02 0.  1.
          2   -1    0    0  501    0  0.00000000000E+00 -0.00000000000E+00 -0.42400707778E+02  0.42400707855E+02  0.25500000000E-02 0. -1.
    5000001    1    1    2    0    0 -0.13477792380E+01  0.81106939225E+02  0.17013218776E+03  0.20360283252E+03  0.77000000000E+02 0.  0.
   -5000001    1    1    2    0    0  0.13477792380E+01 -0.81106939225E+02  0.96183087561E+02  0.14751385844E+03  0.77000000000E+02 0.  0.
<mgrwt>
<rscale>  0 0.22882112E+03</rscale>
<asrwt>0</asrwt>
<pdfrwt beam="1">  1        2 0.60572439E-02 0.22882112E+03</pdfrwt>
<pdfrwt beam="2">  1       -2 0.44102284E-01 0.22882112E+03</pdfrwt>
<totfact> 0.59111694E+03</totfact>
</mgrwt>
</event>
<event>
 4    1  0.5121375E-004  0.2090298E+03  0.7818608E-02  0.1142337E+00
          2   -1    0    0  501    0  0.00000000000E+00  0.00000000000E+00  0.14477575202E+03  0.14477575204E+03  0.25500000000E-02 0.  1.
         -2   -1    0    0    0  501 -0.00000000000E+00 -0.00000000000E+00 -0.75450221248E+02  0.75450221291E+02  0.25500000000E-02 0. -1.
    5000001    1    1    2    0    0 -0.69922418122E+02  0.72975919875E+01  0.27068111389E+02  0.10772224496E+03  0.77000000000E+02 0.  0.
   -5000001    1    1    2    0    0  0.69922418122E+02 -0.72975919875E+01  0.42257419382E+02  0.11250372837E+03  0.77000000000E+02 0.  0.
<mgrwt>
<rscale>  0 0.20902978E+03</rscale>
<asrwt>0</asrwt>
<pdfrwt beam="1">  1        2 0.20682250E-01 0.20902978E+03</pdfrwt>
<pdfrwt beam="2">  1       -2 0.10778603E-01 0.20902978E+03</pdfrwt>
<totfact> 0.15213167E+04</totfact>
</mgrwt>
</event>
<event>
 4    1  0.5121375E-004  0.3184205E+03  0.7818608E-02  0.1076379E+00
          2   -1    0    0  501    0  0.00000000000E+00  0.00000000000E+00  0.11110039568E+03  0.11110039571E+03  0.25500000000E-02 0.  1.
         -2   -1    0    0    0  501 -0.00000000000E+00 -0.00000000000E+00 -0.22815307965E+03  0.22815307966E+03  0.25500000000E-02 0. -1.
    5000001    1    1    2    0    0  0.10042346539E+03 -0.86483584424E+02 -0.12643513463E+02  0.15379577760E+03  0.77000000000E+02 0.  0.
   -5000001    1    1    2    0    0 -0.10042346539E+03  0.86483584424E+02 -0.10440917051E+03  0.18545769777E+03  0.77000000000E+02 0.  0.
<mgrwt>
<rscale>  0 0.31842046E+03</rscale>
<asrwt>0</asrwt>
<pdfrwt beam="1">  1        2 0.15871485E-01 0.31842046E+03</pdfrwt>
<pdfrwt beam="2">  1       -2 0.32593297E-01 0.31842046E+03</pdfrwt>
<totfact> 0.32014265E+03</totfact>
</mgrwt>
</event>
<event>
 4    1  0.5121375E-004  0.2611309E+03  0.7818608E-02  0.1106466E+00
          2   -1    0    0  501    0  0.00000000000E+00  0.00000000000E+00  0.86153981255E+02  0.86153981293E+02  0.25500000000E-02 0.  1.
         -2   -1    0    0    0  501 -0.00000000000E+00 -0.00000000000E+00 -0.19787059010E+03  0.19787059012E+03  0.25500000000E-02 0. -1.
    5000001    1    1    2    0    0  0.70922492520E+00 -0.57534158779E+02 -0.15196595742E+03  0.17981472309E+03  0.77000000000E+02 0.  0.
   -5000001    1    1    2    0    0 -0.70922492520E+00  0.57534158779E+02  0.40249348571E+02  0.10420984832E+03  0.77000000000E+02 0.  0.
<mgrwt>
<rscale>  0 0.26113092E+03</rscale>
<asrwt>0</asrwt>
<pdfrwt beam="1">  1        2 0.12307712E-01 0.26113092E+03</pdfrwt>
<pdfrwt beam="2">  1       -2 0.28267227E-01 0.26113092E+03</pdfrwt>
<totfact> 0.55902071E+03</totfact>
</mgrwt>
</event>
<event>
 4    1  0.5121375E-004  0.3019442E+03  0.7818608E-02  0.1084273E+00
         -2   -1    0    0    0  501 -0.00000000000E+00  0.00000000000E+00  0.10813858717E+03  0.10813858720E+03  0.25500000000E-02 0. -1.
          2   -1    0    0  501    0  0.00000000000E+00 -0.00000000000E+00 -0.21077192524E+03  0.21077192526E+03  0.25500000000E-02 0.  1.
    5000001    1    1    2    0    0  0.11992195659E+03  0.15356355499E+02 -0.12563210712E+01  0.14334459065E+03  0.77000000000E+02 0.  0.
   -5000001    1    1    2    0    0 -0.11992195659E+03 -0.15356355499E+02 -0.10137701700E+03  0.17556592181E+03  0.77000000000E+02 0.  0.
<mgrwt>
<rscale>  0 0.30194422E+03</rscale>
<asrwt>0</asrwt>
<pdfrwt beam="1">  1        2 0.30110275E-01 0.30194422E+03</pdfrwt>
<pdfrwt beam="2">  1       -2 0.15448370E-01 0.30194422E+03</pdfrwt>
<totfact> 0.56762523E+03</totfact>
</mgrwt>
</event>
<event>
 4    1  0.5121375E-004  0.8672055E+03  0.7818608E-02  0.9467531E-01
          2   -1    0    0  501    0  0.00000000000E+00  0.00000000000E+00  0.13095858246E+04  0.13095858246E+04  0.25500000000E-02 0.  1.
         -2   -1    0    0    0  501 -0.00000000000E+00 -0.00000000000E+00 -0.14356548453E+03  0.14356548455E+03  0.25500000000E-02 0. -1.
    5000001    1    1    2    0    0 -0.39355018607E+03 -0.64349947881E+02  0.83746768184E+03  0.93075441598E+03  0.77000000000E+02 0.  0.
   -5000001    1    1    2    0    0  0.39355018607E+03  0.64349947881E+02  0.32855265819E+03  0.52239689313E+03  0.77000000000E+02 0.  0.
<mgrwt>
<rscale>  0 0.86720545E+03</rscale>
<asrwt>0</asrwt>
<pdfrwt beam="1">  1        2 0.18708369E+00 0.86720545E+03</pdfrwt>
<pdfrwt beam="2">  1       -2 0.20509355E-01 0.86720545E+03</pdfrwt>
<totfact> 0.37939587E+02</totfact>
</mgrwt>
</event>
<event>
 4    1  0.5121375E-004  0.2752731E+03  0.7818608E-02  0.1098299E+00
         -2   -1    0    0    0  501 -0.00000000000E+00  0.00000000000E+00  0.17375402820E+02  0.17375403007E+02  0.25500000000E-02 0. -1.
          2   -1    0    0  501    0  0.00000000000E+00 -0.00000000000E+00 -0.10902668948E+04  0.10902668948E+04  0.25500000000E-02 0.  1.
    5000001    1    1    2    0    0  0.96600694469E+02  0.35310955592E+02 -0.73505445370E+03  0.74619877222E+03  0.77000000000E+02 0.  0.
   -5000001    1    1    2    0    0 -0.96600694469E+02 -0.35310955592E+02 -0.33783703826E+03  0.36144352557E+03  0.77000000000E+02 0.  0.
<mgrwt>
<rscale>  0 0.27527315E+03</rscale>
<asrwt>0</asrwt>
<pdfrwt beam="1">  1        2 0.15575237E+00 0.27527315E+03</pdfrwt>
<pdfrwt beam="2">  1       -2 0.24822011E-02 0.27527315E+03</pdfrwt>
<totfact> 0.14456986E+04</totfact>
</mgrwt>
</event>
<event>
 4    1  0.5121375E-004  0.3198674E+03  0.7818608E-02  0.1075710E+00
         -2   -1    0    0    0  501 -0.00000000000E+00  0.00000000000E+00  0.52810961424E+02  0.52810961486E+02  0.25500000000E-02 0. -1.
          2   -1    0    0  501    0  0.00000000000E+00 -0.00000000000E+00 -0.48434630832E+03  0.48434630832E+03  0.25500000000E-02 0.  1.
    5000001    1    1    2    0    0 -0.72362859874E-03 -0.11289300152E+03 -0.76223357554E+02  0.15647309682E+03  0.77000000000E+02 0.  0.
   -5000001    1    1    2    0    0  0.72362859874E-03  0.11289300152E+03 -0.35531198934E+03  0.38068417299E+03  0.77000000000E+02 0.  0.
<mgrwt>
<rscale>  0 0.31986744E+03</rscale>
<asrwt>0</asrwt>
<pdfrwt beam="1">  1        2 0.69192327E-01 0.31986744E+03</pdfrwt>
<pdfrwt beam="2">  1       -2 0.75444233E-02 0.31986744E+03</pdfrwt>
<totfact> 0.72760055E+03</totfact>
</mgrwt>
</event>
<event>
 4    1  0.5121375E-004  0.4036716E+03  0.7818608E-02  0.1042516E+00
         -2   -1    0    0    0  501 -0.00000000000E+00  0.00000000000E+00  0.52610221238E+02  0.52610221299E+02  0.25500000000E-02 0. -1.
          2   -1    0    0  501    0  0.00000000000E+00 -0.00000000000E+00 -0.77433023434E+03  0.77433023435E+03  0.25500000000E-02 0.  1.
    5000001    1    1    2    0    0  0.17530243404E+03 -0.32090770371E+02 -0.47395623978E+03  0.51217602262E+03  0.77000000000E+02 0.  0.
   -5000001    1    1    2    0    0 -0.17530243404E+03  0.32090770371E+02 -0.24776377333E+03  0.31476443302E+03  0.77000000000E+02 0.  0.
<mgrwt>
<rscale>  0 0.40367157E+03</rscale>
<asrwt>0</asrwt>
<pdfrwt beam="1">  1        2 0.11061860E+00 0.40367157E+03</pdfrwt>
<pdfrwt beam="2">  1       -2 0.75157464E-02 0.40367157E+03</pdfrwt>
<totfact> 0.42608304E+03</totfact>
</mgrwt>
</event>
<event>
 4    1  0.5121375E-004  0.2067390E+03  0.7818608E-02  0.1144175E+00
          2   -1    0    0  501    0  0.00000000000E+00  0.00000000000E+00  0.64236186255E+03  0.64236186255E+03  0.25500000000E-02 0.  1.
         -2   -1    0    0    0  501 -0.00000000000E+00 -0.00000000000E+00 -0.16634325458E+02  0.16634325654E+02  0.25500000000E-02 0. -1.
    5000001    1    1    2    0    0 -0.68572460679E+02  0.39212799777E+01  0.33269283030E+03  0.34832610889E+03  0.77000000000E+02 0.  0.
   -5000001    1    1    2    0    0  0.68572460679E+02 -0.39212799777E+01  0.29303470679E+03  0.31067007932E+03  0.77000000000E+02 0.  0.
<mgrwt>
<rscale>  0 0.20673903E+03</rscale>
<asrwt>0</asrwt>
<pdfrwt beam="1">  1        2 0.91765964E-01 0.20673903E+03</pdfrwt>
<pdfrwt beam="2">  1       -2 0.23763327E-02 0.20673903E+03</pdfrwt>
<totfact> 0.29617865E+04</totfact>
</mgrwt>
</event>
<event>
 4    1  0.5121375E-004  0.2915815E+03  0.7818608E-02  0.1089526E+00
          2   -1    0    0  501    0  0.00000000000E+00  0.00000000000E+00  0.45990078152E+03  0.45990078153E+03  0.25500000000E-02 0.  1.
         -2   -1    0    0    0  501 -0.00000000000E+00 -0.00000000000E+00 -0.46216376103E+02  0.46216376173E+02  0.25500000000E-02 0. -1.
    5000001    1    1    2    0    0 -0.10150734000E+03 -0.16403031143E+02  0.87173188041E+02  0.15524485247E+03  0.77000000000E+02 0.  0.
   -5000001    1    1    2    0    0  0.10150734000E+03  0.16403031143E+02  0.32651121738E+03  0.35087230523E+03  0.77000000000E+02 0.  0.
<mgrwt>
<rscale>  0 0.29158153E+03</rscale>
<asrwt>0</asrwt>
<pdfrwt beam="1">  1        2 0.65700115E-01 0.29158153E+03</pdfrwt>
<pdfrwt beam="2">  1       -2 0.66023391E-02 0.29158153E+03</pdfrwt>
<totfact> 0.94466078E+03</totfact>
</mgrwt>
</event>
<event>
 4    1  0.5121375E-004  0.4408065E+03  0.7818608E-02  0.1030500E+00
          2   -1    0    0  501    0  0.00000000000E+00  0.00000000000E+00  0.20602546645E+03  0.20602546647E+03  0.25500000000E-02 0.  1.
         -2   -1    0    0    0  501 -0.00000000000E+00 -0.00000000000E+00 -0.23578438406E+03  0.23578438408E+03  0.25500000000E-02 0. -1.
    5000001    1    1    2    0    0 -0.42822754574E+02 -0.18781533663E+03 -0.89481394864E+02  0.22592987631E+03  0.77000000000E+02 0.  0.
   -5000001    1    1    2    0    0  0.42822754574E+02  0.18781533663E+03  0.59722477254E+02  0.21587997423E+03  0.77000000000E+02 0.  0.
<mgrwt>
<rscale>  0 0.44080648E+03</rscale>
<asrwt>0</asrwt>
<pdfrwt beam="1">  1        2 0.29432210E-01 0.44080648E+03</pdfrwt>
<pdfrwt beam="2">  1       -2 0.33683483E-01 0.44080648E+03</pdfrwt>
<totfact> 0.14911288E+03</totfact>
</mgrwt>
</event>
<event>
 4    1  0.5121375E-004  0.2009272E+03  0.7818608E-02  0.1148959E+00
          2   -1    0    0  501    0  0.00000000000E+00  0.00000000000E+00  0.13376347028E+04  0.13376347028E+04  0.25500000000E-02 0.  1.
         -2   -1    0    0    0  501 -0.00000000000E+00 -0.00000000000E+00 -0.75453578112E+01  0.75453582420E+01  0.25500000000E-02 0. -1.
    5000001    1    1    2    0    0  0.39208196138E+02 -0.31324457904E+02  0.39347502069E+03  0.40406694521E+03  0.77000000000E+02 0.  0.
   -5000001    1    1    2    0    0 -0.39208196138E+02  0.31324457904E+02  0.93661432435E+03  0.94111311588E+03  0.77000000000E+02 0.  0.
<mgrwt>
<rscale>  0 0.20092718E+03</rscale>
<asrwt>0</asrwt>
<pdfrwt beam="1">  1        2 0.19109071E+00 0.20092718E+03</pdfrwt>
<pdfrwt beam="2">  1       -2 0.10779081E-02 0.20092718E+03</pdfrwt>
<totfact> 0.35399630E+04</totfact>
</mgrwt>
</event>
<event>
 4    1  0.5121375E-004  0.3323649E+03  0.7818608E-02  0.1070095E+00
         -2   -1    0    0    0  501 -0.00000000000E+00  0.00000000000E+00  0.11540929325E+02  0.11540929607E+02  0.25500000000E-02 0. -1.
          2   -1    0    0  501    0  0.00000000000E+00 -0.00000000000E+00 -0.23929269176E+04  0.23929269176E+04  0.25500000000E-02 0.  1.
    5000001    1    1    2    0    0 -0.64572619807E+02 -0.12891119029E+03 -0.14077115087E+04  0.14171691536E+04  0.77000000000E+02 0.  0.
   -5000001    1    1    2    0    0  0.64572619807E+02  0.12891119029E+03 -0.97367447962E+03  0.98729869365E+03  0.77000000000E+02 0.  0.
<mgrwt>
<rscale>  0 0.33236486E+03</rscale>
<asrwt>0</asrwt>
<pdfrwt beam="1">  1        2 0.34184638E+00 0.33236486E+03</pdfrwt>
<pdfrwt beam="2">  1       -2 0.16487057E-02 0.33236486E+03</pdfrwt>
<totfact> 0.58203510E+03</totfact>
</mgrwt>
</event>
<event>
 4    1  0.5121375E-004  0.2780695E+03  0.7818608E-02  0.1096748E+00
         -2   -1    0    0    0  501 -0.00000000000E+00  0.00000000000E+00  0.29088735306E+03  0.29088735307E+03  0.25500000000E-02 0. -1.
          2   -1    0    0  501    0  0.00000000000E+00 -0.00000000000E+00 -0.66454115763E+02  0.66454115812E+02  0.25500000000E-02 0.  1.
    5000001    1    1    2    0    0 -0.80631088893E+02 -0.67695444830E+02  0.50350793446E+02  0.13981504979E+03  0.77000000000E+02 0.  0.
   -5000001    1    1    2    0    0  0.80631088893E+02  0.67695444830E+02  0.17408244385E+03  0.21752641909E+03  0.77000000000E+02 0.  0.
<mgrwt>
<rscale>  0 0.27806950E+03</rscale>
<asrwt>0</asrwt>
<pdfrwt beam="1">  1        2 0.94934453E-02 0.27806950E+03</pdfrwt>
<pdfrwt beam="2">  1       -2 0.41555335E-01 0.27806950E+03</pdfrwt>
<totfact> 0.37700549E+03</totfact>
</mgrwt>
</event>
<event>
 4    1  0.5121375E-004  0.2041281E+03  0.7818608E-02  0.1146302E+00
          2   -1    0    0  501    0  0.00000000000E+00  0.00000000000E+00  0.81358351785E+03  0.81358351785E+03  0.25500000000E-02 0.  1.
         -2   -1    0    0    0  501 -0.00000000000E+00 -0.00000000000E+00 -0.12803937611E+02  0.12803937865E+02  0.25500000000E-02 0. -1.
    5000001    1    1    2    0    0  0.54057082866E+02  0.20776064012E+02  0.53673413116E+03  0.54531306660E+03  0.77000000000E+02 0.  0.
   -5000001    1    1    2    0    0 -0.54057082866E+02 -0.20776064012E+02  0.26404544907E+03  0.28107438912E+03  0.77000000000E+02 0.  0.
<mgrwt>
<rscale>  0 0.20412812E+03</rscale>
<asrwt>0</asrwt>
<pdfrwt beam="1">  1        2 0.11622626E+00 0.20412812E+03</pdfrwt>
<pdfrwt beam="2">  1       -2 0.18291333E-02 0.20412812E+03</pdfrwt>
<totfact> 0.32774909E+04</totfact>
</mgrwt>
</event>
<event>
 4    1  0.5121375E-004  0.2804655E+03  0.7818608E-02  0.1095435E+00
         -2   -1    0    0    0  501 -0.00000000000E+00  0.00000000000E+00  0.36098234405E+02  0.36098234495E+02  0.25500000000E-02 0. -1.
          2   -1    0    0  501    0  0.00000000000E+00 -0.00000000000E+00 -0.54476957017E+03  0.54476957018E+03  0.25500000000E-02 0.  1.
    5000001    1    1    2    0    0  0.84560607422E+02  0.72906937061E+02 -0.18051951998E+03  0.22579241549E+03  0.77000000000E+02 0.  0.
   -5000001    1    1    2    0    0 -0.84560607422E+02 -0.72906937061E+02 -0.32815181578E+03  0.35507538918E+03  0.77000000000E+02 0.  0.
<mgrwt>
<rscale>  0 0.28046547E+03</rscale>
<asrwt>0</asrwt>
<pdfrwt beam="1">  1        2 0.77824219E-01 0.28046547E+03</pdfrwt>
<pdfrwt beam="2">  1       -2 0.51568910E-02 0.28046547E+03</pdfrwt>
<totfact> 0.11420264E+04</totfact>
</mgrwt>
</event>
<event>
 4    1  0.5121375E-004  0.2014746E+03  0.7818608E-02  0.1148501E+00
         -2   -1    0    0    0  501 -0.00000000000E+00  0.00000000000E+00  0.45159928981E+03  0.45159928982E+03  0.25500000000E-02 0. -1.
          2   -1    0    0  501    0  0.00000000000E+00 -0.00000000000E+00 -0.22471264272E+02  0.22471264416E+02  0.25500000000E-02 0.  1.
    5000001    1    1    2    0    0 -0.46150561838E+02 -0.36755341263E+02  0.27849376528E+03  0.29490440277E+03  0.77000000000E+02 0.  0.
   -5000001    1    1    2    0    0  0.46150561838E+02  0.36755341263E+02  0.15063426026E+03  0.17916615147E+03  0.77000000000E+02 0.  0.
<mgrwt>
<rscale>  0 0.20147463E+03</rscale>
<asrwt>0</asrwt>
<pdfrwt beam="1">  1        2 0.32101806E-02 0.20147463E+03</pdfrwt>
<pdfrwt beam="2">  1       -2 0.64514185E-01 0.20147463E+03</pdfrwt>
<totfact> 0.63244988E+03</totfact>
</mgrwt>
</event>
<event>
 4    1  0.5121375E-004  0.2140537E+03  0.7818608E-02  0.1138395E+00
         -2   -1    0    0    0  501 -0.00000000000E+00  0.00000000000E+00  0.63971203184E+03  0.63971203184E+03  0.25500000000E-02 0. -1.
          2   -1    0    0  501    0  0.00000000000E+00 -0.00000000000E+00 -0.17906102449E+02  0.17906102631E+02  0.25500000000E-02 0.  1.
    5000001    1    1    2    0    0  0.70732072699E+02 -0.80790841077E+01  0.24519416475E+03  0.26667860082E+03  0.77000000000E+02 0.  0.
   -5000001    1    1    2    0    0 -0.70732072699E+02  0.80790841077E+01  0.37661176463E+03  0.39093953365E+03  0.77000000000E+02 0.  0.
<mgrwt>
<rscale>  0 0.21405372E+03</rscale>
<asrwt>0</asrwt>
<pdfrwt beam="1">  1        2 0.25580148E-02 0.21405372E+03</pdfrwt>
<pdfrwt beam="2">  1       -2 0.91387428E-01 0.21405372E+03</pdfrwt>
<totfact> 0.40459686E+03</totfact>
</mgrwt>
</event>
<event>
 4    1  0.5121375E-004  0.2022917E+03  0.7818608E-02  0.1147820E+00
          2   -1    0    0  501    0  0.00000000000E+00  0.00000000000E+00  0.72776560895E+03  0.72776560896E+03  0.25500000000E-02 0.  1.
         -2   -1    0    0    0  501 -0.00000000000E+00 -0.00000000000E+00 -0.14057385097E+02  0.14057385328E+02  0.25500000000E-02 0. -1.
    5000001    1    1    2    0    0 -0.49900167268E+02  0.34533584719E+02  0.26562620550E+03  0.28314108888E+03  0.77000000000E+02 0.  0.
   -5000001    1    1    2    0    0  0.49900167268E+02 -0.34533584719E+02  0.44808201836E+03  0.45868190540E+03  0.77000000000E+02 0.  0.
<mgrwt>
<rscale>  0 0.20229169E+03</rscale>
<asrwt>0</asrwt>
<pdfrwt beam="1">  1        2 0.10396652E+00 0.20229169E+03</pdfrwt>
<pdfrwt beam="2">  1       -2 0.20081978E-02 0.20229169E+03</pdfrwt>
<totfact> 0.32706587E+04</totfact>
</mgrwt>
</event>
<event>
 4    1  0.5121375E-004  0.2556416E+03  0.7818608E-02  0.1109790E+00
         -2   -1    0    0    0  501 -0.00000000000E+00  0.00000000000E+00  0.18310446772E+02  0.18310446949E+02  0.25500000000E-02 0. -1.
          2   -1    0    0  501    0  0.00000000000E+00 -0.00000000000E+00 -0.89228601354E+03  0.89228601354E+03  0.25500000000E-02 0.  1.
    5000001    1    1    2    0    0 -0.99675700302E+02 -0.14500234394E+02 -0.37915004411E+03  0.39978651550E+03  0.77000000000E+02 0.  0.
   -5000001    1    1    2    0    0  0.99675700302E+02  0.14500234394E+02 -0.49482552266E+03  0.51080994499E+03  0.77000000000E+02 0.  0.
<mgrwt>
<rscale>  0 0.25564159E+03</rscale>
<asrwt>0</asrwt>
<pdfrwt beam="1">  1        2 0.12746940E+00 0.25564159E+03</pdfrwt>
<pdfrwt beam="2">  1       -2 0.26157787E-02 0.25564159E+03</pdfrwt>
<totfact> 0.17481200E+04</totfact>
</mgrwt>
</event>
<event>
 4    1  0.5121375E-004  0.3158315E+03  0.7818608E-02  0.1077584E+00
          2   -1    0    0  501    0  0.00000000000E+00  0.00000000000E+00  0.89737252119E+03  0.89737252120E+03  0.25500000000E-02 0.  1.
         -2   -1    0    0    0  501 -0.00000000000E+00 -0.00000000000E+00 -0.27789328222E+02  0.27789328339E+02  0.25500000000E-02 0. -1.
    5000001    1    1    2    0    0  0.10328102783E+03 -0.84850202324E+02  0.53377610433E+03  0.55561898554E+03  0.77000000000E+02 0.  0.
   -5000001    1    1    2    0    0 -0.10328102783E+03  0.84850202324E+02  0.33580708864E+03  0.36954286399E+03  0.77000000000E+02 0.  0.
<mgrwt>
<rscale>  0 0.31583147E+03</rscale>
<asrwt>0</asrwt>
<pdfrwt beam="1">  1        2 0.12819610E+00 0.31583147E+03</pdfrwt>
<pdfrwt beam="2">  1       -2 0.39699033E-02 0.31583147E+03</pdfrwt>
<totfact> 0.93792477E+03</totfact>
</mgrwt>
</event>
<event>
 4    1  0.5121375E-004  0.1757681E+03  0.7818608E-02  0.1171963E+00
          2   -1    0    0  501    0  0.00000000000E+00  0.00000000000E+00  0.15143687211E+04  0.15143687211E+04  0.25500000000E-02 0.  1.
         -2   -1    0    0    0  501 -0.00000000000E+00 -0.00000000000E+00 -0.51002138746E+01  0.51002145121E+01  0.25500000000E-02 0. -1.
    5000001    1    1    2    0    0 -0.31161820357E+02 -0.26004252456E+02  0.85956180132E+03  0.86395762077E+03  0.77000000000E+02 0.  0.
   -5000001    1    1    2    0    0  0.31161820357E+02  0.26004252456E+02  0.64970670591E+03  0.65551131485E+03  0.77000000000E+02 0.  0.
<mgrwt>
<rscale>  0 0.17576808E+03</rscale>
<asrwt>0</asrwt>
<pdfrwt beam="1">  1        2 0.21633862E+00 0.17576808E+03</pdfrwt>
<pdfrwt beam="2">  1       -2 0.72860125E-03 0.17576808E+03</pdfrwt>
<totfact> 0.50134532E+04</totfact>
</mgrwt>
</event>
<event>
 4    1  0.5121375E-004  0.2177498E+03  0.7818608E-02  0.1135572E+00
          2   -1    0    0  501    0  0.00000000000E+00  0.00000000000E+00  0.50732372767E+03  0.50732372768E+03  0.25500000000E-02 0.  1.
         -2   -1    0    0    0  501 -0.00000000000E+00 -0.00000000000E+00 -0.23365246237E+02  0.23365246376E+02  0.25500000000E-02 0. -1.
    5000001    1    1    2    0    0 -0.13107281699E+02 -0.88703160055E+01  0.42556413142E+03  0.43276357667E+03  0.77000000000E+02 0.  0.
   -5000001    1    1    2    0    0  0.13107281699E+02  0.88703160055E+01  0.58394350017E+02  0.97925397387E+02  0.77000000000E+02 0.  0.
<mgrwt>
<rscale>  0 0.21774980E+03</rscale>
<asrwt>0</asrwt>
<pdfrwt beam="1">  1        2 0.72474808E-01 0.21774980E+03</pdfrwt>
<pdfrwt beam="2">  1       -2 0.33378928E-02 0.21774980E+03</pdfrwt>
<totfact> 0.23454117E+04</totfact>
</mgrwt>
</event>
<event>
 4    1  0.5121375E-004  0.1760478E+03  0.7818608E-02  0.1171684E+00
          2   -1    0    0  501    0  0.00000000000E+00  0.00000000000E+00  0.72970652561E+02  0.72970652606E+02  0.25500000000E-02 0.  1.
         -2   -1    0    0    0  501 -0.00000000000E+00 -0.00000000000E+00 -0.10618248758E+03  0.10618248761E+03  0.25500000000E-02 0. -1.
    5000001    1    1    2    0    0  0.43999343248E+01 -0.41764923549E+02 -0.24189696718E+02  0.90982469127E+02  0.77000000000E+02 0.  0.
   -5000001    1    1    2    0    0 -0.43999343248E+01  0.41764923549E+02 -0.90221383021E+01  0.88170671091E+02  0.77000000000E+02 0.  0.
<mgrwt>
<rscale>  0 0.17604778E+03</rscale>
<asrwt>0</asrwt>
<pdfrwt beam="1">  1        2 0.10424379E-01 0.17604778E+03</pdfrwt>
<pdfrwt beam="2">  1       -2 0.15168927E-01 0.17604778E+03</pdfrwt>
<totfact> 0.19411099E+04</totfact>
</mgrwt>
</event>
<event>
 4    1  0.5121375E-004  0.2760083E+03  0.7818608E-02  0.1097889E+00
          2   -1    0    0  501    0  0.00000000000E+00  0.00000000000E+00  0.63046004958E+03  0.63046004958E+03  0.25500000000E-02 0.  1.
         -2   -1    0    0    0  501 -0.00000000000E+00 -0.00000000000E+00 -0.30208339230E+02  0.30208339337E+02  0.25500000000E-02 0. -1.
    5000001    1    1    2    0    0 -0.53972856280E+02 -0.86936295847E+02  0.17701751220E+03  0.21848384008E+03  0.77000000000E+02 0.  0.
   -5000001    1    1    2    0    0  0.53972856280E+02  0.86936295847E+02  0.42323419815E+03  0.44218454884E+03  0.77000000000E+02 0.  0.
<mgrwt>
<rscale>  0 0.27600834E+03</rscale>
<asrwt>0</asrwt>
<pdfrwt beam="1">  1        2 0.90065721E-01 0.27600834E+03</pdfrwt>
<pdfrwt beam="2">  1       -2 0.43154770E-02 0.27600834E+03</pdfrwt>
<totfact> 0.12661525E+04</totfact>
</mgrwt>
</event>
<event>
 4    1  0.5121375E-004  0.2086732E+03  0.7818608E-02  0.1142621E+00
          2   -1    0    0  501    0  0.00000000000E+00  0.00000000000E+00  0.28685115967E+04  0.28685115967E+04  0.25500000000E-02 0.  1.
         -2   -1    0    0    0  501 -0.00000000000E+00 -0.00000000000E+00 -0.37950437388E+01  0.37950445955E+01  0.25500000000E-02 0. -1.
    5000001    1    1    2    0    0 -0.37927722463E+02  0.49548794997E+01  0.61872333788E+03  0.62466841748E+03  0.77000000000E+02 0.  0.
   -5000001    1    1    2    0    0  0.37927722463E+02 -0.49548794997E+01  0.22459932150E+04  0.22476382238E+04  0.77000000000E+02 0.  0.
<mgrwt>
<rscale>  0 0.20867322E+03</rscale>
<asrwt>0</asrwt>
<pdfrwt beam="1">  1        2 0.40978799E+00 0.20867322E+03</pdfrwt>
<pdfrwt beam="2">  1       -2 0.54214835E-03 0.20867322E+03</pdfrwt>
<totfact> 0.16743387E+04</totfact>
</mgrwt>
</event>
<event>
 4    1  0.5121375E-004  0.1799732E+03  0.7818608E-02  0.1167829E+00
         -2   -1    0    0    0  501 -0.00000000000E+00  0.00000000000E+00  0.40260794724E+03  0.40260794724E+03  0.25500000000E-02 0. -1.
          2   -1    0    0  501    0  0.00000000000E+00 -0.00000000000E+00 -0.20112829991E+02  0.20112830153E+02  0.25500000000E-02 0.  1.
    5000001    1    1    2    0    0  0.31777582493E+02  0.27348846028E+02  0.23885413186E+03  0.25443677099E+03  0.77000000000E+02 0.  0.
   -5000001    1    1    2    0    0 -0.31777582493E+02 -0.27348846028E+02  0.14364098539E+03  0.16828400640E+03  0.77000000000E+02 0.  0.
<mgrwt>
<rscale>  0 0.17997317E+03</rscale>
<asrwt>0</asrwt>
<pdfrwt beam="1">  1        2 0.28732617E-02 0.17997317E+03</pdfrwt>
<pdfrwt beam="2">  1       -2 0.57515415E-01 0.17997317E+03</pdfrwt>
<totfact> 0.92390484E+03</totfact>
</mgrwt>
</event>
<event>
 4    1  0.5121375E-004  0.1819062E+03  0.7818608E-02  0.1165971E+00
          2   -1    0    0  501    0  0.00000000000E+00  0.00000000000E+00  0.12018029537E+04  0.12018029537E+04  0.25500000000E-02 0.  1.
         -2   -1    0    0    0  501 -0.00000000000E+00 -0.00000000000E+00 -0.68833777062E+01  0.68833781785E+01  0.25500000000E-02 0. -1.
    5000001    1    1    2    0    0  0.26974429957E+02 -0.31937531967E+02  0.43526745591E+03  0.44399818017E+03  0.77000000000E+02 0.  0.
   -5000001    1    1    2    0    0 -0.26974429957E+02  0.31937531967E+02  0.75965212004E+03  0.76468815167E+03  0.77000000000E+02 0.  0.
<mgrwt>
<rscale>  0 0.18190617E+03</rscale>
<asrwt>0</asrwt>
<pdfrwt beam="1">  1        2 0.17168621E+00 0.18190617E+03</pdfrwt>
<pdfrwt beam="2">  1       -2 0.98333928E-03 0.18190617E+03</pdfrwt>
<totfact> 0.47272908E+04</totfact>
</mgrwt>
</event>
<event>
 4    1  0.5121375E-004  0.1654104E+03  0.7818608E-02  0.1182720E+00
          2   -1    0    0  501    0  0.00000000000E+00  0.00000000000E+00  0.37974298270E+03  0.37974298270E+03  0.25500000000E-02 0.  1.
         -2   -1    0    0    0  501 -0.00000000000E+00 -0.00000000000E+00 -0.18012578999E+02  0.18012579179E+02  0.25500000000E-02 0. -1.
    5000001    1    1    2    0    0  0.27895354989E+02  0.28718677081E+01  0.20772342616E+03  0.22330342637E+03  0.77000000000E+02 0.  0.
   -5000001    1    1    2    0    0 -0.27895354989E+02 -0.28718677081E+01  0.15400697754E+03  0.17445213551E+03  0.77000000000E+02 0.  0.
<mgrwt>
<rscale>  0 0.16541040E+03</rscale>
<asrwt>0</asrwt>
<pdfrwt beam="1">  1        2 0.54248985E-01 0.16541040E+03</pdfrwt>
<pdfrwt beam="2">  1       -2 0.25732262E-02 0.16541040E+03</pdfrwt>
<totfact> 0.46034652E+04</totfact>
</mgrwt>
</event>
<event>
 4    1  0.5121375E-004  0.4284301E+03  0.7818608E-02  0.1034357E+00
         -2   -1    0    0    0  501 -0.00000000000E+00  0.00000000000E+00  0.17978195848E+02  0.17978196029E+02  0.25500000000E-02 0. -1.
          2   -1    0    0  501    0  0.00000000000E+00 -0.00000000000E+00 -0.25524294726E+04  0.25524294726E+04  0.25500000000E-02 0.  1.
    5000001    1    1    2    0    0 -0.52639512564E+01  0.11276451035E+03 -0.27746425301E+03  0.30928782012E+03  0.77000000000E+02 0.  0.
   -5000001    1    1    2    0    0  0.52639512564E+01 -0.11276451035E+03 -0.22569870237E+04  0.22611198485E+04  0.77000000000E+02 0.  0.
<mgrwt>
<rscale>  0 0.42843005E+03</rscale>
<asrwt>0</asrwt>
<pdfrwt beam="1">  1        2 0.36463255E+00 0.42843005E+03</pdfrwt>
<pdfrwt beam="2">  1       -2 0.25683153E-02 0.42843005E+03</pdfrwt>
<totfact> 0.24934587E+03</totfact>
</mgrwt>
</event>
<event>
 4    1  0.5121375E-004  0.2179732E+03  0.7818608E-02  0.1135403E+00
         -2   -1    0    0    0  501 -0.00000000000E+00  0.00000000000E+00  0.78421433318E+01  0.78421437464E+01  0.25500000000E-02 0. -1.
          2   -1    0    0  501    0  0.00000000000E+00 -0.00000000000E+00 -0.15146466169E+04  0.15146466169E+04  0.25500000000E-02 0.  1.
    5000001    1    1    2    0    0  0.35833752348E+02  0.65937515741E+02 -0.62899078866E+03  0.63811458690E+03  0.77000000000E+02 0.  0.
   -5000001    1    1    2    0    0 -0.35833752348E+02 -0.65937515741E+02 -0.87781368489E+03  0.88437417373E+03  0.77000000000E+02 0.  0.
<mgrwt>
<rscale>  0 0.21797317E+03</rscale>
<asrwt>0</asrwt>
<pdfrwt beam="1">  1        2 0.21637790E+00 0.21797317E+03</pdfrwt>
<pdfrwt beam="2">  1       -2 0.11203072E-02 0.21797317E+03</pdfrwt>
<totfact> 0.27359683E+04</totfact>
</mgrwt>
</event>
<event>
 4    1  0.5121375E-004  0.1784209E+03  0.7818608E-02  0.1169340E+00
          2   -1    0    0  501    0  0.00000000000E+00  0.00000000000E+00  0.53044005510E+02  0.53044005571E+02  0.25500000000E-02 0.  1.
         -2   -1    0    0    0  501 -0.00000000000E+00 -0.00000000000E+00 -0.15003596706E+03  0.15003596708E+03  0.25500000000E-02 0. -1.
    5000001    1    1    2    0    0 -0.28173543558E+02 -0.14440493654E+02 -0.84976043650E+02  0.11896303799E+03  0.77000000000E+02 0.  0.
   -5000001    1    1    2    0    0  0.28173543558E+02  0.14440493654E+02 -0.12015917897E+02  0.84116934659E+02  0.77000000000E+02 0.  0.
<mgrwt>
<rscale>  0 0.17842095E+03</rscale>
<asrwt>0</asrwt>
<pdfrwt beam="1">  1        2 0.75777151E-02 0.17842095E+03</pdfrwt>
<pdfrwt beam="2">  1       -2 0.21433709E-01 0.17842095E+03</pdfrwt>
<totfact> 0.16203246E+04</totfact>
</mgrwt>
</event>
<event>
 4    1  0.5121375E-004  0.1613316E+03  0.7818608E-02  0.1187202E+00
          2   -1    0    0  501    0  0.00000000000E+00  0.00000000000E+00  0.19381955350E+04  0.19381955350E+04  0.25500000000E-02 0.  1.
         -2   -1    0    0    0  501 -0.00000000000E+00 -0.00000000000E+00 -0.33572313259E+01  0.33572322943E+01  0.25500000000E-02 0. -1.
    5000001    1    1    2    0    0 -0.84988670259E+01 -0.20340725296E+02  0.85199042968E+03  0.85574684814E+03  0.77000000000E+02 0.  0.
   -5000001    1    1    2    0    0  0.84988670259E+01  0.20340725296E+02  0.10828478740E+04  0.10858059191E+04  0.77000000000E+02 0.  0.
<mgrwt>
<rscale>  0 0.16133161E+03</rscale>
<asrwt>0</asrwt>
<pdfrwt beam="1">  1        2 0.27688497E+00 0.16133161E+03</pdfrwt>
<pdfrwt beam="2">  1       -2 0.47960473E-03 0.16133161E+03</pdfrwt>
<totfact> 0.56374847E+04</totfact>
</mgrwt>
</event>
<event>
 4    1  0.5121375E-004  0.2327935E+03  0.7818608E-02  0.1124689E+00
          2   -1    0    0  501    0  0.00000000000E+00  0.00000000000E+00  0.94721247360E+02  0.94721247394E+02  0.25500000000E-02 0.  1.
         -2   -1    0    0    0  501 -0.00000000000E+00 -0.00000000000E+00 -0.14303241209E+03  0.14303241211E+03  0.25500000000E-02 0. -1.
    5000001    1    1    2    0    0  0.77064675726E+02 -0.39634684620E+02 -0.13476402154E+02  0.11670683735E+03  0.77000000000E+02 0.  0.
   -5000001    1    1    2    0    0 -0.77064675726E+02  0.39634684620E+02 -0.34834762574E+02  0.12104682215E+03  0.77000000000E+02 0.  0.
<mgrwt>
<rscale>  0 0.23279354E+03</rscale>
<asrwt>0</asrwt>
<pdfrwt beam="1">  1        2 0.13531607E-01 0.23279354E+03</pdfrwt>
<pdfrwt beam="2">  1       -2 0.20433202E-01 0.23279354E+03</pdfrwt>
<totfact> 0.87591866E+03</totfact>
</mgrwt>
</event>
<event>
 4    1  0.5121375E-004  0.1876060E+03  0.7818608E-02  0.1160638E+00
          2   -1    0    0  501    0  0.00000000000E+00  0.00000000000E+00  0.86266433577E+03  0.86266433577E+03  0.25500000000E-02 0.  1.
         -2   -1    0    0    0  501 -0.00000000000E+00 -0.00000000000E+00 -0.10199795209E+02  0.10199795528E+02  0.25500000000E-02 0. -1.
    5000001    1    1    2    0    0  0.31857069299E+02 -0.28208879476E+02  0.27479697611E+03  0.28853594547E+03  0.77000000000E+02 0.  0.
   -5000001    1    1    2    0    0 -0.31857069299E+02  0.28208879476E+02  0.57766756445E+03  0.58432818583E+03  0.77000000000E+02 0.  0.
<mgrwt>
<rscale>  0 0.18760597E+03</rscale>
<asrwt>0</asrwt>
<pdfrwt beam="1">  1        2 0.12323779E+00 0.18760597E+03</pdfrwt>
<pdfrwt beam="2">  1       -2 0.14571133E-02 0.18760597E+03</pdfrwt>
<totfact> 0.42134861E+04</totfact>
</mgrwt>
</event>
<event>
 4    1  0.5121375E-004  0.4097625E+03  0.7818608E-02  0.1040451E+00
          2   -1    0    0  501    0  0.00000000000E+00  0.00000000000E+00  0.30277003349E+03  0.30277003350E+03  0.25500000000E-02 0.  1.
         -2   -1    0    0    0  501 -0.00000000000E+00 -0.00000000000E+00 -0.13864098720E+03  0.13864098722E+03  0.25500000000E-02 0. -1.
    5000001    1    1    2    0    0  0.16818945418E+03 -0.86785409425E+02  0.65800877472E+02  0.21465822896E+03  0.77000000000E+02 0.  0.
   -5000001    1    1    2    0    0 -0.16818945418E+03  0.86785409425E+02  0.98328168824E+02  0.22675279176E+03  0.77000000000E+02 0.  0.
<mgrwt>
<rscale>  0 0.40976255E+03</rscale>
<asrwt>0</asrwt>
<pdfrwt beam="1">  1        2 0.43252861E-01 0.40976255E+03</pdfrwt>
<pdfrwt beam="2">  1       -2 0.19805856E-01 0.40976255E+03</pdfrwt>
<totfact> 0.25273177E+03</totfact>
</mgrwt>
</event>
<event>
 4    1  0.5121375E-004  0.2206207E+03  0.7818608E-02  0.1133421E+00
          2   -1    0    0  501    0  0.00000000000E+00  0.00000000000E+00  0.22302447039E+04  0.22302447039E+04  0.25500000000E-02 0.  1.
         -2   -1    0    0    0  501 -0.00000000000E+00 -0.00000000000E+00 -0.54560717182E+01  0.54560723141E+01  0.25500000000E-02 0. -1.
    5000001    1    1    2    0    0  0.56913702196E+02  0.50621061726E+02  0.90038118461E+03  0.90687206318E+03  0.77000000000E+02 0.  0.
   -5000001    1    1    2    0    0 -0.56913702196E+02 -0.50621061726E+02  0.13244074476E+04  0.13288287130E+04  0.77000000000E+02 0.  0.
<mgrwt>
<rscale>  0 0.22062072E+03</rscale>
<asrwt>0</asrwt>
<pdfrwt beam="1">  1        2 0.31860648E+00 0.22062072E+03</pdfrwt>
<pdfrwt beam="2">  1       -2 0.77943863E-03 0.22062072E+03</pdfrwt>
<totfact> 0.20709235E+04</totfact>
</mgrwt>
</event>
<event>
 4    1  0.5121375E-004  0.2338641E+03  0.7818608E-02  0.1123949E+00
         -2   -1    0    0    0  501 -0.00000000000E+00  0.00000000000E+00  0.57420676435E+02  0.57420676491E+02  0.25500000000E-02 0. -1.
          2   -1    0    0  501    0  0.00000000000E+00 -0.00000000000E+00 -0.23812151675E+03  0.23812151676E+03  0.25500000000E-02 0.  1.
    5000001    1    1    2    0    0 -0.40568245847E+02 -0.61331112215E+02 -0.29260748880E+02  0.11041956041E+03  0.77000000000E+02 0.  0.
   -5000001    1    1    2    0    0  0.40568245847E+02  0.61331112215E+02 -0.15144009143E+03  0.18512263284E+03  0.77000000000E+02 0.  0.
<mgrwt>
<rscale>  0 0.23386405E+03</rscale>
<asrwt>0</asrwt>
<pdfrwt beam="1">  1        2 0.34017359E-01 0.23386405E+03</pdfrwt>
<pdfrwt beam="2">  1       -2 0.82029539E-02 0.23386405E+03</pdfrwt>
<totfact> 0.13583162E+04</totfact>
</mgrwt>
</event>
<event>
 4    1  0.5121375E-004  0.2480090E+03  0.7818608E-02  0.1114570E+00
          2   -1    0    0  501    0  0.00000000000E+00  0.00000000000E+00  0.90514547082E+03  0.90514547083E+03  0.25500000000E-02 0. -1.
         -2   -1    0    0    0  501 -0.00000000000E+00 -0.00000000000E+00 -0.16988556905E+02  0.16988557096E+02  0.25500000000E-02 0.  1.
    5000001    1    1    2    0    0 -0.38398564789E+01  0.97058483660E+02  0.45749560219E+03  0.47398978868E+03  0.77000000000E+02 0.  0.
   -5000001    1    1    2    0    0  0.38398564789E+01 -0.97058483660E+02  0.43066131173E+03  0.44814423924E+03  0.77000000000E+02 0.  0.
<mgrwt>
<rscale>  0 0.24800900E+03</rscale>
<asrwt>0</asrwt>
<pdfrwt beam="1">  1        2 0.12930652E+00 0.24800900E+03</pdfrwt>
<pdfrwt beam="2">  1       -2 0.24269362E-02 0.24800900E+03</pdfrwt>
<totfact> 0.19142281E+04</totfact>
</mgrwt>
</event>
<event>
 4    1  0.5121375E-004  0.3248684E+03  0.7818608E-02  0.1073430E+00
          2   -1    0    0  501    0  0.00000000000E+00  0.00000000000E+00  0.76063825463E+02  0.76063825506E+02  0.25500000000E-02 0.  1.
         -2   -1    0    0    0  501 -0.00000000000E+00 -0.00000000000E+00 -0.34687793454E+03  0.34687793455E+03  0.25500000000E-02 0. -1.
    5000001    1    1    2    0    0  0.32725651111E+02 -0.78175601324E+02  0.14584009648E+02  0.11543000572E+03  0.77000000000E+02 0.  0.
   -5000001    1    1    2    0    0 -0.32725651111E+02  0.78175601324E+02 -0.28539811872E+03  0.30751175433E+03  0.77000000000E+02 0.  0.
<mgrwt>
<rscale>  0 0.32486836E+03</rscale>
<asrwt>0</asrwt>
<pdfrwt beam="1">  1        2 0.10866261E-01 0.32486836E+03</pdfrwt>
<pdfrwt beam="2">  1       -2 0.49553990E-01 0.32486836E+03</pdfrwt>
<totfact> 0.22665590E+03</totfact>
</mgrwt>
</event>
<event>
 4    1  0.5121375E-004  0.1743921E+03  0.7818608E-02  0.1173343E+00
         -2   -1    0    0    0  501 -0.00000000000E+00  0.00000000000E+00  0.50157119201E+02  0.50157119266E+02  0.25500000000E-02 0. -1.
          2   -1    0    0  501    0  0.00000000000E+00 -0.00000000000E+00 -0.15158666335E+03  0.15158666337E+03  0.25500000000E-02 0.  1.
    5000001    1    1    2    0    0 -0.17559458617E+02 -0.18483714747E+02 -0.87736696251E+02  0.11948518806E+03  0.77000000000E+02 0.  0.
   -5000001    1    1    2    0    0  0.17559458617E+02  0.18483714747E+02 -0.13692847900E+02  0.82258594575E+02  0.77000000000E+02 0.  0.
<mgrwt>
<rscale>  0 0.17439209E+03</rscale>
<asrwt>0</asrwt>
<pdfrwt beam="1">  1        2 0.21655237E-01 0.17439209E+03</pdfrwt>
<pdfrwt beam="2">  1       -2 0.71653028E-02 0.17439209E+03</pdfrwt>
<totfact> 0.26966170E+04</totfact>
</mgrwt>
</event>
<event>
 4    1  0.5121375E-004  0.1803316E+03  0.7818608E-02  0.1167483E+00
         -2   -1    0    0    0  501 -0.00000000000E+00  0.00000000000E+00  0.33531385784E+03  0.33531385785E+03  0.25500000000E-02 0. -1.
          2   -1    0    0  501    0  0.00000000000E+00 -0.00000000000E+00 -0.24245557601E+02  0.24245557735E+02  0.25500000000E-02 0.  1.
    5000001    1    1    2    0    0 -0.48354359724E+01 -0.45681271438E+02  0.13654393192E+03  0.16335055967E+03  0.77000000000E+02 0.  0.
   -5000001    1    1    2    0    0  0.48354359724E+01  0.45681271438E+02  0.17452436832E+03  0.19620885591E+03  0.77000000000E+02 0.  0.
<mgrwt>
<rscale>  0 0.18033160E+03</rscale>
<asrwt>0</asrwt>
<pdfrwt beam="1">  1        2 0.34636513E-02 0.18033160E+03</pdfrwt>
<pdfrwt beam="2">  1       -2 0.47901977E-01 0.18033160E+03</pdfrwt>
<totfact> 0.10364052E+04</totfact>
</mgrwt>
</event>
<event>
 4    1  0.5121375E-004  0.2104313E+03  0.7818608E-02  0.1141225E+00
          2   -1    0    0  501    0  0.00000000000E+00  0.00000000000E+00  0.22251162360E+04  0.22251162360E+04  0.25500000000E-02 0.  1.
         -2   -1    0    0    0  501 -0.00000000000E+00 -0.00000000000E+00 -0.49751686221E+01  0.49751692756E+01  0.25500000000E-02 0. -1.
    5000001    1    1    2    0    0 -0.31082280854E+02  0.59961441413E+02  0.13652636446E+04  0.13691001796E+04  0.77000000000E+02 0.  0.
   -5000001    1    1    2    0    0  0.31082280854E+02 -0.59961441413E+02  0.85487742282E+03  0.86099122567E+03  0.77000000000E+02 0.  0.
<mgrwt>
<rscale>  0 0.21043126E+03</rscale>
<asrwt>0</asrwt>
<pdfrwt beam="1">  1        2 0.31787359E+00 0.21043126E+03</pdfrwt>
<pdfrwt beam="2">  1       -2 0.71073876E-03 0.21043126E+03</pdfrwt>
<totfact> 0.23743499E+04</totfact>
</mgrwt>
</event>
<event>
 4    1  0.5121375E-004  0.2938323E+03  0.7818608E-02  0.1088365E+00
         -2   -1    0    0    0  501 -0.00000000000E+00  0.00000000000E+00  0.16160946685E+03  0.16160946687E+03  0.25500000000E-02 0. -1.
          2   -1    0    0  501    0  0.00000000000E+00 -0.00000000000E+00 -0.13355870204E+03  0.13355870207E+03  0.25500000000E-02 0.  1.
    5000001    1    1    2    0    0  0.10655208014E+03  0.55974470630E+01 -0.51622120930E+02  0.14134539457E+03  0.77000000000E+02 0.  0.
   -5000001    1    1    2    0    0 -0.10655208014E+03 -0.55974470630E+01  0.79672885739E+02  0.15382277438E+03  0.77000000000E+02 0.  0.
<mgrwt>
<rscale>  0 0.29383227E+03</rscale>
<asrwt>0</asrwt>
<pdfrwt beam="1">  1        2 0.19079815E-01 0.29383227E+03</pdfrwt>
<pdfrwt beam="2">  1       -2 0.23087067E-01 0.29383227E+03</pdfrwt>
<totfact> 0.47836502E+03</totfact>
</mgrwt>
</event>
<event>
 4    1  0.5121375E-004  0.2994105E+03  0.7818608E-02  0.1085536E+00
         -2   -1    0    0    0  501 -0.00000000000E+00  0.00000000000E+00  0.95377594250E+01  0.95377597659E+01  0.25500000000E-02 0. -1.
          2   -1    0    0  501    0  0.00000000000E+00 -0.00000000000E+00 -0.23497820068E+04  0.23497820068E+04  0.25500000000E-02 0.  1.
    5000001    1    1    2    0    0 -0.94907430945E+02 -0.84676801861E+02 -0.13077552290E+04  0.13161802005E+04  0.77000000000E+02 0.  0.
   -5000001    1    1    2    0    0  0.94907430945E+02  0.84676801861E+02 -0.10324890184E+04  0.10431395661E+04  0.77000000000E+02 0.  0.
<mgrwt>
<rscale>  0 0.29941046E+03</rscale>
<asrwt>0</asrwt>
<pdfrwt beam="1">  1        2 0.33568277E+00 0.29941046E+03</pdfrwt>
<pdfrwt beam="2">  1       -2 0.13625386E-02 0.29941046E+03</pdfrwt>
<totfact> 0.80905743E+03</totfact>
</mgrwt>
</event>
<event>
 4    1  0.5121375E-004  0.5325339E+03  0.7818608E-02  0.1005619E+00
         -2   -1    0    0    0  501 -0.00000000000E+00  0.00000000000E+00  0.25844236080E+02  0.25844236206E+02  0.25500000000E-02 0. -1.
          2   -1    0    0  501    0  0.00000000000E+00 -0.00000000000E+00 -0.27432842473E+04  0.27432842473E+04  0.25500000000E-02 0.  1.
    5000001    1    1    2    0    0  0.13577781083E+03  0.18782891558E+03 -0.80709380925E+03  0.84323468404E+03  0.77000000000E+02 0.  0.
   -5000001    1    1    2    0    0 -0.13577781083E+03 -0.18782891558E+03 -0.19103462020E+04  0.19258937995E+04  0.77000000000E+02 0.  0.
<mgrwt>
<rscale>  0 0.53253389E+03</rscale>
<asrwt>0</asrwt>
<pdfrwt beam="1">  1        2 0.39189756E+00 0.53253389E+03</pdfrwt>
<pdfrwt beam="2">  1       -2 0.36920355E-02 0.53253389E+03</pdfrwt>
<totfact> 0.11388508E+03</totfact>
</mgrwt>
</event>
<event>
 4    1  0.5121375E-004  0.2922702E+03  0.7818608E-02  0.1089170E+00
          2   -1    0    0  501    0  0.00000000000E+00  0.00000000000E+00  0.24966159686E+04  0.24966159686E+04  0.25500000000E-02 0. -1.
         -2   -1    0    0    0  501 -0.00000000000E+00 -0.00000000000E+00 -0.85537678225E+01  0.85537682026E+01  0.25500000000E-02 0.  1.
    5000001    1    1    2    0    0  0.11190860596E+03  0.52361182594E+02  0.13528726507E+04  0.13606831514E+04  0.77000000000E+02 0.  0.
   -5000001    1    1    2    0    0 -0.11190860596E+03 -0.52361182594E+02  0.11351895501E+04  0.11444865854E+04  0.77000000000E+02 0.  0.
<mgrwt>
<rscale>  0 0.29227024E+03</rscale>
<asrwt>0</asrwt>
<pdfrwt beam="1">  1        2 0.35665974E+00 0.29227024E+03</pdfrwt>
<pdfrwt beam="2">  1       -2 0.12219658E-02 0.29227024E+03</pdfrwt>
<totfact> 0.80172056E+03</totfact>
</mgrwt>
</event>
<event>
 4    1  0.5121375E-004  0.4942019E+03  0.7818608E-02  0.1015303E+00
         -2   -1    0    0    0  501 -0.00000000000E+00  0.00000000000E+00  0.94887485034E+02  0.94887485069E+02  0.25500000000E-02 0. -1.
          2   -1    0    0  501    0  0.00000000000E+00 -0.00000000000E+00 -0.64348706718E+03  0.64348706718E+03  0.25500000000E-02 0.  1.
    5000001    1    1    2    0    0 -0.14986579149E+03  0.14702254735E+03 -0.43138727895E+03  0.48590057556E+03  0.77000000000E+02 0.  0.
   -5000001    1    1    2    0    0  0.14986579149E+03 -0.14702254735E+03 -0.11721230319E+03  0.25247397669E+03  0.77000000000E+02 0.  0.
<mgrwt>
<rscale>  0 0.49420186E+03</rscale>
<asrwt>0</asrwt>
<pdfrwt beam="1">  1        2 0.91926722E-01 0.49420186E+03</pdfrwt>
<pdfrwt beam="2">  1       -2 0.13555355E-01 0.49420186E+03</pdfrwt>
<totfact> 0.20655107E+03</totfact>
</mgrwt>
</event>
<event>
 4    1  0.5121375E-004  0.2432694E+03  0.7818608E-02  0.1117634E+00
         -2   -1    0    0    0  501 -0.00000000000E+00  0.00000000000E+00  0.52824860208E+03  0.52824860209E+03  0.25500000000E-02 0. -1.
          2   -1    0    0  501    0  0.00000000000E+00 -0.00000000000E+00 -0.28007641177E+02  0.28007641293E+02  0.25500000000E-02 0.  1.
    5000001    1    1    2    0    0  0.76501418449E+02 -0.93837300058E+01  0.37379656317E+03  0.38934996090E+03  0.77000000000E+02 0.  0.
   -5000001    1    1    2    0    0 -0.76501418449E+02  0.93837300058E+01  0.12644439773E+03  0.16690628248E+03  0.77000000000E+02 0.  0.
<mgrwt>
<rscale>  0 0.24326938E+03</rscale>
<asrwt>0</asrwt>
<pdfrwt beam="1">  1        2 0.40010917E-02 0.24326938E+03</pdfrwt>
<pdfrwt beam="2">  1       -2 0.75464084E-01 0.24326938E+03</pdfrwt>
<totfact> 0.34018807E+03</totfact>
</mgrwt>
</event>
<event>
 4    1  0.5121375E-004  0.2105101E+03  0.7818608E-02  0.1141163E+00
         -2   -1    0    0    0  501 -0.00000000000E+00  0.00000000000E+00  0.92816911935E+01  0.92816915438E+01  0.25500000000E-02 0. -1.
          2   -1    0    0  501    0  0.00000000000E+00 -0.00000000000E+00 -0.11935993845E+04  0.11935993845E+04  0.25500000000E-02 0.  1.
    5000001    1    1    2    0    0  0.37050677112E+02 -0.60249773075E+02 -0.52291804470E+03  0.53326829017E+03  0.77000000000E+02 0.  0.
   -5000001    1    1    2    0    0 -0.37050677112E+02  0.60249773075E+02 -0.66139964862E+03  0.66961278589E+03  0.77000000000E+02 0.  0.
<mgrwt>
<rscale>  0 0.21051006E+03</rscale>
<asrwt>0</asrwt>
<pdfrwt beam="1">  1        2 0.17051410E+00 0.21051006E+03</pdfrwt>
<pdfrwt beam="2">  1       -2 0.13259567E-02 0.21051006E+03</pdfrwt>
<totfact> 0.31332851E+04</totfact>
</mgrwt>
</event>
<event>
 4    1  0.5121375E-004  0.2129924E+03  0.7818608E-02  0.1139218E+00
          2   -1    0    0  501    0  0.00000000000E+00  0.00000000000E+00  0.10621808214E+04  0.10621808214E+04  0.25500000000E-02 0.  1.
         -2   -1    0    0    0  501 -0.00000000000E+00 -0.00000000000E+00 -0.10677508661E+02  0.10677508965E+02  0.25500000000E-02 0. -1.
    5000001    1    1    2    0    0  0.52127808993E+02  0.13944681695E+01  0.78715542755E+03  0.79262974972E+03  0.77000000000E+02 0.  0.
   -5000001    1    1    2    0    0 -0.52127808993E+02 -0.13944681695E+01  0.26434788522E+03  0.28022858068E+03  0.77000000000E+02 0.  0.
<mgrwt>
<rscale>  0 0.21299244E+03</rscale>
<asrwt>0</asrwt>
<pdfrwt beam="1">  1        2 0.15174005E+00 0.21299244E+03</pdfrwt>
<pdfrwt beam="2">  1       -2 0.15253591E-02 0.21299244E+03</pdfrwt>
<totfact> 0.30238175E+04</totfact>
</mgrwt>
</event>
<event>
 4    1  0.5121375E-004  0.3449147E+03  0.7818608E-02  0.1064722E+00
         -2   -1    0    0    0  501 -0.00000000000E+00  0.00000000000E+00  0.42478793666E+02  0.42478793742E+02  0.25500000000E-02 0. -1.
          2   -1    0    0  501    0  0.00000000000E+00 -0.00000000000E+00 -0.70015023104E+03  0.70015023105E+03  0.25500000000E-02 0.  1.
    5000001    1    1    2    0    0  0.14276934518E+03 -0.15722474380E+02 -0.20737727456E+03  0.26375104953E+03  0.77000000000E+02 0.  0.
   -5000001    1    1    2    0    0 -0.14276934518E+03  0.15722474380E+02 -0.45029416282E+03  0.47887797526E+03  0.77000000000E+02 0.  0.
<mgrwt>
<rscale>  0 0.34491470E+03</rscale>
<asrwt>0</asrwt>
<pdfrwt beam="1">  1        2 0.10002145E+00 0.34491470E+03</pdfrwt>
<pdfrwt beam="2">  1       -2 0.60683995E-02 0.34491470E+03</pdfrwt>
<totfact> 0.67023620E+03</totfact>
</mgrwt>
</event>
<event>
 4    1  0.5121375E-004  0.2236263E+03  0.7818608E-02  0.1131208E+00
         -2   -1    0    0    0  501 -0.00000000000E+00  0.00000000000E+00  0.87660970839E+01  0.87660974548E+01  0.25500000000E-02 0. -1.
          2   -1    0    0  501    0  0.00000000000E+00 -0.00000000000E+00 -0.14261965655E+04  0.14261965655E+04  0.25500000000E-02 0.  1.
    5000001    1    1    2    0    0 -0.79758902956E+02 -0.42621930598E+01 -0.61944827968E+03  0.62930502945E+03  0.77000000000E+02 0.  0.
   -5000001    1    1    2    0    0  0.79758902956E+02  0.42621930598E+01 -0.79798218870E+03  0.80565763347E+03  0.77000000000E+02 0.  0.
<mgrwt>
<rscale>  0 0.22362628E+03</rscale>
<asrwt>0</asrwt>
<pdfrwt beam="1">  1        2 0.20374222E+00 0.22362628E+03</pdfrwt>
<pdfrwt beam="2">  1       -2 0.12523005E-02 0.22362628E+03</pdfrwt>
<totfact> 0.25831576E+04</totfact>
</mgrwt>
</event>
<event>
 4    1  0.5121375E-004  0.1906637E+03  0.7818608E-02  0.1157864E+00
          2   -1    0    0  501    0  0.00000000000E+00  0.00000000000E+00  0.10939634454E+03  0.10939634457E+03  0.25500000000E-02 0.  1.
         -2   -1    0    0    0  501 -0.00000000000E+00 -0.00000000000E+00 -0.83075590608E+02  0.83075590648E+02  0.25500000000E-02 0. -1.
    5000001    1    1    2    0    0 -0.18809536809E+02  0.52045950679E+02  0.32393411314E+01  0.94879254782E+02  0.77000000000E+02 0.  0.
   -5000001    1    1    2    0    0  0.18809536809E+02 -0.52045950679E+02  0.23081412796E+02  0.97592680431E+02  0.77000000000E+02 0.  0.
<mgrwt>
<rscale>  0 0.19066375E+03</rscale>
<asrwt>0</asrwt>
<pdfrwt beam="1">  1        2 0.15628049E-01 0.19066375E+03</pdfrwt>
<pdfrwt beam="2">  1       -2 0.11867942E-01 0.19066375E+03</pdfrwt>
<totfact> 0.17900626E+04</totfact>
</mgrwt>
</event>
<event>
 4    1  0.5121375E-004  0.3232247E+03  0.7818608E-02  0.1074175E+00
         -2   -1    0    0    0  501 -0.00000000000E+00  0.00000000000E+00  0.47030191473E+02  0.47030191542E+02  0.25500000000E-02 0. -1.
          2   -1    0    0  501    0  0.00000000000E+00 -0.00000000000E+00 -0.55535708845E+03  0.55535708846E+03  0.25500000000E-02 0.  1.
    5000001    1    1    2    0    0 -0.71734580622E+02 -0.26942405073E+02 -0.31161059615E+02  0.11301218910E+03  0.77000000000E+02 0.  0.
   -5000001    1    1    2    0    0  0.71734580622E+02  0.26942405073E+02 -0.47716583736E+03  0.48937509090E+03  0.77000000000E+02 0.  0.
<mgrwt>
<rscale>  0 0.32322469E+03</rscale>
<asrwt>0</asrwt>
<pdfrwt beam="1">  1        2 0.79336723E-01 0.32322469E+03</pdfrwt>
<pdfrwt beam="2">  1       -2 0.67185991E-02 0.32322469E+03</pdfrwt>
<totfact> 0.74803799E+03</totfact>
</mgrwt>
</event>
<event>
 4    1  0.5121375E-004  0.1791782E+03  0.7818608E-02  0.1168601E+00
         -2   -1    0    0    0  501 -0.00000000000E+00  0.00000000000E+00  0.45892837491E+02  0.45892837562E+02  0.25500000000E-02 0. -1.
          2   -1    0    0  501    0  0.00000000000E+00 -0.00000000000E+00 -0.17489018465E+03  0.17489018466E+03  0.25500000000E-02 0.  1.
    5000001    1    1    2    0    0 -0.26977230437E+02 -0.32636813605E+02 -0.43004877805E+02  0.97833287175E+02  0.77000000000E+02 0.  0.
   -5000001    1    1    2    0    0  0.26977230437E+02  0.32636813605E+02 -0.85992469350E+02  0.12294973505E+03  0.77000000000E+02 0.  0.
<mgrwt>
<rscale>  0 0.17917820E+03</rscale>
<asrwt>0</asrwt>
<pdfrwt beam="1">  1        2 0.24984312E-01 0.17917820E+03</pdfrwt>
<pdfrwt beam="2">  1       -2 0.65561197E-02 0.17917820E+03</pdfrwt>
<totfact> 0.26408485E+04</totfact>
</mgrwt>
</event>
<event>
 4    1  0.5121375E-004  0.2797669E+03  0.7818608E-02  0.1095816E+00
          2   -1    0    0  501    0  0.00000000000E+00  0.00000000000E+00  0.26917603591E+03  0.26917603592E+03  0.25500000000E-02 0.  1.
         -2   -1    0    0    0  501 -0.00000000000E+00 -0.00000000000E+00 -0.72693609891E+02  0.72693609936E+02  0.25500000000E-02 0. -1.
    5000001    1    1    2    0    0 -0.27472237064E+02 -0.11311005766E+03  0.10981903712E+03  0.17758893509E+03  0.77000000000E+02 0.  0.
   -5000001    1    1    2    0    0  0.27472237064E+02  0.11311005766E+03  0.86663388900E+02  0.16428071076E+03  0.77000000000E+02 0.  0.
<mgrwt>
<rscale>  0 0.27976689E+03</rscale>
<asrwt>0</asrwt>
<pdfrwt beam="1">  1        2 0.38453720E-01 0.27976689E+03</pdfrwt>
<pdfrwt beam="2">  1       -2 0.10384801E-01 0.27976689E+03</pdfrwt>
<totfact> 0.82718777E+03</totfact>
</mgrwt>
</event>
<event>
 4    1  0.5121375E-004  0.2309674E+03  0.7818608E-02  0.1125961E+00
          2   -1    0    0  501    0  0.00000000000E+00  0.00000000000E+00  0.82592153359E+03  0.82592153359E+03  0.25500000000E-02 0.  1.
         -2   -1    0    0    0  501 -0.00000000000E+00 -0.00000000000E+00 -0.16147404598E+02  0.16147404800E+02  0.25500000000E-02 0. -1.
    5000001    1    1    2    0    0  0.43083560488E+02  0.34298534579E+02  0.64603374334E+03  0.65293275320E+03  0.77000000000E+02 0.  0.
   -5000001    1    1    2    0    0 -0.43083560488E+02 -0.34298534579E+02  0.16374038565E+03  0.18913618519E+03  0.77000000000E+02 0.  0.
<mgrwt>
<rscale>  0 0.23096744E+03</rscale>
<asrwt>0</asrwt>
<pdfrwt beam="1">  1        2 0.11798880E+00 0.23096744E+03</pdfrwt>
<pdfrwt beam="2">  1       -2 0.23067719E-02 0.23096744E+03</pdfrwt>
<totfact> 0.23085287E+04</totfact>
</mgrwt>
</event>
<event>
 4    1  0.5121375E-004  0.2924118E+03  0.7818608E-02  0.1089097E+00
          2   -1    0    0  501    0  0.00000000000E+00  0.00000000000E+00  0.23532955056E+04  0.23532955056E+04  0.25500000000E-02 0.  1.
         -2   -1    0    0    0  501 -0.00000000000E+00 -0.00000000000E+00 -0.90834996895E+01  0.90835000475E+01  0.25500000000E-02 0. -1.
    5000001    1    1    2    0    0  0.81523426564E+02 -0.47522669227E+02  0.18255867339E+04  0.18296448825E+04  0.77000000000E+02 0.  0.
   -5000001    1    1    2    0    0 -0.81523426564E+02  0.47522669227E+02  0.51862527200E+03  0.53273412311E+03  0.77000000000E+02 0.  0.
<mgrwt>
<rscale>  0 0.29241176E+03</rscale>
<asrwt>0</asrwt>
<pdfrwt beam="1">  1        2 0.33618500E+00 0.29241176E+03</pdfrwt>
<pdfrwt beam="2">  1       -2 0.12976431E-02 0.29241176E+03</pdfrwt>
<totfact> 0.86532191E+03</totfact>
</mgrwt>
</event>
<event>
 4    1  0.5121375E-004  0.4538470E+03  0.7818608E-02  0.1026581E+00
         -2   -1    0    0    0  501 -0.00000000000E+00  0.00000000000E+00  0.37852515239E+02  0.37852515325E+02  0.25500000000E-02 0. -1.
          2   -1    0    0  501    0  0.00000000000E+00 -0.00000000000E+00 -0.13603924608E+04  0.13603924608E+04  0.25500000000E-02 0.  1.
    5000001    1    1    2    0    0 -0.20204270559E+03  0.17878577354E+02 -0.86619731348E+03  0.89295446932E+03  0.77000000000E+02 0.  0.
   -5000001    1    1    2    0    0  0.20204270559E+03 -0.17878577354E+02 -0.45634263208E+03  0.50529050680E+03  0.77000000000E+02 0.  0.
<mgrwt>
<rscale>  0 0.45384701E+03</rscale>
<asrwt>0</asrwt>
<pdfrwt beam="1">  1        2 0.19434175E+00 0.45384701E+03</pdfrwt>
<pdfrwt beam="2">  1       -2 0.54075030E-02 0.45384701E+03</pdfrwt>
<totfact> 0.32021416E+03</totfact>
</mgrwt>
</event>
<event>
 4    1  0.5121375E-004  0.2082949E+03  0.7818608E-02  0.1142923E+00
          2   -1    0    0  501    0  0.00000000000E+00  0.00000000000E+00  0.24797126661E+04  0.24797126661E+04  0.25500000000E-02 0.  1.
         -2   -1    0    0    0  501 -0.00000000000E+00 -0.00000000000E+00 -0.43741738147E+01  0.43741745580E+01  0.25500000000E-02 0. -1.
    5000001    1    1    2    0    0  0.38239886970E+02  0.34087228117E+02  0.18087983809E+04  0.18111611775E+04  0.77000000000E+02 0.  0.
   -5000001    1    1    2    0    0 -0.38239886970E+02 -0.34087228117E+02  0.66654011145E+03  0.67292566324E+03  0.77000000000E+02 0.  0.
<mgrwt>
<rscale>  0 0.20829494E+03</rscale>
<asrwt>0</asrwt>
<pdfrwt beam="1">  1        2 0.35424397E+00 0.20829494E+03</pdfrwt>
<pdfrwt beam="2">  1       -2 0.62488326E-03 0.20829494E+03</pdfrwt>
<totfact> 0.21438247E+04</totfact>
</mgrwt>
</event>
<event>
 4    1  0.5121375E-004  0.1957522E+03  0.7818608E-02  0.1153373E+00
         -2   -1    0    0    0  501 -0.00000000000E+00  0.00000000000E+00  0.25626975487E+02  0.25626975614E+02  0.25500000000E-02 0. -1.
          2   -1    0    0  501    0  0.00000000000E+00 -0.00000000000E+00 -0.37381443065E+03  0.37381443066E+03  0.25500000000E-02 0.  1.
    5000001    1    1    2    0    0 -0.16948691162E+02 -0.51545187094E+02 -0.22833421906E+03  0.24700137659E+03  0.77000000000E+02 0.  0.
   -5000001    1    1    2    0    0  0.16948691162E+02  0.51545187094E+02 -0.11985323611E+03  0.15244002968E+03  0.77000000000E+02 0.  0.
<mgrwt>
<rscale>  0 0.19575222E+03</rscale>
<asrwt>0</asrwt>
<pdfrwt beam="1">  1        2 0.53402058E-01 0.19575222E+03</pdfrwt>
<pdfrwt beam="2">  1       -2 0.36609967E-02 0.19575222E+03</pdfrwt>
<totfact> 0.28227814E+04</totfact>
</mgrwt>
</event>
<event>
 4    1  0.5121375E-004  0.3386042E+03  0.7818608E-02  0.1067392E+00
          2   -1    0    0  501    0  0.00000000000E+00  0.00000000000E+00  0.15946245701E+03  0.15946245703E+03  0.25500000000E-02 0.  1.
         -2   -1    0    0    0  501 -0.00000000000E+00 -0.00000000000E+00 -0.17974885856E+03  0.17974885858E+03  0.25500000000E-02 0. -1.
    5000001    1    1    2    0    0  0.12441709929E+03 -0.63081978612E+02 -0.67475567496E+02  0.17303439782E+03  0.77000000000E+02 0.  0.
   -5000001    1    1    2    0    0 -0.12441709929E+03  0.63081978612E+02  0.47189165946E+02  0.16617691778E+03  0.77000000000E+02 0.  0.
<mgrwt>
<rscale>  0 0.33860416E+03</rscale>
<asrwt>0</asrwt>
<pdfrwt beam="1">  1        2 0.22780351E-01 0.33860416E+03</pdfrwt>
<pdfrwt beam="2">  1       -2 0.25678408E-01 0.33860416E+03</pdfrwt>
<totfact> 0.32505409E+03</totfact>
</mgrwt>
</event>
<event>
 4    1  0.5121375E-004  0.2552300E+03  0.7818608E-02  0.1110044E+00
          2   -1    0    0  501    0  0.00000000000E+00  0.00000000000E+00  0.25416737071E+04  0.25416737071E+04  0.25500000000E-02 0.  1.
         -2   -1    0    0    0  501 -0.00000000000E+00 -0.00000000000E+00 -0.64074247612E+01  0.64074252686E+01  0.25500000000E-02 0. -1.
    5000001    1    1    2    0    0 -0.85548994916E+02 -0.10091278084E+02  0.72666904905E+03  0.73579709926E+03  0.77000000000E+02 0.  0.
   -5000001    1    1    2    0    0  0.85548994916E+02  0.10091278084E+02  0.18085972333E+04  0.18122840331E+04  0.77000000000E+02 0.  0.
<mgrwt>
<rscale>  0 0.25522996E+03</rscale>
<asrwt>0</asrwt>
<pdfrwt beam="1">  1        2 0.36309611E+00 0.25522996E+03</pdfrwt>
<pdfrwt beam="2">  1       -2 0.91534676E-03 0.25522996E+03</pdfrwt>
<totfact> 0.11574833E+04</totfact>
</mgrwt>
</event>
<event>
 4    1  0.5121375E-004  0.2010455E+03  0.7818608E-02  0.1148860E+00
         -2   -1    0    0    0  501 -0.00000000000E+00  0.00000000000E+00  0.96018552408E+01  0.96018555794E+01  0.25500000000E-02 0. -1.
          2   -1    0    0  501    0  0.00000000000E+00 -0.00000000000E+00 -0.10523823949E+04  0.10523823949E+04  0.25500000000E-02 0.  1.
    5000001    1    1    2    0    0 -0.55478512811E+02 -0.13333113279E+02 -0.68162682297E+03  0.68833114348E+03  0.77000000000E+02 0.  0.
   -5000001    1    1    2    0    0  0.55478512811E+02  0.13333113279E+02 -0.36115371668E+03  0.37365310700E+03  0.77000000000E+02 0.  0.
<mgrwt>
<rscale>  0 0.20104550E+03</rscale>
<asrwt>0</asrwt>
<pdfrwt beam="1">  1        2 0.15034027E+00 0.20104550E+03</pdfrwt>
<pdfrwt beam="2">  1       -2 0.13716943E-02 0.20104550E+03</pdfrwt>
<totfact> 0.35597225E+04</totfact>
</mgrwt>
</event>
<event>
 4    1  0.5121375E-004  0.3649558E+03  0.7818608E-02  0.1056639E+00
         -2   -1    0    0    0  501 -0.00000000000E+00  0.00000000000E+00  0.45139155213E+02  0.45139155285E+02  0.25500000000E-02 0. -1.
          2   -1    0    0  501    0  0.00000000000E+00 -0.00000000000E+00 -0.73767858203E+03  0.73767858204E+03  0.25500000000E-02 0.  1.
    5000001    1    1    2    0    0 -0.97446157919E+02 -0.12411966549E+03 -0.45282385246E+03  0.48567467137E+03  0.77000000000E+02 0.  0.
   -5000001    1    1    2    0    0  0.97446157919E+02  0.12411966549E+03 -0.23971557436E+03  0.29714306596E+03  0.77000000000E+02 0.  0.
<mgrwt>
<rscale>  0 0.36495582E+03</rscale>
<asrwt>0</asrwt>
<pdfrwt beam="1">  1        2 0.10538265E+00 0.36495582E+03</pdfrwt>
<pdfrwt beam="2">  1       -2 0.64484512E-02 0.36495582E+03</pdfrwt>
<totfact> 0.57349423E+03</totfact>
</mgrwt>
</event>
<event>
 4    1  0.5121375E-004  0.2100175E+03  0.7818608E-02  0.1141552E+00
         -2   -1    0    0    0  501 -0.00000000000E+00  0.00000000000E+00  0.98481826148E+01  0.98481829449E+01  0.25500000000E-02 0. -1.
          2   -1    0    0  501    0  0.00000000000E+00 -0.00000000000E+00 -0.11196819733E+04  0.11196819733E+04  0.25500000000E-02 0.  1.
    5000001    1    1    2    0    0 -0.60000892224E+02 -0.25067487506E+02 -0.71349344152E+03  0.72057642002E+03  0.77000000000E+02 0.  0.
   -5000001    1    1    2    0    0  0.60000892224E+02  0.25067487506E+02 -0.39634034916E+03  0.40895373622E+03  0.77000000000E+02 0.  0.
<mgrwt>
<rscale>  0 0.21001745E+03</rscale>
<asrwt>0</asrwt>
<pdfrwt beam="1">  1        2 0.15995449E+00 0.21001745E+03</pdfrwt>
<pdfrwt beam="2">  1       -2 0.14068840E-02 0.21001745E+03</pdfrwt>
<totfact> 0.31547308E+04</totfact>
</mgrwt>
</event>
<event>
 4    1  0.5121375E-004  0.2426819E+03  0.7818608E-02  0.1118019E+00
          2   -1    0    0  501    0  0.00000000000E+00  0.00000000000E+00  0.12703319446E+03  0.12703319449E+03  0.25500000000E-02 0.  1.
         -2   -1    0    0    0  501 -0.00000000000E+00 -0.00000000000E+00 -0.11590380652E+03  0.11590380654E+03  0.25500000000E-02 0. -1.
    5000001    1    1    2    0    0  0.86613836903E+02  0.13261971314E+02  0.39018287866E+02  0.12300107078E+03  0.77000000000E+02 0.  0.
   -5000001    1    1    2    0    0 -0.86613836903E+02 -0.13261971314E+02 -0.27888899917E+02  0.11993593025E+03  0.77000000000E+02 0.  0.
<mgrwt>
<rscale>  0 0.24268194E+03</rscale>
<asrwt>0</asrwt>
<pdfrwt beam="1">  1        2 0.18147599E-01 0.24268194E+03</pdfrwt>
<pdfrwt beam="2">  1       -2 0.16557687E-01 0.24268194E+03</pdfrwt>
<totfact> 0.88644390E+03</totfact>
</mgrwt>
</event>
<event>
 4    1  0.5121375E-004  0.4227517E+03  0.7818608E-02  0.1036174E+00
          2   -1    0    0  501    0  0.00000000000E+00  0.00000000000E+00  0.39616341488E+04  0.39616341488E+04  0.25500000000E-02 0.  1.
         -2   -1    0    0    0  501 -0.00000000000E+00 -0.00000000000E+00 -0.11278108921E+02  0.11278109209E+02  0.25500000000E-02 0. -1.
    5000001    1    1    2    0    0 -0.13555868752E+03  0.44821188186E+02  0.70159650679E+03  0.72010537772E+03  0.77000000000E+02 0.  0.
   -5000001    1    1    2    0    0  0.13555868752E+03 -0.44821188186E+02  0.32487595331E+04  0.32528068803E+04  0.77000000000E+02 0.  0.
<mgrwt>
<rscale>  0 0.42275166E+03</rscale>
<asrwt>0</asrwt>
<pdfrwt beam="1">  1        2 0.56594953E+00 0.42275166E+03</pdfrwt>
<pdfrwt beam="2">  1       -2 0.16111533E-02 0.42275166E+03</pdfrwt>
<totfact> 0.79197501E+02</totfact>
</mgrwt>
</event>
<event>
 4    1  0.5121375E-004  0.2760533E+03  0.7818608E-02  0.1097864E+00
         -2   -1    0    0    0  501 -0.00000000000E+00  0.00000000000E+00  0.17246107066E+02  0.17246107255E+02  0.25500000000E-02 0. -1.
          2   -1    0    0  501    0  0.00000000000E+00 -0.00000000000E+00 -0.11046756718E+04  0.11046756718E+04  0.25500000000E-02 0.  1.
    5000001    1    1    2    0    0  0.62787422576E+02  0.52970383216E+02 -0.21923800640E+03  0.24645978451E+03  0.77000000000E+02 0.  0.
   -5000001    1    1    2    0    0 -0.62787422576E+02 -0.52970383216E+02 -0.86819155832E+03  0.87546199454E+03  0.77000000000E+02 0.  0.
<mgrwt>
<rscale>  0 0.27605329E+03</rscale>
<asrwt>0</asrwt>
<pdfrwt beam="1">  1        2 0.15781077E+00 0.27605329E+03</pdfrwt>
<pdfrwt beam="2">  1       -2 0.24637303E-02 0.27605329E+03</pdfrwt>
<totfact> 0.14348119E+04</totfact>
</mgrwt>
</event>
<event>
 4    1  0.5121375E-004  0.3182242E+03  0.7818608E-02  0.1076469E+00
          2   -1    0    0  501    0  0.00000000000E+00  0.00000000000E+00  0.98707363212E+03  0.98707363213E+03  0.25500000000E-02 0.  1.
         -2   -1    0    0    0  501 -0.00000000000E+00 -0.00000000000E+00 -0.25648201159E+02  0.25648201286E+02  0.25500000000E-02 0. -1.
    5000001    1    1    2    0    0  0.43694157512E+02  0.11253252543E+03  0.25988619268E+03  0.29671970246E+03  0.77000000000E+02 0.  0.
   -5000001    1    1    2    0    0 -0.43694157512E+02 -0.11253252543E+03  0.70153923828E+03  0.71600213096E+03  0.77000000000E+02 0.  0.
<mgrwt>
<rscale>  0 0.31822422E+03</rscale>
<asrwt>0</asrwt>
<pdfrwt beam="1">  1        2 0.14101048E+00 0.31822422E+03</pdfrwt>
<pdfrwt beam="2">  1       -2 0.36640297E-02 0.31822422E+03</pdfrwt>
<totfact> 0.93267339E+03</totfact>
</mgrwt>
</event>
<event>
 4    1  0.5121375E-004  0.2860330E+03  0.7818608E-02  0.1092439E+00
          2   -1    0    0  501    0  0.00000000000E+00  0.00000000000E+00  0.67063381908E+03  0.67063381908E+03  0.25500000000E-02 0.  1.
         -2   -1    0    0    0  501 -0.00000000000E+00 -0.00000000000E+00 -0.30499084342E+02  0.30499084448E+02  0.25500000000E-02 0. -1.
    5000001    1    1    2    0    0 -0.39873197432E+02 -0.10798053292E+03  0.23253919723E+03  0.27065318327E+03  0.77000000000E+02 0.  0.
   -5000001    1    1    2    0    0  0.39873197432E+02  0.10798053292E+03  0.40759553750E+03  0.43047972026E+03  0.77000000000E+02 0.  0.
<mgrwt>
<rscale>  0 0.28603299E+03</rscale>
<asrwt>0</asrwt>
<pdfrwt beam="1">  1        2 0.95804845E-01 0.28603299E+03</pdfrwt>
<pdfrwt beam="2">  1       -2 0.43570115E-02 0.28603299E+03</pdfrwt>
<totfact> 0.11630158E+04</totfact>
</mgrwt>
</event>
<event>
 4    1  0.5121375E-004  0.2581816E+03  0.7818608E-02  0.1108241E+00
          2   -1    0    0  501    0  0.00000000000E+00  0.00000000000E+00  0.74529674156E+03  0.74529674156E+03  0.25500000000E-02 0.  1.
         -2   -1    0    0    0  501 -0.00000000000E+00 -0.00000000000E+00 -0.22359470612E+02  0.22359470758E+02  0.25500000000E-02 0. -1.
    5000001    1    1    2    0    0  0.10330228407E+03 -0.79700508462E+01  0.35924949194E+03  0.38173823632E+03  0.77000000000E+02 0.  0.
   -5000001    1    1    2    0    0 -0.10330228407E+03  0.79700508462E+01  0.36368777900E+03  0.38591797600E+03  0.77000000000E+02 0.  0.
<mgrwt>
<rscale>  0 0.25818165E+03</rscale>
<asrwt>0</asrwt>
<pdfrwt beam="1">  1        2 0.10647095E+00 0.25818165E+03</pdfrwt>
<pdfrwt beam="2">  1       -2 0.31942105E-02 0.25818165E+03</pdfrwt>
<totfact> 0.16267844E+04</totfact>
</mgrwt>
</event>
<event>
 4    1  0.5121375E-004  0.1953812E+03  0.7818608E-02  0.1153695E+00
          2   -1    0    0  501    0  0.00000000000E+00  0.00000000000E+00  0.13858401720E+04  0.13858401720E+04  0.25500000000E-02 0.  1.
         -2   -1    0    0    0  501 -0.00000000000E+00 -0.00000000000E+00 -0.68864050269E+01  0.68864054990E+01  0.25500000000E-02 0. -1.
    5000001    1    1    2    0    0  0.29674517038E+02  0.38933585626E+02  0.93825755434E+03  0.94268374301E+03  0.77000000000E+02 0.  0.
   -5000001    1    1    2    0    0 -0.29674517038E+02 -0.38933585626E+02  0.44069621260E+03  0.45004283446E+03  0.77000000000E+02 0.  0.
<mgrwt>
<rscale>  0 0.19538124E+03</rscale>
<asrwt>0</asrwt>
<pdfrwt beam="1">  1        2 0.19797724E+00 0.19538124E+03</pdfrwt>
<pdfrwt beam="2">  1       -2 0.98377180E-03 0.19538124E+03</pdfrwt>
<totfact> 0.38082398E+04</totfact>
</mgrwt>
</event>
<event>
 4    1  0.5121375E-004  0.3247692E+03  0.7818608E-02  0.1073475E+00
          2   -1    0    0  501    0  0.00000000000E+00  0.00000000000E+00  0.17890341913E+03  0.17890341915E+03  0.25500000000E-02 0.  1.
         -2   -1    0    0    0  501 -0.00000000000E+00 -0.00000000000E+00 -0.14739101535E+03  0.14739101537E+03  0.25500000000E-02 0. -1.
    5000001    1    1    2    0    0 -0.61001228340E+02 -0.12553886609E+03 -0.15350468111E+02  0.16014304115E+03  0.77000000000E+02 0.  0.
   -5000001    1    1    2    0    0  0.61001228340E+02  0.12553886609E+03  0.46862871886E+02  0.16615139337E+03  0.77000000000E+02 0.  0.
<mgrwt>
<rscale>  0 0.32476919E+03</rscale>
<asrwt>0</asrwt>
<pdfrwt beam="1">  1        2 0.25557631E-01 0.32476919E+03</pdfrwt>
<pdfrwt beam="2">  1       -2 0.21055859E-01 0.32476919E+03</pdfrwt>
<totfact> 0.40391042E+03</totfact>
</mgrwt>
</event>
<event>
 4    1  0.5121375E-004  0.3760262E+03  0.7818608E-02  0.1052412E+00
          2   -1    0    0  501    0  0.00000000000E+00  0.00000000000E+00  0.57993719970E+03  0.57993719970E+03  0.25500000000E-02 0.  1.
         -2   -1    0    0    0  501 -0.00000000000E+00 -0.00000000000E+00 -0.60953025456E+02  0.60953025509E+02  0.25500000000E-02 0. -1.
    5000001    1    1    2    0    0 -0.11019564063E+03  0.12890425645E+03  0.30329623309E+03  0.35591711332E+03  0.77000000000E+02 0.  0.
   -5000001    1    1    2    0    0  0.11019564063E+03 -0.12890425645E+03  0.21568794115E+03  0.28497311189E+03  0.77000000000E+02 0.  0.
<mgrwt>
<rscale>  0 0.37602621E+03</rscale>
<asrwt>0</asrwt>
<pdfrwt beam="1">  1        2 0.82848171E-01 0.37602621E+03</pdfrwt>
<pdfrwt beam="2">  1       -2 0.87075751E-02 0.37602621E+03</pdfrwt>
<totfact> 0.47603637E+03</totfact>
</mgrwt>
</event>
<event>
 4    1  0.5121375E-004  0.3059870E+03  0.7818608E-02  0.1082285E+00
          2   -1    0    0  501    0  0.00000000000E+00  0.00000000000E+00  0.46372930447E+03  0.46372930448E+03  0.25500000000E-02 0.  1.
         -2   -1    0    0    0  501 -0.00000000000E+00 -0.00000000000E+00 -0.50475583213E+02  0.50475583278E+02  0.25500000000E-02 0. -1.
    5000001    1    1    2    0    0  0.82853324226E+02 -0.10158765108E+03  0.17784779743E+03  0.23397342421E+03  0.77000000000E+02 0.  0.
   -5000001    1    1    2    0    0 -0.82853324226E+02  0.10158765108E+03  0.23540592384E+03  0.28023146355E+03  0.77000000000E+02 0.  0.
<mgrwt>
<rscale>  0 0.30598697E+03</rscale>
<asrwt>0</asrwt>
<pdfrwt beam="1">  1        2 0.66247040E-01 0.30598697E+03</pdfrwt>
<pdfrwt beam="2">  1       -2 0.72107980E-02 0.30598697E+03</pdfrwt>
<totfact> 0.81792973E+03</totfact>
</mgrwt>
</event>
<event>
 4    1  0.5121375E-004  0.1663972E+03  0.7818608E-02  0.1181658E+00
         -2   -1    0    0    0  501 -0.00000000000E+00  0.00000000000E+00  0.27903097208E+01  0.27903108860E+01  0.25500000000E-02 0. -1.
          2   -1    0    0  501    0  0.00000000000E+00 -0.00000000000E+00 -0.24807307982E+04  0.24807307982E+04  0.25500000000E-02 0.  1.
    5000001    1    1    2    0    0  0.31221467268E+02 -0.33728995090E+01 -0.12780397639E+04  0.12807422827E+04  0.77000000000E+02 0.  0.
   -5000001    1    1    2    0    0 -0.31221467268E+02  0.33728995090E+01 -0.11999007246E+04  0.12027788264E+04  0.77000000000E+02 0.  0.
<mgrwt>
<rscale>  0 0.16639722E+03</rscale>
<asrwt>0</asrwt>
<pdfrwt beam="1">  1        2 0.35438870E+00 0.16639722E+03</pdfrwt>
<pdfrwt beam="2">  1       -2 0.39861735E-03 0.16639722E+03</pdfrwt>
<totfact> 0.40263197E+04</totfact>
</mgrwt>
</event>
<event>
 4    1  0.5121375E-004  0.2112737E+03  0.7818608E-02  0.1140561E+00
          2   -1    0    0  501    0  0.00000000000E+00  0.00000000000E+00  0.44086018973E+02  0.44086019047E+02  0.25500000000E-02 0.  1.
         -2   -1    0    0    0  501 -0.00000000000E+00 -0.00000000000E+00 -0.25312201130E+03  0.25312201131E+03  0.25500000000E-02 0. -1.
    5000001    1    1    2    0    0 -0.53915449517E+02  0.20667742556E+02 -0.43262230826E+02  0.10552086000E+03  0.77000000000E+02 0.  0.
   -5000001    1    1    2    0    0  0.53915449517E+02 -0.20667742556E+02 -0.16577376150E+03  0.19168717036E+03  0.77000000000E+02 0.  0.
<mgrwt>
<rscale>  0 0.21127368E+03</rscale>
<asrwt>0</asrwt>
<pdfrwt beam="1">  1        2 0.62980029E-02 0.21127368E+03</pdfrwt>
<pdfrwt beam="2">  1       -2 0.36160286E-01 0.21127368E+03</pdfrwt>
<totfact> 0.81637740E+03</totfact>
</mgrwt>
</event>
<event>
 4    1  0.5121375E-004  0.5244281E+03  0.7818608E-02  0.1007592E+00
         -2   -1    0    0    0  501 -0.00000000000E+00  0.00000000000E+00  0.48463756412E+02  0.48463756479E+02  0.25500000000E-02 0. -1.
          2   -1    0    0  501    0  0.00000000000E+00 -0.00000000000E+00 -0.14187140628E+04  0.14187140628E+04  0.25500000000E-02 0.  1.
    5000001    1    1    2    0    0 -0.24921697198E+03  0.11436035671E+02 -0.75292647542E+03  0.79691101098E+03  0.77000000000E+02 0.  0.
   -5000001    1    1    2    0    0  0.24921697198E+03 -0.11436035671E+02 -0.61732383101E+03  0.67026680834E+03  0.77000000000E+02 0.  0.
<mgrwt>
<rscale>  0 0.52442812E+03</rscale>
<asrwt>0</asrwt>
<pdfrwt beam="1">  1        2 0.20267341E+00 0.52442812E+03</pdfrwt>
<pdfrwt beam="2">  1       -2 0.69233947E-02 0.52442812E+03</pdfrwt>
<totfact> 0.20266829E+03</totfact>
</mgrwt>
</event>
<event>
 4    1  0.5121375E-004  0.3083093E+03  0.7818608E-02  0.1081159E+00
         -2   -1    0    0    0  501 -0.00000000000E+00  0.00000000000E+00  0.11173808251E+03  0.11173808254E+03  0.25500000000E-02 0.  1.
          2   -1    0    0  501    0  0.00000000000E+00 -0.00000000000E+00 -0.21267289323E+03  0.21267289325E+03  0.25500000000E-02 0. -1.
    5000001    1    1    2    0    0  0.10485890662E+03 -0.81166066613E+02 -0.33785708763E+02  0.15701526927E+03  0.77000000000E+02 0.  0.
   -5000001    1    1    2    0    0 -0.10485890662E+03  0.81166066613E+02 -0.67149101963E+02  0.16739570652E+03  0.77000000000E+02 0.  0.
<mgrwt>
<rscale>  0 0.30830933E+03</rscale>
<asrwt>0</asrwt>
<pdfrwt beam="1">  1        2 0.30381842E-01 0.30830933E+03</pdfrwt>
<pdfrwt beam="2">  1       -2 0.15962583E-01 0.30830933E+03</pdfrwt>
<totfact> 0.53259019E+03</totfact>
</mgrwt>
</event>
<event>
 4    1  0.5121375E-004  0.2474748E+03  0.7818608E-02  0.1114911E+00
          2   -1    0    0  501    0  0.00000000000E+00  0.00000000000E+00  0.28539881913E+03  0.28539881914E+03  0.25500000000E-02 0.  1.
         -2   -1    0    0    0  501 -0.00000000000E+00 -0.00000000000E+00 -0.53647555022E+02  0.53647555082E+02  0.25500000000E-02 0. -1.
    5000001    1    1    2    0    0 -0.56258360453E+02 -0.75027971554E+02  0.82661409643E+02  0.14681998597E+03  0.77000000000E+02 0.  0.
   -5000001    1    1    2    0    0  0.56258360453E+02  0.75027971554E+02  0.14908985447E+03  0.19222638826E+03  0.77000000000E+02 0.  0.
<mgrwt>
<rscale>  0 0.24747484E+03</rscale>
<asrwt>0</asrwt>
<pdfrwt beam="1">  1        2 0.40771260E-01 0.24747484E+03</pdfrwt>
<pdfrwt beam="2">  1       -2 0.76639364E-02 0.24747484E+03</pdfrwt>
<totfact> 0.12457192E+04</totfact>
</mgrwt>
</event>
<event>
 4    1  0.5121375E-004  0.2692053E+03  0.7818608E-02  0.1101735E+00
         -2   -1    0    0    0  501 -0.00000000000E+00  0.00000000000E+00  0.78866297446E+01  0.78866301568E+01  0.25500000000E-02 0. -1.
          2   -1    0    0  501    0  0.00000000000E+00 -0.00000000000E+00 -0.22972889574E+04  0.22972889574E+04  0.25500000000E-02 0.  1.
    5000001    1    1    2    0    0 -0.68706618152E+02 -0.86037455199E+02 -0.10752282798E+04  0.10835902808E+04  0.77000000000E+02 0.  0.
   -5000001    1    1    2    0    0  0.68706618152E+02  0.86037455199E+02 -0.12141740479E+04  0.12215853067E+04  0.77000000000E+02 0.  0.
<mgrwt>
<rscale>  0 0.26920526E+03</rscale>
<asrwt>0</asrwt>
<pdfrwt beam="1">  1        2 0.32818371E+00 0.26920526E+03</pdfrwt>
<pdfrwt beam="2">  1       -2 0.11266629E-02 0.26920526E+03</pdfrwt>
<totfact> 0.11321406E+04</totfact>
</mgrwt>
</event>
<event>
 4    1  0.5121375E-004  0.2221776E+03  0.7818608E-02  0.1132270E+00
          2   -1    0    0  501    0  0.00000000000E+00  0.00000000000E+00  0.62771997646E+02  0.62771997698E+02  0.25500000000E-02 0.  1.
         -2   -1    0    0    0  501 -0.00000000000E+00 -0.00000000000E+00 -0.19659589209E+03  0.19659589211E+03  0.25500000000E-02 0. -1.
    5000001    1    1    2    0    0  0.30725061691E+02  0.43868550228E+02  0.25770695679E+01  0.93830274446E+02  0.77000000000E+02 0.  0.
   -5000001    1    1    2    0    0 -0.30725061691E+02 -0.43868550228E+02 -0.13640096401E+03  0.16553761536E+03  0.77000000000E+02 0.  0.
<mgrwt>
<rscale>  0 0.22217756E+03</rscale>
<asrwt>0</asrwt>
<pdfrwt beam="1">  1        2 0.89674283E-02 0.22217756E+03</pdfrwt>
<pdfrwt beam="2">  1       -2 0.28085127E-01 0.22217756E+03</pdfrwt>
<totfact> 0.82896219E+03</totfact>
</mgrwt>
</event>
<event>
 4    1  0.5121375E-004  0.2468775E+03  0.7818608E-02  0.1115294E+00
         -2   -1    0    0    0  501 -0.00000000000E+00  0.00000000000E+00  0.17031810764E+02  0.17031810955E+02  0.25500000000E-02 0. -1.
          2   -1    0    0  501    0  0.00000000000E+00 -0.00000000000E+00 -0.89462777259E+03  0.89462777260E+03  0.25500000000E-02 0.  1.
    5000001    1    1    2    0    0  0.75862295517E+02 -0.17749069477E+02 -0.64892913410E+03  0.65810951857E+03  0.77000000000E+02 0.  0.
   -5000001    1    1    2    0    0 -0.75862295517E+02  0.17749069477E+02 -0.22866682773E+03  0.25355006498E+03  0.77000000000E+02 0.  0.
<mgrwt>
<rscale>  0 0.24687755E+03</rscale>
<asrwt>0</asrwt>
<pdfrwt beam="1">  1        2 0.12780394E+00 0.24687755E+03</pdfrwt>
<pdfrwt beam="2">  1       -2 0.24331164E-02 0.24687755E+03</pdfrwt>
<totfact> 0.19356236E+04</totfact>
</mgrwt>
</event>
<event>
 4    1  0.5121375E-004  0.1822338E+03  0.7818608E-02  0.1165658E+00
         -2   -1    0    0    0  501 -0.00000000000E+00  0.00000000000E+00  0.70631305190E+01  0.70631309793E+01  0.25500000000E-02 0. -1.
          2   -1    0    0  501    0  0.00000000000E+00 -0.00000000000E+00 -0.11754408438E+04  0.11754408438E+04  0.25500000000E-02 0.  1.
    5000001    1    1    2    0    0  0.48003953519E+02  0.71812992110E+01 -0.55716668966E+03  0.56455262879E+03  0.77000000000E+02 0.  0.
   -5000001    1    1    2    0    0 -0.48003953519E+02 -0.71812992110E+01 -0.61121102358E+03  0.61795134595E+03  0.77000000000E+02 0.  0.
<mgrwt>
<rscale>  0 0.18223383E+03</rscale>
<asrwt>0</asrwt>
<pdfrwt beam="1">  1        2 0.16792000E+00 0.18223383E+03</pdfrwt>
<pdfrwt beam="2">  1       -2 0.10090194E-02 0.18223383E+03</pdfrwt>
<totfact> 0.47067283E+04</totfact>
</mgrwt>
</event>
<event>
 4    1  0.5121375E-004  0.1618548E+03  0.7818608E-02  0.1186618E+00
         -2   -1    0    0    0  501 -0.00000000000E+00  0.00000000000E+00  0.20256266371E+01  0.20256282422E+01  0.25500000000E-02 0. -1.
          2   -1    0    0  501    0  0.00000000000E+00 -0.00000000000E+00 -0.32331921167E+04  0.32331921167E+04  0.25500000000E-02 0.  1.
    5000001    1    1    2    0    0 -0.13990499543E+02 -0.19793044566E+02 -0.17299615681E+04  0.17318439669E+04  0.77000000000E+02 0.  0.
   -5000001    1    1    2    0    0  0.13990499543E+02  0.19793044566E+02 -0.15012049221E+04  0.15033737781E+04  0.77000000000E+02 0.  0.
<mgrwt>
<rscale>  0 0.16185478E+03</rscale>
<asrwt>0</asrwt>
<pdfrwt beam="1">  1        2 0.46188128E+00 0.16185478E+03</pdfrwt>
<pdfrwt beam="2">  1       -2 0.28937742E-03 0.16185478E+03</pdfrwt>
<totfact> 0.26076148E+04</totfact>
</mgrwt>
</event>
