<event>
 8    2  0.7085383E-010  0.2614802E+04  0.7818608E-02  0.8363191E-01
         -2   -1    0    0    0  501 -0.00000000000E+00  0.00000000000E+00  0.75144996758E+03  0.75144996758E+03  0.25500000000E-02 0. -1.
          2   -1    0    0  501    0  0.00000000000E+00 -0.00000000000E+00 -0.22746656536E+04  0.22746656536E+04  0.25500000000E-02 0.  1.
    -200001    2    1    2    0    0  0.67117869375E+03  0.50221476518E+03 -0.15930191909E+04  0.19317788181E+04  0.70096986400E+03 0.  0.
   -5000001    2    3    3    0    0  0.17938548303E+03  0.16194150809E+03 -0.35903430251E+03  0.47220177103E+03  0.18885094287E+03 0.  0.
     200001    1    1    2    0    0 -0.67117869375E+03 -0.50221476518E+03  0.69803504856E+02  0.10943368031E+04  0.70000000000E+03 0. -1.
         11    1    4    4    0    0  0.17687956649E+03  0.10359429345E+03 -0.35043700044E+03  0.40598552924E+03  0.51100000000E-03 0.  1.
    -200002    1    4    4    0    0  0.25059165483E+01  0.58347214641E+02 -0.85973020673E+01  0.66216241791E+02  0.30000000000E+02 0.  1.
    -200000    1    3    3    0    0  0.49179321071E+03  0.34027325709E+03 -0.12339848884E+04  0.14595770471E+04  0.50000000000E+03 0.  1.
<mgrwt>
<rscale>  0 0.26148020E+04</rscale>
<asrwt>0</asrwt>
<pdfrwt beam="1">  1        2 0.32495223E+00 0.26148020E+04</pdfrwt>
<pdfrwt beam="2">  1       -2 0.10735000E+00 0.26148020E+04</pdfrwt>
<totfact> 0.35840161E+00</totfact>
</mgrwt>
</event>
<event>
 8    2  0.7085383E-010  0.1570845E+04  0.7818608E-02  0.8838662E-01
          2   -1    0    0  501    0  0.00000000000E+00  0.00000000000E+00  0.36567825438E+03  0.36567825439E+03  0.25500000000E-02 0.  1.
         -2   -1    0    0    0  501 -0.00000000000E+00 -0.00000000000E+00 -0.16869709252E+04  0.16869709252E+04  0.25500000000E-02 0. -1.
    -200001    2    1    2    0    0  0.32415339650E+03 -0.44178089574E+02 -0.48250694462E+03  0.91221565564E+03  0.70163902594E+03 0.  0.
   -5000001    2    3    3    0    0  0.10665360935E+03 -0.13374996786E+03 -0.10903842791E+03  0.24527636923E+03  0.13786613888E+03 0.  0.
     200001    1    1    2    0    0 -0.32415339650E+03  0.44178089574E+02 -0.83878572620E+03  0.11404335239E+04  0.70000000000E+03 0. -1.
         11    1    4    4    0    0  0.12533380010E+03 -0.10994979997E+03 -0.53137245707E+02  0.17498881919E+03  0.51100000000E-03 0.  1.
    -200002    1    4    4    0    0 -0.18680190746E+02 -0.23800167894E+02 -0.55901182207E+02  0.70287550037E+02  0.30000000000E+02 0.  1.
    -200000    1    3    3    0    0  0.21749978715E+03  0.89571878289E+02 -0.37346851670E+03  0.66693928641E+03  0.50000000000E+03 0. -1.
<mgrwt>
<rscale>  0 0.15708451E+04</rscale>
<asrwt>0</asrwt>
<pdfrwt beam="1">  1        2 0.52239752E-01 0.15708451E+04</pdfrwt>
<pdfrwt beam="2">  1       -2 0.24099584E+00 0.15708451E+04</pdfrwt>
<totfact> 0.67266186E+00</totfact>
</mgrwt>
</event>
<event>
 8    2  0.7085383E-010  0.1573472E+04  0.7818608E-02  0.8837013E-01
         -2   -1    0    0    0  501 -0.00000000000E+00  0.00000000000E+00  0.12425915086E+04  0.12425915086E+04  0.25500000000E-02 0. -1.
          2   -1    0    0  501    0  0.00000000000E+00 -0.00000000000E+00 -0.49811497930E+03  0.49811497931E+03  0.25500000000E-02 0.  1.
    -200001    2    1    2    0    0  0.34826159934E+03 -0.80239719216E+02  0.34201069032E+03  0.85769838737E+03  0.70067871188E+03 0.  0.
   -5000001    2    3    3    0    0  0.28077466135E+02  0.99663353683E+01  0.27295624818E+02  0.17968615747E+03  0.17508395730E+03 0.  0.
     200001    1    1    2    0    0 -0.34826159934E+03  0.80239719216E+02  0.40246583903E+03  0.88300810059E+03  0.70000000000E+03 0.  1.
         11    1    4    4    0    0  0.72959184168E+02  0.22046437682E+02 -0.45109770887E+02  0.88566242997E+02  0.51100000000E-03 0.  1.
    -200002    1    4    4    0    0 -0.44881718033E+02 -0.12080102313E+02  0.72405395705E+02  0.91119914468E+02  0.30000000000E+02 0.  1.
    -200000    1    3    3    0    0  0.32018413321E+03 -0.90206054584E+02  0.31471506550E+03  0.67801222990E+03  0.50000000000E+03 0.  1.
<mgrwt>
<rscale>  0 0.15734719E+04</rscale>
<asrwt>0</asrwt>
<pdfrwt beam="1">  1        2 0.71159284E-01 0.15734719E+04</pdfrwt>
<pdfrwt beam="2">  1       -2 0.17751307E+00 0.15734719E+04</pdfrwt>
<totfact> 0.12240754E+01</totfact>
</mgrwt>
</event>
<event>
 8    2  0.7085383E-010  0.1710223E+04  0.7818608E-02  0.8755555E-01
         -2   -1    0    0    0  501 -0.00000000000E+00  0.00000000000E+00  0.62222953999E+03  0.62222953999E+03  0.25500000000E-02 0. -1.
          2   -1    0    0  501    0  0.00000000000E+00 -0.00000000000E+00 -0.11751542703E+04  0.11751542703E+04  0.25500000000E-02 0.  1.
    -200001    2    1    2    0    0  0.21255559357E+03  0.65324163903E+02  0.18568874696E+03  0.75575191969E+03  0.69802115056E+03 0.  0.
   -5000001    2    3    3    0    0  0.67577695867E+02  0.79966646596E+02  0.84542624739E+02  0.22522055289E+03  0.18059743215E+03 0.  0.
     200001    1    1    2    0    0 -0.21255559357E+03 -0.65324163903E+02 -0.73861347732E+03  0.10416318907E+04  0.70000000000E+03 0.  1.
         11    1    4    4    0    0  0.90624899527E+01  0.11754765475E+03  0.89859405637E+01  0.11823843279E+03  0.51100000000E-03 0.  1.
    -200002    1    4    4    0    0  0.58515205914E+02 -0.37581008154E+02  0.75556684175E+02  0.10698212010E+03  0.30000000000E+02 0.  1.
    -200000    1    3    3    0    0  0.14497789770E+03 -0.14642482693E+02  0.10114612222E+03  0.53053136680E+03  0.50000000000E+03 0. -1.
<mgrwt>
<rscale>  0 0.17102230E+04</rscale>
<asrwt>0</asrwt>
<pdfrwt beam="1">  1        2 0.16787918E+00 0.17102230E+04</pdfrwt>
<pdfrwt beam="2">  1       -2 0.88889934E-01 0.17102230E+04</pdfrwt>
<totfact> 0.22900665E+01</totfact>
</mgrwt>
</event>
<event>
 8    2  0.7085383E-010  0.1420141E+04  0.7818608E-02  0.8939367E-01
          2   -1    0    0  501    0  0.00000000000E+00  0.00000000000E+00  0.74335066718E+03  0.74335066718E+03  0.25500000000E-02 0.  1.
         -2   -1    0    0    0  501 -0.00000000000E+00 -0.00000000000E+00 -0.67827999173E+03  0.67827999173E+03  0.25500000000E-02 0. -1.
    -200001    2    1    2    0    0 -0.26247016830E+02 -0.11413269798E+03 -0.25406567682E+01  0.70868853581E+03  0.69894048904E+03 0.  0.
   -5000001    2    3    3    0    0  0.18255444250E+02  0.10220358635E+03  0.87488998244E+01  0.16196254315E+03  0.12400196704E+03 0.  0.
     200001    1    1    2    0    0  0.26247016830E+02  0.11413269798E+03  0.67611332218E+02  0.71294212310E+03  0.70000000000E+03 0.  1.
         11    1    4    4    0    0  0.89010362862E+01  0.12338850078E+03  0.93189250732E+01  0.12405963460E+03  0.51100000000E-03 0.  1.
    -200002    1    4    4    0    0  0.93544079635E+01 -0.21184914434E+02 -0.57002524879E+00  0.37902908552E+02  0.30000000000E+02 0.  1.
    -200000    1    3    3    0    0 -0.44502461080E+02 -0.21633628433E+03 -0.11289556593E+02  0.54672599266E+03  0.50000000000E+03 0.  1.
<mgrwt>
<rscale>  0 0.14201407E+04</rscale>
<asrwt>0</asrwt>
<pdfrwt beam="1">  1        2 0.10619295E+00 0.14201407E+04</pdfrwt>
<pdfrwt beam="2">  1       -2 0.96897142E-01 0.14201407E+04</pdfrwt>
<totfact> 0.36175592E+01</totfact>
</mgrwt>
</event>
<event>
 8    2  0.7085383E-010  0.1746826E+04  0.7818608E-02  0.8735099E-01
          2   -1    0    0  501    0  0.00000000000E+00  0.00000000000E+00  0.28706624923E+04  0.28706624923E+04  0.25500000000E-02 0.  1.
         -2   -1    0    0    0  501 -0.00000000000E+00 -0.00000000000E+00 -0.26574008997E+03  0.26574008998E+03  0.25500000000E-02 0. -1.
    -200001    2    1    2    0    0 -0.43308919833E+03  0.93130727653E+01  0.77625507198E+03  0.11309906066E+04  0.69922444783E+03 0.  0.
   -5000001    2    3    3    0    0 -0.20907059904E+03  0.48206729346E+02  0.29006937543E+03  0.39745561707E+03  0.16672228659E+03 0.  0.
     200001    1    1    2    0    0  0.43308919833E+03 -0.93130727653E+01  0.18286673303E+04  0.20054119756E+04  0.70000000000E+03 0.  1.
         11    1    4    4    0    0 -0.18428770018E+03 -0.18546304756E+02  0.24783431103E+03  0.30939904264E+03  0.51100000000E-03 0.  1.
    -200002    1    4    4    0    0 -0.24782898861E+02  0.66753034102E+02  0.42235064393E+02  0.88056574439E+02  0.30000000000E+02 0. -1.
    -200000    1    3    3    0    0 -0.22401859929E+03 -0.38893656581E+02  0.48618569656E+03  0.73353498955E+03  0.50000000000E+03 0. -1.
<mgrwt>
<rscale>  0 0.17468258E+04</rscale>
<asrwt>0</asrwt>
<pdfrwt beam="1">  1        2 0.41009466E+00 0.17468258E+04</pdfrwt>
<pdfrwt beam="2">  1       -2 0.37962868E-01 0.17468258E+04</pdfrwt>
<totfact> 0.17358389E+01</totfact>
</mgrwt>
</event>
<event>
 8    2  0.7085383E-010  0.1750426E+04  0.7818608E-02  0.8733116E-01
         -2   -1    0    0    0  501 -0.00000000000E+00  0.00000000000E+00  0.14926409688E+04  0.14926409688E+04  0.25500000000E-02 0. -1.
          2   -1    0    0  501    0  0.00000000000E+00 -0.00000000000E+00 -0.51318265370E+03  0.51318265370E+03  0.25500000000E-02 0.  1.
    -200001    2    1    2    0    0 -0.24445610748E+03  0.46282537785E+03  0.54306701955E+03  0.10288878612E+04  0.69980163212E+03 0.  0.
   -5000001    2    3    3    0    0  0.15093741457E+02  0.85202929096E+02  0.15811572521E+03  0.24904663575E+03  0.17186123490E+03 0.  0.
     200001    1    1    2    0    0  0.24445610748E+03 -0.46282537785E+03  0.43639129554E+03  0.97693576129E+03  0.70000000000E+03 0.  1.
         11    1    4    4    0    0 -0.69071128102E+02  0.35269746829E+02  0.25742935615E+02  0.81715815562E+02  0.51100000000E-03 0.  1.
    -200002    1    4    4    0    0  0.84164869559E+02  0.49933182267E+02  0.13237278960E+03  0.16733082019E+03  0.30000000000E+02 0.  1.
    -200000    1    3    3    0    0 -0.25954984894E+03  0.37762244876E+03  0.38495129433E+03  0.77984122544E+03  0.50000000000E+03 0.  1.
<mgrwt>
<rscale>  0 0.17504256E+04</rscale>
<asrwt>0</asrwt>
<pdfrwt beam="1">  1        2 0.73311807E-01 0.17504256E+04</pdfrwt>
<pdfrwt beam="2">  1       -2 0.21323443E+00 0.17504256E+04</pdfrwt>
<totfact> 0.67543573E+00</totfact>
</mgrwt>
</event>
<event>
 8    2  0.7085383E-010  0.1663106E+04  0.7818608E-02  0.8782691E-01
         -2   -1    0    0    0  501 -0.00000000000E+00  0.00000000000E+00  0.58336611168E+03  0.58336611168E+03  0.25500000000E-02 0. -1.
          2   -1    0    0  501    0  0.00000000000E+00 -0.00000000000E+00 -0.11853287212E+04  0.11853287212E+04  0.25500000000E-02 0.  1.
    -200001    2    1    2    0    0  0.28540998202E+03 -0.32285533492E+03 -0.43313337692E+03  0.92952992960E+03  0.70051905234E+03 0.  0.
   -5000001    2    3    3    0    0  0.14120161632E+03 -0.23320435554E+03 -0.16236813390E+03  0.33611003806E+03  0.11083491727E+03 0.  0.
     200001    1    1    2    0    0 -0.28540998202E+03  0.32285533492E+03 -0.16882923260E+03  0.83916490328E+03  0.70000000000E+03 0. -1.
         11    1    4    4    0    0  0.53516470921E+02 -0.11146778265E+03 -0.13060008587E+03  0.17984844080E+03  0.51100000000E-03 0.  1.
    -200002    1    4    4    0    0  0.87685145404E+02 -0.12173657289E+03 -0.31768048026E+02  0.15626159726E+03  0.30000000000E+02 0.  1.
    -200000    1    3    3    0    0  0.14420836570E+03 -0.89650979379E+02 -0.27076524303E+03  0.59341989154E+03  0.50000000000E+03 0.  1.
<mgrwt>
<rscale>  0 0.16631063E+04</rscale>
<asrwt>0</asrwt>
<pdfrwt beam="1">  1        2 0.16933267E+00 0.16631063E+04</pdfrwt>
<pdfrwt beam="2">  1       -2 0.83338016E-01 0.16631063E+04</pdfrwt>
<totfact> 0.26273684E+01</totfact>
</mgrwt>
</event>
<event>
 8    2  0.7085383E-010  0.1482718E+04  0.7818608E-02  0.8896027E-01
          2   -1    0    0  501    0  0.00000000000E+00  0.00000000000E+00  0.23032980343E+04  0.23032980343E+04  0.25500000000E-02 0.  1.
         -2   -1    0    0    0  501 -0.00000000000E+00 -0.00000000000E+00 -0.23862015226E+03  0.23862015228E+03  0.25500000000E-02 0. -1.
    -200001    2    1    2    0    0  0.12395040543E+03  0.12956554071E+03  0.74836313376E+03  0.10403072353E+04  0.70002916481E+03 0.  0.
   -5000001    2    3    3    0    0  0.90827531667E+02  0.15470613096E+03  0.23021781893E+03  0.31905572490E+03  0.12889020122E+03 0.  0.
     200001    1    1    2    0    0 -0.12395040543E+03 -0.12956554071E+03  0.13163147483E+04  0.15016109513E+04  0.70000000000E+03 0.  1.
         11    1    4    4    0    0  0.19866883563E+02 -0.14063120473E+02  0.12655122572E+01  0.24373467982E+02  0.51100000000E-03 0.  1.
    -200002    1    4    4    0    0  0.70960648105E+02  0.16876925143E+03  0.22895230667E+03  0.29468225691E+03  0.30000000000E+02 0.  1.
    -200000    1    3    3    0    0  0.33122873767E+02 -0.25140590247E+02  0.51814531483E+03  0.72125151045E+03  0.50000000000E+03 0. -1.
<mgrwt>
<rscale>  0 0.14827182E+04</rscale>
<asrwt>0</asrwt>
<pdfrwt beam="1">  1        2 0.32904256E+00 0.14827182E+04</pdfrwt>
<pdfrwt beam="2">  1       -2 0.34088595E-01 0.14827182E+04</pdfrwt>
<totfact> 0.43663311E+01</totfact>
</mgrwt>
</event>
<event>
 8    2  0.7085383E-010  0.1936306E+04  0.7818608E-02  0.8636993E-01
         -2   -1    0    0    0  501 -0.00000000000E+00  0.00000000000E+00  0.22509624042E+03  0.22509624044E+03  0.25500000000E-02 0. -1.
          2   -1    0    0  501    0  0.00000000000E+00 -0.00000000000E+00 -0.41640855918E+04  0.41640855918E+04  0.25500000000E-02 0.  1.
    -200001    2    1    2    0    0  0.49746802830E+03 -0.39865076982E+03 -0.24269606158E+04  0.26051897435E+04  0.70034198326E+03 0.  0.
   -5000001    2    3    3    0    0  0.12672093068E+03 -0.12882689316E+03 -0.45219290683E+03  0.51713662176E+03  0.17406119011E+03 0.  0.
     200001    1    1    2    0    0 -0.49746802830E+03  0.39865076982E+03 -0.15120287355E+04  0.17839920887E+04  0.70000000000E+03 0. -1.
         11    1    4    4    0    0  0.89458860397E+02 -0.35341283022E+02 -0.65333044154E+02  0.11627682765E+03  0.51100000000E-03 0.  1.
    -200002    1    4    4    0    0  0.37262070284E+02 -0.93485610137E+02 -0.38685986267E+03  0.40085979411E+03  0.30000000000E+02 0.  1.
    -200000    1    3    3    0    0  0.37074709762E+03 -0.26982387667E+03 -0.19747677090E+04  0.20880531218E+04  0.50000000000E+03 0.  1.
<mgrwt>
<rscale>  0 0.19363058E+04</rscale>
<asrwt>0</asrwt>
<pdfrwt beam="1">  1        2 0.59486932E+00 0.19363058E+04</pdfrwt>
<pdfrwt beam="2">  1       -2 0.32156608E-01 0.19363058E+04</pdfrwt>
<totfact> 0.37145600E+00</totfact>
</mgrwt>
</event>
<event>
 8    2  0.7085383E-010  0.1654866E+04  0.7818608E-02  0.8787533E-01
         -2   -1    0    0    0  501 -0.00000000000E+00  0.00000000000E+00  0.25263975656E+03  0.25263975657E+03  0.25500000000E-02 0. -1.
          2   -1    0    0  501    0  0.00000000000E+00 -0.00000000000E+00 -0.27099679312E+04  0.27099679312E+04  0.25500000000E-02 0.  1.
    -200001    2    1    2    0    0 -0.17117534895E+03  0.18818757786E+03 -0.58311132188E+03  0.94582699178E+03  0.69989593521E+03 0.  0.
   -5000001    2    3    3    0    0 -0.36878608247E+02  0.15848415190E+03 -0.19223538485E+03  0.29644120026E+03  0.15635115565E+03 0.  0.
     200001    1    1    2    0    0  0.17117534895E+03 -0.18818757786E+03 -0.18742168528E+04  0.20167806960E+04  0.70000000000E+03 0.  1.
         11    1    4    4    0    0 -0.83310412490E+02  0.45483805825E+02 -0.52681621444E+02  0.10855760987E+03  0.51100000000E-03 0.  1.
    -200002    1    4    4    0    0  0.46431804243E+02  0.11300034608E+03 -0.13955376340E+03  0.18788359039E+03  0.30000000000E+02 0.  1.
    -200000    1    3    3    0    0 -0.13429674070E+03  0.29703425956E+02 -0.39087593704E+03  0.64938579152E+03  0.50000000000E+03 0. -1.
<mgrwt>
<rscale>  0 0.16548663E+04</rscale>
<asrwt>0</asrwt>
<pdfrwt beam="1">  1        2 0.38713826E+00 0.16548663E+04</pdfrwt>
<pdfrwt beam="2">  1       -2 0.36091396E-01 0.16548663E+04</pdfrwt>
<totfact> 0.23574838E+01</totfact>
</mgrwt>
</event>
<event>
 8    2  0.7085383E-010  0.1467212E+04  0.7818608E-02  0.8906554E-01
          2   -1    0    0  501    0  0.00000000000E+00  0.00000000000E+00  0.17589447035E+04  0.17589447035E+04  0.25500000000E-02 0.  1.
         -2   -1    0    0    0  501 -0.00000000000E+00 -0.00000000000E+00 -0.30596614855E+03  0.30596614857E+03  0.25500000000E-02 0. -1.
    -200001    2    1    2    0    0  0.15256275627E+03 -0.12689541520E+03  0.62374422446E+03  0.96173026129E+03  0.70462074688E+03 0.  0.
   -5000001    2    3    3    0    0  0.10619983741E+03 -0.27377537992E+02  0.17594358150E+03  0.28159884460E+03  0.19056188065E+03 0.  0.
     200001    1    1    2    0    0 -0.15256275627E+03  0.12689541520E+03  0.82923433045E+03  0.11031805907E+04  0.70000000000E+03 0.  1.
         11    1    4    4    0    0 -0.53249480215E+02 -0.36779726134E+01  0.62610682104E+02  0.82274735730E+02  0.51100000000E-03 0.  1.
    -200002    1    4    4    0    0  0.15944931763E+03 -0.23699565378E+02  0.11333289940E+03  0.19932410887E+03  0.30000000000E+02 0.  1.
    -200000    1    3    3    0    0  0.46362918859E+02 -0.99517877208E+02  0.44780064296E+03  0.68013141669E+03  0.50000000000E+03 0. -1.
<mgrwt>
<rscale>  0 0.14672117E+04</rscale>
<asrwt>0</asrwt>
<pdfrwt beam="1">  1        2 0.25127782E+00 0.14672117E+04</pdfrwt>
<pdfrwt beam="2">  1       -2 0.43709449E-01 0.14672117E+04</pdfrwt>
<totfact> 0.51436841E+01</totfact>
</mgrwt>
</event>
<event>
 8    2  0.7085383E-010  0.2140574E+04  0.7818608E-02  0.8543578E-01
          2   -1    0    0  501    0  0.00000000000E+00  0.00000000000E+00  0.10604373465E+04  0.10604373465E+04  0.25500000000E-02 0.  1.
         -2   -1    0    0    0  501 -0.00000000000E+00 -0.00000000000E+00 -0.10802280365E+04  0.10802280365E+04  0.25500000000E-02 0. -1.
    -200001    2    1    2    0    0  0.66624451422E+03  0.17589749822E+03  0.41539731330E+03  0.10663235934E+04  0.69976381398E+03 0.  0.
   -5000001    2    3    3    0    0  0.17216582251E+03 -0.19622528111E+02  0.13481461981E+03  0.28461489946E+03  0.18112025076E+03 0.  0.
     200001    1    1    2    0    0 -0.66624451422E+03 -0.17589749822E+03 -0.43518800333E+03  0.10743417896E+04  0.70000000000E+03 0.  1.
         11    1    4    4    0    0  0.10555444009E+03 -0.95525955703E+02  0.98771567301E+02  0.17327080119E+03  0.51100000000E-03 0.  1.
    -200002    1    4    4    0    0  0.66611382414E+02  0.75903427592E+02  0.36043052506E+02  0.11134409828E+03  0.30000000000E+02 0.  1.
    -200000    1    3    3    0    0  0.49407869171E+03  0.19552002633E+03  0.28058269349E+03  0.78170869394E+03  0.50000000000E+03 0. -1.
<mgrwt>
<rscale>  0 0.21405739E+04</rscale>
<asrwt>0</asrwt>
<pdfrwt beam="1">  1        2 0.15149105E+00 0.21405739E+04</pdfrwt>
<pdfrwt beam="2">  1       -2 0.15431829E+00 0.21405739E+04</pdfrwt>
<totfact> 0.66107698E+00</totfact>
</mgrwt>
</event>
<event>
 8    2  0.7085383E-010  0.1752641E+04  0.7818608E-02  0.8731898E-01
          2   -1    0    0  501    0  0.00000000000E+00  0.00000000000E+00  0.24312126152E+04  0.24312126152E+04  0.25500000000E-02 0.  1.
         -2   -1    0    0    0  501 -0.00000000000E+00 -0.00000000000E+00 -0.31586602185E+03  0.31586602186E+03  0.25500000000E-02 0. -1.
    -200001    2    1    2    0    0  0.36532031166E+03  0.25040757333E+03  0.15070850664E+04  0.17193894973E+04  0.69916519010E+03 0.  0.
   -5000001    2    3    3    0    0  0.16838293192E+03 -0.14558140006E+02  0.31190722204E+03  0.38243727657E+03  0.14285448591E+03 0.  0.
     200001    1    1    2    0    0 -0.36532031166E+03 -0.25040757333E+03  0.60826152696E+03  0.10276891398E+04  0.70000000000E+03 0. -1.
         11    1    4    4    0    0  0.32725424491E+02 -0.62642716758E+02  0.70784424520E+02  0.10002748685E+03  0.51100000000E-03 0.  1.
    -200002    1    4    4    0    0  0.13565750743E+03  0.48084576753E+02  0.24112279752E+03  0.28240978972E+03  0.30000000000E+02 0.  1.
    -200000    1    3    3    0    0  0.19693737974E+03  0.26496571334E+03  0.11951778444E+04  0.13369522207E+04  0.50000000000E+03 0.  1.
<mgrwt>
<rscale>  0 0.17526408E+04</rscale>
<asrwt>0</asrwt>
<pdfrwt beam="1">  1        2 0.34731608E+00 0.17526408E+04</pdfrwt>
<pdfrwt beam="2">  1       -2 0.45123719E-01 0.17526408E+04</pdfrwt>
<totfact> 0.21211975E+01</totfact>
</mgrwt>
</event>
<event>
 8    2  0.7085383E-010  0.1554662E+04  0.7818608E-02  0.8848896E-01
          2   -1    0    0  501    0  0.00000000000E+00  0.00000000000E+00  0.10481573898E+04  0.10481573898E+04  0.25500000000E-02 0.  1.
         -2   -1    0    0    0  501 -0.00000000000E+00 -0.00000000000E+00 -0.57648135172E+03  0.57648135173E+03  0.25500000000E-02 0. -1.
    -200001    2    1    2    0    0  0.32482564770E+03 -0.44899375699E+02  0.33333563950E+03  0.83935807756E+03  0.69705213468E+03 0.  0.
   -5000001    2    3    3    0    0  0.43272985015E+02  0.91378443211E+01  0.17116665949E+03  0.24061714770E+03  0.16322541167E+03 0.  0.
     200001    1    1    2    0    0 -0.32482564770E+03  0.44899375699E+02  0.13834039859E+03  0.78528066398E+03  0.70000000000E+03 0.  1.
         11    1    4    4    0    0 -0.24520774052E+02 -0.18302315530E+02  0.15743766187E+03  0.16038347948E+03  0.51100000000E-03 0.  1.
    -200002    1    4    4    0    0  0.67793759067E+02  0.27440159851E+02  0.13728997622E+02  0.80233668224E+02  0.30000000000E+02 0.  1.
    -200000    1    3    3    0    0  0.28155266269E+03 -0.54037220020E+02  0.16216898001E+03  0.59874092986E+03  0.50000000000E+03 0. -1.
<mgrwt>
<rscale>  0 0.15546616E+04</rscale>
<asrwt>0</asrwt>
<pdfrwt beam="1">  1        2 0.14973677E+00 0.15546616E+04</pdfrwt>
<pdfrwt beam="2">  1       -2 0.82354478E-01 0.15546616E+04</pdfrwt>
<totfact> 0.32765424E+01</totfact>
</mgrwt>
</event>
<event>
 8    2  0.7085383E-010  0.1605379E+04  0.7818608E-02  0.8817250E-01
         -2   -1    0    0    0  501 -0.00000000000E+00  0.00000000000E+00  0.52734807466E+03  0.52734807467E+03  0.25500000000E-02 0. -1.
          2   -1    0    0  501    0  0.00000000000E+00 -0.00000000000E+00 -0.12217930168E+04  0.12217930168E+04  0.25500000000E-02 0.  1.
    -200001    2    1    2    0    0  0.16774269473E+03 -0.77810249037E+02 -0.71513946750E+03  0.10248343127E+04  0.71040049546E+03 0.  0.
   -5000001    2    3    3    0    0  0.67184405698E+02 -0.10224944423E+03 -0.57480256342E+02  0.19223303848E+03  0.13667797189E+03 0.  0.
     200001    1    1    2    0    0 -0.16774269473E+03  0.77810249037E+02  0.20694525333E+02  0.72430677884E+03  0.70000000000E+03 0. -1.
         11    1    4    4    0    0 -0.22743683883E+02  0.16197257164E+02 -0.24117395825E+02  0.36895461480E+02  0.51100000000E-03 0.  1.
    -200002    1    4    4    0    0  0.89928089581E+02 -0.11844670139E+03 -0.33362860517E+02  0.15533757700E+03  0.30000000000E+02 0.  1.
    -200000    1    3    3    0    0  0.10055828903E+03  0.24439195189E+02 -0.65765921116E+03  0.83260127419E+03  0.50000000000E+03 0.  1.
<mgrwt>
<rscale>  0 0.16053787E+04</rscale>
<asrwt>0</asrwt>
<pdfrwt beam="1">  1        2 0.17454186E+00 0.16053787E+04</pdfrwt>
<pdfrwt beam="2">  1       -2 0.75335440E-01 0.16053787E+04</pdfrwt>
<totfact> 0.31549063E+01</totfact>
</mgrwt>
</event>
<event>
 8    2  0.7085383E-010  0.1801093E+04  0.7818608E-02  0.8705718E-01
         -2   -1    0    0    0  501 -0.00000000000E+00  0.00000000000E+00  0.27152081758E+03  0.27152081759E+03  0.25500000000E-02 0. -1.
          2   -1    0    0  501    0  0.00000000000E+00 -0.00000000000E+00 -0.29868219302E+04  0.29868219302E+04  0.25500000000E-02 0.  1.
    -200001    2    1    2    0    0 -0.49738154340E+03 -0.20976188916E+02 -0.18393080054E+04  0.20314799502E+04  0.70429287170E+03 0.  0.
   -5000001    2    3    3    0    0 -0.20727091728E+03  0.28239251265E+02 -0.72923480042E+03  0.77894298255E+03  0.17666376948E+03 0.  0.
     200001    1    1    2    0    0  0.49738154340E+03  0.20976188916E+02 -0.87599310721E+03  0.12268627976E+04  0.70000000000E+03 0. -1.
         11    1    4    4    0    0 -0.14957567566E+03  0.90877909689E+02 -0.38241083271E+03  0.42055882132E+03  0.51100000000E-03 0.  1.
    -200002    1    4    4    0    0 -0.57695241616E+02 -0.62638658424E+02 -0.34682396771E+03  0.35838416122E+03  0.30000000000E+02 0. -1.
    -200000    1    3    3    0    0 -0.29011062612E+03 -0.49215440181E+02 -0.11100732050E+04  0.12525369677E+04  0.50000000000E+03 0.  1.
<mgrwt>
<rscale>  0 0.18010934E+04</rscale>
<asrwt>0</asrwt>
<pdfrwt beam="1">  1        2 0.42668883E+00 0.18010934E+04</pdfrwt>
<pdfrwt beam="2">  1       -2 0.38788690E-01 0.18010934E+04</pdfrwt>
<totfact> 0.14292935E+01</totfact>
</mgrwt>
</event>
<event>
 8    2  0.7085383E-010  0.1632570E+04  0.7818608E-02  0.8800785E-01
          2   -1    0    0  501    0  0.00000000000E+00  0.00000000000E+00  0.24510126945E+04  0.24510126945E+04  0.25500000000E-02 0.  1.
         -2   -1    0    0    0  501 -0.00000000000E+00 -0.00000000000E+00 -0.27185559747E+03  0.27185559748E+03  0.25500000000E-02 0. -1.
    -200001    2    1    2    0    0  0.30102261232E+03  0.28155401477E+03  0.12214410066E+04  0.14670389301E+04  0.70028409478E+03 0.  0.
   -5000001    2    3    3    0    0  0.72971204272E+02  0.12620832195E+03  0.20283557991E+03  0.29926466068E+03  0.16481422108E+03 0.  0.
     200001    1    1    2    0    0 -0.30102261232E+03 -0.28155401477E+03  0.95771609044E+03  0.12558293619E+04  0.70000000000E+03 0.  1.
         11    1    4    4    0    0  0.71050951683E+02  0.15979018536E+03  0.16472795890E+03  0.24024246402E+03  0.51100000000E-03 0.  1.
    -200002    1    4    4    0    0  0.19202525891E+01 -0.33581863409E+02  0.38107621004E+02  0.59022196660E+02  0.30000000000E+02 0.  1.
    -200000    1    3    3    0    0  0.22805140805E+03  0.15534569282E+03  0.10186054267E+04  0.11677742694E+04  0.50000000000E+03 0.  1.
<mgrwt>
<rscale>  0 0.16325704E+04</rscale>
<asrwt>0</asrwt>
<pdfrwt beam="1">  1        2 0.35014468E+00 0.16325704E+04</pdfrwt>
<pdfrwt beam="2">  1       -2 0.38836513E-01 0.16325704E+04</pdfrwt>
<totfact> 0.28118228E+01</totfact>
</mgrwt>
</event>
<event>
 8    2  0.7085383E-010  0.1923108E+04  0.7818608E-02  0.8643439E-01
          2   -1    0    0  501    0  0.00000000000E+00  0.00000000000E+00  0.17701287164E+04  0.17701287164E+04  0.25500000000E-02 0.  1.
         -2   -1    0    0    0  501 -0.00000000000E+00 -0.00000000000E+00 -0.52232677676E+03  0.52232677677E+03  0.25500000000E-02 0. -1.
    -200001    2    1    2    0    0 -0.33759062612E+03 -0.55444140932E+03  0.48781965428E+03  0.10722318328E+04  0.70024308707E+03 0.  0.
   -5000001    2    3    3    0    0  0.24296324782E+02  0.72604274373E+01 -0.45479271446E+01  0.10326488091E+03  0.99999633919E+02 0.  0.
     200001    1    1    2    0    0  0.33759062612E+03  0.55444140932E+03  0.75998228534E+03  0.12202236603E+04  0.70000000000E+03 0. -1.
         11    1    4    4    0    0 -0.25792846699E+01  0.34639274581E+02 -0.32111162183E+02  0.47303898253E+02  0.51100000000E-03 0.  1.
    -200002    1    4    4    0    0  0.26875609452E+02 -0.27378847144E+02  0.27563235039E+02  0.55960982659E+02  0.30000000000E+02 0.  1.
    -200000    1    3    3    0    0 -0.36188695090E+03 -0.56170183676E+03  0.49236758142E+03  0.96896695190E+03  0.50000000000E+03 0.  1.
<mgrwt>
<rscale>  0 0.19231075E+04</rscale>
<asrwt>0</asrwt>
<pdfrwt beam="1">  1        2 0.25287553E+00 0.19231075E+04</pdfrwt>
<pdfrwt beam="2">  1       -2 0.74618110E-01 0.19231075E+04</pdfrwt>
<totfact> 0.15978409E+01</totfact>
</mgrwt>
</event>
<event>
 8    2  0.7085383E-010  0.1684881E+04  0.7818608E-02  0.8770035E-01
          2   -1    0    0  501    0  0.00000000000E+00  0.00000000000E+00  0.18954210268E+04  0.18954210268E+04  0.25500000000E-02 0.  1.
         -2   -1    0    0    0  501 -0.00000000000E+00 -0.00000000000E+00 -0.37443175172E+03  0.37443175173E+03  0.25500000000E-02 0. -1.
    -200001    2    1    2    0    0  0.24913867040E+03 -0.38194779781E+03  0.90030564442E+03  0.12290826950E+04  0.70152677815E+03 0.  0.
   -5000001    2    3    3    0    0  0.15918366659E+03 -0.12156375757E+03  0.39972443463E+03  0.46982430769E+03  0.14435397325E+03 0.  0.
     200001    1    1    2    0    0 -0.24913867040E+03  0.38194779781E+03  0.62068363062E+03  0.10407700835E+04  0.70000000000E+03 0. -1.
         11    1    4    4    0    0  0.16169406982E+02 -0.92565659775E+02  0.19683115786E+03  0.21811087960E+03  0.51100000000E-03 0.  1.
    -200002    1    4    4    0    0  0.14301425961E+03 -0.28998097797E+02  0.20289327676E+03  0.25171342809E+03  0.30000000000E+02 0.  1.
    -200000    1    3    3    0    0  0.89955003815E+02 -0.26038404024E+03  0.50058120979E+03  0.75925838733E+03  0.50000000000E+03 0. -1.
<mgrwt>
<rscale>  0 0.16848808E+04</rscale>
<asrwt>0</asrwt>
<pdfrwt beam="1">  1        2 0.27077443E+00 0.16848808E+04</pdfrwt>
<pdfrwt beam="2">  1       -2 0.53490251E-01 0.16848808E+04</pdfrwt>
<totfact> 0.28569908E+01</totfact>
</mgrwt>
</event>
<event>
 8    2  0.7085383E-010  0.2166067E+04  0.7818608E-02  0.8532686E-01
          2   -1    0    0  501    0  0.00000000000E+00  0.00000000000E+00  0.19558412011E+04  0.19558412011E+04  0.25500000000E-02 0.  1.
         -2   -1    0    0    0  501 -0.00000000000E+00 -0.00000000000E+00 -0.59972227260E+03  0.59972227260E+03  0.25500000000E-02 0. -1.
    -200001    2    1    2    0    0 -0.21089751693E+03 -0.77686484247E+03  0.46432616545E+03  0.11651350943E+04  0.70281167741E+03 0.  0.
   -5000001    2    3    3    0    0 -0.17062821814E+02 -0.23668354791E+03  0.12290836553E+03  0.33090860578E+03  0.19515070414E+03 0.  0.
     200001    1    1    2    0    0  0.21089751693E+03  0.77686484247E+03  0.89179276309E+03  0.13904283795E+04  0.70000000000E+03 0.  1.
         11    1    4    4    0    0 -0.79661988888E+02 -0.22110624944E+03  0.10581093212E+03  0.25774010043E+03  0.51100000000E-03 0.  1.
    -200002    1    4    4    0    0  0.62599167074E+02 -0.15577298472E+02  0.17097433406E+02  0.73168505350E+02  0.30000000000E+02 0.  1.
    -200000    1    3    3    0    0 -0.19383469511E+03 -0.54018129455E+03  0.34141779992E+03  0.83422648850E+03  0.50000000000E+03 0. -1.
<mgrwt>
<rscale>  0 0.21660670E+04</rscale>
<asrwt>0</asrwt>
<pdfrwt beam="1">  1        2 0.27940588E+00 0.21660670E+04</pdfrwt>
<pdfrwt beam="2">  1       -2 0.85674611E-01 0.21660670E+04</pdfrwt>
<totfact> 0.92123873E+00</totfact>
</mgrwt>
</event>
<event>
 8    2  0.7085383E-010  0.1890685E+04  0.7818608E-02  0.8659507E-01
          2   -1    0    0  501    0  0.00000000000E+00  0.00000000000E+00  0.98734467241E+03  0.98734467241E+03  0.25500000000E-02 0.  1.
         -2   -1    0    0    0  501 -0.00000000000E+00 -0.00000000000E+00 -0.90512716768E+03  0.90512716768E+03  0.25500000000E-02 0. -1.
    -200001    2    1    2    0    0  0.47636313033E+03 -0.38767985020E+03 -0.12131740495E+03  0.93924366298E+03  0.70017372666E+03 0.  0.
   -5000001    2    3    3    0    0  0.81083707849E+01 -0.18322304322E+03  0.15634676873E+02  0.21135563692E+03  0.10387652715E+03 0.  0.
     200001    1    1    2    0    0 -0.47636313033E+03  0.38767985020E+03  0.20353490968E+03  0.95322817712E+03  0.70000000000E+03 0. -1.
         11    1    4    4    0    0 -0.26862693697E+02 -0.15029918643E+03  0.28079704075E+00  0.15268113375E+03  0.51100000000E-03 0.  1.
    -200002    1    4    4    0    0  0.34971064482E+02 -0.32923856790E+02  0.15353879832E+02  0.58674503175E+02  0.30000000000E+02 0.  1.
    -200000    1    3    3    0    0  0.46825475955E+03 -0.20445680698E+03 -0.13695208182E+03  0.72788802606E+03  0.50000000000E+03 0.  1.
<mgrwt>
<rscale>  0 0.18906850E+04</rscale>
<asrwt>0</asrwt>
<pdfrwt beam="1">  1        2 0.14104924E+00 0.18906850E+04</pdfrwt>
<pdfrwt beam="2">  1       -2 0.12930388E+00 0.18906850E+04</pdfrwt>
<totfact> 0.11841713E+01</totfact>
</mgrwt>
</event>
<event>
 8    2  0.7085383E-010  0.1565458E+04  0.7818608E-02  0.8842054E-01
          2   -1    0    0  501    0  0.00000000000E+00  0.00000000000E+00  0.10991338470E+04  0.10991338470E+04  0.25500000000E-02 0.  1.
         -2   -1    0    0    0  501 -0.00000000000E+00 -0.00000000000E+00 -0.55740711656E+03  0.55740711657E+03  0.25500000000E-02 0. -1.
    -200001    2    1    2    0    0 -0.29552633636E+03  0.48953653596E+02  0.78731063005E+02  0.76541961170E+03  0.69995451710E+03 0.  0.
   -5000001    2    3    3    0    0 -0.10292340281E+02 -0.11198972759E+03 -0.24081121252E+02  0.15892843312E+03  0.10968461651E+03 0.  0.
     200001    1    1    2    0    0  0.29552633636E+03 -0.48953653596E+02  0.46299566741E+03  0.89112135185E+03  0.70000000000E+03 0.  1.
         11    1    4    4    0    0  0.86932772457E+01 -0.80886960288E+02 -0.58763289187E+02  0.10035635291E+03  0.51100000000E-03 0.  1.
    -200002    1    4    4    0    0 -0.18985617527E+02 -0.31102767299E+02  0.34682167936E+02  0.58572080202E+02  0.30000000000E+02 0.  1.
    -200000    1    3    3    0    0 -0.28523399608E+03  0.16094338118E+03  0.10281218426E+03  0.60649117858E+03  0.50000000000E+03 0.  1.
<mgrwt>
<rscale>  0 0.15654584E+04</rscale>
<asrwt>0</asrwt>
<pdfrwt beam="1">  1        2 0.15701912E+00 0.15654584E+04</pdfrwt>
<pdfrwt beam="2">  1       -2 0.79629588E-01 0.15654584E+04</pdfrwt>
<totfact> 0.32924513E+01</totfact>
</mgrwt>
</event>
<event>
 8    2  0.7085383E-010  0.2825439E+04  0.7818608E-02  0.8295414E-01
         -2   -1    0    0    0  501 -0.00000000000E+00  0.00000000000E+00  0.10942229435E+04  0.10942229435E+04  0.25500000000E-02 0. -1.
          2   -1    0    0  501    0  0.00000000000E+00 -0.00000000000E+00 -0.18239215559E+04  0.18239215559E+04  0.25500000000E-02 0.  1.
    -200001    2    1    2    0    0 -0.19393310780E+03 -0.82111799928E+03  0.55539080260E+03  0.12289732163E+04  0.70005100076E+03 0.  0.
   -5000001    2    3    3    0    0 -0.11366577151E+03 -0.23831620258E+03  0.95281845522E+02  0.33019569548E+03  0.17388515520E+03 0.  0.
     200001    1    1    2    0    0  0.19393310780E+03  0.82111799928E+03 -0.12850894150E+04  0.16891712831E+04  0.70000000000E+03 0.  1.
         11    1    4    4    0    0 -0.11534655186E+03 -0.11247790597E+03  0.11686557783E+03  0.19903183072E+03  0.51100000000E-03 0.  1.
    -200002    1    4    4    0    0  0.16807803527E+01 -0.12583829662E+03 -0.21583732310E+02  0.13116386476E+03  0.30000000000E+02 0.  1.
    -200000    1    3    3    0    0 -0.80267336294E+02 -0.58280179670E+03  0.46010895708E+03  0.89877752080E+03  0.50000000000E+03 0. -1.
<mgrwt>
<rscale>  0 0.28254393E+04</rscale>
<asrwt>0</asrwt>
<pdfrwt beam="1">  1        2 0.26056022E+00 0.28254393E+04</pdfrwt>
<pdfrwt beam="2">  1       -2 0.15631756E+00 0.28254393E+04</pdfrwt>
<totfact> 0.23219172E+00</totfact>
</mgrwt>
</event>
<event>
 8    2  0.7085383E-010  0.1538501E+04  0.7818608E-02  0.8859247E-01
          2   -1    0    0  501    0  0.00000000000E+00  0.00000000000E+00  0.32117263424E+04  0.32117263424E+04  0.25500000000E-02 0.  1.
         -2   -1    0    0    0  501 -0.00000000000E+00 -0.00000000000E+00 -0.18424545375E+03  0.18424545377E+03  0.25500000000E-02 0. -1.
    -200001    2    1    2    0    0  0.14239246608E+03  0.21672264649E+03  0.11031710749E+04  0.13319435553E+04  0.69988777248E+03 0.  0.
   -5000001    2    3    3    0    0  0.85374258435E+02 -0.27440781566E+01  0.41193860424E+03  0.44920970654E+03  0.15747905516E+03 0.  0.
     200001    1    1    2    0    0 -0.14239246608E+03 -0.21672264649E+03  0.19243098137E+04  0.20640282408E+04  0.70000000000E+03 0.  1.
         11    1    4    4    0    0 -0.25154874608E+02  0.47737964359E+02  0.12808370401E+03  0.13898602876E+03  0.51100000000E-03 0.  1.
    -200002    1    4    4    0    0  0.11052913304E+03 -0.50482042516E+02  0.28385490023E+03  0.31022367778E+03  0.30000000000E+02 0.  1.
    -200000    1    3    3    0    0  0.57018207649E+02  0.21946672464E+03  0.69123247066E+03  0.88273384875E+03  0.50000000000E+03 0. -1.
<mgrwt>
<rscale>  0 0.15385005E+04</rscale>
<asrwt>0</asrwt>
<pdfrwt beam="1">  1        2 0.45881800E+00 0.15385005E+04</pdfrwt>
<pdfrwt beam="2">  1       -2 0.26320782E-01 0.15385005E+04</pdfrwt>
<totfact> 0.22652269E+01</totfact>
</mgrwt>
</event>
<event>
 8    2  0.7085383E-010  0.1574684E+04  0.7818608E-02  0.8836253E-01
          2   -1    0    0  501    0  0.00000000000E+00  0.00000000000E+00  0.16318187506E+04  0.16318187506E+04  0.25500000000E-02 0.  1.
         -2   -1    0    0    0  501 -0.00000000000E+00 -0.00000000000E+00 -0.37988730398E+03  0.37988730399E+03  0.25500000000E-02 0. -1.
    -200001    2    1    2    0    0 -0.33104726599E+03  0.72403731533E+02  0.77212865117E+03  0.10978979154E+04  0.70310922772E+03 0.  0.
   -5000001    2    3    3    0    0 -0.89430549705E+02  0.43795348229E+02  0.13153021036E+03  0.24962706273E+03  0.18734358399E+03 0.  0.
     200001    1    1    2    0    0  0.33104726599E+03 -0.72403731533E+02  0.47980279544E+03  0.91380813915E+03  0.70000000000E+03 0. -1.
         11    1    4    4    0    0 -0.13234411687E+03  0.23339654484E+01  0.43916360839E+02  0.13945988460E+03  0.51100000000E-03 0.  1.
    -200002    1    4    4    0    0  0.42913567162E+02  0.41461382781E+02  0.87613849520E+02  0.11016717813E+03  0.30000000000E+02 0.  1.
    -200000    1    3    3    0    0 -0.24161671629E+03  0.28608383303E+02  0.64059844081E+03  0.84827085271E+03  0.50000000000E+03 0.  1.
<mgrwt>
<rscale>  0 0.15746837E+04</rscale>
<asrwt>0</asrwt>
<pdfrwt beam="1">  1        2 0.23311696E+00 0.15746837E+04</pdfrwt>
<pdfrwt beam="2">  1       -2 0.54269615E-01 0.15746837E+04</pdfrwt>
<totfact> 0.38306970E+01</totfact>
</mgrwt>
</event>
<event>
 8    2  0.7085383E-010  0.1630081E+04  0.7818608E-02  0.8802278E-01
         -2   -1    0    0    0  501 -0.00000000000E+00  0.00000000000E+00  0.50000695254E+03  0.50000695255E+03  0.25500000000E-02 0. -1.
          2   -1    0    0  501    0  0.00000000000E+00 -0.00000000000E+00 -0.13285638515E+04  0.13285638515E+04  0.25500000000E-02 0.  1.
    -200001    2    1    2    0    0 -0.37307134476E+03 -0.18445125986E+03 -0.37549578598E+03  0.89665403326E+03  0.69984775097E+03 0.  0.
   -5000001    2    3    3    0    0 -0.94220019124E+02 -0.10257926555E+03 -0.33168438584E+02  0.22460559897E+03  0.17305378368E+03 0.  0.
     200001    1    1    2    0    0  0.37307134476E+03  0.18445125986E+03 -0.45306111293E+03  0.93191677074E+03  0.70000000000E+03 0.  1.
         11    1    4    4    0    0 -0.46216203977E+02  0.21625257674E+02 -0.66769990624E+02  0.84034641236E+02  0.51100000000E-03 0.  1.
    -200002    1    4    4    0    0 -0.48003815147E+02 -0.12420452323E+03  0.33601552039E+02  0.14057095773E+03  0.30000000000E+02 0.  1.
    -200000    1    3    3    0    0 -0.27885132564E+03 -0.81871994305E+02 -0.34232734740E+03  0.67204843429E+03  0.50000000000E+03 0.  1.
<mgrwt>
<rscale>  0 0.16300812E+04</rscale>
<asrwt>0</asrwt>
<pdfrwt beam="1">  1        2 0.18979483E+00 0.16300812E+04</pdfrwt>
<pdfrwt beam="2">  1       -2 0.71429565E-01 0.16300812E+04</pdfrwt>
<totfact> 0.30871552E+01</totfact>
</mgrwt>
</event>
<event>
 8    2  0.7085383E-010  0.1672180E+04  0.7818608E-02  0.8777392E-01
          2   -1    0    0  501    0  0.00000000000E+00  0.00000000000E+00  0.14861431965E+04  0.14861431965E+04  0.25500000000E-02 0. -1.
         -2   -1    0    0    0  501 -0.00000000000E+00 -0.00000000000E+00 -0.47037635637E+03  0.47037635638E+03  0.25500000000E-02 0.  1.
    -200001    2    1    2    0    0 -0.45452245449E+03 -0.48201022749E+02  0.51511107147E+03  0.98206062667E+03  0.70013545709E+03 0.  0.
   -5000001    2    3    3    0    0 -0.19578285955E+03 -0.11218477066E+02  0.14959489699E+03  0.30981367764E+03  0.18748093057E+03 0.  0.
     200001    1    1    2    0    0  0.45452245449E+03  0.48201022749E+02  0.50065576870E+03  0.97445892625E+03  0.70000000000E+03 0.  1.
         11    1    4    4    0    0 -0.17702923413E+03 -0.38159776608E+02  0.18047869562E+03  0.25567181671E+03  0.51100000000E-03 0.  1.
    -200002    1    4    4    0    0 -0.18753625422E+02  0.26941299542E+02 -0.30883798628E+02  0.54141860932E+02  0.30000000000E+02 0.  1.
    -200000    1    3    3    0    0 -0.25873959494E+03 -0.36982545683E+02  0.36551617448E+03  0.67224694903E+03  0.50000000000E+03 0.  1.
<mgrwt>
<rscale>  0 0.16721802E+04</rscale>
<asrwt>0</asrwt>
<pdfrwt beam="1">  1        2 0.21230617E+00 0.16721802E+04</pdfrwt>
<pdfrwt beam="2">  1       -2 0.67196621E-01 0.16721802E+04</pdfrwt>
<totfact> 0.28881155E+01</totfact>
</mgrwt>
</event>
<event>
 8    2  0.7085383E-010  0.1813109E+04  0.7818608E-02  0.8699359E-01
          2   -1    0    0  501    0  0.00000000000E+00  0.00000000000E+00  0.19413095201E+04  0.19413095201E+04  0.25500000000E-02 0.  1.
         -2   -1    0    0    0  501 -0.00000000000E+00 -0.00000000000E+00 -0.42334360239E+03  0.42334360240E+03  0.25500000000E-02 0. -1.
    -200001    2    1    2    0    0 -0.29306867932E+03  0.81793872688E+02  0.13982701653E+04  0.15920558396E+04  0.69778424525E+03 0.  0.
   -5000001    2    3    3    0    0 -0.10664681470E+03  0.73661137180E+02  0.42648751779E+03  0.48337158927E+03  0.18696786961E+03 0.  0.
     200001    1    1    2    0    0  0.29306867932E+03 -0.81793872688E+02  0.11969575245E+03  0.77259728291E+03  0.70000000000E+03 0. -1.
         11    1    4    4    0    0 -0.26080334975E+02 -0.57818397143E+02  0.18228495836E+03  0.19300506979E+03  0.51100000000E-03 0.  1.
    -200002    1    4    4    0    0 -0.80566479726E+02  0.13147953432E+03  0.24420255942E+03  0.29036651947E+03  0.30000000000E+02 0.  1.
    -200000    1    3    3    0    0 -0.18642186462E+03  0.81327355075E+01  0.97178264747E+03  0.11086842503E+04  0.50000000000E+03 0.  1.
<mgrwt>
<rscale>  0 0.18131089E+04</rscale>
<asrwt>0</asrwt>
<pdfrwt beam="1">  1        2 0.27732994E+00 0.18131089E+04</pdfrwt>
<pdfrwt beam="2">  1       -2 0.60477656E-01 0.18131089E+04</pdfrwt>
<totfact> 0.20719509E+01</totfact>
</mgrwt>
</event>
<event>
 8    2  0.7085383E-010  0.1598251E+04  0.7818608E-02  0.8821623E-01
         -2   -1    0    0    0  501 -0.00000000000E+00  0.00000000000E+00  0.21511670377E+03  0.21511670378E+03  0.25500000000E-02 0. -1.
          2   -1    0    0  501    0  0.00000000000E+00 -0.00000000000E+00 -0.29686269506E+04  0.29686269506E+04  0.25500000000E-02 0.  1.
    -200001    2    1    2    0    0 -0.36742209719E+03 -0.52032323607E+02 -0.11453316198E+04  0.13909958035E+04  0.69669106924E+03 0.  0.
   -5000001    2    3    3    0    0 -0.11138410636E+03 -0.71458098312E+02 -0.45519673196E+03  0.50092896511E+03  0.16190455315E+03 0.  0.
     200001    1    1    2    0    0  0.36742209719E+03  0.52032323607E+02 -0.16081786271E+04  0.17927478508E+04  0.70000000000E+03 0.  1.
         11    1    4    4    0    0 -0.80492197819E+02 -0.11512272003E+03 -0.24997193656E+03  0.28673716823E+03  0.51100000000E-03 0.  1.
    -200002    1    4    4    0    0 -0.30891908542E+02  0.43664621713E+02 -0.20522479540E+03  0.21419179688E+03  0.30000000000E+02 0.  1.
    -200000    1    3    3    0    0 -0.25603799083E+03  0.19425774705E+02 -0.69013488780E+03  0.89006683840E+03  0.50000000000E+03 0. -1.
<mgrwt>
<rscale>  0 0.15982506E+04</rscale>
<asrwt>0</asrwt>
<pdfrwt beam="1">  1        2 0.42408954E+00 0.15982506E+04</pdfrwt>
<pdfrwt beam="2">  1       -2 0.30730959E-01 0.15982506E+04</pdfrwt>
<totfact> 0.23216465E+01</totfact>
</mgrwt>
</event>
<event>
 8    2  0.7085383E-010  0.2092341E+04  0.7818608E-02  0.8564625E-01
          2   -1    0    0  501    0  0.00000000000E+00  0.00000000000E+00  0.18261211155E+04  0.18261211155E+04  0.25500000000E-02 0.  1.
         -2   -1    0    0    0  501 -0.00000000000E+00 -0.00000000000E+00 -0.59934269846E+03  0.59934269846E+03  0.25500000000E-02 0. -1.
    -200001    2    1    2    0    0  0.36786421319E+03 -0.28269100472E+03 -0.11052715886E+03  0.84634238518E+03  0.69917157881E+03 0.  0.
   -5000001    2    3    3    0    0  0.61841944059E+02 -0.10692912576E+03 -0.96424682133E+02  0.23418166515E+03  0.17402605836E+03 0.  0.
     200001    1    1    2    0    0 -0.36786421319E+03  0.28269100472E+03  0.13373055759E+04  0.15791214288E+04  0.70000000000E+03 0.  1.
         11    1    4    4    0    0  0.95672910603E+02 -0.47000213044E+02 -0.11504204278E+03  0.15683429937E+03  0.51100000000E-03 0.  1.
    -200002    1    4    4    0    0 -0.33830966544E+02 -0.59928912718E+02  0.18617360650E+02  0.77347365788E+02  0.30000000000E+02 0.  1.
    -200000    1    3    3    0    0  0.30602226913E+03 -0.17576187896E+03 -0.14102476726E+02  0.61216072003E+03  0.50000000000E+03 0. -1.
<mgrwt>
<rscale>  0 0.20923407E+04</rscale>
<asrwt>0</asrwt>
<pdfrwt beam="1">  1        2 0.26087444E+00 0.20923407E+04</pdfrwt>
<pdfrwt beam="2">  1       -2 0.85620388E-01 0.20923407E+04</pdfrwt>
<totfact> 0.10827012E+01</totfact>
</mgrwt>
</event>
<event>
 8    2  0.7085383E-010  0.1760767E+04  0.7818608E-02  0.8727446E-01
          2   -1    0    0  501    0  0.00000000000E+00  0.00000000000E+00  0.23541336625E+04  0.23541336625E+04  0.25500000000E-02 0.  1.
         -2   -1    0    0    0  501 -0.00000000000E+00 -0.00000000000E+00 -0.32923987690E+03  0.32923987691E+03  0.25500000000E-02 0. -1.
    -200001    2    1    2    0    0 -0.89238312132E+02  0.29798629264E+02  0.21149645499E+03  0.73728481755E+03  0.70000479788E+03 0.  0.
   -5000001    2    3    3    0    0 -0.61030809203E+02  0.13296018263E+02  0.19396041272E+03  0.23591119223E+03  0.11887768984E+03 0.  0.
     200001    1    1    2    0    0  0.89238312132E+02 -0.29798629264E+02  0.18133973306E+04  0.19460887218E+04  0.70000000000E+03 0.  1.
         11    1    4    4    0    0 -0.76049975359E+02  0.44676879028E+02  0.12221094841E+03  0.15071542118E+03  0.51100000000E-03 0.  1.
    -200002    1    4    4    0    0  0.15019166156E+02 -0.31380860765E+02  0.71749464317E+02  0.85195771046E+02  0.30000000000E+02 0.  1.
    -200000    1    3    3    0    0 -0.28207502929E+02  0.16502611001E+02  0.17536042270E+02  0.50137362532E+03  0.50000000000E+03 0. -1.
<mgrwt>
<rscale>  0 0.17607665E+04</rscale>
<asrwt>0</asrwt>
<pdfrwt beam="1">  1        2 0.33630480E+00 0.17607665E+04</pdfrwt>
<pdfrwt beam="2">  1       -2 0.47034269E-01 0.17607665E+04</pdfrwt>
<totfact> 0.21399111E+01</totfact>
</mgrwt>
</event>
<event>
 8    2  0.7085383E-010  0.1783372E+04  0.7818608E-02  0.8715193E-01
         -2   -1    0    0    0  501 -0.00000000000E+00  0.00000000000E+00  0.10474619688E+04  0.10474619688E+04  0.25500000000E-02 0. -1.
          2   -1    0    0  501    0  0.00000000000E+00 -0.00000000000E+00 -0.75907630311E+03  0.75907630312E+03  0.25500000000E-02 0.  1.
    -200001    2    1    2    0    0  0.56432475980E+02 -0.18296541805E+03  0.66903943074E+03  0.98705169033E+03  0.69999736496E+03 0.  0.
   -5000001    2    3    3    0    0  0.29764818995E+02 -0.11685153898E+03  0.74954801423E+02  0.20729611598E+03  0.15104049402E+03 0.  0.
     200001    1    1    2    0    0 -0.56432475980E+02  0.18296541805E+03 -0.38065376506E+03  0.81948658159E+03  0.70000000000E+03 0.  1.
         11    1    4    4    0    0 -0.29482281798E+02 -0.49287386948E+02  0.94481355760E+02  0.11056752705E+03  0.51100000000E-03 0.  1.
    -200002    1    4    4    0    0  0.59247100793E+02 -0.67564152028E+02 -0.19526554337E+02  0.96728588928E+02  0.30000000000E+02 0.  1.
    -200000    1    3    3    0    0  0.26667656985E+02 -0.66113879077E+02  0.59408462932E+03  0.77975557435E+03  0.50000000000E+03 0. -1.
<mgrwt>
<rscale>  0 0.17833716E+04</rscale>
<asrwt>0</asrwt>
<pdfrwt beam="1">  1        2 0.10843947E+00 0.17833716E+04</pdfrwt>
<pdfrwt beam="2">  1       -2 0.14963742E+00 0.17833716E+04</pdfrwt>
<totfact> 0.11620424E+01</totfact>
</mgrwt>
</event>
<event>
 8    2  0.7085383E-010  0.1447644E+04  0.7818608E-02  0.8920035E-01
          2   -1    0    0  501    0  0.00000000000E+00  0.00000000000E+00  0.10270135246E+04  0.10270135246E+04  0.25500000000E-02 0.  1.
         -2   -1    0    0    0  501 -0.00000000000E+00 -0.00000000000E+00 -0.51013783027E+03  0.51013783027E+03  0.25500000000E-02 0. -1.
    -200001    2    1    2    0    0 -0.63959692614E+02  0.11756242134E+03  0.12342979889E+03  0.72308045020E+03  0.69978472191E+03 0.  0.
   -5000001    2    3    3    0    0 -0.10792850583E+03  0.10200784022E+03  0.10374858129E+03  0.22052443157E+03  0.12575012907E+03 0.  0.
     200001    1    1    2    0    0  0.63959692614E+02 -0.11756242134E+03  0.39344589542E+03  0.81407090466E+03  0.70000000000E+03 0. -1.
         11    1    4    4    0    0 -0.87741037397E+02  0.92210974879E+02  0.20089616445E+02  0.12886018090E+03  0.51100000000E-03 0.  1.
    -200002    1    4    4    0    0 -0.20187468438E+02  0.97968653394E+01  0.83658964848E+02  0.91664250675E+02  0.30000000000E+02 0.  1.
    -200000    1    3    3    0    0  0.43968813220E+02  0.15554581118E+02  0.19681217602E+02  0.50255601862E+03  0.50000000000E+03 0. -1.
<mgrwt>
<rscale>  0 0.14476442E+04</rscale>
<asrwt>0</asrwt>
<pdfrwt beam="1">  1        2 0.14671622E+00 0.14476442E+04</pdfrwt>
<pdfrwt beam="2">  1       -2 0.72876833E-01 0.14476442E+04</pdfrwt>
<totfact> 0.44691247E+01</totfact>
</mgrwt>
</event>
<event>
 8    2  0.7085383E-010  0.1552577E+04  0.7818608E-02  0.8850223E-01
          2   -1    0    0  501    0  0.00000000000E+00  0.00000000000E+00  0.74399982292E+03  0.74399982293E+03  0.25500000000E-02 0.  1.
         -2   -1    0    0    0  501 -0.00000000000E+00 -0.00000000000E+00 -0.80997837044E+03  0.80997837044E+03  0.25500000000E-02 0. -1.
    -200001    2    1    2    0    0 -0.15330133177E+02 -0.16604465917E+03 -0.32514803570E+03  0.78914182824E+03  0.69944101834E+03 0.  0.
   -5000001    2    3    3    0    0 -0.56072283225E+02 -0.34219717014E+01 -0.55111346835E+02  0.19666746204E+03  0.18023600983E+03 0.  0.
     200001    1    1    2    0    0  0.15330133177E+02  0.16604465917E+03  0.25916948818E+03  0.76483636513E+03  0.70000000000E+03 0.  1.
         11    1    4    4    0    0  0.33717653538E+02  0.13209923957E+02 -0.87934101644E+02  0.95098835341E+02  0.51100000000E-03 0.  1.
    -200002    1    4    4    0    0 -0.89789936763E+02 -0.16631895659E+02  0.32822754809E+02  0.10156862670E+03  0.30000000000E+02 0.  1.
    -200000    1    3    3    0    0  0.40742150049E+02 -0.16262268747E+03 -0.27003668886E+03  0.59247436620E+03  0.50000000000E+03 0. -1.
<mgrwt>
<rscale>  0 0.15525769E+04</rscale>
<asrwt>0</asrwt>
<pdfrwt beam="1">  1        2 0.10628569E+00 0.15525769E+04</pdfrwt>
<pdfrwt beam="2">  1       -2 0.11571120E+00 0.15525769E+04</pdfrwt>
<totfact> 0.23363582E+01</totfact>
</mgrwt>
</event>
<event>
 8    2  0.7085383E-010  0.2048049E+04  0.7818608E-02  0.8584480E-01
         -2   -1    0    0    0  501 -0.00000000000E+00  0.00000000000E+00  0.26605934968E+03  0.26605934969E+03  0.25500000000E-02 0. -1.
          2   -1    0    0  501    0  0.00000000000E+00 -0.00000000000E+00 -0.39413254023E+04  0.39413254023E+04  0.25500000000E-02 0.  1.
    -200001    2    1    2    0    0 -0.51719148960E+03  0.50414242855E+03 -0.14462255333E+04  0.17619260503E+04  0.70083413745E+03 0.  0.
   -5000001    2    3    3    0    0  0.42769990456E+01  0.12638249502E+03 -0.95333895677E+02  0.18409837632E+03  0.93876688970E+02 0.  0.
     200001    1    1    2    0    0  0.51719148960E+03 -0.50414242855E+03 -0.22290405194E+04  0.24454587018E+04  0.70000000000E+03 0.  1.
         11    1    4    4    0    0 -0.39502161098E+02  0.65120738396E+02 -0.40770814102E+02  0.86390917250E+02  0.51100000000E-03 0.  1.
    -200002    1    4    4    0    0  0.43779160144E+02  0.61261756620E+02 -0.54563081576E+02  0.97707459071E+02  0.30000000000E+02 0.  1.
    -200000    1    3    3    0    0 -0.52146848864E+03  0.37775993353E+03 -0.13508916376E+04  0.15778276739E+04  0.50000000000E+03 0. -1.
<mgrwt>
<rscale>  0 0.20480493E+04</rscale>
<asrwt>0</asrwt>
<pdfrwt beam="1">  1        2 0.56304645E+00 0.20480493E+04</pdfrwt>
<pdfrwt beam="2">  1       -2 0.38008481E-01 0.20480493E+04</pdfrwt>
<totfact> 0.38128599E+00</totfact>
</mgrwt>
</event>
<event>
 8    2  0.7085383E-010  0.1612029E+04  0.7818608E-02  0.8813192E-01
          2   -1    0    0  501    0  0.00000000000E+00  0.00000000000E+00  0.48324124592E+04  0.48324124592E+04  0.25500000000E-02 0.  1.
         -2   -1    0    0    0  501 -0.00000000000E+00 -0.00000000000E+00 -0.13443789954E+03  0.13443789956E+03  0.25500000000E-02 0. -1.
    -200001    2    1    2    0    0 -0.36274204930E+03  0.12022414160E+03  0.19953059163E+04  0.21489693403E+04  0.70056255056E+03 0.  0.
   -5000001    2    3    3    0    0 -0.95705381259E+02  0.13888723903E+02  0.55883425535E+03  0.60104601018E+03  0.19901800106E+03 0.  0.
     200001    1    1    2    0    0  0.36274204930E+03 -0.12022414160E+03  0.27026686433E+04  0.28178810185E+04  0.70000000000E+03 0. -1.
         11    1    4    4    0    0 -0.14593721009E+03  0.67336181022E+01  0.27753944915E+03  0.31364176498E+03  0.51100000000E-03 0.  1.
    -200002    1    4    4    0    0  0.50231828828E+02  0.71551058009E+01  0.28129480620E+03  0.28740424520E+03  0.30000000000E+02 0.  1.
    -200000    1    3    3    0    0 -0.26703666804E+03  0.10633541769E+03  0.14364716610E+04  0.15479233301E+04  0.50000000000E+03 0. -1.
<mgrwt>
<rscale>  0 0.16120290E+04</rscale>
<asrwt>0</asrwt>
<pdfrwt beam="1">  1        2 0.69034467E+00 0.16120290E+04</pdfrwt>
<pdfrwt beam="2">  1       -2 0.19205413E-01 0.16120290E+04</pdfrwt>
<totfact> 0.28746176E+00</totfact>
</mgrwt>
</event>
<event>
 8    2  0.7085383E-010  0.1608564E+04  0.7818608E-02  0.8815304E-01
          2   -1    0    0  501    0  0.00000000000E+00  0.00000000000E+00  0.19550226466E+03  0.19550226468E+03  0.25500000000E-02 0.  1.
         -2   -1    0    0    0  501 -0.00000000000E+00 -0.00000000000E+00 -0.33087568723E+04  0.33087568723E+04  0.25500000000E-02 0. -1.
    -200001    2    1    2    0    0  0.87728411363E+02  0.20846114282E+03 -0.22650580174E+04  0.23814992437E+04  0.69992749863E+03 0.  0.
   -5000001    2    3    3    0    0  0.92615320319E+02  0.24418544581E+02 -0.61099126418E+03  0.64373275077E+03  0.17862717216E+03 0.  0.
     200001    1    1    2    0    0 -0.87728411363E+02 -0.20846114282E+03 -0.84819659018E+03  0.11227598932E+04  0.70000000000E+03 0.  1.
         11    1    4    4    0    0 -0.41716920021E+02 -0.33143893101E+02 -0.14811527061E+03  0.15740696444E+03  0.51100000000E-03 0.  1.
    -200002    1    4    4    0    0  0.13433224034E+03  0.57562437683E+02 -0.46287599357E+03  0.48632578633E+03  0.30000000000E+02 0.  1.
    -200000    1    3    3    0    0 -0.48869089563E+01  0.18404259824E+03 -0.16540667532E+04  0.17377664930E+04  0.50000000000E+03 0. -1.
<mgrwt>
<rscale>  0 0.16085639E+04</rscale>
<asrwt>0</asrwt>
<pdfrwt beam="1">  1        2 0.27928897E-01 0.16085639E+04</pdfrwt>
<pdfrwt beam="2">  1       -2 0.47267952E+00 0.16085639E+04</pdfrwt>
<totfact> 0.45909711E-01</totfact>
</mgrwt>
</event>
<event>
 8    2  0.7085383E-010  0.2519632E+04  0.7818608E-02  0.8396025E-01
          2   -1    0    0  501    0  0.00000000000E+00  0.00000000000E+00  0.70493731307E+03  0.70493731308E+03  0.25500000000E-02 0.  1.
         -2   -1    0    0    0  501 -0.00000000000E+00 -0.00000000000E+00 -0.22514580521E+04  0.22514580521E+04  0.25500000000E-02 0. -1.
    -200001    2    1    2    0    0 -0.18031857549E+03  0.95467847130E+03 -0.31563922413E+03  0.12391315311E+04  0.70135088169E+03 0.  0.
   -5000001    2    3    3    0    0 -0.44490426115E+02  0.27442064496E+03 -0.16591262625E+03  0.37101975798E+03  0.18122519931E+03 0.  0.
     200001    1    1    2    0    0  0.18031857549E+03 -0.95467847130E+03 -0.12308815149E+04  0.17172638341E+04  0.70000000000E+03 0.  1.
         11    1    4    4    0    0 -0.23230484210E+01  0.32705660935E+02  0.38276153448E+02  0.50399610457E+02  0.51100000000E-03 0.  1.
    -200002    1    4    4    0    0 -0.42167377694E+02  0.24171498403E+03 -0.20418877970E+03  0.32062014752E+03  0.30000000000E+02 0.  1.
    -200000    1    3    3    0    0 -0.13582814937E+03  0.68025782634E+03 -0.14972659788E+03  0.86811177308E+03  0.50000000000E+03 0. -1.
<mgrwt>
<rscale>  0 0.25196323E+04</rscale>
<asrwt>0</asrwt>
<pdfrwt beam="1">  1        2 0.10070533E+00 0.25196323E+04</pdfrwt>
<pdfrwt beam="2">  1       -2 0.32163686E+00 0.25196323E+04</pdfrwt>
<totfact> 0.93411060E-01</totfact>
</mgrwt>
</event>
<event>
 8    2  0.7085383E-010  0.1730471E+04  0.7818608E-02  0.8744174E-01
          2   -1    0    0  501    0  0.00000000000E+00  0.00000000000E+00  0.15717405474E+04  0.15717405474E+04  0.25500000000E-02 0.  1.
         -2   -1    0    0    0  501 -0.00000000000E+00 -0.00000000000E+00 -0.47630770415E+03  0.47630770415E+03  0.25500000000E-02 0. -1.
    -200001    2    1    2    0    0  0.21847029164E+03 -0.28704778530E+03  0.12372026335E+03  0.79730805579E+03  0.70019121167E+03 0.  0.
   -5000001    2    3    3    0    0  0.10714761543E+03 -0.18331654088E+03  0.57092939665E+02  0.27043794887E+03  0.15745321457E+03 0.  0.
     200001    1    1    2    0    0 -0.21847029164E+03  0.28704778530E+03  0.97171257995E+03  0.12507401958E+04  0.70000000000E+03 0.  1.
         11    1    4    4    0    0  0.65374245408E+01 -0.76847734696E+02  0.88769048552E+02  0.11759360624E+03  0.51100000000E-03 0.  1.
    -200002    1    4    4    0    0  0.10061019089E+03 -0.10646880618E+03 -0.31676108886E+02  0.15284434263E+03  0.30000000000E+02 0.  1.
    -200000    1    3    3    0    0  0.11132267621E+03 -0.10373124442E+03  0.66627323684E+02  0.52687010692E+03  0.50000000000E+03 0. -1.
<mgrwt>
<rscale>  0 0.17304706E+04</rscale>
<asrwt>0</asrwt>
<pdfrwt beam="1">  1        2 0.22453436E+00 0.17304706E+04</pdfrwt>
<pdfrwt beam="2">  1       -2 0.68043958E-01 0.17304706E+04</pdfrwt>
<totfact> 0.25204044E+01</totfact>
</mgrwt>
</event>
<event>
 8    2  0.7085383E-010  0.2348763E+04  0.7818608E-02  0.8458939E-01
          2   -1    0    0  501    0  0.00000000000E+00  0.00000000000E+00  0.19066720857E+04  0.19066720857E+04  0.25500000000E-02 0.  1.
         -2   -1    0    0    0  501 -0.00000000000E+00 -0.00000000000E+00 -0.72334014540E+03  0.72334014540E+03  0.25500000000E-02 0. -1.
    -200001    2    1    2    0    0 -0.79885249606E+03  0.49801830923E+03  0.65361765105E+03  0.13428507125E+04  0.69988888798E+03 0.  0.
   -5000001    2    3    3    0    0 -0.23551955294E+03  0.18561271755E+03  0.14541560608E+03  0.38201223647E+03  0.18672468928E+03 0.  0.
     200001    1    1    2    0    0  0.79885249606E+03 -0.49801830923E+03  0.52971428929E+03  0.12871615186E+04  0.70000000000E+03 0.  1.
         11    1    4    4    0    0 -0.96627026043E+02 -0.24367503953E+02  0.37865644751E+02  0.10660377321E+03  0.51100000000E-03 0.  1.
    -200002    1    4    4    0    0 -0.13889252689E+03  0.20998022151E+03  0.10754996132E+03  0.27540846325E+03  0.30000000000E+02 0.  1.
    -200000    1    3    3    0    0 -0.56333294312E+03  0.31240559168E+03  0.50820204497E+03  0.96083847604E+03  0.50000000000E+03 0. -1.
<mgrwt>
<rscale>  0 0.23487635E+04</rscale>
<asrwt>0</asrwt>
<pdfrwt beam="1">  1        2 0.27238173E+00 0.23487635E+04</pdfrwt>
<pdfrwt beam="2">  1       -2 0.10333431E+00 0.23487635E+04</pdfrwt>
<totfact> 0.62163363E+00</totfact>
</mgrwt>
</event>
<event>
 8    2  0.7085383E-010  0.1445457E+04  0.7818608E-02  0.8921556E-01
         -2   -1    0    0    0  501 -0.00000000000E+00  0.00000000000E+00  0.67488004937E+03  0.67488004937E+03  0.25500000000E-02 0. -1.
          2   -1    0    0  501    0  0.00000000000E+00 -0.00000000000E+00 -0.77396968571E+03  0.77396968571E+03  0.25500000000E-02 0.  1.
    -200001    2    1    2    0    0  0.12927501679E+03  0.13648496940E+03 -0.79810617566E+02  0.72378983590E+03  0.69437872594E+03 0.  0.
   -5000001    2    3    3    0    0  0.12498890475E+03  0.69272412428E+02  0.31122739280E+02  0.20722221377E+03  0.14680438531E+03 0.  0.
     200001    1    1    2    0    0 -0.12927501679E+03 -0.13648496940E+03 -0.19279018773E+02  0.72505989918E+03  0.70000000000E+03 0. -1.
         11    1    4    4    0    0  0.13383848306E+03  0.81814183646E+02  0.54663146161E+02  0.16611550121E+03  0.51100000000E-03 0.  1.
    -200002    1    4    4    0    0 -0.88495783109E+01 -0.12541771218E+02 -0.23540406881E+02  0.41106712562E+02  0.30000000000E+02 0.  1.
    -200000    1    3    3    0    0  0.42861120433E+01  0.67212556969E+02 -0.11093335685E+03  0.51656762213E+03  0.50000000000E+03 0.  1.
<mgrwt>
<rscale>  0 0.14454573E+04</rscale>
<asrwt>0</asrwt>
<pdfrwt beam="1">  1        2 0.11056710E+00 0.14454573E+04</pdfrwt>
<pdfrwt beam="2">  1       -2 0.96411436E-01 0.14454573E+04</pdfrwt>
<totfact> 0.34713634E+01</totfact>
</mgrwt>
</event>
<event>
 8    2  0.7085383E-010  0.1489886E+04  0.7818608E-02  0.8891207E-01
          2   -1    0    0  501    0  0.00000000000E+00  0.00000000000E+00  0.29599242174E+04  0.29599242174E+04  0.25500000000E-02 0.  1.
         -2   -1    0    0    0  501 -0.00000000000E+00 -0.00000000000E+00 -0.18748453980E+03  0.18748453981E+03  0.25500000000E-02 0. -1.
    -200001    2    1    2    0    0 -0.22999747687E+03 -0.98244142415E+02  0.12348359164E+04  0.14395515977E+04  0.69637512240E+03 0.  0.
   -5000001    2    3    3    0    0  0.33539223261E+02 -0.63857341152E+01  0.32051462756E+03  0.36072214930E+03  0.16194191989E+03 0.  0.
     200001    1    1    2    0    0  0.22999747687E+03  0.98244142415E+02  0.15376037613E+04  0.17078571596E+04  0.70000000000E+03 0.  1.
         11    1    4    4    0    0  0.41327499497E+02 -0.77349214081E+02  0.18215767802E+03  0.20216894617E+03  0.51100000000E-03 0.  1.
    -200002    1    4    4    0    0 -0.77882762361E+01  0.70963479966E+02  0.13835694954E+03  0.15855320313E+03  0.30000000000E+02 0.  1.
    -200000    1    3    3    0    0 -0.26353670013E+03 -0.91858408300E+02  0.91432128881E+03  0.10788294484E+04  0.50000000000E+03 0. -1.
<mgrwt>
<rscale>  0 0.14898859E+04</rscale>
<asrwt>0</asrwt>
<pdfrwt beam="1">  1        2 0.42284630E+00 0.14898859E+04</pdfrwt>
<pdfrwt beam="2">  1       -2 0.26783507E-01 0.14898859E+04</pdfrwt>
<totfact> 0.30567479E+01</totfact>
</mgrwt>
</event>
<event>
 8    2  0.7085383E-010  0.2057877E+04  0.7818608E-02  0.8580029E-01
          2   -1    0    0  501    0  0.00000000000E+00  0.00000000000E+00  0.17800632351E+04  0.17800632351E+04  0.25500000000E-02 0.  1.
         -2   -1    0    0    0  501 -0.00000000000E+00 -0.00000000000E+00 -0.59476218510E+03  0.59476218511E+03  0.25500000000E-02 0. -1.
    -200001    2    1    2    0    0 -0.56383459576E+02 -0.10857057312E+03 -0.26573508131E+03  0.75912974397E+03  0.70049708842E+03 0.  0.
   -5000001    2    3    3    0    0 -0.39576038987E+02 -0.54876657453E+02 -0.64141274178E+02  0.21709137906E+03  0.19605319026E+03 0.  0.
     200001    1    1    2    0    0  0.56383459576E+02  0.10857057312E+03  0.14510361313E+04  0.16156956763E+04  0.70000000000E+03 0.  1.
         11    1    4    4    0    0  0.10001233632E+02  0.68005066210E+02 -0.50022054044E+01  0.68918326761E+02  0.51100000000E-03 0.  1.
    -200002    1    4    4    0    0 -0.49577272619E+02 -0.12288172366E+03 -0.59139068774E+02  0.14817305229E+03  0.30000000000E+02 0.  1.
    -200000    1    3    3    0    0 -0.16807420589E+02 -0.53693915668E+02 -0.20159380713E+03  0.54203836492E+03  0.50000000000E+03 0. -1.
<mgrwt>
<rscale>  0 0.20578769E+04</rscale>
<asrwt>0</asrwt>
<pdfrwt beam="1">  1        2 0.25429475E+00 0.20578769E+04</pdfrwt>
<pdfrwt beam="2">  1       -2 0.84966025E-01 0.20578769E+04</pdfrwt>
<totfact> 0.11671557E+01</totfact>
</mgrwt>
</event>
<event>
 8    2  0.7085383E-010  0.1660621E+04  0.7818608E-02  0.8784148E-01
         -2   -1    0    0    0  501 -0.00000000000E+00  0.00000000000E+00  0.24069700689E+03  0.24069700691E+03  0.25500000000E-02 0.  1.
          2   -1    0    0  501    0  0.00000000000E+00 -0.00000000000E+00 -0.28642465205E+04  0.28642465205E+04  0.25500000000E-02 0. -1.
    -200001    2    1    2    0    0 -0.12931095215E+03 -0.33480869024E+03 -0.81393961919E+03  0.11317465906E+04  0.69966739261E+03 0.  0.
   -5000001    2    3    3    0    0  0.77976431442E+02 -0.10895923203E+03 -0.23771059280E+03  0.30954471271E+03  0.14614775105E+03 0.  0.
     200001    1    1    2    0    0  0.12931095215E+03  0.33480869024E+03 -0.18096098944E+04  0.19731969368E+04  0.70000000000E+03 0. -1.
         11    1    4    4    0    0  0.10768131156E+03 -0.11253994057E+03 -0.18194104764E+03  0.23950584105E+03  0.51100000000E-03 0.  1.
    -200002    1    4    4    0    0 -0.29704880114E+02  0.35807085444E+01 -0.55769545160E+02  0.70038871662E+02  0.30000000000E+02 0.  1.
    -200000    1    3    3    0    0 -0.20728738360E+03 -0.22584945821E+03 -0.57622902639E+03  0.82220187790E+03  0.50000000000E+03 0. -1.
<mgrwt>
<rscale>  0 0.16606210E+04</rscale>
<asrwt>0</asrwt>
<pdfrwt beam="1">  1        2 0.40917806E+00 0.16606210E+04</pdfrwt>
<pdfrwt beam="2">  1       -2 0.34385288E-01 0.16606210E+04</pdfrwt>
<totfact> 0.21322627E+01</totfact>
</mgrwt>
</event>
<event>
 8    2  0.7085383E-010  0.1922587E+04  0.7818608E-02  0.8643694E-01
          2   -1    0    0  501    0  0.00000000000E+00  0.00000000000E+00  0.30788372373E+04  0.30788372373E+04  0.25500000000E-02 0.  1.
         -2   -1    0    0    0  501 -0.00000000000E+00 -0.00000000000E+00 -0.30014098813E+03  0.30014098814E+03  0.25500000000E-02 0. -1.
    -200001    2    1    2    0    0 -0.25447675599E+03 -0.38167612714E+03  0.56511921712E+03  0.10124705956E+04  0.70377687656E+03 0.  0.
   -5000001    2    3    3    0    0 -0.28539052811E+02 -0.16836536190E+03  0.57391002929E+02  0.23507927342E+03  0.15102041236E+03 0.  0.
     200001    1    1    2    0    0  0.25447675599E+03  0.38167612714E+03  0.22135770321E+04  0.23665076299E+04  0.70000000000E+03 0. -1.
         11    1    4    4    0    0 -0.85522665461E+02 -0.12005795661E+03  0.39664833615E+02  0.15264775884E+03  0.51100000000E-03 0.  1.
    -200002    1    4    4    0    0  0.56983612649E+02 -0.48307405293E+02  0.17726169314E+02  0.82431514576E+02  0.30000000000E+02 0.  1.
    -200000    1    3    3    0    0 -0.22593770318E+03 -0.21331076523E+03  0.50772821419E+03  0.77739132216E+03  0.50000000000E+03 0.  1.
<mgrwt>
<rscale>  0 0.19225871E+04</rscale>
<asrwt>0</asrwt>
<pdfrwt beam="1">  1        2 0.43983386E+00 0.19225871E+04</pdfrwt>
<pdfrwt beam="2">  1       -2 0.42877287E-01 0.19225871E+04</pdfrwt>
<totfact> 0.10314930E+01</totfact>
</mgrwt>
</event>
<event>
 8    2  0.7085383E-010  0.1550983E+04  0.7818608E-02  0.8851240E-01
         -2   -1    0    0    0  501 -0.00000000000E+00  0.00000000000E+00  0.34603097466E+03  0.34603097467E+03  0.25500000000E-02 0. -1.
          2   -1    0    0  501    0  0.00000000000E+00 -0.00000000000E+00 -0.17379579605E+04  0.17379579605E+04  0.25500000000E-02 0.  1.
    -200001    2    1    2    0    0 -0.97880076269E+02  0.31907842934E+03 -0.71254153102E+03  0.10529912874E+04  0.69977400967E+03 0.  0.
   -5000001    2    3    3    0    0 -0.34636353196E+02  0.85785801384E+02 -0.13658501077E+03  0.25289683553E+03  0.19168323759E+03 0.  0.
     200001    1    1    2    0    0  0.97880076269E+02 -0.31907842934E+03 -0.67938545484E+03  0.10309976477E+04  0.70000000000E+03 0.  1.
         11    1    4    4    0    0 -0.37199066248E+02 -0.49975358295E+02 -0.67799187671E+01  0.62667968414E+02  0.51100000000E-03 0.  1.
    -200002    1    4    4    0    0  0.25627130525E+01  0.13576115968E+03 -0.12980509200E+03  0.19022886712E+03  0.30000000000E+02 0.  1.
    -200000    1    3    3    0    0 -0.63243723074E+02  0.23329262796E+03 -0.57595652025E+03  0.80009445191E+03  0.50000000000E+03 0. -1.
<mgrwt>
<rscale>  0 0.15509833E+04</rscale>
<asrwt>0</asrwt>
<pdfrwt beam="1">  1        2 0.24827970E+00 0.15509833E+04</pdfrwt>
<pdfrwt beam="2">  1       -2 0.49432997E-01 0.15509833E+04</pdfrwt>
<totfact> 0.40923295E+01</totfact>
</mgrwt>
</event>
<event>
 8    2  0.7085383E-010  0.1923688E+04  0.7818608E-02  0.8643155E-01
          2   -1    0    0  501    0  0.00000000000E+00  0.00000000000E+00  0.25388286178E+04  0.25388286178E+04  0.25500000000E-02 0.  1.
         -2   -1    0    0    0  501 -0.00000000000E+00 -0.00000000000E+00 -0.36439781948E+03  0.36439781949E+03  0.25500000000E-02 0. -1.
    -200001    2    1    2    0    0  0.63525271524E+03 -0.11510401031E+02  0.13556858673E+04  0.16526178800E+04  0.69970221155E+03 0.  0.
   -5000001    2    3    3    0    0  0.14303305326E+03 -0.35319734783E+02  0.92953896286E+02  0.20785523142E+03  0.11339061868E+03 0.  0.
     200001    1    1    2    0    0 -0.63525271524E+03  0.11510401031E+02  0.81874493099E+03  0.12506085573E+04  0.70000000000E+03 0. -1.
         11    1    4    4    0    0  0.11291284640E+03 -0.48905634356E+02  0.10485592529E+03  0.16166581897E+03  0.51100000000E-03 0.  1.
    -200002    1    4    4    0    0  0.30120206859E+02  0.13585899573E+02 -0.11902029004E+02  0.46189412454E+02  0.30000000000E+02 0.  1.
    -200000    1    3    3    0    0  0.49221966198E+03  0.23809333752E+02  0.12627319710E+04  0.14447626485E+04  0.50000000000E+03 0.  1.
<mgrwt>
<rscale>  0 0.19236877E+04</rscale>
<asrwt>0</asrwt>
<pdfrwt beam="1">  1        2 0.36268981E+00 0.19236877E+04</pdfrwt>
<pdfrwt beam="2">  1       -2 0.52056830E-01 0.19236877E+04</pdfrwt>
<totfact> 0.13741407E+01</totfact>
</mgrwt>
</event>
<event>
 8    2  0.7085383E-010  0.1561121E+04  0.7818608E-02  0.8844795E-01
         -2   -1    0    0    0  501 -0.00000000000E+00  0.00000000000E+00  0.52588950761E+03  0.52588950762E+03  0.25500000000E-02 0.  1.
          2   -1    0    0  501    0  0.00000000000E+00 -0.00000000000E+00 -0.11585608506E+04  0.11585608506E+04  0.25500000000E-02 0. -1.
    -200001    2    1    2    0    0 -0.30943973532E+03 -0.57409766297E+02 -0.47294173428E+03  0.90051006777E+03  0.69871000213E+03 0.  0.
   -5000001    2    3    3    0    0 -0.10577444106E+03 -0.43232434361E+02 -0.16901091095E+03  0.28078876412E+03  0.19292580510E+03 0.  0.
     200001    1    1    2    0    0  0.30943973532E+03  0.57409766297E+02 -0.15972960868E+03  0.78394029042E+03  0.70000000000E+03 0.  1.
         11    1    4    4    0    0 -0.32508421058E+02  0.50172813545E+02  0.13233806208E+02  0.61231056545E+02  0.51100000000E-03 0.  1.
    -200002    1    4    4    0    0 -0.73266020003E+02 -0.93405247905E+02 -0.18224471716E+03  0.21955770758E+03  0.30000000000E+02 0.  1.
    -200000    1    3    3    0    0 -0.20366529426E+03 -0.14177331936E+02 -0.30393082333E+03  0.61972130365E+03  0.50000000000E+03 0.  1.
<mgrwt>
<rscale>  0 0.15611214E+04</rscale>
<asrwt>0</asrwt>
<pdfrwt beam="1">  1        2 0.16550869E+00 0.15611214E+04</pdfrwt>
<pdfrwt beam="2">  1       -2 0.75127073E-01 0.15611214E+04</pdfrwt>
<totfact> 0.34617651E+01</totfact>
</mgrwt>
</event>
<event>
 8    2  0.7085383E-010  0.1911721E+04  0.7818608E-02  0.8649044E-01
         -2   -1    0    0    0  501 -0.00000000000E+00  0.00000000000E+00  0.27220563318E+03  0.27220563320E+03  0.25500000000E-02 0. -1.
          2   -1    0    0  501    0  0.00000000000E+00 -0.00000000000E+00 -0.33565419978E+04  0.33565419978E+04  0.25500000000E-02 0.  1.
    -200001    2    1    2    0    0  0.28589406270E+03 -0.55722226237E+03 -0.12099217516E+04  0.15321641707E+04  0.70098811405E+03 0.  0.
   -5000001    2    3    3    0    0  0.21078272770E+02 -0.11668103519E+03 -0.31094925434E+03  0.38222698702E+03  0.18801402416E+03 0.  0.
     200001    1    1    2    0    0 -0.28589406270E+03  0.55722226237E+03 -0.18744146130E+04  0.20965834603E+04  0.70000000000E+03 0. -1.
         11    1    4    4    0    0  0.50867735862E+02  0.34275242955E+02 -0.12328458785E+03  0.13770043004E+03  0.51100000000E-03 0.  1.
    -200002    1    4    4    0    0 -0.29789463092E+02 -0.15095627815E+03 -0.18766466649E+03  0.24452655699E+03  0.30000000000E+02 0.  1.
    -200000    1    3    3    0    0  0.26481578993E+03 -0.44054122717E+03 -0.89897249730E+03  0.11499371836E+04  0.50000000000E+03 0. -1.
<mgrwt>
<rscale>  0 0.19117214E+04</rscale>
<asrwt>0</asrwt>
<pdfrwt beam="1">  1        2 0.47950597E+00 0.19117214E+04</pdfrwt>
<pdfrwt beam="2">  1       -2 0.38886521E-01 0.19117214E+04</pdfrwt>
<totfact> 0.86386743E+00</totfact>
</mgrwt>
</event>
<event>
 8    2  0.7085383E-010  0.1819934E+04  0.7818608E-02  0.8695770E-01
          2   -1    0    0  501    0  0.00000000000E+00  0.00000000000E+00  0.19299857000E+04  0.19299857000E+04  0.25500000000E-02 0.  1.
         -2   -1    0    0    0  501 -0.00000000000E+00 -0.00000000000E+00 -0.42903956415E+03  0.42903956416E+03  0.25500000000E-02 0. -1.
    -200001    2    1    2    0    0  0.27794841034E+03 -0.27620960112E+03  0.13072113697E+04  0.15337494181E+04  0.70002760648E+03 0.  0.
   -5000001    2    3    3    0    0  0.58022708613E+02 -0.65844298309E+02  0.30997928423E+03  0.37742216890E+03  0.19661696415E+03 0.  0.
     200001    1    1    2    0    0 -0.27794841034E+03  0.27620960112E+03  0.19373476620E+03  0.82527584613E+03  0.70000000000E+03 0. -1.
         11    1    4    4    0    0 -0.30069883365E+02  0.15840957283E+02  0.22426147853E+03  0.22682227528E+03  0.51100000000E-03 0.  1.
    -200002    1    4    4    0    0  0.88092591978E+02 -0.81685255592E+02  0.85717805700E+02  0.15059989361E+03  0.30000000000E+02 0.  1.
    -200000    1    3    3    0    0  0.21992570173E+03 -0.21036530281E+03  0.99723208546E+03  0.11563272492E+04  0.50000000000E+03 0.  1.
<mgrwt>
<rscale>  0 0.18199343E+04</rscale>
<asrwt>0</asrwt>
<pdfrwt beam="1">  1        2 0.27571224E+00 0.18199343E+04</pdfrwt>
<pdfrwt beam="2">  1       -2 0.61291367E-01 0.18199343E+04</pdfrwt>
<totfact> 0.20402104E+01</totfact>
</mgrwt>
</event>
<event>
 8    2  0.7085383E-010  0.3352590E+04  0.7818608E-02  0.8149641E-01
         -2   -1    0    0    0  501 -0.00000000000E+00  0.00000000000E+00  0.25414255532E+04  0.25414255532E+04  0.25500000000E-02 0. -1.
          2   -1    0    0  501    0  0.00000000000E+00 -0.00000000000E+00 -0.11056648894E+04  0.11056648894E+04  0.25500000000E-02 0.  1.
    -200001    2    1    2    0    0  0.36711626208E+03  0.14249248009E+04  0.28989731102E+03  0.16550593532E+04  0.69999712403E+03 0.  0.
   -5000001    2    3    3    0    0  0.18173945635E+03  0.63032439476E+03  0.91547989887E+02  0.67776880342E+03  0.14370610220E+03 0.  0.
     200001    1    1    2    0    0 -0.36711626208E+03 -0.14249248009E+04  0.11458633527E+04  0.19920310894E+04  0.70000000000E+03 0. -1.
         11    1    4    4    0    0  0.18244542787E+03  0.43477403768E+03  0.89482130625E+02  0.47991858652E+03  0.51100000000E-03 0.  1.
    -200002    1    4    4    0    0 -0.70597151818E+00  0.19555035709E+03  0.20658592618E+01  0.19785021690E+03  0.30000000000E+02 0. -1.
    -200000    1    3    3    0    0  0.18537680572E+03  0.79460040609E+03  0.19834932114E+03  0.97729054976E+03  0.50000000000E+03 0. -1.
<mgrwt>
<rscale>  0 0.33525900E+04</rscale>
<asrwt>0</asrwt>
<pdfrwt beam="1">  1        2 0.15795213E+00 0.33525900E+04</pdfrwt>
<pdfrwt beam="2">  1       -2 0.36306079E+00 0.33525900E+04</pdfrwt>
<totfact> 0.26103373E-01</totfact>
</mgrwt>
</event>
<event>
 8    2  0.7085383E-010  0.1454784E+04  0.7818608E-02  0.8915091E-01
         -2   -1    0    0    0  501 -0.00000000000E+00  0.00000000000E+00  0.25234003179E+03  0.25234003180E+03  0.25500000000E-02 0. -1.
          2   -1    0    0  501    0  0.00000000000E+00 -0.00000000000E+00 -0.20967699387E+04  0.20967699387E+04  0.25500000000E-02 0.  1.
    -200001    2    1    2    0    0 -0.16799661444E+03  0.10339017243E+03 -0.97746457203E+03  0.12174999307E+04  0.69853897641E+03 0.  0.
   -5000001    2    3    3    0    0 -0.41393755577E+02 -0.22015409391E+02 -0.27783977367E+03  0.33930308361E+03  0.18903312267E+03 0.  0.
     200001    1    1    2    0    0  0.16799661444E+03 -0.10339017243E+03 -0.86696533492E+03  0.11316100398E+04  0.70000000000E+03 0. -1.
         11    1    4    4    0    0  0.42170734600E+02  0.46799622658E+02 -0.35780423581E+02  0.72448700814E+02  0.51100000000E-03 0.  1.
    -200002    1    4    4    0    0 -0.83564490177E+02 -0.68815032049E+02 -0.24205935008E+03  0.26685438280E+03  0.30000000000E+02 0.  1.
    -200000    1    3    3    0    0 -0.12660285886E+03  0.12540558182E+03 -0.69962479837E+03  0.87819684713E+03  0.50000000000E+03 0. -1.
<mgrwt>
<rscale>  0 0.14547838E+04</rscale>
<asrwt>0</asrwt>
<pdfrwt beam="1">  1        2 0.29953855E+00 0.14547838E+04</pdfrwt>
<pdfrwt beam="2">  1       -2 0.36048577E-01 0.14547838E+04</pdfrwt>
<totfact> 0.50258086E+01</totfact>
</mgrwt>
</event>
<event>
 8    2  0.7085383E-010  0.1504667E+04  0.7818608E-02  0.8881355E-01
          2   -1    0    0  501    0  0.00000000000E+00  0.00000000000E+00  0.22658261763E+04  0.22658261763E+04  0.25500000000E-02 0.  1.
         -2   -1    0    0    0  501 -0.00000000000E+00 -0.00000000000E+00 -0.24980108951E+03  0.24980108952E+03  0.25500000000E-02 0. -1.
    -200001    2    1    2    0    0  0.14580865584E+03  0.20518912029E+03  0.81225963800E+03  0.11005604847E+04  0.69864506142E+03 0.  0.
   -5000001    2    3    3    0    0  0.19162385158E+02 -0.12077391378E+02  0.23397539829E+03  0.29578928939E+03  0.17953761814E+03 0.  0.
     200001    1    1    2    0    0 -0.14580865584E+03 -0.20518912029E+03  0.12037654487E+04  0.14150667810E+04  0.70000000000E+03 0.  1.
         11    1    4    4    0    0 -0.37182668679E+01  0.68053622851E+01 -0.28709138738E+02  0.29738075117E+02  0.51100000000E-03 0.  1.
    -200002    1    4    4    0    0  0.22880652026E+02 -0.18882753663E+02  0.26268453703E+03  0.26605121428E+03  0.30000000000E+02 0.  1.
    -200000    1    3    3    0    0  0.12664627068E+03  0.21726651166E+03  0.57828423971E+03  0.80477119535E+03  0.50000000000E+03 0. -1.
<mgrwt>
<rscale>  0 0.15046672E+04</rscale>
<asrwt>0</asrwt>
<pdfrwt beam="1">  1        2 0.32368944E+00 0.15046672E+04</pdfrwt>
<pdfrwt beam="2">  1       -2 0.35685871E-01 0.15046672E+04</pdfrwt>
<totfact> 0.41761511E+01</totfact>
</mgrwt>
</event>
<event>
 8    2  0.7085383E-010  0.1779332E+04  0.7818608E-02  0.8717368E-01
          2   -1    0    0  501    0  0.00000000000E+00  0.00000000000E+00  0.17381865191E+04  0.17381865191E+04  0.25500000000E-02 0.  1.
         -2   -1    0    0    0  501 -0.00000000000E+00 -0.00000000000E+00 -0.45536274292E+03  0.45536274293E+03  0.25500000000E-02 0. -1.
    -200001    2    1    2    0    0 -0.35252887025E+03  0.10500078223E+02  0.11974902076E+03  0.79100523680E+03  0.69782705641E+03 0.  0.
   -5000001    2    3    3    0    0 -0.71518077008E+02  0.89347807761E+01 -0.30837305219E+02  0.19800797066E+03  0.18182835699E+03 0.  0.
     200001    1    1    2    0    0  0.35252887025E+03 -0.10500078223E+02  0.11630747554E+04  0.14025440252E+04  0.70000000000E+03 0.  1.
         11    1    4    4    0    0  0.59848880962E+02  0.90871924162E+01 -0.14716954644E+02  0.62298108902E+02  0.51100000000E-03 0.  1.
    -200002    1    4    4    0    0 -0.13136695797E+03 -0.15241164012E+00 -0.16120350575E+02  0.13570986176E+03  0.30000000000E+02 0.  1.
    -200000    1    3    3    0    0 -0.28101079324E+03  0.15652974473E+01  0.15058632598E+03  0.59299726614E+03  0.50000000000E+03 0.  1.
<mgrwt>
<rscale>  0 0.17793318E+04</rscale>
<asrwt>0</asrwt>
<pdfrwt beam="1">  1        2 0.24831236E+00 0.17793318E+04</pdfrwt>
<pdfrwt beam="2">  1       -2 0.65051819E-01 0.17793318E+04</pdfrwt>
<totfact> 0.22644240E+01</totfact>
</mgrwt>
</event>
<event>
 8    2  0.7085383E-010  0.1409417E+04  0.7818608E-02  0.8947030E-01
         -2   -1    0    0    0  501 -0.00000000000E+00  0.00000000000E+00  0.64435682823E+03  0.64435682824E+03  0.25500000000E-02 0. -1.
          2   -1    0    0  501    0  0.00000000000E+00 -0.00000000000E+00 -0.77071268711E+03  0.77071268711E+03  0.25500000000E-02 0.  1.
    -200001    2    1    2    0    0  0.11228326948E+02  0.51164583028E+02 -0.11648185222E+03  0.71304288773E+03  0.70151140259E+03 0.  0.
   -5000001    2    3    3    0    0 -0.38217267440E+02 -0.55966996204E+02  0.54531281250E+01  0.18503703406E+03  0.17209329788E+03 0.  0.
     200001    1    1    2    0    0 -0.11228326948E+02 -0.51164583028E+02 -0.98740066533E+01  0.70202662762E+03  0.70000000000E+03 0. -1.
         11    1    4    4    0    0 -0.72667852217E+02  0.88746554583E+01  0.54955586286E+02  0.91539569147E+02  0.51100000000E-03 0.  1.
    -200002    1    4    4    0    0  0.34450584777E+02 -0.64841651663E+02 -0.49502458161E+02  0.93497464916E+02  0.30000000000E+02 0.  1.
    -200000    1    3    3    0    0  0.49445594387E+02  0.10713157923E+03 -0.12193498035E+03  0.52800585367E+03  0.50000000000E+03 0.  1.
<mgrwt>
<rscale>  0 0.14094169E+04</rscale>
<asrwt>0</asrwt>
<pdfrwt beam="1">  1        2 0.11010181E+00 0.14094169E+04</pdfrwt>
<pdfrwt beam="2">  1       -2 0.92050976E-01 0.14094169E+04</pdfrwt>
<totfact> 0.38981790E+01</totfact>
</mgrwt>
</event>
<event>
 8    2  0.7085383E-010  0.1791675E+04  0.7818608E-02  0.8710739E-01
         -2   -1    0    0    0  501 -0.00000000000E+00  0.00000000000E+00  0.61285130775E+03  0.61285130776E+03  0.25500000000E-02 0. -1.
          2   -1    0    0  501    0  0.00000000000E+00 -0.00000000000E+00 -0.13094941815E+04  0.13094941815E+04  0.25500000000E-02 0.  1.
    -200001    2    1    2    0    0 -0.51469861574E+03  0.36198090182E+02 -0.11811811253E+03  0.87787631014E+03  0.70034988443E+03 0.  0.
   -5000001    2    3    3    0    0 -0.15095555710E+03 -0.73726695974E+02 -0.57686455833E+02  0.24696866519E+03  0.17158842759E+03 0.  0.
     200001    1    1    2    0    0  0.51469861574E+03 -0.36198090182E+02 -0.57852476118E+03  0.10444691791E+04  0.70000000000E+03 0.  1.
         11    1    4    4    0    0 -0.12440162535E+03 -0.12261044031E+03 -0.57090953659E+02  0.18376196955E+03  0.51100000000E-03 0.  1.
    -200002    1    4    4    0    0 -0.26553931752E+02  0.48883744334E+02 -0.59550217319E+00  0.63206695646E+02  0.30000000000E+02 0.  1.
    -200000    1    3    3    0    0 -0.36374305864E+03  0.10992478616E+03 -0.60431656702E+02  0.63090764495E+03  0.50000000000E+03 0. -1.
<mgrwt>
<rscale>  0 0.17916754E+04</rscale>
<asrwt>0</asrwt>
<pdfrwt beam="1">  1        2 0.18707060E+00 0.17916754E+04</pdfrwt>
<pdfrwt beam="2">  1       -2 0.87550187E-01 0.17916754E+04</pdfrwt>
<totfact> 0.19794737E+01</totfact>
</mgrwt>
</event>
<event>
 8    2  0.7085383E-010  0.1439021E+04  0.7818608E-02  0.8926048E-01
          2   -1    0    0  501    0  0.00000000000E+00  0.00000000000E+00  0.88543686883E+03  0.88543686883E+03  0.25500000000E-02 0.  1.
         -2   -1    0    0    0  501 -0.00000000000E+00 -0.00000000000E+00 -0.58467779410E+03  0.58467779410E+03  0.25500000000E-02 0. -1.
    -200001    2    1    2    0    0 -0.13791657906E+03 -0.15589927430E+02  0.24275669201E+03  0.75413400327E+03  0.70037365367E+03 0.  0.
   -5000001    2    3    3    0    0 -0.70780275467E+02 -0.14728399897E+02  0.12438663103E+03  0.23594533413E+03  0.18700639978E+03 0.  0.
     200001    1    1    2    0    0  0.13791657906E+03  0.15589927430E+02  0.58002382720E+02  0.71598065967E+03  0.70000000000E+03 0.  1.
         11    1    4    4    0    0 -0.68537659452E+02  0.23324926029E+02 -0.26775469690E+02  0.77190599912E+02  0.51100000000E-03 0.  1.
    -200002    1    4    4    0    0 -0.22426160154E+01 -0.38053325926E+02  0.15116210072E+03  0.15875473421E+03  0.30000000000E+02 0.  1.
    -200000    1    3    3    0    0 -0.67136303594E+02 -0.86152753334E+00  0.11837006098E+03  0.51818866914E+03  0.50000000000E+03 0.  1.
<mgrwt>
<rscale>  0 0.14390209E+04</rscale>
<asrwt>0</asrwt>
<pdfrwt beam="1">  1        2 0.12649098E+00 0.14390209E+04</pdfrwt>
<pdfrwt beam="2">  1       -2 0.83525399E-01 0.14390209E+04</pdfrwt>
<totfact> 0.40534276E+01</totfact>
</mgrwt>
</event>
<event>
 8    2  0.7085383E-010  0.1503789E+04  0.7818608E-02  0.8881937E-01
          2   -1    0    0  501    0  0.00000000000E+00  0.00000000000E+00  0.46407168922E+03  0.46407168922E+03  0.25500000000E-02 0.  1.
         -2   -1    0    0    0  501 -0.00000000000E+00 -0.00000000000E+00 -0.12182277449E+04  0.12182277449E+04  0.25500000000E-02 0. -1.
    -200001    2    1    2    0    0  0.52771303725E+02  0.24524715142E+03 -0.50198731336E+03  0.89711152647E+03  0.69991917560E+03 0.  0.
   -5000001    2    3    3    0    0  0.19343702626E+02  0.75577334809E+02 -0.12557560441E+03  0.24781111386E+03  0.19888439698E+03 0.  0.
     200001    1    1    2    0    0 -0.52771303725E+02 -0.24524715142E+03 -0.25216874237E+03  0.78518790770E+03  0.70000000000E+03 0.  1.
         11    1    4    4    0    0 -0.58700229895E+02  0.51965852529E+01 -0.12536074925E+03  0.13852089713E+03  0.51100000000E-03 0.  1.
    -200002    1    4    4    0    0  0.78043932520E+02  0.70380749556E+02 -0.21485516413E+00  0.10929021674E+03  0.30000000000E+02 0.  1.
    -200000    1    3    3    0    0  0.33427601099E+02  0.16966981661E+03 -0.37641170894E+03  0.64930041261E+03  0.50000000000E+03 0. -1.
<mgrwt>
<rscale>  0 0.15037886E+04</rscale>
<asrwt>0</asrwt>
<pdfrwt beam="1">  1        2 0.66295956E-01 0.15037886E+04</pdfrwt>
<pdfrwt beam="2">  1       -2 0.17403253E+00 0.15037886E+04</pdfrwt>
<totfact> 0.14109715E+01</totfact>
</mgrwt>
</event>
<event>
 8    2  0.7085383E-010  0.2706703E+04  0.7818608E-02  0.8332833E-01
         -2   -1    0    0    0  501 -0.00000000000E+00  0.00000000000E+00  0.96505010052E+03  0.96505010053E+03  0.25500000000E-02 0. -1.
          2   -1    0    0  501    0  0.00000000000E+00 -0.00000000000E+00 -0.18978911792E+04  0.18978911792E+04  0.25500000000E-02 0.  1.
    -200001    2    1    2    0    0 -0.85165409948E+03  0.66730371442E+03 -0.40237674799E+02  0.12953476497E+04  0.71112411758E+03 0.  0.
   -5000001    2    3    3    0    0 -0.16297396346E+03  0.17024051796E+03  0.69220422727E+02  0.30371605168E+03  0.17863265772E+03 0.  0.
     200001    1    1    2    0    0  0.85165409948E+03 -0.66730371442E+03 -0.89260340392E+03  0.15675936301E+04  0.70000000000E+03 0. -1.
         11    1    4    4    0    0 -0.13396198911E+03  0.40032721316E+02  0.88736690280E+02  0.16559780646E+03  0.51100000000E-03 0.  1.
    -200002    1    4    4    0    0 -0.29011974347E+02  0.13020779665E+03 -0.19516267553E+02  0.13811824522E+03  0.30000000000E+02 0.  1.
    -200000    1    3    3    0    0 -0.68868013602E+03  0.49706319645E+03 -0.10945809753E+03  0.99163159799E+03  0.50000000000E+03 0.  1.
<mgrwt>
<rscale>  0 0.27067028E+04</rscale>
<asrwt>0</asrwt>
<pdfrwt beam="1">  1        2 0.27112731E+00 0.27067028E+04</pdfrwt>
<pdfrwt beam="2">  1       -2 0.13786430E+00 0.27067028E+04</pdfrwt>
<totfact> 0.29894269E+00</totfact>
</mgrwt>
</event>
<event>
 8    2  0.7085383E-010  0.1676364E+04  0.7818608E-02  0.8774961E-01
         -2   -1    0    0    0  501 -0.00000000000E+00  0.00000000000E+00  0.28507726840E+03  0.28507726841E+03  0.25500000000E-02 0.  1.
          2   -1    0    0  501    0  0.00000000000E+00 -0.00000000000E+00 -0.24644171833E+04  0.24644171833E+04  0.25500000000E-02 0. -1.
    -200001    2    1    2    0    0  0.30322630253E+03 -0.40641314086E+02 -0.16536689883E+04  0.18221715144E+04  0.70149126733E+03 0.  0.
   -5000001    2    3    3    0    0  0.34943663403E+02 -0.47404604846E+02 -0.17674881094E+03  0.23998488609E+03  0.15127573240E+03 0.  0.
     200001    1    1    2    0    0 -0.30322630253E+03  0.40641314086E+02 -0.52567092662E+03  0.92732293730E+03  0.70000000000E+03 0.  1.
         11    1    4    4    0    0 -0.18217244982E+02  0.45738195616E+02 -0.38728461824E+02  0.62639798119E+02  0.51100000000E-03 0.  1.
    -200002    1    4    4    0    0  0.53160908385E+02 -0.93142800462E+02 -0.13802034912E+03  0.17734508797E+03  0.30000000000E+02 0.  1.
    -200000    1    3    3    0    0  0.26828263913E+03  0.67632907603E+01 -0.14769201773E+04  0.15821866283E+04  0.50000000000E+03 0. -1.
<mgrwt>
<rscale>  0 0.16763643E+04</rscale>
<asrwt>0</asrwt>
<pdfrwt beam="1">  1        2 0.35205959E+00 0.16763643E+04</pdfrwt>
<pdfrwt beam="2">  1       -2 0.40725325E-01 0.16763643E+04</pdfrwt>
<totfact> 0.25125219E+01</totfact>
</mgrwt>
</event>
<event>
 8    2  0.7085383E-010  0.1925535E+04  0.7818608E-02  0.8642249E-01
          2   -1    0    0  501    0  0.00000000000E+00  0.00000000000E+00  0.11409515839E+04  0.11409515839E+04  0.25500000000E-02 0.  1.
         -2   -1    0    0    0  501 -0.00000000000E+00 -0.00000000000E+00 -0.81241074020E+03  0.81241074020E+03  0.25500000000E-02 0. -1.
    -200001    2    1    2    0    0  0.59553697036E+03  0.22316308837E+03 -0.23091120725E+02  0.94434741562E+03  0.69770537797E+03 0.  0.
   -5000001    2    3    3    0    0  0.19788559259E+03  0.16898521760E+02  0.30916153786E+02  0.27085764184E+03  0.18155931754E+03 0.  0.
     200001    1    1    2    0    0 -0.59553697036E+03 -0.22316308837E+03  0.35163196438E+03  0.10090149084E+04  0.70000000000E+03 0. -1.
         11    1    4    4    0    0  0.11779316128E+03 -0.67830085676E+02 -0.24848726428E+02  0.13817962431E+03  0.51100000000E-03 0.  1.
    -200002    1    4    4    0    0  0.80092431308E+02  0.84728607435E+02  0.55764880215E+02  0.13267801753E+03  0.30000000000E+02 0.  1.
    -200000    1    3    3    0    0  0.39765137777E+03  0.20626456661E+03 -0.54007274512E+02  0.67348977378E+03  0.50000000000E+03 0. -1.
<mgrwt>
<rscale>  0 0.19255351E+04</rscale>
<asrwt>0</asrwt>
<pdfrwt beam="1">  1        2 0.16299308E+00 0.19255351E+04</pdfrwt>
<pdfrwt beam="2">  1       -2 0.11605868E+00 0.19255351E+04</pdfrwt>
<totfact> 0.12504190E+01</totfact>
</mgrwt>
</event>
<event>
 8    2  0.7085383E-010  0.2633974E+04  0.7818608E-02  0.8356752E-01
         -2   -1    0    0    0  501 -0.00000000000E+00  0.00000000000E+00  0.14050742664E+04  0.14050742664E+04  0.25500000000E-02 0. -1.
          2   -1    0    0  501    0  0.00000000000E+00 -0.00000000000E+00 -0.12344219790E+04  0.12344219790E+04  0.25500000000E-02 0.  1.
    -200001    2    1    2    0    0  0.79412414352E+02 -0.35535147187E+03 -0.97136546502E+03  0.12514092355E+04  0.69992371588E+03 0.  0.
   -5000001    2    3    3    0    0  0.20152407885E+02 -0.63172327569E+02 -0.30201283789E+03  0.36432787502E+03  0.19268156050E+03 0.  0.
     200001    1    1    2    0    0 -0.79412414352E+02  0.35535147187E+03  0.11420177524E+04  0.13880870099E+04  0.70000000000E+03 0. -1.
         11    1    4    4    0    0  0.92452632682E+02 -0.74087529211E+02 -0.13537131163E+03  0.17989397790E+03  0.51100000000E-03 0.  1.
    -200002    1    4    4    0    0 -0.72300224796E+02  0.10915201641E+02 -0.16664152626E+03  0.18443389712E+03  0.30000000000E+02 0.  1.
    -200000    1    3    3    0    0  0.59260006467E+02 -0.29217914430E+03 -0.66935262714E+03  0.88708136052E+03  0.50000000000E+03 0.  1.
<mgrwt>
<rscale>  0 0.26339738E+04</rscale>
<asrwt>0</asrwt>
<pdfrwt beam="1">  1        2 0.17634600E+00 0.26339738E+04</pdfrwt>
<pdfrwt beam="2">  1       -2 0.20072490E+00 0.26339738E+04</pdfrwt>
<totfact> 0.23851482E+00</totfact>
</mgrwt>
</event>
<event>
 8    2  0.7085383E-010  0.2192265E+04  0.7818608E-02  0.8521654E-01
         -2   -1    0    0    0  501 -0.00000000000E+00  0.00000000000E+00  0.47920295062E+03  0.47920295063E+03  0.25500000000E-02 0. -1.
          2   -1    0    0  501    0  0.00000000000E+00 -0.00000000000E+00 -0.25073019414E+04  0.25073019414E+04  0.25500000000E-02 0.  1.
    -200001    2    1    2    0    0  0.76934791303E+03  0.17540916092E+03 -0.14201619175E+04  0.17690271427E+04  0.69995183735E+03 0.  0.
   -5000001    2    3    3    0    0  0.78933806207E+02 -0.27451831777E+02 -0.23774724172E+03  0.29731769895E+03  0.15776537749E+03 0.  0.
     200001    1    1    2    0    0 -0.76934791303E+03 -0.17540916092E+03 -0.60793707320E+03  0.12174777493E+04  0.70000000000E+03 0. -1.
         11    1    4    4    0    0 -0.19368754665E+02 -0.37912683676E+02 -0.52437527602E+01  0.42895421481E+02  0.51100000000E-03 0.  1.
    -200002    1    4    4    0    0  0.98302560871E+02  0.10460851899E+02 -0.23250348896E+03  0.25442227747E+03  0.30000000000E+02 0.  1.
    -200000    1    3    3    0    0  0.69041410682E+03  0.20286099270E+03 -0.11824146758E+04  0.14717094438E+04  0.50000000000E+03 0.  1.
<mgrwt>
<rscale>  0 0.21922650E+04</rscale>
<asrwt>0</asrwt>
<pdfrwt beam="1">  1        2 0.35818598E+00 0.21922650E+04</pdfrwt>
<pdfrwt beam="2">  1       -2 0.68457566E-01 0.21922650E+04</pdfrwt>
<totfact> 0.78318271E+00</totfact>
</mgrwt>
</event>
<event>
 8    2  0.7085383E-010  0.1538628E+04  0.7818608E-02  0.8859165E-01
         -2   -1    0    0    0  501 -0.00000000000E+00  0.00000000000E+00  0.42768555308E+03  0.42768555308E+03  0.25500000000E-02 0. -1.
          2   -1    0    0  501    0  0.00000000000E+00 -0.00000000000E+00 -0.13838293301E+04  0.13838293301E+04  0.25500000000E-02 0.  1.
    -200001    2    1    2    0    0 -0.10840117121E+03 -0.57965468349E+02 -0.12991186030E+03  0.72166627458E+03  0.69915256631E+03 0.  0.
   -5000001    2    3    3    0    0  0.72365853842E+02 -0.40890022857E+02  0.24646992094E+02  0.16771977262E+03  0.14357450030E+03 0.  0.
     200001    1    1    2    0    0  0.10840117121E+03  0.57965468349E+02 -0.82623191669E+03  0.10898486086E+04  0.70000000000E+03 0.  1.
         11    1    4    4    0    0  0.91510859802E+02  0.21507988789E+02  0.11715420352E+02  0.94731632086E+02  0.51100000000E-03 0.  1.
    -200002    1    4    4    0    0 -0.19145005960E+02 -0.62398011646E+02  0.12931571742E+02  0.72988140532E+02  0.30000000000E+02 0.  1.
    -200000    1    3    3    0    0 -0.18076702505E+03 -0.17075445492E+02 -0.15455885239E+03  0.55394650196E+03  0.50000000000E+03 0.  1.
<mgrwt>
<rscale>  0 0.15386277E+04</rscale>
<asrwt>0</asrwt>
<pdfrwt beam="1">  1        2 0.19768990E+00 0.15386277E+04</pdfrwt>
<pdfrwt beam="2">  1       -2 0.61097937E-01 0.15386277E+04</pdfrwt>
<totfact> 0.40607803E+01</totfact>
</mgrwt>
</event>
<event>
 8    2  0.7085383E-010  0.2078134E+04  0.7818608E-02  0.8570937E-01
         -2   -1    0    0    0  501 -0.00000000000E+00  0.00000000000E+00  0.39715322641E+03  0.39715322642E+03  0.25500000000E-02 0. -1.
          2   -1    0    0  501    0  0.00000000000E+00 -0.00000000000E+00 -0.27184982160E+04  0.27184982160E+04  0.25500000000E-02 0.  1.
    -200001    2    1    2    0    0  0.19410986626E+03 -0.65514869808E+03 -0.16873393069E+04  0.19499492238E+04  0.69877720493E+03 0.  0.
   -5000001    2    3    3    0    0  0.10548683161E+03 -0.19597392942E+03 -0.48330257495E+03  0.56488606197E+03  0.18968824794E+03 0.  0.
     200001    1    1    2    0    0 -0.19410986626E+03  0.65514869808E+03 -0.63400568274E+03  0.11657022186E+04  0.70000000000E+03 0. -1.
         11    1    4    4    0    0 -0.26597236593E+02 -0.99344524464E+02 -0.85686031238E+02  0.13386128449E+03  0.51100000000E-03 0.  1.
    -200002    1    4    4    0    0  0.13208406820E+03 -0.96629404953E+02 -0.39761654371E+03  0.43102477748E+03  0.30000000000E+02 0.  1.
    -200000    1    3    3    0    0  0.88623034652E+02 -0.45917476866E+03 -0.12040367319E+04  0.13850631618E+04  0.50000000000E+03 0.  1.
<mgrwt>
<rscale>  0 0.20781341E+04</rscale>
<asrwt>0</asrwt>
<pdfrwt beam="1">  1        2 0.38835688E+00 0.20781341E+04</pdfrwt>
<pdfrwt beam="2">  1       -2 0.56736177E-01 0.20781341E+04</pdfrwt>
<totfact> 0.91006715E+00</totfact>
</mgrwt>
</event>
<event>
 8    2  0.7085383E-010  0.1623572E+04  0.7818608E-02  0.8806196E-01
         -2   -1    0    0    0  501 -0.00000000000E+00  0.00000000000E+00  0.16237803026E+04  0.16237803026E+04  0.25500000000E-02 0. -1.
          2   -1    0    0  501    0  0.00000000000E+00 -0.00000000000E+00 -0.40584101994E+03  0.40584101995E+03  0.25500000000E-02 0.  1.
    -200001    2    1    2    0    0 -0.23435980565E+03 -0.22859807955E+03  0.29668286017E+03  0.82716758270E+03  0.69928813079E+03 0.  0.
   -5000001    2    3    3    0    0 -0.10002402549E+03 -0.58636741624E+02  0.10088252971E+03  0.24814191174E+03  0.19481799305E+03 0.  0.
     200001    1    1    2    0    0  0.23435980565E+03  0.22859807955E+03  0.92125642244E+03  0.12024537398E+04  0.70000000000E+03 0. -1.
         11    1    4    4    0    0 -0.72829583270E+02 -0.97365660935E+02  0.13567578460E+03  0.18218709794E+03  0.51100000000E-03 0.  1.
    -200002    1    4    4    0    0 -0.27194442215E+02  0.38728919311E+02 -0.34793254882E+02  0.65954813802E+02  0.30000000000E+02 0.  1.
    -200000    1    3    3    0    0 -0.13433578017E+03 -0.16996133793E+03  0.19580033046E+03  0.57902567096E+03  0.50000000000E+03 0.  1.
<mgrwt>
<rscale>  0 0.16235722E+04</rscale>
<asrwt>0</asrwt>
<pdfrwt beam="1">  1        2 0.57977288E-01 0.16235722E+04</pdfrwt>
<pdfrwt beam="2">  1       -2 0.23196862E+00 0.16235722E+04</pdfrwt>
<totfact> 0.67817592E+00</totfact>
</mgrwt>
</event>
<event>
 8    2  0.7085383E-010  0.2484926E+04  0.7818608E-02  0.8408376E-01
         -2   -1    0    0    0  501 -0.00000000000E+00  0.00000000000E+00  0.11947932953E+04  0.11947932953E+04  0.25500000000E-02 0. -1.
          2   -1    0    0  501    0  0.00000000000E+00 -0.00000000000E+00 -0.12920342945E+04  0.12920342945E+04  0.25500000000E-02 0.  1.
    -200001    2    1    2    0    0 -0.62449987854E+03  0.75318049617E+03 -0.35903601930E+03  0.12556421486E+04  0.70032091510E+03 0.  0.
   -5000001    2    3    3    0    0 -0.16369916290E+03  0.20216623317E+03 -0.22613241712E+03  0.37042048992E+03  0.13567191127E+03 0.  0.
     200001    1    1    2    0    0  0.62449987854E+03 -0.75318049617E+03  0.26179502002E+03  0.12311854412E+04  0.70000000000E+03 0.  1.
         11    1    4    4    0    0 -0.87774224728E+02  0.17954335198E+03 -0.19756524790E+03  0.28101985151E+03  0.51100000000E-03 0.  1.
    -200002    1    4    4    0    0 -0.75924938172E+02  0.22622881197E+02 -0.28567169221E+02  0.89400638406E+02  0.30000000000E+02 0.  1.
    -200000    1    3    3    0    0 -0.46080071564E+03  0.55101426300E+03 -0.13290360217E+03  0.88522165870E+03  0.50000000000E+03 0.  1.
<mgrwt>
<rscale>  0 0.24849257E+04</rscale>
<asrwt>0</asrwt>
<pdfrwt beam="1">  1        2 0.18457633E+00 0.24849257E+04</pdfrwt>
<pdfrwt beam="2">  1       -2 0.17068476E+00 0.24849257E+04</pdfrwt>
<totfact> 0.35902018E+00</totfact>
</mgrwt>
</event>
<event>
 8    2  0.7085383E-010  0.3131080E+04  0.7818608E-02  0.8207260E-01
          2   -1    0    0  501    0  0.00000000000E+00  0.00000000000E+00  0.16996570287E+04  0.16996570287E+04  0.25500000000E-02 0.  1.
         -2   -1    0    0    0  501 -0.00000000000E+00 -0.00000000000E+00 -0.14420056670E+04  0.14420056670E+04  0.25500000000E-02 0. -1.
    -200001    2    1    2    0    0 -0.31338891699E+03 -0.11589282075E+04  0.85110145236E+03  0.16305339078E+04  0.70209681592E+03 0.  0.
   -5000001    2    3    3    0    0 -0.15526067534E+03 -0.25830479985E+03  0.26496426690E+03  0.43484002417E+03  0.16748891593E+03 0.  0.
     200001    1    1    2    0    0  0.31338891699E+03  0.11589282075E+04 -0.59345009066E+03  0.15111287879E+04  0.70000000000E+03 0. -1.
         11    1    4    4    0    0  0.92511617488E+01 -0.18270218859E+02  0.93575315445E+02  0.95790002358E+02  0.51100000000E-03 0.  1.
    -200002    1    4    4    0    0 -0.16451183708E+03 -0.24003458099E+03  0.17138895145E+03  0.33905002181E+03  0.30000000000E+02 0.  1.
    -200000    1    3    3    0    0 -0.15812824166E+03 -0.90062340767E+03  0.58613718546E+03  0.11956938837E+04  0.50000000000E+03 0.  1.
<mgrwt>
<rscale>  0 0.31310797E+04</rscale>
<asrwt>0</asrwt>
<pdfrwt beam="1">  1        2 0.24280815E+00 0.31310797E+04</pdfrwt>
<pdfrwt beam="2">  1       -2 0.20600081E+00 0.31310797E+04</pdfrwt>
<totfact> 0.11908794E+00</totfact>
</mgrwt>
</event>
<event>
 8    2  0.7085383E-010  0.1567773E+04  0.7818608E-02  0.8840595E-01
          2   -1    0    0  501    0  0.00000000000E+00  0.00000000000E+00  0.35029829845E+04  0.35029829845E+04  0.25500000000E-02 0.  1.
         -2   -1    0    0    0  501 -0.00000000000E+00 -0.00000000000E+00 -0.17541567182E+03  0.17541567184E+03  0.25500000000E-02 0. -1.
    -200001    2    1    2    0    0 -0.22577046165E+03  0.93139396856E+02  0.22669373870E+04  0.23843418231E+04  0.69744789327E+03 0.  0.
   -5000001    2    3    3    0    0  0.20803923561E+02 -0.57800520072E+01  0.59828374098E+03  0.62224393267E+03  0.16964039845E+03 0.  0.
     200001    1    1    2    0    0  0.22577046165E+03 -0.93139396856E+02  0.10606299256E+04  0.12940568333E+04  0.70000000000E+03 0. -1.
         11    1    4    4    0    0  0.18533824903E+02  0.78639703665E+02  0.30963463008E+03  0.32000204656E+03  0.51100000000E-03 0.  1.
    -200002    1    4    4    0    0  0.22700986571E+01 -0.84419755672E+02  0.28864911090E+03  0.30224188611E+03  0.30000000000E+02 0.  1.
    -200000    1    3    3    0    0 -0.24657438521E+03  0.98919448863E+02  0.16686536460E+04  0.17620978904E+04  0.50000000000E+03 0. -1.
<mgrwt>
<rscale>  0 0.15677731E+04</rscale>
<asrwt>0</asrwt>
<pdfrwt beam="1">  1        2 0.50042610E+00 0.15677731E+04</pdfrwt>
<pdfrwt beam="2">  1       -2 0.25059384E-01 0.15677731E+04</pdfrwt>
<totfact> 0.16615428E+01</totfact>
</mgrwt>
</event>
<event>
 8    2  0.7085383E-010  0.1654478E+04  0.7818608E-02  0.8787762E-01
         -2   -1    0    0    0  501 -0.00000000000E+00  0.00000000000E+00  0.76641302267E+03  0.76641302268E+03  0.25500000000E-02 0.  1.
          2   -1    0    0  501    0  0.00000000000E+00 -0.00000000000E+00 -0.89289190207E+03  0.89289190208E+03  0.25500000000E-02 0. -1.
    -200001    2    1    2    0    0  0.26935474104E+03  0.31525603809E+03  0.87259386043E+02  0.81810198123E+03  0.69981305015E+03 0.  0.
   -5000001    2    3    3    0    0 -0.19329762364E+02  0.39732439352E+02  0.42934566042E+02  0.17684018942E+03  0.16576118117E+03 0.  0.
     200001    1    1    2    0    0 -0.26935474104E+03 -0.31525603809E+03 -0.21373826544E+03  0.84120294352E+03  0.70000000000E+03 0. -1.
         11    1    4    4    0    0 -0.61956848058E+01  0.60424501394E+02  0.94504313009E+02  0.11234131945E+03  0.51100000000E-03 0.  1.
    -200002    1    4    4    0    0 -0.13134077558E+02 -0.20692062043E+02 -0.51569746967E+02  0.64498869968E+02  0.30000000000E+02 0.  1.
    -200000    1    3    3    0    0  0.28868450340E+03  0.27552359874E+03  0.44324820001E+02  0.64126179181E+03  0.50000000000E+03 0.  1.
<mgrwt>
<rscale>  0 0.16544775E+04</rscale>
<asrwt>0</asrwt>
<pdfrwt beam="1">  1        2 0.12755598E+00 0.16544775E+04</pdfrwt>
<pdfrwt beam="2">  1       -2 0.10948758E+00 0.16544775E+04</pdfrwt>
<totfact> 0.20912755E+01</totfact>
</mgrwt>
</event>
<event>
 8    2  0.7085383E-010  0.1540442E+04  0.7818608E-02  0.8857996E-01
          2   -1    0    0  501    0  0.00000000000E+00  0.00000000000E+00  0.39279757999E+04  0.39279757999E+04  0.25500000000E-02 0.  1.
         -2   -1    0    0    0  501 -0.00000000000E+00 -0.00000000000E+00 -0.15102963189E+03  0.15102963191E+03  0.25500000000E-02 0. -1.
    -200001    2    1    2    0    0 -0.21109242265E+03 -0.14598869985E+03  0.23978644099E+04  0.25112875979E+04  0.70067036427E+03 0.  0.
   -5000001    2    3    3    0    0 -0.13853553223E+03  0.39676578682E+01  0.10302511450E+04  0.10456418514E+04  0.11287880104E+03 0.  0.
     200001    1    1    2    0    0  0.21109242265E+03  0.14598869985E+03  0.13790817581E+04  0.15677178339E+04  0.70000000000E+03 0. -1.
         11    1    4    4    0    0 -0.82835966187E+02  0.46841069643E+02  0.42130035444E+03  0.43191419490E+03  0.51100000000E-03 0.  1.
    -200002    1    4    4    0    0 -0.55699566039E+02 -0.42873411775E+02  0.60895079056E+03  0.61372765655E+03  0.30000000000E+02 0.  1.
    -200000    1    3    3    0    0 -0.72556890426E+02 -0.14995635772E+03  0.13676132649E+04  0.14656457464E+04  0.50000000000E+03 0.  1.
<mgrwt>
<rscale>  0 0.15404425E+04</rscale>
<asrwt>0</asrwt>
<pdfrwt beam="1">  1        2 0.56113953E+00 0.15404425E+04</pdfrwt>
<pdfrwt beam="2">  1       -2 0.21575657E-01 0.15404425E+04</pdfrwt>
<totfact> 0.11683764E+01</totfact>
</mgrwt>
</event>
<event>
 8    2  0.7085383E-010  0.1575530E+04  0.7818608E-02  0.8835723E-01
         -2   -1    0    0    0  501 -0.00000000000E+00  0.00000000000E+00  0.35475807669E+03  0.35475807670E+03  0.25500000000E-02 0. -1.
          2   -1    0    0  501    0  0.00000000000E+00 -0.00000000000E+00 -0.17492877159E+04  0.17492877159E+04  0.25500000000E-02 0.  1.
    -200001    2    1    2    0    0  0.15549161616E+03 -0.26707787013E+03 -0.44555472653E+03  0.88500452329E+03  0.69943245600E+03 0.  0.
   -5000001    2    3    3    0    0 -0.32542466380E+02 -0.44962603652E+02 -0.18202601714E+03  0.24928494009E+03  0.16102441613E+03 0.  0.
     200001    1    1    2    0    0 -0.15549161616E+03  0.26707787013E+03 -0.94897491272E+03  0.12190412693E+04  0.70000000000E+03 0.  1.
         11    1    4    4    0    0 -0.52694503187E+02 -0.94703208083E+02 -0.12482187024E+03  0.16530549772E+03  0.51100000000E-03 0.  1.
    -200002    1    4    4    0    0  0.20152036808E+02  0.49740604430E+02 -0.57204146906E+02  0.83979442364E+02  0.30000000000E+02 0.  1.
    -200000    1    3    3    0    0  0.18803408254E+03 -0.22211526648E+03 -0.26352870938E+03  0.63571958320E+03  0.50000000000E+03 0. -1.
<mgrwt>
<rscale>  0 0.15755303E+04</rscale>
<asrwt>0</asrwt>
<pdfrwt beam="1">  1        2 0.24989824E+00 0.15755303E+04</pdfrwt>
<pdfrwt beam="2">  1       -2 0.50679726E-01 0.15755303E+04</pdfrwt>
<totfact> 0.38302857E+01</totfact>
</mgrwt>
</event>
<event>
 8    2  0.1136922E-009  0.1453037E+04  0.7818608E-02  0.8916298E-01
         -2   -1    0    0    0  501 -0.00000000000E+00  0.00000000000E+00  0.24264106318E+03  0.24264106319E+03  0.25500000000E-02 0. -1.
          2   -1    0    0  501    0  0.00000000000E+00 -0.00000000000E+00 -0.21753493813E+04  0.21753493813E+04  0.25500000000E-02 0.  1.
    -200001    2    1    2    0    0 -0.55095528006E+02  0.15978682136E+03 -0.91054130577E+03  0.11676333968E+04  0.71113636837E+03 0.  0.
   -5000001    2    3    3    0    0 -0.58328201313E+02  0.81389688732E+02 -0.32004116542E+03  0.38991431109E+03  0.19894813880E+03 0.  0.
     200001    1    1    2    0    0  0.55095528006E+02 -0.15978682136E+03 -0.10221670124E+04  0.12503570477E+04  0.70000000000E+03 0.  1.
         11    1    4    4    0    0 -0.39339826885E+01  0.13799123781E+03 -0.21304170878E+03  0.25385788861E+03  0.51100000000E-03 0.  1.
    -200002    1    4    4    0    0 -0.54394218624E+02 -0.56601549074E+02 -0.10699945664E+03  0.13605642248E+03  0.30000000000E+02 0.  1.
    -200000    1    3    3    0    0  0.32326733066E+01  0.78397132633E+02 -0.59050014035E+03  0.77771908575E+03  0.50000000000E+03 0. -1.
<mgrwt>
<rscale>  0 0.14530369E+04</rscale>
<asrwt>0</asrwt>
<pdfrwt beam="1">  1        2 0.31076419E+00 0.14530369E+04</pdfrwt>
<pdfrwt beam="2">  1       -2 0.34663010E-01 0.14530369E+04</pdfrwt>
<totfact> 0.49363331E+01</totfact>
</mgrwt>
</event>
<event>
 8    2  0.7085383E-010  0.1721584E+04  0.7818608E-02  0.8749149E-01
          2   -1    0    0  501    0  0.00000000000E+00  0.00000000000E+00  0.16849840533E+04  0.16849840533E+04  0.25500000000E-02 0.  1.
         -2   -1    0    0    0  501 -0.00000000000E+00 -0.00000000000E+00 -0.43974473309E+03  0.43974473310E+03  0.25500000000E-02 0. -1.
    -200001    2    1    2    0    0  0.45559669824E+03  0.16601051038E+03  0.77807825206E+03  0.11534578126E+04  0.69995093975E+03 0.  0.
   -5000001    2    3    3    0    0  0.21867415690E+03  0.78597393915E+02  0.26266997874E+03  0.39226202191E+03  0.17572148097E+03 0.  0.
     200001    1    1    2    0    0 -0.45559669824E+03 -0.16601051038E+03  0.46716106816E+03  0.97127097383E+03  0.70000000000E+03 0. -1.
         11    1    4    4    0    0  0.93834341175E+02  0.33048730893E+02  0.23226858853E+03  0.25267726336E+03  0.51100000000E-03 0.  1.
    -200002    1    4    4    0    0  0.12483981572E+03  0.45548663023E+02  0.30401390203E+02  0.13958475855E+03  0.30000000000E+02 0.  1.
    -200000    1    3    3    0    0  0.23692254134E+03  0.87413116465E+02  0.51540827332E+03  0.76119579067E+03  0.50000000000E+03 0.  1.
<mgrwt>
<rscale>  0 0.17215840E+04</rscale>
<asrwt>0</asrwt>
<pdfrwt beam="1">  1        2 0.24071201E+00 0.17215840E+04</pdfrwt>
<pdfrwt beam="2">  1       -2 0.62820676E-01 0.17215840E+04</pdfrwt>
<totfact> 0.26124233E+01</totfact>
</mgrwt>
</event>
<event>
 8    2  0.7085383E-010  0.1883902E+04  0.7818608E-02  0.8662911E-01
         -2   -1    0    0    0  501 -0.00000000000E+00  0.00000000000E+00  0.53527137194E+03  0.53527137194E+03  0.25500000000E-02 0. -1.
          2   -1    0    0  501    0  0.00000000000E+00 -0.00000000000E+00 -0.16576114463E+04  0.16576114463E+04  0.25500000000E-02 0.  1.
    -200001    2    1    2    0    0 -0.16831933678E+03  0.57799741159E+03 -0.78010031141E+03  0.12082303606E+04  0.69917930571E+03 0.  0.
   -5000001    2    3    3    0    0 -0.13005983603E+03  0.12875267009E+03 -0.11218847322E+03  0.25986816676E+03  0.14646637692E+03 0.  0.
     200001    1    1    2    0    0  0.16831933678E+03 -0.57799741159E+03 -0.34223976296E+03  0.98465245762E+03  0.70000000000E+03 0. -1.
         11    1    4    4    0    0 -0.57726021380E+02 -0.11580605525E+02 -0.74226780732E+02  0.94741854250E+02  0.51100000000E-03 0.  1.
    -200002    1    4    4    0    0 -0.72333814646E+02  0.14033327562E+03 -0.37961692491E+02  0.16512631251E+03  0.30000000000E+02 0.  1.
    -200000    1    3    3    0    0 -0.38259500757E+02  0.44924474150E+03 -0.66791183819E+03  0.94836219387E+03  0.50000000000E+03 0.  1.
<mgrwt>
<rscale>  0 0.18839023E+04</rscale>
<asrwt>0</asrwt>
<pdfrwt beam="1">  1        2 0.23680163E+00 0.18839023E+04</pdfrwt>
<pdfrwt beam="2">  1       -2 0.76467340E-01 0.18839023E+04</pdfrwt>
<totfact> 0.17370773E+01</totfact>
</mgrwt>
</event>
<event>
 8    2  0.7085383E-010  0.1784141E+04  0.7818608E-02  0.8714779E-01
          2   -1    0    0  501    0  0.00000000000E+00  0.00000000000E+00  0.27619809687E+04  0.27619809687E+04  0.25500000000E-02 0.  1.
         -2   -1    0    0    0  501 -0.00000000000E+00 -0.00000000000E+00 -0.28812276267E+03  0.28812276268E+03  0.25500000000E-02 0. -1.
    -200001    2    1    2    0    0 -0.15418273639E+03  0.38568479223E+02  0.21422409583E+04  0.22593889644E+04  0.70027303602E+03 0.  0.
   -5000001    2    3    3    0    0 -0.11595478168E+03  0.56429398931E+02  0.50041963551E+03  0.54260195223E+03  0.16543058515E+03 0.  0.
     200001    1    1    2    0    0  0.15418273639E+03 -0.38568479223E+02  0.33161724769E+03  0.79071476700E+03  0.70000000000E+03 0. -1.
         11    1    4    4    0    0 -0.38194479786E+02  0.30197258581E+02  0.42320372695E+03  0.42599540751E+03  0.51100000000E-03 0.  1.
    -200002    1    4    4    0    0 -0.77760301891E+02  0.26232140350E+02  0.77215908553E+02  0.11660654472E+03  0.30000000000E+02 0.  1.
    -200000    1    3    3    0    0 -0.38227954712E+02 -0.17860919708E+02  0.16418213228E+04  0.17167870122E+04  0.50000000000E+03 0.  1.
<mgrwt>
<rscale>  0 0.17841408E+04</rscale>
<asrwt>0</asrwt>
<pdfrwt beam="1">  1        2 0.39456869E+00 0.17841408E+04</pdfrwt>
<pdfrwt beam="2">  1       -2 0.41160397E-01 0.17841408E+04</pdfrwt>
<totfact> 0.16933633E+01</totfact>
</mgrwt>
</event>
<event>
 8    2  0.7085383E-010  0.1826212E+04  0.7818608E-02  0.8692483E-01
          2   -1    0    0  501    0  0.00000000000E+00  0.00000000000E+00  0.41276705827E+03  0.41276705828E+03  0.25500000000E-02 0.  1.
         -2   -1    0    0    0  501 -0.00000000000E+00 -0.00000000000E+00 -0.20199354147E+04  0.20199354147E+04  0.25500000000E-02 0. -1.
    -200001    2    1    2    0    0 -0.23522422308E+03  0.53263150260E+03 -0.89310664683E+03  0.12755893075E+04  0.70032981231E+03 0.  0.
   -5000001    2    3    3    0    0 -0.41859449805E+02  0.25457487469E+03 -0.37173639101E+03  0.47775952140E+03  0.15331547713E+03 0.  0.
     200001    1    1    2    0    0  0.23522422308E+03 -0.53263150260E+03 -0.71406170957E+03  0.11571131655E+04  0.70000000000E+03 0. -1.
         11    1    4    4    0    0 -0.43141347404E+02  0.25163515780E+03 -0.26978242511E+03  0.37143503523E+03  0.51100000000E-03 0.  1.
    -200002    1    4    4    0    0  0.12818975988E+01  0.29397168884E+01 -0.10195396589E+03  0.10632448617E+03  0.30000000000E+02 0.  1.
    -200000    1    3    3    0    0 -0.19336477327E+03  0.27805662790E+03 -0.52137025583E+03  0.79782978606E+03  0.50000000000E+03 0.  1.
<mgrwt>
<rscale>  0 0.18262123E+04</rscale>
<asrwt>0</asrwt>
<pdfrwt beam="1">  1        2 0.58966724E-01 0.18262123E+04</pdfrwt>
<pdfrwt beam="2">  1       -2 0.28856220E+00 0.18262123E+04</pdfrwt>
<totfact> 0.29481914E+00</totfact>
</mgrwt>
</event>
<event>
 8    2  0.7085383E-010  0.1841413E+04  0.7818608E-02  0.8684582E-01
         -2   -1    0    0    0  501 -0.00000000000E+00  0.00000000000E+00  0.73294935221E+03  0.73294935222E+03  0.25500000000E-02 0. -1.
          2   -1    0    0  501    0  0.00000000000E+00 -0.00000000000E+00 -0.11565602385E+04  0.11565602385E+04  0.25500000000E-02 0.  1.
    -200001    2    1    2    0    0  0.51758335775E+03 -0.28159084421E+03 -0.31790953295E+03  0.96844568855E+03  0.69973898332E+03 0.  0.
   -5000001    2    3    3    0    0  0.17370608292E+03 -0.64649572167E+02 -0.72044209634E+02  0.27868859155E+03  0.19525263761E+03 0.  0.
     200001    1    1    2    0    0 -0.51758335775E+03  0.28159084421E+03 -0.10570135333E+03  0.92106390216E+03  0.70000000000E+03 0.  1.
         11    1    4    4    0    0  0.94570907346E+02 -0.11776856944E+03  0.71222677736E+01  0.15120786740E+03  0.51100000000E-03 0.  1.
    -200002    1    4    4    0    0  0.79135175575E+02  0.53118997274E+02 -0.79166477408E+02  0.12748072415E+03  0.30000000000E+02 0.  1.
    -200000    1    3    3    0    0  0.34387727483E+03 -0.21694127204E+03 -0.24586532331E+03  0.68975709700E+03  0.50000000000E+03 0. -1.
<mgrwt>
<rscale>  0 0.18414126E+04</rscale>
<asrwt>0</asrwt>
<pdfrwt beam="1">  1        2 0.16522289E+00 0.18414126E+04</pdfrwt>
<pdfrwt beam="2">  1       -2 0.10470705E+00 0.18414126E+04</pdfrwt>
<totfact> 0.15818174E+01</totfact>
</mgrwt>
</event>
<event>
 8    2  0.7085383E-010  0.1472609E+04  0.7818608E-02  0.8902875E-01
         -2   -1    0    0    0  501 -0.00000000000E+00  0.00000000000E+00  0.94504137754E+03  0.94504137755E+03  0.25500000000E-02 0. -1.
          2   -1    0    0  501    0  0.00000000000E+00 -0.00000000000E+00 -0.57367226603E+03  0.57367226604E+03  0.25500000000E-02 0.  1.
    -200001    2    1    2    0    0  0.15481581826E+03 -0.16328551770E+03  0.14774391562E+03  0.75018366622E+03  0.70022651377E+03 0.  0.
   -5000001    2    3    3    0    0  0.98853063272E+02 -0.19689047833E+02  0.11259636260E+02  0.20946217171E+03  0.18327038836E+03 0.  0.
     200001    1    1    2    0    0 -0.15481581826E+03  0.16328551770E+03  0.22362519589E+03  0.76852997737E+03  0.70000000000E+03 0. -1.
         11    1    4    4    0    0 -0.37628248010E+02 -0.31389428882E+02 -0.36740639816E+02  0.61245864416E+02  0.51100000000E-03 0.  1.
    -200002    1    4    4    0    0  0.13648131128E+03  0.11700381049E+02  0.48000276076E+02  0.14821630730E+03  0.30000000000E+02 0.  1.
    -200000    1    3    3    0    0  0.55962754991E+02 -0.14359646987E+03  0.13648427936E+03  0.54072149450E+03  0.50000000000E+03 0.  1.
<mgrwt>
<rscale>  0 0.14726086E+04</rscale>
<asrwt>0</asrwt>
<pdfrwt beam="1">  1        2 0.81953182E-01 0.14726086E+04</pdfrwt>
<pdfrwt beam="2">  1       -2 0.13500591E+00 0.14726086E+04</pdfrwt>
<totfact> 0.21885688E+01</totfact>
</mgrwt>
</event>
<event>
 8    2  0.7085383E-010  0.1599640E+04  0.7818608E-02  0.8820769E-01
          2   -1    0    0  501    0  0.00000000000E+00  0.00000000000E+00  0.17401681163E+04  0.17401681164E+04  0.25500000000E-02 0.  1.
         -2   -1    0    0    0  501 -0.00000000000E+00 -0.00000000000E+00 -0.36761522989E+03  0.36761522990E+03  0.25500000000E-02 0. -1.
    -200001    2    1    2    0    0  0.12622700157E+03 -0.13203321009E+03  0.11355301779E+04  0.13465042983E+04  0.70019926872E+03 0.  0.
   -5000001    2    3    3    0    0  0.55553614723E+02 -0.57082044909E+02  0.29800529591E+03  0.36565755557E+03  0.19635103156E+03 0.  0.
     200001    1    1    2    0    0 -0.12622700157E+03  0.13203321009E+03  0.23702270857E+03  0.76127904796E+03  0.70000000000E+03 0. -1.
         11    1    4    4    0    0  0.67367939479E+02 -0.49794911559E+01  0.65921529434E+01  0.67872609221E+02  0.51100000000E-03 0.  1.
    -200002    1    4    4    0    0 -0.11814324756E+02 -0.52102553753E+02  0.29141314297E+03  0.29778494635E+03  0.30000000000E+02 0.  1.
    -200000    1    3    3    0    0  0.70673386845E+02 -0.74951165179E+02  0.83752488197E+03  0.98084674271E+03  0.50000000000E+03 0.  1.
<mgrwt>
<rscale>  0 0.15996403E+04</rscale>
<asrwt>0</asrwt>
<pdfrwt beam="1">  1        2 0.24859544E+00 0.15996403E+04</pdfrwt>
<pdfrwt beam="2">  1       -2 0.52516462E-01 0.15996403E+04</pdfrwt>
<totfact> 0.35929491E+01</totfact>
</mgrwt>
</event>
<event>
 8    2  0.7085383E-010  0.1455809E+04  0.7818608E-02  0.8914383E-01
         -2   -1    0    0    0  501 -0.00000000000E+00  0.00000000000E+00  0.32391123776E+03  0.32391123777E+03  0.25500000000E-02 0. -1.
          2   -1    0    0  501    0  0.00000000000E+00 -0.00000000000E+00 -0.16357713892E+04  0.16357713892E+04  0.25500000000E-02 0.  1.
    -200001    2    1    2    0    0  0.26043685171E+02 -0.19026305415E+03 -0.58550678089E+03  0.93280993659E+03  0.70031270446E+03 0.  0.
   -5000001    2    3    3    0    0  0.75957557143E+02 -0.11042752396E+03 -0.29695892683E+03  0.34789543807E+03  0.12199525840E+03 0.  0.
     200001    1    1    2    0    0 -0.26043685171E+02  0.19026305415E+03 -0.72635337053E+03  0.10268726904E+04  0.70000000000E+03 0.  1.
         11    1    4    4    0    0  0.21657305569E+02  0.22552145726E+02 -0.30362460789E+02  0.43583450836E+02  0.51100000000E-03 0.  1.
    -200002    1    4    4    0    0  0.54300251574E+02 -0.13297966969E+03 -0.26659646604E+03  0.30431198724E+03  0.30000000000E+02 0.  1.
    -200000    1    3    3    0    0 -0.49913871971E+02 -0.79835530185E+02 -0.28854785406E+03  0.58491449852E+03  0.50000000000E+03 0. -1.
<mgrwt>
<rscale>  0 0.14558087E+04</rscale>
<asrwt>0</asrwt>
<pdfrwt beam="1">  1        2 0.23368162E+00 0.14558087E+04</pdfrwt>
<pdfrwt beam="2">  1       -2 0.46273035E-01 0.14558087E+04</pdfrwt>
<totfact> 0.53244530E+01</totfact>
</mgrwt>
</event>
<event>
 8    2  0.7085383E-010  0.2429235E+04  0.7818608E-02  0.8428639E-01
         -2   -1    0    0    0  501 -0.00000000000E+00  0.00000000000E+00  0.21940028829E+04  0.21940028829E+04  0.25500000000E-02 0. -1.
          2   -1    0    0  501    0  0.00000000000E+00 -0.00000000000E+00 -0.67242184975E+03  0.67242184976E+03  0.25500000000E-02 0.  1.
    -200001    2    1    2    0    0 -0.63047679995E+03  0.50407255149E+03  0.78753875385E+02  0.10710583802E+04  0.69955253442E+03 0.  0.
   -5000001    2    3    3    0    0 -0.31272117328E+03  0.15668427681E+03  0.59297784691E+02  0.38401704872E+03  0.14699786264E+03 0.  0.
     200001    1    1    2    0    0  0.63047679995E+03 -0.50407255149E+03  0.14428271578E+04  0.17953663525E+04  0.70000000000E+03 0.  1.
         11    1    4    4    0    0 -0.15502680062E+03  0.41863676354E+02  0.90312525181E+02  0.18423416761E+03  0.51100000000E-03 0.  1.
    -200002    1    4    4    0    0 -0.15769437266E+03  0.11482060046E+03 -0.31014740490E+02  0.19978288111E+03  0.30000000000E+02 0.  1.
    -200000    1    3    3    0    0 -0.31775562667E+03  0.34738827468E+03  0.19456090695E+02  0.68704133146E+03  0.50000000000E+03 0. -1.
<mgrwt>
<rscale>  0 0.24292348E+04</rscale>
<asrwt>0</asrwt>
<pdfrwt beam="1">  1        2 0.96060265E-01 0.24292348E+04</pdfrwt>
<pdfrwt beam="2">  1       -2 0.31342898E+00 0.24292348E+04</pdfrwt>
<totfact> 0.11206781E+00</totfact>
</mgrwt>
</event>
<event>
 8    2  0.7085383E-010  0.1696335E+04  0.7818608E-02  0.8763458E-01
          2   -1    0    0  501    0  0.00000000000E+00  0.00000000000E+00  0.34942838037E+04  0.34942838037E+04  0.25500000000E-02 0.  1.
         -2   -1    0    0    0  501 -0.00000000000E+00 -0.00000000000E+00 -0.20587560144E+03  0.20587560145E+03  0.25500000000E-02 0. -1.
    -200001    2    1    2    0    0 -0.28830889514E+03 -0.22268313469E+03  0.96518871390E+03  0.12465786364E+04  0.69975656188E+03 0.  0.
   -5000001    2    3    3    0    0 -0.12146099165E+03 -0.19405409862E+02  0.18010114392E+03  0.27935449032E+03  0.17456565182E+03 0.  0.
     200001    1    1    2    0    0  0.28830889514E+03  0.22268313469E+03  0.23232194884E+04  0.24535807687E+04  0.70000000000E+03 0. -1.
         11    1    4    4    0    0  0.19536455569E+02 -0.26243094430E+02  0.11763487524E+03  0.12209970096E+03  0.51100000000E-03 0.  1.
    -200002    1    4    4    0    0 -0.14099744722E+03  0.68376845680E+01  0.62466268678E+02  0.15725478935E+03  0.30000000000E+02 0.  1.
    -200000    1    3    3    0    0 -0.16684790350E+03 -0.20327772483E+03  0.78508756998E+03  0.96722414612E+03  0.50000000000E+03 0. -1.
<mgrwt>
<rscale>  0 0.16963346E+04</rscale>
<asrwt>0</asrwt>
<pdfrwt beam="1">  1        2 0.49918340E+00 0.16963346E+04</pdfrwt>
<pdfrwt beam="2">  1       -2 0.29410800E-01 0.16963346E+04</pdfrwt>
<totfact> 0.12385461E+01</totfact>
</mgrwt>
</event>
<event>
 8    2  0.7085383E-010  0.1519755E+04  0.7818608E-02  0.8871421E-01
          2   -1    0    0  501    0  0.00000000000E+00  0.00000000000E+00  0.75470802538E+03  0.75470802539E+03  0.25500000000E-02 0.  1.
         -2   -1    0    0    0  501 -0.00000000000E+00 -0.00000000000E+00 -0.76508251917E+03  0.76508251918E+03  0.25500000000E-02 0. -1.
    -200001    2    1    2    0    0  0.48608722907E+02  0.14492212583E+03  0.25261971814E+03  0.75655323808E+03  0.69655642238E+03 0.  0.
   -5000001    2    3    3    0    0 -0.28889251262E+02  0.11347501612E+03 -0.37405948669E+01  0.18847272725E+03  0.14763742325E+03 0.  0.
     200001    1    1    2    0    0 -0.48608722907E+02 -0.14492212583E+03 -0.26299421193E+03  0.76323730648E+03  0.70000000000E+03 0. -1.
         11    1    4    4    0    0 -0.54325041487E+02 -0.24108020582E+01 -0.31696164625E+02  0.62941790182E+02  0.51100000000E-03 0.  1.
    -200002    1    4    4    0    0  0.25435790225E+02  0.11588581818E+03  0.27955569758E+02  0.12553093706E+03  0.30000000000E+02 0.  1.
    -200000    1    3    3    0    0  0.77497974169E+02  0.31447109707E+02  0.25636031300E+03  0.56808051084E+03  0.50000000000E+03 0.  1.
<mgrwt>
<rscale>  0 0.15197551E+04</rscale>
<asrwt>0</asrwt>
<pdfrwt beam="1">  1        2 0.10781543E+00 0.15197551E+04</pdfrwt>
<pdfrwt beam="2">  1       -2 0.10929750E+00 0.15197551E+04</pdfrwt>
<totfact> 0.26425238E+01</totfact>
</mgrwt>
</event>
<event>
 8    2  0.7085383E-010  0.1543881E+04  0.7818608E-02  0.8855785E-01
          2   -1    0    0  501    0  0.00000000000E+00  0.00000000000E+00  0.10480601625E+04  0.10480601625E+04  0.25500000000E-02 0.  1.
         -2   -1    0    0    0  501 -0.00000000000E+00 -0.00000000000E+00 -0.56856708908E+03  0.56856708909E+03  0.25500000000E-02 0. -1.
    -200001    2    1    2    0    0  0.23957553205E+03 -0.21166304756E+03  0.30224698996E+03  0.82693499798E+03  0.70019323525E+03 0.  0.
   -5000001    2    3    3    0    0 -0.74251880207E+02 -0.78256919556E+02  0.13843950807E+03  0.19994398466E+03  0.95784197198E+02 0.  0.
     200001    1    1    2    0    0 -0.23957553205E+03  0.21166304756E+03  0.17724608341E+03  0.78969225357E+03  0.70000000000E+03 0. -1.
         11    1    4    4    0    0 -0.44885647972E+02  0.85030223793E+01  0.61536902252E+02  0.76640805857E+02  0.51100000000E-03 0.  1.
    -200002    1    4    4    0    0 -0.29366232235E+02 -0.86759941935E+02  0.76902605817E+02  0.12330317880E+03  0.30000000000E+02 0.  1.
    -200000    1    3    3    0    0  0.31382741225E+03 -0.13340612800E+03  0.16380748189E+03  0.62699101333E+03  0.50000000000E+03 0.  1.
<mgrwt>
<rscale>  0 0.15438815E+04</rscale>
<asrwt>0</asrwt>
<pdfrwt beam="1">  1        2 0.14972288E+00 0.15438815E+04</pdfrwt>
<pdfrwt beam="2">  1       -2 0.81223869E-01 0.15438815E+04</pdfrwt>
<totfact> 0.33836578E+01</totfact>
</mgrwt>
</event>
<event>
 8    2  0.7085383E-010  0.1722313E+04  0.7818608E-02  0.8748740E-01
         -2   -1    0    0    0  501 -0.00000000000E+00  0.00000000000E+00  0.35837819405E+03  0.35837819406E+03  0.25500000000E-02 0. -1.
          2   -1    0    0  501    0  0.00000000000E+00 -0.00000000000E+00 -0.20692955298E+04  0.20692955298E+04  0.25500000000E-02 0.  1.
    -200001    2    1    2    0    0  0.41500847127E+03  0.43906554291E+02 -0.12487948733E+04  0.14908082122E+04  0.69918572142E+03 0.  0.
   -5000001    2    3    3    0    0  0.25163220551E+02 -0.36062776108E+02 -0.10154227039E+03  0.17758205179E+03  0.13889147185E+03 0.  0.
     200001    1    1    2    0    0 -0.41500847127E+03 -0.43906554291E+02 -0.46212246240E+03  0.93686551169E+03  0.70000000000E+03 0. -1.
         11    1    4    4    0    0 -0.20787647328E+02 -0.26018686644E+01  0.26816890031E+02  0.34030010185E+02  0.51100000000E-03 0.  1.
    -200002    1    4    4    0    0  0.45950867879E+02 -0.33460907444E+02 -0.12835916042E+03  0.14355204160E+03  0.30000000000E+02 0.  1.
    -200000    1    3    3    0    0  0.38984525072E+03  0.79969330399E+02 -0.11472526029E+04  0.13132261604E+04  0.50000000000E+03 0.  1.
<mgrwt>
<rscale>  0 0.17223129E+04</rscale>
<asrwt>0</asrwt>
<pdfrwt beam="1">  1        2 0.29561364E+00 0.17223129E+04</pdfrwt>
<pdfrwt beam="2">  1       -2 0.51196886E-01 0.17223129E+04</pdfrwt>
<totfact> 0.25366561E+01</totfact>
</mgrwt>
</event>
<event>
 8    2  0.7085383E-010  0.1961555E+04  0.7818608E-02  0.8624809E-01
         -2   -1    0    0    0  501 -0.00000000000E+00  0.00000000000E+00  0.59397522734E+03  0.59397522734E+03  0.25500000000E-02 0. -1.
          2   -1    0    0  501    0  0.00000000000E+00 -0.00000000000E+00 -0.16194688232E+04  0.16194688232E+04  0.25500000000E-02 0.  1.
    -200001    2    1    2    0    0  0.50911629480E+03  0.35202463407E+03 -0.85075674077E+03  0.12628370270E+04  0.69846229697E+03 0.  0.
   -5000001    2    3    3    0    0  0.11897341119E+03  0.59037420412E+02 -0.16279138397E+03  0.28235280527E+03  0.18863186997E+03 0.  0.
     200001    1    1    2    0    0 -0.50911629480E+03 -0.35202463407E+03 -0.17473685511E+03  0.95060702351E+03  0.70000000000E+03 0.  1.
         11    1    4    4    0    0  0.29361510205E+02  0.67838720380E+02 -0.17178927901E+03  0.18701803829E+03  0.51100000000E-03 0.  1.
    -200002    1    4    4    0    0  0.89611900983E+02 -0.88012999680E+01  0.89978950381E+01  0.95334766975E+02  0.30000000000E+02 0.  1.
    -200000    1    3    3    0    0  0.39014288361E+03  0.29298721365E+03 -0.68796535680E+03  0.98048422178E+03  0.50000000000E+03 0.  1.
<mgrwt>
<rscale>  0 0.19615549E+04</rscale>
<asrwt>0</asrwt>
<pdfrwt beam="1">  1        2 0.23135269E+00 0.19615549E+04</pdfrwt>
<pdfrwt beam="2">  1       -2 0.84853604E-01 0.19615549E+04</pdfrwt>
<totfact> 0.14302828E+01</totfact>
</mgrwt>
</event>
<event>
 8    2  0.7085383E-010  0.1791823E+04  0.7818608E-02  0.8710660E-01
          2   -1    0    0  501    0  0.00000000000E+00  0.00000000000E+00  0.56267104532E+03  0.56267104532E+03  0.25500000000E-02 0.  1.
         -2   -1    0    0    0  501 -0.00000000000E+00 -0.00000000000E+00 -0.14265124469E+04  0.14265124469E+04  0.25500000000E-02 0. -1.
    -200001    2    1    2    0    0 -0.27297922689E+03  0.32302601444E+03 -0.83731227257E+03  0.11709125964E+04  0.70077171907E+03 0.  0.
   -5000001    2    3    3    0    0  0.73896552382E+01  0.78643710142E+02 -0.17580392739E+03  0.26210969615E+03  0.17763736032E+03 0.  0.
     200001    1    1    2    0    0  0.27297922689E+03 -0.32302601444E+03 -0.26529129024E+02  0.81827089586E+03  0.70000000000E+03 0.  1.
         11    1    4    4    0    0 -0.58512210347E+01 -0.46580818976E+02 -0.41672983856E+01  0.47131474199E+02  0.51100000000E-03 0.  1.
    -200002    1    4    4    0    0  0.13240876273E+02  0.12522452912E+03 -0.17163662900E+03  0.21497822195E+03  0.30000000000E+02 0.  1.
    -200000    1    3    3    0    0 -0.28036888213E+03  0.24438230430E+03 -0.66150834518E+03  0.90880290023E+03  0.50000000000E+03 0. -1.
<mgrwt>
<rscale>  0 0.17918228E+04</rscale>
<asrwt>0</asrwt>
<pdfrwt beam="1">  1        2 0.80381578E-01 0.17918228E+04</pdfrwt>
<pdfrwt beam="2">  1       -2 0.20378749E+00 0.17918228E+04</pdfrwt>
<totfact> 0.69615211E+00</totfact>
</mgrwt>
</event>
<event>
 8    2  0.7085383E-010  0.1614407E+04  0.7818608E-02  0.8811746E-01
          2   -1    0    0  501    0  0.00000000000E+00  0.00000000000E+00  0.18838746478E+04  0.18838746478E+04  0.25500000000E-02 0.  1.
         -2   -1    0    0    0  501 -0.00000000000E+00 -0.00000000000E+00 -0.34587100535E+03  0.34587100536E+03  0.25500000000E-02 0. -1.
    -200001    2    1    2    0    0  0.16485610367E+03  0.36329680889E+03  0.85431640472E+03  0.11730572671E+04  0.69788589766E+03 0.  0.
   -5000001    2    3    3    0    0  0.31313576961E+02  0.48406501712E+02  0.11543358625E+03  0.21757972602E+03  0.17519216544E+03 0.  0.
     200001    1    1    2    0    0 -0.16485610367E+03 -0.36329680889E+03  0.68368723773E+03  0.10566883861E+04  0.70000000000E+03 0.  1.
         11    1    4    4    0    0  0.11081934636E+02  0.75310687595E+02  0.14492566251E+03  0.16370081427E+03  0.51100000000E-03 0.  1.
    -200002    1    4    4    0    0  0.20231642324E+02 -0.26904185883E+02 -0.29492076256E+02  0.53878911747E+02  0.30000000000E+02 0.  1.
    -200000    1    3    3    0    0  0.13354252671E+03  0.31489030718E+03  0.73888281847E+03  0.95547754104E+03  0.50000000000E+03 0.  1.
<mgrwt>
<rscale>  0 0.16144072E+04</rscale>
<asrwt>0</asrwt>
<pdfrwt beam="1">  1        2 0.26912495E+00 0.16144072E+04</pdfrwt>
<pdfrwt beam="2">  1       -2 0.49410144E-01 0.16144072E+04</pdfrwt>
<totfact> 0.34266418E+01</totfact>
</mgrwt>
</event>
<event>
 8    2  0.7085383E-010  0.1753991E+04  0.7818608E-02  0.8731157E-01
          2   -1    0    0  501    0  0.00000000000E+00  0.00000000000E+00  0.18637176335E+04  0.18637176335E+04  0.25500000000E-02 0.  1.
         -2   -1    0    0    0  501 -0.00000000000E+00 -0.00000000000E+00 -0.41268111694E+03  0.41268111695E+03  0.25500000000E-02 0. -1.
    -200001    2    1    2    0    0  0.14825712196E+03  0.11882766266E+03  0.86136409401E+02  0.73074274404E+03  0.70033227066E+03 0.  0.
   -5000001    2    3    3    0    0 -0.33724846233E+02 -0.59929184936E+02  0.53788324434E+02  0.16849916168E+03  0.14411769906E+03 0.  0.
     200001    1    1    2    0    0 -0.14825712196E+03 -0.11882766266E+03  0.13649001072E+04  0.15456560064E+04  0.70000000000E+03 0.  1.
         11    1    4    4    0    0 -0.72391528929E+02 -0.76435614899E+02  0.21081386877E+02  0.10736555108E+03  0.51100000000E-03 0.  1.
    -200002    1    4    4    0    0  0.38666682696E+02  0.16506429963E+02  0.32706937557E+02  0.61133610602E+02  0.30000000000E+02 0.  1.
    -200000    1    3    3    0    0  0.18198196819E+03  0.17875684759E+03  0.32348084967E+02  0.56224358236E+03  0.50000000000E+03 0. -1.
<mgrwt>
<rscale>  0 0.17539910E+04</rscale>
<asrwt>0</asrwt>
<pdfrwt beam="1">  1        2 0.26624538E+00 0.17539910E+04</pdfrwt>
<pdfrwt beam="2">  1       -2 0.58954445E-01 0.17539910E+04</pdfrwt>
<totfact> 0.24087569E+01</totfact>
</mgrwt>
</event>
<event>
 8    2  0.7085383E-010  0.1811081E+04  0.7818608E-02  0.8700429E-01
          2   -1    0    0  501    0  0.00000000000E+00  0.00000000000E+00  0.19773055175E+04  0.19773055175E+04  0.25500000000E-02 0.  1.
         -2   -1    0    0    0  501 -0.00000000000E+00 -0.00000000000E+00 -0.41470742317E+03  0.41470742318E+03  0.25500000000E-02 0. -1.
    -200001    2    1    2    0    0 -0.38800659735E+03 -0.39911586076E+03  0.97129490322E+03  0.13198739321E+04  0.69915006810E+03 0.  0.
   -5000001    2    3    3    0    0 -0.11338752803E+03 -0.12219607623E+03  0.10335506282E+03  0.24496939361E+03  0.14676212808E+03 0.  0.
     200001    1    1    2    0    0  0.38800659735E+03  0.39911586076E+03  0.59130319111E+03  0.10721390086E+04  0.70000000000E+03 0.  1.
         11    1    4    4    0    0 -0.31294379286E+02 -0.22419870259E+02  0.10550343169E+03  0.11230744791E+03  0.51100000000E-03 0.  1.
    -200002    1    4    4    0    0 -0.82093148745E+02 -0.99776205969E+02 -0.21483688768E+01  0.13266194570E+03  0.30000000000E+02 0.  1.
    -200000    1    3    3    0    0 -0.27461906932E+03 -0.27691978453E+03  0.86793984040E+03  0.10749045385E+04  0.50000000000E+03 0. -1.
<mgrwt>
<rscale>  0 0.18110806E+04</rscale>
<asrwt>0</asrwt>
<pdfrwt beam="1">  1        2 0.28247221E+00 0.18110806E+04</pdfrwt>
<pdfrwt beam="2">  1       -2 0.59243919E-01 0.18110806E+04</pdfrwt>
<totfact> 0.20740380E+01</totfact>
</mgrwt>
</event>
<event>
 8    2  0.7085383E-010  0.1621200E+04  0.7818608E-02  0.8807629E-01
         -2   -1    0    0    0  501 -0.00000000000E+00  0.00000000000E+00  0.25536093996E+03  0.25536093998E+03  0.25500000000E-02 0. -1.
          2   -1    0    0  501    0  0.00000000000E+00 -0.00000000000E+00 -0.25731138138E+04  0.25731138138E+04  0.25500000000E-02 0.  1.
    -200001    2    1    2    0    0  0.29570773153E+03 -0.41769147611E+02 -0.67600565594E+03  0.10189108141E+04  0.70143273100E+03 0.  0.
   -5000001    2    3    3    0    0  0.16430489234E+03  0.82448505022E+02 -0.25321600643E+03  0.33961130795E+03  0.13199863994E+03 0.  0.
     200001    1    1    2    0    0 -0.29570773153E+03  0.41769147611E+02 -0.16417472179E+04  0.18095639396E+04  0.70000000000E+03 0.  1.
         11    1    4    4    0    0  0.11299525828E+03  0.84058328341E+01 -0.20230778046E+03  0.23187717536E+03  0.51100000000E-03 0.  1.
    -200002    1    4    4    0    0  0.51309634067E+02  0.74042672188E+02 -0.50908225968E+02  0.10773413259E+03  0.30000000000E+02 0.  1.
    -200000    1    3    3    0    0  0.13140283919E+03 -0.12421765263E+03 -0.42278964951E+03  0.67929950619E+03  0.50000000000E+03 0. -1.
<mgrwt>
<rscale>  0 0.16212005E+04</rscale>
<asrwt>0</asrwt>
<pdfrwt beam="1">  1        2 0.36758767E+00 0.16212005E+04</pdfrwt>
<pdfrwt beam="2">  1       -2 0.36480136E-01 0.16212005E+04</pdfrwt>
<totfact> 0.27396133E+01</totfact>
</mgrwt>
</event>
<event>
 8    2  0.7085383E-010  0.1536984E+04  0.7818608E-02  0.8860225E-01
         -2   -1    0    0    0  501 -0.00000000000E+00  0.00000000000E+00  0.13160888858E+04  0.13160888858E+04  0.25500000000E-02 0. -1.
          2   -1    0    0  501    0  0.00000000000E+00 -0.00000000000E+00 -0.44873858690E+03  0.44873858691E+03  0.25500000000E-02 0.  1.
    -200001    2    1    2    0    0  0.25651772916E+03  0.11067809815E+03  0.26102275175E+03  0.79751982711E+03  0.69989571432E+03 0.  0.
   -5000001    2    3    3    0    0  0.12847546733E+03  0.32691902098E+02  0.47036072869E+01  0.21599066069E+03  0.17045566994E+03 0.  0.
     200001    1    1    2    0    0 -0.25651772916E+03 -0.11067809815E+03  0.60632754714E+03  0.96730764559E+03  0.70000000000E+03 0. -1.
         11    1    4    4    0    0  0.15185712385E+03  0.44426698134E+02  0.39547333252E+02  0.16308988055E+03  0.51100000000E-03 0.  1.
    -200002    1    4    4    0    0 -0.23381656521E+02 -0.11734796036E+02 -0.34843725965E+02  0.52900780134E+02  0.30000000000E+02 0. -1.
    -200000    1    3    3    0    0  0.12804226184E+03  0.77986196047E+02  0.25631914446E+03  0.58152916643E+03  0.50000000000E+03 0.  1.
<mgrwt>
<rscale>  0 0.15369839E+04</rscale>
<asrwt>0</asrwt>
<pdfrwt beam="1">  1        2 0.64105511E-01 0.15369839E+04</pdfrwt>
<pdfrwt beam="2">  1       -2 0.18801270E+00 0.15369839E+04</pdfrwt>
<totfact> 0.11712332E+01</totfact>
</mgrwt>
</event>
<event>
 8    2  0.7085383E-010  0.2168584E+04  0.7818608E-02  0.8531619E-01
         -2   -1    0    0    0  501 -0.00000000000E+00  0.00000000000E+00  0.10379880771E+04  0.10379880771E+04  0.25500000000E-02 0. -1.
          2   -1    0    0  501    0  0.00000000000E+00 -0.00000000000E+00 -0.11326617561E+04  0.11326617561E+04  0.25500000000E-02 0.  1.
    -200001    2    1    2    0    0  0.82672466565E+03  0.51955254760E+02 -0.10408404143E+03  0.10860938982E+04  0.69468946070E+03 0.  0.
   -5000001    2    3    3    0    0  0.28831005643E+03 -0.37474927659E+02  0.25064977599E+02  0.33471681709E+03  0.16395132113E+03 0.  0.
     200001    1    1    2    0    0 -0.82672466565E+03 -0.51955254760E+02  0.94103624165E+01  0.10845559350E+04  0.70000000000E+03 0.  1.
         11    1    4    4    0    0  0.75877270877E+02 -0.83372309471E+02  0.24299441739E+02  0.11532027181E+03  0.51100000000E-03 0.  1.
    -200002    1    4    4    0    0  0.21243278555E+03  0.45897381812E+02  0.76553586015E+00  0.21939654528E+03  0.30000000000E+02 0.  1.
    -200000    1    3    3    0    0  0.53841460922E+03  0.89430182419E+02 -0.12914901903E+03  0.75137708114E+03  0.50000000000E+03 0. -1.
<mgrwt>
<rscale>  0 0.21685842E+04</rscale>
<asrwt>0</asrwt>
<pdfrwt beam="1">  1        2 0.16180882E+00 0.21685842E+04</pdfrwt>
<pdfrwt beam="2">  1       -2 0.14828401E+00 0.21685842E+04</pdfrwt>
<totfact> 0.66468613E+00</totfact>
</mgrwt>
</event>
<event>
 8    2  0.7085383E-010  0.1587038E+04  0.7818608E-02  0.8828551E-01
         -2   -1    0    0    0  501 -0.00000000000E+00  0.00000000000E+00  0.28295708938E+03  0.28295708939E+03  0.25500000000E-02 0. -1.
          2   -1    0    0  501    0  0.00000000000E+00 -0.00000000000E+00 -0.22253268801E+04  0.22253268801E+04  0.25500000000E-02 0.  1.
    -200001    2    1    2    0    0  0.32047976030E+02  0.36751369122E+03 -0.10659665801E+04  0.13275316781E+04  0.69997301412E+03 0.  0.
   -5000001    2    3    3    0    0 -0.10975602384E+03  0.42200617267E+02 -0.26924448716E+03  0.32219438951E+03  0.13224732096E+03 0.  0.
     200001    1    1    2    0    0 -0.32047976030E+02 -0.36751369122E+03 -0.87640321058E+03  0.11807522913E+04  0.70000000000E+03 0. -1.
         11    1    4    4    0    0 -0.62587881730E+02  0.59885195548E+02 -0.61238489498E+02  0.10608313806E+03  0.51100000000E-03 0.  1.
    -200002    1    4    4    0    0 -0.47168142114E+02 -0.17684578281E+02 -0.20800599766E+03  0.21611125145E+03  0.30000000000E+02 0.  1.
    -200000    1    3    3    0    0  0.14180399987E+03  0.32531307396E+03 -0.79672209297E+03  0.10053372886E+04  0.50000000000E+03 0.  1.
<mgrwt>
<rscale>  0 0.15870375E+04</rscale>
<asrwt>0</asrwt>
<pdfrwt beam="1">  1        2 0.31790383E+00 0.15870375E+04</pdfrwt>
<pdfrwt beam="2">  1       -2 0.40422442E-01 0.15870375E+04</pdfrwt>
<totfact> 0.34197269E+01</totfact>
</mgrwt>
</event>
<event>
 8    2  0.7085383E-010  0.1691757E+04  0.7818608E-02  0.8766080E-01
          2   -1    0    0  501    0  0.00000000000E+00  0.00000000000E+00  0.37778821791E+04  0.37778821791E+04  0.25500000000E-02 0.  1.
         -2   -1    0    0    0  501 -0.00000000000E+00 -0.00000000000E+00 -0.18939448159E+03  0.18939448161E+03  0.25500000000E-02 0. -1.
    -200001    2    1    2    0    0 -0.34571807002E+03  0.23977258584E+03  0.23120635509E+04  0.24519316574E+04  0.69951348277E+03 0.  0.
   -5000001    2    3    3    0    0 -0.66483553628E+02  0.14750968112E+03  0.58104628566E+03  0.62630707083E+03  0.16872045510E+03 0.  0.
     200001    1    1    2    0    0  0.34571807002E+03 -0.23977258584E+03  0.12764241466E+04  0.15153450033E+04  0.70000000000E+03 0. -1.
         11    1    4    4    0    0  0.25771905539E+02  0.11991569787E+03  0.22510125490E+03  0.25634847506E+03  0.51100000000E-03 0.  1.
    -200002    1    4    4    0    0 -0.92255459167E+02  0.27593983247E+02  0.35594503076E+03  0.36995859577E+03  0.30000000000E+02 0.  1.
    -200000    1    3    3    0    0 -0.27923451639E+03  0.92262904722E+02  0.17310172652E+04  0.18256245866E+04  0.50000000000E+03 0.  1.
<mgrwt>
<rscale>  0 0.16917565E+04</rscale>
<asrwt>0</asrwt>
<pdfrwt beam="1">  1        2 0.53969742E+00 0.16917565E+04</pdfrwt>
<pdfrwt beam="2">  1       -2 0.27056356E-01 0.16917565E+04</pdfrwt>
<totfact> 0.96015394E+00</totfact>
</mgrwt>
</event>
<event>
 8    2  0.7085383E-010  0.1591692E+04  0.7818608E-02  0.8825668E-01
          2   -1    0    0  501    0  0.00000000000E+00  0.00000000000E+00  0.20057945278E+04  0.20057945278E+04  0.25500000000E-02 0.  1.
         -2   -1    0    0    0  501 -0.00000000000E+00 -0.00000000000E+00 -0.31577072348E+03  0.31577072349E+03  0.25500000000E-02 0. -1.
    -200001    2    1    2    0    0  0.36499672140E+03 -0.68451050354E+02  0.73954667510E+03  0.10841021504E+04  0.70031424011E+03 0.  0.
   -5000001    2    3    3    0    0  0.62860916120E+02 -0.70124705615E+01  0.29272016802E+03  0.34605427163E+03  0.17340067078E+03 0.  0.
     200001    1    1    2    0    0 -0.36499672140E+03  0.68451050354E+02  0.95047712921E+03  0.12374631009E+04  0.70000000000E+03 0.  1.
         11    1    4    4    0    0  0.45362581641E+02 -0.66205557239E+02  0.25586188723E+03  0.26815339819E+03  0.51100000000E-03 0.  1.
    -200002    1    4    4    0    0  0.17498334479E+02  0.59193086678E+02  0.36858280790E+02  0.77900873440E+02  0.30000000000E+02 0.  1.
    -200000    1    3    3    0    0  0.30213580528E+03 -0.61438579793E+02  0.44682650708E+03  0.73804787877E+03  0.50000000000E+03 0. -1.
<mgrwt>
<rscale>  0 0.15916924E+04</rscale>
<asrwt>0</asrwt>
<pdfrwt beam="1">  1        2 0.28654208E+00 0.15916924E+04</pdfrwt>
<pdfrwt beam="2">  1       -2 0.45110103E-01 0.15916924E+04</pdfrwt>
<totfact> 0.35695689E+01</totfact>
</mgrwt>
</event>
<event>
 8    2  0.7085383E-010  0.2309950E+04  0.7818608E-02  0.8474008E-01
         -2   -1    0    0    0  501 -0.00000000000E+00  0.00000000000E+00  0.56750816171E+03  0.56750816171E+03  0.25500000000E-02 0. -1.
          2   -1    0    0  501    0  0.00000000000E+00 -0.00000000000E+00 -0.23505699958E+04  0.23505699958E+04  0.25500000000E-02 0.  1.
    -200001    2    1    2    0    0 -0.38851748466E+03  0.82686642755E+03 -0.10130001621E+04  0.15332861502E+04  0.70010225328E+03 0.  0.
   -5000001    2    3    3    0    0 -0.23417062253E+03  0.22696416645E+03 -0.23241605873E+03  0.41837932934E+03  0.12114217085E+03 0.  0.
     200001    1    1    2    0    0  0.38851748466E+03 -0.82686642755E+03 -0.77006167197E+03  0.13847920073E+04  0.70000000000E+03 0. -1.
         11    1    4    4    0    0 -0.22248073694E+02  0.60395257015E+02 -0.52105988360E+01  0.64573324164E+02  0.51100000000E-03 0.  1.
    -200002    1    4    4    0    0 -0.21192254884E+03  0.16656890943E+03 -0.22720545990E+03  0.35380600518E+03  0.30000000000E+02 0.  1.
    -200000    1    3    3    0    0 -0.15434686213E+03  0.59990226111E+03 -0.78058410342E+03  0.11149068209E+04  0.50000000000E+03 0.  1.
<mgrwt>
<rscale>  0 0.23099504E+04</rscale>
<asrwt>0</asrwt>
<pdfrwt beam="1">  1        2 0.33579571E+00 0.23099504E+04</pdfrwt>
<pdfrwt beam="2">  1       -2 0.81072596E-01 0.23099504E+04</pdfrwt>
<totfact> 0.64483410E+00</totfact>
</mgrwt>
</event>
<event>
 8    2  0.7085383E-010  0.1442516E+04  0.7818608E-02  0.8923606E-01
         -2   -1    0    0    0  501 -0.00000000000E+00  0.00000000000E+00  0.31617238577E+03  0.31617238578E+03  0.25500000000E-02 0. -1.
          2   -1    0    0  501    0  0.00000000000E+00 -0.00000000000E+00 -0.16453456825E+04  0.16453456825E+04  0.25500000000E-02 0.  1.
    -200001    2    1    2    0    0  0.16878144965E+03 -0.38018136232E+01 -0.60751215232E+03  0.94205917312E+03  0.69993059579E+03 0.  0.
   -5000001    2    3    3    0    0  0.49497914316E+02  0.70618262736E+02 -0.21139407291E+03  0.28885442543E+03  0.17695322116E+03 0.  0.
     200001    1    1    2    0    0 -0.16878144965E+03  0.38018136232E+01 -0.72166114437E+03  0.10194588951E+04  0.70000000000E+03 0.  1.
         11    1    4    4    0    0 -0.22484328622E+02 -0.15524548251E+02 -0.15910345603E+03  0.16143254428E+03  0.51100000000E-03 0.  1.
    -200002    1    4    4    0    0  0.71982242938E+02  0.86142810987E+02 -0.52290616874E+02  0.12742188115E+03  0.30000000000E+02 0.  1.
    -200000    1    3    3    0    0  0.11928353533E+03 -0.74420076360E+02 -0.39611807941E+03  0.65320474769E+03  0.50000000000E+03 0. -1.
<mgrwt>
<rscale>  0 0.14425157E+04</rscale>
<asrwt>0</asrwt>
<pdfrwt beam="1">  1        2 0.23504938E+00 0.14425157E+04</pdfrwt>
<pdfrwt beam="2">  1       -2 0.45167485E-01 0.14425157E+04</pdfrwt>
<totfact> 0.55301911E+01</totfact>
</mgrwt>
</event>
<event>
 8    2  0.7085383E-010  0.2541804E+04  0.7818608E-02  0.8388242E-01
         -2   -1    0    0    0  501 -0.00000000000E+00  0.00000000000E+00  0.81125721109E+03  0.81125721109E+03  0.25500000000E-02 0. -1.
          2   -1    0    0  501    0  0.00000000000E+00 -0.00000000000E+00 -0.19909745044E+04  0.19909745044E+04  0.25500000000E-02 0.  1.
    -200001    2    1    2    0    0  0.11552574749E+03 -0.85174659508E+03  0.10008047563E+03  0.11090982919E+04  0.69373226755E+03 0.  0.
   -5000001    2    3    3    0    0  0.76761366611E+02 -0.33727579170E+03  0.10462928346E+03  0.39062520518E+03  0.14830204616E+03 0.  0.
     200001    1    1    2    0    0 -0.11552574749E+03  0.85174659508E+03 -0.12797977690E+04  0.16931334236E+04  0.70000000000E+03 0.  1.
         11    1    4    4    0    0  0.13444206957E+02 -0.19394050584E+03  0.12296680085E+03  0.23003152092E+03  0.51100000000E-03 0.  1.
    -200002    1    4    4    0    0  0.63317159655E+02 -0.14333528586E+03 -0.18337517396E+02  0.16059368426E+03  0.30000000000E+02 0.  1.
    -200000    1    3    3    0    0  0.38764380882E+02 -0.51447080337E+03 -0.45488078209E+01  0.71847308676E+03  0.50000000000E+03 0. -1.
<mgrwt>
<rscale>  0 0.25418044E+04</rscale>
<asrwt>0</asrwt>
<pdfrwt beam="1">  1        2 0.28442493E+00 0.25418044E+04</pdfrwt>
<pdfrwt beam="2">  1       -2 0.11589389E+00 0.25418044E+04</pdfrwt>
<totfact> 0.41964441E+00</totfact>
</mgrwt>
</event>
<event>
 8    2  0.7085383E-010  0.1716079E+04  0.7818608E-02  0.8752246E-01
          2   -1    0    0  501    0  0.00000000000E+00  0.00000000000E+00  0.87399396332E+03  0.87399396332E+03  0.25500000000E-02 0.  1.
         -2   -1    0    0    0  501 -0.00000000000E+00 -0.00000000000E+00 -0.84237673185E+03  0.84237673185E+03  0.25500000000E-02 0. -1.
    -200001    2    1    2    0    0 -0.28313067752E+03 -0.31856589570E+03  0.26904770959E+03  0.86312955552E+03  0.70068448614E+03 0.  0.
   -5000001    2    3    3    0    0 -0.75966104548E+02 -0.49953183718E+02  0.53939202090E+02  0.22177035871E+03  0.19495251955E+03 0.  0.
     200001    1    1    2    0    0  0.28313067752E+03  0.31856589570E+03 -0.23743047813E+03  0.85324113965E+03  0.70000000000E+03 0. -1.
         11    1    4    4    0    0 -0.10335157084E+03  0.43610221112E+02  0.17925716930E+02  0.11359898727E+03  0.51100000000E-03 0.  1.
    -200002    1    4    4    0    0  0.27385466289E+02 -0.93563404830E+02  0.36013485160E+02  0.10817137145E+03  0.30000000000E+02 0.  1.
    -200000    1    3    3    0    0 -0.20716457297E+03 -0.26861271198E+03  0.21510850750E+03  0.64135919681E+03  0.50000000000E+03 0.  1.
<mgrwt>
<rscale>  0 0.17160795E+04</rscale>
<asrwt>0</asrwt>
<pdfrwt beam="1">  1        2 0.12485628E+00 0.17160795E+04</pdfrwt>
<pdfrwt beam="2">  1       -2 0.12033953E+00 0.17160795E+04</pdfrwt>
<totfact> 0.16999853E+01</totfact>
</mgrwt>
</event>
<event>
 8    2  0.7085383E-010  0.1880315E+04  0.7818608E-02  0.8664717E-01
         -2   -1    0    0    0  501 -0.00000000000E+00  0.00000000000E+00  0.33480356172E+03  0.33480356173E+03  0.25500000000E-02 0. -1.
          2   -1    0    0  501    0  0.00000000000E+00 -0.00000000000E+00 -0.26400445478E+04  0.26400445478E+04  0.25500000000E-02 0.  1.
    -200001    2    1    2    0    0  0.56289221534E+03 -0.10531194061E+03 -0.15562537669E+04  0.18005738207E+04  0.70157112671E+03 0.  0.
   -5000001    2    3    3    0    0  0.33791769625E+02 -0.29117707421E+02 -0.32626811040E+03  0.36927456546E+03  0.16710206537E+03 0.  0.
     200001    1    1    2    0    0 -0.56289221534E+03  0.10531194061E+03 -0.74898721914E+03  0.11742742888E+04  0.70000000000E+03 0.  1.
         11    1    4    4    0    0  0.13678285753E+02  0.61908483960E+02 -0.19795431034E+03  0.20785972402E+03  0.51100000000E-03 0.  1.
    -200002    1    4    4    0    0  0.20113483872E+02 -0.91026191381E+02 -0.12831380006E+03  0.16141484143E+03  0.30000000000E+02 0.  1.
    -200000    1    3    3    0    0  0.52910044571E+03 -0.76194233193E+02 -0.12299856565E+04  0.14312992553E+04  0.50000000000E+03 0.  1.
<mgrwt>
<rscale>  0 0.18803152E+04</rscale>
<asrwt>0</asrwt>
<pdfrwt beam="1">  1        2 0.37714921E+00 0.18803152E+04</pdfrwt>
<pdfrwt beam="2">  1       -2 0.47829082E-01 0.18803152E+04</pdfrwt>
<totfact> 0.14480142E+01</totfact>
</mgrwt>
</event>
<event>
 8    2  0.7085383E-010  0.1831470E+04  0.7818608E-02  0.8689741E-01
         -2   -1    0    0    0  501 -0.00000000000E+00  0.00000000000E+00  0.41159731325E+03  0.41159731326E+03  0.25500000000E-02 0. -1.
          2   -1    0    0  501    0  0.00000000000E+00 -0.00000000000E+00 -0.20373578788E+04  0.20373578788E+04  0.25500000000E-02 0.  1.
    -200001    2    1    2    0    0  0.12299144152E+03  0.57068989884E+03 -0.69459129743E+03  0.11459240868E+04  0.69990791323E+03 0.  0.
   -5000001    2    3    3    0    0 -0.12239649073E+02  0.13471562658E+03 -0.22636560846E+03  0.32276170326E+03  0.18610647312E+03 0.  0.
     200001    1    1    2    0    0 -0.12299144152E+03 -0.57068989884E+03 -0.93116926813E+03  0.13030311052E+04  0.70000000000E+03 0. -1.
         11    1    4    4    0    0 -0.24444879380E+02  0.17436416738E+03 -0.19497739539E+03  0.26271010583E+03  0.51100000000E-03 0.  1.
    -200002    1    4    4    0    0  0.12205230307E+02 -0.39648540790E+02 -0.31388213079E+02  0.60051597430E+02  0.30000000000E+02 0.  1.
    -200000    1    3    3    0    0  0.13523109059E+03  0.43597427225E+03 -0.46822568897E+03  0.82316238358E+03  0.50000000000E+03 0.  1.
<mgrwt>
<rscale>  0 0.18314705E+04</rscale>
<asrwt>0</asrwt>
<pdfrwt beam="1">  1        2 0.29105112E+00 0.18314705E+04</pdfrwt>
<pdfrwt beam="2">  1       -2 0.58799618E-01 0.18314705E+04</pdfrwt>
<totfact> 0.19591678E+01</totfact>
</mgrwt>
</event>
<event>
 8    2  0.7085383E-010  0.2199111E+04  0.7818608E-02  0.8518798E-01
         -2   -1    0    0    0  501 -0.00000000000E+00  0.00000000000E+00  0.28973762640E+03  0.28973762641E+03  0.25500000000E-02 0. -1.
          2   -1    0    0  501    0  0.00000000000E+00 -0.00000000000E+00 -0.41728195966E+04  0.41728195966E+04  0.25500000000E-02 0.  1.
    -200001    2    1    2    0    0 -0.25920514119E+03  0.52926338962E+03 -0.70357430761E+03  0.11539962039E+04  0.69955942666E+03 0.  0.
   -5000001    2    3    3    0    0 -0.73477559236E+02  0.24706118449E+03 -0.25722542513E+03  0.40342299348E+03  0.17362894846E+03 0.  0.
     200001    1    1    2    0    0  0.25920514119E+03 -0.52926338962E+03 -0.31795076626E+04  0.33085610191E+04  0.70000000000E+03 0.  1.
         11    1    4    4    0    0 -0.50047787425E+02  0.91566095429E+02 -0.47334215345E+01  0.10445829856E+03  0.51100000000E-03 0.  1.
    -200002    1    4    4    0    0 -0.23429771811E+02  0.15549508906E+03 -0.25249200360E+03  0.29896469492E+03  0.30000000000E+02 0. -1.
    -200000    1    3    3    0    0 -0.18572758196E+03  0.28220220514E+03 -0.44634888248E+03  0.75057321040E+03  0.50000000000E+03 0. -1.
<mgrwt>
<rscale>  0 0.21991115E+04</rscale>
<asrwt>0</asrwt>
<pdfrwt beam="1">  1        2 0.59611705E+00 0.21991115E+04</pdfrwt>
<pdfrwt beam="2">  1       -2 0.41391092E-01 0.21991115E+04</pdfrwt>
<totfact> 0.21948207E+00</totfact>
</mgrwt>
</event>
<event>
 8    2  0.7085383E-010  0.1838478E+04  0.7818608E-02  0.8686101E-01
         -2   -1    0    0    0  501 -0.00000000000E+00  0.00000000000E+00  0.82516811343E+03  0.82516811343E+03  0.25500000000E-02 0. -1.
          2   -1    0    0  501    0  0.00000000000E+00 -0.00000000000E+00 -0.10240337978E+04  0.10240337978E+04  0.25500000000E-02 0.  1.
    -200001    2    1    2    0    0  0.14322304535E+03  0.25772588935E+03  0.41425308925E+03  0.87306149853E+03  0.70971493115E+03 0.  0.
   -5000001    2    3    3    0    0  0.26799041340E+02  0.21843054420E+03  0.22731001674E+03  0.32529659894E+03  0.75617076860E+02 0.  0.
     200001    1    1    2    0    0 -0.14322304535E+03 -0.25772588935E+03 -0.61311877365E+03  0.97614041273E+03  0.70000000000E+03 0.  1.
         11    1    4    4    0    0  0.31391668142E+02  0.36824337629E+02  0.42159814950E+02  0.64178802322E+02  0.51100000000E-03 0.  1.
    -200002    1    4    4    0    0 -0.45926268016E+01  0.18160620657E+03  0.18515020179E+03  0.26111779662E+03  0.30000000000E+02 0.  1.
    -200000    1    3    3    0    0  0.11642400401E+03  0.39295345148E+02  0.18694307252E+03  0.54776489959E+03  0.50000000000E+03 0. -1.
<mgrwt>
<rscale>  0 0.18384777E+04</rscale>
<asrwt>0</asrwt>
<pdfrwt beam="1">  1        2 0.14629054E+00 0.18384777E+04</pdfrwt>
<pdfrwt beam="2">  1       -2 0.11788116E+00 0.18384777E+04</pdfrwt>
<totfact> 0.14225995E+01</totfact>
</mgrwt>
</event>
<event>
 8    2  0.7085383E-010  0.1932094E+04  0.7818608E-02  0.8639044E-01
          2   -1    0    0  501    0  0.00000000000E+00  0.00000000000E+00  0.15262279628E+04  0.15262279628E+04  0.25500000000E-02 0.  1.
         -2   -1    0    0    0  501 -0.00000000000E+00 -0.00000000000E+00 -0.61147286803E+03  0.61147286803E+03  0.25500000000E-02 0. -1.
    -200001    2    1    2    0    0 -0.13125846498E+03 -0.42481683018E+02  0.11782400063E+04  0.13771367135E+04  0.69944444897E+03 0.  0.
   -5000001    2    3    3    0    0  0.16496093345E+02  0.21318763243E+02  0.36308196728E+03  0.40740245350E+03  0.18281584556E+03 0.  0.
     200001    1    1    2    0    0  0.13125846498E+03  0.42481683018E+02 -0.26348491151E+03  0.76056411736E+03  0.70000000000E+03 0. -1.
         11    1    4    4    0    0 -0.25629025355E+02  0.77877893835E+01  0.35173668545E+03  0.35275514525E+03  0.51100000000E-03 0.  1.
    -200002    1    4    4    0    0  0.42125118700E+02  0.13530973859E+02  0.11345281830E+02  0.54647308249E+02  0.30000000000E+02 0.  1.
    -200000    1    3    3    0    0 -0.14775455833E+03 -0.63800446260E+02  0.81515803903E+03  0.96973426002E+03  0.50000000000E+03 0.  1.
<mgrwt>
<rscale>  0 0.19320942E+04</rscale>
<asrwt>0</asrwt>
<pdfrwt beam="1">  1        2 0.21803256E+00 0.19320942E+04</pdfrwt>
<pdfrwt beam="2">  1       -2 0.87353267E-01 0.19320942E+04</pdfrwt>
<totfact> 0.15025445E+01</totfact>
</mgrwt>
</event>
<event>
 8    2  0.7085383E-010  0.1632323E+04  0.7818608E-02  0.8800933E-01
         -2   -1    0    0    0  501 -0.00000000000E+00  0.00000000000E+00  0.28093789347E+03  0.28093789348E+03  0.25500000000E-02 0. -1.
          2   -1    0    0  501    0  0.00000000000E+00 -0.00000000000E+00 -0.23710571223E+04  0.23710571223E+04  0.25500000000E-02 0.  1.
    -200001    2    1    2    0    0  0.40136837977E+03  0.75601112907E+02 -0.89023991121E+03  0.12040576962E+04  0.70029688830E+03 0.  0.
   -5000001    2    3    3    0    0  0.10409772165E+03  0.85257421254E+02 -0.32110505621E+03  0.39019187703E+03  0.17617059983E+03 0.  0.
     200001    1    1    2    0    0 -0.40136837977E+03 -0.75601112907E+02 -0.11998793176E+04  0.14479373196E+04  0.70000000000E+03 0. -1.
         11    1    4    4    0    0  0.42177269056E+01 -0.37252762026E+01  0.20947215552E+02  0.21689922607E+02  0.51100000000E-03 0.  1.
    -200002    1    4    4    0    0  0.99879994744E+02  0.88982697457E+02 -0.34205227176E+03  0.36850195442E+03  0.30000000000E+02 0.  1.
    -200000    1    3    3    0    0  0.29727065812E+03 -0.96563083469E+01 -0.56913485500E+03  0.81386581919E+03  0.50000000000E+03 0. -1.
<mgrwt>
<rscale>  0 0.16323232E+04</rscale>
<asrwt>0</asrwt>
<pdfrwt beam="1">  1        2 0.33872243E+00 0.16323232E+04</pdfrwt>
<pdfrwt beam="2">  1       -2 0.40133986E-01 0.16323232E+04</pdfrwt>
<totfact> 0.29034866E+01</totfact>
</mgrwt>
</event>
<event>
 8    2  0.7085383E-010  0.1654640E+04  0.7818608E-02  0.8787666E-01
         -2   -1    0    0    0  501 -0.00000000000E+00  0.00000000000E+00  0.64951474369E+03  0.64951474369E+03  0.25500000000E-02 0. -1.
          2   -1    0    0  501    0  0.00000000000E+00 -0.00000000000E+00 -0.10537999924E+04  0.10537999924E+04  0.25500000000E-02 0.  1.
    -200001    2    1    2    0    0  0.32902090743E+03 -0.11732212942E+03  0.64321284332E+02  0.79138747893E+03  0.70720412513E+03 0.  0.
   -5000001    2    3    3    0    0  0.39679292210E+02 -0.56009035132E+02  0.82378739406E+01  0.20775813187E+03  0.19591865797E+03 0.  0.
     200001    1    1    2    0    0 -0.32902090743E+03  0.11732212942E+03 -0.46860653308E+03  0.91192725720E+03  0.70000000000E+03 0.  1.
         11    1    4    4    0    0  0.75304100691E+02  0.51554556340E+01 -0.66457991386E+02  0.10056814070E+03  0.51100000000E-03 0.  1.
    -200002    1    4    4    0    0 -0.35624808481E+02 -0.61164490766E+02  0.74695865327E+02  0.10718999117E+03  0.30000000000E+02 0.  1.
    -200000    1    3    3    0    0  0.28934161523E+03 -0.61313094286E+02  0.56083410391E+02  0.58362934706E+03  0.50000000000E+03 0.  1.
<mgrwt>
<rscale>  0 0.16546403E+04</rscale>
<asrwt>0</asrwt>
<pdfrwt beam="1">  1        2 0.15054286E+00 0.16546403E+04</pdfrwt>
<pdfrwt beam="2">  1       -2 0.92787821E-01 0.16546403E+04</pdfrwt>
<totfact> 0.24547743E+01</totfact>
</mgrwt>
</event>
<event>
 8    2  0.7085383E-010  0.1465364E+04  0.7818608E-02  0.8907818E-01
         -2   -1    0    0    0  501 -0.00000000000E+00  0.00000000000E+00  0.15389637555E+03  0.15389637557E+03  0.25500000000E-02 0. -1.
          2   -1    0    0  501    0  0.00000000000E+00 -0.00000000000E+00 -0.34882090063E+04  0.34882090063E+04  0.25500000000E-02 0.  1.
    -200001    2    1    2    0    0 -0.17760249524E+03  0.11922496588E+03 -0.17298391336E+04  0.18785599637E+04  0.70063319245E+03 0.  0.
   -5000001    2    3    3    0    0 -0.45029100927E+02 -0.84356095293E+01 -0.74335427894E+03  0.75738856922E+03  0.13770650428E+03 0.  0.
     200001    1    1    2    0    0  0.17760249524E+03 -0.11922496588E+03 -0.16044734971E+04  0.17635454181E+04  0.70000000000E+03 0. -1.
         11    1    4    4    0    0 -0.86666838703E+02  0.11404539738E+02 -0.38232995725E+03  0.39219561531E+03  0.51100000000E-03 0.  1.
    -200002    1    4    4    0    0  0.41637737776E+02 -0.19840149267E+02 -0.36102432170E+03  0.36519295391E+03  0.30000000000E+02 0.  1.
    -200000    1    3    3    0    0 -0.13257339432E+03  0.12766057540E+03 -0.98648485468E+03  0.11211713945E+04  0.50000000000E+03 0.  1.
<mgrwt>
<rscale>  0 0.14653637E+04</rscale>
<asrwt>0</asrwt>
<pdfrwt beam="1">  1        2 0.49831553E+00 0.14653637E+04</pdfrwt>
<pdfrwt beam="2">  1       -2 0.21985199E-01 0.14653637E+04</pdfrwt>
<totfact> 0.21672111E+01</totfact>
</mgrwt>
</event>
<event>
 8    2  0.7085383E-010  0.1727657E+04  0.7818608E-02  0.8745746E-01
          2   -1    0    0  501    0  0.00000000000E+00  0.00000000000E+00  0.28813206958E+04  0.28813206958E+04  0.25500000000E-02 0.  1.
         -2   -1    0    0    0  501 -0.00000000000E+00 -0.00000000000E+00 -0.25897843600E+03  0.25897843602E+03  0.25500000000E-02 0. -1.
    -200001    2    1    2    0    0  0.22163940634E+03  0.16162216260E+02  0.21385725285E+04  0.22608570379E+04  0.69899702599E+03 0.  0.
   -5000001    2    3    3    0    0  0.12578063508E+03  0.73636622576E+02  0.95879352479E+03  0.97463360898E+03  0.96863451523E+02 0.  0.
     200001    1    1    2    0    0 -0.22163940634E+03 -0.16162216260E+02  0.48376973127E+03  0.87944209392E+03  0.70000000000E+03 0. -1.
         11    1    4    4    0    0  0.38058708694E+02 -0.18601612600E+02  0.17858234764E+03  0.18353784402E+03  0.51100000000E-03 0.  1.
    -200002    1    4    4    0    0  0.87721926386E+02  0.92238235176E+02  0.78021117714E+03  0.79109576496E+03  0.30000000000E+02 0.  1.
    -200000    1    3    3    0    0  0.95858771257E+02 -0.57474406316E+02  0.11797790038E+04  0.12862234289E+04  0.50000000000E+03 0.  1.
<mgrwt>
<rscale>  0 0.17276573E+04</rscale>
<asrwt>0</asrwt>
<pdfrwt beam="1">  1        2 0.41161723E+00 0.17276573E+04</pdfrwt>
<pdfrwt beam="2">  1       -2 0.36996921E-01 0.17276573E+04</pdfrwt>
<totfact> 0.18031126E+01</totfact>
</mgrwt>
</event>
<event>
 8    2  0.7085383E-010  0.1558710E+04  0.7818608E-02  0.8846323E-01
          2   -1    0    0  501    0  0.00000000000E+00  0.00000000000E+00  0.22336991606E+04  0.22336991606E+04  0.25500000000E-02 0.  1.
         -2   -1    0    0    0  501 -0.00000000000E+00 -0.00000000000E+00 -0.27192315168E+03  0.27192315169E+03  0.25500000000E-02 0. -1.
    -200001    2    1    2    0    0  0.10170252802E+02 -0.32371571356E+03  0.11676726558E+04  0.13986013402E+04  0.69837739110E+03 0.  0.
   -5000001    2    3    3    0    0  0.72437708317E+01  0.88086815708E+01  0.46317098731E+03  0.47291044222E+03  0.94799038964E+02 0.  0.
     200001    1    1    2    0    0 -0.10170252802E+02  0.32371571356E+03  0.79410335307E+03  0.11070209721E+04  0.70000000000E+03 0. -1.
         11    1    4    4    0    0 -0.10385319527E+02  0.18221263693E+02  0.22467829388E+02  0.30735527813E+02  0.51100000000E-03 0.  1.
    -200002    1    4    4    0    0  0.17629090359E+02 -0.94125821222E+01  0.44070315792E+03  0.44217491441E+03  0.30000000000E+02 0.  1.
    -200000    1    3    3    0    0  0.29264819706E+01 -0.33252439513E+03  0.70450166850E+03  0.92569089796E+03  0.50000000000E+03 0.  1.
<mgrwt>
<rscale>  0 0.15587104E+04</rscale>
<asrwt>0</asrwt>
<pdfrwt beam="1">  1        2 0.31909988E+00 0.15587104E+04</pdfrwt>
<pdfrwt beam="2">  1       -2 0.38846165E-01 0.15587104E+04</pdfrwt>
<totfact> 0.36674400E+01</totfact>
</mgrwt>
</event>
<event>
 8    2  0.7085383E-010  0.1541268E+04  0.7818608E-02  0.8857465E-01
         -2   -1    0    0    0  501 -0.00000000000E+00  0.00000000000E+00  0.88405577007E+03  0.88405577007E+03  0.25500000000E-02 0. -1.
          2   -1    0    0  501    0  0.00000000000E+00 -0.00000000000E+00 -0.67176395900E+03  0.67176395900E+03  0.25500000000E-02 0.  1.
    -200001    2    1    2    0    0  0.37702124493E+02 -0.27164443601E+03  0.27632117414E+03  0.80129212246E+03  0.70035956796E+03 0.  0.
   -5000001    2    3    3    0    0 -0.93829200925E+01 -0.63130393499E+02 -0.70016016921E+00  0.19101683457E+03  0.18003737138E+03 0.  0.
     200001    1    1    2    0    0 -0.37702124493E+02  0.27164443601E+03 -0.64029363069E+02  0.75452760661E+03  0.70000000000E+03 0. -1.
         11    1    4    4    0    0  0.53441845525E+00 -0.10765254979E+03  0.47988310860E+02  0.11786532594E+03  0.51100000000E-03 0.  1.
    -200002    1    4    4    0    0 -0.99173385477E+01  0.44522156289E+02 -0.48688471029E+02  0.73151508636E+02  0.30000000000E+02 0.  1.
    -200000    1    3    3    0    0  0.47085044585E+02 -0.20851404251E+03  0.27702133431E+03  0.61027528789E+03  0.50000000000E+03 0. -1.
<mgrwt>
<rscale>  0 0.15412681E+04</rscale>
<asrwt>0</asrwt>
<pdfrwt beam="1">  1        2 0.95966280E-01 0.15412681E+04</pdfrwt>
<pdfrwt beam="2">  1       -2 0.12629368E+00 0.15412681E+04</pdfrwt>
<totfact> 0.21350329E+01</totfact>
</mgrwt>
</event>
<event>
 8    2  0.7085383E-010  0.1499300E+04  0.7818608E-02  0.8884918E-01
         -2   -1    0    0    0  501 -0.00000000000E+00  0.00000000000E+00  0.26964430111E+03  0.26964430112E+03  0.25500000000E-02 0. -1.
          2   -1    0    0  501    0  0.00000000000E+00 -0.00000000000E+00 -0.20841358871E+04  0.20841358871E+04  0.25500000000E-02 0.  1.
    -200001    2    1    2    0    0 -0.18160219693E+03  0.72024638458E+02 -0.62196458346E+03  0.95725322528E+03  0.70094713621E+03 0.  0.
   -5000001    2    3    3    0    0 -0.83082235614E+02 -0.53821215400E+02 -0.12876837279E+03  0.23698531406E+03  0.17257277928E+03 0.  0.
     200001    1    1    2    0    0  0.18160219693E+03 -0.72024638458E+02 -0.11925270026E+04  0.13965269630E+04  0.70000000000E+03 0.  1.
         11    1    4    4    0    0 -0.11835223742E+03 -0.71656545430E+02 -0.12625483850E+03  0.18730242084E+03  0.51100000000E-03 0.  1.
    -200002    1    4    4    0    0  0.35270001808E+02  0.17835330031E+02 -0.25135342907E+01  0.49682893228E+02  0.30000000000E+02 0.  1.
    -200000    1    3    3    0    0 -0.98519961316E+02  0.12584585386E+03 -0.49319621067E+03  0.72026791122E+03  0.50000000000E+03 0. -1.
<mgrwt>
<rscale>  0 0.14993003E+04</rscale>
<asrwt>0</asrwt>
<pdfrwt beam="1">  1        2 0.29773369E+00 0.14993003E+04</pdfrwt>
<pdfrwt beam="2">  1       -2 0.38520616E-01 0.14993003E+04</pdfrwt>
<totfact> 0.44727078E+01</totfact>
</mgrwt>
</event>
<event>
 8    2  0.7085383E-010  0.1957580E+04  0.7818608E-02  0.8626714E-01
         -2   -1    0    0    0  501 -0.00000000000E+00  0.00000000000E+00  0.10560801311E+04  0.10560801311E+04  0.25500000000E-02 0. -1.
          2   -1    0    0  501    0  0.00000000000E+00 -0.00000000000E+00 -0.90715606951E+03  0.90715606951E+03  0.25500000000E-02 0.  1.
    -200001    2    1    2    0    0  0.14278647893E+03  0.42822478316E+03 -0.44080245089E+03  0.94267664675E+03  0.70040560830E+03 0.  0.
   -5000001    2    3    3    0    0  0.44365929065E+02  0.10110081469E+03 -0.15131324179E+03  0.27148315932E+03  0.19651386277E+03 0.  0.
     200001    1    1    2    0    0 -0.14278647893E+03 -0.42822478316E+03  0.58972651252E+03  0.10205595539E+04  0.70000000000E+03 0. -1.
         11    1    4    4    0    0 -0.28096338893E+02  0.12511059442E+03 -0.42223926296E+02  0.13499972239E+03  0.51100000000E-03 0.  1.
    -200002    1    4    4    0    0  0.72462267958E+02 -0.24009779731E+02 -0.10908931549E+03  0.13648343693E+03  0.30000000000E+02 0.  1.
    -200000    1    3    3    0    0  0.98420549860E+02  0.32712396847E+03 -0.28948920910E+03  0.67119348743E+03  0.50000000000E+03 0.  1.
<mgrwt>
<rscale>  0 0.19575796E+04</rscale>
<asrwt>0</asrwt>
<pdfrwt beam="1">  1        2 0.12959372E+00 0.19575796E+04</pdfrwt>
<pdfrwt beam="2">  1       -2 0.15086859E+00 0.19575796E+04</pdfrwt>
<totfact> 0.88794254E+00</totfact>
</mgrwt>
</event>
<event>
 8    2  0.7085383E-010  0.2047120E+04  0.7818608E-02  0.8584902E-01
         -2   -1    0    0    0  501 -0.00000000000E+00  0.00000000000E+00  0.88715478612E+03  0.88715478613E+03  0.25500000000E-02 0. -1.
          2   -1    0    0  501    0  0.00000000000E+00 -0.00000000000E+00 -0.11809378558E+04  0.11809378558E+04  0.25500000000E-02 0.  1.
    -200001    2    1    2    0    0  0.55059067747E+02  0.18149593745E+03  0.58253570889E+03  0.93059236592E+03  0.70048698998E+03 0.  0.
   -5000001    2    3    3    0    0 -0.66546218998E+01  0.12825101995E+03  0.58182656307E+02  0.20149036724E+03  0.14394630417E+03 0.  0.
     200001    1    1    2    0    0 -0.55059067747E+02 -0.18149593745E+03 -0.87631877856E+03  0.11375002760E+04  0.70000000000E+03 0.  1.
         11    1    4    4    0    0 -0.39429910495E+02  0.64492395500E+02 -0.32311155738E+02  0.82207041696E+02  0.51100000000E-03 0.  1.
    -200002    1    4    4    0    0  0.32775288596E+02  0.63758624445E+02  0.90493812045E+02  0.11928332554E+03  0.30000000000E+02 0.  1.
    -200000    1    3    3    0    0  0.61713689646E+02  0.53244917507E+02  0.52435305258E+03  0.72910199868E+03  0.50000000000E+03 0. -1.
<mgrwt>
<rscale>  0 0.20471196E+04</rscale>
<asrwt>0</asrwt>
<pdfrwt beam="1">  1        2 0.16870541E+00 0.20471196E+04</pdfrwt>
<pdfrwt beam="2">  1       -2 0.12673640E+00 0.20471196E+04</pdfrwt>
<totfact> 0.94338507E+00</totfact>
</mgrwt>
</event>
<event>
 8    2  0.7085383E-010  0.1793166E+04  0.7818608E-02  0.8709942E-01
          2   -1    0    0  501    0  0.00000000000E+00  0.00000000000E+00  0.72211742104E+03  0.72211742104E+03  0.25500000000E-02 0.  1.
         -2   -1    0    0    0  501 -0.00000000000E+00 -0.00000000000E+00 -0.11131995607E+04  0.11131995607E+04  0.25500000000E-02 0. -1.
    -200001    2    1    2    0    0  0.83320082645E+02 -0.12597765953E+02  0.37169322703E+03  0.79660277664E+03  0.69951353729E+03 0.  0.
   -5000001    2    3    3    0    0  0.58883622846E+02 -0.24772403940E+02  0.80585776964E+02  0.21738873169E+03  0.19152764861E+03 0.  0.
     200001    1    1    2    0    0 -0.83320082645E+02  0.12597765953E+02 -0.76277536671E+03  0.10387142051E+04  0.70000000000E+03 0. -1.
         11    1    4    4    0    0  0.35412922567E+02 -0.35950135343E+02  0.13836903663E+03  0.14728366377E+03  0.51100000000E-03 0.  1.
    -200002    1    4    4    0    0  0.23470700279E+02  0.11177731404E+02 -0.57783259665E+02  0.70105067922E+02  0.30000000000E+02 0.  1.
    -200000    1    3    3    0    0  0.24436459799E+02  0.12174637987E+02  0.29110745006E+03  0.57921404494E+03  0.50000000000E+03 0.  1.
<mgrwt>
<rscale>  0 0.17931657E+04</rscale>
<asrwt>0</asrwt>
<pdfrwt beam="1">  1        2 0.10315963E+00 0.17931657E+04</pdfrwt>
<pdfrwt beam="2">  1       -2 0.15902851E+00 0.17931657E+04</pdfrwt>
<totfact> 0.10500712E+01</totfact>
</mgrwt>
</event>
<event>
 8    2  0.7085383E-010  0.1457150E+04  0.7818608E-02  0.8913459E-01
         -2   -1    0    0    0  501 -0.00000000000E+00  0.00000000000E+00  0.41668917444E+03  0.41668917445E+03  0.25500000000E-02 0. -1.
          2   -1    0    0  501    0  0.00000000000E+00 -0.00000000000E+00 -0.12739027172E+04  0.12739027172E+04  0.25500000000E-02 0.  1.
    -200001    2    1    2    0    0 -0.15750268255E+03  0.32922077780E+02 -0.57076245671E+03  0.91732273871E+03  0.69987160733E+03 0.  0.
   -5000001    2    3    3    0    0 -0.47138548487E+02  0.24904708507E+02 -0.20877205436E+03  0.29020108250E+03  0.19439292770E+03 0.  0.
     200001    1    1    2    0    0  0.15750268255E+03 -0.32922077780E+02 -0.28645108609E+03  0.77326915297E+03  0.70000000000E+03 0. -1.
         11    1    4    4    0    0  0.71019369263E+02 -0.76681162749E+01 -0.10411718045E+03  0.12626534791E+03  0.51100000000E-03 0.  1.
    -200002    1    4    4    0    0 -0.11815791775E+03  0.32572824782E+02 -0.10465487391E+03  0.16393573459E+03  0.30000000000E+02 0.  1.
    -200000    1    3    3    0    0 -0.11036413407E+03  0.80173692730E+01 -0.36199040234E+03  0.62712165621E+03  0.50000000000E+03 0. -1.
<mgrwt>
<rscale>  0 0.14571499E+04</rscale>
<asrwt>0</asrwt>
<pdfrwt beam="1">  1        2 0.18198610E+00 0.14571499E+04</pdfrwt>
<pdfrwt beam="2">  1       -2 0.59527025E-01 0.14571499E+04</pdfrwt>
<totfact> 0.49623012E+01</totfact>
</mgrwt>
</event>
<event>
 8    2  0.7085383E-010  0.1648078E+04  0.7818608E-02  0.8791544E-01
          2   -1    0    0  501    0  0.00000000000E+00  0.00000000000E+00  0.34259719341E+04  0.34259719341E+04  0.25500000000E-02 0.  1.
         -2   -1    0    0    0  501 -0.00000000000E+00 -0.00000000000E+00 -0.19820365533E+03  0.19820365535E+03  0.25500000000E-02 0. -1.
    -200001    2    1    2    0    0 -0.38303704002E+03 -0.32015763150E+02  0.20609946975E+04  0.22102792095E+04  0.69992332292E+03 0.  0.
   -5000001    2    3    3    0    0 -0.49508075481E+02  0.46495205131E+02  0.36300568032E+03  0.40734486666E+03  0.17188328253E+03 0.  0.
     200001    1    1    2    0    0  0.38303704002E+03  0.32015763150E+02  0.11667735812E+04  0.14138963799E+04  0.70000000000E+03 0. -1.
         11    1    4    4    0    0 -0.60999758460E+02  0.95612855448E+02  0.16065140118E+03  0.19665111584E+03  0.51100000000E-03 0.  1.
    -200002    1    4    4    0    0  0.11491682979E+02 -0.49117650317E+02  0.20235427914E+03  0.21069375082E+03  0.30000000000E+02 0.  1.
    -200000    1    3    3    0    0 -0.33352896454E+03 -0.78510968281E+02  0.16979890172E+04  0.18029343429E+04  0.50000000000E+03 0.  1.
<mgrwt>
<rscale>  0 0.16480779E+04</rscale>
<asrwt>0</asrwt>
<pdfrwt beam="1">  1        2 0.48942451E+00 0.16480779E+04</pdfrwt>
<pdfrwt beam="2">  1       -2 0.28314811E-01 0.16480779E+04</pdfrwt>
<totfact> 0.14677869E+01</totfact>
</mgrwt>
</event>
<event>
 8    2  0.7085383E-010  0.1526052E+04  0.7818608E-02  0.8867311E-01
          2   -1    0    0  501    0  0.00000000000E+00  0.00000000000E+00  0.41785286196E+04  0.41785286196E+04  0.25500000000E-02 0.  1.
         -2   -1    0    0    0  501 -0.00000000000E+00 -0.00000000000E+00 -0.13933334364E+03  0.13933334367E+03  0.25500000000E-02 0. -1.
    -200001    2    1    2    0    0  0.12985414460E+03 -0.26867776069E+03  0.20947177212E+04  0.22297904130E+04  0.70361432373E+03 0.  0.
   -5000001    2    3    3    0    0 -0.50193024218E+02 -0.91677128896E+02  0.72034252341E+03  0.74565652723E+03  0.16182172269E+03 0.  0.
     200001    1    1    2    0    0 -0.12985414460E+03  0.26867776069E+03  0.19444775547E+04  0.20880715502E+04  0.70000000000E+03 0.  1.
         11    1    4    4    0    0 -0.32989526606E+02 -0.11543285321E+03  0.29857783692E+03  0.32181015703E+03  0.51100000000E-03 0.  1.
    -200002    1    4    4    0    0 -0.17203497612E+02  0.23755724319E+02  0.42176468649E+03  0.42384637021E+03  0.30000000000E+02 0.  1.
    -200000    1    3    3    0    0  0.18004716882E+03 -0.17700063179E+03  0.13743751978E+04  0.14841338858E+04  0.50000000000E+03 0. -1.
<mgrwt>
<rscale>  0 0.15260516E+04</rscale>
<asrwt>0</asrwt>
<pdfrwt beam="1">  1        2 0.59693269E+00 0.15260516E+04</pdfrwt>
<pdfrwt beam="2">  1       -2 0.19904762E-01 0.15260516E+04</pdfrwt>
<totfact> 0.90521579E+00</totfact>
</mgrwt>
</event>
<event>
 8    2  0.7085383E-010  0.1792029E+04  0.7818608E-02  0.8710550E-01
          2   -1    0    0  501    0  0.00000000000E+00  0.00000000000E+00  0.16839499009E+04  0.16839499009E+04  0.25500000000E-02 0.  1.
         -2   -1    0    0    0  501 -0.00000000000E+00 -0.00000000000E+00 -0.47676135818E+03  0.47676135819E+03  0.25500000000E-02 0. -1.
    -200001    2    1    2    0    0 -0.36868658678E+03  0.19026665084E+02  0.11123190422E+04  0.13636591683E+04  0.69715196510E+03 0.  0.
   -5000001    2    3    3    0    0 -0.17113409238E+03 -0.63083371329E+02  0.38955838499E+03  0.45914160976E+03  0.16058920632E+03 0.  0.
     200001    1    1    2    0    0  0.36868658678E+03 -0.19026665084E+02  0.94869500505E+02  0.79705209076E+03  0.70000000000E+03 0. -1.
         11    1    4    4    0    0  0.14287886787E+02 -0.52573406156E+02  0.98910791956E+02  0.11292232511E+03  0.51100000000E-03 0.  1.
    -200002    1    4    4    0    0 -0.18542197917E+03 -0.10509965173E+02  0.29064759303E+03  0.34621928465E+03  0.30000000000E+02 0.  1.
    -200000    1    3    3    0    0 -0.19755249440E+03  0.82110036413E+02  0.72276065724E+03  0.90451755858E+03  0.50000000000E+03 0.  1.
<mgrwt>
<rscale>  0 0.17920293E+04</rscale>
<asrwt>0</asrwt>
<pdfrwt beam="1">  1        2 0.24056427E+00 0.17920293E+04</pdfrwt>
<pdfrwt beam="2">  1       -2 0.68108767E-01 0.17920293E+04</pdfrwt>
<totfact> 0.21861169E+01</totfact>
</mgrwt>
</event>
<event>
 8    2  0.7085383E-010  0.1443891E+04  0.7818608E-02  0.8922647E-01
         -2   -1    0    0    0  501 -0.00000000000E+00  0.00000000000E+00  0.18406036150E+03  0.18406036152E+03  0.25500000000E-02 0. -1.
          2   -1    0    0  501    0  0.00000000000E+00 -0.00000000000E+00 -0.28317085259E+04  0.28317085259E+04  0.25500000000E-02 0.  1.
    -200001    2    1    2    0    0  0.84958215005E+02 -0.84572445378E+02 -0.10508985320E+04  0.12682049300E+04  0.69970395384E+03 0.  0.
   -5000001    2    3    3    0    0 -0.80616227983E+00 -0.44774360526E+02 -0.34175876268E+03  0.39538270958E+03  0.19370865213E+03 0.  0.
     200001    1    1    2    0    0 -0.84958215005E+02  0.84572445378E+02 -0.15967496323E+04  0.17475639574E+04  0.70000000000E+03 0.  1.
         11    1    4    4    0    0 -0.47232043429E+02 -0.94104338916E+02 -0.11087858381E+03  0.15290700729E+03  0.51100000000E-03 0.  1.
    -200002    1    4    4    0    0  0.46425881149E+02  0.49329978390E+02 -0.23088017887E+03  0.24247570229E+03  0.30000000000E+02 0.  1.
    -200000    1    3    3    0    0  0.85764377284E+02 -0.39798084852E+02 -0.70913976935E+03  0.87282222041E+03  0.50000000000E+03 0. -1.
<mgrwt>
<rscale>  0 0.14438910E+04</rscale>
<asrwt>0</asrwt>
<pdfrwt beam="1">  1        2 0.40452976E+00 0.14438910E+04</pdfrwt>
<pdfrwt beam="2">  1       -2 0.26294339E-01 0.14438910E+04</pdfrwt>
<totfact> 0.37322939E+01</totfact>
</mgrwt>
</event>
<event>
 8    2  0.7085383E-010  0.1938395E+04  0.7818608E-02  0.8635977E-01
         -2   -1    0    0    0  501 -0.00000000000E+00  0.00000000000E+00  0.44593062068E+03  0.44593062069E+03  0.25500000000E-02 0. -1.
          2   -1    0    0  501    0  0.00000000000E+00 -0.00000000000E+00 -0.21064787110E+04  0.21064787110E+04  0.25500000000E-02 0.  1.
    -200001    2    1    2    0    0  0.24636083516E+03 -0.42872104291E+03 -0.23154062628E+03  0.88610872076E+03  0.69791275218E+03 0.  0.
   -5000001    2    3    3    0    0  0.92518089050E+02 -0.17923699245E+03 -0.42351003182E+02  0.27643454921E+03  0.18421985849E+03 0.  0.
     200001    1    1    2    0    0 -0.24636083516E+03  0.42872104291E+03 -0.14290074641E+04  0.16663006110E+04  0.70000000000E+03 0.  1.
         11    1    4    4    0    0 -0.14662902607E+02  0.11802627198E+02 -0.51822168663E+02  0.55134743010E+02  0.51100000000E-03 0.  1.
    -200002    1    4    4    0    0  0.10718099166E+03 -0.19103961965E+03  0.94711654807E+01  0.22129980620E+03  0.30000000000E+02 0.  1.
    -200000    1    3    3    0    0  0.15384274611E+03 -0.24948405046E+03 -0.18918962310E+03  0.60967417155E+03  0.50000000000E+03 0. -1.
<mgrwt>
<rscale>  0 0.19383946E+04</rscale>
<asrwt>0</asrwt>
<pdfrwt beam="1">  1        2 0.30092553E+00 0.19383946E+04</pdfrwt>
<pdfrwt beam="2">  1       -2 0.63704375E-01 0.19383946E+04</pdfrwt>
<totfact> 0.15098095E+01</totfact>
</mgrwt>
</event>
<event>
 8    2  0.7085383E-010  0.1901615E+04  0.7818608E-02  0.8654053E-01
         -2   -1    0    0    0  501 -0.00000000000E+00  0.00000000000E+00  0.18047959705E+04  0.18047959705E+04  0.25500000000E-02 0. -1.
          2   -1    0    0  501    0  0.00000000000E+00 -0.00000000000E+00 -0.50090711958E+03  0.50090711959E+03  0.25500000000E-02 0.  1.
    -200001    2    1    2    0    0 -0.46198523874E+03 -0.39142728902E+03  0.38763088842E+03  0.10033305100E+04  0.69983478288E+03 0.  0.
   -5000001    2    3    3    0    0 -0.11157448573E+03 -0.16033464028E+03  0.52206242614E+02  0.26936783992E+03  0.17798168073E+03 0.  0.
     200001    1    1    2    0    0  0.46198523874E+03  0.39142728902E+03  0.91625796250E+03  0.13023725800E+04  0.70000000000E+03 0. -1.
         11    1    4    4    0    0 -0.13863136756E+03 -0.85156885296E+02 -0.11147102336E+02  0.16307853653E+03  0.51100000000E-03 0.  1.
    -200002    1    4    4    0    0  0.27056881835E+02 -0.75177754981E+02  0.63353344950E+02  0.10628930339E+03  0.30000000000E+02 0.  1.
    -200000    1    3    3    0    0 -0.35041075301E+03 -0.23109264874E+03  0.33542464580E+03  0.73396267013E+03  0.50000000000E+03 0.  1.
<mgrwt>
<rscale>  0 0.19016153E+04</rscale>
<asrwt>0</asrwt>
<pdfrwt beam="1">  1        2 0.71558160E-01 0.19016153E+04</pdfrwt>
<pdfrwt beam="2">  1       -2 0.25782800E+00 0.19016153E+04</pdfrwt>
<totfact> 0.36208880E+00</totfact>
</mgrwt>
</event>
<event>
 8    2  0.7085383E-010  0.2452355E+04  0.7818608E-02  0.8420159E-01
         -2   -1    0    0    0  501 -0.00000000000E+00  0.00000000000E+00  0.88650112929E+03  0.88650112929E+03  0.25500000000E-02 0. -1.
          2   -1    0    0  501    0  0.00000000000E+00 -0.00000000000E+00 -0.16960064185E+04  0.16960064185E+04  0.25500000000E-02 0.  1.
    -200001    2    1    2    0    0 -0.47626796061E+03 -0.39409667019E+03 -0.12416330452E+04  0.15534896892E+04  0.69966723516E+03 0.  0.
   -5000001    2    3    3    0    0  0.17450531194E+01  0.24655398405E+02 -0.15309798862E+03  0.19748146449E+03  0.12226610657E+03 0.  0.
     200001    1    1    2    0    0  0.47626796061E+03  0.39409667019E+03  0.43212775595E+03  0.10290178586E+04  0.70000000000E+03 0. -1.
         11    1    4    4    0    0 -0.52911026668E+02  0.28329956609E+02 -0.56351768781E+02  0.82326696943E+02  0.51100000000E-03 0.  1.
    -200002    1    4    4    0    0  0.54656079788E+02 -0.36745582046E+01 -0.96746219839E+02  0.11515476755E+03  0.30000000000E+02 0.  1.
    -200000    1    3    3    0    0 -0.47801301373E+03 -0.41875206860E+03 -0.10885350565E+04  0.13560082247E+04  0.50000000000E+03 0.  1.
<mgrwt>
<rscale>  0 0.24523553E+04</rscale>
<asrwt>0</asrwt>
<pdfrwt beam="1">  1        2 0.24228663E+00 0.24523553E+04</pdfrwt>
<pdfrwt beam="2">  1       -2 0.12664302E+00 0.24523553E+04</pdfrwt>
<totfact> 0.48172734E+00</totfact>
</mgrwt>
</event>
<event>
 8    2  0.7085383E-010  0.1667920E+04  0.7818608E-02  0.8779875E-01
         -2   -1    0    0    0  501 -0.00000000000E+00  0.00000000000E+00  0.11073621338E+04  0.11073621338E+04  0.25500000000E-02 0. -1.
          2   -1    0    0  501    0  0.00000000000E+00 -0.00000000000E+00 -0.62805922496E+03  0.62805922497E+03  0.25500000000E-02 0.  1.
    -200001    2    1    2    0    0  0.14574955311E+03  0.40797519360E+03  0.37942854761E+03  0.90616773119E+03  0.69963364948E+03 0.  0.
   -5000001    2    3    3    0    0  0.47593801197E+02  0.86626383321E+02 -0.64398782844E+01  0.19076990368E+03  0.16304104980E+03 0.  0.
     200001    1    1    2    0    0 -0.14574955311E+03 -0.40797519360E+03  0.99874361232E+02  0.82925362758E+03  0.70000000000E+03 0.  1.
         11    1    4    4    0    0  0.52911005285E+02  0.14368735632E+02  0.64759016596E+02  0.84851430598E+02  0.51100000000E-03 0.  1.
    -200002    1    4    4    0    0 -0.53172040876E+01  0.72257647688E+02 -0.71198894880E+02  0.10591847309E+03  0.30000000000E+02 0.  1.
    -200000    1    3    3    0    0  0.98155751912E+02  0.32134881028E+03  0.38586842589E+03  0.71539782751E+03  0.50000000000E+03 0. -1.
<mgrwt>
<rscale>  0 0.16679197E+04</rscale>
<asrwt>0</asrwt>
<pdfrwt beam="1">  1        2 0.89722747E-01 0.16679197E+04</pdfrwt>
<pdfrwt beam="2">  1       -2 0.15819459E+00 0.16679197E+04</pdfrwt>
<totfact> 0.12755893E+01</totfact>
</mgrwt>
</event>
<event>
 8    2  0.7085383E-010  0.1527514E+04  0.7818608E-02  0.8866360E-01
         -2   -1    0    0    0  501 -0.00000000000E+00  0.00000000000E+00  0.16457621081E+04  0.16457621081E+04  0.25500000000E-02 0. -1.
          2   -1    0    0  501    0  0.00000000000E+00 -0.00000000000E+00 -0.35444029296E+03  0.35444029297E+03  0.25500000000E-02 0.  1.
    -200001    2    1    2    0    0 -0.17408170608E+03 -0.21921923891E+03  0.80550360372E+03  0.11033295842E+04  0.70009899345E+03 0.  0.
   -5000001    2    3    3    0    0 -0.16369899029E+03 -0.14912165011E+03  0.22989103379E+03  0.33759379202E+03  0.10993204736E+03 0.  0.
     200001    1    1    2    0    0  0.17408170608E+03  0.21921923891E+03  0.48581821140E+03  0.89687281687E+03  0.70000000000E+03 0.  1.
         11    1    4    4    0    0 -0.32202911888E+02  0.10534829325E+02  0.57183699070E+02  0.66467929128E+02  0.51100000000E-03 0.  1.
    -200002    1    4    4    0    0 -0.13149607840E+03 -0.15965647944E+03  0.17270733472E+03  0.27112586289E+03  0.30000000000E+02 0.  1.
    -200000    1    3    3    0    0 -0.10382715793E+02 -0.70097588801E+02  0.57561256993E+03  0.76573579217E+03  0.50000000000E+03 0. -1.
<mgrwt>
<rscale>  0 0.15275135E+04</rscale>
<asrwt>0</asrwt>
<pdfrwt beam="1">  1        2 0.50634328E-01 0.15275135E+04</pdfrwt>
<pdfrwt beam="2">  1       -2 0.23510887E+00 0.15275135E+04</pdfrwt>
<totfact> 0.75998574E+00</totfact>
</mgrwt>
</event>
<event>
 8    2  0.7085383E-010  0.3008569E+04  0.7818608E-02  0.8241288E-01
          2   -1    0    0  501    0  0.00000000000E+00  0.00000000000E+00  0.16981329853E+04  0.16981329853E+04  0.25500000000E-02 0.  1.
         -2   -1    0    0    0  501 -0.00000000000E+00 -0.00000000000E+00 -0.13325649839E+04  0.13325649839E+04  0.25500000000E-02 0. -1.
    -200001    2    1    2    0    0  0.17302471886E+03 -0.12422922191E+04  0.63259173364E+03  0.15696951683E+04  0.70038782743E+03 0.  0.
   -5000001    2    3    3    0    0  0.91636523868E+01 -0.38298382806E+03  0.15576241237E+03  0.45496311003E+03  0.18965473182E+03 0.  0.
     200001    1    1    2    0    0 -0.17302471886E+03  0.12422922191E+04 -0.26702373225E+03  0.14610028010E+04  0.70000000000E+03 0. -1.
         11    1    4    4    0    0 -0.53398320452E+02 -0.32073403640E+03  0.80008600262E+02  0.33484784432E+03  0.51100000000E-03 0.  1.
    -200002    1    4    4    0    0  0.62561972838E+02 -0.62249791659E+02  0.75753812108E+02  0.12011526571E+03  0.30000000000E+02 0.  1.
    -200000    1    3    3    0    0  0.16386106647E+03 -0.85930839105E+03  0.47682932127E+03  0.11147320582E+04  0.50000000000E+03 0.  1.
<mgrwt>
<rscale>  0 0.30085695E+04</rscale>
<asrwt>0</asrwt>
<pdfrwt beam="1">  1        2 0.24259043E+00 0.30085695E+04</pdfrwt>
<pdfrwt beam="2">  1       -2 0.19036642E+00 0.30085695E+04</pdfrwt>
<totfact> 0.15278343E+00</totfact>
</mgrwt>
</event>
<event>
 8    2  0.7085383E-010  0.1431671E+04  0.7818608E-02  0.8931207E-01
         -2   -1    0    0    0  501 -0.00000000000E+00  0.00000000000E+00  0.74540394552E+03  0.74540394552E+03  0.25500000000E-02 0.  1.
          2   -1    0    0  501    0  0.00000000000E+00 -0.00000000000E+00 -0.68743990450E+03  0.68743990451E+03  0.25500000000E-02 0. -1.
    -200001    2    1    2    0    0  0.13146511975E+03  0.69521317632E+02  0.43071416217E+02  0.71706589453E+03  0.70015145424E+03 0.  0.
   -5000001    2    3    3    0    0  0.31380578074E+02  0.44072234906E+02 -0.69871494850E+02  0.19416946840E+03  0.17289492213E+03 0.  0.
     200001    1    1    2    0    0 -0.13146511975E+03 -0.69521317632E+02  0.14892624800E+02  0.71577795551E+03  0.70000000000E+03 0.  1.
         11    1    4    4    0    0  0.70739853293E+02  0.27646565172E+02 -0.10623956138E+03  0.13059595634E+03  0.51100000000E-03 0.  1.
    -200002    1    4    4    0    0 -0.39359275219E+02  0.16425669734E+02  0.36368066534E+02  0.63573512058E+02  0.30000000000E+02 0.  1.
    -200000    1    3    3    0    0  0.10008454167E+03  0.25449082727E+02  0.11294291107E+03  0.52289642612E+03  0.50000000000E+03 0.  1.
<mgrwt>
<rscale>  0 0.14316709E+04</rscale>
<asrwt>0</asrwt>
<pdfrwt beam="1">  1        2 0.98205700E-01 0.14316709E+04</pdfrwt>
<pdfrwt beam="2">  1       -2 0.10648628E+00 0.14316709E+04</pdfrwt>
<totfact> 0.31822480E+01</totfact>
</mgrwt>
</event>
<event>
 8    2  0.7085383E-010  0.2161966E+04  0.7818608E-02  0.8534428E-01
          2   -1    0    0  501    0  0.00000000000E+00  0.00000000000E+00  0.49833583620E+03  0.49833583621E+03  0.25500000000E-02 0.  1.
         -2   -1    0    0    0  501 -0.00000000000E+00 -0.00000000000E+00 -0.23448529373E+04  0.23448529373E+04  0.25500000000E-02 0. -1.
    -200001    2    1    2    0    0 -0.20261931817E+03  0.21550580703E+02  0.12591955457E+03  0.74032753789E+03  0.70050704030E+03 0.  0.
   -5000001    2    3    3    0    0  0.17136774869E+02  0.36054707878E+02  0.11430869385E+02  0.18210646236E+03  0.17730901794E+03 0.  0.
     200001    1    1    2    0    0  0.20261931817E+03 -0.21550580703E+02 -0.19724366556E+04  0.21028612356E+04  0.70000000000E+03 0. -1.
         11    1    4    4    0    0  0.54385119852E+02  0.51447716827E+02 -0.59190186095E+02  0.95436297907E+02  0.51100000000E-03 0.  1.
    -200002    1    4    4    0    0 -0.37248344983E+02 -0.15393008949E+02  0.70621055480E+02  0.86670164449E+02  0.30000000000E+02 0.  1.
    -200000    1    3    3    0    0 -0.21975609304E+03 -0.14504127176E+02  0.11448868519E+03  0.55822107553E+03  0.50000000000E+03 0.  1.
<mgrwt>
<rscale>  0 0.21619660E+04</rscale>
<asrwt>0</asrwt>
<pdfrwt beam="1">  1        2 0.71190835E-01 0.21619660E+04</pdfrwt>
<pdfrwt beam="2">  1       -2 0.33497899E+00 0.21619660E+04</pdfrwt>
<totfact> 0.12004317E+00</totfact>
</mgrwt>
</event>
<event>
 8    2  0.7085383E-010  0.1673348E+04  0.7818608E-02  0.8776712E-01
          2   -1    0    0  501    0  0.00000000000E+00  0.00000000000E+00  0.10285553238E+04  0.10285553238E+04  0.25500000000E-02 0.  1.
         -2   -1    0    0    0  501 -0.00000000000E+00 -0.00000000000E+00 -0.68058930367E+03  0.68058930368E+03  0.25500000000E-02 0. -1.
    -200001    2    1    2    0    0  0.36802155393E+03 -0.79166075586E+02 -0.93888813194E+02  0.79978065999E+03  0.69937605275E+03 0.  0.
   -5000001    2    3    3    0    0 -0.57600817759E+00 -0.68300863144E+02  0.11338993543E+02  0.16965757126E+03  0.15488634227E+03 0.  0.
     200001    1    1    2    0    0 -0.36802155393E+03  0.79166075586E+02  0.44185483336E+03  0.90936396753E+03  0.70000000000E+03 0.  1.
         11    1    4    4    0    0 -0.34080790413E+02  0.10045866959E+02  0.57972304268E+02  0.67994174607E+02  0.51100000000E-03 0.  1.
    -200002    1    4    4    0    0  0.33504782236E+02 -0.78346730103E+02 -0.46633310724E+02  0.10166339666E+03  0.30000000000E+02 0.  1.
    -200000    1    3    3    0    0  0.36859756211E+03 -0.10865212443E+02 -0.10522780674E+03  0.63012308872E+03  0.50000000000E+03 0.  1.
<mgrwt>
<rscale>  0 0.16733484E+04</rscale>
<asrwt>0</asrwt>
<pdfrwt beam="1">  1        2 0.14693647E+00 0.16733484E+04</pdfrwt>
<pdfrwt beam="2">  1       -2 0.97227044E-01 0.16733484E+04</pdfrwt>
<totfact> 0.22765402E+01</totfact>
</mgrwt>
</event>
<event>
 8    2  0.7085383E-010  0.1553813E+04  0.7818608E-02  0.8849436E-01
          2   -1    0    0  501    0  0.00000000000E+00  0.00000000000E+00  0.10448550304E+04  0.10448550304E+04  0.25500000000E-02 0.  1.
         -2   -1    0    0    0  501 -0.00000000000E+00 -0.00000000000E+00 -0.57767245664E+03  0.57767245665E+03  0.25500000000E-02 0. -1.
    -200001    2    1    2    0    0 -0.33575563950E+03 -0.38893559474E+01  0.19822248285E+03  0.80089100598E+03  0.69956220182E+03 0.  0.
   -5000001    2    3    3    0    0 -0.82350400555E+02  0.24979332727E+02 -0.19548073703E+02  0.19883483617E+03  0.17817858837E+03 0.  0.
     200001    1    1    2    0    0  0.33575563950E+03  0.38893559474E+01  0.26896009092E+03  0.82163648109E+03  0.70000000000E+03 0.  1.
         11    1    4    4    0    0 -0.10478840303E+03  0.79575326102E+02 -0.15671625462E+02  0.13250827061E+03  0.51100000000E-03 0.  1.
    -200002    1    4    4    0    0  0.22438002480E+02 -0.54595993376E+02 -0.38764482412E+01  0.66326565560E+02  0.30000000000E+02 0.  1.
    -200000    1    3    3    0    0 -0.25340523894E+03 -0.28868688674E+02  0.21777055655E+03  0.60205616981E+03  0.50000000000E+03 0.  1.
<mgrwt>
<rscale>  0 0.15538133E+04</rscale>
<asrwt>0</asrwt>
<pdfrwt beam="1">  1        2 0.14926500E+00 0.15538133E+04</pdfrwt>
<pdfrwt beam="2">  1       -2 0.82524637E-01 0.15538133E+04</pdfrwt>
<totfact> 0.32765204E+01</totfact>
</mgrwt>
</event>
<event>
 8    2  0.7085383E-010  0.2865751E+04  0.7818608E-02  0.8283141E-01
         -2   -1    0    0    0  501 -0.00000000000E+00  0.00000000000E+00  0.71129152002E+03  0.71129152002E+03  0.25500000000E-02 0. -1.
          2   -1    0    0  501    0  0.00000000000E+00 -0.00000000000E+00 -0.28864853388E+04  0.28864853388E+04  0.25500000000E-02 0.  1.
    -200001    2    1    2    0    0  0.11532674487E+04  0.24688580146E+03 -0.56561459981E+03  0.14831318131E+04  0.69912923871E+03 0.  0.
   -5000001    2    3    3    0    0  0.42522238045E+03  0.80917286913E+02 -0.20957877863E+03  0.51651054543E+03  0.18840965720E+03 0.  0.
     200001    1    1    2    0    0 -0.11532674487E+04 -0.24688580146E+03 -0.16095792189E+04  0.21146450457E+04  0.70000000000E+03 0. -1.
         11    1    4    4    0    0  0.11770963140E+03 -0.59317288650E+02 -0.73623338995E+02  0.15097845576E+03  0.51100000000E-03 0.  1.
    -200002    1    4    4    0    0  0.30751274905E+03  0.14023457556E+03 -0.13595543963E+03  0.36553208967E+03  0.30000000000E+02 0.  1.
    -200000    1    3    3    0    0  0.72804506822E+03  0.16596851455E+03 -0.35603582118E+03  0.96662126769E+03  0.50000000000E+03 0.  1.
<mgrwt>
<rscale>  0 0.28657512E+04</rscale>
<asrwt>0</asrwt>
<pdfrwt beam="1">  1        2 0.41235504E+00 0.28657512E+04</pdfrwt>
<pdfrwt beam="2">  1       -2 0.10161308E+00 0.28657512E+04</pdfrwt>
<totfact> 0.18892711E+00</totfact>
</mgrwt>
</event>
<event>
 8    2  0.7085383E-010  0.1723747E+04  0.7818608E-02  0.8747935E-01
          2   -1    0    0  501    0  0.00000000000E+00  0.00000000000E+00  0.81195203575E+03  0.81195203576E+03  0.25500000000E-02 0.  1.
         -2   -1    0    0    0  501 -0.00000000000E+00 -0.00000000000E+00 -0.91486478762E+03  0.91486478763E+03  0.25500000000E-02 0. -1.
    -200001    2    1    2    0    0  0.31773621709E+03 -0.36491969731E+03 -0.19103067335E+03  0.87131261111E+03  0.69897801037E+03 0.  0.
   -5000001    2    3    3    0    0  0.79409425881E+02 -0.10370496493E+03 -0.43178448946E+02  0.24131810631E+03  0.19826616784E+03 0.  0.
     200001    1    1    2    0    0 -0.31773621709E+03  0.36491969731E+03  0.88117921484E+02  0.85550421227E+03  0.70000000000E+03 0.  1.
         11    1    4    4    0    0  0.10620313366E+03 -0.91073841818E+02  0.42171548296E+02  0.14612320058E+03  0.51100000000E-03 0.  1.
    -200002    1    4    4    0    0 -0.26793707775E+02 -0.12631123114E+02 -0.85349997242E+02  0.95194905728E+02  0.30000000000E+02 0.  1.
    -200000    1    3    3    0    0  0.23832679121E+03 -0.26121473237E+03 -0.14785222441E+03  0.62999450480E+03  0.50000000000E+03 0.  1.
<mgrwt>
<rscale>  0 0.17237475E+04</rscale>
<asrwt>0</asrwt>
<pdfrwt beam="1">  1        2 0.11599315E+00 0.17237475E+04</pdfrwt>
<pdfrwt beam="2">  1       -2 0.13069497E+00 0.17237475E+04</pdfrwt>
<totfact> 0.15214118E+01</totfact>
</mgrwt>
</event>
<event>
 8    2  0.7085383E-010  0.1493862E+04  0.7818608E-02  0.8888545E-01
         -2   -1    0    0    0  501 -0.00000000000E+00  0.00000000000E+00  0.13412368868E+04  0.13412368868E+04  0.25500000000E-02 0. -1.
          2   -1    0    0  501    0  0.00000000000E+00 -0.00000000000E+00 -0.41596355169E+03  0.41596355170E+03  0.25500000000E-02 0.  1.
    -200001    2    1    2    0    0 -0.34019274073E+02 -0.24604095587E+03  0.53275228411E+03  0.91710149289E+03  0.70395787450E+03 0.  0.
   -5000001    2    3    3    0    0  0.18103665111E+02  0.15521744088E+02  0.89237202983E+02  0.19749224199E+03  0.17456013296E+03 0.  0.
     200001    1    1    2    0    0  0.34019274073E+02  0.24604095587E+03  0.39252105104E+03  0.84009894565E+03  0.70000000000E+03 0.  1.
         11    1    4    4    0    0  0.55093527127E+02  0.61713917572E+02  0.10052771147E+03  0.13019111001E+03  0.51100000000E-03 0.  1.
    -200002    1    4    4    0    0 -0.36989862016E+02 -0.46192173484E+02 -0.11290508487E+02  0.67301131974E+02  0.30000000000E+02 0.  1.
    -200000    1    3    3    0    0 -0.52122939184E+02 -0.26156269996E+03  0.44351508112E+03  0.71960925090E+03  0.50000000000E+03 0. -1.
<mgrwt>
<rscale>  0 0.14938617E+04</rscale>
<asrwt>0</asrwt>
<pdfrwt beam="1">  1        2 0.59423363E-01 0.14938617E+04</pdfrwt>
<pdfrwt beam="2">  1       -2 0.19160527E+00 0.14938617E+04</pdfrwt>
<totfact> 0.12107289E+01</totfact>
</mgrwt>
</event>
<event>
 8    2  0.7085383E-010  0.2603328E+04  0.7818608E-02  0.8367072E-01
         -2   -1    0    0    0  501 -0.00000000000E+00  0.00000000000E+00  0.73222660491E+03  0.73222660491E+03  0.25500000000E-02 0. -1.
          2   -1    0    0  501    0  0.00000000000E+00 -0.00000000000E+00 -0.23139403729E+04  0.23139403729E+04  0.25500000000E-02 0.  1.
    -200001    2    1    2    0    0  0.41498460734E+03 -0.68108338271E+01  0.39911424202E+03  0.90468659803E+03  0.69778725316E+03 0.  0.
   -5000001    2    3    3    0    0  0.11518636150E+03  0.26334477182E+01  0.10907285050E+03  0.25346298707E+03  0.19766579415E+03 0.  0.
     200001    1    1    2    0    0 -0.41498460734E+03  0.68108338271E+01 -0.19808280100E+04  0.21414803798E+04  0.70000000000E+03 0.  1.
         11    1    4    4    0    0  0.10962252399E+03  0.75104117906E+02  0.19553661118E+02  0.13431333499E+03  0.51100000000E-03 0.  1.
    -200002    1    4    4    0    0  0.55638375117E+01 -0.72470670188E+02  0.89519189377E+02  0.11914965209E+03  0.30000000000E+02 0.  1.
    -200000    1    3    3    0    0  0.29979824584E+03 -0.94442815453E+01  0.29004139152E+03  0.65122361095E+03  0.50000000000E+03 0. -1.
<mgrwt>
<rscale>  0 0.26033276E+04</rscale>
<asrwt>0</asrwt>
<pdfrwt beam="1">  1        2 0.33056291E+00 0.26033276E+04</pdfrwt>
<pdfrwt beam="2">  1       -2 0.10460380E+00 0.26033276E+04</pdfrwt>
<totfact> 0.36423806E+00</totfact>
</mgrwt>
</event>
<event>
 8    2  0.7085383E-010  0.1514293E+04  0.7818608E-02  0.8875004E-01
         -2   -1    0    0    0  501 -0.00000000000E+00  0.00000000000E+00  0.59121074127E+03  0.59121074128E+03  0.25500000000E-02 0. -1.
          2   -1    0    0  501    0  0.00000000000E+00 -0.00000000000E+00 -0.96965558951E+03  0.96965558951E+03  0.25500000000E-02 0.  1.
    -200001    2    1    2    0    0 -0.28792659490E+03 -0.26148093332E+02 -0.19437601657E+03  0.78146477727E+03  0.69951391370E+03 0.  0.
   -5000001    2    3    3    0    0 -0.88624561791E+02 -0.86274080467E+02 -0.94202929926E+02  0.23067345379E+03  0.17040692581E+03 0.  0.
     200001    1    1    2    0    0  0.28792659490E+03  0.26148093332E+02 -0.18406883167E+03  0.77940155352E+03  0.70000000000E+03 0. -1.
         11    1    4    4    0    0 -0.77379354715E+02  0.24391863220E+02  0.11212082379E+01  0.81140524004E+02  0.51100000000E-03 0.  1.
    -200002    1    4    4    0    0 -0.11245207076E+02 -0.11066594369E+03 -0.95324138164E+02  0.14953292979E+03  0.30000000000E+02 0.  1.
    -200000    1    3    3    0    0 -0.19930203311E+03  0.60125987135E+02 -0.10017308664E+03  0.55079132348E+03  0.50000000000E+03 0. -1.
<mgrwt>
<rscale>  0 0.15142930E+04</rscale>
<asrwt>0</asrwt>
<pdfrwt beam="1">  1        2 0.13852223E+00 0.15142930E+04</pdfrwt>
<pdfrwt beam="2">  1       -2 0.84458678E-01 0.15142930E+04</pdfrwt>
<totfact> 0.34692971E+01</totfact>
</mgrwt>
</event>
<event>
 8    2  0.7085383E-010  0.1613560E+04  0.7818608E-02  0.8812261E-01
         -2   -1    0    0    0  501 -0.00000000000E+00  0.00000000000E+00  0.29339612892E+03  0.29339612894E+03  0.25500000000E-02 0.  1.
          2   -1    0    0  501    0  0.00000000000E+00 -0.00000000000E+00 -0.22184804271E+04  0.22184804271E+04  0.25500000000E-02 0. -1.
    -200001    2    1    2    0    0 -0.36550519596E+03 -0.16455414300E+03 -0.98177821867E+03  0.12707083668E+04  0.70009939912E+03 0.  0.
   -5000001    2    3    3    0    0 -0.11485587037E+03 -0.64016322065E+02 -0.24759690686E+03  0.34229297680E+03  0.19639321075E+03 0.  0.
     200001    1    1    2    0    0  0.36550519596E+03  0.16455414300E+03 -0.94330607952E+03  0.12411681892E+04  0.70000000000E+03 0. -1.
         11    1    4    4    0    0  0.38274682303E+02 -0.26016125749E+02  0.10474058993E+01  0.46291329250E+02  0.51100000000E-03 0.  1.
    -200002    1    4    4    0    0 -0.15313055268E+03 -0.38000196316E+02 -0.24864431276E+03  0.29600164755E+03  0.30000000000E+02 0.  1.
    -200000    1    3    3    0    0 -0.25064932559E+03 -0.10053782094E+03 -0.73418131182E+03  0.92841539005E+03  0.50000000000E+03 0. -1.
<mgrwt>
<rscale>  0 0.16135595E+04</rscale>
<asrwt>0</asrwt>
<pdfrwt beam="1">  1        2 0.31692577E+00 0.16135595E+04</pdfrwt>
<pdfrwt beam="2">  1       -2 0.41913734E-01 0.16135595E+04</pdfrwt>
<totfact> 0.32039561E+01</totfact>
</mgrwt>
</event>
<event>
 8    2  0.7085383E-010  0.2700934E+04  0.7818608E-02  0.8334702E-01
          2   -1    0    0  501    0  0.00000000000E+00  0.00000000000E+00  0.16724959944E+04  0.16724959944E+04  0.25500000000E-02 0.  1.
         -2   -1    0    0    0  501 -0.00000000000E+00 -0.00000000000E+00 -0.10904428714E+04  0.10904428714E+04  0.25500000000E-02 0. -1.
    -200001    2    1    2    0    0 -0.45841062701E+03  0.40299937847E+03 -0.71327489404E+03  0.11690682708E+04  0.69671424943E+03 0.  0.
   -5000001    2    3    3    0    0 -0.20702478516E+03  0.59823436498E+02 -0.30420781030E+03  0.39556943589E+03  0.13226746213E+03 0.  0.
     200001    1    1    2    0    0  0.45841062701E+03 -0.40299937847E+03  0.12953280171E+04  0.15938705951E+04  0.70000000000E+03 0.  1.
         11    1    4    4    0    0 -0.11896330216E+03  0.28000627658E+02 -0.26094897661E+03  0.28815043086E+03  0.51100000000E-03 0.  1.
    -200002    1    4    4    0    0 -0.88061482994E+02  0.31822808839E+02 -0.43258833695E+02  0.10741900503E+03  0.30000000000E+02 0.  1.
    -200000    1    3    3    0    0 -0.25138584185E+03  0.34317594197E+03 -0.40906708374E+03  0.77349883493E+03  0.50000000000E+03 0. -1.
<mgrwt>
<rscale>  0 0.27009342E+04</rscale>
<asrwt>0</asrwt>
<pdfrwt beam="1">  1        2 0.23892800E+00 0.27009342E+04</pdfrwt>
<pdfrwt beam="2">  1       -2 0.15577755E+00 0.27009342E+04</pdfrwt>
<totfact> 0.28366989E+00</totfact>
</mgrwt>
</event>
<event>
 8    2  0.7085383E-010  0.1619514E+04  0.7818608E-02  0.8808649E-01
         -2   -1    0    0    0  501 -0.00000000000E+00  0.00000000000E+00  0.60139396779E+03  0.60139396780E+03  0.25500000000E-02 0. -1.
          2   -1    0    0  501    0  0.00000000000E+00 -0.00000000000E+00 -0.10903103648E+04  0.10903103648E+04  0.25500000000E-02 0.  1.
    -200001    2    1    2    0    0 -0.18254572927E+03  0.32257058933E+03 -0.41571397489E+03  0.89625897116E+03  0.70220175598E+03 0.  0.
   -5000001    2    3    3    0    0 -0.40160678034E+02  0.45248762131E+02 -0.14076901101E+03  0.24604698126E+03  0.19251719921E+03 0.  0.
     200001    1    1    2    0    0  0.18254572927E+03 -0.32257058933E+03 -0.73202422084E+02  0.79544536140E+03  0.70000000000E+03 0.  1.
         11    1    4    4    0    0 -0.81747876764E+02  0.32239537972E+02 -0.16570318386E+03  0.18756238510E+03  0.51100000000E-03 0.  1.
    -200002    1    4    4    0    0  0.41587198730E+02  0.13009224159E+02  0.24934172854E+02  0.58484596154E+02  0.30000000000E+02 0.  1.
    -200000    1    3    3    0    0 -0.14238505123E+03  0.27732182720E+03 -0.27494496389E+03  0.65021198991E+03  0.50000000000E+03 0.  1.
<mgrwt>
<rscale>  0 0.16195136E+04</rscale>
<asrwt>0</asrwt>
<pdfrwt beam="1">  1        2 0.15575862E+00 0.16195136E+04</pdfrwt>
<pdfrwt beam="2">  1       -2 0.85913424E-01 0.16195136E+04</pdfrwt>
<totfact> 0.27945085E+01</totfact>
</mgrwt>
</event>
<event>
 8    2  0.7085383E-010  0.1555979E+04  0.7818608E-02  0.8848058E-01
         -2   -1    0    0    0  501 -0.00000000000E+00  0.00000000000E+00  0.34038682377E+03  0.34038682378E+03  0.25500000000E-02 0. -1.
          2   -1    0    0  501    0  0.00000000000E+00 -0.00000000000E+00 -0.17781763414E+04  0.17781763414E+04  0.25500000000E-02 0.  1.
    -200001    2    1    2    0    0  0.24912185659E+02  0.32529708290E+03 -0.70008999888E+03  0.10505559606E+04  0.71211165600E+03 0.  0.
   -5000001    2    3    3    0    0  0.79796652361E+02  0.18249947839E+03 -0.20320830282E+03  0.32924127167E+03  0.16562800275E+03 0.  0.
     200001    1    1    2    0    0 -0.24912185659E+02 -0.32529708290E+03 -0.73769951873E+03  0.10680072046E+04  0.70000000000E+03 0. -1.
         11    1    4    4    0    0  0.12621680117E+03  0.11970484394E+03 -0.12057379584E+03  0.21165531131E+03  0.51100000000E-03 0.  1.
    -200002    1    4    4    0    0 -0.46420148809E+02  0.62794634442E+02 -0.82634506977E+02  0.11758596036E+03  0.30000000000E+02 0.  1.
    -200000    1    3    3    0    0 -0.54884466703E+02  0.14279760452E+03 -0.49688169607E+03  0.72131468890E+03  0.50000000000E+03 0.  1.
<mgrwt>
<rscale>  0 0.15559792E+04</rscale>
<asrwt>0</asrwt>
<pdfrwt beam="1">  1        2 0.25402519E+00 0.15559792E+04</pdfrwt>
<pdfrwt beam="2">  1       -2 0.48626690E-01 0.15559792E+04</pdfrwt>
<totfact> 0.40315684E+01</totfact>
</mgrwt>
</event>
<event>
 8    2  0.7085383E-010  0.2097915E+04  0.7818608E-02  0.8562162E-01
         -2   -1    0    0    0  501 -0.00000000000E+00  0.00000000000E+00  0.45479563478E+03  0.45479563478E+03  0.25500000000E-02 0. -1.
          2   -1    0    0  501    0  0.00000000000E+00 -0.00000000000E+00 -0.24193545291E+04  0.24193545291E+04  0.25500000000E-02 0.  1.
    -200001    2    1    2    0    0 -0.55237993165E+03 -0.53275414340E+03 -0.11812517911E+04  0.15731810696E+04  0.70042295636E+03 0.  0.
   -5000001    2    3    3    0    0 -0.18765319244E+03 -0.46936695743E+02 -0.27666091632E+03  0.37429457068E+03  0.16167371146E+03 0.  0.
     200001    1    1    2    0    0  0.55237993165E+03  0.53275414340E+03 -0.78330710330E+03  0.13009690943E+04  0.70000000000E+03 0. -1.
         11    1    4    4    0    0 -0.19898893659E+03 -0.70517084762E+01 -0.20080281749E+03  0.28278630622E+03  0.51100000000E-03 0.  1.
    -200002    1    4    4    0    0  0.11335744145E+02 -0.39884987267E+02 -0.75858098834E+02  0.91508264454E+02  0.30000000000E+02 0.  1.
    -200000    1    3    3    0    0 -0.36472673920E+03 -0.48581744765E+03 -0.90459087474E+03  0.11988864990E+04  0.50000000000E+03 0. -1.
<mgrwt>
<rscale>  0 0.20979150E+04</rscale>
<asrwt>0</asrwt>
<pdfrwt beam="1">  1        2 0.34562207E+00 0.20979150E+04</pdfrwt>
<pdfrwt beam="2">  1       -2 0.64970806E-01 0.20979150E+04</pdfrwt>
<totfact> 0.98297370E+00</totfact>
</mgrwt>
</event>
<event>
 8    2  0.7085383E-010  0.1823285E+04  0.7818608E-02  0.8694014E-01
         -2   -1    0    0    0  501 -0.00000000000E+00  0.00000000000E+00  0.91367541956E+03  0.91367541956E+03  0.25500000000E-02 0. -1.
          2   -1    0    0  501    0  0.00000000000E+00 -0.00000000000E+00 -0.90961374348E+03  0.90961374349E+03  0.25500000000E-02 0.  1.
    -200001    2    1    2    0    0  0.20011073451E+03  0.95363680747E+02 -0.54629536304E+03  0.90566646925E+03  0.68749879431E+03 0.  0.
   -5000001    2    3    3    0    0  0.54193775491E+01  0.49465596199E+02 -0.22530140593E+03  0.27873068375E+03  0.15637728636E+03 0.  0.
     200001    1    1    2    0    0 -0.20011073451E+03 -0.95363680747E+02  0.55035703911E+03  0.91762269380E+03  0.70000000000E+03 0. -1.
         11    1    4    4    0    0 -0.66736613398E+02  0.34381581576E+02 -0.63149811840E+02  0.98100802521E+02  0.51100000000E-03 0.  1.
    -200002    1    4    4    0    0  0.72155990947E+02  0.15084014623E+02 -0.16215159409E+03  0.18062988123E+03  0.30000000000E+02 0.  1.
    -200000    1    3    3    0    0  0.19469135696E+03  0.45898084548E+02 -0.32099395711E+03  0.62693578550E+03  0.50000000000E+03 0.  1.
<mgrwt>
<rscale>  0 0.18232846E+04</rscale>
<asrwt>0</asrwt>
<pdfrwt beam="1">  1        2 0.12994482E+00 0.18232846E+04</pdfrwt>
<pdfrwt beam="2">  1       -2 0.13052506E+00 0.18232846E+04</pdfrwt>
<totfact> 0.13024409E+01</totfact>
</mgrwt>
</event>
<event>
 8    2  0.7085383E-010  0.2265599E+04  0.7818608E-02  0.8491610E-01
         -2   -1    0    0    0  501 -0.00000000000E+00  0.00000000000E+00  0.65679509875E+03  0.65679509876E+03  0.25500000000E-02 0.  1.
          2   -1    0    0  501    0  0.00000000000E+00 -0.00000000000E+00 -0.19537822751E+04  0.19537822751E+04  0.25500000000E-02 0. -1.
    -200001    2    1    2    0    0 -0.81628516932E+03  0.34702157549E+03 -0.74251123160E+03  0.13519316632E+04  0.69975055666E+03 0.  0.
   -5000001    2    3    3    0    0 -0.32430633145E+03  0.85240970313E+02 -0.28208961344E+03  0.47297755260E+03  0.17802414335E+03 0.  0.
     200001    1    1    2    0    0  0.81628516932E+03 -0.34702157549E+03 -0.55447594473E+03  0.12586457106E+04  0.70000000000E+03 0. -1.
         11    1    4    4    0    0 -0.33645184178E+03  0.85894761194E+02 -0.25624993133E+03  0.43155738801E+03  0.51100000000E-03 0.  1.
    -200002    1    4    4    0    0  0.12145510325E+02 -0.65379088159E+00 -0.25839682108E+02  0.41420164595E+02  0.30000000000E+02 0.  1.
    -200000    1    3    3    0    0 -0.49197883787E+03  0.26178060518E+03 -0.46042161815E+03  0.87895411064E+03  0.50000000000E+03 0. -1.
<mgrwt>
<rscale>  0 0.22655989E+04</rscale>
<asrwt>0</asrwt>
<pdfrwt beam="1">  1        2 0.27911175E+00 0.22655989E+04</pdfrwt>
<pdfrwt beam="2">  1       -2 0.93827873E-01 0.22655989E+04</pdfrwt>
<totfact> 0.74301964E+00</totfact>
</mgrwt>
</event>
<event>
 8    2  0.7085383E-010  0.1599011E+04  0.7818608E-02  0.8821156E-01
         -2   -1    0    0    0  501 -0.00000000000E+00  0.00000000000E+00  0.75321148691E+03  0.75321148692E+03  0.25500000000E-02 0. -1.
          2   -1    0    0  501    0  0.00000000000E+00 -0.00000000000E+00 -0.84864445308E+03  0.84864445308E+03  0.25500000000E-02 0.  1.
    -200001    2    1    2    0    0 -0.17903677594E+03  0.23511527080E+03  0.20192053544E+03  0.78591938449E+03  0.69968851540E+03 0.  0.
   -5000001    2    3    3    0    0 -0.44976283176E+01  0.12480306790E+03  0.43544267140E+02  0.22225659654E+03  0.17862210694E+03 0.  0.
     200001    1    1    2    0    0  0.17903677594E+03 -0.23511527080E+03 -0.29735350161E+03  0.81593655551E+03  0.70000000000E+03 0.  1.
         11    1    4    4    0    0 -0.62822469772E+02  0.11838289206E+03 -0.14024826325E+02  0.13475113207E+03  0.51100000000E-03 0.  1.
    -200002    1    4    4    0    0  0.58324841454E+02  0.64201758323E+01  0.57569093465E+02  0.87505464463E+02  0.30000000000E+02 0.  1.
    -200000    1    3    3    0    0 -0.17453914762E+03  0.11031220291E+03  0.15837626830E+03  0.56366278795E+03  0.50000000000E+03 0. -1.
<mgrwt>
<rscale>  0 0.15990106E+04</rscale>
<asrwt>0</asrwt>
<pdfrwt beam="1">  1        2 0.12123492E+00 0.15990106E+04</pdfrwt>
<pdfrwt beam="2">  1       -2 0.10760164E+00 0.15990106E+04</pdfrwt>
<totfact> 0.23440825E+01</totfact>
</mgrwt>
</event>
<event>
 8    2  0.7085383E-010  0.1664827E+04  0.7818608E-02  0.8781683E-01
         -2   -1    0    0    0  501 -0.00000000000E+00  0.00000000000E+00  0.32103803323E+03  0.32103803324E+03  0.25500000000E-02 0. -1.
          2   -1    0    0  501    0  0.00000000000E+00 -0.00000000000E+00 -0.21583483828E+04  0.21583483828E+04  0.25500000000E-02 0.  1.
    -200001    2    1    2    0    0  0.24993581842E+03 -0.30435960806E+03 -0.58819837574E+03  0.99433308114E+03  0.69829668671E+03 0.  0.
   -5000001    2    3    3    0    0  0.66016225586E+02 -0.85614900488E+02 -0.17884401479E+03  0.28775919502E+03  0.19781840022E+03 0.  0.
     200001    1    1    2    0    0 -0.24993581842E+03  0.30435960806E+03 -0.12491119738E+04  0.14850533349E+04  0.70000000000E+03 0.  1.
         11    1    4    4    0    0  0.12403233430E+03 -0.98809659445E+02 -0.13167344940E+03  0.20611954305E+03  0.51100000000E-03 0.  1.
    -200002    1    4    4    0    0 -0.58016108710E+02  0.13194758956E+02 -0.47170565387E+02  0.81639651963E+02  0.30000000000E+02 0.  1.
    -200000    1    3    3    0    0  0.18391959283E+03 -0.21874470757E+03 -0.40935436095E+03  0.70657388612E+03  0.50000000000E+03 0. -1.
<mgrwt>
<rscale>  0 0.16648266E+04</rscale>
<asrwt>0</asrwt>
<pdfrwt beam="1">  1        2 0.30833548E+00 0.16648266E+04</pdfrwt>
<pdfrwt beam="2">  1       -2 0.45862577E-01 0.16648266E+04</pdfrwt>
<totfact> 0.28654776E+01</totfact>
</mgrwt>
</event>
<event>
 8    2  0.7085383E-010  0.2483597E+04  0.7818608E-02  0.8408853E-01
          2   -1    0    0  501    0  0.00000000000E+00  0.00000000000E+00  0.12667589911E+04  0.12667589911E+04  0.25500000000E-02 0.  1.
         -2   -1    0    0    0  501 -0.00000000000E+00 -0.00000000000E+00 -0.12173297799E+04  0.12173297799E+04  0.25500000000E-02 0. -1.
    -200001    2    1    2    0    0 -0.83181222021E+02 -0.36750962606E+03  0.97644344238E+03  0.12628853377E+04  0.70672140125E+03 0.  0.
   -5000001    2    3    3    0    0 -0.87259512891E+02  0.10724459791E+02  0.19876372509E+03  0.26395420949E+03  0.14978507825E+03 0.  0.
     200001    1    1    2    0    0  0.83181222021E+02  0.36750962606E+03 -0.92701423109E+03  0.12212034333E+04  0.70000000000E+03 0. -1.
         11    1    4    4    0    0 -0.42245078533E+02 -0.51367178153E+02  0.15931999162E+03  0.17264441312E+03  0.51100000000E-03 0.  1.
    -200002    1    4    4    0    0 -0.45014434358E+02  0.62091637944E+02  0.39443733475E+02  0.91309796373E+02  0.30000000000E+02 0. -1.
    -200000    1    3    3    0    0  0.40782908697E+01 -0.37823408585E+03  0.77767971728E+03  0.99893112817E+03  0.50000000000E+03 0.  1.
<mgrwt>
<rscale>  0 0.24835969E+04</rscale>
<asrwt>0</asrwt>
<pdfrwt beam="1">  1        2 0.18096557E+00 0.24835969E+04</pdfrwt>
<pdfrwt beam="2">  1       -2 0.17390425E+00 0.24835969E+04</pdfrwt>
<totfact> 0.35196150E+00</totfact>
</mgrwt>
</event>
<event>
 8    2  0.7085383E-010  0.2311730E+04  0.7818608E-02  0.8473311E-01
         -2   -1    0    0    0  501 -0.00000000000E+00  0.00000000000E+00  0.18882659456E+04  0.18882659456E+04  0.25500000000E-02 0. -1.
          2   -1    0    0  501    0  0.00000000000E+00 -0.00000000000E+00 -0.70754000105E+03  0.70754000106E+03  0.25500000000E-02 0.  1.
    -200001    2    1    2    0    0 -0.35667790251E+02 -0.91355524639E+03  0.48238770924E+03  0.12491316466E+04  0.70126784403E+03 0.  0.
   -5000001    2    3    3    0    0  0.43902186312E+02 -0.24606657348E+03  0.32316391507E+02  0.29811287672E+03  0.15921927509E+03 0.  0.
     200001    1    1    2    0    0  0.35667790251E+02  0.91355524639E+03  0.69833823526E+03  0.13466743000E+04  0.70000000000E+03 0. -1.
         11    1    4    4    0    0 -0.23719620041E+02 -0.14380791666E+02 -0.36040814562E+02  0.45479312422E+02  0.51100000000E-03 0.  1.
    -200002    1    4    4    0    0  0.67621806354E+02 -0.23168578182E+03  0.68357206069E+02  0.25263356430E+03  0.30000000000E+02 0.  1.
    -200000    1    3    3    0    0 -0.79569976564E+02 -0.66748867291E+03  0.45007131773E+03  0.95101876989E+03  0.50000000000E+03 0.  1.
<mgrwt>
<rscale>  0 0.23117298E+04</rscale>
<asrwt>0</asrwt>
<pdfrwt beam="1">  1        2 0.10107714E+00 0.23117298E+04</pdfrwt>
<pdfrwt beam="2">  1       -2 0.26975228E+00 0.23117298E+04</pdfrwt>
<totfact> 0.19650066E+00</totfact>
</mgrwt>
</event>
<event>
 8    2  0.7085383E-010  0.1846365E+04  0.7818608E-02  0.8682024E-01
          2   -1    0    0  501    0  0.00000000000E+00  0.00000000000E+00  0.18237926091E+04  0.18237926091E+04  0.25500000000E-02 0.  1.
         -2   -1    0    0    0  501 -0.00000000000E+00 -0.00000000000E+00 -0.46730409982E+03  0.46730409983E+03  0.25500000000E-02 0. -1.
    -200001    2    1    2    0    0 -0.54365509133E+03 -0.25242551246E+03  0.60832434041E+03  0.11040713843E+04  0.69973968080E+03 0.  0.
   -5000001    2    3    3    0    0 -0.13507174282E+03 -0.64627087423E+02  0.72365475242E+02  0.24415248915E+03  0.17875301345E+03 0.  0.
     200001    1    1    2    0    0  0.54365509133E+03  0.25242551246E+03  0.74816416888E+03  0.11870253246E+04  0.70000000000E+03 0. -1.
         11    1    4    4    0    0 -0.77913890207E+02 -0.39996708761E+02  0.12824167110E+03  0.15529403468E+03  0.51100000000E-03 0.  1.
    -200002    1    4    4    0    0 -0.57157852612E+02 -0.24630378663E+02 -0.55876195860E+02  0.88858454477E+02  0.30000000000E+02 0.  1.
    -200000    1    3    3    0    0 -0.40858334851E+03 -0.18779842503E+03  0.53595886517E+03  0.85991889518E+03  0.50000000000E+03 0. -1.
<mgrwt>
<rscale>  0 0.18463648E+04</rscale>
<asrwt>0</asrwt>
<pdfrwt beam="1">  1        2 0.26054180E+00 0.18463648E+04</pdfrwt>
<pdfrwt beam="2">  1       -2 0.66757728E-01 0.18463648E+04</pdfrwt>
<totfact> 0.19235266E+01</totfact>
</mgrwt>
</event>
<event>
 8    2  0.7085383E-010  0.1444963E+04  0.7818608E-02  0.8921900E-01
         -2   -1    0    0    0  501 -0.00000000000E+00  0.00000000000E+00  0.60967969222E+03  0.60967969223E+03  0.25500000000E-02 0. -1.
          2   -1    0    0  501    0  0.00000000000E+00 -0.00000000000E+00 -0.85615375569E+03  0.85615375569E+03  0.25500000000E-02 0.  1.
    -200001    2    1    2    0    0 -0.14431701716E+03 -0.82308029396E+02 -0.86959499056E+02  0.72891628201E+03  0.70438269326E+03 0.  0.
   -5000001    2    3    3    0    0 -0.31264907430E+02 -0.99912914931E+01 -0.85903512466E+02  0.21121790921E+03  0.19014802490E+03 0.  0.
     200001    1    1    2    0    0  0.14431701716E+03  0.82308029396E+02 -0.15951456441E+03  0.73691716590E+03  0.70000000000E+03 0. -1.
         11    1    4    4    0    0  0.51368219086E+02  0.50840339849E+02  0.27654288705E+01  0.72326217135E+02  0.51100000000E-03 0.  1.
    -200002    1    4    4    0    0 -0.82633126516E+02 -0.60831631342E+02 -0.88668941337E+02  0.13889169207E+03  0.30000000000E+02 0.  1.
    -200000    1    3    3    0    0 -0.11305210973E+03 -0.72316737903E+02 -0.10559865897E+01  0.51769837280E+03  0.50000000000E+03 0. -1.
<mgrwt>
<rscale>  0 0.14449631E+04</rscale>
<asrwt>0</asrwt>
<pdfrwt beam="1">  1        2 0.12230768E+00 0.14449631E+04</pdfrwt>
<pdfrwt beam="2">  1       -2 0.87097099E-01 0.14449631E+04</pdfrwt>
<totfact> 0.38523295E+01</totfact>
</mgrwt>
</event>
<event>
 8    2  0.7085383E-010  0.1962321E+04  0.7818608E-02  0.8624442E-01
         -2   -1    0    0    0  501 -0.00000000000E+00  0.00000000000E+00  0.73347071940E+03  0.73347071941E+03  0.25500000000E-02 0.  1.
          2   -1    0    0  501    0  0.00000000000E+00 -0.00000000000E+00 -0.13124943234E+04  0.13124943235E+04  0.25500000000E-02 0. -1.
    -200001    2    1    2    0    0  0.11243094164E+03 -0.33004567130E+03 -0.90716148517E+03  0.11978817151E+04  0.70029121187E+03 0.  0.
   -5000001    2    3    3    0    0  0.87453460321E+02 -0.13069919578E+03 -0.23891524910E+03  0.33944364285E+03  0.18278704254E+03 0.  0.
     200001    1    1    2    0    0 -0.11243094164E+03  0.33004567130E+03  0.32813788113E+03  0.84808332775E+03  0.70000000000E+03 0.  1.
         11    1    4    4    0    0 -0.49005399037E+02  0.88627155248E+00 -0.54073370676E+02  0.72981121042E+02  0.51100000000E-03 0.  1.
    -200002    1    4    4    0    0  0.13645885936E+03 -0.13158546733E+03 -0.18484187843E+03  0.26646252181E+03  0.30000000000E+02 0.  1.
    -200000    1    3    3    0    0  0.24977481320E+02 -0.19934647552E+03 -0.66824623607E+03  0.85843807225E+03  0.50000000000E+03 0. -1.
<mgrwt>
<rscale>  0 0.19623212E+04</rscale>
<asrwt>0</asrwt>
<pdfrwt beam="1">  1        2 0.18749919E+00 0.19623212E+04</pdfrwt>
<pdfrwt beam="2">  1       -2 0.10478153E+00 0.19623212E+04</pdfrwt>
<totfact> 0.12771192E+01</totfact>
</mgrwt>
</event>
<event>
 8    2  0.7085383E-010  0.2052471E+04  0.7818608E-02  0.8582474E-01
         -2   -1    0    0    0  501 -0.00000000000E+00  0.00000000000E+00  0.36193140261E+03  0.36193140261E+03  0.25500000000E-02 0. -1.
          2   -1    0    0  501    0  0.00000000000E+00 -0.00000000000E+00 -0.29098324881E+04  0.29098324881E+04  0.25500000000E-02 0.  1.
    -200001    2    1    2    0    0  0.45924217554E+02 -0.19741402264E+03 -0.24262874824E+04  0.25329329232E+04  0.69842459604E+03 0.  0.
   -5000001    2    3    3    0    0 -0.41757059402E+02 -0.26161914208E+02 -0.46819450829E+03  0.50287297679E+03  0.17676831002E+03 0.  0.
     200001    1    1    2    0    0 -0.45924217554E+02  0.19741402264E+03 -0.12161360315E+03  0.73883096752E+03  0.70000000000E+03 0. -1.
         11    1    4    4    0    0 -0.14765492613E+02  0.99720837000E+00 -0.45105619604E+03  0.45129891001E+03  0.51100000000E-03 0.  1.
    -200002    1    4    4    0    0 -0.26991566789E+02 -0.27159122578E+02 -0.17138312254E+02  0.51574066777E+02  0.30000000000E+02 0.  1.
    -200000    1    3    3    0    0  0.87681276956E+02 -0.17125210843E+03 -0.19580929741E+04  0.20300599464E+04  0.50000000000E+03 0.  1.
<mgrwt>
<rscale>  0 0.20524714E+04</rscale>
<asrwt>0</asrwt>
<pdfrwt beam="1">  1        2 0.41569034E+00 0.20524714E+04</pdfrwt>
<pdfrwt beam="2">  1       -2 0.51704488E-01 0.20524714E+04</pdfrwt>
<totfact> 0.86931282E+00</totfact>
</mgrwt>
</event>
<event>
 8    2  0.7085383E-010  0.2000939E+04  0.7818608E-02  0.8606182E-01
         -2   -1    0    0    0  501 -0.00000000000E+00  0.00000000000E+00  0.50624573845E+03  0.50624573846E+03  0.25500000000E-02 0. -1.
          2   -1    0    0  501    0  0.00000000000E+00 -0.00000000000E+00 -0.19771807710E+04  0.19771807710E+04  0.25500000000E-02 0.  1.
    -200001    2    1    2    0    0  0.43069180657E+03  0.45104418990E+03 -0.11690205676E+04  0.14984957314E+04  0.69996005316E+03 0.  0.
   -5000001    2    3    3    0    0  0.37148817967E+02  0.62030369770E+02 -0.16407755720E+03  0.24704925219E+03  0.16995318997E+03 0.  0.
     200001    1    1    2    0    0 -0.43069180657E+03 -0.45104418990E+03 -0.30191446495E+03  0.98493077809E+03  0.70000000000E+03 0. -1.
         11    1    4    4    0    0 -0.56804996440E+02  0.46669340300E+02 -0.28857083262E+02  0.78978264094E+02  0.51100000000E-03 0.  1.
    -200002    1    4    4    0    0  0.93953814407E+02  0.15361029470E+02 -0.13522047394E+03  0.16807098810E+03  0.30000000000E+02 0.  1.
    -200000    1    3    3    0    0  0.39354298860E+03  0.38901382013E+03 -0.10049430104E+04  0.12514464792E+04  0.50000000000E+03 0.  1.
<mgrwt>
<rscale>  0 0.20009391E+04</rscale>
<asrwt>0</asrwt>
<pdfrwt beam="1">  1        2 0.28245439E+00 0.20009391E+04</pdfrwt>
<pdfrwt beam="2">  1       -2 0.72320821E-01 0.20009391E+04</pdfrwt>
<totfact> 0.13301706E+01</totfact>
</mgrwt>
</event>
<event>
 8    2  0.7085383E-010  0.1664865E+04  0.7818608E-02  0.8781661E-01
          2   -1    0    0  501    0  0.00000000000E+00  0.00000000000E+00  0.28138602750E+04  0.28138602750E+04  0.25500000000E-02 0.  1.
         -2   -1    0    0    0  501 -0.00000000000E+00 -0.00000000000E+00 -0.24626102654E+03  0.24626102655E+03  0.25500000000E-02 0. -1.
    -200001    2    1    2    0    0 -0.16798743521E+03 -0.25320515443E+03  0.64806389411E+03  0.99446193824E+03  0.69038764991E+03 0.  0.
   -5000001    2    3    3    0    0  0.25891579495E+02 -0.70823008713E+02  0.80510372508E+02  0.19260826125E+03  0.15789157599E+03 0.  0.
     200001    1    1    2    0    0  0.16798743521E+03  0.25320515443E+03  0.19195353543E+04  0.20656593633E+04  0.70000000000E+03 0.  1.
         11    1    4    4    0    0  0.36969855216E+02 -0.11465951810E+03  0.60134395227E+02  0.13464665156E+03  0.51100000000E-03 0.  1.
    -200002    1    4    4    0    0 -0.11078275721E+02  0.43836509388E+02  0.20375977280E+02  0.57961609694E+02  0.30000000000E+02 0.  1.
    -200000    1    3    3    0    0 -0.19387901470E+03 -0.18238214572E+03  0.56755352161E+03  0.80185367699E+03  0.50000000000E+03 0. -1.
<mgrwt>
<rscale>  0 0.16648653E+04</rscale>
<asrwt>0</asrwt>
<pdfrwt beam="1">  1        2 0.40198004E+00 0.16648653E+04</pdfrwt>
<pdfrwt beam="2">  1       -2 0.35180146E-01 0.16648653E+04</pdfrwt>
<totfact> 0.21738225E+01</totfact>
</mgrwt>
</event>
<event>
 8    2  0.7085383E-010  0.1824131E+04  0.7818608E-02  0.8693571E-01
          2   -1    0    0  501    0  0.00000000000E+00  0.00000000000E+00  0.15319629181E+04  0.15319629181E+04  0.25500000000E-02 0.  1.
         -2   -1    0    0    0  501 -0.00000000000E+00 -0.00000000000E+00 -0.54300500378E+03  0.54300500378E+03  0.25500000000E-02 0. -1.
    -200001    2    1    2    0    0 -0.31667027257E+03  0.17909712312E+03 -0.24696658539E+02  0.79050249450E+03  0.70137609585E+03 0.  0.
   -5000001    2    3    3    0    0 -0.51564169038E+02 -0.54536670924E+02 -0.14791839490E+02  0.17815937068E+03  0.16090012692E+03 0.  0.
     200001    1    1    2    0    0  0.31667027257E+03 -0.17909712312E+03  0.10136545728E+04  0.12844654274E+04  0.70000000000E+03 0.  1.
         11    1    4    4    0    0 -0.87169465706E+02 -0.34577610350E+01  0.33923660450E+02  0.93601744650E+02  0.51100000000E-03 0.  1.
    -200002    1    4    4    0    0  0.35605296668E+02 -0.51078909889E+02 -0.48715499939E+02  0.84557626034E+02  0.30000000000E+02 0.  1.
    -200000    1    3    3    0    0 -0.26510610353E+03  0.23363379404E+03 -0.99048190496E+01  0.61234312382E+03  0.50000000000E+03 0. -1.
<mgrwt>
<rscale>  0 0.18241311E+04</rscale>
<asrwt>0</asrwt>
<pdfrwt beam="1">  1        2 0.21885185E+00 0.18241311E+04</pdfrwt>
<pdfrwt beam="2">  1       -2 0.77572143E-01 0.18241311E+04</pdfrwt>
<totfact> 0.19682234E+01</totfact>
</mgrwt>
</event>
<event>
 8    2  0.7085383E-010  0.1462124E+04  0.7818608E-02  0.8910038E-01
          2   -1    0    0  501    0  0.00000000000E+00  0.00000000000E+00  0.13669703721E+04  0.13669703721E+04  0.25500000000E-02 0.  1.
         -2   -1    0    0    0  501 -0.00000000000E+00 -0.00000000000E+00 -0.39097528425E+03  0.39097528426E+03  0.25500000000E-02 0. -1.
    -200001    2    1    2    0    0  0.11721974585E+03 -0.17430104186E+03  0.47035710410E+03  0.86924374199E+03  0.70016252085E+03 0.  0.
   -5000001    2    3    3    0    0  0.25567377521E+02 -0.12812998440E+03  0.18656056124E+03  0.28522970029E+03  0.17169786027E+03 0.  0.
     200001    1    1    2    0    0 -0.11721974585E+03  0.17430104186E+03  0.50563798377E+03  0.88870191439E+03  0.70000000000E+03 0. -1.
         11    1    4    4    0    0 -0.15831274635E+01 -0.16052949287E+03  0.16127462822E+03  0.22755599329E+03  0.51100000000E-03 0.  1.
    -200002    1    4    4    0    0  0.27150504985E+02  0.32399508474E+02  0.25285933022E+02  0.57673707000E+02  0.30000000000E+02 0.  1.
    -200000    1    3    3    0    0  0.91652368328E+02 -0.46171057464E+02  0.28379654286E+03  0.58401404170E+03  0.50000000000E+03 0.  1.
<mgrwt>
<rscale>  0 0.14621240E+04</rscale>
<asrwt>0</asrwt>
<pdfrwt beam="1">  1        2 0.19528148E+00 0.14621240E+04</pdfrwt>
<pdfrwt beam="2">  1       -2 0.55853613E-01 0.14621240E+04</pdfrwt>
<totfact> 0.50369892E+01</totfact>
</mgrwt>
</event>
<event>
 8    2  0.7085383E-010  0.2061741E+04  0.7818608E-02  0.8578287E-01
         -2   -1    0    0    0  501 -0.00000000000E+00  0.00000000000E+00  0.33640501874E+03  0.33640501875E+03  0.25500000000E-02 0. -1.
          2   -1    0    0  501    0  0.00000000000E+00 -0.00000000000E+00 -0.31589721142E+04  0.31589721142E+04  0.25500000000E-02 0.  1.
    -200001    2    1    2    0    0  0.41427210957E+03 -0.63389870426E+03 -0.15047039266E+04  0.18219936503E+04  0.69431837589E+03 0.  0.
   -5000001    2    3    3    0    0  0.13054449880E+03 -0.14964911763E+03 -0.54132667827E+03  0.60007109065E+03  0.16617465706E+03 0.  0.
     200001    1    1    2    0    0 -0.41427210957E+03  0.63389870426E+03 -0.13178631688E+04  0.16733834826E+04  0.70000000000E+03 0. -1.
         11    1    4    4    0    0  0.32173007987E+02 -0.10994324121E+03 -0.12568131434E+03  0.17005414287E+03  0.51100000000E-03 0.  1.
    -200002    1    4    4    0    0  0.98371490811E+02 -0.39705876419E+02 -0.41564536392E+03  0.43001694778E+03  0.30000000000E+02 0.  1.
    -200000    1    3    3    0    0  0.28372761077E+03 -0.48424958664E+03 -0.96337724831E+03  0.12219225597E+04  0.50000000000E+03 0.  1.
<mgrwt>
<rscale>  0 0.20617411E+04</rscale>
<asrwt>0</asrwt>
<pdfrwt beam="1">  1        2 0.45128171E+00 0.20617411E+04</pdfrwt>
<pdfrwt beam="2">  1       -2 0.48057862E-01 0.20617411E+04</pdfrwt>
<totfact> 0.73017899E+00</totfact>
</mgrwt>
</event>
<event>
 8    2  0.7085383E-010  0.2551466E+04  0.7818608E-02  0.8384877E-01
          2   -1    0    0  501    0  0.00000000000E+00  0.00000000000E+00  0.17747300581E+04  0.17747300581E+04  0.25500000000E-02 0. -1.
         -2   -1    0    0    0  501 -0.00000000000E+00 -0.00000000000E+00 -0.91703752675E+03  0.91703752675E+03  0.25500000000E-02 0.  1.
    -200001    2    1    2    0    0  0.80357985040E+03  0.88340848582E+02  0.11660388447E+04  0.15788335659E+04  0.69247682987E+03 0.  0.
   -5000001    2    3    3    0    0  0.13787912551E+03 -0.23124653069E+02  0.17195127433E+03  0.27737587900E+03  0.16680747788E+03 0.  0.
     200001    1    1    2    0    0 -0.80357985040E+03 -0.88340848582E+02 -0.30834631340E+03  0.11129340189E+04  0.70000000000E+03 0.  1.
         11    1    4    4    0    0  0.80971131152E+02 -0.20032589977E+02  0.19248101175E+03  0.20977742640E+03  0.51100000000E-03 0.  1.
    -200002    1    4    4    0    0  0.56907994361E+02 -0.30920630926E+01 -0.20529737417E+02  0.67598452606E+02  0.30000000000E+02 0.  1.
    -200000    1    3    3    0    0  0.66570072489E+03  0.11146550165E+03  0.99408757041E+03  0.13014576869E+04  0.50000000000E+03 0. -1.
<mgrwt>
<rscale>  0 0.25514655E+04</rscale>
<asrwt>0</asrwt>
<pdfrwt beam="1">  1        2 0.25353287E+00 0.25514655E+04</pdfrwt>
<pdfrwt beam="2">  1       -2 0.13100536E+00 0.25514655E+04</pdfrwt>
<totfact> 0.39929342E+00</totfact>
</mgrwt>
</event>
<event>
 8    2  0.7085383E-010  0.2677203E+04  0.7818608E-02  0.8342440E-01
         -2   -1    0    0    0  501 -0.00000000000E+00  0.00000000000E+00  0.57208588902E+03  0.57208588902E+03  0.25500000000E-02 0. -1.
          2   -1    0    0  501    0  0.00000000000E+00 -0.00000000000E+00 -0.31321416547E+04  0.31321416547E+04  0.25500000000E-02 0.  1.
    -200001    2    1    2    0    0  0.36361361213E+03 -0.79867150024E+03 -0.22890165455E+04  0.25494317682E+04  0.69993897661E+03 0.  0.
   -5000001    2    3    3    0    0  0.95548766985E+02 -0.35976545666E+03 -0.63882842971E+03  0.75009353047E+03  0.12640328782E+03 0.  0.
     200001    1    1    2    0    0 -0.36361361213E+03  0.79867150024E+03 -0.27103922016E+03  0.11547957755E+04  0.70000000000E+03 0. -1.
         11    1    4    4    0    0  0.67525087241E+01 -0.15813077225E+03 -0.36151683737E+03  0.39464586810E+03  0.51100000000E-03 0.  1.
    -200002    1    4    4    0    0  0.88796258261E+02 -0.20163468441E+03 -0.27731159233E+03  0.35544766237E+03  0.30000000000E+02 0.  1.
    -200000    1    3    3    0    0  0.26806484514E+03 -0.43890604357E+03 -0.16501881158E+04  0.17993382378E+04  0.50000000000E+03 0.  1.
<mgrwt>
<rscale>  0 0.26772031E+04</rscale>
<asrwt>0</asrwt>
<pdfrwt beam="1">  1        2 0.44744880E+00 0.26772031E+04</pdfrwt>
<pdfrwt beam="2">  1       -2 0.81726558E-01 0.26772031E+04</pdfrwt>
<totfact> 0.23108139E+00</totfact>
</mgrwt>
</event>
<event>
 8    2  0.7085383E-010  0.1710832E+04  0.7818608E-02  0.8755211E-01
         -2   -1    0    0    0  501 -0.00000000000E+00  0.00000000000E+00  0.30056571457E+03  0.30056571459E+03  0.25500000000E-02 0. -1.
          2   -1    0    0  501    0  0.00000000000E+00 -0.00000000000E+00 -0.24345303894E+04  0.24345303894E+04  0.25500000000E-02 0.  1.
    -200001    2    1    2    0    0 -0.25901594684E+03 -0.19251439782E+03 -0.16577621975E+04  0.18290498284E+04  0.70220845708E+03 0.  0.
   -5000001    2    3    3    0    0  0.13695954279E+02  0.10091335721E+02 -0.31325976290E+03  0.35490341065E+03  0.16593775225E+03 0.  0.
     200001    1    1    2    0    0  0.25901594684E+03  0.19251439782E+03 -0.47620247729E+03  0.90604627556E+03  0.70000000000E+03 0. -1.
         11    1    4    4    0    0  0.90951041859E+01  0.38534118707E+02 -0.31071826671E+03  0.31323065063E+03  0.51100000000E-03 0.  1.
    -200002    1    4    4    0    0  0.46008500926E+01 -0.28442782985E+02 -0.25414961899E+01  0.41672760029E+02  0.30000000000E+02 0.  1.
    -200000    1    3    3    0    0 -0.27271190111E+03 -0.20260573354E+03 -0.13445024346E+04  0.14741464177E+04  0.50000000000E+03 0.  1.
<mgrwt>
<rscale>  0 0.17108318E+04</rscale>
<asrwt>0</asrwt>
<pdfrwt beam="1">  1        2 0.34779004E+00 0.17108318E+04</pdfrwt>
<pdfrwt beam="2">  1       -2 0.42937961E-01 0.17108318E+04</pdfrwt>
<totfact> 0.23401761E+01</totfact>
</mgrwt>
</event>
<event>
 8    2  0.7085383E-010  0.1988953E+04  0.7818608E-02  0.8611803E-01
          2   -1    0    0  501    0  0.00000000000E+00  0.00000000000E+00  0.12200601699E+04  0.12200601699E+04  0.25500000000E-02 0.  1.
         -2   -1    0    0    0  501 -0.00000000000E+00 -0.00000000000E+00 -0.81060218601E+03  0.81060218602E+03  0.25500000000E-02 0. -1.
    -200001    2    1    2    0    0 -0.40201901751E+03 -0.53557934773E+03 -0.24143790273E+02  0.96930707764E+03  0.70036330573E+03 0.  0.
   -5000001    2    3    3    0    0 -0.85923583417E+02 -0.23721490661E+03 -0.99780903469E+02  0.30247978661E+03  0.13373114261E+03 0.  0.
     200001    1    1    2    0    0  0.40201901751E+03  0.53557934773E+03  0.43360177414E+03  0.10613552783E+04  0.70000000000E+03 0.  1.
         11    1    4    4    0    0 -0.45199202337E+01  0.79068122786E+01 -0.32700192047E+02  0.33944806959E+02  0.51100000000E-03 0.  1.
    -200002    1    4    4    0    0 -0.81403663183E+02 -0.24512171888E+03 -0.67080711422E+02  0.26853497965E+03  0.30000000000E+02 0.  1.
    -200000    1    3    3    0    0 -0.31609543409E+03 -0.29836444112E+03  0.75637113196E+02  0.66682729104E+03  0.50000000000E+03 0. -1.
<mgrwt>
<rscale>  0 0.19889529E+04</rscale>
<asrwt>0</asrwt>
<pdfrwt beam="1">  1        2 0.17429431E+00 0.19889529E+04</pdfrwt>
<pdfrwt beam="2">  1       -2 0.11580031E+00 0.19889529E+04</pdfrwt>
<totfact> 0.11267828E+01</totfact>
</mgrwt>
</event>
<event>
 8    2  0.7085383E-010  0.1442097E+04  0.7818608E-02  0.8923898E-01
          2   -1    0    0  501    0  0.00000000000E+00  0.00000000000E+00  0.30637408131E+04  0.30637408131E+04  0.25500000000E-02 0.  1.
         -2   -1    0    0    0  501 -0.00000000000E+00 -0.00000000000E+00 -0.16969812764E+03  0.16969812766E+03  0.25500000000E-02 0. -1.
    -200001    2    1    2    0    0  0.76875870836E+02  0.12198106862E+03  0.16610130783E+04  0.18082542886E+04  0.70002131777E+03 0.  0.
   -5000001    2    3    3    0    0  0.48051137993E+02 -0.87295588833E+01  0.75723396620E+03  0.76674921571E+03  0.11007253597E+03 0.  0.
     200001    1    1    2    0    0 -0.76875870836E+02 -0.12198106862E+03  0.12330296072E+04  0.14251846522E+04  0.70000000000E+03 0. -1.
         11    1    4    4    0    0  0.21002181258E+02 -0.25636725818E+02  0.63441562983E+02  0.71576289665E+02  0.51100000000E-03 0.  1.
    -200002    1    4    4    0    0  0.27048956735E+02  0.16907166934E+02  0.69379240321E+03  0.69517292605E+03  0.30000000000E+02 0.  1.
    -200000    1    3    3    0    0  0.28824732843E+02  0.13071062750E+03  0.90377911209E+03  0.10415050729E+04  0.50000000000E+03 0. -1.
<mgrwt>
<rscale>  0 0.14420972E+04</rscale>
<asrwt>0</asrwt>
<pdfrwt beam="1">  1        2 0.43767724E+00 0.14420972E+04</pdfrwt>
<pdfrwt beam="2">  1       -2 0.24242591E-01 0.14420972E+04</pdfrwt>
<totfact> 0.32205076E+01</totfact>
</mgrwt>
</event>
<event>
 8    2  0.7085383E-010  0.1491936E+04  0.7818608E-02  0.8889833E-01
         -2   -1    0    0    0  501 -0.00000000000E+00  0.00000000000E+00  0.40909267683E+03  0.40909267684E+03  0.25500000000E-02 0. -1.
          2   -1    0    0  501    0  0.00000000000E+00 -0.00000000000E+00 -0.13602496423E+04  0.13602496424E+04  0.25500000000E-02 0.  1.
    -200001    2    1    2    0    0  0.24836794095E+03  0.60888763988E+02 -0.49491480986E+03  0.89552827703E+03  0.70116770482E+03 0.  0.
   -5000001    2    3    3    0    0  0.43454541027E+02  0.96107363979E+01 -0.19884600490E+03  0.27724381592E+03  0.18799929898E+03 0.  0.
     200001    1    1    2    0    0 -0.24836794095E+03 -0.60888763988E+02 -0.45624215566E+03  0.87381404216E+03  0.70000000000E+03 0. -1.
         11    1    4    4    0    0  0.55710590897E+02  0.91819309658E+01  0.17009602910E+02  0.58968672919E+02  0.51100000000E-03 0.  1.
    -200002    1    4    4    0    0 -0.12256049870E+02  0.42880543210E+00 -0.21585560781E+03  0.21827514301E+03  0.30000000000E+02 0.  1.
    -200000    1    3    3    0    0  0.20491339992E+03  0.51278027590E+02 -0.29606880496E+03  0.61828446111E+03  0.50000000000E+03 0. -1.
<mgrwt>
<rscale>  0 0.14919359E+04</rscale>
<asrwt>0</asrwt>
<pdfrwt beam="1">  1        2 0.19432137E+00 0.14919359E+04</pdfrwt>
<pdfrwt beam="2">  1       -2 0.58441812E-01 0.14919359E+04</pdfrwt>
<totfact> 0.46102200E+01</totfact>
</mgrwt>
</event>
<event>
 8    2  0.7085383E-010  0.1736287E+04  0.7818608E-02  0.8740935E-01
         -2   -1    0    0    0  501 -0.00000000000E+00  0.00000000000E+00  0.62339097725E+03  0.62339097725E+03  0.25500000000E-02 0. -1.
          2   -1    0    0  501    0  0.00000000000E+00 -0.00000000000E+00 -0.12089893870E+04  0.12089893870E+04  0.25500000000E-02 0.  1.
    -200001    2    1    2    0    0 -0.18493858446E+03  0.14331796725E+03  0.18954591997E+03  0.76205749164E+03  0.70004403078E+03 0.  0.
   -5000001    2    3    3    0    0 -0.93876924938E+02  0.18948566856E+02  0.61078380539E+02  0.22329605809E+03  0.19224628935E+03 0.  0.
     200001    1    1    2    0    0  0.18493858446E+03 -0.14331796725E+03 -0.77514432974E+03  0.10703228726E+04  0.70000000000E+03 0.  1.
         11    1    4    4    0    0 -0.13803770261E+03  0.27225612411E+02  0.84817902776E+02  0.16428547697E+03  0.51100000000E-03 0.  1.
    -200002    1    4    4    0    0  0.44160777672E+02 -0.82770455556E+01 -0.23739522237E+02  0.59010581117E+02  0.30000000000E+02 0.  1.
    -200000    1    3    3    0    0 -0.91061659519E+02  0.12436940040E+03  0.12846753943E+03  0.53876143355E+03  0.50000000000E+03 0. -1.
<mgrwt>
<rscale>  0 0.17362869E+04</rscale>
<asrwt>0</asrwt>
<pdfrwt beam="1">  1        2 0.17271277E+00 0.17362869E+04</pdfrwt>
<pdfrwt beam="2">  1       -2 0.89055854E-01 0.17362869E+04</pdfrwt>
<totfact> 0.21764954E+01</totfact>
</mgrwt>
</event>
<event>
 8    2  0.7085383E-010  0.1659946E+04  0.7818608E-02  0.8784544E-01
         -2   -1    0    0    0  501 -0.00000000000E+00  0.00000000000E+00  0.36100597031E+03  0.36100597031E+03  0.25500000000E-02 0. -1.
          2   -1    0    0  501    0  0.00000000000E+00 -0.00000000000E+00 -0.19081544090E+04  0.19081544090E+04  0.25500000000E-02 0.  1.
    -200001    2    1    2    0    0 -0.12626013022E+02 -0.56324025397E+02 -0.16828369718E+03  0.72171093348E+03  0.69943938745E+03 0.  0.
   -5000001    2    3    3    0    0  0.59886972332E+02  0.76957343115E+02 -0.89249239480E+02  0.19325232418E+03  0.14096862040E+03 0.  0.
     200001    1    1    2    0    0  0.12626013022E+02  0.56324025397E+02 -0.13788647415E+04  0.15474494459E+04  0.70000000000E+03 0.  1.
         11    1    4    4    0    0  0.43614586879E+02  0.29630444045E+02  0.29876789548E+02  0.60603778404E+02  0.51100000000E-03 0.  1.
    -200002    1    4    4    0    0  0.16272385453E+02  0.47326899070E+02 -0.11912602903E+03  0.13264854577E+03  0.30000000000E+02 0.  1.
    -200000    1    3    3    0    0 -0.72512985354E+02 -0.13328136851E+03 -0.79034457697E+02  0.52845860930E+03  0.50000000000E+03 0. -1.
<mgrwt>
<rscale>  0 0.16599459E+04</rscale>
<asrwt>0</asrwt>
<pdfrwt beam="1">  1        2 0.27259348E+00 0.16599459E+04</pdfrwt>
<pdfrwt beam="2">  1       -2 0.51572283E-01 0.16599459E+04</pdfrwt>
<totfact> 0.30397417E+01</totfact>
</mgrwt>
</event>
<event>
 8    2  0.7085383E-010  0.1715964E+04  0.7818608E-02  0.8752311E-01
         -2   -1    0    0    0  501 -0.00000000000E+00  0.00000000000E+00  0.94116398203E+03  0.94116398204E+03  0.25500000000E-02 0. -1.
          2   -1    0    0  501    0  0.00000000000E+00 -0.00000000000E+00 -0.78215211578E+03  0.78215211579E+03  0.25500000000E-02 0.  1.
    -200001    2    1    2    0    0 -0.26819960128E+03  0.41811350109E+03  0.77513887165E+02  0.86111435431E+03  0.69911344042E+03 0.  0.
   -5000001    2    3    3    0    0  0.19031110338E+02  0.67804937620E+02  0.77640545169E+02  0.18641620893E+03  0.15415335213E+03 0.  0.
     200001    1    1    2    0    0  0.26819960128E+03 -0.41811350109E+03  0.81497979085E+02  0.86220174351E+03  0.70000000000E+03 0. -1.
         11    1    4    4    0    0 -0.47731891615E+02 -0.21130277477E+02  0.38143259813E+02  0.64650834278E+02  0.51100000000E-03 0.  1.
    -200002    1    4    4    0    0  0.66763001952E+02  0.88935215097E+02  0.39497285356E+02  0.12176537465E+03  0.30000000000E+02 0.  1.
    -200000    1    3    3    0    0 -0.28723071162E+03  0.35030856347E+03 -0.12665800380E+00  0.67469814538E+03  0.50000000000E+03 0.  1.
<mgrwt>
<rscale>  0 0.17159643E+04</rscale>
<asrwt>0</asrwt>
<pdfrwt beam="1">  1        2 0.11173602E+00 0.17159643E+04</pdfrwt>
<pdfrwt beam="2">  1       -2 0.13445200E+00 0.17159643E+04</pdfrwt>
<totfact> 0.14863454E+01</totfact>
</mgrwt>
</event>
<event>
 8    2  0.7085383E-010  0.1760201E+04  0.7818608E-02  0.8727755E-01
         -2   -1    0    0    0  501 -0.00000000000E+00  0.00000000000E+00  0.41126455289E+03  0.41126455290E+03  0.25500000000E-02 0. -1.
          2   -1    0    0  501    0  0.00000000000E+00 -0.00000000000E+00 -0.18834021926E+04  0.18834021926E+04  0.25500000000E-02 0.  1.
    -200001    2    1    2    0    0 -0.33392929495E+03  0.40754544064E+03 -0.60239152287E+03  0.10601383465E+04  0.69528102709E+03 0.  0.
   -5000001    2    3    3    0    0 -0.27495507178E+01  0.16619084697E+02 -0.33178858870E+02  0.14553105610E+03  0.14069363030E+03 0.  0.
     200001    1    1    2    0    0  0.33392929495E+03 -0.40754544064E+03 -0.86974611682E+03  0.12345283990E+04  0.70000000000E+03 0.  1.
         11    1    4    4    0    0 -0.36438051781E+01  0.14582671946E+01  0.52937511950E+02  0.53082803535E+02  0.51100000000E-03 0.  1.
    -200002    1    4    4    0    0  0.89425446033E+00  0.15160817502E+02 -0.86116370821E+02  0.92448252562E+02  0.30000000000E+02 0.  1.
    -200000    1    3    3    0    0 -0.33117974423E+03  0.39092635594E+03 -0.56921266400E+03  0.91460729038E+03  0.50000000000E+03 0. -1.
<mgrwt>
<rscale>  0 0.17602006E+04</rscale>
<asrwt>0</asrwt>
<pdfrwt beam="1">  1        2 0.26905745E+00 0.17602006E+04</pdfrwt>
<pdfrwt beam="2">  1       -2 0.58752080E-01 0.17602006E+04</pdfrwt>
<totfact> 0.23690342E+01</totfact>
</mgrwt>
</event>
<event>
 8    2  0.7085383E-010  0.1709662E+04  0.7818608E-02  0.8755873E-01
         -2   -1    0    0    0  501 -0.00000000000E+00  0.00000000000E+00  0.35614647539E+03  0.35614647540E+03  0.25500000000E-02 0.  1.
          2   -1    0    0  501    0  0.00000000000E+00 -0.00000000000E+00 -0.20517843296E+04  0.20517843296E+04  0.25500000000E-02 0. -1.
    -200001    2    1    2    0    0 -0.22033005542E+03 -0.39757360497E+03 -0.11051927195E+04  0.13855631794E+04  0.70123054149E+03 0.  0.
   -5000001    2    3    3    0    0 -0.28420793534E+02 -0.17742439697E+02 -0.10657908429E+03  0.19043554136E+03  0.15422081096E+03 0.  0.
     200001    1    1    2    0    0  0.22033005542E+03  0.39757360497E+03 -0.59044513475E+03  0.10223676256E+04  0.70000000000E+03 0. -1.
         11    1    4    4    0    0  0.83191036862E+01  0.49539173937E+00  0.37105141374E+02  0.38029520320E+02  0.51100000000E-03 0.  1.
    -200002    1    4    4    0    0 -0.36739897221E+02 -0.18237831437E+02 -0.14368422566E+03  0.15240602104E+03  0.30000000000E+02 0.  1.
    -200000    1    3    3    0    0 -0.19190926189E+03 -0.37983116528E+03 -0.99861363517E+03  0.11951276381E+04  0.50000000000E+03 0. -1.
<mgrwt>
<rscale>  0 0.17096617E+04</rscale>
<asrwt>0</asrwt>
<pdfrwt beam="1">  1        2 0.29311204E+00 0.17096617E+04</pdfrwt>
<pdfrwt beam="2">  1       -2 0.50878069E-01 0.17096617E+04</pdfrwt>
<totfact> 0.26258266E+01</totfact>
</mgrwt>
</event>
<event>
 8    2  0.7085383E-010  0.2588559E+04  0.7818608E-02  0.8372098E-01
          2   -1    0    0  501    0  0.00000000000E+00  0.00000000000E+00  0.70086324623E+03  0.70086324624E+03  0.25500000000E-02 0.  1.
         -2   -1    0    0    0  501 -0.00000000000E+00 -0.00000000000E+00 -0.23901365842E+04  0.23901365842E+04  0.25500000000E-02 0. -1.
    -200001    2    1    2    0    0  0.79844766264E+03  0.35538010505E+03 -0.16197317409E+04  0.19691042369E+04  0.70001920999E+03 0.  0.
   -5000001    2    3    3    0    0  0.15577620083E+03  0.89691672021E+02 -0.45343566143E+03  0.52208540627E+03  0.18616780499E+03 0.  0.
     200001    1    1    2    0    0 -0.79844766264E+03 -0.35538010505E+03 -0.69541597077E+02  0.11218955935E+04  0.70000000000E+03 0.  1.
         11    1    4    4    0    0  0.75918719734E+02  0.14801728984E+02 -0.28795285325E+02  0.82534305862E+02  0.51100000000E-03 0.  1.
    -200002    1    4    4    0    0  0.79857481094E+02  0.74889943036E+02 -0.42464037610E+03  0.43955110041E+03  0.30000000000E+02 0.  1.
    -200000    1    3    3    0    0  0.64267146181E+03  0.26568843303E+03 -0.11662960795E+04  0.14470188306E+04  0.50000000000E+03 0. -1.
<mgrwt>
<rscale>  0 0.25885586E+04</rscale>
<asrwt>0</asrwt>
<pdfrwt beam="1">  1        2 0.10012332E+00 0.25885586E+04</pdfrwt>
<pdfrwt beam="2">  1       -2 0.34144808E+00 0.25885586E+04</pdfrwt>
<totfact> 0.70430185E-01</totfact>
</mgrwt>
</event>
<event>
 8    2  0.7085383E-010  0.1553253E+04  0.7818608E-02  0.8849793E-01
         -2   -1    0    0    0  501 -0.00000000000E+00  0.00000000000E+00  0.40366687920E+03  0.40366687921E+03  0.25500000000E-02 0. -1.
          2   -1    0    0  501    0  0.00000000000E+00 -0.00000000000E+00 -0.14941737308E+04  0.14941737308E+04  0.25500000000E-02 0.  1.
    -200001    2    1    2    0    0 -0.17013986034E+03  0.28016349726E+03 -0.64058973694E+03  0.10034891314E+04  0.69942552746E+03 0.  0.
   -5000001    2    3    3    0    0 -0.90497578360E+02  0.71056526688E+02 -0.15793487703E+03  0.27340397744E+03  0.19122622159E+03 0.  0.
     200001    1    1    2    0    0  0.17013986034E+03 -0.28016349726E+03 -0.44991711469E+03  0.89435147865E+03  0.70000000000E+03 0.  1.
         11    1    4    4    0    0 -0.12377093446E+03  0.13067632818E+02 -0.33322838317E+02  0.12884261251E+03  0.51100000000E-03 0.  1.
    -200002    1    4    4    0    0  0.33273356101E+02  0.57988893870E+02 -0.12461203871E+03  0.14456136493E+03  0.30000000000E+02 0.  1.
    -200000    1    3    3    0    0 -0.79642281981E+02  0.20910697057E+03 -0.48265485991E+03  0.73008515395E+03  0.50000000000E+03 0. -1.
<mgrwt>
<rscale>  0 0.15532526E+04</rscale>
<asrwt>0</asrwt>
<pdfrwt beam="1">  1        2 0.21345339E+00 0.15532526E+04</pdfrwt>
<pdfrwt beam="2">  1       -2 0.57666698E-01 0.15532526E+04</pdfrwt>
<totfact> 0.39965487E+01</totfact>
</mgrwt>
</event>
<event>
 8    2  0.7085383E-010  0.2033208E+04  0.7818608E-02  0.8591250E-01
         -2   -1    0    0    0  501 -0.00000000000E+00  0.00000000000E+00  0.43840382418E+03  0.43840382419E+03  0.25500000000E-02 0. -1.
          2   -1    0    0  501    0  0.00000000000E+00 -0.00000000000E+00 -0.23573782877E+04  0.23573782877E+04  0.25500000000E-02 0.  1.
    -200001    2    1    2    0    0  0.60207040275E+03 -0.21581112431E+03 -0.45738805996E+03  0.10535714397E+04  0.70124584127E+03 0.  0.
   -5000001    2    3    3    0    0  0.17235818111E+03 -0.42814184051E+02 -0.15781579719E+03  0.30904200751E+03  0.19763790024E+03 0.  0.
     200001    1    1    2    0    0 -0.60207040275E+03  0.21581112431E+03 -0.14615864036E+04  0.17422106722E+04  0.70000000000E+03 0.  1.
         11    1    4    4    0    0  0.12820278900E+03 -0.50928521466E+02  0.44585138854E+01  0.13802009909E+03  0.51100000000E-03 0.  1.
    -200002    1    4    4    0    0  0.44155392105E+02  0.81143374149E+01 -0.16227431107E+03  0.17102190842E+03  0.30000000000E+02 0.  1.
    -200000    1    3    3    0    0  0.42971222165E+03 -0.17299694025E+03 -0.29957226277E+03  0.74452943219E+03  0.50000000000E+03 0. -1.
<mgrwt>
<rscale>  0 0.20332080E+04</rscale>
<asrwt>0</asrwt>
<pdfrwt beam="1">  1        2 0.33676832E+00 0.20332080E+04</pdfrwt>
<pdfrwt beam="2">  1       -2 0.62629119E-01 0.20332080E+04</pdfrwt>
<totfact> 0.11517594E+01</totfact>
</mgrwt>
</event>
<event>
 8    2  0.7085383E-010  0.1593224E+04  0.7818608E-02  0.8824722E-01
          2   -1    0    0  501    0  0.00000000000E+00  0.00000000000E+00  0.17547207002E+04  0.17547207002E+04  0.25500000000E-02 0.  1.
         -2   -1    0    0    0  501 -0.00000000000E+00 -0.00000000000E+00 -0.36164746059E+03  0.36164746060E+03  0.25500000000E-02 0. -1.
    -200001    2    1    2    0    0  0.26660816889E+03 -0.26190856452E+03  0.60721087748E+03  0.99956215074E+03  0.70053082129E+03 0.  0.
   -5000001    2    3    3    0    0  0.10418377510E+03 -0.92189956979E+02  0.25063216071E+03  0.34204069048E+03  0.18660682411E+03 0.  0.
     200001    1    1    2    0    0 -0.26660816889E+03  0.26190856452E+03  0.78586236214E+03  0.11168060101E+04  0.70000000000E+03 0.  1.
         11    1    4    4    0    0  0.14017467465E+03 -0.29179960813E+02  0.10844438873E+03  0.17961234638E+03  0.51100000000E-03 0.  1.
    -200002    1    4    4    0    0 -0.35990899550E+02 -0.63009996166E+02  0.14218777198E+03  0.16242834410E+03  0.30000000000E+02 0.  1.
    -200000    1    3    3    0    0  0.16242439380E+03 -0.16971860754E+03  0.35657871678E+03  0.65752146026E+03  0.50000000000E+03 0. -1.
<mgrwt>
<rscale>  0 0.15932235E+04</rscale>
<asrwt>0</asrwt>
<pdfrwt beam="1">  1        2 0.25067438E+00 0.15932235E+04</pdfrwt>
<pdfrwt beam="2">  1       -2 0.51663924E-01 0.15932235E+04</pdfrwt>
<totfact> 0.36536296E+01</totfact>
</mgrwt>
</event>
<event>
 8    2  0.7085383E-010  0.1964269E+04  0.7818608E-02  0.8623510E-01
          2   -1    0    0  501    0  0.00000000000E+00  0.00000000000E+00  0.13714604290E+04  0.13714604290E+04  0.25500000000E-02 0.  1.
         -2   -1    0    0    0  501 -0.00000000000E+00 -0.00000000000E+00 -0.70332956492E+03  0.70332956492E+03  0.25500000000E-02 0. -1.
    -200001    2    1    2    0    0  0.61345519963E+02 -0.49884418715E+03 -0.16289873423E+03  0.87761874923E+03  0.70076378012E+03 0.  0.
   -5000001    2    3    3    0    0  0.10291585646E+03 -0.15293345673E+03 -0.11377947674E+01  0.24710393749E+03  0.16455620817E+03 0.  0.
     200001    1    1    2    0    0 -0.61345519963E+02  0.49884418715E+03  0.83102959835E+03  0.11971712447E+04  0.70000000000E+03 0.  1.
         11    1    4    4    0    0 -0.18776165493E+01  0.80153950494E+01  0.46288867975E+02  0.47015224134E+02  0.51100000000E-03 0.  1.
    -200002    1    4    4    0    0  0.10479347301E+03 -0.16094885178E+03 -0.47426662743E+02  0.20008871335E+03  0.30000000000E+02 0.  1.
    -200000    1    3    3    0    0 -0.41570336494E+02 -0.34591073042E+03 -0.16176093946E+03  0.63051481175E+03  0.50000000000E+03 0. -1.
<mgrwt>
<rscale>  0 0.19642695E+04</rscale>
<asrwt>0</asrwt>
<pdfrwt beam="1">  1        2 0.19592291E+00 0.19642695E+04</pdfrwt>
<pdfrwt beam="2">  1       -2 0.10047565E+00 0.19642695E+04</pdfrwt>
<totfact> 0.13101914E+01</totfact>
</mgrwt>
</event>
<event>
 8    2  0.7085383E-010  0.2937306E+04  0.7818608E-02  0.8261864E-01
         -2   -1    0    0    0  501 -0.00000000000E+00  0.00000000000E+00  0.79670429898E+03  0.79670429898E+03  0.25500000000E-02 0. -1.
          2   -1    0    0  501    0  0.00000000000E+00 -0.00000000000E+00 -0.27073304788E+04  0.27073304788E+04  0.25500000000E-02 0.  1.
    -200001    2    1    2    0    0 -0.10367065105E+04  0.68387365666E+03 -0.53280121936E+03  0.15213988584E+04  0.69880882921E+03 0.  0.
   -5000001    2    3    3    0    0 -0.14464527428E+03  0.12998283001E+03 -0.77233482733E+02  0.27235512030E+03  0.17434021117E+03 0.  0.
     200001    1    1    2    0    0  0.10367065105E+04 -0.68387365666E+03 -0.13778249604E+04  0.19826359194E+04  0.70000000000E+03 0.  1.
         11    1    4    4    0    0 -0.13735524233E+03  0.29289961351E+02  0.21648017949E+01  0.14046013954E+03  0.51100000000E-03 0.  1.
    -200002    1    4    4    0    0 -0.72900319507E+01  0.10069286866E+03 -0.79398284527E+02  0.13189498077E+03  0.30000000000E+02 0.  1.
    -200000    1    3    3    0    0 -0.89206123620E+03  0.55389082665E+03 -0.45556773663E+03  0.12490437381E+04  0.50000000000E+03 0. -1.
<mgrwt>
<rscale>  0 0.29373061E+04</rscale>
<asrwt>0</asrwt>
<pdfrwt beam="1">  1        2 0.38676149E+00 0.29373061E+04</pdfrwt>
<pdfrwt beam="2">  1       -2 0.11381490E+00 0.29373061E+04</pdfrwt>
<totfact> 0.17901975E+00</totfact>
</mgrwt>
</event>
<event>
 8    2  0.7085383E-010  0.2187524E+04  0.7818608E-02  0.8523639E-01
         -2   -1    0    0    0  501 -0.00000000000E+00  0.00000000000E+00  0.13780559159E+04  0.13780559159E+04  0.25500000000E-02 0. -1.
          2   -1    0    0  501    0  0.00000000000E+00 -0.00000000000E+00 -0.86811840699E+03  0.86811840699E+03  0.25500000000E-02 0.  1.
    -200001    2    1    2    0    0  0.28810748173E+03  0.22395917747E+03  0.10318285856E+04  0.12998477777E+04  0.70126341770E+03 0.  0.
   -5000001    2    3    3    0    0  0.89080400784E+02 -0.16301768617E+02  0.10085419567E+03  0.19800821778E+03  0.14434202458E+03 0.  0.
     200001    1    1    2    0    0 -0.28810748173E+03 -0.22395917747E+03 -0.52189107667E+03  0.94632654518E+03  0.70000000000E+03 0.  1.
         11    1    4    4    0    0 -0.67565658306E+01  0.32646827071E+02  0.76809848920E+02  0.83733024495E+02  0.51100000000E-03 0.  1.
    -200002    1    4    4    0    0  0.95836966614E+02 -0.48948595688E+02  0.24044346747E+02  0.11427519328E+03  0.30000000000E+02 0.  1.
    -200000    1    3    3    0    0  0.19902708095E+03  0.24026094609E+03  0.93097438991E+03  0.11018395599E+04  0.50000000000E+03 0. -1.
<mgrwt>
<rscale>  0 0.21875244E+04</rscale>
<asrwt>0</asrwt>
<pdfrwt beam="1">  1        2 0.12401692E+00 0.21875244E+04</pdfrwt>
<pdfrwt beam="2">  1       -2 0.19686513E+00 0.21875244E+04</pdfrwt>
<totfact> 0.43739511E+00</totfact>
</mgrwt>
</event>
<event>
 8    2  0.7085383E-010  0.1659696E+04  0.7818608E-02  0.8784691E-01
          2   -1    0    0  501    0  0.00000000000E+00  0.00000000000E+00  0.32269554183E+04  0.32269554183E+04  0.25500000000E-02 0.  1.
         -2   -1    0    0    0  501 -0.00000000000E+00 -0.00000000000E+00 -0.21340484526E+03  0.21340484527E+03  0.25500000000E-02 0. -1.
    -200001    2    1    2    0    0  0.20891964861E+03  0.27213828298E+02  0.68921042763E+03  0.10037755383E+04  0.69868899064E+03 0.  0.
   -5000001    2    3    3    0    0  0.76239121469E+02 -0.53664450070E+02  0.35537159366E+03  0.38281355452E+03  0.10754055559E+03 0.  0.
     200001    1    1    2    0    0 -0.20891964861E+03 -0.27213828298E+02  0.23243401455E+04  0.24365847254E+04  0.70000000000E+03 0.  1.
         11    1    4    4    0    0  0.46018053229E+01 -0.46145940908E+02  0.23380530951E+03  0.23836012089E+03  0.51100000000E-03 0.  1.
    -200002    1    4    4    0    0  0.71637316146E+02 -0.75185091616E+01  0.12156628415E+03  0.14445343363E+03  0.30000000000E+02 0. -1.
    -200000    1    3    3    0    0  0.13268052714E+03  0.80878278368E+02  0.33383883397E+03  0.62096198375E+03  0.50000000000E+03 0. -1.
<mgrwt>
<rscale>  0 0.16596963E+04</rscale>
<asrwt>0</asrwt>
<pdfrwt beam="1">  1        2 0.46099364E+00 0.16596963E+04</pdfrwt>
<pdfrwt beam="2">  1       -2 0.30486406E-01 0.16596963E+04</pdfrwt>
<totfact> 0.16737613E+01</totfact>
</mgrwt>
</event>
<event>
 8    2  0.7085383E-010  0.2153264E+04  0.7818608E-02  0.8538136E-01
         -2   -1    0    0    0  501 -0.00000000000E+00  0.00000000000E+00  0.52309069765E+03  0.52309069765E+03  0.25500000000E-02 0. -1.
          2   -1    0    0  501    0  0.00000000000E+00 -0.00000000000E+00 -0.22159386786E+04  0.22159386786E+04  0.25500000000E-02 0.  1.
    -200001    2    1    2    0    0 -0.36181499454E+03  0.64604332136E+03 -0.40485659070E+03  0.10967127549E+04  0.70041983439E+03 0.  0.
   -5000001    2    3    3    0    0 -0.13288414167E+03  0.18107540097E+03 -0.13209483771E+03  0.32664556546E+03  0.19698168275E+03 0.  0.
     200001    1    1    2    0    0  0.36181499454E+03 -0.64604332136E+03 -0.12879913902E+04  0.16423166213E+04  0.70000000000E+03 0.  1.
         11    1    4    4    0    0 -0.12403807176E+03  0.65004294763E+02  0.10151892868E+02  0.14040677516E+03  0.51100000000E-03 0.  1.
    -200002    1    4    4    0    0 -0.88460699088E+01  0.11607110621E+03 -0.14224673058E+03  0.18623879029E+03  0.30000000000E+02 0.  1.
    -200000    1    3    3    0    0 -0.22893085288E+03  0.46496792039E+03 -0.27276175298E+03  0.77006718946E+03  0.50000000000E+03 0. -1.
<mgrwt>
<rscale>  0 0.21532644E+04</rscale>
<asrwt>0</asrwt>
<pdfrwt beam="1">  1        2 0.31656266E+00 0.21532644E+04</pdfrwt>
<pdfrwt beam="2">  1       -2 0.74727244E-01 0.21532644E+04</pdfrwt>
<totfact> 0.92045253E+00</totfact>
</mgrwt>
</event>
<event>
 8    2  0.7085383E-010  0.1664831E+04  0.7818608E-02  0.8781680E-01
         -2   -1    0    0    0  501 -0.00000000000E+00  0.00000000000E+00  0.84532922411E+03  0.84532922411E+03  0.25500000000E-02 0. -1.
          2   -1    0    0  501    0  0.00000000000E+00 -0.00000000000E+00 -0.81969932642E+03  0.81969932643E+03  0.25500000000E-02 0.  1.
    -200001    2    1    2    0    0 -0.21469155517E+01  0.24592317131E+03  0.38390218497E+03  0.84110995792E+03  0.70682547934E+03 0.  0.
   -5000001    2    3    3    0    0 -0.79088653749E+02  0.14166876618E+03  0.16075235627E+02  0.20700769745E+03  0.12754888921E+03 0.  0.
     200001    1    1    2    0    0  0.21469155517E+01 -0.24592317131E+03 -0.35827228728E+03  0.82391859262E+03  0.70000000000E+03 0.  1.
         11    1    4    4    0    0 -0.63308347748E+02  0.18321675242E+02 -0.28139266312E+02  0.71662047048E+02  0.51100000000E-03 0.  1.
    -200002    1    4    4    0    0 -0.15780306001E+02  0.12334709094E+03  0.44214501938E+02  0.13534565040E+03  0.30000000000E+02 0.  1.
    -200000    1    3    3    0    0  0.76941738197E+02  0.10425440513E+03  0.36782694934E+03  0.63410226047E+03  0.50000000000E+03 0. -1.
<mgrwt>
<rscale>  0 0.16648313E+04</rscale>
<asrwt>0</asrwt>
<pdfrwt beam="1">  1        2 0.11709990E+00 0.16648313E+04</pdfrwt>
<pdfrwt beam="2">  1       -2 0.12076132E+00 0.16648313E+04</pdfrwt>
<totfact> 0.18414524E+01</totfact>
</mgrwt>
</event>
<event>
 8    2  0.7085383E-010  0.2071899E+04  0.7818608E-02  0.8573724E-01
         -2   -1    0    0    0  501 -0.00000000000E+00  0.00000000000E+00  0.11633622660E+04  0.11633622660E+04  0.25500000000E-02 0. -1.
          2   -1    0    0  501    0  0.00000000000E+00 -0.00000000000E+00 -0.92249119845E+03  0.92249119846E+03  0.25500000000E-02 0.  1.
    -200001    2    1    2    0    0  0.24861592666E+03  0.18319624061E+03 -0.58270737417E+03  0.96173061030E+03  0.70000510093E+03 0.  0.
   -5000001    2    3    3    0    0  0.65119064992E+02  0.11142085083E+03 -0.21702269259E+03  0.31169361815E+03  0.18275383409E+03 0.  0.
     200001    1    1    2    0    0 -0.24861592666E+03 -0.18319624061E+03  0.82357844167E+03  0.11241228541E+04  0.70000000000E+03 0. -1.
         11    1    4    4    0    0  0.78846909282E+02  0.46900984024E+01 -0.17560197729E+03  0.19254840055E+03  0.51100000000E-03 0.  1.
    -200002    1    4    4    0    0 -0.13727844289E+02  0.10673075242E+03 -0.41420715297E+02  0.11914521760E+03  0.30000000000E+02 0.  1.
    -200000    1    3    3    0    0  0.18349686167E+03  0.71775389780E+02 -0.36568468158E+03  0.65003699215E+03  0.50000000000E+03 0.  1.
<mgrwt>
<rscale>  0 0.20718991E+04</rscale>
<asrwt>0</asrwt>
<pdfrwt beam="1">  1        2 0.13178446E+00 0.20718991E+04</pdfrwt>
<pdfrwt beam="2">  1       -2 0.16619461E+00 0.20718991E+04</pdfrwt>
<totfact> 0.66157987E+00</totfact>
</mgrwt>
</event>
<event>
 8    2  0.7085383E-010  0.1618598E+04  0.7818608E-02  0.8809203E-01
          2   -1    0    0  501    0  0.00000000000E+00  0.00000000000E+00  0.19339894161E+03  0.19339894162E+03  0.25500000000E-02 0.  1.
         -2   -1    0    0    0  501 -0.00000000000E+00 -0.00000000000E+00 -0.33866002455E+04  0.33866002455E+04  0.25500000000E-02 0. -1.
    -200001    2    1    2    0    0 -0.73507085474E+02 -0.35305737050E+02 -0.71716434993E+03  0.10056237708E+04  0.70021759258E+03 0.  0.
   -5000001    2    3    3    0    0 -0.96360185203E+02 -0.21088099505E+02 -0.10084570051E+03  0.21153745120E+03  0.15763326019E+03 0.  0.
     200001    1    1    2    0    0  0.73507085474E+02  0.35305737050E+02 -0.24760369540E+04  0.25743754163E+04  0.70000000000E+03 0. -1.
         11    1    4    4    0    0 -0.11283246125E+03 -0.60238144334E+02 -0.45914333746E+02  0.13589674164E+03  0.51100000000E-03 0.  1.
    -200002    1    4    4    0    0  0.16472276050E+02  0.39150044829E+02 -0.54931366760E+02  0.75640709559E+02  0.30000000000E+02 0.  1.
    -200000    1    3    3    0    0  0.22853099729E+02 -0.14217637545E+02 -0.61631864943E+03  0.79408631963E+03  0.50000000000E+03 0.  1.
<mgrwt>
<rscale>  0 0.16185980E+04</rscale>
<asrwt>0</asrwt>
<pdfrwt beam="1">  1        2 0.27628422E-01 0.16185980E+04</pdfrwt>
<pdfrwt beam="2">  1       -2 0.48380000E+00 0.16185980E+04</pdfrwt>
<totfact> 0.39304877E-01</totfact>
</mgrwt>
</event>
<event>
 8    2  0.7085383E-010  0.2228590E+04  0.7818608E-02  0.8506622E-01
         -2   -1    0    0    0  501 -0.00000000000E+00  0.00000000000E+00  0.11919027671E+04  0.11919027671E+04  0.25500000000E-02 0. -1.
          2   -1    0    0  501    0  0.00000000000E+00 -0.00000000000E+00 -0.10417406057E+04  0.10417406057E+04  0.25500000000E-02 0.  1.
    -200001    2    1    2    0    0  0.39057131108E+03  0.28677535557E+03 -0.64545727284E+03  0.10683981894E+04  0.70005253113E+03 0.  0.
   -5000001    2    3    3    0    0 -0.69634261119E+02  0.95017351561E+02 -0.46933360307E+02  0.14276803931E+03  0.65595314774E+02 0.  0.
     200001    1    1    2    0    0 -0.39057131108E+03 -0.28677535557E+03  0.79561943421E+03  0.11652451835E+04  0.70000000000E+03 0. -1.
         11    1    4    4    0    0 -0.30331336128E+02  0.46156497669E+02 -0.48108068916E+02  0.73244784957E+02  0.51100000000E-03 0.  1.
    -200002    1    4    4    0    0 -0.39302924991E+02  0.48860853892E+02  0.11747086087E+01  0.69523254356E+02  0.30000000000E+02 0.  1.
    -200000    1    3    3    0    0  0.46020557220E+03  0.19175800401E+03 -0.59852391253E+03  0.92563015004E+03  0.50000000000E+03 0.  1.
<mgrwt>
<rscale>  0 0.22285901E+04</rscale>
<asrwt>0</asrwt>
<pdfrwt beam="1">  1        2 0.14882009E+00 0.22285901E+04</pdfrwt>
<pdfrwt beam="2">  1       -2 0.17027182E+00 0.22285901E+04</pdfrwt>
<totfact> 0.51465184E+00</totfact>
</mgrwt>
</event>
<event>
 8    2  0.7085383E-010  0.1788726E+04  0.7818608E-02  0.8712318E-01
         -2   -1    0    0    0  501 -0.00000000000E+00  0.00000000000E+00  0.78619498640E+03  0.78619498640E+03  0.25500000000E-02 0. -1.
          2   -1    0    0  501    0  0.00000000000E+00 -0.00000000000E+00 -0.10174133916E+04  0.10174133916E+04  0.25500000000E-02 0.  1.
    -200001    2    1    2    0    0 -0.37992580292E+03 -0.96123918799E+02 -0.51482294381E+03  0.95271769297E+03  0.69931746406E+03 0.  0.
   -5000001    2    3    3    0    0 -0.39924953734E+02 -0.12650969109E+03 -0.15478073362E+03  0.24833550572E+03  0.14182645744E+03 0.  0.
     200001    1    1    2    0    0  0.37992580292E+03  0.96123918799E+02  0.28360453864E+03  0.85089068500E+03  0.70000000000E+03 0. -1.
         11    1    4    4    0    0  0.83161566533E+01 -0.97367205687E+02 -0.20787573312E+02  0.99908229938E+02  0.51100000000E-03 0.  1.
    -200002    1    4    4    0    0 -0.48241110387E+02 -0.29142485402E+02 -0.13399316030E+03  0.14842727578E+03  0.30000000000E+02 0.  1.
    -200000    1    3    3    0    0 -0.34000084919E+03  0.30385772289E+02 -0.36004221019E+03  0.70438218726E+03  0.50000000000E+03 0.  1.
<mgrwt>
<rscale>  0 0.17887261E+04</rscale>
<asrwt>0</asrwt>
<pdfrwt beam="1">  1        2 0.14534477E+00 0.17887261E+04</pdfrwt>
<pdfrwt beam="2">  1       -2 0.11231357E+00 0.17887261E+04</pdfrwt>
<totfact> 0.16223808E+01</totfact>
</mgrwt>
</event>
<event>
 8    2  0.7085383E-010  0.1941905E+04  0.7818608E-02  0.8634274E-01
          2   -1    0    0  501    0  0.00000000000E+00  0.00000000000E+00  0.17913772154E+04  0.17913772154E+04  0.25500000000E-02 0.  1.
         -2   -1    0    0    0  501 -0.00000000000E+00 -0.00000000000E+00 -0.52627040876E+03  0.52627040876E+03  0.25500000000E-02 0. -1.
    -200001    2    1    2    0    0 -0.52283198439E+03 -0.41870897469E+03  0.71326938556E+03  0.12026610643E+04  0.69926384851E+03 0.  0.
   -5000001    2    3    3    0    0 -0.14675667896E+03 -0.12320517025E+03  0.18874160185E+03  0.33439582275E+03  0.19869609260E+03 0.  0.
     200001    1    1    2    0    0  0.52283198439E+03  0.41870897469E+03  0.55183742111E+03  0.11149865599E+04  0.70000000000E+03 0. -1.
         11    1    4    4    0    0  0.32229377157E+02 -0.31488025510E+02  0.10541850441E+03  0.11464418684E+03  0.51100000000E-03 0.  1.
    -200002    1    4    4    0    0 -0.17898605611E+03 -0.91717144736E+02  0.83323097434E+02  0.21975163592E+03  0.30000000000E+02 0.  1.
    -200000    1    3    3    0    0 -0.37607530544E+03 -0.29550380444E+03  0.52452778371E+03  0.86826524155E+03  0.50000000000E+03 0.  1.
<mgrwt>
<rscale>  0 0.19419051E+04</rscale>
<asrwt>0</asrwt>
<pdfrwt beam="1">  1        2 0.25591103E+00 0.19419051E+04</pdfrwt>
<pdfrwt beam="2">  1       -2 0.75181486E-01 0.19419051E+04</pdfrwt>
<totfact> 0.15298397E+01</totfact>
</mgrwt>
</event>
<event>
 8    2  0.7085383E-010  0.1450371E+04  0.7818608E-02  0.8918143E-01
          2   -1    0    0  501    0  0.00000000000E+00  0.00000000000E+00  0.17479557132E+04  0.17479557132E+04  0.25500000000E-02 0.  1.
         -2   -1    0    0    0  501 -0.00000000000E+00 -0.00000000000E+00 -0.30086241603E+03  0.30086241604E+03  0.25500000000E-02 0. -1.
    -200001    2    1    2    0    0 -0.11377566974E+03 -0.14875886610E+03  0.69294612233E+03  0.10029634239E+04  0.70049068378E+03 0.  0.
   -5000001    2    3    3    0    0 -0.93885630891E+02  0.10659568539E+02  0.23550529514E+03  0.30649952587E+03  0.17190426764E+03 0.  0.
     200001    1    1    2    0    0  0.11377566974E+03  0.14875886610E+03  0.75414717488E+03  0.10458547053E+04  0.70000000000E+03 0. -1.
         11    1    4    4    0    0 -0.10803081962E+03  0.29546660150E+02  0.60329172838E+02  0.12721349067E+03  0.51100000000E-03 0.  1.
    -200002    1    4    4    0    0  0.14145188724E+02 -0.18887091611E+02  0.17517612230E+03  0.17928603520E+03  0.30000000000E+02 0.  1.
    -200000    1    3    3    0    0 -0.19890038845E+02 -0.15941843464E+03  0.45744082718E+03  0.69646389808E+03  0.50000000000E+03 0. -1.
<mgrwt>
<rscale>  0 0.14503712E+04</rscale>
<asrwt>0</asrwt>
<pdfrwt beam="1">  1        2 0.24970796E+00 0.14503712E+04</pdfrwt>
<pdfrwt beam="2">  1       -2 0.42980345E-01 0.14503712E+04</pdfrwt>
<totfact> 0.53951995E+01</totfact>
</mgrwt>
</event>
<event>
 8    2  0.7085383E-010  0.1859334E+04  0.7818608E-02  0.8675368E-01
         -2   -1    0    0    0  501 -0.00000000000E+00  0.00000000000E+00  0.87274093451E+03  0.87274093452E+03  0.25500000000E-02 0.  1.
          2   -1    0    0  501    0  0.00000000000E+00 -0.00000000000E+00 -0.99030602266E+03  0.99030602266E+03  0.25500000000E-02 0. -1.
    -200001    2    1    2    0    0  0.19511220996E+03 -0.39679746311E+03  0.36585247559E+03  0.90429279571E+03  0.69884220341E+03 0.  0.
   -5000001    2    3    3    0    0  0.57696337328E+02 -0.10554199092E+03  0.11326465922E+03  0.25813996772E+03  0.19834157587E+03 0.  0.
     200001    1    1    2    0    0 -0.19511220996E+03  0.39679746311E+03 -0.48341756374E+03  0.95875416147E+03  0.70000000000E+03 0.  1.
         11    1    4    4    0    0  0.25431217649E+01  0.43586809773E+02 -0.20469083787E+02  0.48220958574E+02  0.51100000000E-03 0.  1.
    -200002    1    4    4    0    0  0.55153215563E+02 -0.14912880069E+03  0.13373374301E+03  0.20991900915E+03  0.30000000000E+02 0.  1.
    -200000    1    3    3    0    0  0.13741587263E+03 -0.29125547219E+03  0.25258781637E+03  0.64615282798E+03  0.50000000000E+03 0.  1.
<mgrwt>
<rscale>  0 0.18593339E+04</rscale>
<asrwt>0</asrwt>
<pdfrwt beam="1">  1        2 0.14147229E+00 0.18593339E+04</pdfrwt>
<pdfrwt beam="2">  1       -2 0.12467728E+00 0.18593339E+04</pdfrwt>
<totfact> 0.12957257E+01</totfact>
</mgrwt>
</event>
<event>
 8    2  0.7085383E-010  0.2189707E+04  0.7818608E-02  0.8522725E-01
         -2   -1    0    0    0  501 -0.00000000000E+00  0.00000000000E+00  0.25430321693E+04  0.25430321693E+04  0.25500000000E-02 0. -1.
          2   -1    0    0  501    0  0.00000000000E+00 -0.00000000000E+00 -0.47136793073E+03  0.47136793074E+03  0.25500000000E-02 0.  1.
    -200001    2    1    2    0    0 -0.45947122014E+03 -0.13718604540E+03  0.84153928505E+02  0.85335150137E+03  0.70085168761E+03 0.  0.
   -5000001    2    3    3    0    0 -0.79800870605E+02 -0.55093177543E+02  0.30681485623E+02  0.21793973298E+03  0.19275097014E+03 0.  0.
     200001    1    1    2    0    0  0.45947122014E+03  0.13718604540E+03  0.19875103101E+04  0.21610485987E+04  0.70000000000E+03 0. -1.
         11    1    4    4    0    0 -0.11993341041E+03 -0.59178191062E+02  0.72877057437E+02  0.15230609551E+03  0.51100000000E-03 0.  1.
    -200002    1    4    4    0    0  0.40132539803E+02  0.40850135190E+01 -0.42195571814E+02  0.65633637467E+02  0.30000000000E+02 0.  1.
    -200000    1    3    3    0    0 -0.37967034953E+03 -0.82092867860E+02  0.53472442882E+02  0.63541176839E+03  0.50000000000E+03 0.  1.
<mgrwt>
<rscale>  0 0.21897067E+04</rscale>
<asrwt>0</asrwt>
<pdfrwt beam="1">  1        2 0.67338275E-01 0.21897067E+04</pdfrwt>
<pdfrwt beam="2">  1       -2 0.36329031E+00 0.21897067E+04</pdfrwt>
<totfact> 0.84652343E-01</totfact>
</mgrwt>
</event>
<event>
 8    2  0.7085383E-010  0.2244357E+04  0.7818608E-02  0.8500189E-01
          2   -1    0    0  501    0  0.00000000000E+00  0.00000000000E+00  0.34229126360E+04  0.34229126360E+04  0.25500000000E-02 0.  1.
         -2   -1    0    0    0  501 -0.00000000000E+00 -0.00000000000E+00 -0.36789867112E+03  0.36789867112E+03  0.25500000000E-02 0. -1.
    -200001    2    1    2    0    0 -0.50572663678E+03 -0.36182470504E+03  0.25725866535E+04  0.27375247084E+04  0.69940180939E+03 0.  0.
   -5000001    2    3    3    0    0 -0.66847454413E+02 -0.14699598312E+02  0.44665351254E+03  0.48303973478E+03  0.17071427813E+03 0.  0.
     200001    1    1    2    0    0  0.50572663678E+03  0.36182470504E+03  0.48242731141E+03  0.10532865988E+04  0.70000000000E+03 0.  1.
         11    1    4    4    0    0 -0.10712513138E+03  0.21176242186E+02  0.36308351605E+03  0.37914887133E+03  0.51100000000E-03 0.  1.
    -200002    1    4    4    0    0  0.40277676969E+02 -0.35875840499E+02  0.83569996489E+02  0.10389086344E+03  0.30000000000E+02 0.  1.
    -200000    1    3    3    0    0 -0.43887918237E+03 -0.34712510673E+03  0.21259331410E+04  0.22544849736E+04  0.50000000000E+03 0. -1.
<mgrwt>
<rscale>  0 0.22443574E+04</rscale>
<asrwt>0</asrwt>
<pdfrwt beam="1">  1        2 0.48898748E+00 0.22443574E+04</pdfrwt>
<pdfrwt beam="2">  1       -2 0.52556957E-01 0.22443574E+04</pdfrwt>
<totfact> 0.41896595E+00</totfact>
</mgrwt>
</event>
<event>
 8    2  0.7085383E-010  0.1833986E+04  0.7818608E-02  0.8688432E-01
         -2   -1    0    0    0  501 -0.00000000000E+00  0.00000000000E+00  0.11261703882E+04  0.11261703882E+04  0.25500000000E-02 0. -1.
          2   -1    0    0  501    0  0.00000000000E+00 -0.00000000000E+00 -0.74666849533E+03  0.74666849533E+03  0.25500000000E-02 0.  1.
    -200001    2    1    2    0    0  0.10189500823E+03  0.40446517378E+03  0.61935363186E+03  0.10234252469E+04  0.69987544970E+03 0.  0.
   -5000001    2    3    3    0    0  0.15478269270E+02  0.14857967510E+03  0.23229547865E+03  0.33585033808E+03  0.19109883180E+03 0.  0.
     200001    1    1    2    0    0 -0.10189500823E+03 -0.40446517378E+03 -0.23985173897E+03  0.84941363669E+03  0.70000000000E+03 0.  1.
         11    1    4    4    0    0 -0.74744651038E+01  0.49122059274E+02  0.22365843858E+03  0.22911119895E+03  0.51100000000E-03 0.  1.
    -200002    1    4    4    0    0  0.22952734374E+02  0.99457615828E+02  0.86370400718E+01  0.10673913913E+03  0.30000000000E+02 0.  1.
    -200000    1    3    3    0    0  0.86416738955E+02  0.25588549868E+03  0.38705815320E+03  0.68757490877E+03  0.50000000000E+03 0. -1.
<mgrwt>
<rscale>  0 0.18339858E+04</rscale>
<asrwt>0</asrwt>
<pdfrwt beam="1">  1        2 0.10666693E+00 0.18339858E+04</pdfrwt>
<pdfrwt beam="2">  1       -2 0.16088148E+00 0.18339858E+04</pdfrwt>
<totfact> 0.97255373E+00</totfact>
</mgrwt>
</event>
<event>
 8    2  0.7085383E-010  0.1838559E+04  0.7818608E-02  0.8686059E-01
         -2   -1    0    0    0  501 -0.00000000000E+00  0.00000000000E+00  0.71227184716E+03  0.71227184716E+03  0.25500000000E-02 0. -1.
          2   -1    0    0  501    0  0.00000000000E+00 -0.00000000000E+00 -0.11864500582E+04  0.11864500582E+04  0.25500000000E-02 0.  1.
    -200001    2    1    2    0    0  0.18194565255E+02 -0.59478050309E+03 -0.26797580525E+03  0.95711990815E+03  0.70012327294E+03 0.  0.
   -5000001    2    3    3    0    0 -0.57782086595E+00 -0.23858262395E+03 -0.88591285135E+02  0.31726981817E+03  0.18944582178E+03 0.  0.
     200001    1    1    2    0    0 -0.18194565255E+02  0.59478050309E+03 -0.20620240583E+03  0.94160199725E+03  0.70000000000E+03 0.  1.
         11    1    4    4    0    0  0.35437046091E+02  0.15629587493E+02 -0.37222841873E+02  0.53717857350E+02  0.51100000000E-03 0.  1.
    -200002    1    4    4    0    0 -0.36014866957E+02 -0.25421221144E+03 -0.51368443262E+02  0.26355196082E+03  0.30000000000E+02 0.  1.
    -200000    1    3    3    0    0  0.18772386121E+02 -0.35619787914E+03 -0.17938452012E+03  0.63985008998E+03  0.50000000000E+03 0.  1.
<mgrwt>
<rscale>  0 0.18385592E+04</rscale>
<asrwt>0</asrwt>
<pdfrwt beam="1">  1        2 0.16949286E+00 0.18385592E+04</pdfrwt>
<pdfrwt beam="2">  1       -2 0.10175312E+00 0.18385592E+04</pdfrwt>
<totfact> 0.16284310E+01</totfact>
</mgrwt>
</event>
<event>
 8    2  0.7085383E-010  0.2038556E+04  0.7818608E-02  0.8588804E-01
         -2   -1    0    0    0  501 -0.00000000000E+00  0.00000000000E+00  0.22941368481E+03  0.22941368482E+03  0.25500000000E-02 0. -1.
          2   -1    0    0  501    0  0.00000000000E+00 -0.00000000000E+00 -0.45286210664E+04  0.45286210664E+04  0.25500000000E-02 0.  1.
    -200001    2    1    2    0    0 -0.59435257130E+03 -0.35082566902E+03 -0.27800702897E+04  0.29485842454E+04  0.69930294407E+03 0.  0.
   -5000001    2    3    3    0    0 -0.18796205183E+03 -0.38451867248E+02 -0.69310098213E+03  0.74219091305E+03  0.18343963848E+03 0.  0.
     200001    1    1    2    0    0  0.59435257130E+03  0.35082566902E+03 -0.15191370919E+04  0.18094505059E+04  0.70000000000E+03 0. -1.
         11    1    4    4    0    0 -0.83775257570E+02 -0.15123592174E+02 -0.57072703656E+03  0.57704104453E+03  0.51100000000E-03 0.  1.
    -200002    1    4    4    0    0 -0.10418679426E+03 -0.23328275073E+02 -0.12237394557E+03  0.16514986852E+03  0.30000000000E+02 0.  1.
    -200000    1    3    3    0    0 -0.40639051946E+03 -0.31237380177E+03 -0.20869693075E+04  0.22063933323E+04  0.50000000000E+03 0.  1.
<mgrwt>
<rscale>  0 0.20385560E+04</rscale>
<asrwt>0</asrwt>
<pdfrwt beam="1">  1        2 0.64694581E+00 0.20385560E+04</pdfrwt>
<pdfrwt beam="2">  1       -2 0.32773386E-01 0.20385560E+04</pdfrwt>
<totfact> 0.18780715E+00</totfact>
</mgrwt>
</event>
<event>
 8    2  0.7085383E-010  0.1436515E+04  0.7818608E-02  0.8927803E-01
          2   -1    0    0  501    0  0.00000000000E+00  0.00000000000E+00  0.68455683971E+03  0.68455683971E+03  0.25500000000E-02 0.  1.
         -2   -1    0    0    0  501 -0.00000000000E+00 -0.00000000000E+00 -0.75361706385E+03  0.75361706385E+03  0.25500000000E-02 0. -1.
    -200001    2    1    2    0    0  0.10443646646E+03  0.11650085683E+03 -0.75644312216E+02  0.72087147406E+03  0.69961003064E+03 0.  0.
   -5000001    2    3    3    0    0  0.26285740048E+02  0.31457544025E+02 -0.76461116209E+01  0.20321941294E+03  0.19889482036E+03 0.  0.
     200001    1    1    2    0    0 -0.10443646646E+03 -0.11650085683E+03  0.65840880743E+01  0.71730242951E+03  0.70000000000E+03 0. -1.
         11    1    4    4    0    0 -0.19806905657E+02  0.93630274672E+02  0.44132449618E+02  0.10538792605E+03  0.51100000000E-03 0.  1.
    -200002    1    4    4    0    0  0.46092645705E+02 -0.62172730647E+02 -0.51778561239E+02  0.97831486895E+02  0.30000000000E+02 0.  1.
    -200000    1    3    3    0    0  0.78150726409E+02  0.85043312805E+02 -0.67998200595E+02  0.51765206111E+03  0.50000000000E+03 0. -1.
<mgrwt>
<rscale>  0 0.14365148E+04</rscale>
<asrwt>0</asrwt>
<pdfrwt beam="1">  1        2 0.97793834E-01 0.14365148E+04</pdfrwt>
<pdfrwt beam="2">  1       -2 0.10765958E+00 0.14365148E+04</pdfrwt>
<totfact> 0.31142281E+01</totfact>
</mgrwt>
</event>
<event>
 8    2  0.7085383E-010  0.1807173E+04  0.7818608E-02  0.8702494E-01
         -2   -1    0    0    0  501 -0.00000000000E+00  0.00000000000E+00  0.79478413019E+03  0.79478413019E+03  0.25500000000E-02 0. -1.
          2   -1    0    0  501    0  0.00000000000E+00 -0.00000000000E+00 -0.10272832217E+04  0.10272832217E+04  0.25500000000E-02 0.  1.
    -200001    2    1    2    0    0 -0.43411703690E+03 -0.24906816402E+02 -0.48960103103E+03  0.95882963343E+03  0.70040498650E+03 0.  0.
   -5000001    2    3    3    0    0 -0.17161657276E+03 -0.67210956447E+02 -0.16801920358E+03  0.30759157735E+03  0.18003489931E+03 0.  0.
     200001    1    1    2    0    0  0.43411703690E+03  0.24906816402E+02  0.25710193954E+03  0.86323771845E+03  0.70000000000E+03 0. -1.
         11    1    4    4    0    0  0.35232297754E+02 -0.27391765619E+02 -0.24130374405E+02  0.50733604228E+02  0.51100000000E-03 0.  1.
    -200002    1    4    4    0    0 -0.20684887052E+03 -0.39819190828E+02 -0.14388882918E+03  0.25685797312E+03  0.30000000000E+02 0.  1.
    -200000    1    3    3    0    0 -0.26250046414E+03  0.42304140045E+02 -0.32158182745E+03  0.65123805608E+03  0.50000000000E+03 0.  1.
<mgrwt>
<rscale>  0 0.18071728E+04</rscale>
<asrwt>0</asrwt>
<pdfrwt beam="1">  1        2 0.14675475E+00 0.18071728E+04</pdfrwt>
<pdfrwt beam="2">  1       -2 0.11354059E+00 0.18071728E+04</pdfrwt>
<totfact> 0.15559869E+01</totfact>
</mgrwt>
</event>
<event>
 8    2  0.7085383E-010  0.2002906E+04  0.7818608E-02  0.8605263E-01
         -2   -1    0    0    0  501 -0.00000000000E+00  0.00000000000E+00  0.56663718779E+03  0.56663718779E+03  0.25500000000E-02 0. -1.
          2   -1    0    0  501    0  0.00000000000E+00 -0.00000000000E+00 -0.17699297779E+04  0.17699297779E+04  0.25500000000E-02 0.  1.
    -200001    2    1    2    0    0  0.31460697714E+03  0.29254212008E+03  0.67073122075E+02  0.82382525450E+03  0.69973623899E+03 0.  0.
   -5000001    2    3    3    0    0  0.93315990053E+01  0.14183246204E+03  0.28777902201E+02  0.21771224409E+03  0.16237896275E+03 0.  0.
     200001    1    1    2    0    0 -0.31460697714E+03 -0.29254212008E+03 -0.12703657122E+04  0.15127417112E+04  0.70000000000E+03 0.  1.
         11    1    4    4    0    0  0.24000901800E+02  0.75574286231E+02  0.91127133239E+02  0.12079598685E+03  0.51100000000E-03 0.  1.
    -200002    1    4    4    0    0 -0.14669302795E+02  0.66258175806E+02 -0.62349231038E+02  0.96916257237E+02  0.30000000000E+02 0.  1.
    -200000    1    3    3    0    0  0.30527537813E+03  0.15070965805E+03  0.38295219874E+02  0.60611301041E+03  0.50000000000E+03 0. -1.
<mgrwt>
<rscale>  0 0.20029059E+04</rscale>
<asrwt>0</asrwt>
<pdfrwt beam="1">  1        2 0.25284711E+00 0.20029059E+04</pdfrwt>
<pdfrwt beam="2">  1       -2 0.80948170E-01 0.20029059E+04</pdfrwt>
<totfact> 0.13240998E+01</totfact>
</mgrwt>
</event>
<event>
 8    2  0.7085383E-010  0.3116251E+04  0.7818608E-02  0.8211292E-01
         -2   -1    0    0    0  501 -0.00000000000E+00  0.00000000000E+00  0.16448391880E+04  0.16448391880E+04  0.25500000000E-02 0.  1.
          2   -1    0    0  501    0  0.00000000000E+00 -0.00000000000E+00 -0.14759831178E+04  0.14759831178E+04  0.25500000000E-02 0. -1.
    -200001    2    1    2    0    0 -0.88228024016E+03  0.95525782968E+03 -0.41248224863E+03  0.15337211168E+04  0.70087296661E+03 0.  0.
   -5000001    2    3    3    0    0 -0.22563725704E+03  0.21120187635E+03 -0.12658982165E+03  0.38631807131E+03  0.19416041033E+03 0.  0.
     200001    1    1    2    0    0  0.88228024016E+03 -0.95525782968E+03  0.58133831886E+03  0.15871011891E+04  0.70000000000E+03 0.  1.
         11    1    4    4    0    0 -0.16067658022E+03  0.22928028952E+03 -0.13715155115E+03  0.31176427405E+03  0.51100000000E-03 0.  1.
    -200002    1    4    4    0    0 -0.64960676819E+02 -0.18078413172E+02  0.10561729502E+02  0.74553797259E+02  0.30000000000E+02 0.  1.
    -200000    1    3    3    0    0 -0.65664298312E+03  0.74405595333E+03 -0.28589242698E+03  0.11474030455E+04  0.50000000000E+03 0.  1.
<mgrwt>
<rscale>  0 0.31162509E+04</rscale>
<asrwt>0</asrwt>
<pdfrwt beam="1">  1        2 0.21085473E+00 0.31162509E+04</pdfrwt>
<pdfrwt beam="2">  1       -2 0.23497703E+00 0.31162509E+04</pdfrwt>
<totfact> 0.10241642E+00</totfact>
</mgrwt>
</event>
<event>
 8    2  0.7085383E-010  0.1771299E+04  0.7818608E-02  0.8721713E-01
          2   -1    0    0  501    0  0.00000000000E+00  0.00000000000E+00  0.23481461058E+04  0.23481461058E+04  0.25500000000E-02 0. -1.
         -2   -1    0    0    0  501 -0.00000000000E+00 -0.00000000000E+00 -0.33404028473E+03  0.33404028474E+03  0.25500000000E-02 0.  1.
    -200001    2    1    2    0    0  0.17354777890E+03  0.44771540538E+03  0.62525210829E+03  0.10544632718E+04  0.70027471529E+03 0.  0.
   -5000001    2    3    3    0    0 -0.27117537909E+02  0.11437837834E+03  0.17400274219E+03  0.27664186982E+03  0.18009995989E+03 0.  0.
     200001    1    1    2    0    0 -0.17354777890E+03 -0.44771540538E+03  0.13888537127E+04  0.16277231187E+04  0.70000000000E+03 0.  1.
         11    1    4    4    0    0 -0.78126500760E+02  0.12842342479E+03  0.14646640102E+03  0.20987789970E+03  0.51100000000E-03 0.  1.
    -200002    1    4    4    0    0  0.51008962850E+02 -0.14045046450E+02  0.27536341176E+02  0.66763970120E+02  0.30000000000E+02 0.  1.
    -200000    1    3    3    0    0  0.20066531681E+03  0.33333702704E+03  0.45124936610E+03  0.77782140198E+03  0.50000000000E+03 0.  1.
<mgrwt>
<rscale>  0 0.17712994E+04</rscale>
<asrwt>0</asrwt>
<pdfrwt beam="1">  1        2 0.33544945E+00 0.17712994E+04</pdfrwt>
<pdfrwt beam="2">  1       -2 0.47720040E-01 0.17712994E+04</pdfrwt>
<totfact> 0.20914909E+01</totfact>
</mgrwt>
</event>
<event>
 8    2  0.7085383E-010  0.2131447E+04  0.7818608E-02  0.8547516E-01
          2   -1    0    0  501    0  0.00000000000E+00  0.00000000000E+00  0.95163826565E+03  0.95163826565E+03  0.25500000000E-02 0.  1.
         -2   -1    0    0    0  501 -0.00000000000E+00 -0.00000000000E+00 -0.11934851630E+04  0.11934851630E+04  0.25500000000E-02 0. -1.
    -200001    2    1    2    0    0 -0.10171945073E+03  0.40420967232E+03 -0.81263874836E+03  0.11503693671E+04  0.69945381515E+03 0.  0.
   -5000001    2    3    3    0    0 -0.11251978093E+03  0.21455145080E+03 -0.22175312735E+03  0.35335449567E+03  0.13035307432E+03 0.  0.
     200001    1    1    2    0    0  0.10171945073E+03 -0.40420967232E+03  0.57079185101E+03  0.99475406158E+03  0.70000000000E+03 0.  1.
         11    1    4    4    0    0 -0.49090033867E+02  0.17116214011E+03 -0.20051727071E+03  0.26816689856E+03  0.51100000000E-03 0.  1.
    -200002    1    4    4    0    0 -0.63429747059E+02  0.43389310687E+02 -0.21235856636E+02  0.85187597108E+02  0.30000000000E+02 0.  1.
    -200000    1    3    3    0    0  0.10800330195E+02  0.18965822152E+03 -0.59088562101E+03  0.79701487141E+03  0.50000000000E+03 0. -1.
<mgrwt>
<rscale>  0 0.21314466E+04</rscale>
<asrwt>0</asrwt>
<pdfrwt beam="1">  1        2 0.13594832E+00 0.21314466E+04</pdfrwt>
<pdfrwt beam="2">  1       -2 0.17049788E+00 0.21314466E+04</pdfrwt>
<totfact> 0.58758683E+00</totfact>
</mgrwt>
</event>
<event>
 8    2  0.7085383E-010  0.1828308E+04  0.7818608E-02  0.8691389E-01
          2   -1    0    0  501    0  0.00000000000E+00  0.00000000000E+00  0.30126588250E+04  0.30126588250E+04  0.25500000000E-02 0.  1.
         -2   -1    0    0    0  501 -0.00000000000E+00 -0.00000000000E+00 -0.27738885141E+03  0.27738885142E+03  0.25500000000E-02 0. -1.
    -200001    2    1    2    0    0 -0.28287116788E+03 -0.39174147327E+03  0.76450903302E+03  0.11435677291E+04  0.69985399184E+03 0.  0.
   -5000001    2    3    3    0    0 -0.15573916882E+03 -0.92159170743E+02  0.14677436427E+03  0.28478474009E+03  0.16374258067E+03 0.  0.
     200001    1    1    2    0    0  0.28287116788E+03  0.39174147327E+03  0.19707609406E+04  0.21464799474E+04  0.70000000000E+03 0.  1.
         11    1    4    4    0    0 -0.90301315561E+00  0.27991476829E+02  0.64135263784E+02  0.69983357083E+02  0.51100000000E-03 0.  1.
    -200002    1    4    4    0    0 -0.15483615567E+03 -0.12015064757E+03  0.82639100484E+02  0.21480138301E+03  0.30000000000E+02 0.  1.
    -200000    1    3    3    0    0 -0.12713199905E+03 -0.29958230253E+03  0.61773466875E+03  0.85878298897E+03  0.50000000000E+03 0. -1.
<mgrwt>
<rscale>  0 0.18283085E+04</rscale>
<asrwt>0</asrwt>
<pdfrwt beam="1">  1        2 0.43037981E+00 0.18283085E+04</pdfrwt>
<pdfrwt beam="2">  1       -2 0.39626981E-01 0.18283085E+04</pdfrwt>
<totfact> 0.13230031E+01</totfact>
</mgrwt>
</event>
<event>
 8    2  0.7085383E-010  0.1485527E+04  0.7818608E-02  0.8894135E-01
          2   -1    0    0  501    0  0.00000000000E+00  0.00000000000E+00  0.65699493065E+03  0.65699493065E+03  0.25500000000E-02 0.  1.
         -2   -1    0    0    0  501 -0.00000000000E+00 -0.00000000000E+00 -0.83972891272E+03  0.83972891273E+03  0.25500000000E-02 0. -1.
    -200001    2    1    2    0    0 -0.23562497953E+03 -0.43392962473E+02 -0.15988867630E+03  0.75650496482E+03  0.69952361848E+03 0.  0.
   -5000001    2    3    3    0    0 -0.45215378685E+02 -0.63991680934E+02 -0.84733947813E+02  0.21583098125E+03  0.18238367486E+03 0.  0.
     200001    1    1    2    0    0  0.23562497953E+03  0.43392962473E+02 -0.22845305772E+02  0.74021887855E+03  0.70000000000E+03 0.  1.
         11    1    4    4    0    0 -0.27461949930E+02 -0.93854831802E+02  0.21481263674E+02  0.10012159026E+03  0.51100000000E-03 0.  1.
    -200002    1    4    4    0    0 -0.17753428755E+02  0.29863150868E+02 -0.10621521149E+03  0.11570939099E+03  0.30000000000E+02 0.  1.
    -200000    1    3    3    0    0 -0.19040960085E+03  0.20598718461E+02 -0.75154728490E+02  0.54067398357E+03  0.50000000000E+03 0. -1.
<mgrwt>
<rscale>  0 0.14855270E+04</rscale>
<asrwt>0</asrwt>
<pdfrwt beam="1">  1        2 0.93856419E-01 0.14855270E+04</pdfrwt>
<pdfrwt beam="2">  1       -2 0.11996127E+00 0.14855270E+04</pdfrwt>
<totfact> 0.25053677E+01</totfact>
</mgrwt>
</event>
<event>
 8    2  0.7085383E-010  0.1555069E+04  0.7818608E-02  0.8848637E-01
         -2   -1    0    0    0  501 -0.00000000000E+00  0.00000000000E+00  0.60205742733E+03  0.60205742734E+03  0.25500000000E-02 0. -1.
          2   -1    0    0  501    0  0.00000000000E+00 -0.00000000000E+00 -0.10041562239E+04  0.10041562239E+04  0.25500000000E-02 0.  1.
    -200001    2    1    2    0    0 -0.83228999166E+02 -0.32660817214E+03 -0.22802033636E+03  0.81003322273E+03  0.70040030249E+03 0.  0.
   -5000001    2    3    3    0    0  0.39801583725E+02 -0.11255860706E+03 -0.11490706437E+03  0.24104433625E+03  0.17505751200E+03 0.  0.
     200001    1    1    2    0    0  0.83228999166E+02  0.32660817214E+03 -0.17407846019E+03  0.79618042849E+03  0.70000000000E+03 0.  1.
         11    1    4    4    0    0 -0.21836691368E+02 -0.13714803178E+03 -0.70501704309E+02  0.15574631303E+03  0.51100000000E-03 0.  1.
    -200002    1    4    4    0    0  0.61638275093E+02  0.24589424716E+02 -0.44405360060E+02  0.85298023226E+02  0.30000000000E+02 0.  1.
    -200000    1    3    3    0    0 -0.12303058289E+03 -0.21404956508E+03 -0.11311327200E+03  0.56898888648E+03  0.50000000000E+03 0. -1.
<mgrwt>
<rscale>  0 0.15550688E+04</rscale>
<asrwt>0</asrwt>
<pdfrwt beam="1">  1        2 0.14345089E+00 0.15550688E+04</pdfrwt>
<pdfrwt beam="2">  1       -2 0.86008204E-01 0.15550688E+04</pdfrwt>
<totfact> 0.31582650E+01</totfact>
</mgrwt>
</event>
<event>
 8    2  0.7085383E-010  0.1748432E+04  0.7818608E-02  0.8734214E-01
          2   -1    0    0  501    0  0.00000000000E+00  0.00000000000E+00  0.95922287429E+03  0.95922287430E+03  0.25500000000E-02 0.  1.
         -2   -1    0    0    0  501 -0.00000000000E+00 -0.00000000000E+00 -0.79674245677E+03  0.79674245678E+03  0.25500000000E-02 0. -1.
    -200001    2    1    2    0    0  0.74929855649E+02 -0.33885766939E+02  0.60064009844E+03  0.92605772510E+03  0.70003689466E+03 0.  0.
   -5000001    2    3    3    0    0 -0.10103114062E+03 -0.56539241599E+02  0.12720980288E+03  0.21499394675E+03  0.12898095198E+03 0.  0.
     200001    1    1    2    0    0 -0.74929855649E+02  0.33885766939E+02 -0.43815968092E+03  0.82990760597E+03  0.70000000000E+03 0. -1.
         11    1    4    4    0    0 -0.10051580856E+03 -0.84639404703E+02  0.87740275650E+02  0.15800510299E+03  0.51100000000E-03 0.  1.
    -200002    1    4    4    0    0 -0.51533206514E+00  0.28100163104E+02  0.39469527235E+02  0.56988843766E+02  0.30000000000E+02 0.  1.
    -200000    1    3    3    0    0  0.17596099627E+03  0.22653474660E+02  0.47343029556E+03  0.71106377835E+03  0.50000000000E+03 0.  1.
<mgrwt>
<rscale>  0 0.17484320E+04</rscale>
<asrwt>0</asrwt>
<pdfrwt beam="1">  1        2 0.13703184E+00 0.17484320E+04</pdfrwt>
<pdfrwt beam="2">  1       -2 0.11382035E+00 0.17484320E+04</pdfrwt>
<totfact> 0.17124672E+01</totfact>
</mgrwt>
</event>
<event>
 8    2  0.7085383E-010  0.2175410E+04  0.7818608E-02  0.8528733E-01
         -2   -1    0    0    0  501 -0.00000000000E+00  0.00000000000E+00  0.69710503044E+03  0.69710503045E+03  0.25500000000E-02 0. -1.
          2   -1    0    0  501    0  0.00000000000E+00 -0.00000000000E+00 -0.16971647643E+04  0.16971647643E+04  0.25500000000E-02 0.  1.
    -200001    2    1    2    0    0  0.29635918807E+03 -0.56589644102E+03  0.92334683617E+02  0.94810482710E+03  0.69448507476E+03 0.  0.
   -5000001    2    3    3    0    0  0.78307183650E+02 -0.14677543764E+03  0.45259503010E+02  0.25859401157E+03  0.19273659772E+03 0.  0.
     200001    1    1    2    0    0 -0.29635918807E+03  0.56589644102E+03 -0.10923944175E+04  0.14461649676E+04  0.70000000000E+03 0.  1.
         11    1    4    4    0    0  0.71032622628E+02 -0.16980639880E+03  0.85446835173E+02  0.20293104295E+03  0.51100000000E-03 0.  1.
    -200002    1    4    4    0    0  0.72745610211E+01  0.23030961156E+02 -0.40187332163E+02  0.55662968625E+02  0.30000000000E+02 0.  1.
    -200000    1    3    3    0    0  0.21805200442E+03 -0.41912100338E+03  0.47075180607E+02  0.68951081553E+03  0.50000000000E+03 0. -1.
<mgrwt>
<rscale>  0 0.21754099E+04</rscale>
<asrwt>0</asrwt>
<pdfrwt beam="1">  1        2 0.24245211E+00 0.21754099E+04</pdfrwt>
<pdfrwt beam="2">  1       -2 0.99586434E-01 0.21754099E+04</pdfrwt>
<totfact> 0.88358148E+00</totfact>
</mgrwt>
</event>
<event>
 8    2  0.7085383E-010  0.2061537E+04  0.7818608E-02  0.8578378E-01
          2   -1    0    0  501    0  0.00000000000E+00  0.00000000000E+00  0.19117131694E+04  0.19117131694E+04  0.25500000000E-02 0.  1.
         -2   -1    0    0    0  501 -0.00000000000E+00 -0.00000000000E+00 -0.55577591828E+03  0.55577591829E+03  0.25500000000E-02 0. -1.
    -200001    2    1    2    0    0 -0.17557174238E+03 -0.37479553645E+03 -0.80309939976E+02  0.81700336379E+03  0.69981974759E+03 0.  0.
   -5000001    2    3    3    0    0 -0.10881252681E+03 -0.17128761610E+03  0.43679649973E+02  0.25910939096E+03  0.15508111181E+03 0.  0.
     200001    1    1    2    0    0  0.17557174238E+03  0.37479553645E+03  0.14362471911E+04  0.16504857239E+04  0.70000000000E+03 0.  1.
         11    1    4    4    0    0  0.32272544484E+02 -0.20355713652E+02  0.32361814848E+02  0.50031582688E+02  0.51100000000E-03 0.  1.
    -200002    1    4    4    0    0 -0.14108507129E+03 -0.15093190245E+03  0.11317835125E+02  0.20907780827E+03  0.30000000000E+02 0.  1.
    -200000    1    3    3    0    0 -0.66759215574E+02 -0.20350792035E+03 -0.12398958995E+03  0.55789397283E+03  0.50000000000E+03 0. -1.
<mgrwt>
<rscale>  0 0.20615374E+04</rscale>
<asrwt>0</asrwt>
<pdfrwt beam="1">  1        2 0.27310188E+00 0.20615374E+04</pdfrwt>
<pdfrwt beam="2">  1       -2 0.79396560E-01 0.20615374E+04</pdfrwt>
<totfact> 0.11628390E+01</totfact>
</mgrwt>
</event>
<event>
 8    2  0.7085383E-010  0.1484965E+04  0.7818608E-02  0.8894513E-01
         -2   -1    0    0    0  501 -0.00000000000E+00  0.00000000000E+00  0.70452702882E+03  0.70452702883E+03  0.25500000000E-02 0. -1.
          2   -1    0    0  501    0  0.00000000000E+00 -0.00000000000E+00 -0.78248263211E+03  0.78248263211E+03  0.25500000000E-02 0.  1.
    -200001    2    1    2    0    0 -0.13854051178E+02 -0.19025163090E+03  0.12426660882E+03  0.73382877904E+03  0.69762086342E+03 0.  0.
   -5000001    2    3    3    0    0 -0.90561491874E+01 -0.10332260010E+03  0.80370462078E+02  0.22441092701E+03  0.18205295784E+03 0.  0.
     200001    1    1    2    0    0  0.13854051178E+02  0.19025163090E+03 -0.20222221210E+03  0.75318088190E+03  0.70000000000E+03 0.  1.
         11    1    4    4    0    0  0.43649955024E+02 -0.33035476931E+02  0.11336305421E+03  0.12588821775E+03  0.51100000000E-03 0.  1.
    -200002    1    4    4    0    0 -0.52706104211E+02 -0.70287123172E+02 -0.32992592129E+02  0.98522709262E+02  0.30000000000E+02 0.  1.
    -200000    1    3    3    0    0 -0.47979019904E+01 -0.86929030800E+02  0.43896146738E+02  0.50941785202E+03  0.50000000000E+03 0. -1.
<mgrwt>
<rscale>  0 0.14849649E+04</rscale>
<asrwt>0</asrwt>
<pdfrwt beam="1">  1        2 0.11178323E+00 0.14849649E+04</pdfrwt>
<pdfrwt beam="2">  1       -2 0.10064672E+00 0.14849649E+04</pdfrwt>
<totfact> 0.30839506E+01</totfact>
</mgrwt>
</event>
<event>
 8    2  0.7085383E-010  0.2271861E+04  0.7818608E-02  0.8489099E-01
         -2   -1    0    0    0  501 -0.00000000000E+00  0.00000000000E+00  0.37695052848E+03  0.37695052849E+03  0.25500000000E-02 0. -1.
          2   -1    0    0  501    0  0.00000000000E+00 -0.00000000000E+00 -0.34230973147E+04  0.34230973147E+04  0.25500000000E-02 0.  1.
    -200001    2    1    2    0    0 -0.12659500531E+03  0.76053947249E+03 -0.22802549714E+04  0.25073619352E+04  0.70203600702E+03 0.  0.
   -5000001    2    3    3    0    0 -0.93270128858E+01  0.18180579162E+03 -0.47258091774E+03  0.54105322609E+03  0.19043510868E+03 0.  0.
     200001    1    1    2    0    0  0.12659500531E+03 -0.76053947249E+03 -0.76589181484E+03  0.12926859080E+04  0.70000000000E+03 0. -1.
         11    1    4    4    0    0  0.69856087872E+02  0.64827697661E+02 -0.30647562670E+03  0.32095141869E+03  0.51100000000E-03 0.  1.
    -200002    1    4    4    0    0 -0.79183100757E+02  0.11697809395E+03 -0.16610529104E+03  0.22010180741E+03  0.30000000000E+02 0.  1.
    -200000    1    3    3    0    0 -0.11726799242E+03  0.57873368087E+03 -0.18076740536E+04  0.19663087091E+04  0.50000000000E+03 0. -1.
<mgrwt>
<rscale>  0 0.22718612E+04</rscale>
<asrwt>0</asrwt>
<pdfrwt beam="1">  1        2 0.48901388E+00 0.22718612E+04</pdfrwt>
<pdfrwt beam="2">  1       -2 0.53850077E-01 0.22718612E+04</pdfrwt>
<totfact> 0.39741824E+00</totfact>
</mgrwt>
</event>
<event>
 8    2  0.7085383E-010  0.1918466E+04  0.7818608E-02  0.8645719E-01
         -2   -1    0    0    0  501 -0.00000000000E+00  0.00000000000E+00  0.58901593802E+03  0.58901593802E+03  0.25500000000E-02 0. -1.
          2   -1    0    0  501    0  0.00000000000E+00 -0.00000000000E+00 -0.15621444069E+04  0.15621444069E+04  0.25500000000E-02 0.  1.
    -200001    2    1    2    0    0 -0.10582895351E+03 -0.22359968826E+03 -0.11676575922E+04  0.13836721250E+04  0.69994836158E+03 0.  0.
   -5000001    2    3    3    0    0  0.26915397618E+02 -0.95620604078E+02 -0.46876263069E+03  0.50477857287E+03  0.15873016456E+03 0.  0.
     200001    1    1    2    0    0  0.10582895351E+03  0.22359968826E+03  0.19452912327E+03  0.76748821997E+03  0.70000000000E+03 0. -1.
         11    1    4    4    0    0 -0.21718556203E+02  0.29486542897E+02 -0.38801439233E+02  0.53354508548E+02  0.51100000000E-03 0.  1.
    -200002    1    4    4    0    0  0.48633953821E+02 -0.12510714698E+03 -0.42996119146E+03  0.45142406432E+03  0.30000000000E+02 0.  1.
    -200000    1    3    3    0    0 -0.13274435113E+03 -0.12797908418E+03 -0.69889496150E+03  0.87889355212E+03  0.50000000000E+03 0.  1.
<mgrwt>
<rscale>  0 0.19184660E+04</rscale>
<asrwt>0</asrwt>
<pdfrwt beam="1">  1        2 0.22316349E+00 0.19184660E+04</pdfrwt>
<pdfrwt beam="2">  1       -2 0.84145134E-01 0.19184660E+04</pdfrwt>
<totfact> 0.15679827E+01</totfact>
</mgrwt>
</event>
<event>
 8    2  0.7085383E-010  0.2504607E+04  0.7818608E-02  0.8401346E-01
          2   -1    0    0  501    0  0.00000000000E+00  0.00000000000E+00  0.34616610931E+04  0.34616610931E+04  0.25500000000E-02 0.  1.
         -2   -1    0    0    0  501 -0.00000000000E+00 -0.00000000000E+00 -0.45303812945E+03  0.45303812946E+03  0.25500000000E-02 0. -1.
    -200001    2    1    2    0    0 -0.51990601308E+03  0.52214869164E+03  0.36118796241E+03  0.10788830077E+04  0.70042150275E+03 0.  0.
   -5000001    2    3    3    0    0 -0.14561388926E+03  0.16377537018E+03 -0.25140060694E+02  0.26170776768E+03  0.14083023960E+03 0.  0.
     200001    1    1    2    0    0  0.51990601308E+03 -0.52214869164E+03  0.26474350013E+04  0.28358162149E+04  0.70000000000E+03 0.  1.
         11    1    4    4    0    0 -0.10812821704E+03  0.16147435090E+03  0.20515369633E+02  0.19541381147E+03  0.51100000000E-03 0.  1.
    -200002    1    4    4    0    0 -0.37485672220E+02  0.23010192809E+01 -0.45655430328E+02  0.66293956210E+02  0.30000000000E+02 0.  1.
    -200000    1    3    3    0    0 -0.37429212382E+03  0.35837332145E+03  0.38632802310E+03  0.81717524003E+03  0.50000000000E+03 0. -1.
<mgrwt>
<rscale>  0 0.25046073E+04</rscale>
<asrwt>0</asrwt>
<pdfrwt beam="1">  1        2 0.49452303E+00 0.25046073E+04</pdfrwt>
<pdfrwt beam="2">  1       -2 0.64719731E-01 0.25046073E+04</pdfrwt>
<totfact> 0.25060097E+00</totfact>
</mgrwt>
</event>
<event>
 8    2  0.7085383E-010  0.1589785E+04  0.7818608E-02  0.8826848E-01
         -2   -1    0    0    0  501 -0.00000000000E+00  0.00000000000E+00  0.57157589407E+03  0.57157589408E+03  0.25500000000E-02 0. -1.
          2   -1    0    0  501    0  0.00000000000E+00 -0.00000000000E+00 -0.11054590605E+04  0.11054590605E+04  0.25500000000E-02 0.  1.
    -200001    2    1    2    0    0  0.30001631081E+03 -0.31630828124E+02 -0.50775782351E+03  0.91434705674E+03  0.69799873695E+03 0.  0.
   -5000001    2    3    3    0    0  0.11680244390E+03 -0.17096752494E+02 -0.28627697794E+03  0.33743083636E+03  0.13405204728E+03 0.  0.
     200001    1    1    2    0    0 -0.30001631081E+03  0.31630828124E+02 -0.26125342960E+02  0.76268789789E+03  0.70000000000E+03 0. -1.
         11    1    4    4    0    0 -0.20733826143E+02 -0.26724928760E+02 -0.31651350235E+02  0.46324090231E+02  0.51100000000E-03 0.  1.
    -200002    1    4    4    0    0  0.13753627004E+03  0.96281762665E+01 -0.25462562770E+03  0.29110674613E+03  0.30000000000E+02 0.  1.
    -200000    1    3    3    0    0  0.18321386691E+03 -0.14534075630E+02 -0.22148084557E+03  0.57691622038E+03  0.50000000000E+03 0.  1.
<mgrwt>
<rscale>  0 0.15897846E+04</rscale>
<asrwt>0</asrwt>
<pdfrwt beam="1">  1        2 0.15792272E+00 0.15897846E+04</pdfrwt>
<pdfrwt beam="2">  1       -2 0.81653700E-01 0.15897846E+04</pdfrwt>
<totfact> 0.30792130E+01</totfact>
</mgrwt>
</event>
<event>
 8    2  0.7085383E-010  0.1562464E+04  0.7818608E-02  0.8843945E-01
          2   -1    0    0  501    0  0.00000000000E+00  0.00000000000E+00  0.13175889511E+04  0.13175889511E+04  0.25500000000E-02 0.  1.
         -2   -1    0    0    0  501 -0.00000000000E+00 -0.00000000000E+00 -0.46321237579E+03  0.46321237580E+03  0.25500000000E-02 0. -1.
    -200001    2    1    2    0    0 -0.24437742756E+03  0.18666686831E+03  0.60995288166E+03  0.97811347420E+03  0.70007042770E+03 0.  0.
   -5000001    2    3    3    0    0 -0.13987544387E+03  0.47740462230E+02  0.22361617739E+03  0.32276832852E+03  0.17980797417E+03 0.  0.
     200001    1    1    2    0    0  0.24437742756E+03 -0.18666686831E+03  0.24442369362E+03  0.80268785267E+03  0.70000000000E+03 0.  1.
         11    1    4    4    0    0  0.15972259100E+02 -0.25315565370E+02  0.11085261483E+03  0.11482287719E+03  0.51100000000E-03 0.  1.
    -200002    1    4    4    0    0 -0.15584770297E+03  0.73056027599E+02  0.11276356256E+03  0.20794545133E+03  0.30000000000E+02 0.  1.
    -200000    1    3    3    0    0 -0.10450198370E+03  0.13892640608E+03  0.38633670427E+03  0.65534514568E+03  0.50000000000E+03 0.  1.
<mgrwt>
<rscale>  0 0.15624641E+04</rscale>
<asrwt>0</asrwt>
<pdfrwt beam="1">  1        2 0.18822699E+00 0.15624641E+04</pdfrwt>
<pdfrwt beam="2">  1       -2 0.66173196E-01 0.15624641E+04</pdfrwt>
<totfact> 0.37153933E+01</totfact>
</mgrwt>
</event>
<event>
 8    2  0.7085383E-010  0.1788957E+04  0.7818608E-02  0.8712194E-01
         -2   -1    0    0    0  501 -0.00000000000E+00  0.00000000000E+00  0.37004780852E+03  0.37004780852E+03  0.25500000000E-02 0. -1.
          2   -1    0    0  501    0  0.00000000000E+00 -0.00000000000E+00 -0.21621314033E+04  0.21621314033E+04  0.25500000000E-02 0.  1.
    -200001    2    1    2    0    0  0.25416084313E+03  0.41089955268E+03 -0.50575674890E+03  0.99007904288E+03  0.70073564597E+03 0.  0.
   -5000001    2    3    3    0    0  0.96623149723E+02  0.10388630565E+03 -0.23510812732E+03  0.32500315619E+03  0.17384712376E+03 0.  0.
     200001    1    1    2    0    0 -0.25416084313E+03 -0.41089955268E+03 -0.12863268458E+04  0.15421001689E+04  0.70000000000E+03 0. -1.
         11    1    4    4    0    0  0.11564992415E+03  0.95501015638E+02 -0.88996097434E+02  0.17440084376E+03  0.51100000000E-03 0.  1.
    -200002    1    4    4    0    0 -0.19026774430E+02  0.83852900154E+01 -0.14611202989E+03  0.15060231244E+03  0.30000000000E+02 0.  1.
    -200000    1    3    3    0    0  0.15753769341E+03  0.30701324703E+03 -0.27064862158E+03  0.66507588669E+03  0.50000000000E+03 0. -1.
<mgrwt>
<rscale>  0 0.17889572E+04</rscale>
<asrwt>0</asrwt>
<pdfrwt beam="1">  1        2 0.30887591E+00 0.17889572E+04</pdfrwt>
<pdfrwt beam="2">  1       -2 0.52863974E-01 0.17889572E+04</pdfrwt>
<totfact> 0.21159210E+01</totfact>
</mgrwt>
</event>
<event>
 8    2  0.7085383E-010  0.1738693E+04  0.7818608E-02  0.8739599E-01
         -2   -1    0    0    0  501 -0.00000000000E+00  0.00000000000E+00  0.19004272152E+03  0.19004272154E+03  0.25500000000E-02 0. -1.
          2   -1    0    0  501    0  0.00000000000E+00 -0.00000000000E+00 -0.39768098386E+04  0.39768098386E+04  0.25500000000E-02 0.  1.
    -200001    2    1    2    0    0  0.39854509194E+03  0.20764295892E+03 -0.12787780271E+04  0.15245121082E+04  0.69778946443E+03 0.  0.
   -5000001    2    3    3    0    0  0.84569300113E+02  0.12176539260E+03 -0.34737043586E+03  0.41840367982E+03  0.18004622246E+03 0.  0.
     200001    1    1    2    0    0 -0.39854509194E+03 -0.20764295892E+03 -0.25079890900E+04  0.26423404520E+04  0.70000000000E+03 0.  1.
         11    1    4    4    0    0  0.11111695528E+03  0.14809786353E+03 -0.28167414538E+03  0.33707607317E+03  0.51100000000E-03 0.  1.
    -200002    1    4    4    0    0 -0.26547655162E+02 -0.26332470932E+02 -0.65696290484E+02  0.81327606650E+02  0.30000000000E+02 0.  1.
    -200000    1    3    3    0    0  0.31397579182E+03  0.85877566321E+02 -0.93140759126E+03  0.11061084284E+04  0.50000000000E+03 0. -1.
<mgrwt>
<rscale>  0 0.17386935E+04</rscale>
<asrwt>0</asrwt>
<pdfrwt beam="1">  1        2 0.56811564E+00 0.17386935E+04</pdfrwt>
<pdfrwt beam="2">  1       -2 0.27148963E-01 0.17386935E+04</pdfrwt>
<totfact> 0.70113900E+00</totfact>
</mgrwt>
</event>
<event>
 8    2  0.7085383E-010  0.1585579E+04  0.7818608E-02  0.8829457E-01
          2   -1    0    0  501    0  0.00000000000E+00  0.00000000000E+00  0.14766795678E+04  0.14766795678E+04  0.25500000000E-02 0.  1.
         -2   -1    0    0    0  501 -0.00000000000E+00 -0.00000000000E+00 -0.42562739968E+03  0.42562739969E+03  0.25500000000E-02 0. -1.
    -200001    2    1    2    0    0  0.12956481774E+03 -0.10158482707E+03  0.92840283199E+03  0.11728212728E+04  0.69747501774E+03 0.  0.
   -5000001    2    3    3    0    0  0.56506971558E+02  0.57895441619E+02  0.13322921189E+03  0.21727300551E+03  0.15136913830E+03 0.  0.
     200001    1    1    2    0    0 -0.12956481774E+03  0.10158482707E+03  0.12264933610E+03  0.72948569467E+03  0.70000000000E+03 0. -1.
         11    1    4    4    0    0 -0.81332877009E+01  0.80932368788E+02  0.11383440114E+03  0.13990879018E+03  0.51100000000E-03 0.  1.
    -200002    1    4    4    0    0  0.64640259259E+02 -0.23036927169E+02  0.19394810757E+02  0.77364215337E+02  0.30000000000E+02 0.  1.
    -200000    1    3    3    0    0  0.73057846184E+02 -0.15948026869E+03  0.79517362010E+03  0.95554826727E+03  0.50000000000E+03 0.  1.
<mgrwt>
<rscale>  0 0.15855791E+04</rscale>
<asrwt>0</asrwt>
<pdfrwt beam="1">  1        2 0.21095422E+00 0.15855791E+04</pdfrwt>
<pdfrwt beam="2">  1       -2 0.60803914E-01 0.15855791E+04</pdfrwt>
<totfact> 0.36432210E+01</totfact>
</mgrwt>
</event>
<event>
 8    2  0.7085383E-010  0.1555761E+04  0.7818608E-02  0.8848196E-01
          2   -1    0    0  501    0  0.00000000000E+00  0.00000000000E+00  0.86129591468E+03  0.86129591469E+03  0.25500000000E-02 0.  1.
         -2   -1    0    0    0  501 -0.00000000000E+00 -0.00000000000E+00 -0.70254387840E+03  0.70254387840E+03  0.25500000000E-02 0. -1.
    -200001    2    1    2    0    0  0.33077582092E+03  0.52357180463E+02  0.13417946809E+03  0.78746505808E+03  0.69995940597E+03 0.  0.
   -5000001    2    3    3    0    0  0.11417510350E+03 -0.68014633224E+02  0.12943058557E+03  0.22940789596E+03  0.13495837008E+03 0.  0.
     200001    1    1    2    0    0 -0.33077582092E+03 -0.52357180463E+02  0.24572568202E+02  0.77637473501E+03  0.70000000000E+03 0. -1.
         11    1    4    4    0    0 -0.12094893854E+02  0.24830391692E+02  0.76122155696E+01  0.28649269363E+02  0.51100000000E-03 0.  1.
    -200002    1    4    4    0    0  0.12626999735E+03 -0.92845024916E+02  0.12181837000E+03  0.20075862659E+03  0.30000000000E+02 0.  1.
    -200000    1    3    3    0    0  0.21660071742E+03  0.12037181369E+03  0.47488825165E+01  0.55805716213E+03  0.50000000000E+03 0.  1.
<mgrwt>
<rscale>  0 0.15557611E+04</rscale>
<asrwt>0</asrwt>
<pdfrwt beam="1">  1        2 0.12304227E+00 0.15557611E+04</pdfrwt>
<pdfrwt beam="2">  1       -2 0.10036341E+00 0.15557611E+04</pdfrwt>
<totfact> 0.27246935E+01</totfact>
</mgrwt>
</event>
<event>
 8    2  0.7085383E-010  0.1632028E+04  0.7818608E-02  0.8801110E-01
         -2   -1    0    0    0  501 -0.00000000000E+00  0.00000000000E+00  0.28061713977E+03  0.28061713978E+03  0.25500000000E-02 0. -1.
          2   -1    0    0  501    0  0.00000000000E+00 -0.00000000000E+00 -0.23729095758E+04  0.23729095759E+04  0.25500000000E-02 0.  1.
    -200001    2    1    2    0    0 -0.20335324957E+02 -0.35508325619E+03 -0.68583811869E+03  0.10427469693E+04  0.70032112112E+03 0.  0.
   -5000001    2    3    3    0    0 -0.48642311478E+01 -0.61375673372E+02 -0.24934168575E+03  0.31677683568E+03  0.18543368988E+03 0.  0.
     200001    1    1    2    0    0  0.20335324957E+02  0.35508325619E+03 -0.14064543174E+04  0.16107797463E+04  0.70000000000E+03 0.  1.
         11    1    4    4    0    0 -0.36907944578E+02 -0.48656407540E+02 -0.26226675217E+03  0.26928329258E+03  0.51100000000E-03 0.  1.
    -200002    1    4    4    0    0  0.32043713431E+02 -0.12719265832E+02  0.12925066426E+02  0.47493543096E+02  0.30000000000E+02 0.  1.
    -200000    1    3    3    0    0 -0.15471093810E+02 -0.29370758282E+03 -0.43649643294E+03  0.72597013363E+03  0.50000000000E+03 0. -1.
<mgrwt>
<rscale>  0 0.16320283E+04</rscale>
<asrwt>0</asrwt>
<pdfrwt beam="1">  1        2 0.33898707E+00 0.16320283E+04</pdfrwt>
<pdfrwt beam="2">  1       -2 0.40088164E-01 0.16320283E+04</pdfrwt>
<totfact> 0.29035939E+01</totfact>
</mgrwt>
</event>
<event>
 8    2  0.7085383E-010  0.1593142E+04  0.7818608E-02  0.8824772E-01
         -2   -1    0    0    0  501 -0.00000000000E+00  0.00000000000E+00  0.83133282318E+03  0.83133282319E+03  0.25500000000E-02 0. -1.
          2   -1    0    0  501    0  0.00000000000E+00 -0.00000000000E+00 -0.76326267133E+03  0.76326267133E+03  0.25500000000E-02 0.  1.
    -200001    2    1    2    0    0 -0.22778766439E+03  0.28915242109E+03  0.12705410650E+03  0.80151576991E+03  0.70056294561E+03 0.  0.
   -5000001    2    3    3    0    0 -0.74191690906E+02  0.11252770559E+03  0.58807829295E+01  0.23629812374E+03  0.19399826842E+03 0.  0.
     200001    1    1    2    0    0  0.22778766439E+03 -0.28915242109E+03 -0.58983954645E+02  0.79307972461E+03  0.70000000000E+03 0. -1.
         11    1    4    4    0    0 -0.30645519082E+00 -0.49087367375E+02 -0.22254410743E+02  0.53897331552E+02  0.51100000000E-03 0.  1.
    -200002    1    4    4    0    0 -0.73885235715E+02  0.16161507297E+03  0.28135193673E+02  0.18240079219E+03  0.30000000000E+02 0.  1.
    -200000    1    3    3    0    0 -0.15359597349E+03  0.17662471550E+03  0.12117332357E+03  0.56521764617E+03  0.50000000000E+03 0. -1.
<mgrwt>
<rscale>  0 0.15931419E+04</rscale>
<asrwt>0</asrwt>
<pdfrwt beam="1">  1        2 0.10903752E+00 0.15931419E+04</pdfrwt>
<pdfrwt beam="2">  1       -2 0.11876183E+00 0.15931419E+04</pdfrwt>
<totfact> 0.21155221E+01</totfact>
</mgrwt>
</event>
<event>
 8    2  0.7085383E-010  0.2232331E+04  0.7818608E-02  0.8505091E-01
         -2   -1    0    0    0  501 -0.00000000000E+00  0.00000000000E+00  0.46010238091E+03  0.46010238092E+03  0.25500000000E-02 0. -1.
          2   -1    0    0  501    0  0.00000000000E+00 -0.00000000000E+00 -0.27077133626E+04  0.27077133626E+04  0.25500000000E-02 0.  1.
    -200001    2    1    2    0    0  0.12126989165E+03 -0.83264555447E+03 -0.81505050296E+03  0.13649750597E+04  0.70060301545E+03 0.  0.
   -5000001    2    3    3    0    0 -0.37257882134E+02 -0.26134729348E+03 -0.25560515984E+03  0.40868438737E+03  0.17888089096E+03 0.  0.
     200001    1    1    2    0    0 -0.12126989165E+03  0.83264555447E+03 -0.14325604787E+04  0.18028406838E+04  0.70000000000E+03 0.  1.
         11    1    4    4    0    0 -0.38866706125E+01 -0.54854499660E+02  0.22490691408E+02  0.59413412136E+02  0.51100000000E-03 0.  1.
    -200002    1    4    4    0    0 -0.33371211521E+02 -0.20649279382E+03 -0.27809585125E+03  0.34927097523E+03  0.30000000000E+02 0.  1.
    -200000    1    3    3    0    0  0.15852777378E+03 -0.57129826099E+03 -0.55944534312E+03  0.95629067234E+03  0.50000000000E+03 0.  1.
<mgrwt>
<rscale>  0 0.22323309E+04</rscale>
<asrwt>0</asrwt>
<pdfrwt beam="1">  1        2 0.38681619E+00 0.22323309E+04</pdfrwt>
<pdfrwt beam="2">  1       -2 0.65728913E-01 0.22323309E+04</pdfrwt>
<totfact> 0.66644421E+00</totfact>
</mgrwt>
</event>
<event>
 8    2  0.7085383E-010  0.2188639E+04  0.7818608E-02  0.8523172E-01
          2   -1    0    0  501    0  0.00000000000E+00  0.00000000000E+00  0.26634586101E+04  0.26634586101E+04  0.25500000000E-02 0.  1.
         -2   -1    0    0    0  501 -0.00000000000E+00 -0.00000000000E+00 -0.44961650063E+03  0.44961650064E+03  0.25500000000E-02 0. -1.
    -200001    2    1    2    0    0 -0.11647013926E+03 -0.42737687323E+03  0.21235934842E+04  0.22797917859E+04  0.70113124005E+03 0.  0.
   -5000001    2    3    3    0    0  0.95865323881E+01 -0.83833196868E+02  0.76560413498E+03  0.78712718371E+03  0.16217153057E+03 0.  0.
     200001    1    1    2    0    0  0.11647013926E+03  0.42737687323E+03  0.90248625282E+02  0.83328332485E+03  0.70000000000E+03 0. -1.
         11    1    4    4    0    0 -0.34778017900E+02 -0.10700217568E+03  0.62245126152E+03  0.63253817995E+03  0.51100000000E-03 0.  1.
    -200002    1    4    4    0    0  0.44364550288E+02  0.23168978807E+02  0.14315287346E+03  0.15458900375E+03  0.30000000000E+02 0. -1.
    -200000    1    3    3    0    0 -0.12605667165E+03 -0.34354367637E+03  0.13579893492E+04  0.14926646022E+04  0.50000000000E+03 0.  1.
<mgrwt>
<rscale>  0 0.21886388E+04</rscale>
<asrwt>0</asrwt>
<pdfrwt beam="1">  1        2 0.38049408E+00 0.21886388E+04</pdfrwt>
<pdfrwt beam="2">  1       -2 0.64230929E-01 0.21886388E+04</pdfrwt>
<totfact> 0.74240411E+00</totfact>
</mgrwt>
</event>
<event>
 8    2  0.7085383E-010  0.1688040E+04  0.7818608E-02  0.8768215E-01
         -2   -1    0    0    0  501 -0.00000000000E+00  0.00000000000E+00  0.95545906669E+03  0.95545906669E+03  0.25500000000E-02 0. -1.
          2   -1    0    0  501    0  0.00000000000E+00 -0.00000000000E+00 -0.74557892398E+03  0.74557892398E+03  0.25500000000E-02 0.  1.
    -200001    2    1    2    0    0 -0.27396038970E+03  0.57620468644E+02  0.48858680437E+03  0.89726450469E+03  0.69856432234E+03 0.  0.
   -5000001    2    3    3    0    0  0.19037856040E+02 -0.45937526127E+02  0.20232883031E+03  0.24265327808E+03  0.12438231997E+03 0.  0.
     200001    1    1    2    0    0  0.27396038970E+03 -0.57620468644E+02 -0.27870666166E+03  0.80377348599E+03  0.70000000000E+03 0.  1.
         11    1    4    4    0    0 -0.58662548279E+01 -0.81159236094E+02  0.12004076834E+03  0.14502075924E+03  0.51100000000E-03 0.  1.
    -200002    1    4    4    0    0  0.24904110868E+02  0.35221709967E+02  0.82288061972E+02  0.97632518836E+02  0.30000000000E+02 0.  1.
    -200000    1    3    3    0    0 -0.29299824574E+03  0.10355799477E+03  0.28625797406E+03  0.65461122661E+03  0.50000000000E+03 0. -1.
<mgrwt>
<rscale>  0 0.16880405E+04</rscale>
<asrwt>0</asrwt>
<pdfrwt beam="1">  1        2 0.10651127E+00 0.16880405E+04</pdfrwt>
<pdfrwt beam="2">  1       -2 0.13649415E+00 0.16880405E+04</pdfrwt>
<totfact> 0.15230738E+01</totfact>
</mgrwt>
</event>
<event>
 8    2  0.7085383E-010  0.2096702E+04  0.7818608E-02  0.8562698E-01
         -2   -1    0    0    0  501 -0.00000000000E+00  0.00000000000E+00  0.45021281254E+03  0.45021281255E+03  0.25500000000E-02 0. -1.
          2   -1    0    0  501    0  0.00000000000E+00 -0.00000000000E+00 -0.24411562878E+04  0.24411562878E+04  0.25500000000E-02 0.  1.
    -200001    2    1    2    0    0  0.38209544061E+02  0.37762837223E+03 -0.19357435230E+04  0.20931772741E+04  0.70016066521E+03 0.  0.
   -5000001    2    3    3    0    0 -0.85224728002E+02  0.86730071837E+02 -0.44232291084E+03  0.48688870551E+03  0.16317381676E+03 0.  0.
     200001    1    1    2    0    0 -0.38209544061E+02 -0.37762837223E+03 -0.55199952236E+02  0.79819182625E+03  0.70000000000E+03 0. -1.
         11    1    4    4    0    0 -0.86054876115E+02  0.93889118548E+02 -0.16791227855E+03  0.21074900136E+03  0.51100000000E-03 0.  1.
    -200002    1    4    4    0    0  0.83014811259E+00 -0.71590467112E+01 -0.27441063229E+03  0.27613970415E+03  0.30000000000E+02 0.  1.
    -200000    1    3    3    0    0  0.12343427206E+03  0.29089830040E+03 -0.14934206122E+04  0.16062885686E+04  0.50000000000E+03 0.  1.
<mgrwt>
<rscale>  0 0.20967020E+04</rscale>
<asrwt>0</asrwt>
<pdfrwt beam="1">  1        2 0.34873661E+00 0.20967020E+04</pdfrwt>
<pdfrwt beam="2">  1       -2 0.64316117E-01 0.20967020E+04</pdfrwt>
<totfact> 0.97856268E+00</totfact>
</mgrwt>
</event>
<event>
 8    2  0.7085383E-010  0.1461545E+04  0.7818608E-02  0.8910436E-01
          2   -1    0    0  501    0  0.00000000000E+00  0.00000000000E+00  0.21235371104E+04  0.21235371104E+04  0.25500000000E-02 0.  1.
         -2   -1    0    0    0  501 -0.00000000000E+00 -0.00000000000E+00 -0.25148061941E+03  0.25148061942E+03  0.25500000000E-02 0. -1.
    -200001    2    1    2    0    0 -0.17282569127E+03 -0.90540842458E+02  0.81086380990E+03  0.10888621132E+04  0.70003872726E+03 0.  0.
   -5000001    2    3    3    0    0  0.29674241629E+02 -0.22333479022E+02  0.17423051553E+03  0.25162832342E+03  0.17771098927E+03 0.  0.
     200001    1    1    2    0    0  0.17282569127E+03  0.90540842458E+02  0.10611926811E+04  0.12861556166E+04  0.70000000000E+03 0.  1.
         11    1    4    4    0    0  0.45640260701E+02 -0.60481850564E+02  0.18455664880E+03  0.19950499808E+03  0.51100000000E-03 0.  1.
    -200002    1    4    4    0    0 -0.15966019072E+02  0.38148371542E+02 -0.10326133270E+02  0.52123325341E+02  0.30000000000E+02 0.  1.
    -200000    1    3    3    0    0 -0.20249993290E+03 -0.68207363436E+02  0.63663329437E+03  0.83723378978E+03  0.50000000000E+03 0. -1.
<mgrwt>
<rscale>  0 0.14615450E+04</rscale>
<asrwt>0</asrwt>
<pdfrwt beam="1">  1        2 0.30336244E+00 0.14615450E+04</pdfrwt>
<pdfrwt beam="2">  1       -2 0.35925804E-01 0.14615450E+04</pdfrwt>
<totfact> 0.48984074E+01</totfact>
</mgrwt>
</event>
<event>
 8    2  0.7085383E-010  0.1763001E+04  0.7818608E-02  0.8726227E-01
          2   -1    0    0  501    0  0.00000000000E+00  0.00000000000E+00  0.17754954880E+04  0.17754954880E+04  0.25500000000E-02 0.  1.
         -2   -1    0    0    0  501 -0.00000000000E+00 -0.00000000000E+00 -0.43764844983E+03  0.43764844984E+03  0.25500000000E-02 0. -1.
    -200001    2    1    2    0    0  0.51474329728E+02  0.28573411540E+03  0.10393978619E+03  0.76510364218E+03  0.70020462210E+03 0.  0.
   -5000001    2    3    3    0    0 -0.27534796538E+02  0.15808596833E+03  0.68403271658E+02  0.24184525921E+03  0.16751353207E+03 0.  0.
     200001    1    1    2    0    0 -0.51474329728E+02 -0.28573411540E+03  0.12339072520E+04  0.14480402956E+04  0.70000000000E+03 0.  1.
         11    1    4    4    0    0 -0.40772561830E+02  0.68542320651E+02 -0.46663340648E+02  0.92400859731E+02  0.51100000000E-03 0.  1.
    -200002    1    4    4    0    0  0.13237765291E+02  0.89543647676E+02  0.11506661231E+03  0.14944439948E+03  0.30000000000E+02 0.  1.
    -200000    1    3    3    0    0  0.79009126266E+02  0.12764814707E+03  0.35536514529E+02  0.52325838297E+03  0.50000000000E+03 0. -1.
<mgrwt>
<rscale>  0 0.17630007E+04</rscale>
<asrwt>0</asrwt>
<pdfrwt beam="1">  1        2 0.25364221E+00 0.17630007E+04</pdfrwt>
<pdfrwt beam="2">  1       -2 0.62521207E-01 0.17630007E+04</pdfrwt>
<totfact> 0.23607241E+01</totfact>
</mgrwt>
</event>
<event>
 8    2  0.7085383E-010  0.1610679E+04  0.7818608E-02  0.8814014E-01
         -2   -1    0    0    0  501 -0.00000000000E+00  0.00000000000E+00  0.75274931523E+03  0.75274931523E+03  0.25500000000E-02 0. -1.
          2   -1    0    0  501    0  0.00000000000E+00 -0.00000000000E+00 -0.86160362504E+03  0.86160362504E+03  0.25500000000E-02 0.  1.
    -200001    2    1    2    0    0 -0.15322882727E+03  0.11966306061E+03 -0.40011510033E+03  0.83164535140E+03  0.70266889458E+03 0.  0.
   -5000001    2    3    3    0    0 -0.49572238664E+01  0.84709623401E+02 -0.10342825816E+03  0.23062181321E+03  0.18785292592E+03 0.  0.
     200001    1    1    2    0    0  0.15322882727E+03 -0.11966306061E+03  0.29126079052E+03  0.78270758887E+03  0.70000000000E+03 0. -1.
         11    1    4    4    0    0 -0.58074633468E+01 -0.39671452553E+02 -0.94154121890E+02  0.10233547502E+03  0.51100000000E-03 0.  1.
    -200002    1    4    4    0    0  0.85023948042E+00  0.12438107595E+03 -0.92741362745E+01  0.12828633819E+03  0.30000000000E+02 0.  1.
    -200000    1    3    3    0    0 -0.14827160341E+03  0.34953437212E+02 -0.29668684217E+03  0.60102353819E+03  0.50000000000E+03 0.  1.
<mgrwt>
<rscale>  0 0.16106788E+04</rscale>
<asrwt>0</asrwt>
<pdfrwt beam="1">  1        2 0.12308623E+00 0.16106788E+04</pdfrwt>
<pdfrwt beam="2">  1       -2 0.10753562E+00 0.16106788E+04</pdfrwt>
<totfact> 0.22988044E+01</totfact>
</mgrwt>
</event>
<event>
 8    2  0.7085383E-010  0.1702082E+04  0.7818608E-02  0.8760178E-01
          2   -1    0    0  501    0  0.00000000000E+00  0.00000000000E+00  0.80856587408E+03  0.80856587408E+03  0.25500000000E-02 0.  1.
         -2   -1    0    0    0  501 -0.00000000000E+00 -0.00000000000E+00 -0.89574782047E+03  0.89574782047E+03  0.25500000000E-02 0. -1.
    -200001    2    1    2    0    0 -0.40478944853E+03 -0.75555168254E+02  0.20872071662E+03  0.83995181023E+03  0.70170622406E+03 0.  0.
   -5000001    2    3    3    0    0 -0.12110386323E+03 -0.22024973562E+02  0.67923950442E+02  0.24567348957E+03  0.20147097876E+03 0.  0.
     200001    1    1    2    0    0  0.40478944853E+03  0.75555168254E+02 -0.29590266301E+03  0.86436188432E+03  0.70000000000E+03 0. -1.
         11    1    4    4    0    0 -0.71491828138E+02  0.23368343704E+02  0.12945257838E+03  0.14971683615E+03  0.51100000000E-03 0.  1.
    -200002    1    4    4    0    0 -0.49612035090E+02 -0.45393317266E+02 -0.61528627939E+02  0.95956653413E+02  0.30000000000E+02 0.  1.
    -200000    1    3    3    0    0 -0.28368558530E+03 -0.53530194692E+02  0.14079676617E+03  0.59427832067E+03  0.50000000000E+03 0.  1.
<mgrwt>
<rscale>  0 0.17020824E+04</rscale>
<asrwt>0</asrwt>
<pdfrwt beam="1">  1        2 0.11550941E+00 0.17020824E+04</pdfrwt>
<pdfrwt beam="2">  1       -2 0.12796397E+00 0.17020824E+04</pdfrwt>
<totfact> 0.16163666E+01</totfact>
</mgrwt>
</event>
<event>
 8    2  0.7085383E-010  0.1496386E+04  0.7818608E-02  0.8886859E-01
         -2   -1    0    0    0  501 -0.00000000000E+00  0.00000000000E+00  0.12879200883E+03  0.12879200886E+03  0.25500000000E-02 0. -1.
          2   -1    0    0  501    0  0.00000000000E+00 -0.00000000000E+00 -0.43464890868E+04  0.43464890868E+04  0.25500000000E-02 0.  1.
    -200001    2    1    2    0    0  0.20876033019E+03 -0.15772398842E+03 -0.22019701592E+04  0.23254874443E+04  0.70054374598E+03 0.  0.
   -5000001    2    3    3    0    0 -0.80500488581E+01 -0.86041096510E+02 -0.31202427990E+03  0.35722917777E+03  0.15094919882E+03 0.  0.
     200001    1    1    2    0    0 -0.20876033019E+03  0.15772398842E+03 -0.20157269189E+04  0.21497936513E+04  0.70000000000E+03 0.  1.
         11    1    4    4    0    0  0.20901844020E+02 -0.33234331503E+02 -0.12768865052E+01  0.39281526361E+02  0.51100000000E-03 0.  1.
    -200002    1    4    4    0    0 -0.28951892878E+02 -0.52806765007E+02 -0.31074739340E+03  0.31794765141E+03  0.30000000000E+02 0.  1.
    -200000    1    3    3    0    0  0.21681037904E+03 -0.71682891908E+02 -0.18899458793E+04  0.19682582666E+04  0.50000000000E+03 0.  1.
<mgrwt>
<rscale>  0 0.14963864E+04</rscale>
<asrwt>0</asrwt>
<pdfrwt beam="1">  1        2 0.62092692E+00 0.14963864E+04</pdfrwt>
<pdfrwt beam="2">  1       -2 0.18398861E-01 0.14963864E+04</pdfrwt>
<totfact> 0.78474229E+00</totfact>
</mgrwt>
</event>
<event>
 8    2  0.7085383E-010  0.1777977E+04  0.7818608E-02  0.8718100E-01
         -2   -1    0    0    0  501 -0.00000000000E+00  0.00000000000E+00  0.78165408325E+03  0.78165408326E+03  0.25500000000E-02 0. -1.
          2   -1    0    0  501    0  0.00000000000E+00 -0.00000000000E+00 -0.10110612955E+04  0.10110612955E+04  0.25500000000E-02 0.  1.
    -200001    2    1    2    0    0  0.13487350222E+02  0.19414658864E+03  0.40154119780E+03  0.83044166373E+03  0.70037362659E+03 0.  0.
   -5000001    2    3    3    0    0 -0.21088764927E+02  0.59088181041E+02  0.18295869384E+03  0.26722359562E+03  0.18438659729E+03 0.  0.
     200001    1    1    2    0    0 -0.13487350222E+02 -0.19414658864E+03 -0.63094841002E+03  0.96227371501E+03  0.70000000000E+03 0.  1.
         11    1    4    4    0    0 -0.75280384295E+02  0.19368222605E+02  0.88868266608E+01  0.78238353733E+02  0.51100000000E-03 0.  1.
    -200002    1    4    4    0    0  0.54191619367E+02  0.39719958436E+02  0.17407186718E+03  0.18898524189E+03  0.30000000000E+02 0.  1.
    -200000    1    3    3    0    0  0.34576115150E+02  0.13505840760E+03  0.21858250395E+03  0.56321806810E+03  0.50000000000E+03 0. -1.
<mgrwt>
<rscale>  0 0.17779766E+04</rscale>
<asrwt>0</asrwt>
<pdfrwt beam="1">  1        2 0.14443733E+00 0.17779766E+04</pdfrwt>
<pdfrwt beam="2">  1       -2 0.11166487E+00 0.17779766E+04</pdfrwt>
<totfact> 0.16616133E+01</totfact>
</mgrwt>
</event>
<event>
 8    2  0.7085383E-010  0.1860255E+04  0.7818608E-02  0.8674897E-01
          2   -1    0    0  501    0  0.00000000000E+00  0.00000000000E+00  0.14170564786E+04  0.14170564786E+04  0.25500000000E-02 0.  1.
         -2   -1    0    0    0  501 -0.00000000000E+00 -0.00000000000E+00 -0.61051718358E+03  0.61051718358E+03  0.25500000000E-02 0. -1.
    -200001    2    1    2    0    0  0.39971462634E+03 -0.40556834518E+03  0.64892567690E+03  0.11115499082E+04  0.70012941608E+03 0.  0.
   -5000001    2    3    3    0    0  0.25057808320E+03 -0.14890866753E+03  0.28611998361E+03  0.42617127587E+03  0.12163118149E+03 0.  0.
     200001    1    1    2    0    0 -0.39971462634E+03  0.40556834518E+03  0.15761361809E+03  0.91602375391E+03  0.70000000000E+03 0. -1.
         11    1    4    4    0    0  0.98627806013E+01 -0.37574515060E+02  0.80025214606E+02  0.88955908158E+02  0.51100000000E-03 0.  1.
    -200002    1    4    4    0    0  0.24071530260E+03 -0.11133415247E+03  0.20609476900E+03  0.33721536771E+03  0.30000000000E+02 0.  1.
    -200000    1    3    3    0    0  0.14913654314E+03 -0.25665967765E+03  0.36280569329E+03  0.68537863238E+03  0.50000000000E+03 0.  1.
<mgrwt>
<rscale>  0 0.18602552E+04</rscale>
<asrwt>0</asrwt>
<pdfrwt beam="1">  1        2 0.20243664E+00 0.18602552E+04</pdfrwt>
<pdfrwt beam="2">  1       -2 0.87216741E-01 0.18602552E+04</pdfrwt>
<totfact> 0.17348090E+01</totfact>
</mgrwt>
</event>
<event>
 8    2  0.7085383E-010  0.1708272E+04  0.7818608E-02  0.8756661E-01
         -2   -1    0    0    0  501 -0.00000000000E+00  0.00000000000E+00  0.31154429416E+03  0.31154429417E+03  0.25500000000E-02 0. -1.
          2   -1    0    0  501    0  0.00000000000E+00 -0.00000000000E+00 -0.23417160869E+04  0.23417160869E+04  0.25500000000E-02 0.  1.
    -200001    2    1    2    0    0  0.12276166974E+03 -0.13532015145E+03 -0.30841106163E+03  0.78568388032E+03  0.69914219291E+03 0.  0.
   -5000001    2    3    3    0    0  0.11003276530E+03 -0.11569194464E+02 -0.15026527210E+03  0.24671596373E+03  0.16139411099E+03 0.  0.
     200001    1    1    2    0    0 -0.12276166974E+03  0.13532015145E+03 -0.17217607311E+04  0.18675765008E+04  0.70000000000E+03 0.  1.
         11    1    4    4    0    0  0.10462814923E+03  0.34308576930E+02 -0.15642318151E+03  0.19129124333E+03  0.51100000000E-03 0.  1.
    -200002    1    4    4    0    0  0.54046160768E+01 -0.45877771395E+02  0.61579094119E+01  0.55424720400E+02  0.30000000000E+02 0.  1.
    -200000    1    3    3    0    0  0.12728904442E+02 -0.12375095698E+03 -0.15814578953E+03  0.53896791658E+03  0.50000000000E+03 0. -1.
<mgrwt>
<rscale>  0 0.17082720E+04</rscale>
<asrwt>0</asrwt>
<pdfrwt beam="1">  1        2 0.33453086E+00 0.17082720E+04</pdfrwt>
<pdfrwt beam="2">  1       -2 0.44506329E-01 0.17082720E+04</pdfrwt>
<totfact> 0.24367477E+01</totfact>
</mgrwt>
</event>
<event>
 8    2  0.7085383E-010  0.2053961E+04  0.7818608E-02  0.8581800E-01
          2   -1    0    0  501    0  0.00000000000E+00  0.00000000000E+00  0.11950290673E+04  0.11950290673E+04  0.25500000000E-02 0.  1.
         -2   -1    0    0    0  501 -0.00000000000E+00 -0.00000000000E+00 -0.88256325444E+03  0.88256325445E+03  0.25500000000E-02 0. -1.
    -200001    2    1    2    0    0 -0.13802282566E+03 -0.70950540632E+03 -0.54503953123E+02  0.10065577606E+04  0.69838357839E+03 0.  0.
   -5000001    2    3    3    0    0 -0.11590935851E+03 -0.23850929555E+03 -0.34032939603E+02  0.31899292427E+03  0.17400167041E+03 0.  0.
     200001    1    1    2    0    0  0.13802282566E+03  0.70950540632E+03  0.36696976600E+03  0.10710345611E+04  0.70000000000E+03 0.  1.
         11    1    4    4    0    0  0.60653516583E+01 -0.20522249660E+02  0.49477996496E+02  0.53907544549E+02  0.51100000000E-03 0.  1.
    -200002    1    4    4    0    0 -0.12197471017E+03 -0.21798704589E+03 -0.83510936099E+02  0.26508537972E+03  0.30000000000E+02 0.  1.
    -200000    1    3    3    0    0 -0.22113467146E+02 -0.47099611077E+03 -0.20471013520E+02  0.68756483635E+03  0.50000000000E+03 0. -1.
<mgrwt>
<rscale>  0 0.20539608E+04</rscale>
<asrwt>0</asrwt>
<pdfrwt beam="1">  1        2 0.17071844E+00 0.20539608E+04</pdfrwt>
<pdfrwt beam="2">  1       -2 0.12608046E+00 0.20539608E+04</pdfrwt>
<totfact> 0.93768895E+00</totfact>
</mgrwt>
</event>
<event>
 8    2  0.7085383E-010  0.1941840E+04  0.7818608E-02  0.8634306E-01
          2   -1    0    0  501    0  0.00000000000E+00  0.00000000000E+00  0.31972212902E+04  0.31972212902E+04  0.25500000000E-02 0.  1.
         -2   -1    0    0    0  501 -0.00000000000E+00 -0.00000000000E+00 -0.29484526728E+03  0.29484526729E+03  0.25500000000E-02 0. -1.
    -200001    2    1    2    0    0 -0.17049945026E+03  0.57030672123E+03  0.88672207628E+03  0.12768508453E+04  0.69982299319E+03 0.  0.
   -5000001    2    3    3    0    0 -0.11387991771E+02  0.14031143000E+03  0.77623592051E+02  0.22098496184E+03  0.15163095849E+03 0.  0.
     200001    1    1    2    0    0  0.17049945026E+03 -0.57030672123E+03  0.20156539466E+04  0.22152157121E+04  0.70000000000E+03 0. -1.
         11    1    4    4    0    0  0.26441681743E+02  0.26424078825E+02 -0.36816829415E+02  0.52467832084E+02  0.51100000000E-03 0.  1.
    -200002    1    4    4    0    0 -0.37829673514E+02  0.11388735117E+03  0.11444042147E+03  0.16851712976E+03  0.30000000000E+02 0.  1.
    -200000    1    3    3    0    0 -0.15911145849E+03  0.42999529124E+03  0.80909848423E+03  0.10558658835E+04  0.50000000000E+03 0.  1.
<mgrwt>
<rscale>  0 0.19418399E+04</rscale>
<asrwt>0</asrwt>
<pdfrwt beam="1">  1        2 0.45674587E+00 0.19418399E+04</pdfrwt>
<pdfrwt beam="2">  1       -2 0.42120755E-01 0.19418399E+04</pdfrwt>
<totfact> 0.91291129E+00</totfact>
</mgrwt>
</event>
<event>
 8    2  0.7085383E-010  0.1426347E+04  0.7818608E-02  0.8934965E-01
          2   -1    0    0  501    0  0.00000000000E+00  0.00000000000E+00  0.19672875388E+04  0.19672875388E+04  0.25500000000E-02 0.  1.
         -2   -1    0    0    0  501 -0.00000000000E+00 -0.00000000000E+00 -0.25853694804E+03  0.25853694805E+03  0.25500000000E-02 0. -1.
    -200001    2    1    2    0    0  0.11024654522E+02 -0.40532130926E+02  0.10570363226E+04  0.12684865716E+04  0.69997714137E+03 0.  0.
   -5000001    2    3    3    0    0 -0.57535981192E+01  0.43243106436E+02  0.25785994502E+03  0.32192295377E+03  0.18772204658E+03 0.  0.
     200001    1    1    2    0    0 -0.11024654522E+02  0.40532130926E+02  0.65171426823E+03  0.95733791530E+03  0.70000000000E+03 0. -1.
         11    1    4    4    0    0 -0.67709435835E+02  0.74290118649E+02  0.20918102243E+03  0.23207819712E+03  0.51100000000E-03 0.  1.
    -200002    1    4    4    0    0  0.61955837716E+02 -0.31047012213E+02  0.48678922591E+02  0.89844756659E+02  0.30000000000E+02 0.  1.
    -200000    1    3    3    0    0  0.16778252641E+02 -0.83775237362E+02  0.79917637754E+03  0.94656361782E+03  0.50000000000E+03 0.  1.
<mgrwt>
<rscale>  0 0.14263471E+04</rscale>
<asrwt>0</asrwt>
<pdfrwt beam="1">  1        2 0.28104108E+00 0.14263471E+04</pdfrwt>
<pdfrwt beam="2">  1       -2 0.36933849E-01 0.14263471E+04</pdfrwt>
<totfact> 0.56028797E+01</totfact>
</mgrwt>
</event>
<event>
 8    2  0.7085383E-010  0.1907667E+04  0.7818608E-02  0.8651049E-01
         -2   -1    0    0    0  501 -0.00000000000E+00  0.00000000000E+00  0.10877992952E+04  0.10877992952E+04  0.25500000000E-02 0. -1.
          2   -1    0    0  501    0  0.00000000000E+00 -0.00000000000E+00 -0.83636596792E+03  0.83636596793E+03  0.25500000000E-02 0.  1.
    -200001    2    1    2    0    0  0.24612545861E+03  0.17652029748E+03 -0.45237403968E+03  0.88633966766E+03  0.69944161864E+03 0.  0.
   -5000001    2    3    3    0    0  0.43771635538E+01  0.20680635822E+02 -0.11489323708E+03  0.21804218118E+03  0.18410618835E+03 0.  0.
     200001    1    1    2    0    0 -0.24612545861E+03 -0.17652029748E+03  0.70380736693E+03  0.10378255954E+04  0.70000000000E+03 0. -1.
         11    1    4    4    0    0  0.56321202155E+02 -0.71863674776E+01  0.25961018121E+02  0.62431531712E+02  0.51100000000E-03 0.  1.
    -200002    1    4    4    0    0 -0.51944038602E+02  0.27867003299E+02 -0.14085425521E+03  0.15561064947E+03  0.30000000000E+02 0.  1.
    -200000    1    3    3    0    0  0.24174829506E+03  0.15583966166E+03 -0.33748080260E+03  0.66829748648E+03  0.50000000000E+03 0.  1.
<mgrwt>
<rscale>  0 0.19076670E+04</rscale>
<asrwt>0</asrwt>
<pdfrwt beam="1">  1        2 0.11948085E+00 0.19076670E+04</pdfrwt>
<pdfrwt beam="2">  1       -2 0.15539990E+00 0.19076670E+04</pdfrwt>
<totfact> 0.91811659E+00</totfact>
</mgrwt>
</event>
<event>
 8    2  0.7085383E-010  0.1600775E+04  0.7818608E-02  0.8820072E-01
         -2   -1    0    0    0  501 -0.00000000000E+00  0.00000000000E+00  0.14048585508E+04  0.14048585508E+04  0.25500000000E-02 0. -1.
          2   -1    0    0  501    0  0.00000000000E+00 -0.00000000000E+00 -0.45600351123E+03  0.45600351123E+03  0.25500000000E-02 0.  1.
    -200001    2    1    2    0    0 -0.17589997851E+03 -0.43876266573E+02  0.87304792900E+03  0.11338045353E+04  0.70031000902E+03 0.  0.
   -5000001    2    3    3    0    0 -0.89137037133E+01 -0.96243581006E+02  0.23989869116E+03  0.30827155052E+03  0.16774291592E+03 0.  0.
     200001    1    1    2    0    0  0.17589997851E+03  0.43876266573E+02  0.75807110609E+02  0.72705752676E+03  0.70000000000E+03 0.  1.
         11    1    4    4    0    0  0.61273607530E+02  0.95868218072E+01  0.62467331320E+02  0.88025732684E+02  0.51100000000E-03 0.  1.
    -200002    1    4    4    0    0 -0.70187311243E+02 -0.10583040281E+03  0.17743135984E+03  0.22024581783E+03  0.30000000000E+02 0.  1.
    -200000    1    3    3    0    0 -0.16698627479E+03  0.52367314433E+02  0.63314923784E+03  0.82553298478E+03  0.50000000000E+03 0. -1.
<mgrwt>
<rscale>  0 0.16007754E+04</rscale>
<asrwt>0</asrwt>
<pdfrwt beam="1">  1        2 0.65143357E-01 0.16007754E+04</pdfrwt>
<pdfrwt beam="2">  1       -2 0.20069408E+00 0.16007754E+04</pdfrwt>
<totfact> 0.94260561E+00</totfact>
</mgrwt>
</event>
<event>
 8    2  0.7085383E-010  0.2386730E+04  0.7818608E-02  0.8444489E-01
         -2   -1    0    0    0  501 -0.00000000000E+00  0.00000000000E+00  0.26632291860E+04  0.26632291860E+04  0.25500000000E-02 0. -1.
          2   -1    0    0  501    0  0.00000000000E+00 -0.00000000000E+00 -0.53473409355E+03  0.53473409355E+03  0.25500000000E-02 0.  1.
    -200001    2    1    2    0    0 -0.39565008295E+03  0.18785840953E+03 -0.90434029515E+02  0.83037458671E+03  0.69965267839E+03 0.  0.
   -5000001    2    3    3    0    0 -0.14613960032E+03  0.71811538510E+02  0.44690477950E+02  0.24387566110E+03  0.17596709753E+03 0.  0.
     200001    1    1    2    0    0  0.39565008295E+03 -0.18785840953E+03  0.22189291220E+04  0.23675886929E+04  0.70000000000E+03 0. -1.
         11    1    4    4    0    0 -0.16493597368E+03  0.61207033743E+01  0.33565426439E+02  0.16842795574E+03  0.51100000000E-03 0.  1.
    -200002    1    4    4    0    0  0.18796373362E+02  0.65690835136E+02  0.11125051511E+02  0.75447705356E+02  0.30000000000E+02 0.  1.
    -200000    1    3    3    0    0 -0.24951048264E+03  0.11604687102E+03 -0.13512450747E+03  0.58649892561E+03  0.50000000000E+03 0.  1.
<mgrwt>
<rscale>  0 0.23867295E+04</rscale>
<asrwt>0</asrwt>
<pdfrwt beam="1">  1        2 0.76390585E-01 0.23867295E+04</pdfrwt>
<pdfrwt beam="2">  1       -2 0.38046131E+00 0.23867295E+04</pdfrwt>
<totfact> 0.55894057E-01</totfact>
</mgrwt>
</event>
<event>
 8    2  0.7085383E-010  0.1618100E+04  0.7818608E-02  0.8809505E-01
          2   -1    0    0  501    0  0.00000000000E+00  0.00000000000E+00  0.11850041171E+04  0.11850041171E+04  0.25500000000E-02 0. -1.
         -2   -1    0    0    0  501 -0.00000000000E+00 -0.00000000000E+00 -0.55237093944E+03  0.55237093944E+03  0.25500000000E-02 0.  1.
    -200001    2    1    2    0    0  0.33284014189E+03  0.69704834230E+02  0.55232553385E+03  0.95501283764E+03  0.70095984246E+03 0.  0.
   -5000001    2    3    3    0    0  0.92401145713E+02  0.61759637365E+02  0.18335057058E+03  0.28866716116E+03  0.19328495457E+03 0.  0.
     200001    1    1    2    0    0 -0.33284014189E+03 -0.69704834230E+02  0.80307643844E+02  0.78236221894E+03  0.70000000000E+03 0.  1.
         11    1    4    4    0    0  0.35580129309E+02 -0.55449513204E+02  0.53959608439E+01  0.66103785897E+02  0.51100000000E-03 0.  1.
    -200002    1    4    4    0    0  0.56821016405E+02  0.11720915057E+03  0.17795460973E+03  0.22256337526E+03  0.30000000000E+02 0.  1.
    -200000    1    3    3    0    0  0.24043899618E+03  0.79451968648E+01  0.36897496328E+03  0.66634567648E+03  0.50000000000E+03 0. -1.
<mgrwt>
<rscale>  0 0.16180999E+04</rscale>
<asrwt>0</asrwt>
<pdfrwt beam="1">  1        2 0.16928630E+00 0.16180999E+04</pdfrwt>
<pdfrwt beam="2">  1       -2 0.78910135E-01 0.16180999E+04</pdfrwt>
<totfact> 0.29829704E+01</totfact>
</mgrwt>
</event>
<event>
 8    2  0.7085383E-010  0.1493862E+04  0.7818608E-02  0.8888545E-01
         -2   -1    0    0    0  501 -0.00000000000E+00  0.00000000000E+00  0.49750539266E+03  0.49750539267E+03  0.25500000000E-02 0. -1.
          2   -1    0    0  501    0  0.00000000000E+00 -0.00000000000E+00 -0.11214068451E+04  0.11214068451E+04  0.25500000000E-02 0.  1.
    -200001    2    1    2    0    0  0.67132743023E+02 -0.11076280295E+03 -0.55241172343E+03  0.90345015976E+03  0.70305638130E+03 0.  0.
   -5000001    2    3    3    0    0  0.10803445249E+03 -0.42013783218E+02 -0.12919180673E+03  0.24351495428E+03  0.17079932414E+03 0.  0.
     200001    1    1    2    0    0 -0.67132743023E+02  0.11076280295E+03 -0.71489728996E+02  0.71546207800E+03  0.70000000000E+03 0. -1.
         11    1    4    4    0    0  0.12179960935E+03  0.54351512745E-01 -0.22061546348E+02  0.12378149950E+03  0.51100000000E-03 0.  1.
    -200002    1    4    4    0    0 -0.13765156860E+02 -0.42068134730E+02 -0.10713026038E+03  0.11973345478E+03  0.30000000000E+02 0.  1.
    -200000    1    3    3    0    0 -0.40901709462E+02 -0.68749019733E+02 -0.42321991670E+03  0.65993520549E+03  0.50000000000E+03 0.  1.
<mgrwt>
<rscale>  0 0.14938620E+04</rscale>
<asrwt>0</asrwt>
<pdfrwt beam="1">  1        2 0.16020098E+00 0.14938620E+04</pdfrwt>
<pdfrwt beam="2">  1       -2 0.71072199E-01 0.14938620E+04</pdfrwt>
<totfact> 0.41324528E+01</totfact>
</mgrwt>
</event>
<event>
 8    2  0.7085383E-010  0.1818772E+04  0.7818608E-02  0.8696380E-01
         -2   -1    0    0    0  501 -0.00000000000E+00  0.00000000000E+00  0.61059662937E+03  0.61059662938E+03  0.25500000000E-02 0. -1.
          2   -1    0    0  501    0  0.00000000000E+00 -0.00000000000E+00 -0.13543845298E+04  0.13543845298E+04  0.25500000000E-02 0.  1.
    -200001    2    1    2    0    0 -0.19047674361E+03  0.20364478677E+03 -0.92178500826E+03  0.11907489205E+04  0.70031621506E+03 0.  0.
   -5000001    2    3    3    0    0 -0.10057189648E+03 -0.66527362088E+01 -0.29359902399E+03  0.35592824478E+03  0.17414236498E+03 0.  0.
     200001    1    1    2    0    0  0.19047674361E+03 -0.20364478677E+03  0.17799710786E+03  0.77423223870E+03  0.70000000000E+03 0. -1.
         11    1    4    4    0    0  0.71088929977E+01 -0.53672998885E+02 -0.21916497609E+02  0.58409417362E+02  0.51100000000E-03 0.  1.
    -200002    1    4    4    0    0 -0.10768078948E+03  0.47020262676E+02 -0.27168252638E+03  0.29751882742E+03  0.30000000000E+02 0.  1.
    -200000    1    3    3    0    0 -0.89904847130E+02  0.21029752298E+03 -0.62818598427E+03  0.83482067568E+03  0.50000000000E+03 0.  1.
<mgrwt>
<rscale>  0 0.18187717E+04</rscale>
<asrwt>0</asrwt>
<pdfrwt beam="1">  1        2 0.19348350E+00 0.18187717E+04</pdfrwt>
<pdfrwt beam="2">  1       -2 0.87228091E-01 0.18187717E+04</pdfrwt>
<totfact> 0.18819242E+01</totfact>
</mgrwt>
</event>
<event>
 8    2  0.7085383E-010  0.1702628E+04  0.7818608E-02  0.8759867E-01
          2   -1    0    0  501    0  0.00000000000E+00  0.00000000000E+00  0.29918453115E+04  0.29918453115E+04  0.25500000000E-02 0.  1.
         -2   -1    0    0    0  501 -0.00000000000E+00 -0.00000000000E+00 -0.24223683152E+03  0.24223683154E+03  0.25500000000E-02 0. -1.
    -200001    2    1    2    0    0  0.40694334001E+03  0.25893239218E+03  0.14498363399E+04  0.16810024664E+04  0.70078171639E+03 0.  0.
   -5000001    2    3    3    0    0  0.18868289078E+03  0.34049475604E+02  0.21142228204E+03  0.30918639694E+03  0.11889594883E+03 0.  0.
     200001    1    1    2    0    0 -0.40694334001E+03 -0.25893239218E+03  0.12997721401E+04  0.15530796766E+04  0.70000000000E+03 0.  1.
         11    1    4    4    0    0  0.16890152244E+03 -0.40113762748E+01  0.18504963160E+03  0.25057370488E+03  0.51100000000E-03 0.  1.
    -200002    1    4    4    0    0  0.19781368337E+02  0.38060851878E+02  0.26372650437E+02  0.58612692056E+02  0.30000000000E+02 0.  1.
    -200000    1    3    3    0    0  0.21826044923E+03  0.22488291657E+03  0.12384140578E+04  0.13718160695E+04  0.50000000000E+03 0.  1.
<mgrwt>
<rscale>  0 0.17026275E+04</rscale>
<asrwt>0</asrwt>
<pdfrwt beam="1">  1        2 0.42740645E+00 0.17026275E+04</pdfrwt>
<pdfrwt beam="2">  1       -2 0.34605263E-01 0.17026275E+04</pdfrwt>
<totfact> 0.17845289E+01</totfact>
</mgrwt>
</event>
<event>
 8    2  0.7085383E-010  0.1634945E+04  0.7818608E-02  0.8799363E-01
          2   -1    0    0  501    0  0.00000000000E+00  0.00000000000E+00  0.28962747914E+04  0.28962747914E+04  0.25500000000E-02 0. -1.
         -2   -1    0    0    0  501 -0.00000000000E+00 -0.00000000000E+00 -0.23073135436E+03  0.23073135438E+03  0.25500000000E-02 0.  1.
    -200001    2    1    2    0    0  0.31320392445E+03  0.28078768110E+03  0.12648312245E+04  0.15056076375E+04  0.70008421751E+03 0.  0.
   -5000001    2    3    3    0    0  0.47274110401E+01  0.17446232657E+03  0.35805131431E+03  0.41992230289E+03  0.13294564673E+03 0.  0.
     200001    1    1    2    0    0 -0.31320392445E+03 -0.28078768110E+03  0.14007122126E+04  0.16213985083E+04  0.70000000000E+03 0.  1.
         11    1    4    4    0    0  0.36596464440E+01  0.20803327797E+02 -0.73716102360E+01  0.22372127687E+02  0.51100000000E-03 0.  1.
    -200002    1    4    4    0    0  0.10677645961E+01  0.15365899877E+03  0.36542292454E+03  0.39755017521E+03  0.30000000000E+02 0.  1.
    -200000    1    3    3    0    0  0.30847651341E+03  0.10632535453E+03  0.90677991015E+03  0.10856853346E+04  0.50000000000E+03 0. -1.
<mgrwt>
<rscale>  0 0.16349451E+04</rscale>
<asrwt>0</asrwt>
<pdfrwt beam="1">  1        2 0.41375352E+00 0.16349451E+04</pdfrwt>
<pdfrwt beam="2">  1       -2 0.32961623E-01 0.16349451E+04</pdfrwt>
<totfact> 0.22238465E+01</totfact>
</mgrwt>
</event>
<event>
 8    2  0.7085383E-010  0.1731258E+04  0.7818608E-02  0.8743735E-01
          2   -1    0    0  501    0  0.00000000000E+00  0.00000000000E+00  0.10328803717E+04  0.10328803717E+04  0.25500000000E-02 0.  1.
         -2   -1    0    0    0  501 -0.00000000000E+00 -0.00000000000E+00 -0.72545980389E+03  0.72545980390E+03  0.25500000000E-02 0. -1.
    -200001    2    1    2    0    0  0.17481694390E+03 -0.17365427179E+03  0.60667375944E+03  0.95817191661E+03  0.69951669130E+03 0.  0.
   -5000001    2    3    3    0    0  0.95672338200E+02 -0.11492613363E+03  0.29004830128E+03  0.35820146436E+03  0.14771276013E+03 0.  0.
     200001    1    1    2    0    0 -0.17481694390E+03  0.17365427179E+03 -0.29925319163E+03  0.80016825898E+03  0.70000000000E+03 0. -1.
         11    1    4    4    0    0  0.77135629544E+02 -0.21548009297E+02  0.22558420733E+03  0.23937931541E+03  0.51100000000E-03 0.  1.
    -200002    1    4    4    0    0  0.18536708656E+02 -0.93378124331E+02  0.64464093950E+02  0.11882214895E+03  0.30000000000E+02 0.  1.
    -200000    1    3    3    0    0  0.79144605698E+02 -0.58728138159E+02  0.31662545816E+03  0.59997045225E+03  0.50000000000E+03 0.  1.
<mgrwt>
<rscale>  0 0.17312576E+04</rscale>
<asrwt>0</asrwt>
<pdfrwt beam="1">  1        2 0.14755434E+00 0.17312576E+04</pdfrwt>
<pdfrwt beam="2">  1       -2 0.10363712E+00 0.17312576E+04</pdfrwt>
<totfact> 0.19359935E+01</totfact>
</mgrwt>
</event>
<event>
 8    2  0.7085383E-010  0.2543821E+04  0.7818608E-02  0.8387538E-01
         -2   -1    0    0    0  501 -0.00000000000E+00  0.00000000000E+00  0.81247750227E+03  0.81247750227E+03  0.25500000000E-02 0. -1.
          2   -1    0    0  501    0  0.00000000000E+00 -0.00000000000E+00 -0.19911399833E+04  0.19911399833E+04  0.25500000000E-02 0.  1.
    -200001    2    1    2    0    0  0.59881519763E+03  0.43545564964E+03  0.24968441651E+03  0.10490873139E+04  0.70002901408E+03 0.  0.
   -5000001    2    3    3    0    0  0.19978350496E+03  0.11238599384E+03  0.11153075693E+03  0.31923340526E+03  0.19216346382E+03 0.  0.
     200001    1    1    2    0    0 -0.59881519763E+03 -0.43545564964E+03 -0.14283468976E+04  0.17545301717E+04  0.70000000000E+03 0.  1.
         11    1    4    4    0    0  0.18194642769E+03  0.11217129662E+03  0.15460129006E+03  0.26379624945E+03  0.51100000000E-03 0.  1.
    -200002    1    4    4    0    0  0.17837077270E+02  0.21469722435E+00 -0.43070533129E+02  0.55437155811E+02  0.30000000000E+02 0.  1.
    -200000    1    3    3    0    0  0.39903169268E+03  0.32306965580E+03  0.13815365958E+03  0.72985390861E+03  0.50000000000E+03 0. -1.
<mgrwt>
<rscale>  0 0.25438211E+04</rscale>
<asrwt>0</asrwt>
<pdfrwt beam="1">  1        2 0.28444857E+00 0.25438211E+04</pdfrwt>
<pdfrwt beam="2">  1       -2 0.11606822E+00 0.25438211E+04</pdfrwt>
<totfact> 0.41795541E+00</totfact>
</mgrwt>
</event>
<event>
 8    2  0.7085383E-010  0.1813683E+04  0.7818608E-02  0.8699057E-01
          2   -1    0    0  501    0  0.00000000000E+00  0.00000000000E+00  0.84992308263E+03  0.84992308263E+03  0.25500000000E-02 0.  1.
         -2   -1    0    0    0  501 -0.00000000000E+00 -0.00000000000E+00 -0.96757167088E+03  0.96757167089E+03  0.25500000000E-02 0. -1.
    -200001    2    1    2    0    0 -0.52296326114E+03  0.57061836584E+01 -0.30220640141E+03  0.92441876603E+03  0.69978440458E+03 0.  0.
   -5000001    2    3    3    0    0 -0.26762684567E+03 -0.38883221230E+02 -0.83239106263E+01  0.28916148076E+03  0.10202470803E+03 0.  0.
     200001    1    1    2    0    0  0.52296326114E+03 -0.57061836584E+01  0.18455781316E+03  0.89307598749E+03  0.70000000000E+03 0.  1.
         11    1    4    4    0    0 -0.25092780802E+03 -0.40435671900E+02 -0.12880929316E+02  0.25449111329E+03  0.51100000000E-03 0.  1.
    -200002    1    4    4    0    0 -0.16699037652E+02  0.15524506696E+01  0.45570186901E+01  0.34670367476E+02  0.30000000000E+02 0. -1.
    -200000    1    3    3    0    0 -0.25533641547E+03  0.44589404889E+02 -0.29388249079E+03  0.63525728526E+03  0.50000000000E+03 0. -1.
<mgrwt>
<rscale>  0 0.18136830E+04</rscale>
<asrwt>0</asrwt>
<pdfrwt beam="1">  1        2 0.12141758E+00 0.18136830E+04</pdfrwt>
<pdfrwt beam="2">  1       -2 0.13822452E+00 0.18136830E+04</pdfrwt>
<totfact> 0.12330218E+01</totfact>
</mgrwt>
</event>
<event>
 8    2  0.7085383E-010  0.1583744E+04  0.7818608E-02  0.8830597E-01
         -2   -1    0    0    0  501 -0.00000000000E+00  0.00000000000E+00  0.10184064815E+04  0.10184064815E+04  0.25500000000E-02 0. -1.
          2   -1    0    0  501    0  0.00000000000E+00 -0.00000000000E+00 -0.61572786358E+03  0.61572786358E+03  0.25500000000E-02 0.  1.
    -200001    2    1    2    0    0 -0.21939383939E+03  0.22186903547E+03  0.40736631081E+03  0.86772616392E+03  0.69974413803E+03 0.  0.
   -5000001    2    3    3    0    0 -0.16568165582E+03  0.16328867349E+03  0.90314827241E+02  0.27036672380E+03  0.10405669297E+03 0.  0.
     200001    1    1    2    0    0  0.21939383939E+03 -0.22186903547E+03 -0.46876929037E+01  0.76640818115E+03  0.70000000000E+03 0. -1.
         11    1    4    4    0    0 -0.91338729841E+02  0.14572400139E+03  0.51131266005E+02  0.17942311588E+03  0.51100000000E-03 0.  1.
    -200002    1    4    4    0    0 -0.74342925980E+02  0.17564672099E+02  0.39183561236E+02  0.90943607914E+02  0.30000000000E+02 0.  1.
    -200000    1    3    3    0    0 -0.53712183574E+02  0.58580361986E+02  0.31705148357E+03  0.59735944013E+03  0.50000000000E+03 0. -1.
<mgrwt>
<rscale>  0 0.15837440E+04</rscale>
<asrwt>0</asrwt>
<pdfrwt beam="1">  1        2 0.87961124E-01 0.15837440E+04</pdfrwt>
<pdfrwt beam="2">  1       -2 0.14548664E+00 0.15837440E+04</pdfrwt>
<totfact> 0.16435576E+01</totfact>
</mgrwt>
</event>
<event>
 8    2  0.7085383E-010  0.2376946E+04  0.7818608E-02  0.8448185E-01
          2   -1    0    0  501    0  0.00000000000E+00  0.00000000000E+00  0.19459534535E+04  0.19459534535E+04  0.25500000000E-02 0.  1.
         -2   -1    0    0    0  501 -0.00000000000E+00 -0.00000000000E+00 -0.72584874171E+03  0.72584874172E+03  0.25500000000E-02 0. -1.
    -200001    2    1    2    0    0  0.40983137065E+03 -0.70812244328E+03  0.44776912471E+02  0.10778151868E+04  0.70020101259E+03 0.  0.
   -5000001    2    3    3    0    0  0.13773535157E+03 -0.85504473643E+02  0.55480758079E+02  0.23413044001E+03  0.15955220568E+03 0.  0.
     200001    1    1    2    0    0 -0.40983137065E+03  0.70812244328E+03  0.11753277993E+04  0.15939870084E+04  0.70000000000E+03 0.  1.
         11    1    4    4    0    0  0.47000045795E+02 -0.11682966239E+03  0.41516673624E+02  0.13259641212E+03  0.51100000000E-03 0.  1.
    -200002    1    4    4    0    0  0.90735305777E+02  0.31325188745E+02  0.13964084455E+02  0.10153402789E+03  0.30000000000E+02 0.  1.
    -200000    1    3    3    0    0  0.27209601908E+03 -0.62261796964E+03 -0.10703845607E+02  0.84368474682E+03  0.50000000000E+03 0. -1.
<mgrwt>
<rscale>  0 0.23769458E+04</rscale>
<asrwt>0</asrwt>
<pdfrwt beam="1">  1        2 0.27799335E+00 0.23769458E+04</pdfrwt>
<pdfrwt beam="2">  1       -2 0.10369268E+00 0.23769458E+04</pdfrwt>
<totfact> 0.58708447E+00</totfact>
</mgrwt>
</event>
<event>
 8    2  0.7085383E-010  0.1542942E+04  0.7818608E-02  0.8856388E-01
         -2   -1    0    0    0  501 -0.00000000000E+00  0.00000000000E+00  0.16076506334E+03  0.16076506336E+03  0.25500000000E-02 0. -1.
          2   -1    0    0  501    0  0.00000000000E+00 -0.00000000000E+00 -0.37020959069E+04  0.37020959069E+04  0.25500000000E-02 0.  1.
    -200001    2    1    2    0    0  0.18278572634E+03  0.21121526787E+03 -0.13641735738E+04  0.15589433744E+04  0.70093679750E+03 0.  0.
   -5000001    2    3    3    0    0  0.13711856520E+03  0.11725122575E+03 -0.34515067664E+03  0.41906513718E+03  0.15471667251E+03 0.  0.
     200001    1    1    2    0    0 -0.18278572634E+03 -0.21121526787E+03 -0.21771572698E+04  0.23039175958E+04  0.70000000000E+03 0.  1.
         11    1    4    4    0    0  0.78826426834E+02 -0.17460601149E+02 -0.17260376561E+03  0.19055324207E+03  0.51100000000E-03 0.  1.
    -200002    1    4    4    0    0  0.58292138367E+02  0.13471182690E+03 -0.17254691103E+03  0.22851189511E+03  0.30000000000E+02 0.  1.
    -200000    1    3    3    0    0  0.45667161136E+02  0.93964042124E+02 -0.10190228972E+04  0.11398782373E+04  0.50000000000E+03 0. -1.
<mgrwt>
<rscale>  0 0.15429422E+04</rscale>
<asrwt>0</asrwt>
<pdfrwt beam="1">  1        2 0.52887079E+00 0.15429422E+04</pdfrwt>
<pdfrwt beam="2">  1       -2 0.22966440E-01 0.15429422E+04</pdfrwt>
<totfact> 0.14662153E+01</totfact>
</mgrwt>
</event>
<event>
 8    2  0.7085383E-010  0.1943309E+04  0.7818608E-02  0.8633594E-01
         -2   -1    0    0    0  501 -0.00000000000E+00  0.00000000000E+00  0.52245401981E+03  0.52245401982E+03  0.25500000000E-02 0. -1.
          2   -1    0    0  501    0  0.00000000000E+00 -0.00000000000E+00 -0.18070730441E+04  0.18070730441E+04  0.25500000000E-02 0.  1.
    -200001    2    1    2    0    0  0.62249909141E+03  0.25545142382E+03 -0.59551491900E+03  0.11388864730E+04  0.69975983804E+03 0.  0.
   -5000001    2    3    3    0    0  0.15806692013E+03  0.24469963052E+02 -0.80860297864E+02  0.25349443782E+03  0.17926826798E+03 0.  0.
     200001    1    1    2    0    0 -0.62249909141E+03 -0.25545142382E+03 -0.68910410525E+03  0.11906405909E+04  0.70000000000E+03 0. -1.
         11    1    4    4    0    0  0.28575257777E+02  0.74621200184E+02  0.16075899929E+02  0.81506462521E+02  0.51100000000E-03 0.  1.
    -200002    1    4    4    0    0  0.12949166236E+03 -0.50151237132E+02 -0.96936197793E+02  0.17198797530E+03  0.30000000000E+02 0.  1.
    -200000    1    3    3    0    0  0.46443217128E+03  0.23098146077E+03 -0.51465462114E+03  0.88539203520E+03  0.50000000000E+03 0.  1.
<mgrwt>
<rscale>  0 0.19433091E+04</rscale>
<asrwt>0</asrwt>
<pdfrwt beam="1">  1        2 0.25815329E+00 0.19433091E+04</pdfrwt>
<pdfrwt beam="2">  1       -2 0.74636289E-01 0.19433091E+04</pdfrwt>
<totfact> 0.15257260E+01</totfact>
</mgrwt>
</event>
<event>
 8    2  0.7085383E-010  0.2574711E+04  0.7818608E-02  0.8376842E-01
         -2   -1    0    0    0  501 -0.00000000000E+00  0.00000000000E+00  0.89758511733E+03  0.89758511733E+03  0.25500000000E-02 0. -1.
          2   -1    0    0  501    0  0.00000000000E+00 -0.00000000000E+00 -0.18463810446E+04  0.18463810446E+04  0.25500000000E-02 0.  1.
    -200001    2    1    2    0    0 -0.80943441212E+03  0.23123465476E+03  0.24606237245E+03  0.11233675412E+04  0.70196467747E+03 0.  0.
   -5000001    2    3    3    0    0 -0.24430561435E+03  0.10155551393E+03  0.14622435676E+03  0.35125688397E+03  0.17888845804E+03 0.  0.
     200001    1    1    2    0    0  0.80943441212E+03 -0.23123465476E+03 -0.11948582998E+04  0.16205986208E+04  0.70000000000E+03 0.  1.
         11    1    4    4    0    0 -0.20408961365E+03  0.89432940983E+01  0.13603719188E+03  0.24543567484E+03  0.51100000000E-03 0.  1.
    -200002    1    4    4    0    0 -0.40216000694E+02  0.92612219828E+02  0.10187164873E+02  0.10582120913E+03  0.30000000000E+02 0. -1.
    -200000    1    3    3    0    0 -0.56512879778E+03  0.12967914084E+03  0.99838015698E+02  0.77211065724E+03  0.50000000000E+03 0. -1.
<mgrwt>
<rscale>  0 0.25747110E+04</rscale>
<asrwt>0</asrwt>
<pdfrwt beam="1">  1        2 0.26376872E+00 0.25747110E+04</pdfrwt>
<pdfrwt beam="2">  1       -2 0.12822645E+00 0.25747110E+04</pdfrwt>
<totfact> 0.38634044E+00</totfact>
</mgrwt>
</event>
<event>
 8    2  0.7085383E-010  0.1479199E+04  0.7818608E-02  0.8898404E-01
         -2   -1    0    0    0  501 -0.00000000000E+00  0.00000000000E+00  0.48094180153E+03  0.48094180154E+03  0.25500000000E-02 0. -1.
          2   -1    0    0  501    0  0.00000000000E+00 -0.00000000000E+00 -0.11373670822E+04  0.11373670822E+04  0.25500000000E-02 0.  1.
    -200001    2    1    2    0    0 -0.20898377759E+03  0.10085773597E+03 -0.39126409978E+03  0.83462721748E+03  0.69976317007E+03 0.  0.
   -5000001    2    3    3    0    0 -0.12745809631E+03 -0.23584934023E+02 -0.23814642595E+03  0.29095687908E+03  0.10554795053E+03 0.  0.
     200001    1    1    2    0    0  0.20898377759E+03 -0.10085773597E+03 -0.26516118092E+03  0.78368166628E+03  0.70000000000E+03 0. -1.
         11    1    4    4    0    0 -0.74472345024E+01 -0.59837655359E+01 -0.11542580461E+03  0.11582047799E+03  0.51100000000E-03 0.  1.
    -200002    1    4    4    0    0 -0.12001086181E+03 -0.17601168488E+02 -0.12272062134E+03  0.17513640109E+03  0.30000000000E+02 0.  1.
    -200000    1    3    3    0    0 -0.81525681274E+02  0.12444266999E+03 -0.15311767383E+03  0.54367033840E+03  0.50000000000E+03 0. -1.
<mgrwt>
<rscale>  0 0.14791989E+04</rscale>
<asrwt>0</asrwt>
<pdfrwt beam="1">  1        2 0.16248101E+00 0.14791989E+04</pdfrwt>
<pdfrwt beam="2">  1       -2 0.68705972E-01 0.14791989E+04</pdfrwt>
<totfact> 0.43594541E+01</totfact>
</mgrwt>
</event>
<event>
 8    2  0.7085383E-010  0.1462826E+04  0.7818608E-02  0.8909556E-01
         -2   -1    0    0    0  501 -0.00000000000E+00  0.00000000000E+00  0.26796808196E+03  0.26796808197E+03  0.25500000000E-02 0. -1.
          2   -1    0    0  501    0  0.00000000000E+00 -0.00000000000E+00 -0.19963764906E+04  0.19963764906E+04  0.25500000000E-02 0.  1.
    -200001    2    1    2    0    0 -0.18938280415E+03  0.72801731132E+02 -0.77467362861E+03  0.10640212956E+04  0.70061126748E+03 0.  0.
   -5000001    2    3    3    0    0 -0.61465402031E+02 -0.95762886879E+01 -0.13741856867E+03  0.23985929011E+03  0.18649105899E+03 0.  0.
     200001    1    1    2    0    0  0.18938280415E+03 -0.72801731132E+02 -0.95373478003E+03  0.12003232770E+04  0.70000000000E+03 0.  1.
         11    1    4    4    0    0  0.48586994386E+02 -0.55379310854E+02 -0.51445218641E+02  0.89856411098E+02  0.51100000000E-03 0.  1.
    -200002    1    4    4    0    0 -0.11005239642E+03  0.45803022166E+02 -0.85973350033E+02  0.15000287901E+03  0.30000000000E+02 0.  1.
    -200000    1    3    3    0    0 -0.12791740212E+03  0.82378019820E+02 -0.63725505994E+03  0.82416200551E+03  0.50000000000E+03 0. -1.
<mgrwt>
<rscale>  0 0.14628263E+04</rscale>
<asrwt>0</asrwt>
<pdfrwt beam="1">  1        2 0.28519663E+00 0.14628263E+04</pdfrwt>
<pdfrwt beam="2">  1       -2 0.38281156E-01 0.14628263E+04</pdfrwt>
<totfact> 0.50368768E+01</totfact>
</mgrwt>
</event>
<event>
 8    2  0.7085383E-010  0.2807791E+04  0.7818608E-02  0.8300854E-01
          2   -1    0    0  501    0  0.00000000000E+00  0.00000000000E+00  0.76388598384E+03  0.76388598385E+03  0.25500000000E-02 0.  1.
         -2   -1    0    0    0  501 -0.00000000000E+00 -0.00000000000E+00 -0.25801268264E+04  0.25801268264E+04  0.25500000000E-02 0. -1.
    -200001    2    1    2    0    0  0.10856137547E+04 -0.22180559174E+02 -0.25395739604E+03  0.13167538804E+04  0.70021226854E+03 0.  0.
   -5000001    2    3    3    0    0  0.19894257217E+03  0.41672526168E+02 -0.12024588681E+03  0.28809369838E+03  0.16499745238E+03 0.  0.
     200001    1    1    2    0    0 -0.10856137547E+04  0.22180559174E+02 -0.15622834466E+04  0.20272589299E+04  0.70000000000E+03 0. -1.
         11    1    4    4    0    0 -0.12699520223E+02 -0.32935562852E+02 -0.18921324707E+02  0.40050538613E+02  0.51100000000E-03 0.  1.
    -200002    1    4    4    0    0  0.21164209239E+03  0.74608089020E+02 -0.10132456210E+03  0.24804315976E+03  0.30000000000E+02 0.  1.
    -200000    1    3    3    0    0  0.88667118248E+03 -0.63853085342E+02 -0.13371150923E+03  0.10286601820E+04  0.50000000000E+03 0.  1.
<mgrwt>
<rscale>  0 0.28077911E+04</rscale>
<asrwt>0</asrwt>
<pdfrwt beam="1">  1        2 0.10912657E+00 0.28077911E+04</pdfrwt>
<pdfrwt beam="2">  1       -2 0.36858954E+00 0.28077911E+04</pdfrwt>
<totfact> 0.41797903E-01</totfact>
</mgrwt>
</event>
<event>
 8    2  0.7085383E-010  0.1680093E+04  0.7818608E-02  0.8772800E-01
          2   -1    0    0  501    0  0.00000000000E+00  0.00000000000E+00  0.11917642193E+04  0.11917642193E+04  0.25500000000E-02 0.  1.
         -2   -1    0    0    0  501 -0.00000000000E+00 -0.00000000000E+00 -0.59212894608E+03  0.59212894609E+03  0.25500000000E-02 0. -1.
    -200001    2    1    2    0    0 -0.10799871972E+03 -0.19193540459E+03 -0.13454643229E+03  0.74585381177E+03  0.69978013911E+03 0.  0.
   -5000001    2    3    3    0    0 -0.41623601419E+02 -0.42200211288E+02 -0.42450956666E+01  0.20381624594E+03  0.19496066076E+03 0.  0.
     200001    1    1    2    0    0  0.10799871972E+03  0.19193540459E+03  0.73418170554E+03  0.10380393537E+04  0.70000000000E+03 0. -1.
         11    1    4    4    0    0  0.84371463771E+01 -0.10791298941E+03  0.25181923821E+02  0.11113292946E+03  0.51100000000E-03 0.  1.
    -200002    1    4    4    0    0 -0.50060747797E+02  0.65712778123E+02 -0.29427019488E+02  0.92683316484E+02  0.30000000000E+02 0.  1.
    -200000    1    3    3    0    0 -0.66375118297E+02 -0.14973519331E+03 -0.13030133662E+03  0.54203756583E+03  0.50000000000E+03 0. -1.
<mgrwt>
<rscale>  0 0.16800930E+04</rscale>
<asrwt>0</asrwt>
<pdfrwt beam="1">  1        2 0.17025203E+00 0.16800930E+04</pdfrwt>
<pdfrwt beam="2">  1       -2 0.84589851E-01 0.16800930E+04</pdfrwt>
<totfact> 0.25151987E+01</totfact>
</mgrwt>
</event>
<event>
 8    2  0.7085383E-010  0.2335820E+04  0.7818608E-02  0.8463930E-01
          2   -1    0    0  501    0  0.00000000000E+00  0.00000000000E+00  0.24773601504E+04  0.24773601504E+04  0.25500000000E-02 0.  1.
         -2   -1    0    0    0  501 -0.00000000000E+00 -0.00000000000E+00 -0.55059141959E+03  0.55059141960E+03  0.25500000000E-02 0. -1.
    -200001    2    1    2    0    0 -0.17869895269E+03 -0.33867800447E+03 -0.14212677493E+03  0.81052857921E+03  0.70008603126E+03 0.  0.
   -5000001    2    3    3    0    0 -0.89634551744E+02 -0.10146870797E+03 -0.83526866342E+02  0.24693771063E+03  0.18886832441E+03 0.  0.
     200001    1    1    2    0    0  0.17869895269E+03  0.33867800447E+03  0.20688955058E+04  0.22174229908E+04  0.70000000000E+03 0.  1.
         11    1    4    4    0    0  0.37654816285E+02  0.97422041021E+01  0.22724996165E+02  0.45046877596E+02  0.51100000000E-03 0.  1.
    -200002    1    4    4    0    0 -0.12728936803E+03 -0.11121091207E+03 -0.10625186251E+03  0.20189083303E+03  0.30000000000E+02 0.  1.
    -200000    1    3    3    0    0 -0.89064400943E+02 -0.23720929650E+03 -0.58599908590E+02  0.56359086858E+03  0.50000000000E+03 0. -1.
<mgrwt>
<rscale>  0 0.23358195E+04</rscale>
<asrwt>0</asrwt>
<pdfrwt beam="1">  1        2 0.35390860E+00 0.23358195E+04</pdfrwt>
<pdfrwt beam="2">  1       -2 0.78655916E-01 0.23358195E+04</pdfrwt>
<totfact> 0.59099212E+00</totfact>
</mgrwt>
</event>
<event>
 8    2  0.7085383E-010  0.1722144E+04  0.7818608E-02  0.8748834E-01
          2   -1    0    0  501    0  0.00000000000E+00  0.00000000000E+00  0.17479723322E+04  0.17479723322E+04  0.25500000000E-02 0.  1.
         -2   -1    0    0    0  501 -0.00000000000E+00 -0.00000000000E+00 -0.42417452874E+03  0.42417452875E+03  0.25500000000E-02 0. -1.
    -200001    2    1    2    0    0  0.46805607955E+03 -0.96631001046E+02  0.45963717174E+03  0.96169750580E+03  0.69654986832E+03 0.  0.
   -5000001    2    3    3    0    0  0.11625824976E+03 -0.10844731302E+03  0.14501149914E+03  0.27402705266E+03  0.16966346208E+03 0.  0.
     200001    1    1    2    0    0 -0.46805607955E+03  0.96631001046E+02  0.86416063172E+03  0.12104493551E+04  0.70000000000E+03 0. -1.
         11    1    4    4    0    0  0.10149074065E+02 -0.89558665242E+02  0.13416310544E+03  0.16162764951E+03  0.51100000000E-03 0.  1.
    -200002    1    4    4    0    0  0.10610917570E+03 -0.18888647777E+02  0.10848393701E+02  0.11239940315E+03  0.30000000000E+02 0.  1.
    -200000    1    3    3    0    0  0.35179782979E+03  0.11816311973E+02  0.31462567260E+03  0.68767045315E+03  0.50000000000E+03 0. -1.
<mgrwt>
<rscale>  0 0.17221444E+04</rscale>
<asrwt>0</asrwt>
<pdfrwt beam="1">  1        2 0.24971034E+00 0.17221444E+04</pdfrwt>
<pdfrwt beam="2">  1       -2 0.60596361E-01 0.17221444E+04</pdfrwt>
<totfact> 0.26154629E+01</totfact>
</mgrwt>
</event>
<event>
 8    2  0.7085383E-010  0.1757056E+04  0.7818608E-02  0.8729476E-01
         -2   -1    0    0    0  501 -0.00000000000E+00  0.00000000000E+00  0.66371000631E+03  0.66371000631E+03  0.25500000000E-02 0. -1.
          2   -1    0    0  501    0  0.00000000000E+00 -0.00000000000E+00 -0.11628740160E+04  0.11628740160E+04  0.25500000000E-02 0.  1.
    -200001    2    1    2    0    0  0.21008226229E+03 -0.32024891428E+03 -0.63165441602E+03  0.10177282677E+04  0.70006399815E+03 0.  0.
   -5000001    2    3    3    0    0  0.17294273902E+03 -0.10391873866E+03 -0.24252210622E+03  0.34720455921E+03  0.14500254724E+03 0.  0.
     200001    1    1    2    0    0 -0.21008226229E+03  0.32024891428E+03  0.13249040634E+03  0.80885575463E+03  0.70000000000E+03 0.  1.
         11    1    4    4    0    0  0.63780408147E+02  0.23234261594E+02 -0.28231644323E+02  0.73517325282E+02  0.51100000000E-03 0.  1.
    -200002    1    4    4    0    0  0.10916233088E+03 -0.12715300025E+03 -0.21429046190E+03  0.27368723393E+03  0.30000000000E+02 0.  1.
    -200000    1    3    3    0    0  0.37139523269E+02 -0.21633017562E+03 -0.38913230980E+03  0.67052370846E+03  0.50000000000E+03 0.  1.
<mgrwt>
<rscale>  0 0.17570556E+04</rscale>
<asrwt>0</asrwt>
<pdfrwt beam="1">  1        2 0.16612486E+00 0.17570556E+04</pdfrwt>
<pdfrwt beam="2">  1       -2 0.94815715E-01 0.17570556E+04</pdfrwt>
<totfact> 0.19970889E+01</totfact>
</mgrwt>
</event>
<event>
 8    2  0.7085383E-010  0.3878774E+04  0.7818608E-02  0.8029458E-01
          2   -1    0    0  501    0  0.00000000000E+00  0.00000000000E+00  0.23178384169E+04  0.23178384169E+04  0.25500000000E-02 0.  1.
         -2   -1    0    0    0  501 -0.00000000000E+00 -0.00000000000E+00 -0.16227278990E+04  0.16227278990E+04  0.25500000000E-02 0. -1.
    -200001    2    1    2    0    0  0.10376178532E+04  0.88397933957E+03 -0.86017319066E+03  0.17572253677E+04  0.69990913181E+03 0.  0.
   -5000001    2    3    3    0    0  0.40088421246E+03  0.28838761038E+03 -0.28093643263E+03  0.59719327373E+03  0.18395369359E+03 0.  0.
     200001    1    1    2    0    0 -0.10376178532E+04 -0.88397933957E+03  0.15552837086E+04  0.21833409483E+04  0.70000000000E+03 0.  1.
         11    1    4    4    0    0  0.14635744288E+03  0.53237199707E+02 -0.17352570514E+03  0.23316490058E+03  0.51100000000E-03 0.  1.
    -200002    1    4    4    0    0  0.25452676959E+03  0.23515041067E+03 -0.10741072748E+03  0.36402837315E+03  0.30000000000E+02 0.  1.
    -200000    1    3    3    0    0  0.63673364077E+03  0.59559172919E+03 -0.57923675803E+03  0.11600320940E+04  0.50000000000E+03 0. -1.
<mgrwt>
<rscale>  0 0.38787736E+04</rscale>
<asrwt>0</asrwt>
<pdfrwt beam="1">  1        2 0.33111977E+00 0.38787736E+04</pdfrwt>
<pdfrwt beam="2">  1       -2 0.23181827E+00 0.38787736E+04</pdfrwt>
<totfact> 0.36853204E-01</totfact>
</mgrwt>
</event>
<event>
 8    2  0.7085383E-010  0.1635655E+04  0.7818608E-02  0.8798939E-01
          2   -1    0    0  501    0  0.00000000000E+00  0.00000000000E+00  0.57801611743E+03  0.57801611744E+03  0.25500000000E-02 0.  1.
         -2   -1    0    0    0  501 -0.00000000000E+00 -0.00000000000E+00 -0.11571328639E+04  0.11571328639E+04  0.25500000000E-02 0. -1.
    -200001    2    1    2    0    0 -0.96330608170E+02 -0.18988116127E+03  0.98762040682E+02  0.73772525417E+03  0.69939271406E+03 0.  0.
   -5000001    2    3    3    0    0 -0.22813332713E+02 -0.11587107837E+02  0.85794490119E+02  0.20166395483E+03  0.18070126432E+03 0.  0.
     200001    1    1    2    0    0  0.96330608170E+02  0.18988116127E+03 -0.67787878720E+03  0.99742372721E+03  0.70000000000E+03 0. -1.
         11    1    4    4    0    0 -0.47448196134E+02  0.51157384622E+02  0.10440250890E+03  0.12557186462E+03  0.51100000000E-03 0.  1.
    -200002    1    4    4    0    0  0.24634863421E+02 -0.62744492459E+02 -0.18608018785E+02  0.76092090212E+02  0.30000000000E+02 0.  1.
    -200000    1    3    3    0    0 -0.73517275457E+02 -0.17829405344E+03  0.12967550563E+02  0.53606129934E+03  0.50000000000E+03 0. -1.
<mgrwt>
<rscale>  0 0.16356545E+04</rscale>
<asrwt>0</asrwt>
<pdfrwt beam="1">  1        2 0.82573731E-01 0.16356545E+04</pdfrwt>
<pdfrwt beam="2">  1       -2 0.16530469E+00 0.16356545E+04</pdfrwt>
<totfact> 0.12513653E+01</totfact>
</mgrwt>
</event>
<event>
 8    2  0.7085383E-010  0.1438065E+04  0.7818608E-02  0.8926717E-01
          2   -1    0    0  501    0  0.00000000000E+00  0.00000000000E+00  0.58609815501E+03  0.58609815501E+03  0.25500000000E-02 0.  1.
         -2   -1    0    0    0  501 -0.00000000000E+00 -0.00000000000E+00 -0.88211809157E+03  0.88211809158E+03  0.25500000000E-02 0. -1.
    -200001    2    1    2    0    0 -0.20319368553E+02  0.46356712852E+02 -0.11694095766E+02  0.71098246148E+03  0.70908214411E+03 0.  0.
   -5000001    2    3    3    0    0  0.60333512700E+02 -0.16439048743E+02  0.23666244974E+02  0.19941765755E+03  0.18787478786E+03 0.  0.
     200001    1    1    2    0    0  0.20319368553E+02 -0.46356712852E+02 -0.28432584080E+03  0.75723378511E+03  0.70000000000E+03 0. -1.
         11    1    4    4    0    0 -0.30428998030E+02 -0.78139404852E+02  0.16136774355E+02  0.85393711704E+02  0.51100000000E-03 0.  1.
    -200002    1    4    4    0    0  0.90762510730E+02  0.61700356109E+02  0.75294706190E+01  0.11402394584E+03  0.30000000000E+02 0.  1.
    -200000    1    3    3    0    0 -0.80652881253E+02  0.62795761595E+02 -0.35360340740E+02  0.51156480394E+03  0.50000000000E+03 0.  1.
<mgrwt>
<rscale>  0 0.14380651E+04</rscale>
<asrwt>0</asrwt>
<pdfrwt beam="1">  1        2 0.83728308E-01 0.14380651E+04</pdfrwt>
<pdfrwt beam="2">  1       -2 0.12601687E+00 0.14380651E+04</pdfrwt>
<totfact> 0.25480681E+01</totfact>
</mgrwt>
</event>
<event>
 8    2  0.7085383E-010  0.1634528E+04  0.7818608E-02  0.8799612E-01
          2   -1    0    0  501    0  0.00000000000E+00  0.00000000000E+00  0.24064340296E+04  0.24064340296E+04  0.25500000000E-02 0.  1.
         -2   -1    0    0    0  501 -0.00000000000E+00 -0.00000000000E+00 -0.27755612508E+03  0.27755612509E+03  0.25500000000E-02 0. -1.
    -200001    2    1    2    0    0 -0.39138435394E+03  0.56321743627E+02  0.89766365543E+03  0.12135336343E+04  0.71449981938E+03 0.  0.
   -5000001    2    3    3    0    0 -0.16287219517E+03  0.69763367366E+02  0.29879943943E+03  0.40049191752E+03  0.19929473553E+03 0.  0.
     200001    1    1    2    0    0  0.39138435394E+03 -0.56321743627E+02  0.12312142491E+04  0.14704565204E+04  0.70000000000E+03 0.  1.
         11    1    4    4    0    0 -0.11493368105E+03  0.67020743486E+02  0.31471212314E+03  0.34168004266E+03  0.51100000000E-03 0.  1.
    -200002    1    4    4    0    0 -0.47938514128E+02  0.27426238803E+01 -0.15912683713E+02  0.58811874868E+02  0.30000000000E+02 0.  1.
    -200000    1    3    3    0    0 -0.22851215876E+03 -0.13441623739E+02  0.59886421600E+03  0.81304171674E+03  0.50000000000E+03 0.  1.
<mgrwt>
<rscale>  0 0.16345281E+04</rscale>
<asrwt>0</asrwt>
<pdfrwt beam="1">  1        2 0.34377628E+00 0.16345281E+04</pdfrwt>
<pdfrwt beam="2">  1       -2 0.39650876E-01 0.16345281E+04</pdfrwt>
<totfact> 0.28488658E+01</totfact>
</mgrwt>
</event>
<event>
 8    2  0.7085383E-010  0.1587360E+04  0.7818608E-02  0.8828351E-01
         -2   -1    0    0    0  501 -0.00000000000E+00  0.00000000000E+00  0.12158277496E+04  0.12158277496E+04  0.25500000000E-02 0. -1.
          2   -1    0    0  501    0  0.00000000000E+00 -0.00000000000E+00 -0.51810605881E+03  0.51810605882E+03  0.25500000000E-02 0.  1.
    -200001    2    1    2    0    0 -0.34070588763E+03  0.13184014623E+03  0.43833697457E+03  0.90282445519E+03  0.69963588215E+03 0.  0.
   -5000001    2    3    3    0    0 -0.13520468002E+02  0.16426534336E+02  0.41461688893E+02  0.17627053909E+03  0.16999881534E+03 0.  0.
     200001    1    1    2    0    0  0.34070588763E+03 -0.13184014623E+03  0.25938471623E+03  0.83110935324E+03  0.70000000000E+03 0. -1.
         11    1    4    4    0    0 -0.56052325544E+02  0.44101918613E+02  0.78962869274E+02  0.10640477973E+03  0.51100000000E-03 0.  1.
    -200002    1    4    4    0    0  0.42531857542E+02 -0.27675384277E+02 -0.37501180381E+02  0.69865759359E+02  0.30000000000E+02 0.  1.
    -200000    1    3    3    0    0 -0.32718541963E+03  0.11541361189E+03  0.39687528567E+03  0.72655391610E+03  0.50000000000E+03 0.  1.
<mgrwt>
<rscale>  0 0.15873597E+04</rscale>
<asrwt>0</asrwt>
<pdfrwt beam="1">  1        2 0.74015151E-01 0.15873597E+04</pdfrwt>
<pdfrwt beam="2">  1       -2 0.17368968E+00 0.15873597E+04</pdfrwt>
<totfact> 0.12430942E+01</totfact>
</mgrwt>
</event>
<event>
 8    2  0.7085383E-010  0.1979025E+04  0.7818608E-02  0.8616490E-01
          2   -1    0    0  501    0  0.00000000000E+00  0.00000000000E+00  0.21921278886E+04  0.21921278886E+04  0.25500000000E-02 0. -1.
         -2   -1    0    0    0  501 -0.00000000000E+00 -0.00000000000E+00 -0.44665977855E+03  0.44665977855E+03  0.25500000000E-02 0.  1.
    -200001    2    1    2    0    0  0.21128266555E+03 -0.42942410373E+02  0.17603156738E+04  0.19061862301E+04  0.69882061880E+03 0.  0.
   -5000001    2    3    3    0    0  0.15255417137E+03  0.12641642705E+02  0.55585733060E+03  0.59956519731E+03  0.16452497535E+03 0.  0.
     200001    1    1    2    0    0 -0.21128266555E+03  0.42942410373E+02 -0.14847563718E+02  0.73260143702E+03  0.70000000000E+03 0.  1.
         11    1    4    4    0    0 -0.26793006065E+02 -0.17312537448E+02  0.36473428539E+02  0.48455135089E+02  0.51100000000E-03 0.  1.
    -200002    1    4    4    0    0  0.17934717744E+03  0.29954180153E+02  0.51938390206E+03  0.55111006222E+03  0.30000000000E+02 0.  1.
    -200000    1    3    3    0    0  0.58728494183E+02 -0.55584053078E+02  0.12044583432E+04  0.13066210328E+04  0.50000000000E+03 0. -1.
<mgrwt>
<rscale>  0 0.19790254E+04</rscale>
<asrwt>0</asrwt>
<pdfrwt beam="1">  1        2 0.31316113E+00 0.19790254E+04</pdfrwt>
<pdfrwt beam="2">  1       -2 0.63808539E-01 0.19790254E+04</pdfrwt>
<totfact> 0.13544446E+01</totfact>
</mgrwt>
</event>
<event>
 8    2  0.7085383E-010  0.1472327E+04  0.7818608E-02  0.8903067E-01
         -2   -1    0    0    0  501 -0.00000000000E+00  0.00000000000E+00  0.12470577006E+04  0.12470577006E+04  0.25500000000E-02 0. -1.
          2   -1    0    0  501    0  0.00000000000E+00 -0.00000000000E+00 -0.43457224938E+03  0.43457224938E+03  0.25500000000E-02 0.  1.
    -200001    2    1    2    0    0 -0.12069399883E+03 -0.12333368376E+03  0.24448523144E+03  0.76380508186E+03  0.70274243915E+03 0.  0.
   -5000001    2    3    3    0    0  0.13337385796E+02  0.33154690169E+02  0.15151336521E+03  0.21508220905E+03  0.14841474816E+03 0.  0.
     200001    1    1    2    0    0  0.12069399883E+03  0.12333368376E+03  0.56800021982E+03  0.91782486817E+03  0.70000000000E+03 0.  1.
         11    1    4    4    0    0 -0.63081963503E+02  0.11574053516E+02  0.42590265267E+02  0.76988463616E+02  0.51100000000E-03 0.  1.
    -200002    1    4    4    0    0  0.76419349299E+02  0.21580636653E+02  0.10892309994E+03  0.13809374543E+03  0.30000000000E+02 0.  1.
    -200000    1    3    3    0    0 -0.13403138463E+03 -0.15648837392E+03  0.92971866230E+02  0.54872287281E+03  0.50000000000E+03 0. -1.
<mgrwt>
<rscale>  0 0.14723270E+04</rscale>
<asrwt>0</asrwt>
<pdfrwt beam="1">  1        2 0.62081750E-01 0.14723270E+04</pdfrwt>
<pdfrwt beam="2">  1       -2 0.17815110E+00 0.14723270E+04</pdfrwt>
<totfact> 0.14255395E+01</totfact>
</mgrwt>
</event>
<event>
 8    2  0.7085383E-010  0.1643131E+04  0.7818608E-02  0.8794481E-01
          2   -1    0    0  501    0  0.00000000000E+00  0.00000000000E+00  0.10151872448E+04  0.10151872448E+04  0.25500000000E-02 0.  1.
         -2   -1    0    0    0  501 -0.00000000000E+00 -0.00000000000E+00 -0.66487196297E+03  0.66487196297E+03  0.25500000000E-02 0. -1.
    -200001    2    1    2    0    0  0.25340712140E+03 -0.34452005071E+03  0.21438197031E+03  0.84856230477E+03  0.70084885772E+03 0.  0.
   -5000001    2    3    3    0    0  0.54594447185E+02 -0.14026106191E+03  0.16699378996E+03  0.27107303771E+03  0.15145938972E+03 0.  0.
     200001    1    1    2    0    0 -0.25340712140E+03  0.34452005071E+03  0.13593331152E+03  0.83149690300E+03  0.70000000000E+03 0. -1.
         11    1    4    4    0    0  0.67362352747E+02 -0.13877027720E+03  0.71244037465E+02  0.16991347585E+03  0.51100000000E-03 0.  1.
    -200002    1    4    4    0    0 -0.12767905562E+02 -0.14907847102E+01  0.95749752497E+02  0.10115956186E+03  0.30000000000E+02 0.  1.
    -200000    1    3    3    0    0  0.19881267422E+03 -0.20425898880E+03  0.47388180349E+02  0.57748926706E+03  0.50000000000E+03 0.  1.
<mgrwt>
<rscale>  0 0.16431306E+04</rscale>
<asrwt>0</asrwt>
<pdfrwt beam="1">  1        2 0.14502675E+00 0.16431306E+04</pdfrwt>
<pdfrwt beam="2">  1       -2 0.94981708E-01 0.16431306E+04</pdfrwt>
<totfact> 0.24560341E+01</totfact>
</mgrwt>
</event>
<event>
 8    2  0.7085383E-010  0.1557203E+04  0.7818608E-02  0.8847280E-01
          2   -1    0    0  501    0  0.00000000000E+00  0.00000000000E+00  0.50233980343E+03  0.50233980344E+03  0.25500000000E-02 0.  1.
         -2   -1    0    0    0  501 -0.00000000000E+00 -0.00000000000E+00 -0.12067933725E+04  0.12067933725E+04  0.25500000000E-02 0. -1.
    -200001    2    1    2    0    0  0.32209373630E+03 -0.11309109831E+03 -0.29900686741E+03  0.83111210596E+03  0.69628173496E+03 0.  0.
   -5000001    2    3    3    0    0  0.39296291035E+02  0.68227033686E+02 -0.54122457967E+02  0.18086674149E+03  0.15357216904E+03 0.  0.
     200001    1    1    2    0    0 -0.32209373630E+03  0.11309109831E+03 -0.40544670170E+03  0.87802107002E+03  0.70000000000E+03 0.  1.
         11    1    4    4    0    0  0.18890342315E+02  0.10997248879E+03 -0.57360135914E+02  0.12546305638E+03  0.51100000000E-03 0.  1.
    -200002    1    4    4    0    0  0.20405948720E+02 -0.41745455104E+02  0.32376779468E+01  0.55403685108E+02  0.30000000000E+02 0.  1.
    -200000    1    3    3    0    0  0.28279744526E+03 -0.18131813199E+03 -0.24488440944E+03  0.65024536448E+03  0.50000000000E+03 0.  1.
<mgrwt>
<rscale>  0 0.15572031E+04</rscale>
<asrwt>0</asrwt>
<pdfrwt beam="1">  1        2 0.71762829E-01 0.15572031E+04</pdfrwt>
<pdfrwt beam="2">  1       -2 0.17239905E+00 0.15572031E+04</pdfrwt>
<totfact> 0.13183292E+01</totfact>
</mgrwt>
</event>
<event>
 8    2  0.7085383E-010  0.1956343E+04  0.7818608E-02  0.8627308E-01
         -2   -1    0    0    0  501 -0.00000000000E+00  0.00000000000E+00  0.11717575066E+04  0.11717575066E+04  0.25500000000E-02 0. -1.
          2   -1    0    0  501    0  0.00000000000E+00 -0.00000000000E+00 -0.81656778630E+03  0.81656778631E+03  0.25500000000E-02 0.  1.
    -200001    2    1    2    0    0  0.35601189636E+03  0.25382375288E+03 -0.35581537337E+03  0.89896804613E+03  0.70026280792E+03 0.  0.
   -5000001    2    3    3    0    0  0.20816032137E+02  0.24474126854E+02 -0.18787308570E+03  0.23326380974E+03  0.13447460180E+03 0.  0.
     200001    1    1    2    0    0 -0.35601189636E+03 -0.25382375288E+03  0.71100509366E+03  0.10893572468E+04  0.70000000000E+03 0. -1.
         11    1    4    4    0    0  0.67911366266E+02  0.40657013546E+02 -0.94471673209E+02  0.12324708296E+03  0.51100000000E-03 0.  1.
    -200002    1    4    4    0    0 -0.47095334129E+02 -0.16182886692E+02 -0.93401412486E+02  0.11001672679E+03  0.30000000000E+02 0.  1.
    -200000    1    3    3    0    0  0.33519586423E+03  0.22934962602E+03 -0.16794228767E+03  0.66570423639E+03  0.50000000000E+03 0.  1.
<mgrwt>
<rscale>  0 0.19563429E+04</rscale>
<asrwt>0</asrwt>
<pdfrwt beam="1">  1        2 0.11665254E+00 0.19563429E+04</pdfrwt>
<pdfrwt beam="2">  1       -2 0.16739393E+00 0.19563429E+04</pdfrwt>
<totfact> 0.77017108E+00</totfact>
</mgrwt>
</event>
<event>
 8    2  0.7085383E-010  0.2415841E+04  0.7818608E-02  0.8433597E-01
          2   -1    0    0  501    0  0.00000000000E+00  0.00000000000E+00  0.11738711501E+04  0.11738711501E+04  0.25500000000E-02 0.  1.
         -2   -1    0    0    0  501 -0.00000000000E+00 -0.00000000000E+00 -0.12429572622E+04  0.12429572622E+04  0.25500000000E-02 0. -1.
    -200001    2    1    2    0    0 -0.91829680753E+03  0.13817381939E+03 -0.36023690961E+03  0.12180249180E+04  0.70103711649E+03 0.  0.
   -5000001    2    3    3    0    0 -0.22259475100E+03 -0.49765585393E+02 -0.13375478532E+03  0.31214593934E+03  0.16589065129E+03 0.  0.
     200001    1    1    2    0    0  0.91829680753E+03 -0.13817381939E+03  0.29115079747E+03  0.11988034943E+04  0.70000000000E+03 0.  1.
         11    1    4    4    0    0 -0.18567717007E+03  0.31042020667E+02 -0.90683855790E+02  0.20895736463E+03  0.51100000000E-03 0.  1.
    -200002    1    4    4    0    0 -0.36917580928E+02 -0.80807606060E+02 -0.43070929533E+02  0.10318857470E+03  0.30000000000E+02 0.  1.
    -200000    1    3    3    0    0 -0.69570205653E+03  0.18793940478E+03 -0.22648212428E+03  0.90587897864E+03  0.50000000000E+03 0.  1.
<mgrwt>
<rscale>  0 0.24158408E+04</rscale>
<asrwt>0</asrwt>
<pdfrwt beam="1">  1        2 0.16769588E+00 0.24158408E+04</pdfrwt>
<pdfrwt beam="2">  1       -2 0.17756532E+00 0.24158408E+04</pdfrwt>
<totfact> 0.37654420E+00</totfact>
</mgrwt>
</event>
<event>
 8    2  0.7085383E-010  0.2438879E+04  0.7818608E-02  0.8425090E-01
          2   -1    0    0  501    0  0.00000000000E+00  0.00000000000E+00  0.82175310260E+03  0.82175310260E+03  0.25500000000E-02 0.  1.
         -2   -1    0    0    0  501 -0.00000000000E+00 -0.00000000000E+00 -0.18095859295E+04  0.18095859295E+04  0.25500000000E-02 0. -1.
    -200001    2    1    2    0    0  0.61784074093E+03 -0.61145563599E+03 -0.10238028261E+04  0.15146927063E+04  0.70036889709E+03 0.  0.
   -5000001    2    3    3    0    0  0.26809453620E+03 -0.33898681845E+03 -0.39101913945E+03  0.59437924978E+03  0.11663610820E+03 0.  0.
     200001    1    1    2    0    0 -0.61784074093E+03  0.61145563599E+03  0.35969999201E+02  0.11166463257E+04  0.70000000000E+03 0.  1.
         11    1    4    4    0    0  0.82734241681E+02 -0.11255242018E+03 -0.61399510321E+02  0.15258735827E+03  0.51100000000E-03 0.  1.
    -200002    1    4    4    0    0  0.18536029452E+03 -0.22643439827E+03 -0.32961962913E+03  0.44179189152E+03  0.30000000000E+02 0.  1.
    -200000    1    3    3    0    0  0.34974620473E+03 -0.27246881754E+03 -0.63278368663E+03  0.92031345656E+03  0.50000000000E+03 0. -1.
<mgrwt>
<rscale>  0 0.24388791E+04</rscale>
<asrwt>0</asrwt>
<pdfrwt beam="1">  1        2 0.11739330E+00 0.24388791E+04</pdfrwt>
<pdfrwt beam="2">  1       -2 0.25851227E+00 0.24388791E+04</pdfrwt>
<totfact> 0.18834957E+00</totfact>
</mgrwt>
</event>
<event>
 8    2  0.7085383E-010  0.1875046E+04  0.7818608E-02  0.8667378E-01
          2   -1    0    0  501    0  0.00000000000E+00  0.00000000000E+00  0.65266303040E+03  0.65266303040E+03  0.25500000000E-02 0.  1.
         -2   -1    0    0    0  501 -0.00000000000E+00 -0.00000000000E+00 -0.13467126343E+04  0.13467126343E+04  0.25500000000E-02 0. -1.
    -200001    2    1    2    0    0 -0.30103326900E+03  0.87934958394E+01 -0.92949282964E+03  0.12017969117E+04  0.69975748806E+03 0.  0.
   -5000001    2    3    3    0    0 -0.13144406408E+03  0.43416288491E+02 -0.26708118787E+03  0.35400659606E+03  0.18661670089E+03 0.  0.
     200001    1    1    2    0    0  0.30103326900E+03 -0.87934958394E+01  0.23544322575E+03  0.79757875296E+03  0.70000000000E+03 0.  1.
         11    1    4    4    0    0 -0.12134507449E+03  0.24412313188E+02 -0.49487238231E+02  0.13330256894E+03  0.51100000000E-03 0.  1.
    -200002    1    4    4    0    0 -0.10098989594E+02  0.19003975304E+02 -0.21759394964E+03  0.22070402712E+03  0.30000000000E+02 0.  1.
    -200000    1    3    3    0    0 -0.16958920491E+03 -0.34622792652E+02 -0.66241164176E+03  0.84779031567E+03  0.50000000000E+03 0. -1.
<mgrwt>
<rscale>  0 0.18750462E+04</rscale>
<asrwt>0</asrwt>
<pdfrwt beam="1">  1        2 0.93237577E-01 0.18750462E+04</pdfrwt>
<pdfrwt beam="2">  1       -2 0.19238752E+00 0.18750462E+04</pdfrwt>
<totfact> 0.68928903E+00</totfact>
</mgrwt>
</event>
<event>
 8    2  0.7085383E-010  0.2160671E+04  0.7818608E-02  0.8534978E-01
          2   -1    0    0  501    0  0.00000000000E+00  0.00000000000E+00  0.12701839117E+04  0.12701839117E+04  0.25500000000E-02 0.  1.
         -2   -1    0    0    0  501 -0.00000000000E+00 -0.00000000000E+00 -0.91886283015E+03  0.91886283015E+03  0.25500000000E-02 0. -1.
    -200001    2    1    2    0    0 -0.40651806208E+03  0.88299213804E+01  0.90004992210E+03  0.12110701354E+04  0.70090377953E+03 0.  0.
   -5000001    2    3    3    0    0 -0.54093462062E+02 -0.15230966474E+02  0.78066704620E+02  0.18616114679E+03  0.15938468316E+03 0.  0.
     200001    1    1    2    0    0  0.40651806208E+03 -0.88299213804E+01 -0.54872884058E+03  0.97797660647E+03  0.70000000000E+03 0.  1.
         11    1    4    4    0    0 -0.24594609996E+02  0.69717356538E+02  0.39504549995E+02  0.83821322550E+02  0.51100000000E-03 0.  1.
    -200002    1    4    4    0    0 -0.29498852066E+02 -0.84948323012E+02  0.38562154626E+02  0.10233982424E+03  0.30000000000E+02 0.  1.
    -200000    1    3    3    0    0 -0.35242460002E+03  0.24060887855E+02  0.82198321748E+03  0.10249089886E+04  0.50000000000E+03 0.  1.
<mgrwt>
<rscale>  0 0.21606710E+04</rscale>
<asrwt>0</asrwt>
<pdfrwt beam="1">  1        2 0.18145485E+00 0.21606710E+04</pdfrwt>
<pdfrwt beam="2">  1       -2 0.13126612E+00 0.21606710E+04</pdfrwt>
<totfact> 0.76156260E+00</totfact>
</mgrwt>
</event>
<event>
 8    2  0.7085383E-010  0.1462325E+04  0.7818608E-02  0.8909900E-01
          2   -1    0    0  501    0  0.00000000000E+00  0.00000000000E+00  0.78020629794E+03  0.78020629794E+03  0.25500000000E-02 0.  1.
         -2   -1    0    0    0  501 -0.00000000000E+00 -0.00000000000E+00 -0.68520162108E+03  0.68520162108E+03  0.25500000000E-02 0. -1.
    -200001    2    1    2    0    0 -0.17505376116E+03  0.14554631947E+02  0.16675515084E+03  0.74014673357E+03  0.69939563215E+03 0.  0.
   -5000001    2    3    3    0    0  0.96783863276E+01  0.55808896201E+02  0.41943815234E+02  0.19114240742E+03  0.17767338636E+03 0.  0.
     200001    1    1    2    0    0  0.17505376116E+03 -0.14554631947E+02 -0.71750473983E+02  0.72526118545E+03  0.70000000000E+03 0. -1.
         11    1    4    4    0    0  0.34971737099E+02 -0.33629507370E+02  0.73879236740E+02  0.88386128907E+02  0.51100000000E-03 0.  1.
    -200002    1    4    4    0    0 -0.25293350771E+02  0.89438403571E+02 -0.31935421506E+02  0.10275627851E+03  0.30000000000E+02 0.  1.
    -200000    1    3    3    0    0 -0.18473214749E+03 -0.41254264254E+02  0.12481133561E+03  0.54900432615E+03  0.50000000000E+03 0.  1.
<mgrwt>
<rscale>  0 0.14623250E+04</rscale>
<asrwt>0</asrwt>
<pdfrwt beam="1">  1        2 0.11145804E+00 0.14623250E+04</pdfrwt>
<pdfrwt beam="2">  1       -2 0.97885946E-01 0.14623250E+04</pdfrwt>
<totfact> 0.33114227E+01</totfact>
</mgrwt>
</event>
<event>
 8    2  0.7085383E-010  0.1526880E+04  0.7818608E-02  0.8866772E-01
         -2   -1    0    0    0  501 -0.00000000000E+00  0.00000000000E+00  0.18065947099E+03  0.18065947101E+03  0.25500000000E-02 0. -1.
          2   -1    0    0  501    0  0.00000000000E+00 -0.00000000000E+00 -0.32261841306E+04  0.32261841306E+04  0.25500000000E-02 0.  1.
    -200001    2    1    2    0    0  0.49304645791E+02 -0.26133362130E+03 -0.11857322037E+04  0.14019610143E+04  0.69914777913E+03 0.  0.
   -5000001    2    3    3    0    0 -0.85070623424E+02 -0.17465119777E+01 -0.34620519330E+03  0.38203563396E+03  0.13730669495E+03 0.  0.
     200001    1    1    2    0    0 -0.49304645791E+02  0.26133362130E+03 -0.18597924559E+04  0.20048825873E+04  0.70000000000E+03 0.  1.
         11    1    4    4    0    0 -0.42847350426E+01 -0.28718487798E+02 -0.24372495162E+03  0.24544849263E+03  0.51100000000E-03 0.  1.
    -200002    1    4    4    0    0 -0.80785888381E+02  0.26971975820E+02 -0.10248024168E+03  0.13658714133E+03  0.30000000000E+02 0.  1.
    -200000    1    3    3    0    0  0.13437526921E+03 -0.25958710932E+03 -0.83952701037E+03  0.10199253803E+04  0.50000000000E+03 0. -1.
<mgrwt>
<rscale>  0 0.15268801E+04</rscale>
<asrwt>0</asrwt>
<pdfrwt beam="1">  1        2 0.46088341E+00 0.15268801E+04</pdfrwt>
<pdfrwt beam="2">  1       -2 0.25808498E-01 0.15268801E+04</pdfrwt>
<totfact> 0.23056766E+01</totfact>
</mgrwt>
</event>
<event>
 8    2  0.7085383E-010  0.2169329E+04  0.7818608E-02  0.8531303E-01
         -2   -1    0    0    0  501 -0.00000000000E+00  0.00000000000E+00  0.50732467487E+03  0.50732467488E+03  0.25500000000E-02 0.  1.
          2   -1    0    0  501    0  0.00000000000E+00 -0.00000000000E+00 -0.23190224147E+04  0.23190224147E+04  0.25500000000E-02 0. -1.
    -200001    2    1    2    0    0 -0.27145887839E+03  0.73717550097E+03 -0.12489532715E+04  0.16331166095E+04  0.70004852974E+03 0.  0.
   -5000001    2    3    3    0    0 -0.96961489847E+02  0.36171290300E+03 -0.51771167716E+03  0.65529465723E+03  0.14542335579E+03 0.  0.
     200001    1    1    2    0    0  0.27145887839E+03 -0.73717550097E+03 -0.56274446831E+03  0.11932304800E+04  0.70000000000E+03 0.  1.
         11    1    4    4    0    0  0.31636264588E+02  0.51427986208E+02 -0.11628357081E+03  0.13102503518E+03  0.51100000000E-03 0.  1.
    -200002    1    4    4    0    0 -0.12859775443E+03  0.31028491680E+03 -0.40142810635E+03  0.52426962205E+03  0.30000000000E+02 0.  1.
    -200000    1    3    3    0    0 -0.17449738854E+03  0.37546259797E+03 -0.73124159430E+03  0.97782195226E+03  0.50000000000E+03 0. -1.
<mgrwt>
<rscale>  0 0.21693292E+04</rscale>
<asrwt>0</asrwt>
<pdfrwt beam="1">  1        2 0.33128891E+00 0.21693292E+04</pdfrwt>
<pdfrwt beam="2">  1       -2 0.72474955E-01 0.21693292E+04</pdfrwt>
<totfact> 0.86943281E+00</totfact>
</mgrwt>
</event>
<event>
 8    2  0.7085383E-010  0.2157082E+04  0.7818608E-02  0.8536507E-01
         -2   -1    0    0    0  501 -0.00000000000E+00  0.00000000000E+00  0.29646785811E+03  0.29646785812E+03  0.25500000000E-02 0. -1.
          2   -1    0    0  501    0  0.00000000000E+00 -0.00000000000E+00 -0.39237001382E+04  0.39237001382E+04  0.25500000000E-02 0.  1.
    -200001    2    1    2    0    0  0.34286391603E+03 -0.52587539101E+03 -0.28473157556E+04  0.29985418764E+04  0.69996127080E+03 0.  0.
   -5000001    2    3    3    0    0  0.23262684135E+02 -0.21020436285E+03 -0.87118684268E+03  0.91122814197E+03  0.16322740340E+03 0.  0.
     200001    1    1    2    0    0 -0.34286391603E+03  0.52587539101E+03 -0.77991652457E+03  0.12216261200E+04  0.70000000000E+03 0. -1.
         11    1    4    4    0    0 -0.35467793953E+02 -0.19572331762E+03 -0.62012540895E+03  0.65124580943E+03  0.51100000000E-03 0.  1.
    -200002    1    4    4    0    0  0.58730478089E+02 -0.14481045226E+02 -0.25106143373E+03  0.25998233254E+03  0.30000000000E+02 0. -1.
    -200000    1    3    3    0    0  0.31960123190E+03 -0.31567102816E+03 -0.19761289129E+04  0.20873137344E+04  0.50000000000E+03 0.  1.
<mgrwt>
<rscale>  0 0.21570823E+04</rscale>
<asrwt>0</asrwt>
<pdfrwt beam="1">  1        2 0.56052856E+00 0.21570823E+04</pdfrwt>
<pdfrwt beam="2">  1       -2 0.42352553E-01 0.21570823E+04</pdfrwt>
<totfact> 0.31380926E+00</totfact>
</mgrwt>
</event>
<event>
 8    2  0.7085383E-010  0.1769702E+04  0.7818608E-02  0.8722580E-01
          2   -1    0    0  501    0  0.00000000000E+00  0.00000000000E+00  0.12574972456E+04  0.12574972456E+04  0.25500000000E-02 0.  1.
         -2   -1    0    0    0  501 -0.00000000000E+00 -0.00000000000E+00 -0.62263443414E+03  0.62263443414E+03  0.25500000000E-02 0. -1.
    -200001    2    1    2    0    0 -0.14160583042E+03  0.22687431135E+03 -0.18112844915E+03  0.77226620878E+03  0.70147232146E+03 0.  0.
   -5000001    2    3    3    0    0 -0.77182672605E+02  0.76097385232E+02 -0.16117248569E+03  0.24569022643E+03  0.15046308594E+03 0.  0.
     200001    1    1    2    0    0  0.14160583042E+03 -0.22687431135E+03  0.81599126065E+03  0.11078654710E+04  0.70000000000E+03 0.  1.
         11    1    4    4    0    0 -0.72435944880E+02 -0.22877700644E+02 -0.38479051775E+02  0.85152761101E+02  0.51100000000E-03 0.  1.
    -200002    1    4    4    0    0 -0.47467277251E+01  0.98975085876E+02 -0.12269343392E+03  0.16053746533E+03  0.30000000000E+02 0.  1.
    -200000    1    3    3    0    0 -0.64423157817E+02  0.15077692611E+03 -0.19955963460E+02  0.52657598235E+03  0.50000000000E+03 0. -1.
<mgrwt>
<rscale>  0 0.17697018E+04</rscale>
<asrwt>0</asrwt>
<pdfrwt beam="1">  1        2 0.17964246E+00 0.17697018E+04</pdfrwt>
<pdfrwt beam="2">  1       -2 0.88947778E-01 0.17697018E+04</pdfrwt>
<totfact> 0.20438707E+01</totfact>
</mgrwt>
</event>
<event>
 8    2  0.7085383E-010  0.1800298E+04  0.7818608E-02  0.8706141E-01
         -2   -1    0    0    0  501 -0.00000000000E+00  0.00000000000E+00  0.39048231583E+03  0.39048231584E+03  0.25500000000E-02 0. -1.
          2   -1    0    0  501    0  0.00000000000E+00 -0.00000000000E+00 -0.20750456853E+04  0.20750456853E+04  0.25500000000E-02 0.  1.
    -200001    2    1    2    0    0 -0.27816787308E+03 -0.16838895679E+03 -0.20918367955E+03  0.80045219632E+03  0.70088066062E+03 0.  0.
   -5000001    2    3    3    0    0 -0.83548038386E+02 -0.18306563049E+02 -0.84489584958E+02  0.22953169206E+03  0.19552724292E+03 0.  0.
     200001    1    1    2    0    0  0.27816787308E+03  0.16838895679E+03 -0.14753796899E+04  0.16650758048E+04  0.70000000000E+03 0.  1.
         11    1    4    4    0    0 -0.12194177603E+03 -0.71314010894E+02 -0.60053203922E+02  0.15349876935E+03  0.51100000000E-03 0.  1.
    -200002    1    4    4    0    0  0.38393737641E+02  0.53007447845E+02 -0.24436381036E+02  0.76032922706E+02  0.30000000000E+02 0.  1.
    -200000    1    3    3    0    0 -0.19461983469E+03 -0.15008239374E+03 -0.12469409460E+03  0.57092050427E+03  0.50000000000E+03 0.  1.
<mgrwt>
<rscale>  0 0.18002985E+04</rscale>
<asrwt>0</asrwt>
<pdfrwt beam="1">  1        2 0.29643509E+00 0.18002985E+04</pdfrwt>
<pdfrwt beam="2">  1       -2 0.55783189E-01 0.18002985E+04</pdfrwt>
<totfact> 0.20971678E+01</totfact>
</mgrwt>
</event>
<event>
 8    2  0.7085383E-010  0.1787023E+04  0.7818608E-02  0.8713231E-01
          2   -1    0    0  501    0  0.00000000000E+00  0.00000000000E+00  0.14164098663E+04  0.14164098663E+04  0.25500000000E-02 0.  1.
         -2   -1    0    0    0  501 -0.00000000000E+00 -0.00000000000E+00 -0.56365211334E+03  0.56365211334E+03  0.25500000000E-02 0. -1.
    -200001    2    1    2    0    0  0.20728265868E+03 -0.14284699606E+03 -0.11999678337E+03  0.75547112846E+03  0.70211539866E+03 0.  0.
   -5000001    2    3    3    0    0  0.66435201559E+02 -0.80737236115E+02 -0.70968523399E+02  0.23001951438E+03  0.19219861701E+03 0.  0.
     200001    1    1    2    0    0 -0.20728265868E+03  0.14284699606E+03  0.97275453638E+03  0.12245908512E+04  0.70000000000E+03 0.  1.
         11    1    4    4    0    0  0.34277027324E+02 -0.11376968549E+03  0.23104832614E+02  0.12104664072E+03  0.51100000000E-03 0.  1.
    -200002    1    4    4    0    0  0.32158174235E+02  0.33032449380E+02 -0.94073356013E+02  0.10897287366E+03  0.30000000000E+02 0.  1.
    -200000    1    3    3    0    0  0.14084745712E+03 -0.62109759941E+02 -0.49028259974E+02  0.52545161407E+03  0.50000000000E+03 0. -1.
<mgrwt>
<rscale>  0 0.17870226E+04</rscale>
<asrwt>0</asrwt>
<pdfrwt beam="1">  1        2 0.20234427E+00 0.17870226E+04</pdfrwt>
<pdfrwt beam="2">  1       -2 0.80521731E-01 0.17870226E+04</pdfrwt>
<totfact> 0.20932493E+01</totfact>
</mgrwt>
</event>
<event>
 8    2  0.7085383E-010  0.2394533E+04  0.7818608E-02  0.8441553E-01
         -2   -1    0    0    0  501 -0.00000000000E+00  0.00000000000E+00  0.64294204048E+03  0.64294204048E+03  0.25500000000E-02 0. -1.
          2   -1    0    0  501    0  0.00000000000E+00 -0.00000000000E+00 -0.22295113382E+04  0.22295113382E+04  0.25500000000E-02 0.  1.
    -200001    2    1    2    0    0 -0.34904347572E+03  0.85013126904E+03 -0.11715379188E+04  0.16449332900E+04  0.69910650907E+03 0.  0.
   -5000001    2    3    3    0    0 -0.64139194805E+02  0.14976092968E+03 -0.12797294646E+03  0.26264644826E+03  0.16144320793E+03 0.  0.
     200001    1    1    2    0    0  0.34904347572E+03 -0.85013126904E+03 -0.41503137897E+03  0.12275200887E+04  0.70000000000E+03 0. -1.
         11    1    4    4    0    0 -0.50002436866E+02 -0.14918948799E+01 -0.90382971092E+02  0.10330319892E+03  0.51100000000E-03 0.  1.
    -200002    1    4    4    0    0 -0.14136757939E+02  0.15125282456E+03 -0.37589975371E+02  0.15934324934E+03  0.30000000000E+02 0.  1.
    -200000    1    3    3    0    0 -0.28490428091E+03  0.70037033936E+03 -0.10435649723E+04  0.13822868418E+04  0.50000000000E+03 0.  1.
<mgrwt>
<rscale>  0 0.23945326E+04</rscale>
<asrwt>0</asrwt>
<pdfrwt beam="1">  1        2 0.31850162E+00 0.23945326E+04</pdfrwt>
<pdfrwt beam="2">  1       -2 0.91848864E-01 0.23945326E+04</pdfrwt>
<totfact> 0.55673047E+00</totfact>
</mgrwt>
</event>
<event>
 8    2  0.7085383E-010  0.1480162E+04  0.7818608E-02  0.8897753E-01
         -2   -1    0    0    0  501 -0.00000000000E+00  0.00000000000E+00  0.70482165891E+03  0.70482165891E+03  0.25500000000E-02 0. -1.
          2   -1    0    0  501    0  0.00000000000E+00 -0.00000000000E+00 -0.77710398672E+03  0.77710398673E+03  0.25500000000E-02 0.  1.
    -200001    2    1    2    0    0 -0.66546541788E+02  0.20817672543E+03  0.64554882451E+02  0.73594279507E+03  0.69977030055E+03 0.  0.
   -5000001    2    3    3    0    0 -0.10152003966E+03 -0.14161578554E+02 -0.62917926155E+02  0.17299805186E+03  0.12434947429E+03 0.  0.
     200001    1    1    2    0    0  0.66546541788E+02 -0.20817672543E+03 -0.13683721027E+03  0.74598285057E+03  0.70000000000E+03 0.  1.
         11    1    4    4    0    0 -0.11220144078E+03 -0.40926917954E+02 -0.43727653115E+02  0.12718601957E+03  0.51100000000E-03 0.  1.
    -200002    1    4    4    0    0  0.10681401127E+02  0.26765339400E+02 -0.19190273040E+02  0.45812032290E+02  0.30000000000E+02 0.  1.
    -200000    1    3    3    0    0  0.34973497869E+02  0.22233830398E+03  0.12747280861E+03  0.56294474321E+03  0.50000000000E+03 0.  1.
<mgrwt>
<rscale>  0 0.14801618E+04</rscale>
<asrwt>0</asrwt>
<pdfrwt beam="1">  1        2 0.11101486E+00 0.14801618E+04</pdfrwt>
<pdfrwt beam="2">  1       -2 0.10068881E+00 0.14801618E+04</pdfrwt>
<totfact> 0.31093197E+01</totfact>
</mgrwt>
</event>
<event>
 8    2  0.7085383E-010  0.2007011E+04  0.7818608E-02  0.8603350E-01
         -2   -1    0    0    0  501 -0.00000000000E+00  0.00000000000E+00  0.14694487867E+04  0.14694487867E+04  0.25500000000E-02 0. -1.
          2   -1    0    0  501    0  0.00000000000E+00 -0.00000000000E+00 -0.68530695234E+03  0.68530695234E+03  0.25500000000E-02 0.  1.
    -200001    2    1    2    0    0 -0.48179179709E+03  0.27019973559E+03  0.88619839020E+03  0.12572331636E+04  0.70011171102E+03 0.  0.
   -5000001    2    3    3    0    0 -0.19913181501E+03  0.19211942329E+03  0.38482053503E+03  0.49083055768E+03  0.12753211212E+03 0.  0.
     200001    1    1    2    0    0  0.48179179709E+03 -0.27019973559E+03 -0.10205655587E+03  0.89752257546E+03  0.70000000000E+03 0.  1.
         11    1    4    4    0    0 -0.15855742201E+03  0.18614610500E+03  0.26444273969E+03  0.36016772628E+03  0.51100000000E-03 0.  1.
    -200002    1    4    4    0    0 -0.40574393003E+02  0.59733182883E+01  0.12037779534E+03  0.13066283140E+03  0.30000000000E+02 0.  1.
    -200000    1    3    3    0    0 -0.28265998208E+03  0.78080312301E+02  0.50137785517E+03  0.76640260587E+03  0.50000000000E+03 0.  1.
<mgrwt>
<rscale>  0 0.20070112E+04</rscale>
<asrwt>0</asrwt>
<pdfrwt beam="1">  1        2 0.97900995E-01 0.20070112E+04</pdfrwt>
<pdfrwt beam="2">  1       -2 0.20992125E+00 0.20070112E+04</pdfrwt>
<totfact> 0.49330720E+00</totfact>
</mgrwt>
</event>
<event>
 8    2  0.7085383E-010  0.1598054E+04  0.7818608E-02  0.8821744E-01
          2   -1    0    0  501    0  0.00000000000E+00  0.00000000000E+00  0.13628796364E+04  0.13628796364E+04  0.25500000000E-02 0.  1.
         -2   -1    0    0    0  501 -0.00000000000E+00 -0.00000000000E+00 -0.46845258850E+03  0.46845258850E+03  0.25500000000E-02 0. -1.
    -200001    2    1    2    0    0 -0.17426610247E+03  0.29983004181E+03  0.25168275033E+03  0.81970632542E+03  0.69879004335E+03 0.  0.
   -5000001    2    3    3    0    0 -0.57718154885E+02  0.49055812335E+02 -0.99597843923E+01  0.19127339008E+03  0.17535237187E+03 0.  0.
     200001    1    1    2    0    0  0.17426610247E+03 -0.29983004181E+03  0.64274429758E+03  0.10116258995E+04  0.70000000000E+03 0. -1.
         11    1    4    4    0    0 -0.35055489160E+02  0.67863863142E+02 -0.79351134540E+02  0.11014079078E+03  0.51100000000E-03 0.  1.
    -200002    1    4    4    0    0 -0.22662665724E+02 -0.18808050807E+02  0.69391350148E+02  0.81132599294E+02  0.30000000000E+02 0.  1.
    -200000    1    3    3    0    0 -0.11654794759E+03  0.25077422947E+03  0.26164253472E+03  0.62843293535E+03  0.50000000000E+03 0.  1.
<mgrwt>
<rscale>  0 0.15980544E+04</rscale>
<asrwt>0</asrwt>
<pdfrwt beam="1">  1        2 0.19469709E+00 0.15980544E+04</pdfrwt>
<pdfrwt beam="2">  1       -2 0.66921798E-01 0.15980544E+04</pdfrwt>
<totfact> 0.34152910E+01</totfact>
</mgrwt>
</event>
<event>
 8    2  0.7085383E-010  0.1682933E+04  0.7818608E-02  0.8771158E-01
          2   -1    0    0  501    0  0.00000000000E+00  0.00000000000E+00  0.28172171234E+04  0.28172171234E+04  0.25500000000E-02 0.  1.
         -2   -1    0    0    0  501 -0.00000000000E+00 -0.00000000000E+00 -0.25133529963E+03  0.25133529964E+03  0.25500000000E-02 0. -1.
    -200001    2    1    2    0    0  0.36330367262E+02  0.41125755936E+03  0.88621921317E+03  0.12026158858E+04  0.70031978352E+03 0.  0.
   -5000001    2    3    3    0    0  0.97903794288E+02  0.37726368520E+02  0.20013455866E+02  0.13320985837E+03  0.79598342533E+02 0.  0.
     200001    1    1    2    0    0 -0.36330367262E+02 -0.41125755936E+03  0.16796626106E+04  0.18659365373E+04  0.70000000000E+03 0.  1.
         11    1    4    4    0    0  0.86779112841E+02  0.46560396406E+02  0.13870858724E+02  0.99452931888E+02  0.51100000000E-03 0.  1.
    -200002    1    4    4    0    0  0.11124681447E+02 -0.88340278863E+01  0.61425971419E+01  0.33756926484E+02  0.30000000000E+02 0. -1.
    -200000    1    3    3    0    0 -0.61573427026E+02  0.37353119084E+03  0.86620575731E+03  0.10694060274E+04  0.50000000000E+03 0. -1.
<mgrwt>
<rscale>  0 0.16829333E+04</rscale>
<asrwt>0</asrwt>
<pdfrwt beam="1">  1        2 0.40245960E+00 0.16829333E+04</pdfrwt>
<pdfrwt beam="2">  1       -2 0.35905042E-01 0.16829333E+04</pdfrwt>
<totfact> 0.20785306E+01</totfact>
</mgrwt>
</event>
<event>
 8    2  0.7085383E-010  0.1521139E+04  0.7818608E-02  0.8870516E-01
         -2   -1    0    0    0  501 -0.00000000000E+00  0.00000000000E+00  0.38598252111E+03  0.38598252111E+03  0.25500000000E-02 0. -1.
          2   -1    0    0  501    0  0.00000000000E+00 -0.00000000000E+00 -0.14986833753E+04  0.14986833753E+04  0.25500000000E-02 0.  1.
    -200001    2    1    2    0    0 -0.21202885297E+03 -0.12463319457E+03 -0.33871206684E+03  0.81249598888E+03  0.69637217064E+03 0.  0.
   -5000001    2    3    3    0    0 -0.17748390196E+02 -0.65004406308E+01 -0.50709781103E+02  0.19229798634E+03  0.18452580461E+03 0.  0.
     200001    1    1    2    0    0  0.21202885297E+03  0.12463319457E+03 -0.77398878736E+03  0.10721699075E+04  0.70000000000E+03 0.  1.
         11    1    4    4    0    0  0.60295600259E+02  0.53802910433E+02 -0.98571106450E+01  0.81409306668E+02  0.51100000000E-03 0.  1.
    -200002    1    4    4    0    0 -0.78043990455E+02 -0.60303351063E+02 -0.40852670458E+02  0.11088867967E+03  0.30000000000E+02 0.  1.
    -200000    1    3    3    0    0 -0.19428046278E+03 -0.11813275394E+03 -0.28800228574E+03  0.62019800255E+03  0.50000000000E+03 0.  1.
<mgrwt>
<rscale>  0 0.15211385E+04</rscale>
<asrwt>0</asrwt>
<pdfrwt beam="1">  1        2 0.21409762E+00 0.15211385E+04</pdfrwt>
<pdfrwt beam="2">  1       -2 0.55140361E-01 0.15211385E+04</pdfrwt>
<totfact> 0.43745771E+01</totfact>
</mgrwt>
</event>
<event>
 8    2  0.7085383E-010  0.1897301E+04  0.7818608E-02  0.8656201E-01
         -2   -1    0    0    0  501 -0.00000000000E+00  0.00000000000E+00  0.62860960659E+03  0.62860960660E+03  0.25500000000E-02 0. -1.
          2   -1    0    0  501    0  0.00000000000E+00 -0.00000000000E+00 -0.14316316243E+04  0.14316316243E+04  0.25500000000E-02 0.  1.
    -200001    2    1    2    0    0 -0.45186824989E+03 -0.38264853554E+03 -0.13621587063E+03  0.92655906434E+03  0.69953707500E+03 0.  0.
   -5000001    2    3    3    0    0 -0.21325553392E+03 -0.11826111235E+03  0.54446399531E+02  0.28376139865E+03  0.13450839192E+03 0.  0.
     200001    1    1    2    0    0  0.45186824989E+03  0.38264853554E+03 -0.66680614709E+03  0.11336821666E+04  0.70000000000E+03 0.  1.
         11    1    4    4    0    0 -0.48365372371E+02 -0.57803071067E+02  0.72628729168E+02  0.10466774370E+03  0.51100000000E-03 0.  1.
    -200002    1    4    4    0    0 -0.16489016155E+03 -0.60458041285E+02 -0.18182329638E+02  0.17909365495E+03  0.30000000000E+02 0. -1.
    -200000    1    3    3    0    0 -0.23861271596E+03 -0.26438742319E+03 -0.19066227016E+03  0.64279766569E+03  0.50000000000E+03 0.  1.
<mgrwt>
<rscale>  0 0.18973006E+04</rscale>
<asrwt>0</asrwt>
<pdfrwt beam="1">  1        2 0.20451880E+00 0.18973006E+04</pdfrwt>
<pdfrwt beam="2">  1       -2 0.89801373E-01 0.18973006E+04</pdfrwt>
<totfact> 0.15885185E+01</totfact>
</mgrwt>
</event>
<event>
 8    2  0.7085383E-010  0.1646521E+04  0.7818608E-02  0.8792467E-01
          2   -1    0    0  501    0  0.00000000000E+00  0.00000000000E+00  0.66988530749E+03  0.66988530749E+03  0.25500000000E-02 0.  1.
         -2   -1    0    0    0  501 -0.00000000000E+00 -0.00000000000E+00 -0.10117523185E+04  0.10117523185E+04  0.25500000000E-02 0. -1.
    -200001    2    1    2    0    0 -0.69058940609E+02 -0.41011729196E+03 -0.47505656134E+02  0.81583514411E+03  0.70026056905E+03 0.  0.
   -5000001    2    3    3    0    0 -0.11769028042E+03 -0.18560854596E+03  0.56448898576E+01  0.26302942346E+03  0.14439902488E+03 0.  0.
     200001    1    1    2    0    0  0.69058940609E+02  0.41011729196E+03 -0.29436135492E+03  0.86580248193E+03  0.70000000000E+03 0. -1.
         11    1    4    4    0    0 -0.21150751085E+01 -0.12843848450E+03  0.19471912072E+02  0.12992333587E+03  0.51100000000E-03 0.  1.
    -200002    1    4    4    0    0 -0.11557520531E+03 -0.57170061458E+02 -0.13827022214E+02  0.13310608759E+03  0.30000000000E+02 0.  1.
    -200000    1    3    3    0    0  0.48631339813E+02 -0.22450874600E+03 -0.53150545992E+02  0.55280572065E+03  0.50000000000E+03 0. -1.
<mgrwt>
<rscale>  0 0.16465212E+04</rscale>
<asrwt>0</asrwt>
<pdfrwt beam="1">  1        2 0.95697901E-01 0.16465212E+04</pdfrwt>
<pdfrwt beam="2">  1       -2 0.14453605E+00 0.16465212E+04</pdfrwt>
<totfact> 0.15032280E+01</totfact>
</mgrwt>
</event>
<event>
 8    2  0.7085383E-010  0.2054934E+04  0.7818608E-02  0.8581359E-01
         -2   -1    0    0    0  501 -0.00000000000E+00  0.00000000000E+00  0.12523477768E+04  0.12523477768E+04  0.25500000000E-02 0. -1.
          2   -1    0    0  501    0  0.00000000000E+00 -0.00000000000E+00 -0.84296715401E+03  0.84296715402E+03  0.25500000000E-02 0.  1.
    -200001    2    1    2    0    0  0.43585972877E+03 -0.59645417365E+03  0.64145389553E+02  0.10206435156E+04  0.70133249641E+03 0.  0.
   -5000001    2    3    3    0    0  0.90862026611E+02 -0.29963963972E+02 -0.74039787455E+02  0.17860449317E+03  0.13139226704E+03 0.  0.
     200001    1    1    2    0    0 -0.43585972877E+03  0.59645417365E+03  0.34523523325E+03  0.10746714152E+04  0.70000000000E+03 0. -1.
         11    1    4    4    0    0  0.11158491039E+03 -0.39546378153E+02 -0.76290059868E+02  0.14083778430E+03  0.51100000000E-03 0.  1.
    -200002    1    4    4    0    0 -0.20722883774E+02  0.95824141808E+01  0.22502724127E+01  0.37766708877E+02  0.30000000000E+02 0.  1.
    -200000    1    3    3    0    0  0.34499770216E+03 -0.56649020968E+03  0.13818517701E+03  0.84203902243E+03  0.50000000000E+03 0.  1.
<mgrwt>
<rscale>  0 0.20549336E+04</rscale>
<asrwt>0</asrwt>
<pdfrwt beam="1">  1        2 0.12042388E+00 0.20549336E+04</pdfrwt>
<pdfrwt beam="2">  1       -2 0.17890683E+00 0.20549336E+04</pdfrwt>
<totfact> 0.60794528E+00</totfact>
</mgrwt>
</event>
<event>
 8    2  0.7085383E-010  0.1718362E+04  0.7818608E-02  0.8750961E-01
          2   -1    0    0  501    0  0.00000000000E+00  0.00000000000E+00  0.13619286053E+04  0.13619286053E+04  0.25500000000E-02 0.  1.
         -2   -1    0    0    0  501 -0.00000000000E+00 -0.00000000000E+00 -0.54201947981E+03  0.54201947982E+03  0.25500000000E-02 0. -1.
    -200001    2    1    2    0    0 -0.15168815721E+03  0.40639787014E+03  0.68047221806E+03  0.10687168734E+04  0.70067452506E+03 0.  0.
   -5000001    2    3    3    0    0 -0.16484649654E+02  0.23496309815E+03  0.31419013266E+03  0.41157728733E+03  0.12329242808E+03 0.  0.
     200001    1    1    2    0    0  0.15168815721E+03 -0.40639787014E+03  0.13943690745E+03  0.83523121173E+03  0.70000000000E+03 0. -1.
         11    1    4    4    0    0  0.19414634527E+01  0.51028217056E+02  0.66388742799E+01  0.51494881962E+02  0.51100000000E-03 0.  1.
    -200002    1    4    4    0    0 -0.18426113107E+02  0.18393488110E+03  0.30755125838E+03  0.36008240537E+03  0.30000000000E+02 0.  1.
    -200000    1    3    3    0    0 -0.13520350756E+03  0.17143477198E+03  0.36628208540E+03  0.65713958608E+03  0.50000000000E+03 0.  1.
<mgrwt>
<rscale>  0 0.17183618E+04</rscale>
<asrwt>0</asrwt>
<pdfrwt beam="1">  1        2 0.19456123E+00 0.17183618E+04</pdfrwt>
<pdfrwt beam="2">  1       -2 0.77431355E-01 0.17183618E+04</pdfrwt>
<totfact> 0.24593683E+01</totfact>
</mgrwt>
</event>
<event>
 8    2  0.7085383E-010  0.1523201E+04  0.7818608E-02  0.8869169E-01
          2   -1    0    0  501    0  0.00000000000E+00  0.00000000000E+00  0.23729312876E+03  0.23729312878E+03  0.25500000000E-02 0.  1.
         -2   -1    0    0    0  501 -0.00000000000E+00 -0.00000000000E+00 -0.24443842716E+04  0.24443842716E+04  0.25500000000E-02 0. -1.
    -200001    2    1    2    0    0  0.10369883419E+03  0.20536577686E+03 -0.76567742472E+03  0.10628500293E+04  0.70032829128E+03 0.  0.
   -5000001    2    3    3    0    0 -0.19973223808E+02  0.40038254988E+02 -0.12733937770E+03  0.22612819400E+03  0.18142946695E+03 0.  0.
     200001    1    1    2    0    0 -0.10369883419E+03 -0.20536577686E+03 -0.14414137181E+04  0.16188273710E+04  0.70000000000E+03 0.  1.
         11    1    4    4    0    0  0.79049721230E+02  0.18214484809E+02 -0.55408196095E+02  0.98237946223E+02  0.51100000000E-03 0.  1.
    -200002    1    4    4    0    0 -0.99022945038E+02  0.21823770179E+02 -0.71931181603E+02  0.12789024777E+03  0.30000000000E+02 0.  1.
    -200000    1    3    3    0    0  0.12367205800E+03  0.16532752187E+03 -0.63833804702E+03  0.83672183532E+03  0.50000000000E+03 0.  1.
<mgrwt>
<rscale>  0 0.15232014E+04</rscale>
<asrwt>0</asrwt>
<pdfrwt beam="1">  1        2 0.33899020E-01 0.15232014E+04</pdfrwt>
<pdfrwt beam="2">  1       -2 0.34919774E+00 0.15232014E+04</pdfrwt>
<totfact> 0.23754281E+00</totfact>
</mgrwt>
</event>
<event>
 8    2  0.7085383E-010  0.3299137E+04  0.7818608E-02  0.8163115E-01
          2   -1    0    0  501    0  0.00000000000E+00  0.00000000000E+00  0.15415423273E+04  0.15415423273E+04  0.25500000000E-02 0.  1.
         -2   -1    0    0    0  501 -0.00000000000E+00 -0.00000000000E+00 -0.17651651747E+04  0.17651651747E+04  0.25500000000E-02 0. -1.
    -200001    2    1    2    0    0  0.10662756609E+04 -0.95083603384E+03 -0.54905407527E+03  0.16828422267E+04  0.69961749123E+03 0.  0.
   -5000001    2    3    3    0    0  0.28891256753E+03 -0.13780123726E+03 -0.13338841573E+03  0.38357439443E+03  0.16394265444E+03 0.  0.
     200001    1    1    2    0    0 -0.10662756609E+04  0.95083603384E+03  0.32543122789E+03  0.16238652753E+04  0.70000000000E+03 0.  1.
         11    1    4    4    0    0  0.33889077272E+02 -0.20422654792E+02  0.36695191242E+02  0.53963797565E+02  0.51100000000E-03 0.  1.
    -200002    1    4    4    0    0  0.25502349026E+03 -0.11737858247E+03 -0.17008360697E+03  0.32961059687E+03  0.30000000000E+02 0.  1.
    -200000    1    3    3    0    0  0.77736309339E+03 -0.81303479658E+03 -0.41566565955E+03  0.12992678323E+04  0.50000000000E+03 0. -1.
<mgrwt>
<rscale>  0 0.32991374E+04</rscale>
<asrwt>0</asrwt>
<pdfrwt beam="1">  1        2 0.22022033E+00 0.32991374E+04</pdfrwt>
<pdfrwt beam="2">  1       -2 0.25216645E+00 0.32991374E+04</pdfrwt>
<totfact> 0.72937375E-01</totfact>
</mgrwt>
</event>
<event>
 8    2  0.7085383E-010  0.1624055E+04  0.7818608E-02  0.8805905E-01
         -2   -1    0    0    0  501 -0.00000000000E+00  0.00000000000E+00  0.39441165614E+03  0.39441165615E+03  0.25500000000E-02 0. -1.
          2   -1    0    0  501    0  0.00000000000E+00 -0.00000000000E+00 -0.16718287287E+04  0.16718287287E+04  0.25500000000E-02 0.  1.
    -200001    2    1    2    0    0  0.16025532908E+03  0.27302657562E+03 -0.96202366054E+03  0.12357596290E+04  0.70808689844E+03 0.  0.
   -5000001    2    3    3    0    0 -0.13016309655E+02  0.31793976345E+02 -0.17362643026E+03  0.25607272981E+03  0.18505897551E+03 0.  0.
     200001    1    1    2    0    0 -0.16025532908E+03 -0.27302657562E+03 -0.31539341204E+03  0.83048075586E+03  0.70000000000E+03 0. -1.
         11    1    4    4    0    0  0.79313637643E+02 -0.13022007121E+02 -0.87136018531E+02  0.11854497674E+03  0.51100000000E-03 0.  1.
    -200002    1    4    4    0    0 -0.92329947298E+02  0.44815983465E+02 -0.86490411725E+02  0.13752775306E+03  0.30000000000E+02 0.  1.
    -200000    1    3    3    0    0  0.17327163874E+03  0.24123259927E+03 -0.78839723028E+03  0.97968689920E+03  0.50000000000E+03 0.  1.
<mgrwt>
<rscale>  0 0.16240551E+04</rscale>
<asrwt>0</asrwt>
<pdfrwt beam="1">  1        2 0.23883267E+00 0.16240551E+04</pdfrwt>
<pdfrwt beam="2">  1       -2 0.56344523E-01 0.16240551E+04</pdfrwt>
<totfact> 0.33639851E+01</totfact>
</mgrwt>
</event>
<event>
 8    2  0.7085383E-010  0.1477661E+04  0.7818608E-02  0.8899445E-01
          2   -1    0    0  501    0  0.00000000000E+00  0.00000000000E+00  0.18180487019E+04  0.18180487019E+04  0.25500000000E-02 0.  1.
         -2   -1    0    0    0  501 -0.00000000000E+00 -0.00000000000E+00 -0.30025091575E+03  0.30025091576E+03  0.25500000000E-02 0. -1.
    -200001    2    1    2    0    0  0.13465703005E+03  0.99889470632E+02  0.52923775480E+03  0.89544993038E+03  0.70258633251E+03 0.  0.
   -5000001    2    3    3    0    0  0.47068623428E+02  0.63101104937E+02  0.10375160138E+03  0.23207704913E+03  0.19208893042E+03 0.  0.
     200001    1    1    2    0    0 -0.13465703005E+03 -0.99889470632E+02  0.98856003136E+03  0.12228496873E+04  0.70000000000E+03 0.  1.
         11    1    4    4    0    0 -0.36089354201E+02 -0.49558514187E+02  0.50023974956E+02  0.79125759937E+02  0.51100000000E-03 0.  1.
    -200002    1    4    4    0    0  0.83157977629E+02  0.11265961912E+03  0.53727626422E+02  0.15295128919E+03  0.30000000000E+02 0.  1.
    -200000    1    3    3    0    0  0.87588406623E+02  0.36788365695E+02  0.42548615343E+03  0.66337288125E+03  0.50000000000E+03 0. -1.
<mgrwt>
<rscale>  0 0.14776614E+04</rscale>
<asrwt>0</asrwt>
<pdfrwt beam="1">  1        2 0.25972125E+00 0.14776614E+04</pdfrwt>
<pdfrwt beam="2">  1       -2 0.42892987E-01 0.14776614E+04</pdfrwt>
<totfact> 0.49730596E+01</totfact>
</mgrwt>
</event>
<event>
 8    2  0.7085383E-010  0.2557445E+04  0.7818608E-02  0.8382801E-01
          2   -1    0    0  501    0  0.00000000000E+00  0.00000000000E+00  0.23565431788E+04  0.23565431788E+04  0.25500000000E-02 0.  1.
         -2   -1    0    0    0  501 -0.00000000000E+00 -0.00000000000E+00 -0.69386883053E+03  0.69386883054E+03  0.25500000000E-02 0. -1.
    -200001    2    1    2    0    0 -0.45119283467E+03  0.51712394467E+03 -0.14820639461E+03  0.99121769769E+03  0.69968224259E+03 0.  0.
   -5000001    2    3    3    0    0 -0.21178240704E+03  0.21578214609E+03  0.43413657365E+02  0.33179182866E+03  0.12956600408E+03 0.  0.
     200001    1    1    2    0    0  0.45119283467E+03 -0.51712394467E+03  0.18108807429E+04  0.20591943117E+04  0.70000000000E+03 0.  1.
         11    1    4    4    0    0 -0.19611802826E+03  0.12750803803E+03  0.22813624874E+02  0.23503412997E+03  0.51100000000E-03 0.  1.
    -200002    1    4    4    0    0 -0.15664378782E+02  0.88274108061E+02  0.20600032491E+02  0.96757698687E+02  0.30000000000E+02 0.  1.
    -200000    1    3    3    0    0 -0.23941042763E+03  0.30134179857E+03 -0.19162005198E+03  0.65942586903E+03  0.50000000000E+03 0. -1.
<mgrwt>
<rscale>  0 0.25574455E+04</rscale>
<asrwt>0</asrwt>
<pdfrwt beam="1">  1        2 0.33664903E+00 0.25574455E+04</pdfrwt>
<pdfrwt beam="2">  1       -2 0.99124117E-01 0.25574455E+04</pdfrwt>
<totfact> 0.39485512E+00</totfact>
</mgrwt>
</event>
<event>
 8    2  0.7085383E-010  0.1616414E+04  0.7818608E-02  0.8810528E-01
          2   -1    0    0  501    0  0.00000000000E+00  0.00000000000E+00  0.18208642080E+04  0.18208642080E+04  0.25500000000E-02 0.  1.
         -2   -1    0    0    0  501 -0.00000000000E+00 -0.00000000000E+00 -0.35872975393E+03  0.35872975394E+03  0.25500000000E-02 0. -1.
    -200001    2    1    2    0    0 -0.26294225535E+03 -0.30142699486E+03  0.80175447739E+03  0.11374334290E+04  0.70067660192E+03 0.  0.
   -5000001    2    3    3    0    0 -0.56544791750E+01  0.32647569481E+02  0.76008315359E+02  0.16044299607E+03  0.13735666731E+03 0.  0.
     200001    1    1    2    0    0  0.26294225535E+03  0.30142699486E+03  0.66037997672E+03  0.10421605330E+04  0.70000000000E+03 0. -1.
         11    1    4    4    0    0  0.25530644712E+02  0.77986503003E+01 -0.31875830026E+02  0.41577653926E+02  0.51100000000E-03 0.  1.
    -200002    1    4    4    0    0 -0.31185123887E+02  0.24848919181E+02  0.10788414539E+03  0.11886534214E+03  0.30000000000E+02 0.  1.
    -200000    1    3    3    0    0 -0.25728777617E+03 -0.33407456434E+03  0.72574616203E+03  0.97699043291E+03  0.50000000000E+03 0. -1.
<mgrwt>
<rscale>  0 0.16164135E+04</rscale>
<asrwt>0</asrwt>
<pdfrwt beam="1">  1        2 0.26012346E+00 0.16164135E+04</pdfrwt>
<pdfrwt beam="2">  1       -2 0.51247108E-01 0.16164135E+04</pdfrwt>
<totfact> 0.34272554E+01</totfact>
</mgrwt>
</event>
<event>
 8    2  0.7085383E-010  0.1886991E+04  0.7818608E-02  0.8661359E-01
         -2   -1    0    0    0  501 -0.00000000000E+00  0.00000000000E+00  0.14973625563E+04  0.14973625564E+04  0.25500000000E-02 0. -1.
          2   -1    0    0  501    0  0.00000000000E+00 -0.00000000000E+00 -0.59450102033E+03  0.59450102034E+03  0.25500000000E-02 0.  1.
    -200001    2    1    2    0    0 -0.55088854140E+03  0.16646175732E+03  0.15976864148E+03  0.91995284988E+03  0.69971388832E+03 0.  0.
   -5000001    2    3    3    0    0 -0.24186601641E+03  0.49701432564E+02  0.44984062165E+02  0.30978615623E+03  0.18158880596E+03 0.  0.
     200001    1    1    2    0    0  0.55088854140E+03 -0.16646175732E+03  0.74309289454E+03  0.11719107268E+04  0.70000000000E+03 0. -1.
         11    1    4    4    0    0 -0.17734074749E+03 -0.14372260744E+02  0.95064008674E+02  0.20172622126E+03  0.51100000000E-03 0.  1.
    -200002    1    4    4    0    0 -0.64525268915E+02  0.64073693308E+02 -0.50079946508E+02  0.10805993497E+03  0.30000000000E+02 0.  1.
    -200000    1    3    3    0    0 -0.30902252499E+03  0.11676032476E+03  0.11478457931E+03  0.61016669365E+03  0.50000000000E+03 0. -1.
<mgrwt>
<rscale>  0 0.18869908E+04</rscale>
<asrwt>0</asrwt>
<pdfrwt beam="1">  1        2 0.84928718E-01 0.18869908E+04</pdfrwt>
<pdfrwt beam="2">  1       -2 0.21390893E+00 0.18869908E+04</pdfrwt>
<totfact> 0.55723430E+00</totfact>
</mgrwt>
</event>
<event>
 8    2  0.7085383E-010  0.1463801E+04  0.7818608E-02  0.8908888E-01
          2   -1    0    0  501    0  0.00000000000E+00  0.00000000000E+00  0.16153547409E+04  0.16153547409E+04  0.25500000000E-02 0.  1.
         -2   -1    0    0    0  501 -0.00000000000E+00 -0.00000000000E+00 -0.33161656318E+03  0.33161656319E+03  0.25500000000E-02 0. -1.
    -200001    2    1    2    0    0  0.11488566411E+03  0.17978717886E+03  0.65697783091E+03  0.98346174119E+03  0.70003927073E+03 0.  0.
   -5000001    2    3    3    0    0  0.10449555481E+03  0.82182659692E+02  0.14516684195E+03  0.26125326370E+03  0.17177469331E+03 0.  0.
     200001    1    1    2    0    0 -0.11488566411E+03 -0.17978717886E+03  0.62676034682E+03  0.96350956293E+03  0.70000000000E+03 0.  1.
         11    1    4    4    0    0  0.13125387283E+03  0.10728900669E+03  0.11891395409E+03  0.20707254421E+03  0.51100000000E-03 0.  1.
    -200002    1    4    4    0    0 -0.26758318019E+02 -0.25106346998E+02  0.26252887860E+02  0.54180719484E+02  0.30000000000E+02 0.  1.
    -200000    1    3    3    0    0  0.10390109296E+02  0.97604519168E+02  0.51181098896E+03  0.72220847749E+03  0.50000000000E+03 0.  1.
<mgrwt>
<rscale>  0 0.14638011E+04</rscale>
<asrwt>0</asrwt>
<pdfrwt beam="1">  1        2 0.23076496E+00 0.14638011E+04</pdfrwt>
<pdfrwt beam="2">  1       -2 0.47373795E-01 0.14638011E+04</pdfrwt>
<totfact> 0.52018469E+01</totfact>
</mgrwt>
</event>
<event>
 8    2  0.7085383E-010  0.1515941E+04  0.7818608E-02  0.8873921E-01
         -2   -1    0    0    0  501 -0.00000000000E+00  0.00000000000E+00  0.45170670771E+03  0.45170670772E+03  0.25500000000E-02 0. -1.
          2   -1    0    0  501    0  0.00000000000E+00 -0.00000000000E+00 -0.12718862004E+04  0.12718862004E+04  0.25500000000E-02 0.  1.
    -200001    2    1    2    0    0 -0.22732229470E+03 -0.16443066053E+03 -0.49837257229E+03  0.90367061801E+03  0.69966598978E+03 0.  0.
   -5000001    2    3    3    0    0 -0.10872348468E+03 -0.41836459324E+01 -0.56722071468E+02  0.20739484771E+03  0.16720326089E+03 0.  0.
     200001    1    1    2    0    0  0.22732229470E+03  0.16443066053E+03 -0.32180692037E+03  0.81992229009E+03  0.70000000000E+03 0. -1.
         11    1    4    4    0    0 -0.38973456887E+01  0.28950161417E+02  0.45657407844E+02  0.54202398847E+02  0.51100000000E-03 0.  1.
    -200002    1    4    4    0    0 -0.10482613899E+03 -0.33133807349E+02 -0.10237947931E+03  0.15319244886E+03  0.30000000000E+02 0.  1.
    -200000    1    3    3    0    0 -0.11859881003E+03 -0.16024701460E+03 -0.44165050082E+03  0.69627577030E+03  0.50000000000E+03 0.  1.
<mgrwt>
<rscale>  0 0.15159413E+04</rscale>
<asrwt>0</asrwt>
<pdfrwt beam="1">  1        2 0.18169803E+00 0.15159413E+04</pdfrwt>
<pdfrwt beam="2">  1       -2 0.64529530E-01 0.15159413E+04</pdfrwt>
<totfact> 0.41723435E+01</totfact>
</mgrwt>
</event>
<event>
 8    2  0.7085383E-010  0.1483079E+04  0.7818608E-02  0.8895784E-01
          2   -1    0    0  501    0  0.00000000000E+00  0.00000000000E+00  0.13751722776E+04  0.13751722776E+04  0.25500000000E-02 0.  1.
         -2   -1    0    0    0  501 -0.00000000000E+00 -0.00000000000E+00 -0.39986343459E+03  0.39986343460E+03  0.25500000000E-02 0. -1.
    -200001    2    1    2    0    0 -0.23627387367E+03  0.34878824178E+02  0.42749980415E+03  0.85463546295E+03  0.70043116451E+03 0.  0.
   -5000001    2    3    3    0    0 -0.16686168970E+03  0.10955226433E+03  0.10528446224E+03  0.25113161001E+03  0.11017143661E+03 0.  0.
     200001    1    1    2    0    0  0.23627387367E+03 -0.34878824178E+02  0.54780903884E+03  0.92040024923E+03  0.70000000000E+03 0. -1.
         11    1    4    4    0    0 -0.10499217326E+03  0.10930202704E+03  0.10121979900E+03  0.18225185122E+03  0.51100000000E-03 0.  1.
    -200002    1    4    4    0    0 -0.61869516441E+02  0.25023728760E+00  0.40646632325E+01  0.68879758787E+02  0.30000000000E+02 0.  1.
    -200000    1    3    3    0    0 -0.69412183965E+02 -0.74673440153E+02  0.32221534192E+03  0.60350385294E+03  0.50000000000E+03 0.  1.
<mgrwt>
<rscale>  0 0.14830794E+04</rscale>
<asrwt>0</asrwt>
<pdfrwt beam="1">  1        2 0.19645318E+00 0.14830794E+04</pdfrwt>
<pdfrwt beam="2">  1       -2 0.57123348E-01 0.14830794E+04</pdfrwt>
<totfact> 0.47494557E+01</totfact>
</mgrwt>
</event>
<event>
 8    2  0.7085383E-010  0.2712516E+04  0.7818608E-02  0.8330955E-01
         -2   -1    0    0    0  501 -0.00000000000E+00  0.00000000000E+00  0.10296614012E+04  0.10296614012E+04  0.25500000000E-02 0. -1.
          2   -1    0    0  501    0  0.00000000000E+00 -0.00000000000E+00 -0.17864469997E+04  0.17864469997E+04  0.25500000000E-02 0.  1.
    -200001    2    1    2    0    0 -0.20217725446E+03 -0.10315085117E+04  0.13414260261E+03  0.12705863170E+04  0.70107766988E+03 0.  0.
   -5000001    2    3    3    0    0 -0.31210461394E+02 -0.35730074726E+03  0.39698145112E+02  0.40878267957E+03  0.19206618519E+03 0.  0.
     200001    1    1    2    0    0  0.20217725446E+03  0.10315085117E+04 -0.89092820116E+03  0.15455220838E+04  0.70000000000E+03 0. -1.
         11    1    4    4    0    0 -0.65763450463E+02 -0.55484180396E+02 -0.37573852549E+02  0.93888870942E+02  0.51100000000E-03 0.  1.
    -200002    1    4    4    0    0  0.34552989069E+02 -0.30181656686E+03  0.77271997661E+02  0.31489380862E+03  0.30000000000E+02 0.  1.
    -200000    1    3    3    0    0 -0.17096679306E+03 -0.67420776448E+03  0.94444457496E+02  0.86180363747E+03  0.50000000000E+03 0.  1.
<mgrwt>
<rscale>  0 0.27125158E+04</rscale>
<asrwt>0</asrwt>
<pdfrwt beam="1">  1        2 0.25520671E+00 0.27125158E+04</pdfrwt>
<pdfrwt beam="2">  1       -2 0.14709449E+00 0.27125158E+04</pdfrwt>
<totfact> 0.28805237E+00</totfact>
</mgrwt>
</event>
<event>
 8    2  0.7085383E-010  0.1502690E+04  0.7818608E-02  0.8882666E-01
         -2   -1    0    0    0  501 -0.00000000000E+00  0.00000000000E+00  0.76616260120E+03  0.76616260121E+03  0.25500000000E-02 0. -1.
          2   -1    0    0  501    0  0.00000000000E+00 -0.00000000000E+00 -0.73681374220E+03  0.73681374221E+03  0.25500000000E-02 0.  1.
    -200001    2    1    2    0    0 -0.12364013469E+03 -0.18951489314E+03  0.16941679789E+03  0.75409597571E+03  0.69911080062E+03 0.  0.
   -5000001    2    3    3    0    0 -0.41104906877E+02 -0.11814412856E+03  0.11222959452E+03  0.23914333119E+03  0.17013642315E+03 0.  0.
     200001    1    1    2    0    0  0.12364013469E+03  0.18951489314E+03 -0.14006793889E+03  0.74888036771E+03  0.70000000000E+03 0.  1.
         11    1    4    4    0    0  0.63977284296E+02 -0.30173534475E+02  0.33418505362E+02  0.78232548146E+02  0.51100000000E-03 0.  1.
    -200002    1    4    4    0    0 -0.10508219117E+03 -0.87970594088E+02  0.78811089156E+02  0.16091078304E+03  0.30000000000E+02 0.  1.
    -200000    1    3    3    0    0 -0.82535227812E+02 -0.71370764581E+02  0.57187203373E+02  0.51495264452E+03  0.50000000000E+03 0.  1.
<mgrwt>
<rscale>  0 0.15026898E+04</rscale>
<asrwt>0</asrwt>
<pdfrwt beam="1">  1        2 0.10525911E+00 0.15026898E+04</pdfrwt>
<pdfrwt beam="2">  1       -2 0.10945180E+00 0.15026898E+04</pdfrwt>
<totfact> 0.27178752E+01</totfact>
</mgrwt>
</event>
<event>
 8    2  0.7085383E-010  0.2556486E+04  0.7818608E-02  0.8383134E-01
         -2   -1    0    0    0  501 -0.00000000000E+00  0.00000000000E+00  0.14278177917E+04  0.14278177917E+04  0.25500000000E-02 0. -1.
          2   -1    0    0  501    0  0.00000000000E+00 -0.00000000000E+00 -0.11443370095E+04  0.11443370095E+04  0.25500000000E-02 0.  1.
    -200001    2    1    2    0    0  0.81949504710E+03  0.60444421570E+03 -0.18618278079E+03  0.12502210644E+04  0.70104474877E+03 0.  0.
   -5000001    2    3    3    0    0  0.20045053567E+03  0.18503766251E+03 -0.19010565149E+02  0.33530876601E+03  0.19403920525E+03 0.  0.
     200001    1    1    2    0    0 -0.81949504710E+03 -0.60444421570E+03  0.46966356294E+03  0.13219337368E+04  0.70000000000E+03 0.  1.
         11    1    4    4    0    0  0.25563164645E+02  0.15206254647E+03 -0.48121931319E+01  0.15427135388E+03  0.51100000000E-03 0.  1.
    -200002    1    4    4    0    0  0.17488737103E+03  0.32975116048E+02 -0.14198372017E+02  0.18103741213E+03  0.30000000000E+02 0.  1.
    -200000    1    3    3    0    0  0.61904451143E+03  0.41940655319E+03 -0.16717221564E+03  0.91491229835E+03  0.50000000000E+03 0. -1.
<mgrwt>
<rscale>  0 0.25564857E+04</rscale>
<asrwt>0</asrwt>
<pdfrwt beam="1">  1        2 0.16347672E+00 0.25564857E+04</pdfrwt>
<pdfrwt beam="2">  1       -2 0.20397397E+00 0.25564857E+04</pdfrwt>
<totfact> 0.25734536E+00</totfact>
</mgrwt>
</event>
<event>
 8    2  0.7085383E-010  0.1770085E+04  0.7818608E-02  0.8722372E-01
          2   -1    0    0  501    0  0.00000000000E+00  0.00000000000E+00  0.46617525191E+03  0.46617525191E+03  0.25500000000E-02 0.  1.
         -2   -1    0    0    0  501 -0.00000000000E+00 -0.00000000000E+00 -0.16802694496E+04  0.16802694496E+04  0.25500000000E-02 0. -1.
    -200001    2    1    2    0    0  0.48004990901E+02 -0.14252021325E+03 -0.12377342298E+04  0.14300821247E+04  0.70038016067E+03 0.  0.
   -5000001    2    3    3    0    0  0.12297366468E+03 -0.95868909960E+02 -0.22320254886E+03  0.29559053030E+03  0.11506960366E+03 0.  0.
     200001    1    1    2    0    0 -0.48004990901E+02  0.14252021325E+03  0.23640032097E+02  0.71636257681E+03  0.70000000000E+03 0.  1.
         11    1    4    4    0    0  0.97131548897E+02 -0.24505984106E+02 -0.70659767476E+02  0.12258826937E+03  0.51100000000E-03 0.  1.
    -200002    1    4    4    0    0  0.25842115778E+02 -0.71362925854E+02 -0.15254278138E+03  0.17300226093E+03  0.30000000000E+02 0.  1.
    -200000    1    3    3    0    0 -0.74968673775E+02 -0.46651303290E+02 -0.10145316809E+04  0.11344915944E+04  0.50000000000E+03 0. -1.
<mgrwt>
<rscale>  0 0.17700848E+04</rscale>
<asrwt>0</asrwt>
<pdfrwt beam="1">  1        2 0.66596466E-01 0.17700848E+04</pdfrwt>
<pdfrwt beam="2">  1       -2 0.24003849E+00 0.17700848E+04</pdfrwt>
<totfact> 0.51089923E+00</totfact>
</mgrwt>
</event>
<event>
 8    2  0.7085383E-010  0.1644632E+04  0.7818608E-02  0.8793588E-01
          2   -1    0    0  501    0  0.00000000000E+00  0.00000000000E+00  0.25396108923E+03  0.25396108924E+03  0.25500000000E-02 0.  1.
         -2   -1    0    0    0  501 -0.00000000000E+00 -0.00000000000E+00 -0.26626274285E+04  0.26626274285E+04  0.25500000000E-02 0. -1.
    -200001    2    1    2    0    0 -0.27381877572E+03 -0.12812243848E+03 -0.17486803733E+04  0.19081374498E+04  0.70122278781E+03 0.  0.
   -5000001    2    3    3    0    0  0.17304767588E+02 -0.61992348612E+02 -0.37710772088E+03  0.41805770457E+03  0.16858085577E+03 0.  0.
     200001    1    1    2    0    0  0.27381877572E+03  0.12812243848E+03 -0.65998596597E+03  0.10084510680E+04  0.70000000000E+03 0.  1.
         11    1    4    4    0    0 -0.36344173748E+02 -0.91377674484E+02 -0.29720588278E+03  0.31305289508E+03  0.51100000000E-03 0.  1.
    -200002    1    4    4    0    0  0.53648941336E+02  0.29385325872E+02 -0.79901838102E+02  0.10500480949E+03  0.30000000000E+02 0.  1.
    -200000    1    3    3    0    0 -0.29112354331E+03 -0.66130089870E+02 -0.13715726524E+04  0.14900797452E+04  0.50000000000E+03 0. -1.
<mgrwt>
<rscale>  0 0.16446322E+04</rscale>
<asrwt>0</asrwt>
<pdfrwt beam="1">  1        2 0.36280157E-01 0.16446322E+04</pdfrwt>
<pdfrwt beam="2">  1       -2 0.38037533E+00 0.16446322E+04</pdfrwt>
<totfact> 0.13792910E+00</totfact>
</mgrwt>
</event>
<event>
 8    2  0.7085383E-010  0.1895354E+04  0.7818608E-02  0.8657172E-01
         -2   -1    0    0    0  501 -0.00000000000E+00  0.00000000000E+00  0.36386316145E+03  0.36386316146E+03  0.25500000000E-02 0. -1.
          2   -1    0    0  501    0  0.00000000000E+00 -0.00000000000E+00 -0.24682135603E+04  0.24682135603E+04  0.25500000000E-02 0.  1.
    -200001    2    1    2    0    0 -0.48485078310E+03  0.40198925270E+03 -0.12104553310E+04  0.15337223659E+04  0.70030460946E+03 0.  0.
   -5000001    2    3    3    0    0 -0.15815414424E+03  0.17875104422E+03 -0.39214612572E+03  0.49632372165E+03  0.18866367854E+03 0.  0.
     200001    1    1    2    0    0  0.48485078310E+03 -0.40198925270E+03 -0.89389506782E+03  0.12983543559E+04  0.70000000000E+03 0. -1.
         11    1    4    4    0    0 -0.17265807638E+03  0.19958008574E+03 -0.32651291088E+03  0.41982580071E+03  0.51100000000E-03 0.  1.
    -200002    1    4    4    0    0  0.14503932138E+02 -0.20829041524E+02 -0.65633214839E+02  0.76497920942E+02  0.30000000000E+02 0.  1.
    -200000    1    3    3    0    0 -0.32669663886E+03  0.22323820848E+03 -0.81830920527E+03  0.10373986442E+04  0.50000000000E+03 0. -1.
<mgrwt>
<rscale>  0 0.18953543E+04</rscale>
<asrwt>0</asrwt>
<pdfrwt beam="1">  1        2 0.35260193E+00 0.18953543E+04</pdfrwt>
<pdfrwt beam="2">  1       -2 0.51980453E-01 0.18953543E+04</pdfrwt>
<totfact> 0.15051497E+01</totfact>
</mgrwt>
</event>
<event>
 8    2  0.7085383E-010  0.3428148E+04  0.7818608E-02  0.8131032E-01
          2   -1    0    0  501    0  0.00000000000E+00  0.00000000000E+00  0.28814492985E+04  0.28814492985E+04  0.25500000000E-02 0.  1.
         -2   -1    0    0    0  501 -0.00000000000E+00 -0.00000000000E+00 -0.10196428191E+04  0.10196428192E+04  0.25500000000E-02 0. -1.
    -200001    2    1    2    0    0 -0.13487602129E+04 -0.25930419407E+03  0.17834347700E+04  0.23575459079E+04  0.70070703701E+03 0.  0.
   -5000001    2    3    3    0    0 -0.37243342821E+03 -0.11427678155E+03  0.55157447716E+03  0.70172987881E+03  0.19085224051E+03 0.  0.
     200001    1    1    2    0    0  0.13487602129E+04  0.25930419407E+03  0.78371709360E+02  0.15435462098E+04  0.70000000000E+03 0. -1.
         11    1    4    4    0    0 -0.31326720919E+03 -0.92931997719E+02  0.53988527057E+03  0.63106957298E+03  0.51100000000E-03 0.  1.
    -200002    1    4    4    0    0 -0.59166219018E+02 -0.21344783834E+02  0.11689206589E+02  0.70660305834E+02  0.30000000000E+02 0.  1.
    -200000    1    3    3    0    0 -0.97632678472E+03 -0.14502741252E+03  0.12318602929E+04  0.16558160291E+04  0.50000000000E+03 0. -1.
<mgrwt>
<rscale>  0 0.34281477E+04</rscale>
<asrwt>0</asrwt>
<pdfrwt beam="1">  1        2 0.41163562E+00 0.34281477E+04</pdfrwt>
<pdfrwt beam="2">  1       -2 0.14566326E+00 0.34281477E+04</pdfrwt>
<totfact> 0.74109407E-01</totfact>
</mgrwt>
</event>
<event>
 8    2  0.7085383E-010  0.1488553E+04  0.7818608E-02  0.8892101E-01
         -2   -1    0    0    0  501 -0.00000000000E+00  0.00000000000E+00  0.21741849934E+03  0.21741849935E+03  0.25500000000E-02 0. -1.
          2   -1    0    0  501    0  0.00000000000E+00 -0.00000000000E+00 -0.25478408020E+04  0.25478408020E+04  0.25500000000E-02 0.  1.
    -200001    2    1    2    0    0  0.16005707680E+03  0.15142342085E+03 -0.13961807799E+04  0.15772548640E+04  0.69990343320E+03 0.  0.
   -5000001    2    3    3    0    0 -0.22683370681E+01 -0.11330696781E+02 -0.33445973001E+03  0.38139114666E+03  0.18292721425E+03 0.  0.
     200001    1    1    2    0    0 -0.16005707680E+03 -0.15142342085E+03 -0.93424152280E+03  0.11880044373E+04  0.70000000000E+03 0. -1.
         11    1    4    4    0    0 -0.91083282371E+01  0.74000960618E+02 -0.71803883935E+02  0.10351280870E+03  0.51100000000E-03 0.  1.
    -200002    1    4    4    0    0  0.68399911690E+01 -0.85331657399E+02 -0.26265584607E+03  0.27787833796E+03  0.30000000000E+02 0.  1.
    -200000    1    3    3    0    0  0.16232541387E+03  0.16275411763E+03 -0.10617210499E+04  0.11958637174E+04  0.50000000000E+03 0.  1.
<mgrwt>
<rscale>  0 0.14885533E+04</rscale>
<asrwt>0</asrwt>
<pdfrwt beam="1">  1        2 0.36397724E+00 0.14885533E+04</pdfrwt>
<pdfrwt beam="2">  1       -2 0.31059787E-01 0.14885533E+04</pdfrwt>
<totfact> 0.38765205E+01</totfact>
</mgrwt>
</event>
<event>
 8    2  0.7085383E-010  0.2522719E+04  0.7818608E-02  0.8394936E-01
          2   -1    0    0  501    0  0.00000000000E+00  0.00000000000E+00  0.17209918985E+04  0.17209918985E+04  0.25500000000E-02 0.  1.
         -2   -1    0    0    0  501 -0.00000000000E+00 -0.00000000000E+00 -0.92448319734E+03  0.92448319734E+03  0.25500000000E-02 0. -1.
    -200001    2    1    2    0    0  0.82843072290E+02  0.39715532362E+03 -0.61643591510E+03  0.10172835179E+04  0.70019796684E+03 0.  0.
   -5000001    2    3    3    0    0  0.77122353205E+02  0.89023919143E+02 -0.20363202074E+03  0.29938049926E+03  0.18517442567E+03 0.  0.
     200001    1    1    2    0    0 -0.82843072290E+02 -0.39715532362E+03  0.14129446162E+04  0.16281915779E+04  0.70000000000E+03 0.  1.
         11    1    4    4    0    0 -0.11011665832E+02 -0.50413708665E+02 -0.42652354814E+02  0.66947906443E+02  0.51100000000E-03 0.  1.
    -200002    1    4    4    0    0  0.88134019036E+02  0.13943762781E+03 -0.16097966593E+03  0.23243259281E+03  0.30000000000E+02 0.  1.
    -200000    1    3    3    0    0  0.57207190849E+01  0.30813140447E+03 -0.41280389436E+03  0.71790301869E+03  0.50000000000E+03 0. -1.
<mgrwt>
<rscale>  0 0.25227192E+04</rscale>
<asrwt>0</asrwt>
<pdfrwt beam="1">  1        2 0.24585598E+00 0.25227192E+04</pdfrwt>
<pdfrwt beam="2">  1       -2 0.13206903E+00 0.25227192E+04</pdfrwt>
<totfact> 0.41808951E+00</totfact>
</mgrwt>
</event>
<event>
 8    2  0.7085383E-010  0.1550256E+04  0.7818608E-02  0.8851704E-01
         -2   -1    0    0    0  501 -0.00000000000E+00  0.00000000000E+00  0.14675163542E+03  0.14675163544E+03  0.25500000000E-02 0. -1.
          2   -1    0    0  501    0  0.00000000000E+00 -0.00000000000E+00 -0.40941536748E+04  0.40941536748E+04  0.25500000000E-02 0.  1.
    -200001    2    1    2    0    0  0.97007226211E+02  0.16287969434E+03 -0.27216446164E+04  0.28166786932E+04  0.70027797755E+03 0.  0.
   -5000001    2    3    3    0    0  0.17792318107E+01 -0.17291642708E+00 -0.27984773319E+03  0.31707341560E+03  0.14905569947E+03 0.  0.
     200001    1    1    2    0    0 -0.97007226211E+02 -0.16287969434E+03 -0.12257574229E+04  0.14242266170E+04  0.70000000000E+03 0. -1.
         11    1    4    4    0    0 -0.64347653957E+02  0.23014847366E+02 -0.17135245323E+03  0.18447755148E+03  0.51100000000E-03 0.  1.
    -200002    1    4    4    0    0  0.66126885768E+02 -0.23187763793E+02 -0.10849527995E+03  0.13259586413E+03  0.30000000000E+02 0.  1.
    -200000    1    3    3    0    0  0.95227994400E+02  0.16305261077E+03 -0.24417968833E+04  0.24996052776E+04  0.50000000000E+03 0.  1.
<mgrwt>
<rscale>  0 0.15502564E+04</rscale>
<asrwt>0</asrwt>
<pdfrwt beam="1">  1        2 0.58487902E+00 0.15502564E+04</pdfrwt>
<pdfrwt beam="2">  1       -2 0.20964522E-01 0.15502564E+04</pdfrwt>
<totfact> 0.94536333E+00</totfact>
</mgrwt>
</event>
<event>
 8    2  0.7085383E-010  0.1755254E+04  0.7818608E-02  0.8730463E-01
         -2   -1    0    0    0  501 -0.00000000000E+00  0.00000000000E+00  0.27580478355E+04  0.27580478355E+04  0.25500000000E-02 0. -1.
          2   -1    0    0  501    0  0.00000000000E+00 -0.00000000000E+00 -0.27926613606E+03  0.27926613608E+03  0.25500000000E-02 0.  1.
    -200001    2    1    2    0    0 -0.75836521763E+02  0.43109866927E+03  0.17552517066E+04  0.19395467416E+04  0.69952538814E+03 0.  0.
   -5000001    2    3    3    0    0 -0.19449397954E+01  0.37861178954E+02  0.19247154493E+03  0.25064842512E+03  0.15601950439E+03 0.  0.
     200001    1    1    2    0    0  0.75836521763E+02 -0.43109866927E+03  0.72352999284E+03  0.10977672300E+04  0.70000000000E+03 0. -1.
         11    1    4    4    0    0 -0.14061363204E+02 -0.34154333224E+02 -0.56598061906E+01  0.37366747511E+02  0.51100000000E-03 0.  1.
    -200002    1    4    4    0    0  0.12116423408E+02  0.72015512179E+02  0.19813135112E+03  0.21328167761E+03  0.30000000000E+02 0.  1.
    -200000    1    3    3    0    0 -0.73891581967E+02  0.39323749031E+03  0.15627801616E+04  0.16888983164E+04  0.50000000000E+03 0. -1.
<mgrwt>
<rscale>  0 0.17552542E+04</rscale>
<asrwt>0</asrwt>
<pdfrwt beam="1">  1        2 0.39895161E-01 0.17552542E+04</pdfrwt>
<pdfrwt beam="2">  1       -2 0.39400685E+00 0.17552542E+04</pdfrwt>
<totfact> 0.10019910E+00</totfact>
</mgrwt>
</event>
<event>
 8    2  0.7085383E-010  0.2685567E+04  0.7818608E-02  0.8339703E-01
         -2   -1    0    0    0  501 -0.00000000000E+00  0.00000000000E+00  0.51580047360E+03  0.51580047361E+03  0.25500000000E-02 0. -1.
          2   -1    0    0  501    0  0.00000000000E+00 -0.00000000000E+00 -0.34956676557E+04  0.34956676558E+04  0.25500000000E-02 0.  1.
    -200001    2    1    2    0    0 -0.89771377351E+03  0.54749477445E+03 -0.81780500084E+03  0.15074406888E+04  0.70564287264E+03 0.  0.
   -5000001    2    3    3    0    0 -0.31899725438E+03  0.14513949987E+03 -0.26344939475E+03  0.48074077429E+03  0.19718363457E+03 0.  0.
     200001    1    1    2    0    0  0.89771377351E+03 -0.54749477445E+03 -0.21620621813E+04  0.25040274405E+04  0.70000000000E+03 0.  1.
         11    1    4    4    0    0 -0.19068493012E+03  0.31652916142E+01 -0.20134064771E+03  0.27732439140E+03  0.51100000000E-03 0.  1.
    -200002    1    4    4    0    0 -0.12831232427E+03  0.14197420825E+03 -0.62108747042E+02  0.20341638289E+03  0.30000000000E+02 0.  1.
    -200000    1    3    3    0    0 -0.57871651912E+03  0.40235527458E+03 -0.55435560609E+03  0.10266999145E+04  0.50000000000E+03 0. -1.
<mgrwt>
<rscale>  0 0.26855666E+04</rscale>
<asrwt>0</asrwt>
<pdfrwt beam="1">  1        2 0.49938108E+00 0.26855666E+04</pdfrwt>
<pdfrwt beam="2">  1       -2 0.73685784E-01 0.26855666E+04</pdfrwt>
<totfact> 0.17737295E+00</totfact>
</mgrwt>
</event>
<event>
 8    2  0.7085383E-010  0.2417793E+04  0.7818608E-02  0.8432872E-01
         -2   -1    0    0    0  501 -0.00000000000E+00  0.00000000000E+00  0.13167705070E+04  0.13167705070E+04  0.25500000000E-02 0. -1.
          2   -1    0    0  501    0  0.00000000000E+00 -0.00000000000E+00 -0.11098599110E+04  0.11098599110E+04  0.25500000000E-02 0.  1.
    -200001    2    1    2    0    0 -0.50073371716E+03  0.52511259229E+03 -0.56232311779E+03  0.11584829516E+04  0.70668095369E+03 0.  0.
   -5000001    2    3    3    0    0 -0.35006545111E+02  0.86777340056E+02 -0.26250780047E+02  0.18564527583E+03  0.15817490331E+03 0.  0.
     200001    1    1    2    0    0  0.50073371716E+03 -0.52511259229E+03  0.76923371372E+03  0.12681474664E+04  0.70000000000E+03 0. -1.
         11    1    4    4    0    0  0.41097515734E+02  0.90099762826E+02  0.19617361152E+01  0.99049590962E+02  0.51100000000E-03 0.  1.
    -200002    1    4    4    0    0 -0.76104060845E+02 -0.33224227710E+01 -0.28212516162E+02  0.86595684872E+02  0.30000000000E+02 0.  1.
    -200000    1    3    3    0    0 -0.46572717205E+03  0.43833525223E+03 -0.53607233775E+03  0.97283767579E+03  0.50000000000E+03 0.  1.
<mgrwt>
<rscale>  0 0.24177930E+04</rscale>
<asrwt>0</asrwt>
<pdfrwt beam="1">  1        2 0.15855142E+00 0.24177930E+04</pdfrwt>
<pdfrwt beam="2">  1       -2 0.18811007E+00 0.24177930E+04</pdfrwt>
<totfact> 0.34728189E+00</totfact>
</mgrwt>
</event>
<event>
 8    2  0.7085383E-010  0.1876142E+04  0.7818608E-02  0.8666824E-01
          2   -1    0    0  501    0  0.00000000000E+00  0.00000000000E+00  0.34537920771E+04  0.34537920771E+04  0.25500000000E-02 0.  1.
         -2   -1    0    0    0  501 -0.00000000000E+00 -0.00000000000E+00 -0.25478579350E+03  0.25478579351E+03  0.25500000000E-02 0. -1.
    -200001    2    1    2    0    0  0.35388495634E+03 -0.50020556782E+03  0.18354491215E+04  0.20579027642E+04  0.70046422971E+03 0.  0.
   -5000001    2    3    3    0    0 -0.33811818971E+01 -0.67530239063E+02  0.24608577458E+03  0.29980069606E+03  0.15732286334E+03 0.  0.
     200001    1    1    2    0    0 -0.35388495634E+03  0.50020556782E+03  0.13635571621E+04  0.16506751064E+04  0.70000000000E+03 0.  1.
         11    1    4    4    0    0  0.21274959871E+02  0.30029860720E+02  0.53865616845E+01  0.37194508996E+02  0.51100000000E-03 0.  1.
    -200002    1    4    4    0    0 -0.24656141769E+02 -0.97560099783E+02  0.24069921289E+03  0.26260618706E+03  0.30000000000E+02 0.  1.
    -200000    1    3    3    0    0  0.35726613824E+03 -0.43267532876E+03  0.15893633469E+04  0.17581020682E+04  0.50000000000E+03 0. -1.
<mgrwt>
<rscale>  0 0.18761420E+04</rscale>
<asrwt>0</asrwt>
<pdfrwt beam="1">  1        2 0.49339887E+00 0.18761420E+04</pdfrwt>
<pdfrwt beam="2">  1       -2 0.36397971E-01 0.18761420E+04</pdfrwt>
<totfact> 0.86140615E+00</totfact>
</mgrwt>
</event>
<event>
 8    2  0.7085383E-010  0.1503372E+04  0.7818608E-02  0.8882214E-01
          2   -1    0    0  501    0  0.00000000000E+00  0.00000000000E+00  0.24122097685E+04  0.24122097685E+04  0.25500000000E-02 0.  1.
         -2   -1    0    0    0  501 -0.00000000000E+00 -0.00000000000E+00 -0.23423828627E+03  0.23423828628E+03  0.25500000000E-02 0. -1.
    -200001    2    1    2    0    0 -0.20987340223E+03 -0.82378532503E+02  0.13682517595E+04  0.15526111854E+04  0.69832338346E+03 0.  0.
   -5000001    2    3    3    0    0 -0.85911008507E+02 -0.33655257377E+02  0.50373772218E+03  0.54507699073E+03  0.18666508871E+03 0.  0.
     200001    1    1    2    0    0  0.20987340223E+03  0.82378532503E+02  0.80971972273E+03  0.10938368694E+04  0.70000000000E+03 0. -1.
         11    1    4    4    0    0 -0.68867066610E+02 -0.10588548046E+03  0.34281369677E+03  0.36534317912E+03  0.51100000000E-03 0.  1.
    -200002    1    4    4    0    0 -0.17043941897E+02  0.72230223079E+02  0.16092402541E+03  0.17973381161E+03  0.30000000000E+02 0.  1.
    -200000    1    3    3    0    0 -0.12396239372E+03 -0.48723275126E+02  0.86451403736E+03  0.10075341947E+04  0.50000000000E+03 0.  1.
<mgrwt>
<rscale>  0 0.15033721E+04</rscale>
<asrwt>0</asrwt>
<pdfrwt beam="1">  1        2 0.34460139E+00 0.15033721E+04</pdfrwt>
<pdfrwt beam="2">  1       -2 0.33462613E-01 0.15033721E+04</pdfrwt>
<totfact> 0.39632729E+01</totfact>
</mgrwt>
</event>
<event>
 8    2  0.7085383E-010  0.1875568E+04  0.7818608E-02  0.8667114E-01
         -2   -1    0    0    0  501 -0.00000000000E+00  0.00000000000E+00  0.71662256111E+03  0.71662256112E+03  0.25500000000E-02 0. -1.
          2   -1    0    0  501    0  0.00000000000E+00 -0.00000000000E+00 -0.12271998831E+04  0.12271998831E+04  0.25500000000E-02 0.  1.
    -200001    2    1    2    0    0 -0.36410185100E+03 -0.37465692650E+03  0.98894467365E+02  0.87874318309E+03  0.69962239506E+03 0.  0.
   -5000001    2    3    3    0    0 -0.66762494402E+02 -0.17382572261E+03  0.78069909350E+01  0.25661715582E+03  0.17640522400E+03 0.  0.
     200001    1    1    2    0    0  0.36410185100E+03  0.37465692650E+03 -0.60947178936E+03  0.10650792611E+04  0.70000000000E+03 0.  1.
         11    1    4    4    0    0  0.54550828991E+02 -0.45801774239E+02 -0.23474835644E+02  0.74997755806E+02  0.51100000000E-03 0.  1.
    -200002    1    4    4    0    0 -0.12131332339E+03 -0.12802394837E+03  0.31281826579E+02  0.18161940002E+03  0.30000000000E+02 0.  1.
    -200000    1    3    3    0    0 -0.29733935660E+03 -0.20083120389E+03  0.91087476430E+02  0.62212602727E+03  0.50000000000E+03 0. -1.
<mgrwt>
<rscale>  0 0.18755683E+04</rscale>
<asrwt>0</asrwt>
<pdfrwt beam="1">  1        2 0.17531427E+00 0.18755683E+04</pdfrwt>
<pdfrwt beam="2">  1       -2 0.10237465E+00 0.18755683E+04</pdfrwt>
<totfact> 0.15170830E+01</totfact>
</mgrwt>
</event>
<event>
 8    2  0.7085383E-010  0.1646768E+04  0.7818608E-02  0.8792321E-01
         -2   -1    0    0    0  501 -0.00000000000E+00  0.00000000000E+00  0.52418279498E+03  0.52418279499E+03  0.25500000000E-02 0. -1.
          2   -1    0    0  501    0  0.00000000000E+00 -0.00000000000E+00 -0.12933685319E+04  0.12933685319E+04  0.25500000000E-02 0.  1.
    -200001    2    1    2    0    0  0.26662518625E+03 -0.12401657606E+03 -0.73566318897E+03  0.10575560227E+04  0.70053930119E+03 0.  0.
   -5000001    2    3    3    0    0  0.93645940364E+02 -0.15411955152E+02 -0.22936157846E+03  0.31724655771E+03  0.19756405086E+03 0.  0.
     200001    1    1    2    0    0 -0.26662518625E+03  0.12401657606E+03 -0.33522547907E+02  0.75999530413E+03  0.70000000000E+03 0. -1.
         11    1    4    4    0    0 -0.25582197138E+02  0.15450880534E+02 -0.17797648637E+03  0.18046830253E+03  0.51100000000E-03 0.  1.
    -200002    1    4    4    0    0  0.11922813750E+03 -0.30862835687E+02 -0.51385092095E+02  0.13677825517E+03  0.30000000000E+02 0.  1.
    -200000    1    3    3    0    0  0.17297924589E+03 -0.10860462090E+03 -0.50630161051E+03  0.74030946502E+03  0.50000000000E+03 0.  1.
<mgrwt>
<rscale>  0 0.16467684E+04</rscale>
<asrwt>0</asrwt>
<pdfrwt beam="1">  1        2 0.18476693E+00 0.16467684E+04</pdfrwt>
<pdfrwt beam="2">  1       -2 0.74883257E-01 0.16467684E+04</pdfrwt>
<totfact> 0.29058687E+01</totfact>
</mgrwt>
</event>
<event>
 8    2  0.7085383E-010  0.2491031E+04  0.7818608E-02  0.8406188E-01
          2   -1    0    0  501    0  0.00000000000E+00  0.00000000000E+00  0.18671198926E+04  0.18671198926E+04  0.25500000000E-02 0.  1.
         -2   -1    0    0    0  501 -0.00000000000E+00 -0.00000000000E+00 -0.83085680300E+03  0.83085680300E+03  0.25500000000E-02 0. -1.
    -200001    2    1    2    0    0  0.66626811579E+03  0.70231592606E+03  0.13650709685E+03  0.12024093422E+04  0.69999512609E+03 0.  0.
   -5000001    2    3    3    0    0  0.33887321621E+03  0.33180906450E+03 -0.12845540332E+02  0.48354289772E+03  0.93361737778E+02 0.  0.
     200001    1    1    2    0    0 -0.66626811579E+03 -0.70231592606E+03  0.89975599273E+03  0.14955673534E+04  0.70000000000E+03 0.  1.
         11    1    4    4    0    0  0.16578315614E+03  0.13770398183E+03 -0.43810851977E+02  0.21992233225E+03  0.51100000000E-03 0.  1.
    -200002    1    4    4    0    0  0.17309006007E+03  0.19410508268E+03  0.30965311645E+02  0.26362056548E+03  0.30000000000E+02 0.  1.
    -200000    1    3    3    0    0  0.32739489958E+03  0.37050686156E+03  0.14935263718E+03  0.71886644445E+03  0.50000000000E+03 0. -1.
<mgrwt>
<rscale>  0 0.24910313E+04</rscale>
<asrwt>0</asrwt>
<pdfrwt beam="1">  1        2 0.26673141E+00 0.24910313E+04</pdfrwt>
<pdfrwt beam="2">  1       -2 0.11869383E+00 0.24910313E+04</pdfrwt>
<totfact> 0.46036248E+00</totfact>
</mgrwt>
</event>
<event>
 8    2  0.7085383E-010  0.1789040E+04  0.7818608E-02  0.8712150E-01
          2   -1    0    0  501    0  0.00000000000E+00  0.00000000000E+00  0.27836397514E+04  0.27836397514E+04  0.25500000000E-02 0.  1.
         -2   -1    0    0    0  501 -0.00000000000E+00 -0.00000000000E+00 -0.28745307978E+03  0.28745307979E+03  0.25500000000E-02 0. -1.
    -200001    2    1    2    0    0 -0.84551007486E+02 -0.39948737685E+03  0.18995418176E+04  0.20647508819E+04  0.69871170753E+03 0.  0.
   -5000001    2    3    3    0    0 -0.53734167578E+02 -0.40495123450E+02  0.47718992330E+03  0.51461862078E+03  0.18054053887E+03 0.  0.
     200001    1    1    2    0    0  0.84551007486E+02  0.39948737685E+03  0.59664485398E+03  0.10063419493E+04  0.70000000000E+03 0. -1.
         11    1    4    4    0    0 -0.75072097781E+02  0.52606066548E+02  0.20355529419E+03  0.22324420685E+03  0.51100000000E-03 0.  1.
    -200002    1    4    4    0    0  0.21337930203E+02 -0.93101189998E+02  0.27363462911E+03  0.29137441393E+03  0.30000000000E+02 0.  1.
    -200000    1    3    3    0    0 -0.30816839907E+02 -0.35899225340E+03  0.14223518944E+04  0.15501322611E+04  0.50000000000E+03 0.  1.
<mgrwt>
<rscale>  0 0.17890398E+04</rscale>
<asrwt>0</asrwt>
<pdfrwt beam="1">  1        2 0.39766280E+00 0.17890398E+04</pdfrwt>
<pdfrwt beam="2">  1       -2 0.41064728E-01 0.17890398E+04</pdfrwt>
<totfact> 0.16550984E+01</totfact>
</mgrwt>
</event>
<event>
 8    2  0.7085383E-010  0.2115866E+04  0.7818608E-02  0.8554286E-01
          2   -1    0    0  501    0  0.00000000000E+00  0.00000000000E+00  0.25322389805E+04  0.25322389805E+04  0.25500000000E-02 0.  1.
         -2   -1    0    0    0  501 -0.00000000000E+00 -0.00000000000E+00 -0.44198907318E+03  0.44198907319E+03  0.25500000000E-02 0. -1.
    -200001    2    1    2    0    0 -0.68594192689E+03 -0.39802494028E+03  0.10366795791E+04  0.14812610022E+04  0.70034950339E+03 0.  0.
   -5000001    2    3    3    0    0 -0.26283294578E+03 -0.21632423293E+03  0.47493175155E+03  0.59944640796E+03  0.13378526166E+03 0.  0.
     200001    1    1    2    0    0  0.68594192689E+03  0.39802494028E+03  0.10535703282E+04  0.14929670514E+04  0.70000000000E+03 0. -1.
         11    1    4    4    0    0 -0.29131148424E+02  0.11812913896E+02  0.80838415421E+02  0.86735333926E+02  0.51100000000E-03 0.  1.
    -200002    1    4    4    0    0 -0.23370179736E+03 -0.22813714683E+03  0.39409333613E+03  0.51271107403E+03  0.30000000000E+02 0.  1.
    -200000    1    3    3    0    0 -0.42310898111E+03 -0.18170070735E+03  0.56174782753E+03  0.88181459428E+03  0.50000000000E+03 0. -1.
<mgrwt>
<rscale>  0 0.21158657E+04</rscale>
<asrwt>0</asrwt>
<pdfrwt beam="1">  1        2 0.36174843E+00 0.21158657E+04</pdfrwt>
<pdfrwt beam="2">  1       -2 0.63141295E-01 0.21158657E+04</pdfrwt>
<totfact> 0.90998914E+00</totfact>
</mgrwt>
</event>
<event>
 8    2  0.7085383E-010  0.1527255E+04  0.7818608E-02  0.8866528E-01
         -2   -1    0    0    0  501 -0.00000000000E+00  0.00000000000E+00  0.24971446240E+03  0.24971446241E+03  0.25500000000E-02 0. -1.
          2   -1    0    0  501    0  0.00000000000E+00 -0.00000000000E+00 -0.23351760314E+04  0.23351760314E+04  0.25500000000E-02 0.  1.
    -200001    2    1    2    0    0  0.11507789339E+03 -0.19657453595E+03 -0.13851247844E+04  0.15688412422E+04  0.70057669484E+03 0.  0.
   -5000001    2    3    3    0    0 -0.10094159661E+02  0.75998797715E+02 -0.36815987511E+03  0.39658619672E+03  0.12594128979E+03 0.  0.
     200001    1    1    2    0    0 -0.11507789339E+03  0.19657453595E+03 -0.70033678466E+03  0.10160492516E+04  0.70000000000E+03 0. -1.
         11    1    4    4    0    0  0.44671708892E+02  0.94127767933E-01 -0.73984298955E+02  0.86424805048E+02  0.51100000000E-03 0.  1.
    -200002    1    4    4    0    0 -0.54765868554E+02  0.75904669947E+02 -0.29417557615E+03  0.31016139167E+03  0.30000000000E+02 0.  1.
    -200000    1    3    3    0    0  0.12517205305E+03 -0.27257333366E+03 -0.10169649093E+04  0.11722550455E+04  0.50000000000E+03 0.  1.
<mgrwt>
<rscale>  0 0.15272554E+04</rscale>
<asrwt>0</asrwt>
<pdfrwt beam="1">  1        2 0.33359656E+00 0.15272554E+04</pdfrwt>
<pdfrwt beam="2">  1       -2 0.35673496E-01 0.15272554E+04</pdfrwt>
<totfact> 0.38400163E+01</totfact>
</mgrwt>
</event>
<event>
 8    2  0.7085383E-010  0.1545186E+04  0.7818608E-02  0.8854948E-01
         -2   -1    0    0    0  501 -0.00000000000E+00  0.00000000000E+00  0.38011418521E+03  0.38011418522E+03  0.25500000000E-02 0. -1.
          2   -1    0    0  501    0  0.00000000000E+00 -0.00000000000E+00 -0.15703180952E+04  0.15703180952E+04  0.25500000000E-02 0.  1.
    -200001    2    1    2    0    0 -0.87230043270E+02  0.22875609799E+03 -0.32219782296E+03  0.80877865521E+03  0.70026640873E+03 0.  0.
   -5000001    2    3    3    0    0 -0.10743998628E+03  0.39981755873E+02 -0.98084491627E+02  0.22888989060E+03  0.17212821694E+03 0.  0.
     200001    1    1    2    0    0  0.87230043270E+02 -0.22875609799E+03 -0.86800608704E+03  0.11416536252E+04  0.70000000000E+03 0.  1.
         11    1    4    4    0    0  0.90490093790E+01 -0.52014759264E+02 -0.10113905920E+02  0.53756030780E+02  0.51100000000E-03 0.  1.
    -200002    1    4    4    0    0 -0.11648899566E+03  0.91996515136E+02 -0.87970585707E+02  0.17513385982E+03  0.30000000000E+02 0.  1.
    -200000    1    3    3    0    0  0.20209943011E+02  0.18877434212E+03 -0.22411333133E+03  0.57988876461E+03  0.50000000000E+03 0. -1.
<mgrwt>
<rscale>  0 0.15451863E+04</rscale>
<asrwt>0</asrwt>
<pdfrwt beam="1">  1        2 0.22433115E+00 0.15451863E+04</pdfrwt>
<pdfrwt beam="2">  1       -2 0.54302027E-01 0.15451863E+04</pdfrwt>
<totfact> 0.41305929E+01</totfact>
</mgrwt>
</event>
<event>
 8    2  0.7085383E-010  0.1501727E+04  0.7818608E-02  0.8883305E-01
         -2   -1    0    0    0  501 -0.00000000000E+00  0.00000000000E+00  0.78569630396E+03  0.78569630397E+03  0.25500000000E-02 0. -1.
          2   -1    0    0  501    0  0.00000000000E+00 -0.00000000000E+00 -0.71757470416E+03  0.71757470417E+03  0.25500000000E-02 0.  1.
    -200001    2    1    2    0    0  0.25526820151E+03  0.61020244525E+02 -0.42251056999E+02  0.74758096035E+03  0.69871797996E+03 0.  0.
   -5000001    2    3    3    0    0  0.79411620944E+02 -0.38229725629E+02 -0.68584312036E+02  0.20770177588E+03  0.17512424842E+03 0.  0.
     200001    1    1    2    0    0 -0.25526820151E+03 -0.61020244525E+02  0.11037265680E+03  0.75569004778E+03  0.70000000000E+03 0. -1.
         11    1    4    4    0    0 -0.37423133219E+02  0.27089614750E+02 -0.51951776351E+02  0.69522120174E+02  0.51100000000E-03 0.  1.
    -200002    1    4    4    0    0  0.11683475416E+03 -0.65319340379E+02 -0.16632535685E+02  0.13817965571E+03  0.30000000000E+02 0.  1.
    -200000    1    3    3    0    0  0.17585658057E+03  0.99249970154E+02  0.26333255037E+02  0.53987918447E+03  0.50000000000E+03 0. -1.
<mgrwt>
<rscale>  0 0.15017267E+04</rscale>
<asrwt>0</asrwt>
<pdfrwt beam="1">  1        2 0.10251067E+00 0.15017267E+04</pdfrwt>
<pdfrwt beam="2">  1       -2 0.11224233E+00 0.15017267E+04</pdfrwt>
<totfact> 0.26430352E+01</totfact>
</mgrwt>
</event>
<event>
 8    2  0.7085383E-010  0.1621063E+04  0.7818608E-02  0.8807712E-01
         -2   -1    0    0    0  501 -0.00000000000E+00  0.00000000000E+00  0.19266431521E+03  0.19266431523E+03  0.25500000000E-02 0. -1.
          2   -1    0    0  501    0  0.00000000000E+00 -0.00000000000E+00 -0.34098762450E+04  0.34098762450E+04  0.25500000000E-02 0.  1.
    -200001    2    1    2    0    0 -0.95666736844E+02  0.30296540199E+03 -0.21786906820E+04  0.23104621797E+04  0.70043003693E+03 0.  0.
   -5000001    2    3    3    0    0 -0.64540416459E+02  0.11652035298E+03 -0.55309069136E+03  0.59923281643E+03  0.18822379608E+03 0.  0.
     200001    1    1    2    0    0  0.95666736844E+02 -0.30296540199E+03 -0.10385212479E+04  0.12920783806E+04  0.70000000000E+03 0. -1.
         11    1    4    4    0    0 -0.18087218843E+02  0.72013764872E+02 -0.46317793574E+02  0.87512672330E+02  0.51100000000E-03 0.  1.
    -200002    1    4    4    0    0 -0.46453197616E+02  0.44506588103E+02 -0.50677289778E+03  0.51172014410E+03  0.30000000000E+02 0.  1.
    -200000    1    3    3    0    0 -0.31126320386E+02  0.18644504901E+03 -0.16255999906E+04  0.17112293632E+04  0.50000000000E+03 0.  1.
<mgrwt>
<rscale>  0 0.16210632E+04</rscale>
<asrwt>0</asrwt>
<pdfrwt beam="1">  1        2 0.48712514E+00 0.16210632E+04</pdfrwt>
<pdfrwt beam="2">  1       -2 0.27523476E-01 0.16210632E+04</pdfrwt>
<totfact> 0.15851809E+01</totfact>
</mgrwt>
</event>
<event>
 8    2  0.7085383E-010  0.1577188E+04  0.7818608E-02  0.8834686E-01
          2   -1    0    0  501    0  0.00000000000E+00  0.00000000000E+00  0.14124914556E+04  0.14124914556E+04  0.25500000000E-02 0.  1.
         -2   -1    0    0    0  501 -0.00000000000E+00 -0.00000000000E+00 -0.44027219506E+03  0.44027219507E+03  0.25500000000E-02 0. -1.
    -200001    2    1    2    0    0  0.21846492642E+03  0.27749303117E+03  0.58537486646E+03  0.97847657443E+03  0.70001668980E+03 0.  0.
   -5000001    2    3    3    0    0  0.87803330254E+02  0.76228353477E+02  0.11323660711E+03  0.25012606874E+03  0.19031640601E+03 0.  0.
     200001    1    1    2    0    0 -0.21846492642E+03 -0.27749303117E+03  0.38684439405E+03  0.87428707621E+03  0.70000000000E+03 0. -1.
         11    1    4    4    0    0  0.48485459142E+02  0.82142847083E+02 -0.28776795724E+02  0.99631275449E+02  0.51100000000E-03 0.  1.
    -200002    1    4    4    0    0  0.39317871112E+02 -0.59144936060E+01  0.14201340283E+03  0.15049479329E+03  0.30000000000E+02 0.  1.
    -200000    1    3    3    0    0  0.13066159616E+03  0.20126467769E+03  0.47213825935E+03  0.72835050569E+03  0.50000000000E+03 0.  1.
<mgrwt>
<rscale>  0 0.15771883E+04</rscale>
<asrwt>0</asrwt>
<pdfrwt beam="1">  1        2 0.20178450E+00 0.15771883E+04</pdfrwt>
<pdfrwt beam="2">  1       -2 0.62896026E-01 0.15771883E+04</pdfrwt>
<totfact> 0.36730032E+01</totfact>
</mgrwt>
</event>
<event>
 8    2  0.7085383E-010  0.1662379E+04  0.7818608E-02  0.8783117E-01
          2   -1    0    0  501    0  0.00000000000E+00  0.00000000000E+00  0.13666318219E+04  0.13666318219E+04  0.25500000000E-02 0.  1.
         -2   -1    0    0    0  501 -0.00000000000E+00 -0.00000000000E+00 -0.50553166198E+03  0.50553166198E+03  0.25500000000E-02 0. -1.
    -200001    2    1    2    0    0  0.29090610546E+03  0.23116130911E+02  0.47400568672E+02  0.75983810771E+03  0.69996172633E+03 0.  0.
   -5000001    2    3    3    0    0 -0.36899857268E+02  0.14848687866E+02 -0.56403904799E+02  0.15296046887E+03  0.13650429137E+03 0.  0.
     200001    1    1    2    0    0 -0.29090610546E+03 -0.23116130911E+02  0.81369959129E+03  0.11123253762E+04  0.70000000000E+03 0.  1.
         11    1    4    4    0    0 -0.16730123407E+02  0.16556031599E+02 -0.96277118799E+02  0.99112475582E+02  0.51100000000E-03 0.  1.
    -200002    1    4    4    0    0 -0.20169733861E+02 -0.17073437334E+01  0.39873214000E+02  0.53847993290E+02  0.30000000000E+02 0.  1.
    -200000    1    3    3    0    0  0.32780596272E+03  0.82674430449E+01  0.10380447347E+03  0.60687763884E+03  0.50000000000E+03 0. -1.
<mgrwt>
<rscale>  0 0.16623786E+04</rscale>
<asrwt>0</asrwt>
<pdfrwt beam="1">  1        2 0.19523312E+00 0.16623786E+04</pdfrwt>
<pdfrwt beam="2">  1       -2 0.72218809E-01 0.16623786E+04</pdfrwt>
<totfact> 0.28651578E+01</totfact>
</mgrwt>
</event>
<event>
 8    2  0.7085383E-010  0.1476605E+04  0.7818608E-02  0.8900161E-01
         -2   -1    0    0    0  501 -0.00000000000E+00  0.00000000000E+00  0.72215954941E+03  0.72215954942E+03  0.25500000000E-02 0. -1.
          2   -1    0    0  501    0  0.00000000000E+00 -0.00000000000E+00 -0.75480589478E+03  0.75480589478E+03  0.25500000000E-02 0.  1.
    -200001    2    1    2    0    0  0.71964588760E+02  0.93463038578E+02 -0.21930590428E+03  0.74296542203E+03  0.69999164071E+03 0.  0.
   -5000001    2    3    3    0    0  0.36249254336E+02  0.65181313244E+02 -0.14094824253E+03  0.23481646330E+03  0.17236517145E+03 0.  0.
     200001    1    1    2    0    0 -0.71964588760E+02 -0.93463038578E+02  0.18665955891E+03  0.73400002217E+03  0.70000000000E+03 0. -1.
         11    1    4    4    0    0 -0.32490938642E+02 -0.33401101728E+02  0.75738588493E+00  0.46603308081E+02  0.51100000000E-03 0.  1.
    -200002    1    4    4    0    0  0.68740192978E+02  0.98582414972E+02 -0.14170562842E+03  0.18821315522E+03  0.30000000000E+02 0.  1.
    -200000    1    3    3    0    0  0.35715334424E+02  0.28281725334E+02 -0.78357661749E+02  0.50814895873E+03  0.50000000000E+03 0.  1.
<mgrwt>
<rscale>  0 0.14766046E+04</rscale>
<asrwt>0</asrwt>
<pdfrwt beam="1">  1        2 0.10782941E+00 0.14766046E+04</pdfrwt>
<pdfrwt beam="2">  1       -2 0.10316565E+00 0.14766046E+04</pdfrwt>
<totfact> 0.30456815E+01</totfact>
</mgrwt>
</event>
<event>
 8    2  0.7085383E-010  0.2209961E+04  0.7818608E-02  0.8514293E-01
          2   -1    0    0  501    0  0.00000000000E+00  0.00000000000E+00  0.12802059688E+04  0.12802059688E+04  0.25500000000E-02 0.  1.
         -2   -1    0    0    0  501 -0.00000000000E+00 -0.00000000000E+00 -0.95373876884E+03  0.95373876884E+03  0.25500000000E-02 0. -1.
    -200001    2    1    2    0    0 -0.28434786015E+03  0.79847866342E+03  0.27286721318E+03  0.11333563313E+04  0.70115488744E+03 0.  0.
   -5000001    2    3    3    0    0 -0.10274368000E+03  0.31928194164E+03  0.90749095038E+02  0.39458939555E+03  0.18699778286E+03 0.  0.
     200001    1    1    2    0    0  0.28434786015E+03 -0.79847866342E+03  0.53599986749E+02  0.11005884063E+04  0.70000000000E+03 0.  1.
         11    1    4    4    0    0 -0.17877006923E+02  0.10788971059E+03  0.12071357364E+03  0.16288506343E+03  0.51100000000E-03 0.  1.
    -200002    1    4    4    0    0 -0.84866673074E+02  0.21139223105E+03 -0.29964478600E+02  0.23170433212E+03  0.30000000000E+02 0.  1.
    -200000    1    3    3    0    0 -0.18160418016E+03  0.47919672178E+03  0.18211811814E+03  0.73876693576E+03  0.50000000000E+03 0. -1.
<mgrwt>
<rscale>  0 0.22099611E+04</rscale>
<asrwt>0</asrwt>
<pdfrwt beam="1">  1        2 0.18288657E+00 0.22099611E+04</pdfrwt>
<pdfrwt beam="2">  1       -2 0.13624840E+00 0.22099611E+04</pdfrwt>
<totfact> 0.68099723E+00</totfact>
</mgrwt>
</event>
<event>
 8    2  0.7085383E-010  0.1665415E+04  0.7818608E-02  0.8781339E-01
          2   -1    0    0  501    0  0.00000000000E+00  0.00000000000E+00  0.95164028682E+03  0.95164028682E+03  0.25500000000E-02 0.  1.
         -2   -1    0    0    0  501 -0.00000000000E+00 -0.00000000000E+00 -0.72863824059E+03  0.72863824059E+03  0.25500000000E-02 0. -1.
    -200001    2    1    2    0    0  0.32111828316E+03  0.26395976595E+03 -0.70612394639E+02  0.81483000225E+03  0.69725899957E+03 0.  0.
   -5000001    2    3    3    0    0  0.38854729441E+02  0.46790752759E+02 -0.33577127555E+02  0.19984487637E+03  0.18738059284E+03 0.  0.
     200001    1    1    2    0    0 -0.32111828316E+03 -0.26395976595E+03  0.29361444087E+03  0.86544852516E+03  0.70000000000E+03 0. -1.
         11    1    4    4    0    0  0.62245966175E+01  0.94325357586E+02  0.39141881836E+02  0.10231376056E+03  0.51100000000E-03 0.  1.
    -200002    1    4    4    0    0  0.32630132824E+02 -0.47534604827E+02 -0.72719009391E+02  0.97531115809E+02  0.30000000000E+02 0.  1.
    -200000    1    3    3    0    0  0.28226355372E+03  0.21716901319E+03 -0.37035267084E+02  0.61498512588E+03  0.50000000000E+03 0. -1.
<mgrwt>
<rscale>  0 0.16654147E+04</rscale>
<asrwt>0</asrwt>
<pdfrwt beam="1">  1        2 0.13594861E+00 0.16654147E+04</pdfrwt>
<pdfrwt beam="2">  1       -2 0.10409118E+00 0.16654147E+04</pdfrwt>
<totfact> 0.21627642E+01</totfact>
</mgrwt>
</event>
<event>
 8    2  0.7085383E-010  0.1599317E+04  0.7818608E-02  0.8820968E-01
         -2   -1    0    0    0  501 -0.00000000000E+00  0.00000000000E+00  0.64144859525E+03  0.64144859526E+03  0.25500000000E-02 0. -1.
          2   -1    0    0  501    0  0.00000000000E+00 -0.00000000000E+00 -0.99688966297E+03  0.99688966298E+03  0.25500000000E-02 0.  1.
    -200001    2    1    2    0    0 -0.25914322439E+03 -0.24164130819E+03 -0.18585397670E+02  0.78451305656E+03  0.69969249412E+03 0.  0.
   -5000001    2    3    3    0    0 -0.16481800984E+03 -0.13561173205E+03 -0.79054250195E+02  0.26125786142E+03  0.12825980447E+03 0.  0.
     200001    1    1    2    0    0  0.25914322439E+03  0.24164130819E+03 -0.33685567005E+03  0.85382520167E+03  0.70000000000E+03 0.  1.
         11    1    4    4    0    0 -0.58174353148E+02  0.13576398836E+02 -0.38477029230E+02  0.71056707974E+02  0.51100000000E-03 0.  1.
    -200002    1    4    4    0    0 -0.10664365669E+03 -0.14918813089E+03 -0.40577220965E+02  0.19020115344E+03  0.30000000000E+02 0.  1.
    -200000    1    3    3    0    0 -0.94325214550E+02 -0.10602957614E+03  0.60468852526E+02  0.52325519514E+03  0.50000000000E+03 0. -1.
<mgrwt>
<rscale>  0 0.15993167E+04</rscale>
<asrwt>0</asrwt>
<pdfrwt beam="1">  1        2 0.14241281E+00 0.15993167E+04</pdfrwt>
<pdfrwt beam="2">  1       -2 0.91635514E-01 0.15993167E+04</pdfrwt>
<totfact> 0.27491709E+01</totfact>
</mgrwt>
</event>
<event>
 8    2  0.7085383E-010  0.2115652E+04  0.7818608E-02  0.8554380E-01
          2   -1    0    0  501    0  0.00000000000E+00  0.00000000000E+00  0.44952835355E+04  0.44952835355E+04  0.25500000000E-02 0.  1.
         -2   -1    0    0    0  501 -0.00000000000E+00 -0.00000000000E+00 -0.24892657387E+03  0.24892657389E+03  0.25500000000E-02 0. -1.
    -200001    2    1    2    0    0 -0.56849263853E+03  0.13655519457E+03  0.92049076548E+03  0.12955557115E+04  0.69952137287E+03 0.  0.
   -5000001    2    3    3    0    0 -0.20590351242E+03  0.98537026981E+02  0.32853693922E+03  0.43921139534E+03  0.18128520968E+03 0.  0.
     200001    1    1    2    0    0  0.56849263853E+03 -0.13655519457E+03  0.33258661961E+04  0.34486543978E+04  0.70000000000E+03 0.  1.
         11    1    4    4    0    0  0.16739068472E+02  0.54756464460E+02  0.10320681455E+03  0.11802590132E+03  0.51100000000E-03 0.  1.
    -200002    1    4    4    0    0 -0.22264258089E+03  0.43780562521E+02  0.22533012467E+03  0.32118549402E+03  0.30000000000E+02 0.  1.
    -200000    1    3    3    0    0 -0.36258912611E+03  0.38018167587E+02  0.59195382625E+03  0.85634431618E+03  0.50000000000E+03 0. -1.
<mgrwt>
<rscale>  0 0.21156517E+04</rscale>
<asrwt>0</asrwt>
<pdfrwt beam="1">  1        2 0.64218340E+00 0.21156517E+04</pdfrwt>
<pdfrwt beam="2">  1       -2 0.35560937E-01 0.21156517E+04</pdfrwt>
<totfact> 0.16960148E+00</totfact>
</mgrwt>
</event>
<event>
 8    2  0.7085383E-010  0.1701403E+04  0.7818608E-02  0.8760565E-01
          2   -1    0    0  501    0  0.00000000000E+00  0.00000000000E+00  0.12949189295E+04  0.12949189295E+04  0.25500000000E-02 0.  1.
         -2   -1    0    0    0  501 -0.00000000000E+00 -0.00000000000E+00 -0.55887123791E+03  0.55887123792E+03  0.25500000000E-02 0. -1.
    -200001    2    1    2    0    0  0.43777713498E+03  0.19078621733E+03  0.28596115389E+03  0.89429754524E+03  0.69996151127E+03 0.  0.
   -5000001    2    3    3    0    0  0.60886836089E+02  0.26031477032E+02 -0.27928498740E+02  0.17477191271E+03  0.15931219609E+03 0.  0.
     200001    1    1    2    0    0 -0.43777713498E+03 -0.19078621733E+03  0.45008653774E+03  0.95949262222E+03  0.70000000000E+03 0.  1.
         11    1    4    4    0    0 -0.17020496017E+01 -0.55049347688E+02 -0.38974482653E+02  0.67471015644E+02  0.51100000000E-03 0.  1.
    -200002    1    4    4    0    0  0.62588885691E+02  0.81080824720E+02  0.11045983914E+02  0.10730089706E+03  0.30000000000E+02 0.  1.
    -200000    1    3    3    0    0  0.37689029889E+03  0.16475474029E+03  0.31388965263E+03  0.71952563253E+03  0.50000000000E+03 0.  1.
<mgrwt>
<rscale>  0 0.17014029E+04</rscale>
<asrwt>0</asrwt>
<pdfrwt beam="1">  1        2 0.18498842E+00 0.17014029E+04</pdfrwt>
<pdfrwt beam="2">  1       -2 0.79838749E-01 0.17014029E+04</pdfrwt>
<totfact> 0.25033125E+01</totfact>
</mgrwt>
</event>
<event>
 8    2  0.7085383E-010  0.2091952E+04  0.7818608E-02  0.8564797E-01
         -2   -1    0    0    0  501 -0.00000000000E+00  0.00000000000E+00  0.66231219377E+03  0.66231219377E+03  0.25500000000E-02 0. -1.
          2   -1    0    0  501    0  0.00000000000E+00 -0.00000000000E+00 -0.16518885944E+04  0.16518885944E+04  0.25500000000E-02 0.  1.
    -200001    2    1    2    0    0 -0.18684495520E+03 -0.27963317248E+03  0.27830061157E+03  0.82738611696E+03  0.70285902407E+03 0.  0.
   -5000001    2    3    3    0    0  0.47000241181E+02 -0.40562426508E+02  0.18331423209E+02  0.17208284645E+03  0.15944319318E+03 0.  0.
     200001    1    1    2    0    0  0.18684495520E+03  0.27963317248E+03 -0.12678770122E+04  0.14868146712E+04  0.70000000000E+03 0.  1.
         11    1    4    4    0    0  0.55360924232E+01 -0.86088364376E+02  0.46522369542E+02  0.98011150734E+02  0.51100000000E-03 0.  1.
    -200002    1    4    4    0    0  0.41464148758E+02  0.45525937868E+02 -0.28190946332E+02  0.74071695715E+02  0.30000000000E+02 0.  1.
    -200000    1    3    3    0    0 -0.23384519639E+03 -0.23907074597E+03  0.25996918836E+03  0.65530327051E+03  0.50000000000E+03 0. -1.
<mgrwt>
<rscale>  0 0.20919522E+04</rscale>
<asrwt>0</asrwt>
<pdfrwt beam="1">  1        2 0.23598408E+00 0.20919522E+04</pdfrwt>
<pdfrwt beam="2">  1       -2 0.94616029E-01 0.20919522E+04</pdfrwt>
<totfact> 0.10592108E+01</totfact>
</mgrwt>
</event>
<event>
 8    2  0.7085383E-010  0.1608892E+04  0.7818608E-02  0.8815104E-01
          2   -1    0    0  501    0  0.00000000000E+00  0.00000000000E+00  0.15710830135E+04  0.15710830135E+04  0.25500000000E-02 0.  1.
         -2   -1    0    0    0  501 -0.00000000000E+00 -0.00000000000E+00 -0.41190276297E+03  0.41190276298E+03  0.25500000000E-02 0. -1.
    -200001    2    1    2    0    0 -0.34700354029E+03  0.17126534088E+03  0.68469210910E+03  0.10529953086E+04  0.70018037801E+03 0.  0.
   -5000001    2    3    3    0    0 -0.11735019405E+03 -0.18557340366E+02  0.97955574594E+02  0.22653716045E+03  0.16615759852E+03 0.  0.
     200001    1    1    2    0    0  0.34700354029E+03 -0.17126534088E+03  0.47448814144E+03  0.92999046787E+03  0.70000000000E+03 0. -1.
         11    1    4    4    0    0 -0.10048381959E+03 -0.38770777444E+02 -0.13127458251E+02  0.10850115826E+03  0.51100000000E-03 0.  1.
    -200002    1    4    4    0    0 -0.16866374454E+02  0.20213437078E+02  0.11108303284E+03  0.11803600218E+03  0.30000000000E+02 0.  1.
    -200000    1    3    3    0    0 -0.22965334624E+03  0.18982268124E+03  0.58673653450E+03  0.82645814817E+03  0.50000000000E+03 0.  1.
<mgrwt>
<rscale>  0 0.16088921E+04</rscale>
<asrwt>0</asrwt>
<pdfrwt beam="1">  1        2 0.22444043E+00 0.16088921E+04</pdfrwt>
<pdfrwt beam="2">  1       -2 0.58843253E-01 0.16088921E+04</pdfrwt>
<totfact> 0.34728034E+01</totfact>
</mgrwt>
</event>
<event>
 8    2  0.7085383E-010  0.1531317E+04  0.7818608E-02  0.8863891E-01
          2   -1    0    0  501    0  0.00000000000E+00  0.00000000000E+00  0.14279837439E+04  0.14279837439E+04  0.25500000000E-02 0. -1.
         -2   -1    0    0    0  501 -0.00000000000E+00 -0.00000000000E+00 -0.41053175869E+03  0.41053175870E+03  0.25500000000E-02 0.  1.
    -200001    2    1    2    0    0  0.10386097111E+03  0.13929996845E+01  0.15769374019E+03  0.72497462700E+03  0.69995132140E+03 0.  0.
   -5000001    2    3    3    0    0 -0.13844110155E+02  0.48436491405E+02  0.42668311634E+02  0.19648770617E+03  0.18506507173E+03 0.  0.
     200001    1    1    2    0    0 -0.10386097111E+03 -0.13929996845E+01  0.85975824503E+03  0.11135408756E+04  0.70000000000E+03 0. -1.
         11    1    4    4    0    0 -0.88520055776E+02 -0.24813779294E+01  0.48704276087E+02  0.10106465268E+03  0.51100000000E-03 0.  1.
    -200002    1    4    4    0    0  0.74675945621E+02  0.50917869335E+02 -0.60359644531E+01  0.95423053498E+02  0.30000000000E+02 0.  1.
    -200000    1    3    3    0    0  0.11770508127E+03 -0.47043491721E+02  0.11502542856E+03  0.52848692083E+03  0.50000000000E+03 0.  1.
<mgrwt>
<rscale>  0 0.15313167E+04</rscale>
<asrwt>0</asrwt>
<pdfrwt beam="1">  1        2 0.20399767E+00 0.15313167E+04</pdfrwt>
<pdfrwt beam="2">  1       -2 0.58647395E-01 0.15313167E+04</pdfrwt>
<totfact> 0.41926554E+01</totfact>
</mgrwt>
</event>
<event>
 8    2  0.7085383E-010  0.1923485E+04  0.7818608E-02  0.8643254E-01
         -2   -1    0    0    0  501 -0.00000000000E+00  0.00000000000E+00  0.29298266589E+03  0.29298266590E+03  0.25500000000E-02 0. -1.
          2   -1    0    0  501    0  0.00000000000E+00 -0.00000000000E+00 -0.31570080204E+04  0.31570080204E+04  0.25500000000E-02 0.  1.
    -200001    2    1    2    0    0 -0.41553089407E+02  0.13143320671E+03 -0.25888687834E+04  0.26853257363E+04  0.69980810626E+03 0.  0.
   -5000001    2    3    3    0    0  0.94471220094E+01  0.35711988697E+02 -0.76808051008E+03  0.79402102547E+03  0.19788159256E+03 0.  0.
     200001    1    1    2    0    0  0.41553089407E+02 -0.13143320671E+03 -0.27515657111E+03  0.76466494996E+03  0.70000000000E+03 0. -1.
         11    1    4    4    0    0  0.87295377407E+02 -0.32847788956E+02 -0.36425448060E+03  0.37600636537E+03  0.51100000000E-03 0.  1.
    -200002    1    4    4    0    0 -0.77848255398E+02  0.68559777652E+02 -0.40382602947E+03  0.41801466010E+03  0.30000000000E+02 0.  1.
    -200000    1    3    3    0    0 -0.51000211417E+02  0.95721218009E+02 -0.18207882733E+04  0.18913047109E+04  0.50000000000E+03 0.  1.
<mgrwt>
<rscale>  0 0.19234850E+04</rscale>
<asrwt>0</asrwt>
<pdfrwt beam="1">  1        2 0.45100113E+00 0.19234850E+04</pdfrwt>
<pdfrwt beam="2">  1       -2 0.41854668E-01 0.19234850E+04</pdfrwt>
<totfact> 0.97647979E+00</totfact>
</mgrwt>
</event>
<event>
 8    2  0.7085383E-010  0.1556335E+04  0.7818608E-02  0.8847832E-01
          2   -1    0    0  501    0  0.00000000000E+00  0.00000000000E+00  0.26422653014E+04  0.26422653014E+04  0.25500000000E-02 0.  1.
         -2   -1    0    0    0  501 -0.00000000000E+00 -0.00000000000E+00 -0.22917618179E+03  0.22917618180E+03  0.25500000000E-02 0. -1.
    -200001    2    1    2    0    0 -0.30782345279E+03  0.32759826303E+02  0.96758730215E+03  0.12358058304E+04  0.70367775222E+03 0.  0.
   -5000001    2    3    3    0    0 -0.97507369885E+02 -0.84308534572E+02  0.40735492863E+03  0.44726403181E+03  0.13225528379E+03 0.  0.
     200001    1    1    2    0    0  0.30782345279E+03 -0.32759826303E+02  0.14455018175E+04  0.16356356528E+04  0.70000000000E+03 0.  1.
         11    1    4    4    0    0 -0.10430513403E+03 -0.62236195087E+02  0.18236982564E+03  0.21911562762E+03  0.51100000000E-03 0.  1.
    -200002    1    4    4    0    0  0.67977641417E+01 -0.22072339485E+02  0.22498510299E+03  0.22814840419E+03  0.30000000000E+02 0.  1.
    -200000    1    3    3    0    0 -0.21031608291E+03  0.11706836087E+03  0.56023237352E+03  0.78854179863E+03  0.50000000000E+03 0. -1.
<mgrwt>
<rscale>  0 0.15563345E+04</rscale>
<asrwt>0</asrwt>
<pdfrwt beam="1">  1        2 0.37746648E+00 0.15563345E+04</pdfrwt>
<pdfrwt beam="2">  1       -2 0.32739454E-01 0.15563345E+04</pdfrwt>
<totfact> 0.31109743E+01</totfact>
</mgrwt>
</event>
<event>
 8    2  0.7085383E-010  0.2669153E+04  0.7818608E-02  0.8345084E-01
          2   -1    0    0  501    0  0.00000000000E+00  0.00000000000E+00  0.34848718621E+04  0.34848718621E+04  0.25500000000E-02 0.  1.
         -2   -1    0    0    0  501 -0.00000000000E+00 -0.00000000000E+00 -0.51109322524E+03  0.51109322525E+03  0.25500000000E-02 0. -1.
    -200001    2    1    2    0    0  0.54689356649E+03 -0.25196017139E+02  0.29774776489E+04  0.31072913029E+04  0.70011333337E+03 0.  0.
   -5000001    2    3    3    0    0  0.14021254106E+03  0.25228974073E+02  0.99263499134E+03  0.10198209412E+04  0.18551136950E+03 0.  0.
     200001    1    1    2    0    0 -0.54689356649E+03  0.25196017139E+02 -0.36990120276E+01  0.88867378437E+03  0.70000000000E+03 0. -1.
         11    1    4    4    0    0 -0.44365941445E+02  0.14156844531E+02  0.19502298965E+03  0.20050615826E+03  0.51100000000E-03 0.  1.
    -200002    1    4    4    0    0  0.18457848251E+03  0.11072129542E+02  0.79761200169E+03  0.81931478291E+03  0.30000000000E+02 0.  1.
    -200000    1    3    3    0    0  0.40668102542E+03 -0.50424991212E+02  0.19848426575E+04  0.20874703618E+04  0.50000000000E+03 0.  1.
<mgrwt>
<rscale>  0 0.26691530E+04</rscale>
<asrwt>0</asrwt>
<pdfrwt beam="1">  1        2 0.49783886E+00 0.26691530E+04</pdfrwt>
<pdfrwt beam="2">  1       -2 0.73013314E-01 0.26691530E+04</pdfrwt>
<totfact> 0.18402288E+00</totfact>
</mgrwt>
</event>
<event>
 8    2  0.7085383E-010  0.3046334E+04  0.7818608E-02  0.8230622E-01
         -2   -1    0    0    0  501 -0.00000000000E+00  0.00000000000E+00  0.79214541867E+03  0.79214541867E+03  0.25500000000E-02 0. -1.
          2   -1    0    0  501    0  0.00000000000E+00 -0.00000000000E+00 -0.29288034601E+04  0.29288034601E+04  0.25500000000E-02 0.  1.
    -200001    2    1    2    0    0  0.86062458202E+03  0.53568853460E+03  0.24077471137E+02  0.12336984224E+04  0.70270562516E+03 0.  0.
   -5000001    2    3    3    0    0  0.39312327480E+03  0.20220774446E+03  0.67757957024E+02  0.47102228246E+03  0.14777336948E+03 0.  0.
     200001    1    1    2    0    0 -0.86062458202E+03 -0.53568853460E+03 -0.21607355126E+04  0.24872504563E+04  0.70000000000E+03 0.  1.
         11    1    4    4    0    0  0.16627561157E+03  0.12489133038E+03 -0.30669957549E+02  0.21020482797E+03  0.51100000000E-03 0.  1.
    -200002    1    4    4    0    0  0.22684766323E+03  0.77316414081E+02  0.98427914573E+02  0.26081745449E+03  0.30000000000E+02 0.  1.
    -200000    1    3    3    0    0  0.46750130722E+03  0.33348079014E+03 -0.43680485887E+02  0.76267613998E+03  0.50000000000E+03 0. -1.
<mgrwt>
<rscale>  0 0.30463344E+04</rscale>
<asrwt>0</asrwt>
<pdfrwt beam="1">  1        2 0.41840049E+00 0.30463344E+04</pdfrwt>
<pdfrwt beam="2">  1       -2 0.11316363E+00 0.30463344E+04</pdfrwt>
<totfact> 0.13611977E+00</totfact>
</mgrwt>
</event>
<event>
 8    2  0.7085383E-010  0.1799879E+04  0.7818608E-02  0.8706364E-01
         -2   -1    0    0    0  501 -0.00000000000E+00  0.00000000000E+00  0.81018502217E+03  0.81018502217E+03  0.25500000000E-02 0. -1.
          2   -1    0    0  501    0  0.00000000000E+00 -0.00000000000E+00 -0.99963671466E+03  0.99963671466E+03  0.25500000000E-02 0.  1.
    -200001    2    1    2    0    0 -0.25765973220E+02 -0.39734543629E+03  0.30976405064E+03  0.86231783748E+03  0.69935041620E+03 0.  0.
   -5000001    2    3    3    0    0 -0.19472681733E+02 -0.82057150106E+02  0.42822766259E+02  0.21370087946E+03  0.19162910884E+03 0.  0.
     200001    1    1    2    0    0  0.25765973220E+02  0.39734543629E+03 -0.49921574313E+03  0.94750389936E+03  0.70000000000E+03 0.  1.
         11    1    4    4    0    0  0.81363753722E+02 -0.10518868385E+02  0.20055707672E+02  0.84456725146E+02  0.51100000000E-03 0.  1.
    -200002    1    4    4    0    0 -0.10083643546E+03 -0.71538281722E+02  0.22767058587E+02  0.12924415431E+03  0.30000000000E+02 0.  1.
    -200000    1    3    3    0    0 -0.62932914876E+01 -0.31528828619E+03  0.26694128438E+03  0.64861695802E+03  0.50000000000E+03 0. -1.
<mgrwt>
<rscale>  0 0.17998785E+04</rscale>
<asrwt>0</asrwt>
<pdfrwt beam="1">  1        2 0.14280525E+00 0.17998785E+04</pdfrwt>
<pdfrwt beam="2">  1       -2 0.11574072E+00 0.17998785E+04</pdfrwt>
<totfact> 0.15448594E+01</totfact>
</mgrwt>
</event>
<event>
 8    2  0.7085383E-010  0.1621638E+04  0.7818608E-02  0.8807364E-01
         -2   -1    0    0    0  501 -0.00000000000E+00  0.00000000000E+00  0.25620323476E+03  0.25620323477E+03  0.25500000000E-02 0. -1.
          2   -1    0    0  501    0  0.00000000000E+00 -0.00000000000E+00 -0.25660403154E+04  0.25660403154E+04  0.25500000000E-02 0.  1.
    -200001    2    1    2    0    0 -0.29772308940E+03  0.28043026122E+03 -0.11407407107E+04  0.13995466423E+04  0.70011518026E+03 0.  0.
   -5000001    2    3    3    0    0 -0.60040732797E+02  0.61265782937E+02 -0.23408286713E+03  0.31485571101E+03  0.19230430135E+03 0.  0.
     200001    1    1    2    0    0  0.29772308940E+03 -0.28043026122E+03 -0.11690963700E+04  0.14226969079E+04  0.70000000000E+03 0.  1.
         11    1    4    4    0    0  0.31972529825E+02  0.79518753259E+02 -0.18697610502E+03  0.20568310245E+03  0.51100000000E-03 0.  1.
    -200002    1    4    4    0    0 -0.92013262621E+02 -0.18252970322E+02 -0.47106762110E+02  0.10917260856E+03  0.30000000000E+02 0.  1.
    -200000    1    3    3    0    0 -0.23768235661E+03  0.21916447829E+03 -0.90665784352E+03  0.10846909313E+04  0.50000000000E+03 0.  1.
<mgrwt>
<rscale>  0 0.16216385E+04</rscale>
<asrwt>0</asrwt>
<pdfrwt beam="1">  1        2 0.36657717E+00 0.16216385E+04</pdfrwt>
<pdfrwt beam="2">  1       -2 0.36600464E-01 0.16216385E+04</pdfrwt>
<totfact> 0.27457716E+01</totfact>
</mgrwt>
</event>
<event>
 8    2  0.7085383E-010  0.1720099E+04  0.7818608E-02  0.8749984E-01
          2   -1    0    0  501    0  0.00000000000E+00  0.00000000000E+00  0.15118052064E+04  0.15118052064E+04  0.25500000000E-02 0.  1.
         -2   -1    0    0    0  501 -0.00000000000E+00 -0.00000000000E+00 -0.48927267689E+03  0.48927267690E+03  0.25500000000E-02 0. -1.
    -200001    2    1    2    0    0 -0.49807922019E+02  0.19278084104E+03 -0.24193490494E+02  0.72621293253E+03  0.69796462419E+03 0.  0.
   -5000001    2    3    3    0    0 -0.53947331834E+02  0.99371837517E+02  0.70337974587E+02  0.20883630516E+03  0.16087291562E+03 0.  0.
     200001    1    1    2    0    0  0.49807922019E+02 -0.19278084104E+03  0.10467260200E+04  0.12748649508E+04  0.70000000000E+03 0.  1.
         11    1    4    4    0    0 -0.10726041867E+03  0.62537349520E+02  0.34088744030E+02  0.12875465027E+03  0.51100000000E-03 0.  1.
    -200002    1    4    4    0    0  0.53313086832E+02  0.36834487997E+02  0.36249230557E+02  0.80081654887E+02  0.30000000000E+02 0.  1.
    -200000    1    3    3    0    0  0.41394098151E+01  0.93409003522E+02 -0.94531465081E+02  0.51737662736E+03  0.50000000000E+03 0. -1.
<mgrwt>
<rscale>  0 0.17200988E+04</rscale>
<asrwt>0</asrwt>
<pdfrwt beam="1">  1        2 0.21597217E+00 0.17200988E+04</pdfrwt>
<pdfrwt beam="2">  1       -2 0.69896096E-01 0.17200988E+04</pdfrwt>
<totfact> 0.25596092E+01</totfact>
</mgrwt>
</event>
<event>
 8    2  0.7085383E-010  0.1476940E+04  0.7818608E-02  0.8899934E-01
         -2   -1    0    0    0  501 -0.00000000000E+00  0.00000000000E+00  0.11605598362E+04  0.11605598362E+04  0.25500000000E-02 0. -1.
          2   -1    0    0  501    0  0.00000000000E+00 -0.00000000000E+00 -0.46989211528E+03  0.46989211528E+03  0.25500000000E-02 0.  1.
    -200001    2    1    2    0    0 -0.97802617044E+02 -0.10750367475E+03  0.54956436012E+03  0.90173214911E+03  0.69998392185E+03 0.  0.
   -5000001    2    3    3    0    0 -0.11620140509E+03 -0.99426085624E+02  0.10232909115E+03  0.23059643358E+03  0.13897898848E+03 0.  0.
     200001    1    1    2    0    0  0.97802617044E+02  0.10750367475E+03  0.14110336084E+03  0.72871980241E+03  0.70000000000E+03 0.  1.
         11    1    4    4    0    0 -0.98620444651E+01 -0.18477241090E+02 -0.32328272207E+02  0.38519936961E+02  0.51100000000E-03 0.  1.
    -200002    1    4    4    0    0 -0.10633936062E+03 -0.80948844533E+02  0.13465736336E+03  0.19207649662E+03  0.30000000000E+02 0.  1.
    -200000    1    3    3    0    0  0.18398788042E+02 -0.80775891288E+01  0.44723526897E+03  0.67113571553E+03  0.50000000000E+03 0. -1.
<mgrwt>
<rscale>  0 0.14769400E+04</rscale>
<asrwt>0</asrwt>
<pdfrwt beam="1">  1        2 0.67127445E-01 0.14769400E+04</pdfrwt>
<pdfrwt beam="2">  1       -2 0.16579426E+00 0.14769400E+04</pdfrwt>
<totfact> 0.15955666E+01</totfact>
</mgrwt>
</event>
<event>
 8    2  0.7085383E-010  0.2984529E+04  0.7818608E-02  0.8248162E-01
         -2   -1    0    0    0  501 -0.00000000000E+00  0.00000000000E+00  0.11555523283E+04  0.11555523283E+04  0.25500000000E-02 0. -1.
          2   -1    0    0  501    0  0.00000000000E+00 -0.00000000000E+00 -0.19270904016E+04  0.19270904016E+04  0.25500000000E-02 0.  1.
    -200001    2    1    2    0    0  0.92274251023E+03  0.59437266389E+02 -0.13544440541E+04  0.17846574021E+04  0.70391534894E+03 0.  0.
   -5000001    2    3    3    0    0  0.35456105802E+03 -0.68310949995E+02 -0.33996792926E+03  0.51252864399E+03  0.12933479126E+03 0.  0.
     200001    1    1    2    0    0 -0.92274251023E+03 -0.59437266389E+02  0.58290598077E+03  0.12979853278E+04  0.70000000000E+03 0. -1.
         11    1    4    4    0    0  0.61572846798E+01 -0.30021059875E+02 -0.17388437366E+02  0.35235407546E+02  0.51100000000E-03 0.  1.
    -200002    1    4    4    0    0  0.34840377334E+03 -0.38289890120E+02 -0.32257949189E+03  0.47729323644E+03  0.30000000000E+02 0.  1.
    -200000    1    3    3    0    0  0.56818145222E+03  0.12774821638E+03 -0.10144761248E+04  0.12721287581E+04  0.50000000000E+03 0.  1.
<mgrwt>
<rscale>  0 0.29845293E+04</rscale>
<asrwt>0</asrwt>
<pdfrwt beam="1">  1        2 0.27529863E+00 0.29845293E+04</pdfrwt>
<pdfrwt beam="2">  1       -2 0.16507891E+00 0.29845293E+04</pdfrwt>
<totfact> 0.17477569E+00</totfact>
</mgrwt>
</event>
<event>
 8    2  0.7085383E-010  0.1501710E+04  0.7818608E-02  0.8883317E-01
          2   -1    0    0  501    0  0.00000000000E+00  0.00000000000E+00  0.31695270677E+04  0.31695270677E+04  0.25500000000E-02 0.  1.
         -2   -1    0    0    0  501 -0.00000000000E+00 -0.00000000000E+00 -0.17787610227E+03  0.17787610229E+03  0.25500000000E-02 0. -1.
    -200001    2    1    2    0    0  0.12333590684E+03  0.29914998852E+02  0.20274583513E+04  0.21491652761E+04  0.70158204433E+03 0.  0.
   -5000001    2    3    3    0    0  0.27092328132E+02 -0.39613654051E+02  0.41753088193E+03  0.45920565633E+03  0.18502584039E+03 0.  0.
     200001    1    1    2    0    0 -0.12333590684E+03 -0.29914998852E+02  0.96419261418E+03  0.11982378939E+04  0.70000000000E+03 0. -1.
         11    1    4    4    0    0  0.67860705208E+02  0.52651582427E+02  0.18432487477E+03  0.20335418339E+03  0.51100000000E-03 0.  1.
    -200002    1    4    4    0    0 -0.40768377076E+02 -0.92265236478E+02  0.23320600715E+03  0.25585147294E+03  0.30000000000E+02 0.  1.
    -200000    1    3    3    0    0  0.96243578710E+02  0.69528652903E+02  0.16099274693E+04  0.16899596198E+04  0.50000000000E+03 0.  1.
<mgrwt>
<rscale>  0 0.15017099E+04</rscale>
<asrwt>0</asrwt>
<pdfrwt beam="1">  1        2 0.45278956E+00 0.15017099E+04</pdfrwt>
<pdfrwt beam="2">  1       -2 0.25410873E-01 0.15017099E+04</pdfrwt>
<totfact> 0.25622267E+01</totfact>
</mgrwt>
</event>
<event>
 8    2  0.7085383E-010  0.1754380E+04  0.7818608E-02  0.8730943E-01
         -2   -1    0    0    0  501 -0.00000000000E+00  0.00000000000E+00  0.10240511735E+04  0.10240511735E+04  0.25500000000E-02 0. -1.
          2   -1    0    0  501    0  0.00000000000E+00 -0.00000000000E+00 -0.75139074472E+03  0.75139074473E+03  0.25500000000E-02 0.  1.
    -200001    2    1    2    0    0  0.35280871969E+02 -0.52218891036E+03  0.20893540636E+03  0.89909331375E+03  0.70056319113E+03 0.  0.
   -5000001    2    3    3    0    0  0.27553509522E+02 -0.30035618242E+03  0.24379212815E+02  0.32174553304E+03  0.10932890655E+03 0.  0.
     200001    1    1    2    0    0 -0.35280871969E+02  0.52218891036E+03  0.63725022381E+02  0.87634860444E+03  0.70000000000E+03 0. -1.
         11    1    4    4    0    0 -0.29415133464E+02 -0.18026360479E+03 -0.34006663440E+01  0.18267945100E+03  0.51100000000E-03 0.  1.
    -200002    1    4    4    0    0  0.56968642986E+02 -0.12009257763E+03  0.27779879159E+02  0.13906608203E+03  0.30000000000E+02 0.  1.
    -200000    1    3    3    0    0  0.77273624468E+01 -0.22183272795E+03  0.18455619354E+03  0.57734778071E+03  0.50000000000E+03 0.  1.
<mgrwt>
<rscale>  0 0.17543803E+04</rscale>
<asrwt>0</asrwt>
<pdfrwt beam="1">  1        2 0.10734153E+00 0.17543803E+04</pdfrwt>
<pdfrwt beam="2">  1       -2 0.14629302E+00 0.17543803E+04</pdfrwt>
<totfact> 0.12523832E+01</totfact>
</mgrwt>
</event>
<event>
 8    2  0.7085383E-010  0.1580511E+04  0.7818608E-02  0.8832611E-01
          2   -1    0    0  501    0  0.00000000000E+00  0.00000000000E+00  0.11743044259E+04  0.11743044259E+04  0.25500000000E-02 0.  1.
         -2   -1    0    0    0  501 -0.00000000000E+00 -0.00000000000E+00 -0.53180721683E+03  0.53180721684E+03  0.25500000000E-02 0. -1.
    -200001    2    1    2    0    0 -0.12157052611E+03  0.32567678151E+03  0.19477819383E+03  0.80539133350E+03  0.69990849149E+03 0.  0.
   -5000001    2    3    3    0    0  0.86947499951E+01  0.91358185700E+02 -0.58725331132E+02  0.18399107307E+03  0.14826373016E+03 0.  0.
     200001    1    1    2    0    0  0.12157052611E+03 -0.32567678151E+03  0.44771901521E+03  0.90072030920E+03  0.70000000000E+03 0.  1.
         11    1    4    4    0    0  0.18468615669E+02  0.42897664199E+02  0.45241936276E+02  0.65024089050E+02  0.51100000000E-03 0.  1.
    -200002    1    4    4    0    0 -0.97738656740E+01  0.48460521501E+02 -0.10396726741E+03  0.11896698402E+03  0.30000000000E+02 0.  1.
    -200000    1    3    3    0    0 -0.13026527611E+03  0.23431859581E+03  0.25350352496E+03  0.62140026043E+03  0.50000000000E+03 0.  1.
<mgrwt>
<rscale>  0 0.15805108E+04</rscale>
<asrwt>0</asrwt>
<pdfrwt beam="1">  1        2 0.16775778E+00 0.15805108E+04</pdfrwt>
<pdfrwt beam="2">  1       -2 0.75972459E-01 0.15805108E+04</pdfrwt>
<totfact> 0.33021428E+01</totfact>
</mgrwt>
</event>
<event>
 8    2  0.7085383E-010  0.1895817E+04  0.7818608E-02  0.8656941E-01
          2   -1    0    0  501    0  0.00000000000E+00  0.00000000000E+00  0.10340749851E+04  0.10340749851E+04  0.25500000000E-02 0.  1.
         -2   -1    0    0    0  501 -0.00000000000E+00 -0.00000000000E+00 -0.86892233648E+03  0.86892233648E+03  0.25500000000E-02 0. -1.
    -200001    2    1    2    0    0 -0.60620573186E+03  0.17252454626E+03 -0.26639253722E+02  0.94173032319E+03  0.69921115793E+03 0.  0.
   -5000001    2    3    3    0    0 -0.11732562291E+03  0.55249079986E+02 -0.59156924501E+02  0.23193127076E+03  0.18296122543E+03 0.  0.
     200001    1    1    2    0    0  0.60620573186E+03 -0.17252454626E+03  0.19179190236E+03  0.96126699840E+03  0.70000000000E+03 0.  1.
         11    1    4    4    0    0 -0.57781488570E+02 -0.63687009347E+02 -0.37739343101E+02  0.93909496852E+02  0.51100000000E-03 0.  1.
    -200002    1    4    4    0    0 -0.59544134344E+02  0.11893608933E+03 -0.21417581399E+02  0.13802177391E+03  0.30000000000E+02 0.  1.
    -200000    1    3    3    0    0 -0.48888010895E+03  0.11727546628E+03  0.32517670779E+02  0.70979905243E+03  0.50000000000E+03 0.  1.
<mgrwt>
<rscale>  0 0.18958173E+04</rscale>
<asrwt>0</asrwt>
<pdfrwt beam="1">  1        2 0.14772500E+00 0.18958173E+04</pdfrwt>
<pdfrwt beam="2">  1       -2 0.12413176E+00 0.18958173E+04</pdfrwt>
<totfact> 0.12278712E+01</totfact>
</mgrwt>
</event>
<event>
 8    2  0.7085383E-010  0.1489756E+04  0.7818608E-02  0.8891294E-01
          2   -1    0    0  501    0  0.00000000000E+00  0.00000000000E+00  0.21249316474E+04  0.21249316474E+04  0.25500000000E-02 0.  1.
         -2   -1    0    0    0  501 -0.00000000000E+00 -0.00000000000E+00 -0.26111097342E+03  0.26111097343E+03  0.25500000000E-02 0. -1.
    -200001    2    1    2    0    0 -0.23422598690E+03 -0.96844446688E+02  0.89432064294E+03  0.11636797574E+04  0.70007178598E+03 0.  0.
   -5000001    2    3    3    0    0 -0.61549077683E+01 -0.69185245329E+01  0.17438625435E+03  0.25351020587E+03  0.18376917560E+03 0.  0.
     200001    1    1    2    0    0  0.23422598690E+03  0.96844446688E+02  0.96950003105E+03  0.12223628635E+04  0.70000000000E+03 0. -1.
         11    1    4    4    0    0  0.15510230899E+02  0.12813869432E+02 -0.34780791278E+02  0.40180417551E+02  0.51100000000E-03 0.  1.
    -200002    1    4    4    0    0 -0.21665138667E+02 -0.19732393965E+02  0.20916704563E+03  0.21332978832E+03  0.30000000000E+02 0.  1.
    -200000    1    3    3    0    0 -0.22807107913E+03 -0.89925922155E+02  0.71993438859E+03  0.91016955150E+03  0.50000000000E+03 0. -1.
<mgrwt>
<rscale>  0 0.14897556E+04</rscale>
<asrwt>0</asrwt>
<pdfrwt beam="1">  1        2 0.30356167E+00 0.14897556E+04</pdfrwt>
<pdfrwt beam="2">  1       -2 0.37301566E-01 0.14897556E+04</pdfrwt>
<totfact> 0.45389833E+01</totfact>
</mgrwt>
</event>
<event>
 8    2  0.7085383E-010  0.1644363E+04  0.7818608E-02  0.8793748E-01
         -2   -1    0    0    0  501 -0.00000000000E+00  0.00000000000E+00  0.16514415597E+03  0.16514415599E+03  0.25500000000E-02 0. -1.
          2   -1    0    0  501    0  0.00000000000E+00 -0.00000000000E+00 -0.40932872307E+04  0.40932872307E+04  0.25500000000E-02 0.  1.
    -200001    2    1    2    0    0 -0.91964906090E+02  0.14476841671E+03 -0.95402368650E+03  0.11982350574E+04  0.70440799251E+03 0.  0.
   -5000001    2    3    3    0    0 -0.20453428740E+02  0.15338948397E+02 -0.25071144975E+03  0.32272721560E+03  0.20160108772E+03 0.  0.
     200001    1    1    2    0    0  0.91964906090E+02 -0.14476841671E+03 -0.29741193882E+04  0.30601963293E+04  0.70000000000E+03 0.  1.
         11    1    4    4    0    0 -0.89656338229E+02  0.53723302674E+02 -0.78071293870E+02  0.13045910916E+03  0.51100000000E-03 0.  1.
    -200002    1    4    4    0    0  0.69202909489E+02 -0.38384354277E+02 -0.17264015588E+03  0.19226810645E+03  0.30000000000E+02 0.  1.
    -200000    1    3    3    0    0 -0.71511477350E+02  0.12942946831E+03 -0.70331223675E+03  0.87550784178E+03  0.50000000000E+03 0. -1.
<mgrwt>
<rscale>  0 0.16443631E+04</rscale>
<asrwt>0</asrwt>
<pdfrwt beam="1">  1        2 0.58475526E+00 0.16443631E+04</pdfrwt>
<pdfrwt beam="2">  1       -2 0.23592025E-01 0.16443631E+04</pdfrwt>
<totfact> 0.75937678E+00</totfact>
</mgrwt>
</event>
<event>
 8    2  0.7085383E-010  0.1801606E+04  0.7818608E-02  0.8705446E-01
          2   -1    0    0  501    0  0.00000000000E+00  0.00000000000E+00  0.19406930171E+04  0.19406930171E+04  0.25500000000E-02 0.  1.
         -2   -1    0    0    0  501 -0.00000000000E+00 -0.00000000000E+00 -0.41812198673E+03  0.41812198674E+03  0.25500000000E-02 0. -1.
    -200001    2    1    2    0    0  0.25442449025E+03 -0.95737455292E+02  0.10773809332E+03  0.75705043896E+03  0.69829820907E+03 0.  0.
   -5000001    2    3    3    0    0  0.12530012535E+02 -0.25625998946E+02 -0.71151434150E+02  0.16931749135E+03  0.15097083579E+03 0.  0.
     200001    1    1    2    0    0 -0.25442449025E+03  0.95737455292E+02  0.14148329371E+04  0.16017645649E+04  0.70000000000E+03 0.  1.
         11    1    4    4    0    0  0.25756885248E+02  0.54211327708E+02 -0.43467599900E+01  0.60176237106E+02  0.51100000000E-03 0.  1.
    -200002    1    4    4    0    0 -0.13226872713E+02 -0.79837326654E+02 -0.66804674160E+02  0.10914125425E+03  0.30000000000E+02 0.  1.
    -200000    1    3    3    0    0  0.24189447771E+03 -0.70111456345E+02  0.17888952747E+03  0.58773294760E+03  0.50000000000E+03 0. -1.
<mgrwt>
<rscale>  0 0.18016064E+04</rscale>
<asrwt>0</asrwt>
<pdfrwt beam="1">  1        2 0.27724186E+00 0.18016064E+04</pdfrwt>
<pdfrwt beam="2">  1       -2 0.59731712E-01 0.18016064E+04</pdfrwt>
<totfact> 0.21305323E+01</totfact>
</mgrwt>
</event>
<event>
 8    2  0.7085383E-010  0.1493558E+04  0.7818608E-02  0.8888748E-01
          2   -1    0    0  501    0  0.00000000000E+00  0.00000000000E+00  0.22426114666E+04  0.22426114666E+04  0.25500000000E-02 0.  1.
         -2   -1    0    0    0  501 -0.00000000000E+00 -0.00000000000E+00 -0.24867374003E+03  0.24867374004E+03  0.25500000000E-02 0. -1.
    -200001    2    1    2    0    0 -0.51437092578E+02  0.23727130100E+03  0.83820351709E+03  0.11184541873E+04  0.69957929373E+03 0.  0.
   -5000001    2    3    3    0    0  0.49016186168E+02 -0.32346237471E+02  0.30514397361E+03  0.33300084356E+03  0.11969900416E+03 0.  0.
     200001    1    1    2    0    0  0.51437092578E+02 -0.23727130100E+03  0.11557342095E+04  0.13728310194E+04  0.70000000000E+03 0.  1.
         11    1    4    4    0    0 -0.17946230775E+02  0.22620345075E+02  0.15032071828E+03  0.15306882621E+03  0.51100000000E-03 0.  1.
    -200002    1    4    4    0    0  0.66962416943E+02 -0.54966582546E+02  0.15482325533E+03  0.17993201736E+03  0.30000000000E+02 0.  1.
    -200000    1    3    3    0    0 -0.10045327875E+03  0.26961753848E+03  0.53305954348E+03  0.78545334372E+03  0.50000000000E+03 0. -1.
<mgrwt>
<rscale>  0 0.14935576E+04</rscale>
<asrwt>0</asrwt>
<pdfrwt beam="1">  1        2 0.32037306E+00 0.14935576E+04</pdfrwt>
<pdfrwt beam="2">  1       -2 0.35524821E-01 0.14935576E+04</pdfrwt>
<totfact> 0.43343774E+01</totfact>
</mgrwt>
</event>
<event>
 8    2  0.7085383E-010  0.1590073E+04  0.7818608E-02  0.8826670E-01
          2   -1    0    0  501    0  0.00000000000E+00  0.00000000000E+00  0.17573651002E+04  0.17573651002E+04  0.25500000000E-02 0.  1.
         -2   -1    0    0    0  501 -0.00000000000E+00 -0.00000000000E+00 -0.35967656588E+03  0.35967656589E+03  0.25500000000E-02 0. -1.
    -200001    2    1    2    0    0  0.30593901462E+03 -0.21687821689E+03  0.62552476526E+03  0.10093992473E+04  0.69783290755E+03 0.  0.
   -5000001    2    3    3    0    0  0.10662123811E+03 -0.78602945205E+02  0.21736864339E+03  0.31987836537E+03  0.19371765560E+03 0.  0.
     200001    1    1    2    0    0 -0.30593901462E+03  0.21687821689E+03  0.77216376902E+03  0.11076424188E+04  0.70000000000E+03 0.  1.
         11    1    4    4    0    0  0.39753405050E+02 -0.12718712933E+03  0.76027436188E+02  0.15341795897E+03  0.51100000000E-03 0.  1.
    -200002    1    4    4    0    0  0.66867833061E+02  0.48584184129E+02  0.14134120720E+03  0.16646040640E+03  0.30000000000E+02 0. -1.
    -200000    1    3    3    0    0  0.19931777651E+03 -0.13827527168E+03  0.40815612187E+03  0.68952088193E+03  0.50000000000E+03 0.  1.
<mgrwt>
<rscale>  0 0.15900730E+04</rscale>
<asrwt>0</asrwt>
<pdfrwt beam="1">  1        2 0.25105216E+00 0.15900730E+04</pdfrwt>
<pdfrwt beam="2">  1       -2 0.51382367E-01 0.15900730E+04</pdfrwt>
<totfact> 0.36840454E+01</totfact>
</mgrwt>
</event>
<event>
 8    2  0.7085383E-010  0.2108098E+04  0.7818608E-02  0.8557685E-01
          2   -1    0    0  501    0  0.00000000000E+00  0.00000000000E+00  0.22862795073E+04  0.22862795073E+04  0.25500000000E-02 0.  1.
         -2   -1    0    0    0  501 -0.00000000000E+00 -0.00000000000E+00 -0.48595060332E+03  0.48595060333E+03  0.25500000000E-02 0. -1.
    -200001    2    1    2    0    0 -0.39598229628E+03  0.37043490796E+03  0.14806136415E+03  0.89766028712E+03  0.69989129407E+03 0.  0.
   -5000001    2    3    3    0    0 -0.16957006360E+03  0.17008695704E+03  0.12077075273E+03  0.31272731830E+03  0.15977866400E+03 0.  0.
     200001    1    1    2    0    0  0.39598229628E+03 -0.37043490796E+03  0.16522675398E+04  0.18745698235E+04  0.70000000000E+03 0. -1.
         11    1    4    4    0    0 -0.13110125253E+03  0.18765133956E+03  0.68119911941E+02  0.23883233880E+03  0.51100000000E-03 0.  1.
    -200002    1    4    4    0    0 -0.38468811072E+02 -0.17564382522E+02  0.52650840793E+02  0.73894979497E+02  0.30000000000E+02 0.  1.
    -200000    1    3    3    0    0 -0.22641223268E+03  0.20034795092E+03  0.27290611415E+02  0.58493296882E+03  0.50000000000E+03 0. -1.
<mgrwt>
<rscale>  0 0.21080976E+04</rscale>
<asrwt>0</asrwt>
<pdfrwt beam="1">  1        2 0.32661136E+00 0.21080976E+04</pdfrwt>
<pdfrwt beam="2">  1       -2 0.69421514E-01 0.21080976E+04</pdfrwt>
<totfact> 0.99851589E+00</totfact>
</mgrwt>
</event>
<event>
 8    2  0.7085383E-010  0.3124097E+04  0.7818608E-02  0.8209156E-01
          2   -1    0    0  501    0  0.00000000000E+00  0.00000000000E+00  0.15265750150E+04  0.15265750150E+04  0.25500000000E-02 0.  1.
         -2   -1    0    0    0  501 -0.00000000000E+00 -0.00000000000E+00 -0.15983464659E+04  0.15983464660E+04  0.25500000000E-02 0. -1.
    -200001    2    1    2    0    0 -0.21824313355E+03  0.22151049805E+02  0.13437678430E+04  0.15305964743E+04  0.69920870763E+03 0.  0.
   -5000001    2    3    3    0    0  0.41142990076E+00  0.78244490743E+01  0.45692693752E+03  0.48920228318E+03  0.17457163675E+03 0.  0.
     200001    1    1    2    0    0  0.21824313355E+03 -0.22151049805E+02 -0.14155392939E+04  0.15943250067E+04  0.70000000000E+03 0. -1.
         11    1    4    4    0    0  0.41619011177E+02  0.32294540777E+02  0.34415783299E+02  0.62924761388E+02  0.51100000000E-03 0.  1.
    -200002    1    4    4    0    0 -0.41207581276E+02 -0.24470091703E+02  0.42251115423E+03  0.42627752180E+03  0.30000000000E+02 0.  1.
    -200000    1    3    3    0    0 -0.21865456345E+03  0.14326600730E+02  0.88684090546E+03  0.10413941911E+04  0.50000000000E+03 0.  1.
<mgrwt>
<rscale>  0 0.31240972E+04</rscale>
<asrwt>0</asrwt>
<pdfrwt beam="1">  1        2 0.21808215E+00 0.31240972E+04</pdfrwt>
<pdfrwt beam="2">  1       -2 0.22833521E+00 0.31240972E+04</pdfrwt>
<totfact> 0.10585058E+00</totfact>
</mgrwt>
</event>
<event>
 8    2  0.7085383E-010  0.1817988E+04  0.7818608E-02  0.8696792E-01
          2   -1    0    0  501    0  0.00000000000E+00  0.00000000000E+00  0.24474967329E+04  0.24474967329E+04  0.25500000000E-02 0.  1.
         -2   -1    0    0    0  501 -0.00000000000E+00 -0.00000000000E+00 -0.33759814009E+03  0.33759814010E+03  0.25500000000E-02 0. -1.
    -200001    2    1    2    0    0  0.44297661747E+02  0.29281635812E+03  0.18183657674E+04  0.19710340088E+04  0.70058354050E+03 0.  0.
   -5000001    2    3    3    0    0 -0.29216684650E+02  0.45088242179E+02  0.45386004560E+03  0.49500912977E+03  0.19015397267E+03 0.  0.
     200001    1    1    2    0    0 -0.44297661747E+02 -0.29281635812E+03  0.29153282543E+03  0.81406086426E+03  0.70000000000E+03 0. -1.
         11    1    4    4    0    0  0.62919214852E+02  0.72823406921E+02  0.24050935963E+03  0.25904985671E+03  0.51100000000E-03 0.  1.
    -200002    1    4    4    0    0 -0.92135899501E+02 -0.27735164742E+02  0.21335068597E+03  0.23595927306E+03  0.30000000000E+02 0.  1.
    -200000    1    3    3    0    0  0.73514346397E+02  0.24772811594E+03  0.13645057218E+04  0.14760248790E+04  0.50000000000E+03 0. -1.
<mgrwt>
<rscale>  0 0.18179883E+04</rscale>
<asrwt>0</asrwt>
<pdfrwt beam="1">  1        2 0.34964239E+00 0.18179883E+04</pdfrwt>
<pdfrwt beam="2">  1       -2 0.48228305E-01 0.18179883E+04</pdfrwt>
<totfact> 0.18095415E+01</totfact>
</mgrwt>
</event>
<event>
 8    2  0.7085383E-010  0.1422022E+04  0.7818608E-02  0.8938030E-01
         -2   -1    0    0    0  501 -0.00000000000E+00  0.00000000000E+00  0.38034039092E+03  0.38034039093E+03  0.25500000000E-02 0. -1.
          2   -1    0    0  501    0  0.00000000000E+00 -0.00000000000E+00 -0.13291690142E+04  0.13291690142E+04  0.25500000000E-02 0.  1.
    -200001    2    1    2    0    0  0.89669324469E+02  0.32090674353E+02 -0.34507909099E+03  0.78021725683E+03  0.69324525940E+03 0.  0.
   -5000001    2    3    3    0    0  0.10690014218E+03  0.76796459189E+02 -0.39892883963E+02  0.19248081144E+03  0.13465542708E+03 0.  0.
     200001    1    1    2    0    0 -0.89669324469E+02 -0.32090674353E+02 -0.60374953225E+03  0.92929214826E+03  0.70000000000E+03 0. -1.
         11    1    4    4    0    0  0.10489570743E+03  0.96232513045E+02 -0.49259688911E+01  0.14243620037E+03  0.51100000000E-03 0.  1.
    -200002    1    4    4    0    0  0.20044347439E+01 -0.19436053856E+02 -0.34966915072E+02  0.50044611076E+02  0.30000000000E+02 0.  1.
    -200000    1    3    3    0    0 -0.17230817710E+02 -0.44705784836E+02 -0.30518620703E+03  0.58773644539E+03  0.50000000000E+03 0. -1.
<mgrwt>
<rscale>  0 0.14220220E+04</rscale>
<asrwt>0</asrwt>
<pdfrwt beam="1">  1        2 0.18988129E+00 0.14220220E+04</pdfrwt>
<pdfrwt beam="2">  1       -2 0.54334342E-01 0.14220220E+04</pdfrwt>
<totfact> 0.56109435E+01</totfact>
</mgrwt>
</event>
<event>
 8    2  0.7085383E-010  0.1761947E+04  0.7818608E-02  0.8726802E-01
          2   -1    0    0  501    0  0.00000000000E+00  0.00000000000E+00  0.26020291553E+04  0.26020291553E+04  0.25500000000E-02 0.  1.
         -2   -1    0    0    0  501 -0.00000000000E+00 -0.00000000000E+00 -0.29827264223E+03  0.29827264224E+03  0.25500000000E-02 0. -1.
    -200001    2    1    2    0    0 -0.87057779142E+02 -0.51057344374E+03  0.93211267097E+03  0.12755953232E+04  0.70003221262E+03 0.  0.
   -5000001    2    3    3    0    0 -0.87892171799E+02 -0.73112794808E+02  0.21034440987E+03  0.29461523247E+03  0.17170570699E+03 0.  0.
     200001    1    1    2    0    0  0.87057779142E+02  0.51057344374E+03  0.13716438421E+04  0.16247064744E+04  0.70000000000E+03 0. -1.
         11    1    4    4    0    0  0.10341954769E+02 -0.71238454476E+02  0.14454222359E+02  0.73422053695E+02  0.51100000000E-03 0.  1.
    -200002    1    4    4    0    0 -0.98234126568E+02 -0.18743403317E+01  0.19589018751E+03  0.22119317878E+03  0.30000000000E+02 0.  1.
    -200000    1    3    3    0    0  0.83439265692E+00 -0.43746064893E+03  0.72176826110E+03  0.98098009068E+03  0.50000000000E+03 0. -1.
<mgrwt>
<rscale>  0 0.17619468E+04</rscale>
<asrwt>0</asrwt>
<pdfrwt beam="1">  1        2 0.37171846E+00 0.17619468E+04</pdfrwt>
<pdfrwt beam="2">  1       -2 0.42610376E-01 0.17619468E+04</pdfrwt>
<totfact> 0.19304464E+01</totfact>
</mgrwt>
</event>
<event>
 8    2  0.7085383E-010  0.1513169E+04  0.7818608E-02  0.8875743E-01
          2   -1    0    0  501    0  0.00000000000E+00  0.00000000000E+00  0.24484919463E+04  0.24484919463E+04  0.25500000000E-02 0.  1.
         -2   -1    0    0    0  501 -0.00000000000E+00 -0.00000000000E+00 -0.23378471874E+03  0.23378471875E+03  0.25500000000E-02 0. -1.
    -200001    2    1    2    0    0  0.26909752232E+03 -0.24954646425E+02  0.93285016713E+03  0.11969505277E+04  0.69960340233E+03 0.  0.
   -5000001    2    3    3    0    0  0.13392001694E+03 -0.52837472155E+02  0.32637138652E+03  0.39891110433E+03  0.17856488405E+03 0.  0.
     200001    1    1    2    0    0 -0.26909752232E+03  0.24954646425E+02  0.12818570604E+04  0.14853261373E+04  0.70000000000E+03 0. -1.
         11    1    4    4    0    0 -0.68650554950E+01  0.51261707024E+02  0.75168541159E+02  0.91242540376E+02  0.51100000000E-03 0.  1.
    -200002    1    4    4    0    0  0.14078507244E+03 -0.10409917918E+03  0.25120284536E+03  0.30766856396E+03  0.30000000000E+02 0.  1.
    -200000    1    3    3    0    0  0.13517750538E+03  0.27882825730E+02  0.60647878061E+03  0.79803942338E+03  0.50000000000E+03 0. -1.
<mgrwt>
<rscale>  0 0.15131689E+04</rscale>
<asrwt>0</asrwt>
<pdfrwt beam="1">  1        2 0.34978457E+00 0.15131689E+04</pdfrwt>
<pdfrwt beam="2">  1       -2 0.33397816E-01 0.15131689E+04</pdfrwt>
<totfact> 0.38048907E+01</totfact>
</mgrwt>
</event>
<event>
 8    2  0.7085383E-010  0.2364990E+04  0.7818608E-02  0.8452728E-01
         -2   -1    0    0    0  501 -0.00000000000E+00  0.00000000000E+00  0.13207841472E+04  0.13207841472E+04  0.25500000000E-02 0. -1.
          2   -1    0    0  501    0  0.00000000000E+00 -0.00000000000E+00 -0.10586852041E+04  0.10586852042E+04  0.25500000000E-02 0.  1.
    -200001    2    1    2    0    0  0.24309543556E+03 -0.47295316285E+03 -0.66556573112E+03  0.11014467253E+04  0.69815976764E+03 0.  0.
   -5000001    2    3    3    0    0  0.11911169910E+03 -0.22390580712E+03 -0.17688075996E+03  0.34897775360E+03  0.16179388722E+03 0.  0.
     200001    1    1    2    0    0 -0.24309543556E+03  0.47295316285E+03  0.92766467416E+03  0.12780226261E+04  0.70000000000E+03 0. -1.
         11    1    4    4    0    0  0.57129116524E+02  0.85134228734E+01 -0.43425936704E+02  0.72263589052E+02  0.51100000000E-03 0.  1.
    -200002    1    4    4    0    0  0.61982582575E+02 -0.23241922999E+03 -0.13345482326E+03  0.27671416455E+03  0.30000000000E+02 0.  1.
    -200000    1    3    3    0    0  0.12398373646E+03 -0.24904735573E+03 -0.48868497116E+03  0.75246897168E+03  0.50000000000E+03 0.  1.
<mgrwt>
<rscale>  0 0.23649902E+04</rscale>
<asrwt>0</asrwt>
<pdfrwt beam="1">  1        2 0.15124074E+00 0.23649902E+04</pdfrwt>
<pdfrwt beam="2">  1       -2 0.18868345E+00 0.23649902E+04</pdfrwt>
<totfact> 0.37074703E+00</totfact>
</mgrwt>
</event>
<event>
 8    2  0.7085383E-010  0.1541771E+04  0.7818608E-02  0.8857141E-01
          2   -1    0    0  501    0  0.00000000000E+00  0.00000000000E+00  0.85790298413E+03  0.85790298413E+03  0.25500000000E-02 0.  1.
         -2   -1    0    0    0  501 -0.00000000000E+00 -0.00000000000E+00 -0.69269405066E+03  0.69269405067E+03  0.25500000000E-02 0. -1.
    -200001    2    1    2    0    0  0.36885707290E+02  0.28401158131E+03  0.23887389066E+03  0.79069594937E+03  0.69722034895E+03 0.  0.
   -5000001    2    3    3    0    0  0.45706992857E+02  0.45762266144E+02  0.57087860682E+02  0.20769791168E+03  0.18893407443E+03 0.  0.
     200001    1    1    2    0    0 -0.36885707290E+02 -0.28401158131E+03 -0.73664957198E+02  0.75990108543E+03  0.70000000000E+03 0. -1.
         11    1    4    4    0    0 -0.31340321170E+02 -0.53836056767E+02  0.46663808313E+02  0.77833461607E+02  0.51100000000E-03 0.  1.
    -200002    1    4    4    0    0  0.77047314026E+02  0.99598322911E+02  0.10424052369E+02  0.12986445007E+03  0.30000000000E+02 0.  1.
    -200000    1    3    3    0    0 -0.88212855663E+01  0.23824931516E+03  0.18178602998E+03  0.58299803769E+03  0.50000000000E+03 0.  1.
<mgrwt>
<rscale>  0 0.15417708E+04</rscale>
<asrwt>0</asrwt>
<pdfrwt beam="1">  1        2 0.12255757E+00 0.15417708E+04</pdfrwt>
<pdfrwt beam="2">  1       -2 0.98956293E-01 0.15417708E+04</pdfrwt>
<totfact> 0.28350742E+01</totfact>
</mgrwt>
</event>
<event>
 8    2  0.7085383E-010  0.1446365E+04  0.7818608E-02  0.8920925E-01
          2   -1    0    0  501    0  0.00000000000E+00  0.00000000000E+00  0.31353633957E+03  0.31353633958E+03  0.25500000000E-02 0.  1.
         -2   -1    0    0    0  501 -0.00000000000E+00 -0.00000000000E+00 -0.16680448098E+04  0.16680448098E+04  0.25500000000E-02 0. -1.
    -200001    2    1    2    0    0 -0.14015274028E+03 -0.11518519020E+03 -0.70226924305E+03  0.10077606176E+04  0.69963487193E+03 0.  0.
   -5000001    2    3    3    0    0  0.80118766124E+02 -0.18585032402E+02  0.12591803316E+02  0.10284214469E+03  0.60444462930E+02 0.  0.
     200001    1    1    2    0    0  0.14015274028E+03  0.11518519020E+03 -0.65223922720E+03  0.97382053180E+03  0.70000000000E+03 0. -1.
         11    1    4    4    0    0  0.29614959543E+02 -0.17250671664E+02 -0.15618209639E+02  0.37663775357E+02  0.51100000000E-03 0.  1.
    -200002    1    4    4    0    0  0.50503806582E+02 -0.13343607383E+01  0.28210012955E+02  0.65178369332E+02  0.30000000000E+02 0.  1.
    -200000    1    3    3    0    0 -0.22027150641E+03 -0.96600157800E+02 -0.71486104637E+03  0.90491847292E+03  0.50000000000E+03 0. -1.
<mgrwt>
<rscale>  0 0.14463646E+04</rscale>
<asrwt>0</asrwt>
<pdfrwt beam="1">  1        2 0.44790906E-01 0.14463646E+04</pdfrwt>
<pdfrwt beam="2">  1       -2 0.23829211E+00 0.14463646E+04</pdfrwt>
<totfact> 0.83777307E+00</totfact>
</mgrwt>
</event>
<event>
 8    2  0.7085383E-010  0.1558682E+04  0.7818608E-02  0.8846341E-01
         -2   -1    0    0    0  501 -0.00000000000E+00  0.00000000000E+00  0.17567425570E+03  0.17567425572E+03  0.25500000000E-02 0. -1.
          2   -1    0    0  501    0  0.00000000000E+00 -0.00000000000E+00 -0.34573805817E+04  0.34573805817E+04  0.25500000000E-02 0.  1.
    -200001    2    1    2    0    0 -0.24778216104E+03 -0.22052802082E+03 -0.18389715957E+04  0.19955225143E+04  0.70018923726E+03 0.  0.
   -5000001    2    3    3    0    0 -0.18233964325E+03  0.30378601530E+01 -0.40568307964E+03  0.45975547580E+03  0.11635876558E+03 0.  0.
     200001    1    1    2    0    0  0.24778216104E+03  0.22052802082E+03 -0.14427347304E+04  0.16375323232E+04  0.70000000000E+03 0. -1.
         11    1    4    4    0    0 -0.18571765367E+03  0.44122449109E+01 -0.35734070139E+03  0.40274420128E+03  0.51100000000E-03 0.  1.
    -200002    1    4    4    0    0  0.33780104261E+01 -0.13743847579E+01 -0.48342378255E+02  0.57011274527E+02  0.30000000000E+02 0.  1.
    -200000    1    3    3    0    0 -0.65442517795E+02 -0.22356588097E+03 -0.14332885160E+04  0.15357670385E+04  0.50000000000E+03 0.  1.
<mgrwt>
<rscale>  0 0.15586825E+04</rscale>
<asrwt>0</asrwt>
<pdfrwt beam="1">  1        2 0.49391147E+00 0.15586825E+04</pdfrwt>
<pdfrwt beam="2">  1       -2 0.25096324E-01 0.15586825E+04</pdfrwt>
<totfact> 0.17673605E+01</totfact>
</mgrwt>
</event>
<event>
 8    2  0.7085383E-010  0.1667915E+04  0.7818608E-02  0.8779878E-01
         -2   -1    0    0    0  501 -0.00000000000E+00  0.00000000000E+00  0.12202736973E+04  0.12202736973E+04  0.25500000000E-02 0. -1.
          2   -1    0    0  501    0  0.00000000000E+00 -0.00000000000E+00 -0.56994189126E+03  0.56994189126E+03  0.25500000000E-02 0.  1.
    -200001    2    1    2    0    0 -0.43797589589E+03 -0.11277364837E+03  0.29180110503E+03  0.88297524296E+03  0.69996900905E+03 0.  0.
   -5000001    2    3    3    0    0 -0.88773424899E+02  0.48878881101E+01 -0.32011890047E+01  0.19536128411E+03  0.17392863853E+03 0.  0.
     200001    1    1    2    0    0  0.43797589589E+03  0.11277364837E+03  0.35853070103E+03  0.90724034562E+03  0.70000000000E+03 0.  1.
         11    1    4    4    0    0  0.44112421982E+02  0.19265048003E+02  0.26849053234E+02  0.55117324930E+02  0.51100000000E-03 0.  1.
    -200002    1    4    4    0    0 -0.13288584688E+03 -0.14377159893E+02 -0.30050242239E+02  0.14024395918E+03  0.30000000000E+02 0.  1.
    -200000    1    3    3    0    0 -0.34920247099E+03 -0.11766153648E+03  0.29500229404E+03  0.68761395885E+03  0.50000000000E+03 0. -1.
<mgrwt>
<rscale>  0 0.16679150E+04</rscale>
<asrwt>0</asrwt>
<pdfrwt beam="1">  1        2 0.81420269E-01 0.16679150E+04</pdfrwt>
<pdfrwt beam="2">  1       -2 0.17432482E+00 0.16679150E+04</pdfrwt>
<totfact> 0.10944689E+01</totfact>
</mgrwt>
</event>
<event>
 8    2  0.7085383E-010  0.1741503E+04  0.7818608E-02  0.8738042E-01
          2   -1    0    0  501    0  0.00000000000E+00  0.00000000000E+00  0.13738327347E+04  0.13738327347E+04  0.25500000000E-02 0. -1.
         -2   -1    0    0    0  501 -0.00000000000E+00 -0.00000000000E+00 -0.55189233949E+03  0.55189233950E+03  0.25500000000E-02 0.  1.
    -200001    2    1    2    0    0 -0.14686534275E+03  0.30431932083E+03  0.84541935869E+03  0.11480805927E+04  0.69941080728E+03 0.  0.
   -5000001    2    3    3    0    0  0.18351664458E+02  0.58505877493E+02  0.30245711386E+03  0.35276373275E+03  0.17088658265E+03 0.  0.
     200001    1    1    2    0    0  0.14686534275E+03 -0.30431932083E+03 -0.23478963457E+02  0.77764448153E+03  0.70000000000E+03 0.  1.
         11    1    4    4    0    0  0.61909652681E+02  0.74786243096E+02  0.27367955804E+03  0.29038988918E+03  0.51100000000E-03 0.  1.
    -200002    1    4    4    0    0 -0.43557988223E+02 -0.16280365603E+02  0.28777555825E+02  0.62373843568E+02  0.30000000000E+02 0.  1.
    -200000    1    3    3    0    0 -0.16521700720E+03  0.24581344334E+03  0.54296224482E+03  0.79531685994E+03  0.50000000000E+03 0. -1.
<mgrwt>
<rscale>  0 0.17415025E+04</rscale>
<asrwt>0</asrwt>
<pdfrwt beam="1">  1        2 0.19626182E+00 0.17415025E+04</pdfrwt>
<pdfrwt beam="2">  1       -2 0.78841763E-01 0.17415025E+04</pdfrwt>
<totfact> 0.23228560E+01</totfact>
</mgrwt>
</event>
<event>
 8    2  0.7085383E-010  0.1803493E+04  0.7818608E-02  0.8704444E-01
          2   -1    0    0  501    0  0.00000000000E+00  0.00000000000E+00  0.26379019215E+04  0.26379019215E+04  0.25500000000E-02 0.  1.
         -2   -1    0    0    0  501 -0.00000000000E+00 -0.00000000000E+00 -0.30825495684E+03  0.30825495685E+03  0.25500000000E-02 0. -1.
    -200001    2    1    2    0    0  0.27186239369E+03 -0.39093125777E+03  0.65645662723E+03  0.10709762698E+04  0.69951301463E+03 0.  0.
   -5000001    2    3    3    0    0  0.10002488145E+03 -0.26817266605E+03  0.23919855823E+03  0.38635805605E+03  0.10067294317E+03 0.  0.
     200001    1    1    2    0    0 -0.27186239369E+03  0.39093125777E+03  0.16731903374E+04  0.18751806085E+04  0.70000000000E+03 0.  1.
         11    1    4    4    0    0  0.32753069216E+02 -0.81961644479E+02  0.22060731081E+02  0.90978846799E+02  0.51100000000E-03 0.  1.
    -200002    1    4    4    0    0  0.67271812229E+02 -0.18621102157E+03  0.21713782715E+03  0.29537920925E+03  0.30000000000E+02 0.  1.
    -200000    1    3    3    0    0  0.17183751225E+03 -0.12275859172E+03  0.41725806900E+03  0.68461821375E+03  0.50000000000E+03 0. -1.
<mgrwt>
<rscale>  0 0.18034925E+04</rscale>
<asrwt>0</asrwt>
<pdfrwt beam="1">  1        2 0.37684314E+00 0.18034925E+04</pdfrwt>
<pdfrwt beam="2">  1       -2 0.44036421E-01 0.18034925E+04</pdfrwt>
<totfact> 0.17245273E+01</totfact>
</mgrwt>
</event>
<event>
 8    2  0.7085383E-010  0.2033222E+04  0.7818608E-02  0.8591244E-01
          2   -1    0    0  501    0  0.00000000000E+00  0.00000000000E+00  0.12703387928E+04  0.12703387928E+04  0.25500000000E-02 0.  1.
         -2   -1    0    0    0  501 -0.00000000000E+00 -0.00000000000E+00 -0.81356089592E+03  0.81356089592E+03  0.25500000000E-02 0. -1.
    -200001    2    1    2    0    0 -0.51598416292E+02 -0.70104315736E+02  0.97904042993E+03  0.12062122928E+04  0.69917874695E+03 0.  0.
   -5000001    2    3    3    0    0 -0.90200435380E+02 -0.26770118708E+02  0.37122227039E+03  0.41702861102E+03  0.16508825087E+03 0.  0.
     200001    1    1    2    0    0  0.51598416292E+02  0.70104315736E+02 -0.52226253301E+03  0.87768739597E+03  0.70000000000E+03 0. -1.
         11    1    4    4    0    0 -0.63776285189E+02 -0.92815692900E+02  0.22957004756E+03  0.25570407532E+03  0.51100000000E-03 0.  1.
    -200002    1    4    4    0    0 -0.26424150191E+02  0.66045574192E+02  0.14165222283E+03  0.16132453569E+03  0.30000000000E+02 0.  1.
    -200000    1    3    3    0    0  0.38602019088E+02 -0.43334197029E+02  0.60781815954E+03  0.78918368177E+03  0.50000000000E+03 0.  1.
<mgrwt>
<rscale>  0 0.20332220E+04</rscale>
<asrwt>0</asrwt>
<pdfrwt beam="1">  1        2 0.18147697E+00 0.20332220E+04</pdfrwt>
<pdfrwt beam="2">  1       -2 0.11622299E+00 0.20332220E+04</pdfrwt>
<totfact> 0.10427161E+01</totfact>
</mgrwt>
</event>
<event>
 8    2  0.7085383E-010  0.1787711E+04  0.7818608E-02  0.8712862E-01
         -2   -1    0    0    0  501 -0.00000000000E+00  0.00000000000E+00  0.14012834355E+04  0.14012834355E+04  0.25500000000E-02 0. -1.
          2   -1    0    0  501    0  0.00000000000E+00 -0.00000000000E+00 -0.57017555162E+03  0.57017555163E+03  0.25500000000E-02 0.  1.
    -200001    2    1    2    0    0 -0.44566007082E+03  0.32994776347E+03  0.37338040111E+03  0.96796864148E+03  0.70005138498E+03 0.  0.
   -5000001    2    3    3    0    0 -0.17254970350E+03  0.57244974708E+02  0.18056449498E+03  0.30756417647E+03  0.17012289234E+03 0.  0.
     200001    1    1    2    0    0  0.44566007082E+03 -0.32994776347E+03  0.45772748276E+03  0.10034903457E+04  0.70000000000E+03 0.  1.
         11    1    4    4    0    0 -0.19761912924E+02 -0.36945491446E+02  0.10024573322E+03  0.10864948030E+03  0.51100000000E-03 0.  1.
    -200002    1    4    4    0    0 -0.15278779058E+03  0.94190466154E+02  0.80318761757E+02  0.19891469617E+03  0.30000000000E+02 0.  1.
