<event>
 4    1  0.1720876E-005  0.7666034E+03  0.7818608E-02  0.9609656E-01
         -2   -1    0    0    0  501 -0.00000000000E+00  0.00000000000E+00  0.79875734101E+02  0.79875734141E+02  0.25500000000E-02 0. -1.
          2   -1    0    0  501    0  0.00000000000E+00 -0.00000000000E+00 -0.18393595643E+04  0.18393595643E+04  0.25500000000E-02 0.  1.
   -5000001    1    1    2    0    0  0.26610612541E+03  0.11498473328E+03 -0.83053974963E+03  0.91451092644E+03  0.25000000000E+03 0.  0.
    5000001    1    1    2    0    0 -0.26610612541E+03 -0.11498473328E+03 -0.92894408060E+03  0.10047243720E+04  0.25000000000E+03 0.  0.
<mgrwt>
<rscale>  0 0.76660341E+03</rscale>
<asrwt>0</asrwt>
<pdfrwt beam="1">  1        2 0.28297836E+00 0.76660341E+03</pdfrwt>
<pdfrwt beam="2">  1       -2 0.12288576E-01 0.76660341E+03</pdfrwt>
<totfact> 0.40890504E+02</totfact>
</mgrwt>
</event>
<event>
 4    1  0.1720876E-005  0.2017054E+04  0.7818608E-02  0.8598688E-01
         -2   -1    0    0    0  501 -0.00000000000E+00  0.00000000000E+00  0.57311774350E+03  0.57311774350E+03  0.25500000000E-02 0. -1.
          2   -1    0    0  501    0  0.00000000000E+00 -0.00000000000E+00 -0.17747260730E+04  0.17747260730E+04  0.25500000000E-02 0.  1.
   -5000001    1    1    2    0    0 -0.85456854300E+03  0.68768408629E+02 -0.55324984079E+02  0.89474987711E+03  0.25000000000E+03 0.  0.
    5000001    1    1    2    0    0  0.85456854300E+03 -0.68768408629E+02 -0.11462833454E+04  0.14530939394E+04  0.25000000000E+03 0.  0.
<mgrwt>
<rscale>  0 0.20170543E+04</rscale>
<asrwt>0</asrwt>
<pdfrwt beam="1">  1        2 0.27303478E+00 0.20170543E+04</pdfrwt>
<pdfrwt beam="2">  1       -2 0.88171961E-01 0.20170543E+04</pdfrwt>
<totfact> 0.91610591E+00</totfact>
</mgrwt>
</event>
<event>
 4    1  0.1720876E-005  0.7269703E+03  0.7818608E-02  0.9672189E-01
         -2   -1    0    0    0  501 -0.00000000000E+00  0.00000000000E+00  0.89229517440E+02  0.89229517477E+02  0.25500000000E-02 0. -1.
          2   -1    0    0  501    0  0.00000000000E+00 -0.00000000000E+00 -0.14806922565E+04  0.14806922565E+04  0.25500000000E-02 0.  1.
   -5000001    1    1    2    0    0  0.17952508024E+02  0.23644991798E+03 -0.44583419281E+03  0.56347048169E+03  0.25000000000E+03 0.  0.
    5000001    1    1    2    0    0 -0.17952508024E+02 -0.23644991798E+03 -0.94562854620E+03  0.10064512922E+04  0.25000000000E+03 0.  0.
<mgrwt>
<rscale>  0 0.72697030E+03</rscale>
<asrwt>0</asrwt>
<pdfrwt beam="1">  1        2 0.22779879E+00 0.72697030E+03</pdfrwt>
<pdfrwt beam="2">  1       -2 0.13727619E-01 0.72697030E+03</pdfrwt>
<totfact> 0.53654595E+02</totfact>
</mgrwt>
</event>
<event>
 4    1  0.1720876E-005  0.9726869E+03  0.7818608E-02  0.9339019E-01
         -2   -1    0    0    0  501 -0.00000000000E+00  0.00000000000E+00  0.18864091355E+03  0.18864091357E+03  0.25500000000E-02 0. -1.
          2   -1    0    0  501    0  0.00000000000E+00 -0.00000000000E+00 -0.12538633633E+04  0.12538633633E+04  0.25500000000E-02 0.  1.
   -5000001    1    1    2    0    0 -0.41017946862E+03  0.67335569810E+02 -0.48020712409E+03  0.68255414251E+03  0.25000000000E+03 0.  0.
    5000001    1    1    2    0    0  0.41017946862E+03 -0.67335569810E+02 -0.58501532562E+03  0.75995013432E+03  0.25000000000E+03 0.  0.
<mgrwt>
<rscale>  0 0.97268686E+03</rscale>
<asrwt>0</asrwt>
<pdfrwt beam="1">  1        2 0.19290205E+00 0.97268686E+03</pdfrwt>
<pdfrwt beam="2">  1       -2 0.29021680E-01 0.97268686E+03</pdfrwt>
<totfact> 0.19158024E+02</totfact>
</mgrwt>
</event>
<event>
 4    1  0.1720876E-005  0.6639008E+03  0.7818608E-02  0.9781039E-01
          2   -1    0    0  501    0  0.00000000000E+00  0.00000000000E+00  0.18852436970E+04  0.18852436970E+04  0.25500000000E-02 0.  1.
         -2   -1    0    0    0  501 -0.00000000000E+00 -0.00000000000E+00 -0.58449244438E+02  0.58449244494E+02  0.25500000000E-02 0. -1.
   -5000001    1    1    2    0    0  0.19732875417E+03 -0.90873076799E+02  0.97850229749E+03  0.10330359623E+04  0.25000000000E+03 0.  0.
    5000001    1    1    2    0    0 -0.19732875417E+03  0.90873076799E+02  0.84829215504E+03  0.91065697912E+03  0.25000000000E+03 0.  0.
<mgrwt>
<rscale>  0 0.66390081E+03</rscale>
<asrwt>0</asrwt>
<pdfrwt beam="1">  1        2 0.29003754E+00 0.66390081E+03</pdfrwt>
<pdfrwt beam="2">  1       -2 0.89921901E-02 0.66390081E+03</pdfrwt>
<totfact> 0.64755391E+02</totfact>
</mgrwt>
</event>
<event>
 4    1  0.1720876E-005  0.8561130E+03  0.7818608E-02  0.9482169E-01
          2   -1    0    0  501    0  0.00000000000E+00  0.00000000000E+00  0.10728370123E+04  0.10728370123E+04  0.25500000000E-02 0.  1.
         -2   -1    0    0    0  501 -0.00000000000E+00 -0.00000000000E+00 -0.17079236698E+03  0.17079236699E+03  0.25500000000E-02 0. -1.
   -5000001    1    1    2    0    0 -0.25785911808E+03  0.22430546086E+03  0.35997826726E+03  0.55577748915E+03  0.25000000000E+03 0.  0.
    5000001    1    1    2    0    0  0.25785911808E+03 -0.22430546086E+03  0.54206637807E+03  0.68785189015E+03  0.25000000000E+03 0.  0.
<mgrwt>
<rscale>  0 0.85611301E+03</rscale>
<asrwt>0</asrwt>
<pdfrwt beam="1">  1        2 0.16505185E+00 0.85611301E+03</pdfrwt>
<pdfrwt beam="2">  1       -2 0.26275749E-01 0.85611301E+03</pdfrwt>
<totfact> 0.29746709E+02</totfact>
</mgrwt>
</event>
<event>
 4    1  0.1720876E-005  0.1284713E+04  0.7818608E-02  0.9041776E-01
          2   -1    0    0  501    0  0.00000000000E+00  0.00000000000E+00  0.12804686742E+04  0.12804686742E+04  0.25500000000E-02 0.  1.
         -2   -1    0    0    0  501 -0.00000000000E+00 -0.00000000000E+00 -0.32224295503E+03  0.32224295504E+03  0.25500000000E-02 0. -1.
   -5000001    1    1    2    0    0 -0.14009418507E+03  0.47208622929E+03  0.69836826551E+02  0.55665875626E+03  0.25000000000E+03 0.  0.
    5000001    1    1    2    0    0  0.14009418507E+03 -0.47208622929E+03  0.88838889265E+03  0.10460528730E+04  0.25000000000E+03 0.  0.
<mgrwt>
<rscale>  0 0.12847132E+04</rscale>
<asrwt>0</asrwt>
<pdfrwt beam="1">  1        2 0.19699518E+00 0.12847132E+04</pdfrwt>
<pdfrwt beam="2">  1       -2 0.49575840E-01 0.12847132E+04</pdfrwt>
<totfact> 0.64107192E+01</totfact>
</mgrwt>
</event>
<event>
 4    1  0.1720876E-005  0.6739140E+03  0.7818608E-02  0.9762913E-01
         -2   -1    0    0    0  501 -0.00000000000E+00  0.00000000000E+00  0.17281223579E+03  0.17281223581E+03  0.25500000000E-02 0. -1.
          2   -1    0    0  501    0  0.00000000000E+00 -0.00000000000E+00 -0.65701381930E+03  0.65701381930E+03  0.25500000000E-02 0.  1.
   -5000001    1    1    2    0    0  0.29097854799E+02  0.19667353465E+03 -0.37422251722E+03  0.49200574873E+03  0.25000000000E+03 0.  0.
    5000001    1    1    2    0    0 -0.29097854799E+02 -0.19667353465E+03 -0.10997906629E+03  0.33782030639E+03  0.25000000000E+03 0.  0.
<mgrwt>
<rscale>  0 0.67391402E+03</rscale>
<asrwt>0</asrwt>
<pdfrwt beam="1">  1        2 0.10107905E+00 0.67391402E+03</pdfrwt>
<pdfrwt beam="2">  1       -2 0.26586498E-01 0.67391402E+03</pdfrwt>
<totfact> 0.57193853E+02</totfact>
</mgrwt>
</event>
<event>
 4    1  0.1720876E-005  0.6749484E+03  0.7818608E-02  0.9761060E-01
          2   -1    0    0  501    0  0.00000000000E+00  0.00000000000E+00  0.96477097315E+02  0.96477097348E+02  0.25500000000E-02 0.  1.
         -2   -1    0    0    0  501 -0.00000000000E+00 -0.00000000000E+00 -0.11804753185E+04  0.11804753185E+04  0.25500000000E-02 0. -1.
   -5000001    1    1    2    0    0  0.13984332234E+03 -0.28850375999E+02 -0.20888937215E+03  0.35570109473E+03  0.25000000000E+03 0.  0.
    5000001    1    1    2    0    0 -0.13984332234E+03  0.28850375999E+02 -0.87510884899E+03  0.92125132107E+03  0.25000000000E+03 0.  0.
<mgrwt>
<rscale>  0 0.67494839E+03</rscale>
<asrwt>0</asrwt>
<pdfrwt beam="1">  1        2 0.14842631E-01 0.67494839E+03</pdfrwt>
<pdfrwt beam="2">  1       -2 0.18161158E+00 0.67494839E+03</pdfrwt>
<totfact> 0.73117113E+01</totfact>
</mgrwt>
</event>
<event>
 4    1  0.1720876E-005  0.7317973E+03  0.7818608E-02  0.9664348E-01
         -2   -1    0    0    0  501 -0.00000000000E+00  0.00000000000E+00  0.28400859261E+03  0.28400859262E+03  0.25500000000E-02 0. -1.
          2   -1    0    0  501    0  0.00000000000E+00 -0.00000000000E+00 -0.47140059843E+03  0.47140059844E+03  0.25500000000E-02 0.  1.
   -5000001    1    1    2    0    0  0.68614542875E+01 -0.23537945803E+03 -0.22398760189E+03  0.41002562678E+03  0.25000000000E+03 0.  0.
    5000001    1    1    2    0    0 -0.68614542875E+01  0.23537945803E+03  0.36595596067E+02  0.34538356427E+03  0.25000000000E+03 0.  0.
<mgrwt>
<rscale>  0 0.73179730E+03</rscale>
<asrwt>0</asrwt>
<pdfrwt beam="1">  1        2 0.72523169E-01 0.73179730E+03</pdfrwt>
<pdfrwt beam="2">  1       -2 0.43693630E-01 0.73179730E+03</pdfrwt>
<totfact> 0.33012756E+02</totfact>
</mgrwt>
</event>
<event>
 4    1  0.1720876E-005  0.9959036E+03  0.7818608E-02  0.9313049E-01
         -2   -1    0    0    0  501 -0.00000000000E+00  0.00000000000E+00  0.44601714652E+03  0.44601714652E+03  0.25500000000E-02 0. -1.
          2   -1    0    0  501    0  0.00000000000E+00 -0.00000000000E+00 -0.55593371846E+03  0.55593371847E+03  0.25500000000E-02 0.  1.
   -5000001    1    1    2    0    0  0.16074390047E+03  0.31778990532E+03  0.18864199045E+03  0.47425185927E+03  0.25000000000E+03 0.  0.
    5000001    1    1    2    0    0 -0.16074390047E+03 -0.31778990532E+03 -0.29855856240E+03  0.52769900572E+03  0.25000000000E+03 0.  0.
<mgrwt>
<rscale>  0 0.99590355E+03</rscale>
<asrwt>0</asrwt>
<pdfrwt beam="1">  1        2 0.85528264E-01 0.99590355E+03</pdfrwt>
<pdfrwt beam="2">  1       -2 0.68618023E-01 0.99590355E+03</pdfrwt>
<totfact> 0.10546667E+02</totfact>
</mgrwt>
</event>
<event>
 4    1  0.1720876E-005  0.6537527E+03  0.7818608E-02  0.9799763E-01
         -2   -1    0    0    0  501 -0.00000000000E+00  0.00000000000E+00  0.30186354297E+03  0.30186354299E+03  0.25500000000E-02 0. -1.
          2   -1    0    0  501    0  0.00000000000E+00 -0.00000000000E+00 -0.35396170708E+03  0.35396170709E+03  0.25500000000E-02 0.  1.
   -5000001    1    1    2    0    0 -0.74890011137E+02  0.14963970451E+03  0.10221392018E+03  0.31772352826E+03  0.25000000000E+03 0.  0.
    5000001    1    1    2    0    0  0.74890011137E+02 -0.14963970451E+03 -0.15431208429E+03  0.33810172181E+03  0.25000000000E+03 0.  0.
<mgrwt>
<rscale>  0 0.65375266E+03</rscale>
<asrwt>0</asrwt>
<pdfrwt beam="1">  1        2 0.54455647E-01 0.65375266E+03</pdfrwt>
<pdfrwt beam="2">  1       -2 0.46440545E-01 0.65375266E+03</pdfrwt>
<totfact> 0.40475113E+02</totfact>
</mgrwt>
</event>
<event>
 4    1  0.1720876E-005  0.6905639E+03  0.7818608E-02  0.9733507E-01
          2   -1    0    0  501    0  0.00000000000E+00  0.00000000000E+00  0.11865725282E+04  0.11865725282E+04  0.25500000000E-02 0.  1.
         -2   -1    0    0    0  501 -0.00000000000E+00 -0.00000000000E+00 -0.10047394088E+03  0.10047394092E+03  0.25500000000E-02 0. -1.
   -5000001    1    1    2    0    0 -0.71010101385E+02  0.22499635815E+03  0.60355189952E+03  0.69457950668E+03  0.25000000000E+03 0.  0.
    5000001    1    1    2    0    0  0.71010101385E+02 -0.22499635815E+03  0.48254668778E+03  0.59246696243E+03  0.25000000000E+03 0.  0.
<mgrwt>
<rscale>  0 0.69056388E+03</rscale>
<asrwt>0</asrwt>
<pdfrwt beam="1">  1        2 0.18254963E+00 0.69056388E+03</pdfrwt>
<pdfrwt beam="2">  1       -2 0.15457528E-01 0.69056388E+03</pdfrwt>
<totfact> 0.64854865E+02</totfact>
</mgrwt>
</event>
<event>
 4    1  0.1720876E-005  0.6518399E+03  0.7818608E-02  0.9803333E-01
         -2   -1    0    0    0  501 -0.00000000000E+00  0.00000000000E+00  0.19579932919E+03  0.19579932920E+03  0.25500000000E-02 0. -1.
          2   -1    0    0  501    0  0.00000000000E+00 -0.00000000000E+00 -0.54251369376E+03  0.54251369376E+03  0.25500000000E-02 0.  1.
   -5000001    1    1    2    0    0 -0.19980476940E+03  0.80377061212E+01 -0.10411406232E+03  0.33663970141E+03  0.25000000000E+03 0.  0.
    5000001    1    1    2    0    0  0.19980476940E+03 -0.80377061212E+01 -0.24260030225E+03  0.40167332155E+03  0.25000000000E+03 0.  0.
<mgrwt>
<rscale>  0 0.65183991E+03</rscale>
<asrwt>0</asrwt>
<pdfrwt beam="1">  1        2 0.83463645E-01 0.65183991E+03</pdfrwt>
<pdfrwt beam="2">  1       -2 0.30122974E-01 0.65183991E+03</pdfrwt>
<totfact> 0.57283493E+02</totfact>
</mgrwt>
</event>
<event>
 4    1  0.1720876E-005  0.1096726E+04  0.7818608E-02  0.9208389E-01
         -2   -1    0    0    0  501 -0.00000000000E+00  0.00000000000E+00  0.78280691255E+03  0.78280691256E+03  0.25500000000E-02 0. -1.
          2   -1    0    0  501    0  0.00000000000E+00 -0.00000000000E+00 -0.38413268701E+03  0.38413268702E+03  0.25500000000E-02 0.  1.
   -5000001    1    1    2    0    0  0.43064149378E+03  0.22509286531E+03  0.15077727961E+03  0.56687977758E+03  0.25000000000E+03 0.  0.
    5000001    1    1    2    0    0 -0.43064149378E+03 -0.22509286531E+03  0.24789694593E+03  0.60005982200E+03  0.25000000000E+03 0.  0.
<mgrwt>
<rscale>  0 0.10967255E+04</rscale>
<asrwt>0</asrwt>
<pdfrwt beam="1">  1        2 0.59097337E-01 0.10967255E+04</pdfrwt>
<pdfrwt beam="2">  1       -2 0.12043183E+00 0.10967255E+04</pdfrwt>
<totfact> 0.43482265E+01</totfact>
</mgrwt>
</event>
<event>
 4    1  0.1720876E-005  0.9689560E+03  0.7818608E-02  0.9343264E-01
         -2   -1    0    0    0  501 -0.00000000000E+00  0.00000000000E+00  0.23136681638E+03  0.23136681640E+03  0.25500000000E-02 0. -1.
          2   -1    0    0  501    0  0.00000000000E+00 -0.00000000000E+00 -0.10144884068E+04  0.10144884068E+04  0.25500000000E-02 0.  1.
   -5000001    1    1    2    0    0  0.17808310346E+03  0.83762984527E+02 -0.86133205446E+03  0.91821715153E+03  0.25000000000E+03 0.  0.
    5000001    1    1    2    0    0 -0.17808310346E+03 -0.83762984527E+02  0.78210464059E+02  0.32763807166E+03  0.25000000000E+03 0.  0.
<mgrwt>
<rscale>  0 0.96895604E+03</rscale>
<asrwt>0</asrwt>
<pdfrwt beam="1">  1        2 0.15607514E+00 0.96895604E+03</pdfrwt>
<pdfrwt beam="2">  1       -2 0.35594896E-01 0.96895604E+03</pdfrwt>
<totfact> 0.18262184E+02</totfact>
</mgrwt>
</event>
<event>
 4    1  0.1720876E-005  0.6795351E+03  0.7818608E-02  0.9752884E-01
         -2   -1    0    0    0  501 -0.00000000000E+00  0.00000000000E+00  0.67003101263E+02  0.67003101312E+02  0.25500000000E-02 0. -1.
          2   -1    0    0  501    0  0.00000000000E+00 -0.00000000000E+00 -0.17229349051E+04  0.17229349051E+04  0.25500000000E-02 0.  1.
   -5000001    1    1    2    0    0 -0.15878654541E+02 -0.20778997765E+03 -0.57105125719E+03  0.65728863129E+03  0.25000000000E+03 0.  0.
    5000001    1    1    2    0    0  0.15878654541E+02  0.20778997765E+03 -0.10848805466E+04  0.11326493751E+04  0.25000000000E+03 0.  0.
<mgrwt>
<rscale>  0 0.67953508E+03</rscale>
<asrwt>0</asrwt>
<pdfrwt beam="1">  1        2 0.26506687E+00 0.67953508E+03</pdfrwt>
<pdfrwt beam="2">  1       -2 0.10308171E-01 0.67953508E+03</pdfrwt>
<totfact> 0.63523443E+02</totfact>
</mgrwt>
</event>
<event>
 4    1  0.1720876E-005  0.9546601E+03  0.7818608E-02  0.9359720E-01
          2   -1    0    0  501    0  0.00000000000E+00  0.00000000000E+00  0.26224715052E+03  0.26224715054E+03  0.25500000000E-02 0.  1.
         -2   -1    0    0    0  501 -0.00000000000E+00 -0.00000000000E+00 -0.86881393401E+03  0.86881393401E+03  0.25500000000E-02 0. -1.
   -5000001    1    1    2    0    0 -0.29861162734E+03  0.38212005628E+02  0.20564404839E+02  0.39185706080E+03  0.25000000000E+03 0.  0.
    5000001    1    1    2    0    0  0.29861162734E+03 -0.38212005628E+02 -0.62713118832E+03  0.73920402374E+03  0.25000000000E+03 0.  0.
<mgrwt>
<rscale>  0 0.95466010E+03</rscale>
<asrwt>0</asrwt>
<pdfrwt beam="1">  1        2 0.40345716E-01 0.95466010E+03</pdfrwt>
<pdfrwt beam="2">  1       -2 0.13366368E+00 0.95466010E+03</pdfrwt>
<totfact> 0.51623324E+01</totfact>
</mgrwt>
</event>
<event>
 4    1  0.1720876E-005  0.6571891E+03  0.7818608E-02  0.9793382E-01
         -2   -1    0    0    0  501 -0.00000000000E+00  0.00000000000E+00  0.13914519720E+03  0.13914519722E+03  0.25500000000E-02 0. -1.
          2   -1    0    0  501    0  0.00000000000E+00 -0.00000000000E+00 -0.77598344223E+03  0.77598344223E+03  0.25500000000E-02 0.  1.
   -5000001    1    1    2    0    0  0.17670260193E+03 -0.10203865461E+03 -0.40469360182E+03  0.51760275107E+03  0.25000000000E+03 0.  0.
    5000001    1    1    2    0    0 -0.17670260193E+03  0.10203865461E+03 -0.23214464321E+03  0.39752588838E+03  0.25000000000E+03 0.  0.
<mgrwt>
<rscale>  0 0.65718907E+03</rscale>
<asrwt>0</asrwt>
<pdfrwt beam="1">  1        2 0.11938206E+00 0.65718907E+03</pdfrwt>
<pdfrwt beam="2">  1       -2 0.21406954E-01 0.65718907E+03</pdfrwt>
<totfact> 0.68283368E+02</totfact>
</mgrwt>
</event>
<event>
 4    1  0.1720876E-005  0.1219221E+04  0.7818608E-02  0.9096197E-01
          2   -1    0    0  501    0  0.00000000000E+00  0.00000000000E+00  0.13329657463E+04  0.13329657463E+04  0.25500000000E-02 0.  1.
         -2   -1    0    0    0  501 -0.00000000000E+00 -0.00000000000E+00 -0.27879545554E+03  0.27879545555E+03  0.25500000000E-02 0. -1.
   -5000001    1    1    2    0    0 -0.49299215791E+03 -0.47134836393E+02  0.19301393705E+03  0.58738176722E+03  0.25000000000E+03 0.  0.
    5000001    1    1    2    0    0  0.49299215791E+03  0.47134836393E+02  0.86115635373E+03  0.10243794346E+04  0.25000000000E+03 0.  0.
<mgrwt>
<rscale>  0 0.12192207E+04</rscale>
<asrwt>0</asrwt>
<pdfrwt beam="1">  1        2 0.20507165E+00 0.12192207E+04</pdfrwt>
<pdfrwt beam="2">  1       -2 0.42891609E-01 0.12192207E+04</pdfrwt>
<totfact> 0.80289388E+01</totfact>
</mgrwt>
</event>
<event>
 4    1  0.1720876E-005  0.7067678E+03  0.7818608E-02  0.9705728E-01
          2   -1    0    0  501    0  0.00000000000E+00  0.00000000000E+00  0.26736625282E+03  0.26736625283E+03  0.25500000000E-02 0.  1.
         -2   -1    0    0    0  501 -0.00000000000E+00 -0.00000000000E+00 -0.46707530137E+03  0.46707530138E+03  0.25500000000E-02 0. -1.
   -5000001    1    1    2    0    0  0.10370073798E+03  0.20369056301E+03 -0.20447680463E+03  0.39566962500E+03  0.25000000000E+03 0.  0.
    5000001    1    1    2    0    0 -0.10370073798E+03 -0.20369056301E+03  0.47677560791E+01  0.33877192920E+03  0.25000000000E+03 0.  0.
<mgrwt>
<rscale>  0 0.70676778E+03</rscale>
<asrwt>0</asrwt>
<pdfrwt beam="1">  1        2 0.41133270E-01 0.70676778E+03</pdfrwt>
<pdfrwt beam="2">  1       -2 0.71857739E-01 0.70676778E+03</pdfrwt>
<totfact> 0.22127056E+02</totfact>
</mgrwt>
</event>
<event>
 4    1  0.1720876E-005  0.1405655E+04  0.7818608E-02  0.8949735E-01
         -2   -1    0    0    0  501 -0.00000000000E+00  0.00000000000E+00  0.30708009165E+03  0.30708009166E+03  0.25500000000E-02 0. -1.
          2   -1    0    0  501    0  0.00000000000E+00 -0.00000000000E+00 -0.16085918844E+04  0.16085918844E+04  0.25500000000E-02 0.  1.
   -5000001    1    1    2    0    0  0.94690566533E+01  0.65671300744E+03 -0.66471452736E+03  0.96731951291E+03  0.25000000000E+03 0.  0.
    5000001    1    1    2    0    0 -0.94690566533E+01 -0.65671300744E+03 -0.63679726542E+03  0.94835246318E+03  0.25000000000E+03 0.  0.
<mgrwt>
<rscale>  0 0.14056551E+04</rscale>
<asrwt>0</asrwt>
<pdfrwt beam="1">  1        2 0.24747567E+00 0.14056551E+04</pdfrwt>
<pdfrwt beam="2">  1       -2 0.47243092E-01 0.14056551E+04</pdfrwt>
<totfact> 0.45557476E+01</totfact>
</mgrwt>
</event>
<event>
 4    1  0.1720876E-005  0.5158862E+03  0.7818608E-02  0.1009714E+00
         -2   -1    0    0    0  501 -0.00000000000E+00  0.00000000000E+00  0.33185201744E+02  0.33185201842E+02  0.25500000000E-02 0.  1.
          2   -1    0    0  501    0  0.00000000000E+00 -0.00000000000E+00 -0.20049491574E+04  0.20049491574E+04  0.25500000000E-02 0. -1.
   -5000001    1    1    2    0    0  0.12552100663E+02  0.50215471141E+02 -0.11313366372E+04  0.11597852109E+04  0.25000000000E+03 0.  0.
    5000001    1    1    2    0    0 -0.12552100663E+02 -0.50215471141E+02 -0.84042731847E+03  0.87834914835E+03  0.25000000000E+03 0.  0.
<mgrwt>
<rscale>  0 0.51588620E+03</rscale>
<asrwt>0</asrwt>
<pdfrwt beam="1">  1        2 0.30845362E+00 0.51588620E+03</pdfrwt>
<pdfrwt beam="2">  1       -2 0.51054172E-02 0.51588620E+03</pdfrwt>
<totfact> 0.13754952E+03</totfact>
</mgrwt>
</event>
<event>
 4    1  0.1720876E-005  0.7959236E+03  0.7818608E-02  0.9565936E-01
          2   -1    0    0  501    0  0.00000000000E+00  0.00000000000E+00  0.34280103280E+04  0.34280103280E+04  0.25500000000E-02 0.  1.
         -2   -1    0    0    0  501 -0.00000000000E+00 -0.00000000000E+00 -0.46199857753E+02  0.46199857823E+02  0.25500000000E-02 0. -1.
   -5000001    1    1    2    0    0  0.97398903977E+02 -0.14964575527E+03  0.27951150345E+04  0.28119474487E+04  0.25000000000E+03 0.  0.
    5000001    1    1    2    0    0 -0.97398903977E+02  0.14964575527E+03  0.58669543579E+03  0.66226273710E+03  0.25000000000E+03 0.  0.
<mgrwt>
<rscale>  0 0.79592359E+03</rscale>
<asrwt>0</asrwt>
<pdfrwt beam="1">  1        2 0.52738630E+00 0.79592359E+03</pdfrwt>
<pdfrwt beam="2">  1       -2 0.71076691E-02 0.79592359E+03</pdfrwt>
<totfact> 0.11558459E+02</totfact>
</mgrwt>
</event>
<event>
 4    1  0.1720876E-005  0.8510616E+03  0.7818608E-02  0.9488913E-01
         -2   -1    0    0    0  501 -0.00000000000E+00  0.00000000000E+00  0.30992959500E+03  0.30992959501E+03  0.25500000000E-02 0. -1.
          2   -1    0    0  501    0  0.00000000000E+00 -0.00000000000E+00 -0.58425029625E+03  0.58425029626E+03  0.25500000000E-02 0.  1.
   -5000001    1    1    2    0    0  0.82297810985E+02 -0.25378627471E+03 -0.36589660479E+03  0.51726272659E+03  0.25000000000E+03 0.  0.
    5000001    1    1    2    0    0 -0.82297810985E+02  0.25378627471E+03  0.91575903531E+02  0.37691716468E+03  0.25000000000E+03 0.  0.
<mgrwt>
<rscale>  0 0.85106159E+03</rscale>
<asrwt>0</asrwt>
<pdfrwt beam="1">  1        2 0.89884661E-01 0.85106159E+03</pdfrwt>
<pdfrwt beam="2">  1       -2 0.47681476E-01 0.85106159E+03</pdfrwt>
<totfact> 0.21455923E+02</totfact>
</mgrwt>
</event>
<event>
 4    1  0.1720876E-005  0.5742560E+03  0.7818608E-02  0.9960305E-01
         -2   -1    0    0    0  501 -0.00000000000E+00  0.00000000000E+00  0.38544563311E+02  0.38544563396E+02  0.25500000000E-02 0.  1.
          2   -1    0    0  501    0  0.00000000000E+00 -0.00000000000E+00 -0.21388875647E+04  0.21388875647E+04  0.25500000000E-02 0. -1.
   -5000001    1    1    2    0    0 -0.14805134343E+02 -0.13987385593E+03 -0.10024196478E+04  0.10426548029E+04  0.25000000000E+03 0.  0.
    5000001    1    1    2    0    0  0.14805134343E+02  0.13987385593E+03 -0.10979233535E+04  0.11347773252E+04  0.25000000000E+03 0.  0.
<mgrwt>
<rscale>  0 0.57425600E+03</rscale>
<asrwt>0</asrwt>
<pdfrwt beam="1">  1        2 0.32905953E+00 0.57425600E+03</pdfrwt>
<pdfrwt beam="2">  1       -2 0.59299345E-02 0.57425600E+03</pdfrwt>
<totfact> 0.91854638E+02</totfact>
</mgrwt>
</event>
<event>
 4    1  0.1720876E-005  0.5312267E+03  0.7818608E-02  0.1005935E+00
         -2   -1    0    0    0  501 -0.00000000000E+00  0.00000000000E+00  0.21826872407E+03  0.21826872409E+03  0.25500000000E-02 0. -1.
          2   -1    0    0  501    0  0.00000000000E+00 -0.00000000000E+00 -0.32322754651E+03  0.32322754652E+03  0.25500000000E-02 0.  1.
   -5000001    1    1    2    0    0 -0.52510378993E+02  0.72409072198E+02 -0.45268006484E+02  0.26935034073E+03  0.25000000000E+03 0.  0.
    5000001    1    1    2    0    0  0.52510378993E+02 -0.72409072198E+02 -0.59690815952E+02  0.27214592988E+03  0.25000000000E+03 0.  0.
<mgrwt>
<rscale>  0 0.53122675E+03</rscale>
<asrwt>0</asrwt>
<pdfrwt beam="1">  1        2 0.49727315E-01 0.53122675E+03</pdfrwt>
<pdfrwt beam="2">  1       -2 0.33579804E-01 0.53122675E+03</pdfrwt>
<totfact> 0.84066618E+02</totfact>
</mgrwt>
</event>
<event>
 4    1  0.1720876E-005  0.1650711E+04  0.7818608E-02  0.8789986E-01
         -2   -1    0    0    0  501 -0.00000000000E+00  0.00000000000E+00  0.37157314172E+03  0.37157314173E+03  0.25500000000E-02 0. -1.
          2   -1    0    0  501    0  0.00000000000E+00 -0.00000000000E+00 -0.18333174332E+04  0.18333174332E+04  0.25500000000E-02 0.  1.
   -5000001    1    1    2    0    0  0.70975869096E+03 -0.30648868427E+03 -0.92452329070E+03  0.12308273754E+04  0.25000000000E+03 0.  0.
    5000001    1    1    2    0    0 -0.70975869096E+03  0.30648868427E+03 -0.53722100073E+03  0.97406319949E+03  0.25000000000E+03 0.  0.
<mgrwt>
<rscale>  0 0.16507108E+04</rscale>
<asrwt>0</asrwt>
<pdfrwt beam="1">  1        2 0.28204883E+00 0.16507108E+04</pdfrwt>
<pdfrwt beam="2">  1       -2 0.57165099E-01 0.16507108E+04</pdfrwt>
<totfact> 0.22651955E+01</totfact>
</mgrwt>
</event>
<event>
 4    1  0.1720876E-005  0.8297076E+03  0.7818608E-02  0.9517985E-01
         -2   -1    0    0    0  501 -0.00000000000E+00  0.00000000000E+00  0.72078450516E+02  0.72078450561E+02  0.25500000000E-02 0. -1.
          2   -1    0    0  501    0  0.00000000000E+00 -0.00000000000E+00 -0.23877269986E+04  0.23877269986E+04  0.25500000000E-02 0.  1.
   -5000001    1    1    2    0    0 -0.19322574429E+03 -0.19539299430E+03 -0.17051970187E+04  0.17451966889E+04  0.25000000000E+03 0.  0.
    5000001    1    1    2    0    0  0.19322574429E+03  0.19539299430E+03 -0.61045152941E+03  0.71460876026E+03  0.25000000000E+03 0.  0.
<mgrwt>
<rscale>  0 0.82970757E+03</rscale>
<asrwt>0</asrwt>
<pdfrwt beam="1">  1        2 0.36734256E+00 0.82970757E+03</pdfrwt>
<pdfrwt beam="2">  1       -2 0.11088994E-01 0.82970757E+03</pdfrwt>
<totfact> 0.24052732E+02</totfact>
</mgrwt>
</event>
<event>
 4    1  0.1720876E-005  0.1180826E+04  0.7818608E-02  0.9129807E-01
          2   -1    0    0  501    0  0.00000000000E+00  0.00000000000E+00  0.69151793918E+03  0.69151793918E+03  0.25500000000E-02 0.  1.
         -2   -1    0    0    0  501 -0.00000000000E+00 -0.00000000000E+00 -0.50409053850E+03  0.50409053850E+03  0.25500000000E-02 0. -1.
   -5000001    1    1    2    0    0 -0.42758422300E+03  0.27462511810E+03 -0.75229586179E+02  0.57132015008E+03  0.25000000000E+03 0.  0.
    5000001    1    1    2    0    0  0.42758422300E+03 -0.27462511810E+03  0.26265698686E+03  0.62428832761E+03  0.25000000000E+03 0.  0.
<mgrwt>
<rscale>  0 0.11808262E+04</rscale>
<asrwt>0</asrwt>
<pdfrwt beam="1">  1        2 0.10638738E+00 0.11808262E+04</pdfrwt>
<pdfrwt beam="2">  1       -2 0.77552391E-01 0.11808262E+04</pdfrwt>
<totfact> 0.60960711E+01</totfact>
</mgrwt>
</event>
<event>
 4    1  0.1720876E-005  0.7175170E+03  0.7818608E-02  0.9687736E-01
          2   -1    0    0  501    0  0.00000000000E+00  0.00000000000E+00  0.46791994991E+03  0.46791994991E+03  0.25500000000E-02 0. -1.
         -2   -1    0    0    0  501 -0.00000000000E+00 -0.00000000000E+00 -0.27506340757E+03  0.27506340758E+03  0.25500000000E-02 0.  1.
   -5000001    1    1    2    0    0 -0.23716940534E+03 -0.84904439677E+02  0.42130886618E+02  0.35739768090E+03  0.25000000000E+03 0.  0.
    5000001    1    1    2    0    0  0.23716940534E+03  0.84904439677E+02  0.15072565572E+03  0.38558567660E+03  0.25000000000E+03 0.  0.
<mgrwt>
<rscale>  0 0.71751698E+03</rscale>
<asrwt>0</asrwt>
<pdfrwt beam="1">  1        2 0.71987684E-01 0.71751698E+03</pdfrwt>
<pdfrwt beam="2">  1       -2 0.42317448E-01 0.71751698E+03</pdfrwt>
<totfact> 0.35482803E+02</totfact>
</mgrwt>
</event>
<event>
 4    1  0.1720876E-005  0.6658513E+03  0.7818608E-02  0.9777482E-01
          2   -1    0    0  501    0  0.00000000000E+00  0.00000000000E+00  0.22240365062E+03  0.22240365064E+03  0.25500000000E-02 0.  1.
         -2   -1    0    0    0  501 -0.00000000000E+00 -0.00000000000E+00 -0.49837080266E+03  0.49837080266E+03  0.25500000000E-02 0. -1.
   -5000001    1    1    2    0    0 -0.18150971490E+03  0.67419573561E+02 -0.25073010733E+03  0.40355515388E+03  0.25000000000E+03 0.  0.
    5000001    1    1    2    0    0  0.18150971490E+03 -0.67419573561E+02 -0.25237044698E+02  0.31721929942E+03  0.25000000000E+03 0.  0.
<mgrwt>
<rscale>  0 0.66585129E+03</rscale>
<asrwt>0</asrwt>
<pdfrwt beam="1">  1        2 0.34215946E-01 0.66585129E+03</pdfrwt>
<pdfrwt beam="2">  1       -2 0.76672431E-01 0.66585129E+03</pdfrwt>
<totfact> 0.23570028E+02</totfact>
</mgrwt>
</event>
<event>
 4    1  0.1720876E-005  0.8946328E+03  0.7818608E-02  0.9432316E-01
         -2   -1    0    0    0  501 -0.00000000000E+00  0.00000000000E+00  0.73126699334E+02  0.73126699378E+02  0.25500000000E-02 0. -1.
          2   -1    0    0  501    0  0.00000000000E+00 -0.00000000000E+00 -0.27362368672E+04  0.27362368672E+04  0.25500000000E-02 0.  1.
   -5000001    1    1    2    0    0 -0.94899346165E+02 -0.33156388267E+03 -0.90269094871E+03  0.99814399917E+03  0.25000000000E+03 0.  0.
    5000001    1    1    2    0    0  0.94899346165E+02  0.33156388267E+03 -0.17604192191E+04  0.18112195674E+04  0.25000000000E+03 0.  0.
<mgrwt>
<rscale>  0 0.89463282E+03</rscale>
<asrwt>0</asrwt>
<pdfrwt beam="1">  1        2 0.42095944E+00 0.89463282E+03</pdfrwt>
<pdfrwt beam="2">  1       -2 0.11250264E-01 0.89463282E+03</pdfrwt>
<totfact> 0.14729676E+02</totfact>
</mgrwt>
</event>
<event>
 4    1  0.1720876E-005  0.6616735E+03  0.7818608E-02  0.9785118E-01
          2   -1    0    0  501    0  0.00000000000E+00  0.00000000000E+00  0.43265191114E+03  0.43265191115E+03  0.25500000000E-02 0.  1.
         -2   -1    0    0    0  501 -0.00000000000E+00 -0.00000000000E+00 -0.25298157465E+03  0.25298157467E+03  0.25500000000E-02 0. -1.
   -5000001    1    1    2    0    0 -0.15918258652E+03 -0.13437644683E+03  0.28036343868E+02  0.32662235363E+03  0.25000000000E+03 0.  0.
    5000001    1    1    2    0    0  0.15918258652E+03  0.13437644683E+03  0.15163399262E+03  0.35901113219E+03  0.25000000000E+03 0.  0.
<mgrwt>
<rscale>  0 0.66167352E+03</rscale>
<asrwt>0</asrwt>
<pdfrwt beam="1">  1        2 0.66561832E-01 0.66167352E+03</pdfrwt>
<pdfrwt beam="2">  1       -2 0.38920242E-01 0.66167352E+03</pdfrwt>
<totfact> 0.45749255E+02</totfact>
</mgrwt>
</event>
<event>
 4    1  0.1720876E-005  0.1426079E+04  0.7818608E-02  0.8935155E-01
          2   -1    0    0  501    0  0.00000000000E+00  0.00000000000E+00  0.29264682751E+03  0.29264682752E+03  0.25500000000E-02 0.  1.
         -2   -1    0    0    0  501 -0.00000000000E+00 -0.00000000000E+00 -0.17373330543E+04  0.17373330543E+04  0.25500000000E-02 0. -1.
   -5000001    1    1    2    0    0  0.14405901196E+03 -0.53368338721E+03 -0.12556298237E+04  0.13945168378E+04  0.25000000000E+03 0.  0.
    5000001    1    1    2    0    0 -0.14405901196E+03  0.53368338721E+03 -0.18905640301E+03  0.63546304395E+03  0.25000000000E+03 0.  0.
<mgrwt>
<rscale>  0 0.14260785E+04</rscale>
<asrwt>0</asrwt>
<pdfrwt beam="1">  1        2 0.45022590E-01 0.14260785E+04</pdfrwt>
<pdfrwt beam="2">  1       -2 0.26728200E+00 0.14260785E+04</pdfrwt>
<totfact> 0.55332584E+00</totfact>
</mgrwt>
</event>
<event>
 4    1  0.1720876E-005  0.9417231E+03  0.7818608E-02  0.9374878E-01
          2   -1    0    0  501    0  0.00000000000E+00  0.00000000000E+00  0.13799333449E+03  0.13799333452E+03  0.25500000000E-02 0.  1.
         -2   -1    0    0    0  501 -0.00000000000E+00 -0.00000000000E+00 -0.16066761637E+04  0.16066761637E+04  0.25500000000E-02 0. -1.
   -5000001    1    1    2    0    0 -0.23702405061E+03  0.28320561129E+03 -0.10142352069E+04  0.11079525593E+04  0.25000000000E+03 0.  0.
    5000001    1    1    2    0    0  0.23702405061E+03 -0.28320561129E+03 -0.45444762231E+03  0.63671693888E+03  0.25000000000E+03 0.  0.
<mgrwt>
<rscale>  0 0.94172310E+03</rscale>
<asrwt>0</asrwt>
<pdfrwt beam="1">  1        2 0.21229745E-01 0.94172310E+03</pdfrwt>
<pdfrwt beam="2">  1       -2 0.24718093E+00 0.94172310E+03</pdfrwt>
<totfact> 0.17911362E+01</totfact>
</mgrwt>
</event>
<event>
 4    1  0.1720876E-005  0.6434559E+03  0.7818608E-02  0.9819137E-01
          2   -1    0    0  501    0  0.00000000000E+00  0.00000000000E+00  0.32567633146E+04  0.32567633146E+04  0.25500000000E-02 0.  1.
         -2   -1    0    0    0  501 -0.00000000000E+00 -0.00000000000E+00 -0.31782743694E+02  0.31782743796E+02  0.25500000000E-02 0. -1.
   -5000001    1    1    2    0    0  0.15506251283E+03  0.12005002084E+03  0.13542841181E+04  0.13910578215E+04  0.25000000000E+03 0.  0.
    5000001    1    1    2    0    0 -0.15506251283E+03 -0.12005002084E+03  0.18706964528E+04  0.18974882368E+04  0.25000000000E+03 0.  0.
<mgrwt>
<rscale>  0 0.64345590E+03</rscale>
<asrwt>0</asrwt>
<pdfrwt beam="1">  1        2 0.50104044E+00 0.64345590E+03</pdfrwt>
<pdfrwt beam="2">  1       -2 0.48896535E-02 0.64345590E+03</pdfrwt>
<totfact> 0.27462678E+02</totfact>
</mgrwt>
</event>
<event>
 4    1  0.1720876E-005  0.8728841E+03  0.7818608E-02  0.9460127E-01
          2   -1    0    0  501    0  0.00000000000E+00  0.00000000000E+00  0.30924046860E+03  0.30924046861E+03  0.25500000000E-02 0.  1.
         -2   -1    0    0    0  501 -0.00000000000E+00 -0.00000000000E+00 -0.61596610426E+03  0.61596610426E+03  0.25500000000E-02 0. -1.
   -5000001    1    1    2    0    0 -0.44652807636E+02 -0.28324134826E+03  0.73380854300E+02  0.38743294177E+03  0.25000000000E+03 0.  0.
    5000001    1    1    2    0    0  0.44652807636E+02  0.28324134826E+03 -0.38010648996E+03  0.53777363110E+03  0.25000000000E+03 0.  0.
<mgrwt>
<rscale>  0 0.87288406E+03</rscale>
<asrwt>0</asrwt>
<pdfrwt beam="1">  1        2 0.47575457E-01 0.87288406E+03</pdfrwt>
<pdfrwt beam="2">  1       -2 0.94764016E-01 0.87288406E+03</pdfrwt>
<totfact> 0.99960550E+01</totfact>
</mgrwt>
</event>
<event>
 4    1  0.1720876E-005  0.5960530E+03  0.7818608E-02  0.9913629E-01
          2   -1    0    0  501    0  0.00000000000E+00  0.00000000000E+00  0.76736010018E+03  0.76736010018E+03  0.25500000000E-02 0.  1.
         -2   -1    0    0    0  501 -0.00000000000E+00 -0.00000000000E+00 -0.11574720704E+03  0.11574720706E+03  0.25500000000E-02 0. -1.
   -5000001    1    1    2    0    0 -0.91772950977E+02 -0.13321834192E+03  0.30763731715E+03  0.42814731116E+03  0.25000000000E+03 0.  0.
    5000001    1    1    2    0    0  0.91772950977E+02  0.13321834192E+03  0.34397557600E+03  0.45495999608E+03  0.25000000000E+03 0.  0.
<mgrwt>
<rscale>  0 0.59605298E+03</rscale>
<asrwt>0</asrwt>
<pdfrwt beam="1">  1        2 0.11805540E+00 0.59605298E+03</pdfrwt>
<pdfrwt beam="2">  1       -2 0.17807263E-01 0.59605298E+03</pdfrwt>
<totfact> 0.95569735E+02</totfact>
</mgrwt>
</event>
<event>
 4    1  0.1720876E-005  0.6483217E+03  0.7818608E-02  0.9809934E-01
         -2   -1    0    0    0  501 -0.00000000000E+00  0.00000000000E+00  0.13460148889E+04  0.13460148889E+04  0.25500000000E-02 0. -1.
          2   -1    0    0  501    0  0.00000000000E+00 -0.00000000000E+00 -0.78067667302E+02  0.78067667343E+02  0.25500000000E-02 0.  1.
   -5000001    1    1    2    0    0  0.13856110312E+03  0.12651611800E+03  0.82260668897E+03  0.87999276824E+03  0.25000000000E+03 0.  0.
    5000001    1    1    2    0    0 -0.13856110312E+03 -0.12651611800E+03  0.44534053264E+03  0.54408978802E+03  0.25000000000E+03 0.  0.
<mgrwt>
<rscale>  0 0.64832166E+03</rscale>
<asrwt>0</asrwt>
<pdfrwt beam="1">  1        2 0.12010410E-01 0.64832166E+03</pdfrwt>
<pdfrwt beam="2">  1       -2 0.20707921E+00 0.64832166E+03</pdfrwt>
<totfact> 0.64645269E+01</totfact>
</mgrwt>
</event>
<event>
 4    1  0.1720876E-005  0.1023507E+04  0.7818608E-02  0.9283132E-01
         -2   -1    0    0    0  501 -0.00000000000E+00  0.00000000000E+00  0.45220339687E+03  0.45220339688E+03  0.25500000000E-02 0. -1.
          2   -1    0    0  501    0  0.00000000000E+00 -0.00000000000E+00 -0.57914547257E+03  0.57914547258E+03  0.25500000000E-02 0.  1.
   -5000001    1    1    2    0    0  0.41412557803E+03 -0.62956441913E+01 -0.23163867858E+03  0.53637310422E+03  0.25000000000E+03 0.  0.
    5000001    1    1    2    0    0 -0.41412557803E+03  0.62956441913E+01  0.10469660288E+03  0.49497576524E+03  0.25000000000E+03 0.  0.
<mgrwt>
<rscale>  0 0.10235068E+04</rscale>
<asrwt>0</asrwt>
<pdfrwt beam="1">  1        2 0.89099303E-01 0.10235068E+04</pdfrwt>
<pdfrwt beam="2">  1       -2 0.69569753E-01 0.10235068E+04</pdfrwt>
<totfact> 0.97316322E+01</totfact>
</mgrwt>
</event>
<event>
 4    1  0.1720876E-005  0.1712780E+04  0.7818608E-02  0.8754109E-01
          2   -1    0    0  501    0  0.00000000000E+00  0.00000000000E+00  0.18967316153E+04  0.18967316153E+04  0.25500000000E-02 0.  1.
         -2   -1    0    0    0  501 -0.00000000000E+00 -0.00000000000E+00 -0.38666699991E+03  0.38666699992E+03  0.25500000000E-02 0. -1.
   -5000001    1    1    2    0    0 -0.47119567066E+03 -0.66768168337E+03  0.82901132653E+03  0.11906233535E+04  0.25000000000E+03 0.  0.
    5000001    1    1    2    0    0  0.47119567066E+03  0.66768168337E+03  0.68105328882E+03  0.10927752617E+04  0.25000000000E+03 0.  0.
<mgrwt>
<rscale>  0 0.17127796E+04</rscale>
<asrwt>0</asrwt>
<pdfrwt beam="1">  1        2 0.29180486E+00 0.17127796E+04</pdfrwt>
<pdfrwt beam="2">  1       -2 0.59487231E-01 0.17127796E+04</pdfrwt>
<totfact> 0.19116742E+01</totfact>
</mgrwt>
</event>
<event>
 4    1  0.1720876E-005  0.7117181E+03  0.7818608E-02  0.9697400E-01
         -2   -1    0    0    0  501 -0.00000000000E+00  0.00000000000E+00  0.17504457359E+03  0.17504457361E+03  0.25500000000E-02 0. -1.
          2   -1    0    0  501    0  0.00000000000E+00 -0.00000000000E+00 -0.72344804973E+03  0.72344804973E+03  0.25500000000E-02 0.  1.
   -5000001    1    1    2    0    0  0.52669594635E+02  0.24300768956E+03 -0.33486177722E+03  0.48627074066E+03  0.25000000000E+03 0.  0.
    5000001    1    1    2    0    0 -0.52669594635E+02 -0.24300768956E+03 -0.21354169891E+03  0.41222188268E+03  0.25000000000E+03 0.  0.
<mgrwt>
<rscale>  0 0.71171808E+03</rscale>
<asrwt>0</asrwt>
<pdfrwt beam="1">  1        2 0.11129970E+00 0.71171808E+03</pdfrwt>
<pdfrwt beam="2">  1       -2 0.26929935E-01 0.71171808E+03</pdfrwt>
<totfact> 0.49464607E+02</totfact>
</mgrwt>
</event>
<event>
 4    1  0.1720876E-005  0.6803191E+03  0.7818608E-02  0.9751494E-01
         -2   -1    0    0    0  501 -0.00000000000E+00  0.00000000000E+00  0.48715582659E+02  0.48715582726E+02  0.25500000000E-02 0. -1.
          2   -1    0    0  501    0  0.00000000000E+00 -0.00000000000E+00 -0.23751851805E+04  0.23751851805E+04  0.25500000000E-02 0.  1.
   -5000001    1    1    2    0    0  0.53704387602E+02  0.14389198959E+03 -0.55005088910E+03  0.62341402496E+03  0.25000000000E+03 0.  0.
    5000001    1    1    2    0    0 -0.53704387602E+02 -0.14389198959E+03 -0.17764187087E+04  0.18004867382E+04  0.25000000000E+03 0.  0.
<mgrwt>
<rscale>  0 0.68031913E+03</rscale>
<asrwt>0</asrwt>
<pdfrwt beam="1">  1        2 0.36541301E+00 0.68031913E+03</pdfrwt>
<pdfrwt beam="2">  1       -2 0.74947069E-02 0.68031913E+03</pdfrwt>
<totfact> 0.46657022E+02</totfact>
</mgrwt>
</event>
<event>
 4    1  0.1720876E-005  0.6448653E+03  0.7818608E-02  0.9816462E-01
         -2   -1    0    0    0  501 -0.00000000000E+00  0.00000000000E+00  0.11068721090E+03  0.11068721093E+03  0.25500000000E-02 0. -1.
          2   -1    0    0  501    0  0.00000000000E+00 -0.00000000000E+00 -0.93924855681E+03  0.93924855682E+03  0.25500000000E-02 0.  1.
   -5000001    1    1    2    0    0 -0.20238939656E+03 -0.40003944027E+01 -0.37841216907E+03  0.49666209911E+03  0.25000000000E+03 0.  0.
    5000001    1    1    2    0    0  0.20238939656E+03  0.40003944027E+01 -0.45014917684E+03  0.55327366864E+03  0.25000000000E+03 0.  0.
<mgrwt>
<rscale>  0 0.64486527E+03</rscale>
<asrwt>0</asrwt>
<pdfrwt beam="1">  1        2 0.14449977E+00 0.64486527E+03</pdfrwt>
<pdfrwt beam="2">  1       -2 0.17028802E-01 0.64486527E+03</pdfrwt>
<totfact> 0.78420834E+02</totfact>
</mgrwt>
</event>
<event>
 4    1  0.1720876E-005  0.1102979E+04  0.7818608E-02  0.9202293E-01
         -2   -1    0    0    0  501 -0.00000000000E+00  0.00000000000E+00  0.26309475149E+03  0.26309475151E+03  0.25500000000E-02 0. -1.
          2   -1    0    0  501    0  0.00000000000E+00 -0.00000000000E+00 -0.11560126705E+04  0.11560126705E+04  0.25500000000E-02 0.  1.
   -5000001    1    1    2    0    0  0.44654015178E+03  0.90488608231E+02 -0.68388895958E+03  0.85894726521E+03  0.25000000000E+03 0.  0.
    5000001    1    1    2    0    0 -0.44654015178E+03 -0.90488608231E+02 -0.20902895940E+03  0.56016015677E+03  0.25000000000E+03 0.  0.
<mgrwt>
<rscale>  0 0.11029794E+04</rscale>
<asrwt>0</asrwt>
<pdfrwt beam="1">  1        2 0.17784810E+00 0.11029794E+04</pdfrwt>
<pdfrwt beam="2">  1       -2 0.40476116E-01 0.11029794E+04</pdfrwt>
<totfact> 0.11539731E+02</totfact>
</mgrwt>
</event>
<event>
 4    1  0.1720876E-005  0.6540404E+03  0.7818608E-02  0.9799227E-01
         -2   -1    0    0    0  501 -0.00000000000E+00  0.00000000000E+00  0.51421668849E+02  0.51421668912E+02  0.25500000000E-02 0. -1.
          2   -1    0    0  501    0  0.00000000000E+00 -0.00000000000E+00 -0.20797107731E+04  0.20797107731E+04  0.25500000000E-02 0.  1.
   -5000001    1    1    2    0    0 -0.15494925982E+03 -0.12187424201E+03 -0.12575370675E+04  0.12972131976E+04  0.25000000000E+03 0.  0.
    5000001    1    1    2    0    0  0.15494925982E+03  0.12187424201E+03 -0.77075203674E+03  0.83391924436E+03  0.25000000000E+03 0.  0.
<mgrwt>
<rscale>  0 0.65404036E+03</rscale>
<asrwt>0</asrwt>
<pdfrwt beam="1">  1        2 0.31995544E+00 0.65404036E+03</pdfrwt>
<pdfrwt beam="2">  1       -2 0.79110276E-02 0.65404036E+03</pdfrwt>
<totfact> 0.62386978E+02</totfact>
</mgrwt>
</event>
<event>
 4    1  0.1720876E-005  0.5787722E+03  0.7818608E-02  0.9950453E-01
          2   -1    0    0  501    0  0.00000000000E+00  0.00000000000E+00  0.98624186930E+03  0.98624186930E+03  0.25500000000E-02 0.  1.
         -2   -1    0    0    0  501 -0.00000000000E+00 -0.00000000000E+00 -0.84912541912E+02  0.84912541950E+02  0.25500000000E-02 0. -1.
   -5000001    1    1    2    0    0 -0.13471719912E+03 -0.16514425426E+02  0.54899525754E+03  0.61831807574E+03  0.25000000000E+03 0.  0.
    5000001    1    1    2    0    0  0.13471719912E+03  0.16514425426E+02  0.35233406984E+03  0.45283633551E+03  0.25000000000E+03 0.  0.
<mgrwt>
<rscale>  0 0.57877216E+03</rscale>
<asrwt>0</asrwt>
<pdfrwt beam="1">  1        2 0.15172952E+00 0.57877216E+03</pdfrwt>
<pdfrwt beam="2">  1       -2 0.13063468E-01 0.57877216E+03</pdfrwt>
<totfact> 0.11450658E+03</totfact>
</mgrwt>
</event>
<event>
 4    1  0.1720876E-005  0.8534857E+03  0.7818608E-02  0.9485670E-01
         -2   -1    0    0    0  501 -0.00000000000E+00  0.00000000000E+00  0.22989263462E+03  0.22989263464E+03  0.25500000000E-02 0. -1.
          2   -1    0    0  501    0  0.00000000000E+00 -0.00000000000E+00 -0.79215006888E+03  0.79215006889E+03  0.25500000000E-02 0.  1.
   -5000001    1    1    2    0    0  0.13402364917E+03 -0.17923862321E+03 -0.59686877055E+03  0.68471976154E+03  0.25000000000E+03 0.  0.
    5000001    1    1    2    0    0 -0.13402364917E+03  0.17923862321E+03  0.34611336286E+02  0.33732294198E+03  0.25000000000E+03 0.  0.
<mgrwt>
<rscale>  0 0.85348571E+03</rscale>
<asrwt>0</asrwt>
<pdfrwt beam="1">  1        2 0.12186924E+00 0.85348571E+03</pdfrwt>
<pdfrwt beam="2">  1       -2 0.35368098E-01 0.85348571E+03</pdfrwt>
<totfact> 0.26297024E+02</totfact>
</mgrwt>
</event>
<event>
 4    1  0.1720876E-005  0.7797378E+03  0.7818608E-02  0.9589818E-01
          2   -1    0    0  501    0  0.00000000000E+00  0.00000000000E+00  0.32356504620E+03  0.32356504621E+03  0.25500000000E-02 0.  1.
         -2   -1    0    0    0  501 -0.00000000000E+00 -0.00000000000E+00 -0.46975950070E+03  0.46975950071E+03  0.25500000000E-02 0. -1.
   -5000001    1    1    2    0    0  0.28524412265E+03 -0.78411507984E+02 -0.27765495839E+02  0.38830850731E+03  0.25000000000E+03 0.  0.
    5000001    1    1    2    0    0 -0.28524412265E+03  0.78411507984E+02 -0.11842895867E+03  0.40501603961E+03  0.25000000000E+03 0.  0.
<mgrwt>
<rscale>  0 0.77973779E+03</rscale>
<asrwt>0</asrwt>
<pdfrwt beam="1">  1        2 0.49779238E-01 0.77973779E+03</pdfrwt>
<pdfrwt beam="2">  1       -2 0.72270692E-01 0.77973779E+03</pdfrwt>
<totfact> 0.17632731E+02</totfact>
</mgrwt>
</event>
<event>
 4    1  0.1720876E-005  0.1058902E+04  0.7818608E-02  0.9246201E-01
         -2   -1    0    0    0  501 -0.00000000000E+00  0.00000000000E+00  0.62481624419E+03  0.62481624420E+03  0.25500000000E-02 0. -1.
          2   -1    0    0  501    0  0.00000000000E+00 -0.00000000000E+00 -0.44864135744E+03  0.44864135744E+03  0.25500000000E-02 0.  1.
   -5000001    1    1    2    0    0 -0.19913872194E+03 -0.39976555809E+03 -0.49235559160E+02  0.51419147435E+03  0.25000000000E+03 0.  0.
    5000001    1    1    2    0    0  0.19913872194E+03  0.39976555809E+03  0.22541044591E+03  0.55926612729E+03  0.25000000000E+03 0.  0.
<mgrwt>
<rscale>  0 0.10589021E+04</rscale>
<asrwt>0</asrwt>
<pdfrwt beam="1">  1        2 0.69021747E-01 0.10589021E+04</pdfrwt>
<pdfrwt beam="2">  1       -2 0.96125576E-01 0.10589021E+04</pdfrwt>
<totfact> 0.62994541E+01</totfact>
</mgrwt>
</event>
<event>
 4    1  0.1720876E-005  0.6896894E+03  0.7818608E-02  0.9735029E-01
         -2   -1    0    0    0  501 -0.00000000000E+00  0.00000000000E+00  0.14647652163E+03  0.14647652165E+03  0.25500000000E-02 0. -1.
          2   -1    0    0  501    0  0.00000000000E+00 -0.00000000000E+00 -0.81185626697E+03  0.81185626697E+03  0.25500000000E-02 0.  1.
   -5000001    1    1    2    0    0 -0.11145906472E+03 -0.11187339936E+03 -0.86157512959E+02  0.30799658705E+03  0.25000000000E+03 0.  0.
    5000001    1    1    2    0    0  0.11145906472E+03  0.11187339936E+03 -0.57922223239E+03  0.65033620158E+03  0.25000000000E+03 0.  0.
<mgrwt>
<rscale>  0 0.68968944E+03</rscale>
<asrwt>0</asrwt>
<pdfrwt beam="1">  1        2 0.12490096E+00 0.68968944E+03</pdfrwt>
<pdfrwt beam="2">  1       -2 0.22534850E-01 0.68968944E+03</pdfrwt>
<totfact> 0.58698031E+02</totfact>
</mgrwt>
</event>
<event>
 4    1  0.1720876E-005  0.5339399E+03  0.7818608E-02  0.1005281E+00
         -2   -1    0    0    0  501 -0.00000000000E+00  0.00000000000E+00  0.46915039836E+02  0.46915039905E+02  0.25500000000E-02 0. -1.
          2   -1    0    0  501    0  0.00000000000E+00 -0.00000000000E+00 -0.15191918819E+04  0.15191918819E+04  0.25500000000E-02 0.  1.
   -5000001    1    1    2    0    0  0.57423298570E+02 -0.72218039954E+02 -0.68883725530E+03  0.73858624737E+03  0.25000000000E+03 0.  0.
    5000001    1    1    2    0    0 -0.57423298570E+02  0.72218039954E+02 -0.78343958675E+03  0.82752067442E+03  0.25000000000E+03 0.  0.
<mgrwt>
<rscale>  0 0.53393988E+03</rscale>
<asrwt>0</asrwt>
<pdfrwt beam="1">  1        2 0.23372179E+00 0.53393988E+03</pdfrwt>
<pdfrwt beam="2">  1       -2 0.72176996E-02 0.53393988E+03</pdfrwt>
<totfact> 0.14645142E+03</totfact>
</mgrwt>
</event>
<event>
 4    1  0.1720876E-005  0.6306282E+03  0.7818608E-02  0.9843824E-01
         -2   -1    0    0    0  501 -0.00000000000E+00  0.00000000000E+00  0.10871550836E+03  0.10871550839E+03  0.25500000000E-02 0. -1.
          2   -1    0    0  501    0  0.00000000000E+00 -0.00000000000E+00 -0.91452440694E+03  0.91452440695E+03  0.25500000000E-02 0.  1.
   -5000001    1    1    2    0    0 -0.16962837976E+03 -0.74695464203E+02 -0.48515760630E+03  0.57639491890E+03  0.25000000000E+03 0.  0.
    5000001    1    1    2    0    0  0.16962837976E+03  0.74695464203E+02 -0.32065129229E+03  0.44684499643E+03  0.25000000000E+03 0.  0.
<mgrwt>
<rscale>  0 0.63062821E+03</rscale>
<asrwt>0</asrwt>
<pdfrwt beam="1">  1        2 0.14069606E+00 0.63062821E+03</pdfrwt>
<pdfrwt beam="2">  1       -2 0.16725463E-01 0.63062821E+03</pdfrwt>
<totfact> 0.83992677E+02</totfact>
</mgrwt>
</event>
<event>
 4    1  0.1720876E-005  0.8084078E+03  0.7818608E-02  0.9547926E-01
          2   -1    0    0  501    0  0.00000000000E+00  0.00000000000E+00  0.15374632057E+04  0.15374632057E+04  0.25500000000E-02 0.  1.
         -2   -1    0    0    0  501 -0.00000000000E+00 -0.00000000000E+00 -0.10626648109E+03  0.10626648112E+03  0.25500000000E-02 0. -1.
   -5000001    1    1    2    0    0  0.26099842342E+03  0.16322727872E+03  0.87463100616E+03  0.96033469087E+03  0.25000000000E+03 0.  0.
    5000001    1    1    2    0    0 -0.26099842342E+03 -0.16322727872E+03  0.55656571850E+03  0.68339499600E+03  0.25000000000E+03 0.  0.
<mgrwt>
<rscale>  0 0.80840783E+03</rscale>
<asrwt>0</asrwt>
<pdfrwt beam="1">  1        2 0.23653281E+00 0.80840783E+03</pdfrwt>
<pdfrwt beam="2">  1       -2 0.16348689E-01 0.80840783E+03</pdfrwt>
<totfact> 0.36948267E+02</totfact>
</mgrwt>
</event>
<event>
 4    1  0.1720876E-005  0.8888982E+03  0.7818608E-02  0.9439567E-01
          2   -1    0    0  501    0  0.00000000000E+00  0.00000000000E+00  0.12359126187E+04  0.12359126187E+04  0.25500000000E-02 0.  1.
         -2   -1    0    0    0  501 -0.00000000000E+00 -0.00000000000E+00 -0.15982926387E+03  0.15982926389E+03  0.25500000000E-02 0. -1.
   -5000001    1    1    2    0    0 -0.11557881875E+03 -0.19371255765E+03  0.99353841048E+03  0.10490479452E+04  0.25000000000E+03 0.  0.
    5000001    1    1    2    0    0  0.11557881875E+03  0.19371255765E+03  0.82544944316E+02  0.34669393731E+03  0.25000000000E+03 0.  0.
<mgrwt>
<rscale>  0 0.88889820E+03</rscale>
<asrwt>0</asrwt>
<pdfrwt beam="1">  1        2 0.19014040E+00 0.88889820E+03</pdfrwt>
<pdfrwt beam="2">  1       -2 0.24589118E-01 0.88889820E+03</pdfrwt>
<totfact> 0.26697907E+02</totfact>
</mgrwt>
</event>
<event>
 4    1  0.1720876E-005  0.1136046E+04  0.7818608E-02  0.9170754E-01
         -2   -1    0    0    0  501 -0.00000000000E+00  0.00000000000E+00  0.45899975723E+03  0.45899975724E+03  0.25500000000E-02 0. -1.
          2   -1    0    0  501    0  0.00000000000E+00 -0.00000000000E+00 -0.70294218651E+03  0.70294218651E+03  0.25500000000E-02 0.  1.
   -5000001    1    1    2    0    0 -0.37694635004E+02  0.39259211997E+03 -0.45276396032E+03  0.65041883577E+03  0.25000000000E+03 0.  0.
    5000001    1    1    2    0    0  0.37694635004E+02 -0.39259211997E+03  0.20882153104E+03  0.51152310798E+03  0.25000000000E+03 0.  0.
<mgrwt>
<rscale>  0 0.11360463E+04</rscale>
<asrwt>0</asrwt>
<pdfrwt beam="1">  1        2 0.10814495E+00 0.11360463E+04</pdfrwt>
<pdfrwt beam="2">  1       -2 0.70615347E-01 0.11360463E+04</pdfrwt>
<totfact> 0.73675263E+01</totfact>
</mgrwt>
</event>
<event>
 4    1  0.1720876E-005  0.8355905E+03  0.7818608E-02  0.9509884E-01
         -2   -1    0    0    0  501 -0.00000000000E+00  0.00000000000E+00  0.10839581943E+04  0.10839581943E+04  0.25500000000E-02 0. -1.
          2   -1    0    0  501    0  0.00000000000E+00 -0.00000000000E+00 -0.16103283738E+03  0.16103283740E+03  0.25500000000E-02 0.  1.
   -5000001    1    1    2    0    0  0.87477946482E+02 -0.28037951377E+03  0.22219728321E+03  0.44512548290E+03  0.25000000000E+03 0.  0.
    5000001    1    1    2    0    0 -0.87477946482E+02  0.28037951377E+03  0.70072807370E+03  0.79986554878E+03  0.25000000000E+03 0.  0.
<mgrwt>
<rscale>  0 0.83559048E+03</rscale>
<asrwt>0</asrwt>
<pdfrwt beam="1">  1        2 0.24774282E-01 0.83559048E+03</pdfrwt>
<pdfrwt beam="2">  1       -2 0.16676280E+00 0.83559048E+03</pdfrwt>
<totfact> 0.50172738E+01</totfact>
</mgrwt>
</event>
<event>
 4    1  0.1720876E-005  0.9292619E+03  0.7818608E-02  0.9389724E-01
          2   -1    0    0  501    0  0.00000000000E+00  0.00000000000E+00  0.10224472361E+04  0.10224472361E+04  0.25500000000E-02 0.  1.
         -2   -1    0    0    0  501 -0.00000000000E+00 -0.00000000000E+00 -0.21114234242E+03  0.21114234244E+03  0.25500000000E-02 0. -1.
   -5000001    1    1    2    0    0  0.34511171859E+03 -0.70874616012E+02  0.17859044351E+03  0.46746107433E+03  0.25000000000E+03 0.  0.
    5000001    1    1    2    0    0 -0.34511171859E+03  0.70874616012E+02  0.63271445015E+03  0.76612850419E+03  0.25000000000E+03 0.  0.
<mgrwt>
<rscale>  0 0.92926187E+03</rscale>
<asrwt>0</asrwt>
<pdfrwt beam="1">  1        2 0.15729958E+00 0.92926187E+03</pdfrwt>
<pdfrwt beam="2">  1       -2 0.32483437E-01 0.92926187E+03</pdfrwt>
<totfact> 0.21520964E+02</totfact>
</mgrwt>
</event>
<event>
 4    1  0.1720876E-005  0.8721285E+03  0.7818608E-02  0.9461109E-01
          2   -1    0    0  501    0  0.00000000000E+00  0.00000000000E+00  0.24242328623E+03  0.24242328624E+03  0.25500000000E-02 0.  1.
         -2   -1    0    0    0  501 -0.00000000000E+00 -0.00000000000E+00 -0.78438030630E+03  0.78438030630E+03  0.25500000000E-02 0. -1.
   -5000001    1    1    2    0    0 -0.36751209797E+02 -0.31179939775E+03 -0.47175969398E+03  0.61937607697E+03  0.25000000000E+03 0.  0.
    5000001    1    1    2    0    0  0.36751209797E+02  0.31179939775E+03 -0.70197326084E+02  0.40742751557E+03  0.25000000000E+03 0.  0.
<mgrwt>
<rscale>  0 0.87212855E+03</rscale>
<asrwt>0</asrwt>
<pdfrwt beam="1">  1        2 0.37295890E-01 0.87212855E+03</pdfrwt>
<pdfrwt beam="2">  1       -2 0.12067389E+00 0.87212855E+03</pdfrwt>
<totfact> 0.73240585E+01</totfact>
</mgrwt>
</event>
<event>
 4    1  0.1720876E-005  0.9471632E+03  0.7818608E-02  0.9368472E-01
          2   -1    0    0  501    0  0.00000000000E+00  0.00000000000E+00  0.72261319565E+03  0.72261319566E+03  0.25500000000E-02 0.  1.
         -2   -1    0    0    0  501 -0.00000000000E+00 -0.00000000000E+00 -0.31037288258E+03  0.31037288259E+03  0.25500000000E-02 0. -1.
   -5000001    1    1    2    0    0 -0.17380133799E+03 -0.33916190761E+03  0.65851222153E+02  0.46051502486E+03  0.25000000000E+03 0.  0.
    5000001    1    1    2    0    0  0.17380133799E+03  0.33916190761E+03  0.34638909092E+03  0.57247105339E+03  0.25000000000E+03 0.  0.
<mgrwt>
<rscale>  0 0.94716322E+03</rscale>
<asrwt>0</asrwt>
<pdfrwt beam="1">  1        2 0.11117126E+00 0.94716322E+03</pdfrwt>
<pdfrwt beam="2">  1       -2 0.47749675E-01 0.94716322E+03</pdfrwt>
<totfact> 0.16366484E+02</totfact>
</mgrwt>
</event>
<event>
 4    1  0.1720876E-005  0.6650292E+03  0.7818608E-02  0.9778980E-01
         -2   -1    0    0    0  501 -0.00000000000E+00  0.00000000000E+00  0.28896710285E+03  0.28896710286E+03  0.25500000000E-02 0. -1.
          2   -1    0    0  501    0  0.00000000000E+00 -0.00000000000E+00 -0.38262467959E+03  0.38262467960E+03  0.25500000000E-02 0.  1.
   -5000001    1    1    2    0    0  0.19600590333E+02  0.21345595286E+03 -0.34941283361E+00  0.32931405837E+03  0.25000000000E+03 0.  0.
    5000001    1    1    2    0    0 -0.19600590333E+02 -0.21345595286E+03 -0.93308163906E+02  0.34227772408E+03  0.25000000000E+03 0.  0.
<mgrwt>
<rscale>  0 0.66502916E+03</rscale>
<asrwt>0</asrwt>
<pdfrwt beam="1">  1        2 0.58865335E-01 0.66502916E+03</pdfrwt>
<pdfrwt beam="2">  1       -2 0.44456478E-01 0.66502916E+03</pdfrwt>
<totfact> 0.40469797E+02</totfact>
</mgrwt>
</event>
<event>
 4    1  0.1720876E-005  0.7830456E+03  0.7818608E-02  0.9584887E-01
         -2   -1    0    0    0  501 -0.00000000000E+00  0.00000000000E+00  0.10568281473E+04  0.10568281473E+04  0.25500000000E-02 0. -1.
          2   -1    0    0  501    0  0.00000000000E+00 -0.00000000000E+00 -0.14504732119E+03  0.14504732121E+03  0.25500000000E-02 0.  1.
   -5000001    1    1    2    0    0  0.29016275073E+03  0.81124645175E+02  0.46172732546E+03  0.60536580102E+03  0.25000000000E+03 0.  0.
    5000001    1    1    2    0    0 -0.29016275073E+03 -0.81124645175E+02  0.45005350063E+03  0.59650966748E+03  0.25000000000E+03 0.  0.
<mgrwt>
<rscale>  0 0.78304557E+03</rscale>
<asrwt>0</asrwt>
<pdfrwt beam="1">  1        2 0.22314973E-01 0.78304557E+03</pdfrwt>
<pdfrwt beam="2">  1       -2 0.16258894E+00 0.78304557E+03</pdfrwt>
<totfact> 0.60879310E+01</totfact>
</mgrwt>
</event>
<event>
 4    1  0.1720876E-005  0.8292259E+03  0.7818608E-02  0.9518651E-01
         -2   -1    0    0    0  501 -0.00000000000E+00  0.00000000000E+00  0.95548604486E+02  0.95548604520E+02  0.25500000000E-02 0. -1.
          2   -1    0    0  501    0  0.00000000000E+00 -0.00000000000E+00 -0.17991253618E+04  0.17991253618E+04  0.25500000000E-02 0.  1.
   -5000001    1    1    2    0    0  0.15869097300E+03  0.20256202249E+03 -0.13266333008E+04  0.13742889480E+04  0.25000000000E+03 0.  0.
    5000001    1    1    2    0    0 -0.15869097300E+03 -0.20256202249E+03 -0.37694345653E+03  0.52038501832E+03  0.25000000000E+03 0.  0.
<mgrwt>
<rscale>  0 0.82922595E+03</rscale>
<asrwt>0</asrwt>
<pdfrwt beam="1">  1        2 0.27678849E+00 0.82922595E+03</pdfrwt>
<pdfrwt beam="2">  1       -2 0.14699787E-01 0.82922595E+03</pdfrwt>
<totfact> 0.31731690E+02</totfact>
</mgrwt>
</event>
<event>
 4    1  0.1720876E-005  0.5445729E+03  0.7818608E-02  0.1002758E+00
         -2   -1    0    0    0  501 -0.00000000000E+00  0.00000000000E+00  0.37009885674E+02  0.37009885762E+02  0.25500000000E-02 0.  1.
          2   -1    0    0  501    0  0.00000000000E+00 -0.00000000000E+00 -0.20032464822E+04  0.20032464822E+04  0.25500000000E-02 0. -1.
   -5000001    1    1    2    0    0  0.72141461570E+01  0.10225452980E+03 -0.11091648322E+04  0.11416017947E+04  0.25000000000E+03 0.  0.
    5000001    1    1    2    0    0 -0.72141461570E+01 -0.10225452980E+03 -0.85707176434E+03  0.89865457324E+03  0.25000000000E+03 0.  0.
<mgrwt>
<rscale>  0 0.54457295E+03</rscale>
<asrwt>0</asrwt>
<pdfrwt beam="1">  1        2 0.30819168E+00 0.54457295E+03</pdfrwt>
<pdfrwt beam="2">  1       -2 0.56938301E-02 0.54457295E+03</pdfrwt>
<totfact> 0.11615462E+03</totfact>
</mgrwt>
</event>
<event>
 4    1  0.1720876E-005  0.5819813E+03  0.7818608E-02  0.9943511E-01
         -2   -1    0    0    0  501 -0.00000000000E+00  0.00000000000E+00  0.13991271009E+03  0.13991271011E+03  0.25500000000E-02 0. -1.
          2   -1    0    0  501    0  0.00000000000E+00 -0.00000000000E+00 -0.60520272006E+03  0.60520272006E+03  0.25500000000E-02 0.  1.
   -5000001    1    1    2    0    0 -0.14009557455E+03  0.41608472646E+02 -0.26925191983E+03  0.39541703471E+03  0.25000000000E+03 0.  0.
    5000001    1    1    2    0    0  0.14009557455E+03 -0.41608472646E+02 -0.19603809014E+03  0.34969839547E+03  0.25000000000E+03 0.  0.
<mgrwt>
<rscale>  0 0.58198128E+03</rscale>
<asrwt>0</asrwt>
<pdfrwt beam="1">  1        2 0.93108110E-01 0.58198128E+03</pdfrwt>
<pdfrwt beam="2">  1       -2 0.21525033E-01 0.58198128E+03</pdfrwt>
<totfact> 0.92369136E+02</totfact>
</mgrwt>
</event>
<event>
 4    1  0.1720876E-005  0.5802842E+03  0.7818608E-02  0.9947176E-01
         -2   -1    0    0    0  501 -0.00000000000E+00  0.00000000000E+00  0.73174103268E+02  0.73174103312E+02  0.25500000000E-02 0. -1.
          2   -1    0    0  501    0  0.00000000000E+00 -0.00000000000E+00 -0.11504404331E+04  0.11504404331E+04  0.25500000000E-02 0.  1.
   -5000001    1    1    2    0    0 -0.62891709803E+02  0.59177931561E+02 -0.79012899893E+03  0.83322339723E+03  0.25000000000E+03 0.  0.
    5000001    1    1    2    0    0  0.62891709803E+02 -0.59177931561E+02 -0.28713733086E+03  0.39039113914E+03  0.25000000000E+03 0.  0.
<mgrwt>
<rscale>  0 0.58028423E+03</rscale>
<asrwt>0</asrwt>
<pdfrwt beam="1">  1        2 0.17699082E+00 0.58028423E+03</pdfrwt>
<pdfrwt beam="2">  1       -2 0.11257555E-01 0.58028423E+03</pdfrwt>
<totfact> 0.11597831E+03</totfact>
</mgrwt>
</event>
<event>
 4    1  0.1720876E-005  0.8521450E+03  0.7818608E-02  0.9487463E-01
         -2   -1    0    0    0  501 -0.00000000000E+00  0.00000000000E+00  0.58353812415E+02  0.58353812471E+02  0.25500000000E-02 0. -1.
          2   -1    0    0  501    0  0.00000000000E+00 -0.00000000000E+00 -0.31109838214E+04  0.31109838214E+04  0.25500000000E-02 0.  1.
   -5000001    1    1    2    0    0  0.19249484855E+03  0.23797662742E+03 -0.93414098523E+03  0.10143010018E+04  0.25000000000E+03 0.  0.
    5000001    1    1    2    0    0 -0.19249484855E+03 -0.23797662742E+03 -0.21184890238E+04  0.21550366321E+04  0.25000000000E+03 0.  0.
<mgrwt>
<rscale>  0 0.85214498E+03</rscale>
<asrwt>0</asrwt>
<pdfrwt beam="1">  1        2 0.47861277E+00 0.85214498E+03</pdfrwt>
<pdfrwt beam="2">  1       -2 0.89775121E-02 0.85214498E+03</pdfrwt>
<totfact> 0.12672407E+02</totfact>
</mgrwt>
</event>
<event>
 4    1  0.1720876E-005  0.8770084E+03  0.7818608E-02  0.9454787E-01
         -2   -1    0    0    0  501 -0.00000000000E+00  0.00000000000E+00  0.83452870446E+02  0.83452870485E+02  0.25500000000E-02 0. -1.
          2   -1    0    0  501    0  0.00000000000E+00 -0.00000000000E+00 -0.23041262853E+04  0.23041262853E+04  0.25500000000E-02 0.  1.
   -5000001    1    1    2    0    0  0.14897972390E+03  0.24544622518E+03 -0.51795600594E+03  0.64281975054E+03  0.25000000000E+03 0.  0.
    5000001    1    1    2    0    0 -0.14897972390E+03 -0.24544622518E+03 -0.17027174090E+04  0.17447594053E+04  0.25000000000E+03 0.  0.
<mgrwt>
<rscale>  0 0.87700844E+03</rscale>
<asrwt>0</asrwt>
<pdfrwt beam="1">  1        2 0.35448092E+00 0.87700844E+03</pdfrwt>
<pdfrwt beam="2">  1       -2 0.12838905E-01 0.87700844E+03</pdfrwt>
<totfact> 0.20931966E+02</totfact>
</mgrwt>
</event>
<event>
 4    1  0.1720876E-005  0.6506533E+03  0.7818608E-02  0.9805554E-01
         -2   -1    0    0    0  501 -0.00000000000E+00  0.00000000000E+00  0.86418320990E+02  0.86418321028E+02  0.25500000000E-02 0. -1.
          2   -1    0    0  501    0  0.00000000000E+00 -0.00000000000E+00 -0.12247106903E+04  0.12247106903E+04  0.25500000000E-02 0.  1.
   -5000001    1    1    2    0    0 -0.75747710611E+02 -0.18935630012E+03 -0.48499529038E+03  0.58250661434E+03  0.25000000000E+03 0.  0.
    5000001    1    1    2    0    0  0.75747710611E+02  0.18935630012E+03 -0.65329707894E+03  0.72862239700E+03  0.25000000000E+03 0.  0.
<mgrwt>
<rscale>  0 0.65065334E+03</rscale>
<asrwt>0</asrwt>
<pdfrwt beam="1">  1        2 0.18841702E+00 0.65065334E+03</pdfrwt>
<pdfrwt beam="2">  1       -2 0.13295127E-01 0.65065334E+03</pdfrwt>
<totfact> 0.79466361E+02</totfact>
</mgrwt>
</event>
<event>
 4    1  0.1720876E-005  0.5797720E+03  0.7818608E-02  0.9948285E-01
          2   -1    0    0  501    0  0.00000000000E+00  0.00000000000E+00  0.12840877845E+04  0.12840877845E+04  0.25500000000E-02 0.  1.
         -2   -1    0    0    0  501 -0.00000000000E+00 -0.00000000000E+00 -0.65442490923E+02  0.65442490973E+02  0.25500000000E-02 0. -1.
   -5000001    1    1    2    0    0  0.10032207669E+03 -0.10552272318E+03  0.56676095211E+03  0.63633131387E+03  0.25000000000E+03 0.  0.
    5000001    1    1    2    0    0 -0.10032207669E+03  0.10552272318E+03  0.65188434143E+03  0.71319896157E+03  0.25000000000E+03 0.  0.
<mgrwt>
<rscale>  0 0.57977204E+03</rscale>
<asrwt>0</asrwt>
<pdfrwt beam="1">  1        2 0.19755195E+00 0.57977204E+03</pdfrwt>
<pdfrwt beam="2">  1       -2 0.10068076E-01 0.57977204E+03</pdfrwt>
<totfact> 0.11623786E+03</totfact>
</mgrwt>
</event>
<event>
 4    1  0.1720876E-005  0.5736157E+03  0.7818608E-02  0.9961709E-01
          2   -1    0    0  501    0  0.00000000000E+00  0.00000000000E+00  0.66137335574E+03  0.66137335574E+03  0.25500000000E-02 0. -1.
         -2   -1    0    0    0  501 -0.00000000000E+00 -0.00000000000E+00 -0.12437564150E+03  0.12437564152E+03  0.25500000000E-02 0.  1.
   -5000001    1    1    2    0    0 -0.36789059726E+02  0.91855116701E+02  0.40526087183E+03  0.48634059219E+03  0.25000000000E+03 0.  0.
    5000001    1    1    2    0    0  0.36789059726E+02 -0.91855116701E+02  0.13173684241E+03  0.29940840507E+03  0.25000000000E+03 0.  0.
<mgrwt>
<rscale>  0 0.57361567E+03</rscale>
<asrwt>0</asrwt>
<pdfrwt beam="1">  1        2 0.10174975E+00 0.57361567E+03</pdfrwt>
<pdfrwt beam="2">  1       -2 0.19134714E-01 0.57361567E+03</pdfrwt>
<totfact> 0.10185466E+03</totfact>
</mgrwt>
</event>
<event>
 4    1  0.1720876E-005  0.6505582E+03  0.7818608E-02  0.9805732E-01
          2   -1    0    0  501    0  0.00000000000E+00  0.00000000000E+00  0.44196962841E+04  0.44196962841E+04  0.25500000000E-02 0.  1.
         -2   -1    0    0    0  501 -0.00000000000E+00 -0.00000000000E+00 -0.23939764827E+02  0.23939764963E+02  0.25500000000E-02 0. -1.
   -5000001    1    1    2    0    0  0.96484925590E+02  0.79384234516E+02  0.10611535271E+04  0.10973413351E+04  0.25000000000E+03 0.  0.
    5000001    1    1    2    0    0 -0.96484925590E+02 -0.79384234516E+02  0.33346029922E+04  0.33462947140E+04  0.25000000000E+03 0.  0.
<mgrwt>
<rscale>  0 0.65055819E+03</rscale>
<asrwt>0</asrwt>
<pdfrwt beam="1">  1        2 0.67995398E+00 0.65055819E+03</pdfrwt>
<pdfrwt beam="2">  1       -2 0.36830369E-02 0.65055819E+03</pdfrwt>
<totfact> 0.55914504E+01</totfact>
</mgrwt>
</event>
<event>
 4    1  0.1720876E-005  0.1115129E+04  0.7818608E-02  0.9190571E-01
         -2   -1    0    0    0  501 -0.00000000000E+00  0.00000000000E+00  0.57288623133E+03  0.57288623134E+03  0.25500000000E-02 0. -1.
          2   -1    0    0  501    0  0.00000000000E+00 -0.00000000000E+00 -0.54265222112E+03  0.54265222113E+03  0.25500000000E-02 0.  1.
   -5000001    1    1    2    0    0 -0.14796751410E+03 -0.23984384420E+03  0.42631371117E+03  0.56891373262E+03  0.25000000000E+03 0.  0.
    5000001    1    1    2    0    0  0.14796751410E+03  0.23984384420E+03 -0.39607970096E+03  0.54662471984E+03  0.25000000000E+03 0.  0.
<mgrwt>
<rscale>  0 0.11151287E+04</rscale>
<asrwt>0</asrwt>
<pdfrwt beam="1">  1        2 0.83484958E-01 0.11151287E+04</pdfrwt>
<pdfrwt beam="2">  1       -2 0.88136343E-01 0.11151287E+04</pdfrwt>
<totfact> 0.61567510E+01</totfact>
</mgrwt>
</event>
<event>
 4    1  0.1720876E-005  0.5571079E+03  0.7818608E-02  0.9998620E-01
          2   -1    0    0  501    0  0.00000000000E+00  0.00000000000E+00  0.22456098596E+03  0.22456098597E+03  0.25500000000E-02 0.  1.
         -2   -1    0    0    0  501 -0.00000000000E+00 -0.00000000000E+00 -0.34552880625E+03  0.34552880626E+03  0.25500000000E-02 0. -1.
   -5000001    1    1    2    0    0 -0.51202800551E+02  0.11166116597E+03 -0.62051483501E+02  0.28537752079E+03  0.25000000000E+03 0.  0.
    5000001    1    1    2    0    0  0.51202800551E+02 -0.11166116597E+03 -0.58916336791E+02  0.28471227144E+03  0.25000000000E+03 0.  0.
<mgrwt>
<rscale>  0 0.55710785E+03</rscale>
<asrwt>0</asrwt>
<pdfrwt beam="1">  1        2 0.34547844E-01 0.55710785E+03</pdfrwt>
<pdfrwt beam="2">  1       -2 0.53158278E-01 0.55710785E+03</pdfrwt>
<totfact> 0.51060625E+02</totfact>
</mgrwt>
</event>
<event>
 4    1  0.1720876E-005  0.5970671E+03  0.7818608E-02  0.9911510E-01
         -2   -1    0    0    0  501 -0.00000000000E+00  0.00000000000E+00  0.19987442580E+03  0.19987442581E+03  0.25500000000E-02 0. -1.
          2   -1    0    0  501    0  0.00000000000E+00 -0.00000000000E+00 -0.44589130019E+03  0.44589130020E+03  0.25500000000E-02 0.  1.
   -5000001    1    1    2    0    0  0.12262571022E+03  0.27018417130E+02 -0.23569469451E+03  0.36581286021E+03  0.25000000000E+03 0.  0.
    5000001    1    1    2    0    0 -0.12262571022E+03 -0.27018417130E+02 -0.10322179880E+02  0.27995286580E+03  0.25000000000E+03 0.  0.
<mgrwt>
<rscale>  0 0.59706706E+03</rscale>
<asrwt>0</asrwt>
<pdfrwt beam="1">  1        2 0.68598661E-01 0.59706706E+03</pdfrwt>
<pdfrwt beam="2">  1       -2 0.30749912E-01 0.59706706E+03</pdfrwt>
<totfact> 0.69190996E+02</totfact>
</mgrwt>
</event>
<event>
 4    1  0.1720876E-005  0.6791170E+03  0.7818608E-02  0.9753627E-01
          2   -1    0    0  501    0  0.00000000000E+00  0.00000000000E+00  0.13937785682E+04  0.13937785682E+04  0.25500000000E-02 0. -1.
         -2   -1    0    0    0  501 -0.00000000000E+00 -0.00000000000E+00 -0.82724746777E+02  0.82724746816E+02  0.25500000000E-02 0.  1.
   -5000001    1    1    2    0    0 -0.22727995400E+03 -0.28943963737E+02  0.69356205133E+03  0.77202477264E+03  0.25000000000E+03 0.  0.
    5000001    1    1    2    0    0  0.22727995400E+03  0.28943963737E+02  0.61749177005E+03  0.70447854233E+03  0.25000000000E+03 0.  0.
<mgrwt>
<rscale>  0 0.67911701E+03</rscale>
<asrwt>0</asrwt>
<pdfrwt beam="1">  1        2 0.21442745E+00 0.67911701E+03</pdfrwt>
<pdfrwt beam="2">  1       -2 0.12726885E-01 0.67911701E+03</pdfrwt>
<totfact> 0.68270432E+02</totfact>
</mgrwt>
</event>
<event>
 4    1  0.1720876E-005  0.8631908E+03  0.7818608E-02  0.9472802E-01
         -2   -1    0    0    0  501 -0.00000000000E+00  0.00000000000E+00  0.28103098426E+03  0.28103098427E+03  0.25500000000E-02 0. -1.
          2   -1    0    0  501    0  0.00000000000E+00 -0.00000000000E+00 -0.66282577045E+03  0.66282577045E+03  0.25500000000E-02 0.  1.
   -5000001    1    1    2    0    0  0.28652311835E+03  0.18740384708E+03 -0.27945260385E+03  0.50774940379E+03  0.25000000000E+03 0.  0.
    5000001    1    1    2    0    0 -0.28652311835E+03 -0.18740384708E+03 -0.10234218233E+03  0.43610735093E+03  0.25000000000E+03 0.  0.
<mgrwt>
<rscale>  0 0.86319078E+03</rscale>
<asrwt>0</asrwt>
<pdfrwt beam="1">  1        2 0.10197320E+00 0.86319078E+03</pdfrwt>
<pdfrwt beam="2">  1       -2 0.43235536E-01 0.86319078E+03</pdfrwt>
<totfact> 0.22352284E+02</totfact>
</mgrwt>
</event>
<event>
 4    1  0.1720876E-005  0.7879472E+03  0.7818608E-02  0.9577629E-01
         -2   -1    0    0    0  501 -0.00000000000E+00  0.00000000000E+00  0.25528857614E+03  0.25528857615E+03  0.25500000000E-02 0. -1.
          2   -1    0    0  501    0  0.00000000000E+00 -0.00000000000E+00 -0.60799894678E+03  0.60799894679E+03  0.25500000000E-02 0.  1.
   -5000001    1    1    2    0    0  0.12967525477E+03  0.22667138332E+03 -0.47955814955E+01  0.36155025282E+03  0.25000000000E+03 0.  0.
    5000001    1    1    2    0    0 -0.12967525477E+03 -0.22667138332E+03 -0.34791478915E+03  0.50173727012E+03  0.25000000000E+03 0.  0.
<mgrwt>
<rscale>  0 0.78794717E+03</rscale>
<asrwt>0</asrwt>
<pdfrwt beam="1">  1        2 0.93538299E-01 0.78794717E+03</pdfrwt>
<pdfrwt beam="2">  1       -2 0.39275166E-01 0.78794717E+03</pdfrwt>
<totfact> 0.30100762E+02</totfact>
</mgrwt>
</event>
<event>
 4    1  0.1720876E-005  0.8038766E+03  0.7818608E-02  0.9554423E-01
          2   -1    0    0  501    0  0.00000000000E+00  0.00000000000E+00  0.11374371838E+04  0.11374371838E+04  0.25500000000E-02 0.  1.
         -2   -1    0    0    0  501 -0.00000000000E+00 -0.00000000000E+00 -0.14203368109E+03  0.14203368111E+03  0.25500000000E-02 0. -1.
   -5000001    1    1    2    0    0  0.85095501573E+02 -0.16966815455E+03  0.98124804433E+02  0.32887232219E+03  0.25000000000E+03 0.  0.
    5000001    1    1    2    0    0 -0.85095501573E+02  0.16966815455E+03  0.89727869830E+03  0.95059854275E+03  0.25000000000E+03 0.  0.
<mgrwt>
<rscale>  0 0.80387658E+03</rscale>
<asrwt>0</asrwt>
<pdfrwt beam="1">  1        2 0.17499033E+00 0.80387658E+03</pdfrwt>
<pdfrwt beam="2">  1       -2 0.21851336E-01 0.80387658E+03</pdfrwt>
<totfact> 0.37911630E+02</totfact>
</mgrwt>
</event>
<event>
 4    1  0.1720876E-005  0.1041524E+04  0.7818608E-02  0.9264139E-01
          2   -1    0    0  501    0  0.00000000000E+00  0.00000000000E+00  0.12767892209E+04  0.12767892209E+04  0.25500000000E-02 0.  1.
         -2   -1    0    0    0  501 -0.00000000000E+00 -0.00000000000E+00 -0.21240252668E+03  0.21240252670E+03  0.25500000000E-02 0. -1.
   -5000001    1    1    2    0    0 -0.34563168105E+03 -0.24942072109E+03  0.29715738689E+03  0.57660598994E+03  0.25000000000E+03 0.  0.
    5000001    1    1    2    0    0  0.34563168105E+03  0.24942072109E+03  0.76722930728E+03  0.91258575762E+03  0.25000000000E+03 0.  0.
<mgrwt>
<rscale>  0 0.10415244E+04</rscale>
<asrwt>0</asrwt>
<pdfrwt beam="1">  1        2 0.19642911E+00 0.10415244E+04</pdfrwt>
<pdfrwt beam="2">  1       -2 0.32677312E-01 0.10415244E+04</pdfrwt>
<totfact> 0.14817853E+02</totfact>
</mgrwt>
</event>
<event>
 4    1  0.1720876E-005  0.7085124E+03  0.7818608E-02  0.9702785E-01
         -2   -1    0    0    0  501 -0.00000000000E+00  0.00000000000E+00  0.52123438414E+02  0.52123438476E+02  0.25500000000E-02 0. -1.
          2   -1    0    0  501    0  0.00000000000E+00 -0.00000000000E+00 -0.24076968742E+04  0.24076968742E+04  0.25500000000E-02 0.  1.
   -5000001    1    1    2    0    0 -0.75661669040E+02 -0.21772562610E+03 -0.15226740171E+04  0.15601811750E+04  0.25000000000E+03 0.  0.
    5000001    1    1    2    0    0  0.75661669040E+02  0.21772562610E+03 -0.83289941867E+03  0.89963913768E+03  0.25000000000E+03 0.  0.
<mgrwt>
<rscale>  0 0.70851236E+03</rscale>
<asrwt>0</asrwt>
<pdfrwt beam="1">  1        2 0.37041482E+00 0.70851236E+03</pdfrwt>
<pdfrwt beam="2">  1       -2 0.80189924E-02 0.70851236E+03</pdfrwt>
<totfact> 0.40069935E+02</totfact>
</mgrwt>
</event>
<event>
 4    1  0.1720876E-005  0.6659171E+03  0.7818608E-02  0.9777362E-01
          2   -1    0    0  501    0  0.00000000000E+00  0.00000000000E+00  0.19898644794E+04  0.19898644794E+04  0.25500000000E-02 0.  1.
         -2   -1    0    0    0  501 -0.00000000000E+00 -0.00000000000E+00 -0.55713041490E+02  0.55713041549E+02  0.25500000000E-02 0. -1.
   -5000001    1    1    2    0    0 -0.34165003831E+02  0.16576041976E+03  0.53573226788E+03  0.61494132004E+03  0.25000000000E+03 0.  0.
    5000001    1    1    2    0    0  0.34165003831E+02 -0.16576041976E+03  0.13984191700E+04  0.14306362009E+04  0.25000000000E+03 0.  0.
<mgrwt>
<rscale>  0 0.66591712E+03</rscale>
<asrwt>0</asrwt>
<pdfrwt beam="1">  1        2 0.30613296E+00 0.66591712E+03</pdfrwt>
<pdfrwt beam="2">  1       -2 0.85712383E-02 0.66591712E+03</pdfrwt>
<totfact> 0.61361779E+02</totfact>
</mgrwt>
</event>
<event>
 4    1  0.1720876E-005  0.8353017E+03  0.7818608E-02  0.9510280E-01
          2   -1    0    0  501    0  0.00000000000E+00  0.00000000000E+00  0.49690566068E+03  0.49690566069E+03  0.25500000000E-02 0.  1.
         -2   -1    0    0    0  501 -0.00000000000E+00 -0.00000000000E+00 -0.35103688499E+03  0.35103688500E+03  0.25500000000E-02 0. -1.
   -5000001    1    1    2    0    0 -0.27743510185E+03 -0.18688934217E+03  0.78884256757E+02  0.42499480929E+03  0.25000000000E+03 0.  0.
    5000001    1    1    2    0    0  0.27743510185E+03  0.18688934217E+03  0.66984518935E+02  0.42294773641E+03  0.25000000000E+03 0.  0.
<mgrwt>
<rscale>  0 0.83530166E+03</rscale>
<asrwt>0</asrwt>
<pdfrwt beam="1">  1        2 0.76447024E-01 0.83530166E+03</pdfrwt>
<pdfrwt beam="2">  1       -2 0.54005675E-01 0.83530166E+03</pdfrwt>
<totfact> 0.20153083E+02</totfact>
</mgrwt>
</event>
<event>
 4    1  0.1720876E-005  0.8556949E+03  0.7818608E-02  0.9482725E-01
          2   -1    0    0  501    0  0.00000000000E+00  0.00000000000E+00  0.22927181413E+04  0.22927181413E+04  0.25500000000E-02 0.  1.
         -2   -1    0    0    0  501 -0.00000000000E+00 -0.00000000000E+00 -0.79841237766E+02  0.79841237807E+02  0.25500000000E-02 0. -1.
   -5000001    1    1    2    0    0  0.22396212864E+03  0.20967901442E+03  0.15571924269E+04  0.16066961687E+04  0.25000000000E+03 0.  0.
    5000001    1    1    2    0    0 -0.22396212864E+03 -0.20967901442E+03  0.65568447667E+03  0.76586321044E+03  0.25000000000E+03 0.  0.
<mgrwt>
<rscale>  0 0.85569493E+03</rscale>
<asrwt>0</asrwt>
<pdfrwt beam="1">  1        2 0.35272583E+00 0.85569493E+03</pdfrwt>
<pdfrwt beam="2">  1       -2 0.12283269E-01 0.85569493E+03</pdfrwt>
<totfact> 0.22904966E+02</totfact>
</mgrwt>
</event>
<event>
 4    1  0.1720876E-005  0.9773421E+03  0.7818608E-02  0.9333751E-01
         -2   -1    0    0    0  501 -0.00000000000E+00  0.00000000000E+00  0.23228169494E+03  0.23228169495E+03  0.25500000000E-02 0. -1.
          2   -1    0    0  501    0  0.00000000000E+00 -0.00000000000E+00 -0.10280593664E+04  0.10280593664E+04  0.25500000000E-02 0.  1.
   -5000001    1    1    2    0    0 -0.38421912656E+03 -0.99309406718E+00 -0.17952233797E+03  0.49229421415E+03  0.25000000000E+03 0.  0.
    5000001    1    1    2    0    0  0.38421912656E+03  0.99309406718E+00 -0.61625533353E+03  0.76804684725E+03  0.25000000000E+03 0.  0.
<mgrwt>
<rscale>  0 0.97734205E+03</rscale>
<asrwt>0</asrwt>
<pdfrwt beam="1">  1        2 0.15816298E+00 0.97734205E+03</pdfrwt>
<pdfrwt beam="2">  1       -2 0.35735646E-01 0.97734205E+03</pdfrwt>
<totfact> 0.17759837E+02</totfact>
</mgrwt>
</event>
<event>
 4    1  0.1720876E-005  0.7430972E+03  0.7818608E-02  0.9646242E-01
          2   -1    0    0  501    0  0.00000000000E+00  0.00000000000E+00  0.17108435722E+04  0.17108435722E+04  0.25500000000E-02 0.  1.
         -2   -1    0    0    0  501 -0.00000000000E+00 -0.00000000000E+00 -0.80690236621E+02  0.80690236662E+02  0.25500000000E-02 0. -1.
   -5000001    1    1    2    0    0 -0.20046822005E+03 -0.51420657654E+02  0.12511551457E+04  0.12925636502E+04  0.25000000000E+03 0.  0.
    5000001    1    1    2    0    0  0.20046822005E+03  0.51420657654E+02  0.37899818992E+03  0.49897015867E+03  0.25000000000E+03 0.  0.
<mgrwt>
<rscale>  0 0.74309723E+03</rscale>
<asrwt>0</asrwt>
<pdfrwt beam="1">  1        2 0.26320667E+00 0.74309723E+03</pdfrwt>
<pdfrwt beam="2">  1       -2 0.12413884E-01 0.74309723E+03</pdfrwt>
<totfact> 0.47329401E+02</totfact>
</mgrwt>
</event>
<event>
 4    1  0.1720876E-005  0.7237721E+03  0.7818608E-02  0.9677421E-01
          2   -1    0    0  501    0  0.00000000000E+00  0.00000000000E+00  0.13835633793E+04  0.13835633793E+04  0.25500000000E-02 0.  1.
         -2   -1    0    0    0  501 -0.00000000000E+00 -0.00000000000E+00 -0.94655237871E+02  0.94655237905E+02  0.25500000000E-02 0. -1.
   -5000001    1    1    2    0    0  0.20866000721E+03 -0.33788643112E+02  0.32949762414E+03  0.46448827254E+03  0.25000000000E+03 0.  0.
    5000001    1    1    2    0    0 -0.20866000721E+03  0.33788643112E+02  0.95941051732E+03  0.10137303447E+04  0.25000000000E+03 0.  0.
<mgrwt>
<rscale>  0 0.72377212E+03</rscale>
<asrwt>0</asrwt>
<pdfrwt beam="1">  1        2 0.21285589E+00 0.72377212E+03</pdfrwt>
<pdfrwt beam="2">  1       -2 0.14562345E-01 0.72377212E+03</pdfrwt>
<totfact> 0.55102081E+02</totfact>
</mgrwt>
</event>
<event>
 4    1  0.1720876E-005  0.8974751E+03  0.7818608E-02  0.9428743E-01
          2   -1    0    0  501    0  0.00000000000E+00  0.00000000000E+00  0.24263579221E+04  0.24263579221E+04  0.25500000000E-02 0.  1.
         -2   -1    0    0    0  501 -0.00000000000E+00 -0.00000000000E+00 -0.82990809454E+02  0.82990809493E+02  0.25500000000E-02 0. -1.
   -5000001    1    1    2    0    0  0.28334249309E+03 -0.19636864921E+03  0.15673143415E+04  0.16241360349E+04  0.25000000000E+03 0.  0.
    5000001    1    1    2    0    0 -0.28334249309E+03  0.19636864921E+03  0.77605277113E+03  0.88521269668E+03  0.25000000000E+03 0.  0.
<mgrwt>
<rscale>  0 0.89747514E+03</rscale>
<asrwt>0</asrwt>
<pdfrwt beam="1">  1        2 0.37328582E+00 0.89747514E+03</pdfrwt>
<pdfrwt beam="2">  1       -2 0.12767817E-01 0.89747514E+03</pdfrwt>
<totfact> 0.18006645E+02</totfact>
</mgrwt>
</event>
<event>
 4    1  0.1720876E-005  0.6922078E+03  0.7818608E-02  0.9730651E-01
         -2   -1    0    0    0  501 -0.00000000000E+00  0.00000000000E+00  0.16234909367E+03  0.16234909369E+03  0.25500000000E-02 0. -1.
          2   -1    0    0  501    0  0.00000000000E+00 -0.00000000000E+00 -0.73784166422E+03  0.73784166422E+03  0.25500000000E-02 0.  1.
   -5000001    1    1    2    0    0  0.22085513214E+03  0.75234837764E+02 -0.21831257353E+03  0.40570635929E+03  0.25000000000E+03 0.  0.
    5000001    1    1    2    0    0 -0.22085513214E+03 -0.75234837764E+02 -0.35717999703E+03  0.49448439862E+03  0.25000000000E+03 0.  0.
<mgrwt>
<rscale>  0 0.69220785E+03</rscale>
<asrwt>0</asrwt>
<pdfrwt beam="1">  1        2 0.11351410E+00 0.69220785E+03</pdfrwt>
<pdfrwt beam="2">  1       -2 0.24976784E-01 0.69220785E+03</pdfrwt>
<totfact> 0.55317678E+02</totfact>
</mgrwt>
</event>
<event>
 4    1  0.1720876E-005  0.6741769E+03  0.7818608E-02  0.9762441E-01
         -2   -1    0    0    0  501 -0.00000000000E+00  0.00000000000E+00  0.39313411619E+02  0.39313411701E+02  0.25500000000E-02 0. -1.
          2   -1    0    0  501    0  0.00000000000E+00 -0.00000000000E+00 -0.28903274029E+04  0.28903274029E+04  0.25500000000E-02 0.  1.
   -5000001    1    1    2    0    0  0.20405249314E+03  0.81299991008E+02 -0.11922409623E+04  0.12378148572E+04  0.25000000000E+03 0.  0.
    5000001    1    1    2    0    0 -0.20405249314E+03 -0.81299991008E+02 -0.16587730289E+04  0.16918259574E+04  0.25000000000E+03 0.  0.
<mgrwt>
<rscale>  0 0.67417692E+03</rscale>
<asrwt>0</asrwt>
<pdfrwt beam="1">  1        2 0.44466559E+00 0.67417692E+03</pdfrwt>
<pdfrwt beam="2">  1       -2 0.60482195E-02 0.67417692E+03</pdfrwt>
<totfact> 0.33093882E+02</totfact>
</mgrwt>
</event>
<event>
 4    1  0.1720876E-005  0.8521135E+03  0.7818608E-02  0.9487505E-01
          2   -1    0    0  501    0  0.00000000000E+00  0.00000000000E+00  0.66163303602E+03  0.66163303602E+03  0.25500000000E-02 0.  1.
         -2   -1    0    0    0  501 -0.00000000000E+00 -0.00000000000E+00 -0.27435803517E+03  0.27435803518E+03  0.25500000000E-02 0. -1.
   -5000001    1    1    2    0    0  0.17195049591E+03  0.27059388490E+03  0.33360204242E+03  0.52590716509E+03  0.25000000000E+03 0.  0.
    5000001    1    1    2    0    0 -0.17195049591E+03 -0.27059388490E+03  0.53672958430E+02  0.41008390611E+03  0.25000000000E+03 0.  0.
<mgrwt>
<rscale>  0 0.85211347E+03</rscale>
<asrwt>0</asrwt>
<pdfrwt beam="1">  1        2 0.10178970E+00 0.85211347E+03</pdfrwt>
<pdfrwt beam="2">  1       -2 0.42208928E-01 0.85211347E+03</pdfrwt>
<totfact> 0.23503336E+02</totfact>
</mgrwt>
</event>
<event>
 4    1  0.1720876E-005  0.5625347E+03  0.7818608E-02  0.9986336E-01
          2   -1    0    0  501    0  0.00000000000E+00  0.00000000000E+00  0.16361224700E+04  0.16361224700E+04  0.25500000000E-02 0.  1.
         -2   -1    0    0    0  501 -0.00000000000E+00 -0.00000000000E+00 -0.48352929065E+02  0.48352929132E+02  0.25500000000E-02 0. -1.
   -5000001    1    1    2    0    0 -0.11142875528E+03  0.63793565764E+02  0.82740740490E+03  0.87383579706E+03  0.25000000000E+03 0.  0.
    5000001    1    1    2    0    0  0.11142875528E+03 -0.63793565764E+02  0.76036213602E+03  0.81063960206E+03  0.25000000000E+03 0.  0.
<mgrwt>
<rscale>  0 0.56253467E+03</rscale>
<asrwt>0</asrwt>
<pdfrwt beam="1">  1        2 0.25171110E+00 0.56253467E+03</pdfrwt>
<pdfrwt beam="2">  1       -2 0.74389136E-02 0.56253467E+03</pdfrwt>
<totfact> 0.12037580E+03</totfact>
</mgrwt>
</event>
<event>
 4    1  0.1720876E-005  0.8502103E+03  0.7818608E-02  0.9490055E-01
          2   -1    0    0  501    0  0.00000000000E+00  0.00000000000E+00  0.25386795687E+04  0.25386795687E+04  0.25500000000E-02 0.  1.
         -2   -1    0    0    0  501 -0.00000000000E+00 -0.00000000000E+00 -0.71184400450E+02  0.71184400496E+02  0.25500000000E-02 0. -1.
   -5000001    1    1    2    0    0  0.23897308294E+03  0.16548431129E+02  0.47663757944E+03  0.58912253995E+03  0.25000000000E+03 0.  0.
    5000001    1    1    2    0    0 -0.23897308294E+03 -0.16548431129E+02  0.19908575888E+04  0.20207414292E+04  0.25000000000E+03 0.  0.
<mgrwt>
<rscale>  0 0.85021029E+03</rscale>
<asrwt>0</asrwt>
<pdfrwt beam="1">  1        2 0.39056607E+00 0.85021029E+03</pdfrwt>
<pdfrwt beam="2">  1       -2 0.10951447E-01 0.85021029E+03</pdfrwt>
<totfact> 0.20126132E+02</totfact>
</mgrwt>
</event>
<event>
 4    1  0.1720876E-005  0.7457062E+03  0.7818608E-02  0.9642111E-01
         -2   -1    0    0    0  501 -0.00000000000E+00  0.00000000000E+00  0.77967410151E+02  0.77967410193E+02  0.25500000000E-02 0. -1.
          2   -1    0    0  501    0  0.00000000000E+00 -0.00000000000E+00 -0.17830456568E+04  0.17830456568E+04  0.25500000000E-02 0.  1.
   -5000001    1    1    2    0    0 -0.32536999026E+02 -0.26258013149E+03 -0.10539368293E+04  0.11150290678E+04  0.25000000000E+03 0.  0.
    5000001    1    1    2    0    0  0.32536999026E+02  0.26258013149E+03 -0.65114141738E+03  0.74598399929E+03  0.25000000000E+03 0.  0.
<mgrwt>
<rscale>  0 0.74570625E+03</rscale>
<asrwt>0</asrwt>
<pdfrwt beam="1">  1        2 0.27431468E+00 0.74570625E+03</pdfrwt>
<pdfrwt beam="2">  1       -2 0.11994988E-01 0.74570625E+03</pdfrwt>
<totfact> 0.45742867E+02</totfact>
</mgrwt>
</event>
<event>
 4    1  0.1720876E-005  0.8806838E+03  0.7818608E-02  0.9450055E-01
          2   -1    0    0  501    0  0.00000000000E+00  0.00000000000E+00  0.21281357792E+03  0.21281357793E+03  0.25500000000E-02 0.  1.
         -2   -1    0    0    0  501 -0.00000000000E+00 -0.00000000000E+00 -0.91113066146E+03  0.91113066146E+03  0.25500000000E-02 0. -1.
   -5000001    1    1    2    0    0  0.32653241124E+03  0.34090786313E+02 -0.54527869772E+03  0.68382340958E+03  0.25000000000E+03 0.  0.
    5000001    1    1    2    0    0 -0.32653241124E+03 -0.34090786313E+02 -0.15303838583E+03  0.44012082982E+03  0.25000000000E+03 0.  0.
<mgrwt>
<rscale>  0 0.88068377E+03</rscale>
<asrwt>0</asrwt>
<pdfrwt beam="1">  1        2 0.32740551E-01 0.88068377E+03</pdfrwt>
<pdfrwt beam="2">  1       -2 0.14017395E+00 0.88068377E+03</pdfrwt>
<totfact> 0.57946301E+01</totfact>
</mgrwt>
</event>
<event>
 4    1  0.1720876E-005  0.6797947E+03  0.7818608E-02  0.9752424E-01
          2   -1    0    0  501    0  0.00000000000E+00  0.00000000000E+00  0.18856558101E+04  0.18856558101E+04  0.25500000000E-02 0.  1.
         -2   -1    0    0    0  501 -0.00000000000E+00 -0.00000000000E+00 -0.61267917379E+02  0.61267917432E+02  0.25500000000E-02 0. -1.
   -5000001    1    1    2    0    0 -0.15647275524E+03  0.11313775827E+03  0.12715796785E+04  0.13102285123E+04  0.25000000000E+03 0.  0.
    5000001    1    1    2    0    0  0.15647275524E+03 -0.11313775827E+03  0.55280821418E+03  0.63669521527E+03  0.25000000000E+03 0.  0.
<mgrwt>
<rscale>  0 0.67979469E+03</rscale>
<asrwt>0</asrwt>
<pdfrwt beam="1">  1        2 0.29010089E+00 0.67979469E+03</pdfrwt>
<pdfrwt beam="2">  1       -2 0.94258334E-02 0.67979469E+03</pdfrwt>
<totfact> 0.59919088E+02</totfact>
</mgrwt>
</event>
<event>
 4    1  0.1720876E-005  0.9809635E+03  0.7818608E-02  0.9329674E-01
         -2   -1    0    0    0  501 -0.00000000000E+00  0.00000000000E+00  0.17516914339E+03  0.17516914341E+03  0.25500000000E-02 0. -1.
          2   -1    0    0  501    0  0.00000000000E+00 -0.00000000000E+00 -0.13733716791E+04  0.13733716791E+04  0.25500000000E-02 0.  1.
   -5000001    1    1    2    0    0 -0.16953091176E+03  0.38162279550E+03 -0.50313571252E+03  0.70001588075E+03  0.25000000000E+03 0.  0.
    5000001    1    1    2    0    0  0.16953091176E+03 -0.38162279550E+03 -0.69506682319E+03  0.84852494176E+03  0.25000000000E+03 0.  0.
<mgrwt>
<rscale>  0 0.98096349E+03</rscale>
<asrwt>0</asrwt>
<pdfrwt beam="1">  1        2 0.21128794E+00 0.98096349E+03</pdfrwt>
<pdfrwt beam="2">  1       -2 0.26949100E-01 0.98096349E+03</pdfrwt>
<totfact> 0.18712199E+02</totfact>
</mgrwt>
</event>
<event>
 4    1  0.1720876E-005  0.1102070E+04  0.7818608E-02  0.9203176E-01
          2   -1    0    0  501    0  0.00000000000E+00  0.00000000000E+00  0.25383790594E+04  0.25383790594E+04  0.25500000000E-02 0.  1.
         -2   -1    0    0    0  501 -0.00000000000E+00 -0.00000000000E+00 -0.11961953630E+03  0.11961953632E+03  0.25500000000E-02 0. -1.
   -5000001    1    1    2    0    0 -0.27932838503E+03 -0.36346957401E+03  0.16340609869E+04  0.17154561454E+04  0.25000000000E+03 0.  0.
    5000001    1    1    2    0    0  0.27932838503E+03  0.36346957401E+03  0.78469853619E+03  0.94254245030E+03  0.25000000000E+03 0.  0.
<mgrwt>
<rscale>  0 0.11020703E+04</rscale>
<asrwt>0</asrwt>
<pdfrwt beam="1">  1        2 0.39051981E+00 0.11020703E+04</pdfrwt>
<pdfrwt beam="2">  1       -2 0.18403008E-01 0.11020703E+04</pdfrwt>
<totfact> 0.81927901E+01</totfact>
</mgrwt>
</event>
<event>
 4    1  0.1720876E-005  0.8040981E+03  0.7818608E-02  0.9554104E-01
          2   -1    0    0  501    0  0.00000000000E+00  0.00000000000E+00  0.33582545661E+03  0.33582545662E+03  0.25500000000E-02 0.  1.
         -2   -1    0    0    0  501 -0.00000000000E+00 -0.00000000000E+00 -0.48133175225E+03  0.48133175225E+03  0.25500000000E-02 0. -1.
   -5000001    1    1    2    0    0 -0.77565941838E+02 -0.15908221947E+03  0.19189868043E+03  0.36145363663E+03  0.25000000000E+03 0.  0.
    5000001    1    1    2    0    0  0.77565941838E+02  0.15908221947E+03 -0.33740497606E+03  0.45570357224E+03  0.25000000000E+03 0.  0.
<mgrwt>
<rscale>  0 0.80409814E+03</rscale>
<asrwt>0</asrwt>
<pdfrwt beam="1">  1        2 0.51665455E-01 0.80409814E+03</pdfrwt>
<pdfrwt beam="2">  1       -2 0.74051039E-01 0.80409814E+03</pdfrwt>
<totfact> 0.16018357E+02</totfact>
</mgrwt>
</event>
<event>
 4    1  0.1720876E-005  0.6870143E+03  0.7818608E-02  0.9739701E-01
          2   -1    0    0  501    0  0.00000000000E+00  0.00000000000E+00  0.37934327026E+04  0.37934327026E+04  0.25500000000E-02 0.  1.
         -2   -1    0    0    0  501 -0.00000000000E+00 -0.00000000000E+00 -0.31105645089E+02  0.31105645193E+02  0.25500000000E-02 0. -1.
   -5000001    1    1    2    0    0 -0.11553890059E+03 -0.12650345778E+03  0.98103202157E+03  0.10267795234E+04  0.25000000000E+03 0.  0.
    5000001    1    1    2    0    0  0.11553890059E+03  0.12650345778E+03  0.27812950360E+04  0.27977588244E+04  0.25000000000E+03 0.  0.
<mgrwt>
<rscale>  0 0.68701433E+03</rscale>
<asrwt>0</asrwt>
<pdfrwt beam="1">  1        2 0.58360471E+00 0.68701433E+03</pdfrwt>
<pdfrwt beam="2">  1       -2 0.47854865E-02 0.68701433E+03</pdfrwt>
<totfact> 0.12089544E+02</totfact>
</mgrwt>
</event>
<event>
 4    1  0.1720876E-005  0.6721690E+03  0.7818608E-02  0.9766047E-01
          2   -1    0    0  501    0  0.00000000000E+00  0.00000000000E+00  0.16157999083E+04  0.16157999083E+04  0.25500000000E-02 0.  1.
         -2   -1    0    0    0  501 -0.00000000000E+00 -0.00000000000E+00 -0.69905186158E+02  0.69905186204E+02  0.25500000000E-02 0. -1.
   -5000001    1    1    2    0    0 -0.12749017486E+03 -0.11488494021E+03  0.11363749773E+04  0.11761379100E+04  0.25000000000E+03 0.  0.
    5000001    1    1    2    0    0  0.12749017486E+03  0.11488494021E+03  0.40951974485E+03  0.50956718457E+03  0.25000000000E+03 0.  0.
<mgrwt>
<rscale>  0 0.67216901E+03</rscale>
<asrwt>0</asrwt>
<pdfrwt beam="1">  1        2 0.24858459E+00 0.67216901E+03</pdfrwt>
<pdfrwt beam="2">  1       -2 0.10754644E-01 0.67216901E+03</pdfrwt>
<totfact> 0.67858479E+02</totfact>
</mgrwt>
</event>
<event>
 4    1  0.1720876E-005  0.1228221E+04  0.7818608E-02  0.9088507E-01
          2   -1    0    0  501    0  0.00000000000E+00  0.00000000000E+00  0.92998322111E+03  0.92998322111E+03  0.25500000000E-02 0.  1.
         -2   -1    0    0    0  501 -0.00000000000E+00 -0.00000000000E+00 -0.40552534293E+03  0.40552534294E+03  0.25500000000E-02 0. -1.
   -5000001    1    1    2    0    0  0.34863693880E+03 -0.43083204314E+03  0.16826386307E+03  0.63085393880E+03  0.25000000000E+03 0.  0.
    5000001    1    1    2    0    0 -0.34863693880E+03  0.43083204314E+03  0.35619401510E+03  0.70465462525E+03  0.25000000000E+03 0.  0.
<mgrwt>
<rscale>  0 0.12282211E+04</rscale>
<asrwt>0</asrwt>
<pdfrwt beam="1">  1        2 0.14307434E+00 0.12282211E+04</pdfrwt>
<pdfrwt beam="2">  1       -2 0.62388515E-01 0.12282211E+04</pdfrwt>
<totfact> 0.65734514E+01</totfact>
</mgrwt>
</event>
<event>
 4    1  0.1720876E-005  0.7536516E+03  0.7818608E-02  0.9629639E-01
          2   -1    0    0  501    0  0.00000000000E+00  0.00000000000E+00  0.40293076835E+03  0.40293076836E+03  0.25500000000E-02 0.  1.
         -2   -1    0    0    0  501 -0.00000000000E+00 -0.00000000000E+00 -0.35241211728E+03  0.35241211729E+03  0.25500000000E-02 0. -1.
   -5000001    1    1    2    0    0  0.11998424627E+03  0.13896206778E+03 -0.18920922881E+03  0.36332741143E+03  0.25000000000E+03 0.  0.
    5000001    1    1    2    0    0 -0.11998424627E+03 -0.13896206778E+03  0.23972787988E+03  0.39201547421E+03  0.25000000000E+03 0.  0.
<mgrwt>
<rscale>  0 0.75365160E+03</rscale>
<asrwt>0</asrwt>
<pdfrwt beam="1">  1        2 0.61989349E-01 0.75365160E+03</pdfrwt>
<pdfrwt beam="2">  1       -2 0.54217249E-01 0.75365160E+03</pdfrwt>
<totfact> 0.25477977E+02</totfact>
</mgrwt>
</event>
<event>
 4    1  0.1720876E-005  0.7197830E+03  0.7818608E-02  0.9683986E-01
         -2   -1    0    0    0  501 -0.00000000000E+00  0.00000000000E+00  0.11424172533E+03  0.11424172536E+03  0.25500000000E-02 0. -1.
          2   -1    0    0  501    0  0.00000000000E+00 -0.00000000000E+00 -0.11337528704E+04  0.11337528704E+04  0.25500000000E-02 0.  1.
   -5000001    1    1    2    0    0 -0.12650714192E+03 -0.42480747196E+02 -0.89439340025E+03  0.93821544714E+03  0.25000000000E+03 0.  0.
    5000001    1    1    2    0    0  0.12650714192E+03  0.42480747196E+02 -0.12511774477E+03  0.30977914858E+03  0.25000000000E+03 0.  0.
<mgrwt>
<rscale>  0 0.71978298E+03</rscale>
<asrwt>0</asrwt>
<pdfrwt beam="1">  1        2 0.17442351E+00 0.71978298E+03</pdfrwt>
<pdfrwt beam="2">  1       -2 0.17575651E-01 0.71978298E+03</pdfrwt>
<totfact> 0.55946153E+02</totfact>
</mgrwt>
</event>
<event>
 4    1  0.1720876E-005  0.5934682E+03  0.7818608E-02  0.9919051E-01
          2   -1    0    0  501    0  0.00000000000E+00  0.00000000000E+00  0.33119670753E+02  0.33119670852E+02  0.25500000000E-02 0.  1.
         -2   -1    0    0    0  501 -0.00000000000E+00 -0.00000000000E+00 -0.26585751551E+04  0.26585751551E+04  0.25500000000E-02 0. -1.
   -5000001    1    1    2    0    0  0.14467223029E+03 -0.41768502447E+02 -0.10694746231E+04  0.11085804578E+04  0.25000000000E+03 0.  0.
    5000001    1    1    2    0    0 -0.14467223029E+03  0.41768502447E+02 -0.15559808613E+04  0.15831143682E+04  0.25000000000E+03 0.  0.
<mgrwt>
<rscale>  0 0.59346823E+03</rscale>
<asrwt>0</asrwt>
<pdfrwt beam="1">  1        2 0.50953361E-02 0.59346823E+03</pdfrwt>
<pdfrwt beam="2">  1       -2 0.40901139E+00 0.59346823E+03</pdfrwt>
<totfact> 0.11376117E+01</totfact>
</mgrwt>
</event>
<event>
 4    1  0.1720876E-005  0.1287155E+04  0.7818608E-02  0.9039814E-01
          2   -1    0    0  501    0  0.00000000000E+00  0.00000000000E+00  0.12191184758E+04  0.12191184758E+04  0.25500000000E-02 0.  1.
         -2   -1    0    0    0  501 -0.00000000000E+00 -0.00000000000E+00 -0.33974690750E+03  0.33974690751E+03  0.25500000000E-02 0. -1.
   -5000001    1    1    2    0    0 -0.14350143342E+02 -0.55837649057E+03  0.19837242589E+03  0.64330541051E+03  0.25000000000E+03 0.  0.
    5000001    1    1    2    0    0  0.14350143342E+02  0.55837649057E+03  0.68099914239E+03  0.91555997279E+03  0.25000000000E+03 0.  0.
<mgrwt>
<rscale>  0 0.12871546E+04</rscale>
<asrwt>0</asrwt>
<pdfrwt beam="1">  1        2 0.18755669E+00 0.12871546E+04</pdfrwt>
<pdfrwt beam="2">  1       -2 0.52268755E-01 0.12871546E+04</pdfrwt>
<totfact> 0.62520253E+01</totfact>
</mgrwt>
</event>
<event>
 4    1  0.1720876E-005  0.8214722E+03  0.7818608E-02  0.9529447E-01
         -2   -1    0    0    0  501 -0.00000000000E+00  0.00000000000E+00  0.13047837317E+03  0.13047837320E+03  0.25500000000E-02 0. -1.
          2   -1    0    0  501    0  0.00000000000E+00 -0.00000000000E+00 -0.12929664074E+04  0.12929664074E+04  0.25500000000E-02 0.  1.
   -5000001    1    1    2    0    0 -0.48171254297E+02  0.31708413065E+03 -0.48108087694E+03  0.62992192041E+03  0.25000000000E+03 0.  0.
    5000001    1    1    2    0    0  0.48171254297E+02 -0.31708413065E+03 -0.68140715730E+03  0.79352286020E+03  0.25000000000E+03 0.  0.
<mgrwt>
<rscale>  0 0.82147222E+03</rscale>
<asrwt>0</asrwt>
<pdfrwt beam="1">  1        2 0.19891790E+00 0.82147222E+03</pdfrwt>
<pdfrwt beam="2">  1       -2 0.20073597E-01 0.82147222E+03</pdfrwt>
<totfact> 0.35596023E+02</totfact>
</mgrwt>
</event>
<event>
 4    1  0.1720876E-005  0.9125566E+03  0.7818608E-02  0.9410020E-01
         -2   -1    0    0    0  501 -0.00000000000E+00  0.00000000000E+00  0.14859967517E+03  0.14859967519E+03  0.25500000000E-02 0. -1.
          2   -1    0    0  501    0  0.00000000000E+00 -0.00000000000E+00 -0.14010117999E+04  0.14010117999E+04  0.25500000000E-02 0.  1.
   -5000001    1    1    2    0    0  0.31853297933E+02  0.24072098676E+03 -0.11262916639E+04  0.11789801263E+04  0.25000000000E+03 0.  0.
    5000001    1    1    2    0    0 -0.31853297933E+02 -0.24072098676E+03 -0.12612046082E+03  0.37063134877E+03  0.25000000000E+03 0.  0.
<mgrwt>
<rscale>  0 0.91255662E+03</rscale>
<asrwt>0</asrwt>
<pdfrwt beam="1">  1        2 0.21554027E+00 0.91255662E+03</pdfrwt>
<pdfrwt beam="2">  1       -2 0.22861489E-01 0.91255662E+03</pdfrwt>
<totfact> 0.24393324E+02</totfact>
</mgrwt>
</event>
<event>
 4    1  0.1720876E-005  0.6565335E+03  0.7818608E-02  0.9794596E-01
         -2   -1    0    0    0  501 -0.00000000000E+00  0.00000000000E+00  0.78509629047E+02  0.78509629088E+02  0.25500000000E-02 0. -1.
          2   -1    0    0  501    0  0.00000000000E+00 -0.00000000000E+00 -0.13725585707E+04  0.13725585707E+04  0.25500000000E-02 0.  1.
   -5000001    1    1    2    0    0 -0.24782022691E+02 -0.14645869120E+03 -0.98363363385E+03  0.10257189783E+04  0.25000000000E+03 0.  0.
    5000001    1    1    2    0    0  0.24782022691E+02  0.14645869120E+03 -0.31041530781E+03  0.42534922146E+03  0.25000000000E+03 0.  0.
<mgrwt>
<rscale>  0 0.65653352E+03</rscale>
<asrwt>0</asrwt>
<pdfrwt beam="1">  1        2 0.21116284E+00 0.65653352E+03</pdfrwt>
<pdfrwt beam="2">  1       -2 0.12078406E-01 0.65653352E+03</pdfrwt>
<totfact> 0.76608792E+02</totfact>
</mgrwt>
</event>
<event>
 4    1  0.1720876E-005  0.5538113E+03  0.7818608E-02  0.1000616E+00
         -2   -1    0    0    0  501 -0.00000000000E+00  0.00000000000E+00  0.14354271976E+03  0.14354271978E+03  0.25500000000E-02 0. -1.
          2   -1    0    0  501    0  0.00000000000E+00 -0.00000000000E+00 -0.53417357897E+03  0.53417357898E+03  0.25500000000E-02 0.  1.
   -5000001    1    1    2    0    0 -0.29370266559E+02  0.96483655690E+02 -0.27275955714E+03  0.38349639422E+03  0.25000000000E+03 0.  0.
    5000001    1    1    2    0    0  0.29370266559E+02 -0.96483655690E+02 -0.11787130208E+03  0.29421990454E+03  0.25000000000E+03 0.  0.
<mgrwt>
<rscale>  0 0.55381126E+03</rscale>
<asrwt>0</asrwt>
<pdfrwt beam="1">  1        2 0.82180550E-01 0.55381126E+03</pdfrwt>
<pdfrwt beam="2">  1       -2 0.22083496E-01 0.55381126E+03</pdfrwt>
<totfact> 0.10235895E+03</totfact>
</mgrwt>
</event>
<event>
 4    1  0.1720876E-005  0.1031610E+04  0.7818608E-02  0.9274540E-01
         -2   -1    0    0    0  501 -0.00000000000E+00  0.00000000000E+00  0.78825820129E+03  0.78825820129E+03  0.25500000000E-02 0. -1.
          2   -1    0    0  501    0  0.00000000000E+00 -0.00000000000E+00 -0.33752216506E+03  0.33752216507E+03  0.25500000000E-02 0.  1.
   -5000001    1    1    2    0    0  0.33109675405E+03  0.20283650435E+03  0.47609517908E+03  0.66327545377E+03  0.25000000000E+03 0.  0.
    5000001    1    1    2    0    0 -0.33109675405E+03 -0.20283650435E+03 -0.25359142851E+02  0.46250491258E+03  0.25000000000E+03 0.  0.
<mgrwt>
<rscale>  0 0.10316096E+04</rscale>
<asrwt>0</asrwt>
<pdfrwt beam="1">  1        2 0.51926487E-01 0.10316096E+04</pdfrwt>
<pdfrwt beam="2">  1       -2 0.12127049E+00 0.10316096E+04</pdfrwt>
<totfact> 0.49596956E+01</totfact>
</mgrwt>
</event>
<event>
 4    1  0.1720876E-005  0.7234819E+03  0.7818608E-02  0.9677897E-01
         -2   -1    0    0    0  501 -0.00000000000E+00  0.00000000000E+00  0.85184823329E+02  0.85184823367E+02  0.25500000000E-02 0. -1.
          2   -1    0    0  501    0  0.00000000000E+00 -0.00000000000E+00 -0.15361484192E+04  0.15361484192E+04  0.25500000000E-02 0.  1.
   -5000001    1    1    2    0    0  0.23552805668E+03 -0.91058954122E+02 -0.87733151634E+03  0.94655997601E+03  0.25000000000E+03 0.  0.
    5000001    1    1    2    0    0 -0.23552805668E+03  0.91058954122E+02 -0.57363207957E+03  0.67477326661E+03  0.25000000000E+03 0.  0.
<mgrwt>
<rscale>  0 0.72348195E+03</rscale>
<asrwt>0</asrwt>
<pdfrwt beam="1">  1        2 0.23633051E+00 0.72348195E+03</pdfrwt>
<pdfrwt beam="2">  1       -2 0.13105359E-01 0.72348195E+03</pdfrwt>
<totfact> 0.54018498E+02</totfact>
</mgrwt>
</event>
<event>
 4    1  0.1720876E-005  0.5801029E+03  0.7818608E-02  0.9947568E-01
         -2   -1    0    0    0  501 -0.00000000000E+00  0.00000000000E+00  0.14140762601E+03  0.14140762603E+03  0.25500000000E-02 0. -1.
          2   -1    0    0  501    0  0.00000000000E+00 -0.00000000000E+00 -0.59494565745E+03  0.59494565746E+03  0.25500000000E-02 0.  1.
   -5000001    1    1    2    0    0 -0.74501682266E+02  0.51600055720E+02 -0.37379883500E+03  0.45873591037E+03  0.25000000000E+03 0.  0.
    5000001    1    1    2    0    0  0.74501682266E+02 -0.51600055720E+02 -0.79739196444E+02  0.27761737312E+03  0.25000000000E+03 0.  0.
<mgrwt>
<rscale>  0 0.58010293E+03</rscale>
<asrwt>0</asrwt>
<pdfrwt beam="1">  1        2 0.91530100E-01 0.58010293E+03</pdfrwt>
<pdfrwt beam="2">  1       -2 0.21755020E-01 0.58010293E+03</pdfrwt>
<totfact> 0.92534451E+02</totfact>
</mgrwt>
</event>
<event>
 4    1  0.1720876E-005  0.7366901E+03  0.7818608E-02  0.9656466E-01
          2   -1    0    0  501    0  0.00000000000E+00  0.00000000000E+00  0.13546420963E+04  0.13546420963E+04  0.25500000000E-02 0.  1.
         -2   -1    0    0    0  501 -0.00000000000E+00 -0.00000000000E+00 -0.10015786486E+03  0.10015786489E+03  0.25500000000E-02 0. -1.
   -5000001    1    1    2    0    0  0.21330747848E+03 -0.10123163000E+03  0.88795882721E+03  0.95221783333E+03  0.25000000000E+03 0.  0.
    5000001    1    1    2    0    0 -0.21330747848E+03  0.10123163000E+03  0.36652540419E+03  0.50258212782E+03  0.25000000000E+03 0.  0.
<mgrwt>
<rscale>  0 0.73669006E+03</rscale>
<asrwt>0</asrwt>
<pdfrwt beam="1">  1        2 0.20840648E+00 0.73669006E+03</pdfrwt>
<pdfrwt beam="2">  1       -2 0.15408902E-01 0.73669006E+03</pdfrwt>
<totfact> 0.51978423E+02</totfact>
</mgrwt>
</event>
<event>
 4    1  0.1720876E-005  0.6312718E+03  0.7818608E-02  0.9842570E-01
         -2   -1    0    0    0  501 -0.00000000000E+00  0.00000000000E+00  0.10663530105E+03  0.10663530108E+03  0.25500000000E-02 0. -1.
          2   -1    0    0  501    0  0.00000000000E+00 -0.00000000000E+00 -0.93426874029E+03  0.93426874029E+03  0.25500000000E-02 0.  1.
   -5000001    1    1    2    0    0  0.11482105710E+03  0.14202395033E+03 -0.51507784617E+03  0.60096577709E+03  0.25000000000E+03 0.  0.
    5000001    1    1    2    0    0 -0.11482105710E+03 -0.14202395033E+03 -0.31255559307E+03  0.43993826428E+03  0.25000000000E+03 0.  0.
<mgrwt>
<rscale>  0 0.63127182E+03</rscale>
<asrwt>0</asrwt>
<pdfrwt beam="1">  1        2 0.14373365E+00 0.63127182E+03</pdfrwt>
<pdfrwt beam="2">  1       -2 0.16405432E-01 0.63127182E+03</pdfrwt>
<totfact> 0.84239325E+02</totfact>
</mgrwt>
</event>
<event>
 4    1  0.1720876E-005  0.9277115E+03  0.7818608E-02  0.9391589E-01
         -2   -1    0    0    0  501 -0.00000000000E+00  0.00000000000E+00  0.33216246382E+03  0.33216246383E+03  0.25500000000E-02 0. -1.
          2   -1    0    0  501    0  0.00000000000E+00 -0.00000000000E+00 -0.64776185221E+03  0.64776185221E+03  0.25500000000E-02 0.  1.
   -5000001    1    1    2    0    0 -0.37688109996E+03  0.20537906788E+01 -0.48953554830E+02  0.45490661909E+03  0.25000000000E+03 0.  0.
    5000001    1    1    2    0    0  0.37688109996E+03 -0.20537906788E+01 -0.26664583355E+03  0.52501769695E+03  0.25000000000E+03 0.  0.
<mgrwt>
<rscale>  0 0.92771153E+03</rscale>
<asrwt>0</asrwt>
<pdfrwt beam="1">  1        2 0.99655670E-01 0.92771153E+03</pdfrwt>
<pdfrwt beam="2">  1       -2 0.51101917E-01 0.92771153E+03</pdfrwt>
<totfact> 0.16376831E+02</totfact>
</mgrwt>
</event>
<event>
 4    1  0.1720876E-005  0.6880436E+03  0.7818608E-02  0.9737900E-01
          2   -1    0    0  501    0  0.00000000000E+00  0.00000000000E+00  0.70851440361E+03  0.70851440361E+03  0.25500000000E-02 0.  1.
         -2   -1    0    0    0  501 -0.00000000000E+00 -0.00000000000E+00 -0.16704108089E+03  0.16704108091E+03  0.25500000000E-02 0. -1.
   -5000001    1    1    2    0    0 -0.15742239211E+03 -0.17499565394E+03  0.29760249967E+03  0.45439249140E+03  0.25000000000E+03 0.  0.
    5000001    1    1    2    0    0  0.15742239211E+03  0.17499565394E+03  0.24387082305E+03  0.42116299311E+03  0.25000000000E+03 0.  0.
<mgrwt>
<rscale>  0 0.68804364E+03</rscale>
<asrwt>0</asrwt>
<pdfrwt beam="1">  1        2 0.10900222E+00 0.68804364E+03</pdfrwt>
<pdfrwt beam="2">  1       -2 0.25698627E-01 0.68804364E+03</pdfrwt>
<totfact> 0.55335309E+02</totfact>
</mgrwt>
</event>
<event>
 4    1  0.1720876E-005  0.1130869E+04  0.7818608E-02  0.9175617E-01
         -2   -1    0    0    0  501 -0.00000000000E+00  0.00000000000E+00  0.39016320264E+03  0.39016320265E+03  0.25500000000E-02 0. -1.
          2   -1    0    0  501    0  0.00000000000E+00 -0.00000000000E+00 -0.81944168511E+03  0.81944168511E+03  0.25500000000E-02 0.  1.
   -5000001    1    1    2    0    0  0.38115692878E+03 -0.22331367281E+03 -0.48111616442E+03  0.69937283654E+03  0.25000000000E+03 0.  0.
    5000001    1    1    2    0    0 -0.38115692878E+03  0.22331367281E+03  0.51837681955E+02  0.51023205122E+03  0.25000000000E+03 0.  0.
<mgrwt>
<rscale>  0 0.11308687E+04</rscale>
<asrwt>0</asrwt>
<pdfrwt beam="1">  1        2 0.12606795E+00 0.11308687E+04</pdfrwt>
<pdfrwt beam="2">  1       -2 0.60025108E-01 0.11308687E+04</pdfrwt>
<totfact> 0.85565409E+01</totfact>
</mgrwt>
</event>
<event>
 4    1  0.1720876E-005  0.1111859E+04  0.7818608E-02  0.9193710E-01
          2   -1    0    0  501    0  0.00000000000E+00  0.00000000000E+00  0.10712318205E+04  0.10712318205E+04  0.25500000000E-02 0.  1.
         -2   -1    0    0    0  501 -0.00000000000E+00 -0.00000000000E+00 -0.28850680629E+03  0.28850680630E+03  0.25500000000E-02 0. -1.
   -5000001    1    1    2    0    0  0.39936235816E+03 -0.54910004460E+02  0.36810132990E+02  0.47577346248E+03  0.25000000000E+03 0.  0.
    5000001    1    1    2    0    0 -0.39936235816E+03  0.54910004460E+02  0.74591488118E+03  0.88396516429E+03  0.25000000000E+03 0.  0.
<mgrwt>
<rscale>  0 0.11118591E+04</rscale>
<asrwt>0</asrwt>
<pdfrwt beam="1">  1        2 0.16480490E+00 0.11118591E+04</pdfrwt>
<pdfrwt beam="2">  1       -2 0.44385662E-01 0.11118591E+04</pdfrwt>
<totfact> 0.10836659E+02</totfact>
</mgrwt>
</event>
<event>
 4    1  0.1720876E-005  0.2544053E+04  0.7818608E-02  0.8387457E-01
         -2   -1    0    0    0  501 -0.00000000000E+00  0.00000000000E+00  0.16708809878E+04  0.16708809878E+04  0.25500000000E-02 0. -1.
          2   -1    0    0  501    0  0.00000000000E+00 -0.00000000000E+00 -0.96838213097E+03  0.96838213097E+03  0.25500000000E-02 0.  1.
   -5000001    1    1    2    0    0  0.70416661137E+02 -0.10569733167E+04  0.10342186013E+04  0.15014190666E+04  0.25000000000E+03 0.  0.
    5000001    1    1    2    0    0 -0.70416661137E+02  0.10569733167E+04 -0.33171974440E+03  0.11378440522E+04  0.25000000000E+03 0.  0.
<mgrwt>
<rscale>  0 0.25440529E+04</rscale>
<asrwt>0</asrwt>
<pdfrwt beam="1">  1        2 0.14898187E+00 0.25440529E+04</pdfrwt>
<pdfrwt beam="2">  1       -2 0.25705861E+00 0.25440529E+04</pdfrwt>
<totfact> 0.13645538E+00</totfact>
</mgrwt>
</event>
<event>
 4    1  0.1720876E-005  0.5977989E+03  0.7818608E-02  0.9909983E-01
          2   -1    0    0  501    0  0.00000000000E+00  0.00000000000E+00  0.39483446613E+03  0.39483446614E+03  0.25500000000E-02 0.  1.
         -2   -1    0    0    0  501 -0.00000000000E+00 -0.00000000000E+00 -0.22627426633E+03  0.22627426634E+03  0.25500000000E-02 0. -1.
   -5000001    1    1    2    0    0 -0.50497375596E+02 -0.10943414906E+03  0.19958050055E+03  0.34184527805E+03  0.25000000000E+03 0.  0.
    5000001    1    1    2    0    0  0.50497375596E+02  0.10943414906E+03 -0.31020300751E+02  0.27926345443E+03  0.25000000000E+03 0.  0.
<mgrwt>
<rscale>  0 0.59779889E+03</rscale>
<asrwt>0</asrwt>
<pdfrwt beam="1">  1        2 0.60743763E-01 0.59779889E+03</pdfrwt>
<pdfrwt beam="2">  1       -2 0.34811426E-01 0.59779889E+03</pdfrwt>
<totfact> 0.62865791E+02</totfact>
</mgrwt>
</event>
<event>
 4    1  0.1720876E-005  0.6770987E+03  0.7818608E-02  0.9757218E-01
         -2   -1    0    0    0  501 -0.00000000000E+00  0.00000000000E+00  0.10973506927E+03  0.10973506930E+03  0.25500000000E-02 0. -1.
          2   -1    0    0  501    0  0.00000000000E+00 -0.00000000000E+00 -0.10444762414E+04  0.10444762414E+04  0.25500000000E-02 0.  1.
   -5000001    1    1    2    0    0 -0.12629501367E+03 -0.17346293246E+03 -0.60024365497E+03  0.68471327192E+03  0.25000000000E+03 0.  0.
    5000001    1    1    2    0    0  0.12629501367E+03  0.17346293246E+03 -0.33449751711E+03  0.46949803873E+03  0.25000000000E+03 0.  0.
<mgrwt>
<rscale>  0 0.67709873E+03</rscale>
<asrwt>0</asrwt>
<pdfrwt beam="1">  1        2 0.16068865E+00 0.67709873E+03</pdfrwt>
<pdfrwt beam="2">  1       -2 0.16882319E-01 0.67709873E+03</pdfrwt>
<totfact> 0.68112031E+02</totfact>
</mgrwt>
</event>
<event>
 4    1  0.1720876E-005  0.6688495E+03  0.7818608E-02  0.9772038E-01
         -2   -1    0    0    0  501 -0.00000000000E+00  0.00000000000E+00  0.35414700830E+03  0.35414700831E+03  0.25500000000E-02 0. -1.
          2   -1    0    0  501    0  0.00000000000E+00 -0.00000000000E+00 -0.31580081165E+03  0.31580081166E+03  0.25500000000E-02 0.  1.
   -5000001    1    1    2    0    0 -0.20210312631E+03  0.76263731327E+02  0.71008268881E+02  0.33794083007E+03  0.25000000000E+03 0.  0.
    5000001    1    1    2    0    0  0.20210312631E+03 -0.76263731327E+02 -0.32662072226E+02  0.33200698990E+03  0.25000000000E+03 0.  0.
<mgrwt>
<rscale>  0 0.66884950E+03</rscale>
<asrwt>0</asrwt>
<pdfrwt beam="1">  1        2 0.48584740E-01 0.66884950E+03</pdfrwt>
<pdfrwt beam="2">  1       -2 0.54484155E-01 0.66884950E+03</pdfrwt>
<totfact> 0.33188818E+02</totfact>
</mgrwt>
</event>
<event>
 4    1  0.1720876E-005  0.1127450E+04  0.7818608E-02  0.9178842E-01
         -2   -1    0    0    0  501 -0.00000000000E+00  0.00000000000E+00  0.13549518854E+03  0.13549518856E+03  0.25500000000E-02 0. -1.
          2   -1    0    0  501    0  0.00000000000E+00 -0.00000000000E+00 -0.23453677567E+04  0.23453677567E+04  0.25500000000E-02 0.  1.
   -5000001    1    1    2    0    0 -0.36985902983E+03 -0.26662700112E+03 -0.62586922743E+03  0.81369401468E+03  0.25000000000E+03 0.  0.
    5000001    1    1    2    0    0  0.36985902983E+03  0.26662700112E+03 -0.15840033407E+04  0.16671689306E+04  0.25000000000E+03 0.  0.
<mgrwt>
<rscale>  0 0.11274503E+04</rscale>
<asrwt>0</asrwt>
<pdfrwt beam="1">  1        2 0.36082578E+00 0.11274503E+04</pdfrwt>
<pdfrwt beam="2">  1       -2 0.20845415E-01 0.11274503E+04</pdfrwt>
<totfact> 0.84626355E+01</totfact>
</mgrwt>
</event>
<event>
 4    1  0.1720876E-005  0.2683882E+04  0.7818608E-02  0.8340254E-01
         -2   -1    0    0    0  501 -0.00000000000E+00  0.00000000000E+00  0.12277990156E+04  0.12277990156E+04  0.25500000000E-02 0. -1.
          2   -1    0    0  501    0  0.00000000000E+00 -0.00000000000E+00 -0.14666940495E+04  0.14666940495E+04  0.25500000000E-02 0.  1.
   -5000001    1    1    2    0    0  0.12097685886E+04  0.92143389550E+02 -0.63750615696E+03  0.13931778574E+04  0.25000000000E+03 0.  0.
    5000001    1    1    2    0    0 -0.12097685886E+04 -0.92143389550E+02  0.39861112311E+03  0.13013152077E+04  0.25000000000E+03 0.  0.
<mgrwt>
<rscale>  0 0.26838819E+04</rscale>
<asrwt>0</asrwt>
<pdfrwt beam="1">  1        2 0.22564524E+00 0.26838819E+04</pdfrwt>
<pdfrwt beam="2">  1       -2 0.18889216E+00 0.26838819E+04</pdfrwt>
<totfact> 0.18365986E+00</totfact>
</mgrwt>
</event>
<event>
 4    1  0.1720876E-005  0.1864895E+04  0.7818608E-02  0.8672530E-01
         -2   -1    0    0    0  501 -0.00000000000E+00  0.00000000000E+00  0.53879328077E+03  0.53879328078E+03  0.25500000000E-02 0. -1.
          2   -1    0    0  501    0  0.00000000000E+00 -0.00000000000E+00 -0.16137138820E+04  0.16137138820E+04  0.25500000000E-02 0.  1.
   -5000001    1    1    2    0    0 -0.39904314843E+03  0.46415665830E+03  0.22142040417E+03  0.69728318002E+03  0.25000000000E+03 0.  0.
    5000001    1    1    2    0    0  0.39904314843E+03 -0.46415665830E+03 -0.12963410054E+04  0.14552239828E+04  0.25000000000E+03 0.  0.
<mgrwt>
<rscale>  0 0.18648948E+04</rscale>
<asrwt>0</asrwt>
<pdfrwt beam="1">  1        2 0.24826367E+00 0.18648948E+04</pdfrwt>
<pdfrwt beam="2">  1       -2 0.82891275E-01 0.18648948E+04</pdfrwt>
<totfact> 0.13127154E+01</totfact>
</mgrwt>
</event>
<event>
 4    1  0.1720876E-005  0.8794789E+03  0.7818608E-02  0.9451604E-01
          2   -1    0    0  501    0  0.00000000000E+00  0.00000000000E+00  0.21608806975E+04  0.21608806975E+04  0.25500000000E-02 0.  1.
         -2   -1    0    0    0  501 -0.00000000000E+00 -0.00000000000E+00 -0.89487030071E+02  0.89487030108E+02  0.25500000000E-02 0. -1.
   -5000001    1    1    2    0    0 -0.19939294539E+02  0.33426059181E+03  0.68539008756E+03  0.80273737351E+03  0.25000000000E+03 0.  0.
    5000001    1    1    2    0    0  0.19939294539E+02 -0.33426059181E+03  0.13860035798E+04  0.14476303541E+04  0.25000000000E+03 0.  0.
<mgrwt>
<rscale>  0 0.87947893E+03</rscale>
<asrwt>0</asrwt>
<pdfrwt beam="1">  1        2 0.33244319E+00 0.87947893E+03</pdfrwt>
<pdfrwt beam="2">  1       -2 0.13767235E-01 0.87947893E+03</pdfrwt>
<totfact> 0.22360182E+02</totfact>
</mgrwt>
</event>
<event>
 4    1  0.1720876E-005  0.9780566E+03  0.7818608E-02  0.9332945E-01
          2   -1    0    0  501    0  0.00000000000E+00  0.00000000000E+00  0.62875536939E+03  0.62875536940E+03  0.25500000000E-02 0.  1.
         -2   -1    0    0    0  501 -0.00000000000E+00 -0.00000000000E+00 -0.38035251983E+03  0.38035251984E+03  0.25500000000E-02 0. -1.
   -5000001    1    1    2    0    0 -0.27531404355E+03 -0.31479603055E+03  0.16741584737E+03  0.51519164335E+03  0.25000000000E+03 0.  0.
    5000001    1    1    2    0    0  0.27531404355E+03  0.31479603055E+03  0.80987002194E+02  0.49391624589E+03  0.25000000000E+03 0.  0.
<mgrwt>
<rscale>  0 0.97805662E+03</rscale>
<asrwt>0</asrwt>
<pdfrwt beam="1">  1        2 0.96731594E-01 0.97805662E+03</pdfrwt>
<pdfrwt beam="2">  1       -2 0.58515773E-01 0.97805662E+03</pdfrwt>
<totfact> 0.12792095E+02</totfact>
</mgrwt>
</event>
<event>
 4    1  0.1720876E-005  0.2152991E+04  0.7818608E-02  0.8538253E-01
          2   -1    0    0  501    0  0.00000000000E+00  0.00000000000E+00  0.70026230865E+03  0.70026230866E+03  0.25500000000E-02 0.  1.
         -2   -1    0    0    0  501 -0.00000000000E+00 -0.00000000000E+00 -0.16548685826E+04  0.16548685826E+04  0.25500000000E-02 0. -1.
   -5000001    1    1    2    0    0  0.10278183844E+04  0.19926261072E+03 -0.46086294468E+03  0.11709017350E+04  0.25000000000E+03 0.  0.
    5000001    1    1    2    0    0 -0.10278183844E+04 -0.19926261072E+03 -0.49374332925E+03  0.11842291562E+04  0.25000000000E+03 0.  0.
<mgrwt>
<rscale>  0 0.21529906E+04</rscale>
<asrwt>0</asrwt>
<pdfrwt beam="1">  1        2 0.10773266E+00 0.21529906E+04</pdfrwt>
<pdfrwt beam="2">  1       -2 0.25459517E+00 0.21529906E+04</pdfrwt>
<totfact> 0.22624182E+00</totfact>
</mgrwt>
</event>
<event>
 4    1  0.1720876E-005  0.6947209E+03  0.7818608E-02  0.9726303E-01
         -2   -1    0    0    0  501 -0.00000000000E+00  0.00000000000E+00  0.15735608715E+03  0.15735608717E+03  0.25500000000E-02 0. -1.
          2   -1    0    0  501    0  0.00000000000E+00 -0.00000000000E+00 -0.76679121884E+03  0.76679121885E+03  0.25500000000E-02 0.  1.
   -5000001    1    1    2    0    0 -0.59603093796E+02  0.22809124420E+03 -0.23713493676E+03  0.41750583553E+03  0.25000000000E+03 0.  0.
    5000001    1    1    2    0    0  0.59603093796E+02 -0.22809124420E+03 -0.37230019494E+03  0.50664147049E+03  0.25000000000E+03 0.  0.
<mgrwt>
<rscale>  0 0.69472085E+03</rscale>
<asrwt>0</asrwt>
<pdfrwt beam="1">  1        2 0.11796788E+00 0.69472085E+03</pdfrwt>
<pdfrwt beam="2">  1       -2 0.24208629E-01 0.69472085E+03</pdfrwt>
<totfact> 0.55672436E+02</totfact>
</mgrwt>
</event>
<event>
 4    1  0.1720876E-005  0.8410699E+03  0.7818608E-02  0.9502402E-01
          2   -1    0    0  501    0  0.00000000000E+00  0.00000000000E+00  0.59050119430E+03  0.59050119430E+03  0.25500000000E-02 0.  1.
         -2   -1    0    0    0  501 -0.00000000000E+00 -0.00000000000E+00 -0.29949074362E+03  0.29949074363E+03  0.25500000000E-02 0. -1.
   -5000001    1    1    2    0    0  0.21151555935E+03 -0.23215187757E+03  0.12848474290E+02  0.40161973233E+03  0.25000000000E+03 0.  0.
    5000001    1    1    2    0    0 -0.21151555935E+03  0.23215187757E+03  0.27816197639E+03  0.48837220561E+03  0.25000000000E+03 0.  0.
<mgrwt>
<rscale>  0 0.84106989E+03</rscale>
<asrwt>0</asrwt>
<pdfrwt beam="1">  1        2 0.90846338E-01 0.84106989E+03</pdfrwt>
<pdfrwt beam="2">  1       -2 0.46075499E-01 0.84106989E+03</pdfrwt>
<totfact> 0.22703627E+02</totfact>
</mgrwt>
</event>
<event>
 4    1  0.1720876E-005  0.7025047E+03  0.7818608E-02  0.9712958E-01
         -2   -1    0    0    0  501 -0.00000000000E+00  0.00000000000E+00  0.59608528121E+02  0.59608528176E+02  0.25500000000E-02 0. -1.
          2   -1    0    0  501    0  0.00000000000E+00 -0.00000000000E+00 -0.20698079534E+04  0.20698079534E+04  0.25500000000E-02 0.  1.
   -5000001    1    1    2    0    0 -0.11586943131E+03  0.21778905585E+03 -0.99140640515E+03  0.10517815639E+04  0.25000000000E+03 0.  0.
    5000001    1    1    2    0    0  0.11586943131E+03 -0.21778905585E+03 -0.10187930201E+04  0.10776349177E+04  0.25000000000E+03 0.  0.
<mgrwt>
<rscale>  0 0.70250468E+03</rscale>
<asrwt>0</asrwt>
<pdfrwt beam="1">  1        2 0.31843194E+00 0.70250468E+03</pdfrwt>
<pdfrwt beam="2">  1       -2 0.91705444E-02 0.70250468E+03</pdfrwt>
<totfact> 0.49651124E+02</totfact>
</mgrwt>
</event>
<event>
 4    1  0.1720876E-005  0.7427482E+03  0.7818608E-02  0.9646796E-01
         -2   -1    0    0    0  501 -0.00000000000E+00  0.00000000000E+00  0.51264387540E+03  0.51264387540E+03  0.25500000000E-02 0. -1.
          2   -1    0    0  501    0  0.00000000000E+00 -0.00000000000E+00 -0.26903417259E+03  0.26903417260E+03  0.25500000000E-02 0.  1.
   -5000001    1    1    2    0    0 -0.81343970845E+02  0.17311114005E+03 -0.85588428156E+02  0.32620497764E+03  0.25000000000E+03 0.  0.
    5000001    1    1    2    0    0  0.81343970845E+02 -0.17311114005E+03  0.32919813096E+03  0.45547307037E+03  0.25000000000E+03 0.  0.
<mgrwt>
<rscale>  0 0.74274820E+03</rscale>
<asrwt>0</asrwt>
<pdfrwt beam="1">  1        2 0.41389873E-01 0.74274820E+03</pdfrwt>
<pdfrwt beam="2">  1       -2 0.78868288E-01 0.74274820E+03</pdfrwt>
<totfact> 0.17856814E+02</totfact>
</mgrwt>
</event>
<event>
 4    1  0.1720876E-005  0.6468846E+03  0.7818608E-02  0.9812643E-01
          2   -1    0    0  501    0  0.00000000000E+00  0.00000000000E+00  0.95398995528E+03  0.95398995528E+03  0.25500000000E-02 0.  1.
         -2   -1    0    0    0  501 -0.00000000000E+00 -0.00000000000E+00 -0.10966039640E+03  0.10966039643E+03  0.25500000000E-02 0. -1.
   -5000001    1    1    2    0    0  0.19546324053E+03  0.36981308972E+02  0.33927320321E+03  0.46602553796E+03  0.25000000000E+03 0.  0.
    5000001    1    1    2    0    0 -0.19546324053E+03 -0.36981308972E+02  0.50505635567E+03  0.59762481375E+03  0.25000000000E+03 0.  0.
<mgrwt>
<rscale>  0 0.64688459E+03</rscale>
<asrwt>0</asrwt>
<pdfrwt beam="1">  1        2 0.14676769E+00 0.64688459E+03</pdfrwt>
<pdfrwt beam="2">  1       -2 0.16870830E-01 0.64688459E+03</pdfrwt>
<totfact> 0.77931508E+02</totfact>
</mgrwt>
</event>
<event>
 4    1  0.1720876E-005  0.5462819E+03  0.7818608E-02  0.1002358E+00
          2   -1    0    0  501    0  0.00000000000E+00  0.00000000000E+00  0.10921368481E+04  0.10921368481E+04  0.25500000000E-02 0.  1.
         -2   -1    0    0    0  501 -0.00000000000E+00 -0.00000000000E+00 -0.68311936484E+02  0.68311936532E+02  0.25500000000E-02 0. -1.
   -5000001    1    1    2    0    0  0.80874794838E+02 -0.12660933079E+02  0.66808513066E+03  0.71801028787E+03  0.25000000000E+03 0.  0.
    5000001    1    1    2    0    0 -0.80874794838E+02  0.12660933079E+02  0.35573978092E+03  0.44243849674E+03  0.25000000000E+03 0.  0.
<mgrwt>
<rscale>  0 0.54628192E+03</rscale>
<asrwt>0</asrwt>
<pdfrwt beam="1">  1        2 0.16802105E+00 0.54628192E+03</pdfrwt>
<pdfrwt beam="2">  1       -2 0.10509529E-01 0.54628192E+03</pdfrwt>
<totfact> 0.14076751E+03</totfact>
</mgrwt>
</event>
<event>
 4    1  0.1720876E-005  0.5314017E+03  0.7818608E-02  0.1005893E+00
          2   -1    0    0  501    0  0.00000000000E+00  0.00000000000E+00  0.14164443767E+04  0.14164443767E+04  0.25500000000E-02 0.  1.
         -2   -1    0    0    0  501 -0.00000000000E+00 -0.00000000000E+00 -0.49840951329E+02  0.49840951394E+02  0.25500000000E-02 0. -1.
   -5000001    1    1    2    0    0  0.83976736487E+02 -0.22844678027E+02  0.62020142454E+03  0.67433209815E+03  0.25000000000E+03 0.  0.
    5000001    1    1    2    0    0 -0.83976736487E+02  0.22844678027E+02  0.74640200079E+03  0.79195322991E+03  0.25000000000E+03 0.  0.
<mgrwt>
<rscale>  0 0.53140168E+03</rscale>
<asrwt>0</asrwt>
<pdfrwt beam="1">  1        2 0.21791447E+00 0.53140168E+03</pdfrwt>
<pdfrwt beam="2">  1       -2 0.76678404E-02 0.53140168E+03</pdfrwt>
<totfact> 0.15167967E+03</totfact>
</mgrwt>
</event>
<event>
 4    1  0.1720876E-005  0.9810499E+03  0.7818608E-02  0.9329577E-01
          2   -1    0    0  501    0  0.00000000000E+00  0.00000000000E+00  0.97384396118E+03  0.97384396118E+03  0.25500000000E-02 0.  1.
         -2   -1    0    0    0  501 -0.00000000000E+00 -0.00000000000E+00 -0.24707731128E+03  0.24707731130E+03  0.25500000000E-02 0. -1.
   -5000001    1    1    2    0    0  0.31590512238E+03 -0.20324600193E+03  0.60280016870E+03  0.75297611319E+03  0.25000000000E+03 0.  0.
    5000001    1    1    2    0    0 -0.31590512238E+03  0.20324600193E+03  0.12396648120E+03  0.46794515929E+03  0.25000000000E+03 0.  0.
<mgrwt>
<rscale>  0 0.98104994E+03</rscale>
<asrwt>0</asrwt>
<pdfrwt beam="1">  1        2 0.14982215E+00 0.98104994E+03</pdfrwt>
<pdfrwt beam="2">  1       -2 0.38011895E-01 0.98104994E+03</pdfrwt>
<totfact> 0.17080802E+02</totfact>
</mgrwt>
</event>
<event>
 4    1  0.1720876E-005  0.1100172E+04  0.7818608E-02  0.9205024E-01
         -2   -1    0    0    0  501 -0.00000000000E+00  0.00000000000E+00  0.18693492935E+03  0.18693492937E+03  0.25500000000E-02 0. -1.
          2   -1    0    0  501    0  0.00000000000E+00 -0.00000000000E+00 -0.16187157394E+04  0.16187157394E+04  0.25500000000E-02 0.  1.
   -5000001    1    1    2    0    0 -0.44904061740E+03 -0.79156580066E+02 -0.42141957302E+03  0.66932630067E+03  0.25000000000E+03 0.  0.
    5000001    1    1    2    0    0  0.44904061740E+03  0.79156580066E+02 -0.10103612370E+04  0.11363243681E+04  0.25000000000E+03 0.  0.
<mgrwt>
<rscale>  0 0.11001718E+04</rscale>
<asrwt>0</asrwt>
<pdfrwt beam="1">  1        2 0.24903318E+00 0.11001718E+04</pdfrwt>
<pdfrwt beam="2">  1       -2 0.28759221E-01 0.11001718E+04</pdfrwt>
<totfact> 0.11985589E+02</totfact>
</mgrwt>
</event>
<event>
 4    1  0.1720876E-005  0.1083647E+04  0.7818608E-02  0.9221278E-01
         -2   -1    0    0    0  501 -0.00000000000E+00  0.00000000000E+00  0.14202075565E+03  0.14202075568E+03  0.25500000000E-02 0. -1.
          2   -1    0    0  501    0  0.00000000000E+00 -0.00000000000E+00 -0.20671128363E+04  0.20671128363E+04  0.25500000000E-02 0.  1.
   -5000001    1    1    2    0    0  0.21973488657E+03  0.38214415347E+03 -0.13533817879E+04  0.14451504552E+04  0.25000000000E+03 0.  0.
    5000001    1    1    2    0    0 -0.21973488657E+03 -0.38214415347E+03 -0.57171029274E+03  0.76398313675E+03  0.25000000000E+03 0.  0.
<mgrwt>
<rscale>  0 0.10836474E+04</rscale>
<asrwt>0</asrwt>
<pdfrwt beam="1">  1        2 0.31801734E+00 0.10836474E+04</pdfrwt>
<pdfrwt beam="2">  1       -2 0.21849349E-01 0.10836474E+04</pdfrwt>
<totfact> 0.11169035E+02</totfact>
</mgrwt>
</event>
<event>
 4    1  0.1720876E-005  0.5660558E+03  0.7818608E-02  0.9978445E-01
         -2   -1    0    0    0  501 -0.00000000000E+00  0.00000000000E+00  0.43624888892E+02  0.43624888967E+02  0.25500000000E-02 0. -1.
          2   -1    0    0  501    0  0.00000000000E+00 -0.00000000000E+00 -0.18362178293E+04  0.18362178293E+04  0.25500000000E-02 0.  1.
   -5000001    1    1    2    0    0 -0.28990540697E+02 -0.12687326732E+03 -0.98209796693E+03  0.10217405219E+04  0.25000000000E+03 0.  0.
    5000001    1    1    2    0    0  0.28990540697E+02  0.12687326732E+03 -0.81049497349E+03  0.85810219639E+03  0.25000000000E+03 0.  0.
<mgrwt>
<rscale>  0 0.56605582E+03</rscale>
<asrwt>0</asrwt>
<pdfrwt beam="1">  1        2 0.28249499E+00 0.56605582E+03</pdfrwt>
<pdfrwt beam="2">  1       -2 0.67115228E-02 0.56605582E+03</pdfrwt>
<totfact> 0.11033935E+03</totfact>
</mgrwt>
</event>
<event>
 4    1  0.1720876E-005  0.6933403E+03  0.7818608E-02  0.9728689E-01
          2   -1    0    0  501    0  0.00000000000E+00  0.00000000000E+00  0.86989339151E+03  0.86989339152E+03  0.25500000000E-02 0.  1.
         -2   -1    0    0    0  501 -0.00000000000E+00 -0.00000000000E+00 -0.13815506737E+03  0.13815506739E+03  0.25500000000E-02 0. -1.
   -5000001    1    1    2    0    0 -0.99739967203E+01  0.16777805948E+03  0.61529367819E+03  0.68508048306E+03  0.25000000000E+03 0.  0.
    5000001    1    1    2    0    0  0.99739967203E+01 -0.16777805948E+03  0.11644464596E+03  0.32296797585E+03  0.25000000000E+03 0.  0.
<mgrwt>
<rscale>  0 0.69334026E+03</rscale>
<asrwt>0</asrwt>
<pdfrwt beam="1">  1        2 0.13382975E+00 0.69334026E+03</pdfrwt>
<pdfrwt beam="2">  1       -2 0.21254626E-01 0.69334026E+03</pdfrwt>
<totfact> 0.59298774E+02</totfact>
</mgrwt>
</event>
<event>
 4    1  0.1720876E-005  0.9773818E+03  0.7818608E-02  0.9333706E-01
         -2   -1    0    0    0  501 -0.00000000000E+00  0.00000000000E+00  0.12181353452E+03  0.12181353454E+03  0.25500000000E-02 0. -1.
          2   -1    0    0  501    0  0.00000000000E+00 -0.00000000000E+00 -0.19605274082E+04  0.19605274082E+04  0.25500000000E-02 0.  1.
   -5000001    1    1    2    0    0  0.28296752517E+03  0.30990163144E+03 -0.95016734926E+03  0.10683761665E+04  0.25000000000E+03 0.  0.
    5000001    1    1    2    0    0 -0.28296752517E+03 -0.30990163144E+03 -0.88854652446E+03  0.10139647763E+04  0.25000000000E+03 0.  0.
<mgrwt>
<rscale>  0 0.97738175E+03</rscale>
<asrwt>0</asrwt>
<pdfrwt beam="1">  1        2 0.30161958E+00 0.97738175E+03</pdfrwt>
<pdfrwt beam="2">  1       -2 0.18740545E-01 0.97738175E+03</pdfrwt>
<totfact> 0.16887453E+02</totfact>
</mgrwt>
</event>
<event>
 4    1  0.1720876E-005  0.7180390E+03  0.7818608E-02  0.9686871E-01
         -2   -1    0    0    0  501 -0.00000000000E+00  0.00000000000E+00  0.15780513366E+03  0.15780513368E+03  0.25500000000E-02 0. -1.
          2   -1    0    0  501    0  0.00000000000E+00 -0.00000000000E+00 -0.81679848066E+03  0.81679848067E+03  0.25500000000E-02 0.  1.
   -5000001    1    1    2    0    0 -0.57893517750E+02  0.12942161664E+03 -0.37458623962E+02  0.28983575135E+03  0.25000000000E+03 0.  0.
    5000001    1    1    2    0    0  0.57893517750E+02 -0.12942161664E+03 -0.62153472304E+03  0.68476786300E+03  0.25000000000E+03 0.  0.
<mgrwt>
<rscale>  0 0.71803898E+03</rscale>
<asrwt>0</asrwt>
<pdfrwt beam="1">  1        2 0.12566130E+00 0.71803898E+03</pdfrwt>
<pdfrwt beam="2">  1       -2 0.24277713E-01 0.71803898E+03</pdfrwt>
<totfact> 0.50927741E+02</totfact>
</mgrwt>
</event>
<event>
 4    1  0.1720876E-005  0.1763696E+04  0.7818608E-02  0.8725847E-01
          2   -1    0    0  501    0  0.00000000000E+00  0.00000000000E+00  0.11135063939E+04  0.11135063939E+04  0.25500000000E-02 0.  1.
         -2   -1    0    0    0  501 -0.00000000000E+00 -0.00000000000E+00 -0.69838472378E+03  0.69838472378E+03  0.25500000000E-02 0. -1.
   -5000001    1    1    2    0    0  0.79780974774E+03 -0.27468547769E+03  0.14941607531E+03  0.89262403553E+03  0.25000000000E+03 0.  0.
    5000001    1    1    2    0    0 -0.79780974774E+03  0.27468547769E+03  0.26570559484E+03  0.91926708218E+03  0.25000000000E+03 0.  0.
<mgrwt>
<rscale>  0 0.17636960E+04</rscale>
<asrwt>0</asrwt>
<pdfrwt beam="1">  1        2 0.17130867E+00 0.17636960E+04</pdfrwt>
<pdfrwt beam="2">  1       -2 0.10744381E+00 0.17636960E+04</pdfrwt>
<totfact> 0.14075303E+01</totfact>
</mgrwt>
</event>
<event>
 4    1  0.1720876E-005  0.6800445E+03  0.7818608E-02  0.9751981E-01
         -2   -1    0    0    0  501 -0.00000000000E+00  0.00000000000E+00  0.17868372864E+03  0.17868372866E+03  0.25500000000E-02 0. -1.
          2   -1    0    0  501    0  0.00000000000E+00 -0.00000000000E+00 -0.64703787538E+03  0.64703787538E+03  0.25500000000E-02 0.  1.
   -5000001    1    1    2    0    0 -0.18179203128E+03 -0.13222359492E+03 -0.17245807189E+03  0.37785342164E+03  0.25000000000E+03 0.  0.
    5000001    1    1    2    0    0  0.18179203128E+03  0.13222359492E+03 -0.29589607485E+03  0.44786818239E+03  0.25000000000E+03 0.  0.
<mgrwt>
<rscale>  0 0.68004453E+03</rscale>
<asrwt>0</asrwt>
<pdfrwt beam="1">  1        2 0.99544287E-01 0.68004453E+03</pdfrwt>
<pdfrwt beam="2">  1       -2 0.27489805E-01 0.68004453E+03</pdfrwt>
<totfact> 0.54829744E+02</totfact>
</mgrwt>
</event>
<event>
 4    1  0.1720876E-005  0.9293780E+03  0.7818608E-02  0.9389585E-01
          2   -1    0    0  501    0  0.00000000000E+00  0.00000000000E+00  0.13325801753E+04  0.13325801754E+04  0.25500000000E-02 0.  1.
         -2   -1    0    0    0  501 -0.00000000000E+00 -0.00000000000E+00 -0.16204343777E+03  0.16204343779E+03  0.25500000000E-02 0. -1.
   -5000001    1    1    2    0    0 -0.32405280981E+03  0.16279575587E+03  0.34715086025E+03  0.56082653419E+03  0.25000000000E+03 0.  0.
    5000001    1    1    2    0    0  0.32405280981E+03 -0.16279575587E+03  0.82338587733E+03  0.93379707895E+03  0.25000000000E+03 0.  0.
<mgrwt>
<rscale>  0 0.92937801E+03</rscale>
<asrwt>0</asrwt>
<pdfrwt beam="1">  1        2 0.20501232E+00 0.92937801E+03</pdfrwt>
<pdfrwt beam="2">  1       -2 0.24929761E-01 0.92937801E+03</pdfrwt>
<totfact> 0.22825093E+02</totfact>
</mgrwt>
</event>
<event>
 4    1  0.1720876E-005  0.7593128E+03  0.7818608E-02  0.9620852E-01
          2   -1    0    0  501    0  0.00000000000E+00  0.00000000000E+00  0.52851165985E+03  0.52851165986E+03  0.25500000000E-02 0.  1.
         -2   -1    0    0    0  501 -0.00000000000E+00 -0.00000000000E+00 -0.27272618989E+03  0.27272618990E+03  0.25500000000E-02 0. -1.
   -5000001    1    1    2    0    0  0.28396378624E+03  0.25204389090E+02  0.10764256139E+03  0.39415430246E+03  0.25000000000E+03 0.  0.
    5000001    1    1    2    0    0 -0.28396378624E+03 -0.25204389090E+02  0.14814290858E+03  0.40708354730E+03  0.25000000000E+03 0.  0.
<mgrwt>
<rscale>  0 0.75931277E+03</rscale>
<asrwt>0</asrwt>
<pdfrwt beam="1">  1        2 0.81309486E-01 0.75931277E+03</pdfrwt>
<pdfrwt beam="2">  1       -2 0.41957875E-01 0.75931277E+03</pdfrwt>
<totfact> 0.31290823E+02</totfact>
</mgrwt>
</event>
<event>
 4    1  0.1720876E-005  0.5198051E+03  0.7818608E-02  0.1008735E+00
         -2   -1    0    0    0  501 -0.00000000000E+00  0.00000000000E+00  0.54097699923E+02  0.54097699983E+02  0.25500000000E-02 0. -1.
          2   -1    0    0  501    0  0.00000000000E+00 -0.00000000000E+00 -0.12486544758E+04  0.12486544758E+04  0.25500000000E-02 0.  1.
   -5000001    1    1    2    0    0  0.14898666162E+02  0.68180141070E+02 -0.56376290691E+03  0.62064411469E+03  0.25000000000E+03 0.  0.
    5000001    1    1    2    0    0 -0.14898666162E+02 -0.68180141070E+02 -0.63079386898E+03  0.68210806111E+03  0.25000000000E+03 0.  0.
<mgrwt>
<rscale>  0 0.51980510E+03</rscale>
<asrwt>0</asrwt>
<pdfrwt beam="1">  1        2 0.19210067E+00 0.51980510E+03</pdfrwt>
<pdfrwt beam="2">  1       -2 0.83227240E-02 0.51980510E+03</pdfrwt>
<totfact> 0.16573075E+03</totfact>
</mgrwt>
</event>
<event>
 4    1  0.1720876E-005  0.6565357E+03  0.7818608E-02  0.9794592E-01
          2   -1    0    0  501    0  0.00000000000E+00  0.00000000000E+00  0.57789119163E+03  0.57789119164E+03  0.25500000000E-02 0.  1.
         -2   -1    0    0    0  501 -0.00000000000E+00 -0.00000000000E+00 -0.18647071566E+03  0.18647071568E+03  0.25500000000E-02 0. -1.
   -5000001    1    1    2    0    0  0.17626837034E+03 -0.11866798874E+03  0.18365862467E+03  0.37600946843E+03  0.25000000000E+03 0.  0.
    5000001    1    1    2    0    0 -0.17626837034E+03  0.11866798874E+03  0.20776185130E+03  0.38835243889E+03  0.25000000000E+03 0.  0.
<mgrwt>
<rscale>  0 0.65653571E+03</rscale>
<asrwt>0</asrwt>
<pdfrwt beam="1">  1        2 0.88906334E-01 0.65653571E+03</pdfrwt>
<pdfrwt beam="2">  1       -2 0.28687803E-01 0.65653571E+03</pdfrwt>
<totfact> 0.58165849E+02</totfact>
</mgrwt>
</event>
<event>
 4    1  0.1720876E-005  0.1229622E+04  0.7818608E-02  0.9087316E-01
         -2   -1    0    0    0  501 -0.00000000000E+00  0.00000000000E+00  0.89851303316E+03  0.89851303316E+03  0.25500000000E-02 0. -1.
          2   -1    0    0  501    0  0.00000000000E+00 -0.00000000000E+00 -0.42068690952E+03  0.42068690953E+03  0.25500000000E-02 0.  1.
   -5000001    1    1    2    0    0 -0.55352691384E+03  0.92592880237E+02  0.26354624710E+03  0.66852233334E+03  0.25000000000E+03 0.  0.
    5000001    1    1    2    0    0  0.55352691384E+03 -0.92592880237E+02  0.21427987654E+03  0.65067760935E+03  0.25000000000E+03 0.  0.
<mgrwt>
<rscale>  0 0.12296222E+04</rscale>
<asrwt>0</asrwt>
<pdfrwt beam="1">  1        2 0.64721064E-01 0.12296222E+04</pdfrwt>
<pdfrwt beam="2">  1       -2 0.13823277E+00 0.12296222E+04</pdfrwt>
<totfact> 0.27433212E+01</totfact>
</mgrwt>
</event>
<event>
 4    1  0.1720876E-005  0.6890845E+03  0.7818608E-02  0.9736083E-01
         -2   -1    0    0    0  501 -0.00000000000E+00  0.00000000000E+00  0.20975622743E+03  0.20975622745E+03  0.25500000000E-02 0. -1.
          2   -1    0    0  501    0  0.00000000000E+00 -0.00000000000E+00 -0.56593967259E+03  0.56593967260E+03  0.25500000000E-02 0.  1.
   -5000001    1    1    2    0    0  0.23430160444E+03 -0.22913820859E+02 -0.20967302227E+03  0.40234942686E+03  0.25000000000E+03 0.  0.
    5000001    1    1    2    0    0 -0.23430160444E+03  0.22913820859E+02 -0.14651042290E+03  0.37334647319E+03  0.25000000000E+03 0.  0.
<mgrwt>
<rscale>  0 0.68908453E+03</rscale>
<asrwt>0</asrwt>
<pdfrwt beam="1">  1        2 0.87067642E-01 0.68908453E+03</pdfrwt>
<pdfrwt beam="2">  1       -2 0.32270189E-01 0.68908453E+03</pdfrwt>
<totfact> 0.47885805E+02</totfact>
</mgrwt>
</event>
<event>
 4    1  0.1720876E-005  0.7221197E+03  0.7818608E-02  0.9680135E-01
         -2   -1    0    0    0  501 -0.00000000000E+00  0.00000000000E+00  0.65442477486E+03  0.65442477487E+03  0.25500000000E-02 0. -1.
          2   -1    0    0  501    0  0.00000000000E+00 -0.00000000000E+00 -0.19920425811E+03  0.19920425813E+03  0.25500000000E-02 0.  1.
   -5000001    1    1    2    0    0 -0.42701019384E+02 -0.24252509336E+03  0.32807204332E+03  0.48038845071E+03  0.25000000000E+03 0.  0.
    5000001    1    1    2    0    0  0.42701019384E+02  0.24252509336E+03  0.12714847343E+03  0.37324058228E+03  0.25000000000E+03 0.  0.
<mgrwt>
<rscale>  0 0.72211966E+03</rscale>
<asrwt>0</asrwt>
<pdfrwt beam="1">  1        2 0.30646809E-01 0.72211966E+03</pdfrwt>
<pdfrwt beam="2">  1       -2 0.10068073E+00 0.72211966E+03</pdfrwt>
<totfact> 0.14257854E+02</totfact>
</mgrwt>
</event>
<event>
 4    1  0.1720876E-005  0.1317444E+04  0.7818608E-02  0.9015845E-01
          2   -1    0    0  501    0  0.00000000000E+00  0.00000000000E+00  0.25115968763E+04  0.25115968763E+04  0.25500000000E-02 0.  1.
         -2   -1    0    0    0  501 -0.00000000000E+00 -0.00000000000E+00 -0.17276455324E+03  0.17276455326E+03  0.25500000000E-02 0. -1.
   -5000001    1    1    2    0    0  0.58910852009E+02  0.53795041222E+03  0.17404899727E+04  0.18397463085E+04  0.25000000000E+03 0.  0.
    5000001    1    1    2    0    0 -0.58910852009E+02 -0.53795041222E+03  0.59834235030E+03  0.84461512102E+03  0.25000000000E+03 0.  0.
<mgrwt>
<rscale>  0 0.13174444E+04</rscale>
<asrwt>0</asrwt>
<pdfrwt beam="1">  1        2 0.38639951E+00 0.13174444E+04</pdfrwt>
<pdfrwt beam="2">  1       -2 0.26579163E-01 0.13174444E+04</pdfrwt>
<totfact> 0.43252794E+01</totfact>
</mgrwt>
</event>
<event>
 4    1  0.1720876E-005  0.1226954E+04  0.7818608E-02  0.9089586E-01
         -2   -1    0    0    0  501 -0.00000000000E+00  0.00000000000E+00  0.58026165836E+03  0.58026165836E+03  0.25500000000E-02 0. -1.
          2   -1    0    0  501    0  0.00000000000E+00 -0.00000000000E+00 -0.64859344784E+03  0.64859344785E+03  0.25500000000E-02 0.  1.
   -5000001    1    1    2    0    0 -0.55912385080E+03 -0.19463342910E+02 -0.63461989669E+02  0.61605659349E+03  0.25000000000E+03 0.  0.
    5000001    1    1    2    0    0  0.55912385080E+03  0.19463342910E+02 -0.48697998187E+01  0.61279851272E+03  0.25000000000E+03 0.  0.
<mgrwt>
<rscale>  0 0.12269538E+04</rscale>
<asrwt>0</asrwt>
<pdfrwt beam="1">  1        2 0.99783608E-01 0.12269538E+04</pdfrwt>
<pdfrwt beam="2">  1       -2 0.89271024E-01 0.12269538E+04</pdfrwt>
<totfact> 0.47839811E+01</totfact>
</mgrwt>
</event>
<event>
 4    1  0.1720876E-005  0.6229932E+03  0.7818608E-02  0.9858818E-01
         -2   -1    0    0    0  501 -0.00000000000E+00  0.00000000000E+00  0.20674246092E+03  0.20674246094E+03  0.25500000000E-02 0. -1.
          2   -1    0    0  501    0  0.00000000000E+00 -0.00000000000E+00 -0.46932846658E+03  0.46932846659E+03  0.25500000000E-02 0.  1.
   -5000001    1    1    2    0    0  0.11808246250E+03  0.13706769325E+03 -0.85263441992E+02  0.32015757842E+03  0.25000000000E+03 0.  0.
    5000001    1    1    2    0    0 -0.11808246250E+03 -0.13706769325E+03 -0.17732256367E+03  0.35591334910E+03  0.25000000000E+03 0.  0.
<mgrwt>
<rscale>  0 0.62299317E+03</rscale>
<asrwt>0</asrwt>
<pdfrwt beam="1">  1        2 0.72204379E-01 0.62299317E+03</pdfrwt>
<pdfrwt beam="2">  1       -2 0.31806533E-01 0.62299317E+03</pdfrwt>
<totfact> 0.61266221E+02</totfact>
</mgrwt>
</event>
<event>
 4    1  0.1720876E-005  0.1637380E+04  0.7818608E-02  0.8797908E-01
         -2   -1    0    0    0  501 -0.00000000000E+00  0.00000000000E+00  0.25834414801E+03  0.25834414802E+03  0.25500000000E-02 0. -1.
          2   -1    0    0  501    0  0.00000000000E+00 -0.00000000000E+00 -0.25944195027E+04  0.25944195027E+04  0.25500000000E-02 0.  1.
   -5000001    1    1    2    0    0 -0.55299585494E+03 -0.36003547088E+03 -0.18912872440E+04  0.20186375096E+04  0.25000000000E+03 0.  0.
    5000001    1    1    2    0    0  0.55299585494E+03  0.36003547088E+03 -0.44478811066E+03  0.83412614109E+03  0.25000000000E+03 0.  0.
<mgrwt>
<rscale>  0 0.16373797E+04</rscale>
<asrwt>0</asrwt>
<pdfrwt beam="1">  1        2 0.39914144E+00 0.16373797E+04</pdfrwt>
<pdfrwt beam="2">  1       -2 0.39745255E-01 0.16373797E+04</pdfrwt>
<totfact> 0.17602449E+01</totfact>
</mgrwt>
</event>
<event>
 4    1  0.1720876E-005  0.5658065E+03  0.7818608E-02  0.9979001E-01
         -2   -1    0    0    0  501 -0.00000000000E+00  0.00000000000E+00  0.88704425310E+02  0.88704425347E+02  0.25500000000E-02 0. -1.
          2   -1    0    0  501    0  0.00000000000E+00 -0.00000000000E+00 -0.90225757254E+03  0.90225757254E+03  0.25500000000E-02 0.  1.
   -5000001    1    1    2    0    0 -0.61369237764E+02  0.96237079905E+02 -0.28920350715E+03  0.39895667364E+03  0.25000000000E+03 0.  0.
    5000001    1    1    2    0    0  0.61369237764E+02 -0.96237079905E+02 -0.52434964008E+03  0.59200532425E+03  0.25000000000E+03 0.  0.
<mgrwt>
<rscale>  0 0.56580647E+03</rscale>
<asrwt>0</asrwt>
<pdfrwt beam="1">  1        2 0.13880885E+00 0.56580647E+03</pdfrwt>
<pdfrwt beam="2">  1       -2 0.13646835E-01 0.56580647E+03</pdfrwt>
<totfact> 0.12078465E+03</totfact>
</mgrwt>
</event>
<event>
 4    1  0.1720876E-005  0.7481746E+03  0.7818608E-02  0.9638219E-01
          2   -1    0    0  501    0  0.00000000000E+00  0.00000000000E+00  0.79388744094E+03  0.79388744094E+03  0.25500000000E-02 0.  1.
         -2   -1    0    0    0  501 -0.00000000000E+00 -0.00000000000E+00 -0.17627347048E+03  0.17627347050E+03  0.25500000000E-02 0. -1.
   -5000001    1    1    2    0    0  0.14433194839E+03  0.19028077365E+03  0.12358785995E+03  0.36716814033E+03  0.25000000000E+03 0.  0.
    5000001    1    1    2    0    0 -0.14433194839E+03 -0.19028077365E+03  0.49402611051E+03  0.60299277111E+03  0.25000000000E+03 0.  0.
<mgrwt>
<rscale>  0 0.74817456E+03</rscale>
<asrwt>0</asrwt>
<pdfrwt beam="1">  1        2 0.12213653E+00 0.74817456E+03</pdfrwt>
<pdfrwt beam="2">  1       -2 0.27118995E-01 0.74817456E+03</pdfrwt>
<totfact> 0.43239426E+02</totfact>
</mgrwt>
</event>
<event>
 4    1  0.1720876E-005  0.1010645E+04  0.7818608E-02  0.9296946E-01
          2   -1    0    0  501    0  0.00000000000E+00  0.00000000000E+00  0.49565442071E+03  0.49565442071E+03  0.25500000000E-02 0.  1.
         -2   -1    0    0    0  501 -0.00000000000E+00 -0.00000000000E+00 -0.51517951883E+03  0.51517951883E+03  0.25500000000E-02 0. -1.
   -5000001    1    1    2    0    0 -0.86932481519E+02  0.43006057021E+03 -0.28249925891E+02  0.50577406883E+03  0.25000000000E+03 0.  0.
    5000001    1    1    2    0    0  0.86932481519E+02 -0.43006057021E+03  0.87248277711E+01  0.50505987072E+03  0.25000000000E+03 0.  0.
<mgrwt>
<rscale>  0 0.10106454E+04</rscale>
<asrwt>0</asrwt>
<pdfrwt beam="1">  1        2 0.76254526E-01 0.10106454E+04</pdfrwt>
<pdfrwt beam="2">  1       -2 0.79258388E-01 0.10106454E+04</pdfrwt>
<totfact> 0.87685520E+01</totfact>
</mgrwt>
</event>
<event>
 4    1  0.1720876E-005  0.7523317E+03  0.7818608E-02  0.9631699E-01
          2   -1    0    0  501    0  0.00000000000E+00  0.00000000000E+00  0.81629786325E+03  0.81629786326E+03  0.25500000000E-02 0.  1.
         -2   -1    0    0    0  501 -0.00000000000E+00 -0.00000000000E+00 -0.17334448869E+03  0.17334448870E+03  0.25500000000E-02 0. -1.
   -5000001    1    1    2    0    0 -0.12375957802E+03 -0.19386234576E+03  0.53399838212E+03  0.63289281428E+03  0.25000000000E+03 0.  0.
    5000001    1    1    2    0    0  0.12375957802E+03  0.19386234576E+03  0.10895499245E+03  0.35674953768E+03  0.25000000000E+03 0.  0.
<mgrwt>
<rscale>  0 0.75233167E+03</rscale>
<asrwt>0</asrwt>
<pdfrwt beam="1">  1        2 0.12558429E+00 0.75233167E+03</pdfrwt>
<pdfrwt beam="2">  1       -2 0.26668383E-01 0.75233167E+03</pdfrwt>
<totfact> 0.42955937E+02</totfact>
</mgrwt>
</event>
<event>
 4    1  0.1720876E-005  0.8743362E+03  0.7818608E-02  0.9458244E-01
         -2   -1    0    0    0  501 -0.00000000000E+00  0.00000000000E+00  0.33150844253E+03  0.33150844254E+03  0.25500000000E-02 0. -1.
          2   -1    0    0  501    0  0.00000000000E+00 -0.00000000000E+00 -0.57650398271E+03  0.57650398272E+03  0.25500000000E-02 0.  1.
   -5000001    1    1    2    0    0  0.76437271472E+02  0.28231454928E+03 -0.33802876528E+03  0.51215974789E+03  0.25000000000E+03 0.  0.
    5000001    1    1    2    0    0 -0.76437271472E+02 -0.28231454928E+03  0.93033225089E+02  0.39585267736E+03  0.25000000000E+03 0.  0.
<mgrwt>
<rscale>  0 0.87433618E+03</rscale>
<asrwt>0</asrwt>
<pdfrwt beam="1">  1        2 0.88692920E-01 0.87433618E+03</pdfrwt>
<pdfrwt beam="2">  1       -2 0.51001299E-01 0.87433618E+03</pdfrwt>
<totfact> 0.18996482E+02</totfact>
</mgrwt>
</event>
<event>
 4    1  0.1720876E-005  0.7204105E+03  0.7818608E-02  0.9682950E-01
         -2   -1    0    0    0  501 -0.00000000000E+00  0.00000000000E+00  0.11896018522E+03  0.11896018525E+03  0.25500000000E-02 0. -1.
          2   -1    0    0  501    0  0.00000000000E+00 -0.00000000000E+00 -0.10906826753E+04  0.10906826753E+04  0.25500000000E-02 0.  1.
   -5000001    1    1    2    0    0  0.25538711186E+03 -0.20082640617E+02 -0.55348392223E+03  0.65914364256E+03  0.25000000000E+03 0.  0.
    5000001    1    1    2    0    0 -0.25538711186E+03  0.20082640617E+02 -0.41823856780E+03  0.55049921794E+03  0.25000000000E+03 0.  0.
<mgrwt>
<rscale>  0 0.72041047E+03</rscale>
<asrwt>0</asrwt>
<pdfrwt beam="1">  1        2 0.16779733E+00 0.72041047E+03</pdfrwt>
<pdfrwt beam="2">  1       -2 0.18301568E-01 0.72041047E+03</pdfrwt>
<totfact> 0.55417303E+02</totfact>
</mgrwt>
</event>
<event>
 4    1  0.1720876E-005  0.7777074E+03  0.7818608E-02  0.9592857E-01
          2   -1    0    0  501    0  0.00000000000E+00  0.00000000000E+00  0.82829357485E+03  0.82829357485E+03  0.25500000000E-02 0.  1.
         -2   -1    0    0    0  501 -0.00000000000E+00 -0.00000000000E+00 -0.18255267480E+03  0.18255267482E+03  0.25500000000E-02 0. -1.
   -5000001    1    1    2    0    0 -0.26345470042E+03  0.13694993777E+03  0.35317346308E+03  0.52478105878E+03  0.25000000000E+03 0.  0.
    5000001    1    1    2    0    0  0.26345470042E+03 -0.13694993777E+03  0.29256743696E+03  0.48606519089E+03  0.25000000000E+03 0.  0.
<mgrwt>
<rscale>  0 0.77770742E+03</rscale>
<asrwt>0</asrwt>
<pdfrwt beam="1">  1        2 0.12742978E+00 0.77770742E+03</pdfrwt>
<pdfrwt beam="2">  1       -2 0.28085027E-01 0.77770742E+03</pdfrwt>
<totfact> 0.38280973E+02</totfact>
</mgrwt>
</event>
<event>
 4    1  0.1720876E-005  0.2320585E+04  0.7818608E-02  0.8469849E-01
          2   -1    0    0  501    0  0.00000000000E+00  0.00000000000E+00  0.25339665058E+04  0.25339665058E+04  0.25500000000E-02 0.  1.
         -2   -1    0    0    0  501 -0.00000000000E+00 -0.00000000000E+00 -0.53129321651E+03  0.53129321652E+03  0.25500000000E-02 0. -1.
   -5000001    1    1    2    0    0  0.85013578483E+03  0.74864964760E+03  0.10329298366E+04  0.15532711273E+04  0.25000000000E+03 0.  0.
    5000001    1    1    2    0    0 -0.85013578483E+03 -0.74864964760E+03  0.96974345263E+03  0.15119885950E+04  0.25000000000E+03 0.  0.
<mgrwt>
<rscale>  0 0.23205855E+04</rscale>
<asrwt>0</asrwt>
<pdfrwt beam="1">  1        2 0.38984100E+00 0.23205855E+04</pdfrwt>
<pdfrwt beam="2">  1       -2 0.81737418E-01 0.23205855E+04</pdfrwt>
<totfact> 0.39646350E+00</totfact>
</mgrwt>
</event>
<event>
 4    1  0.1720876E-005  0.1365456E+04  0.7818608E-02  0.8979210E-01
         -2   -1    0    0    0  501 -0.00000000000E+00  0.00000000000E+00  0.69512085362E+03  0.69512085363E+03  0.25500000000E-02 0. -1.
          2   -1    0    0  501    0  0.00000000000E+00 -0.00000000000E+00 -0.67055638781E+03  0.67055638782E+03  0.25500000000E-02 0.  1.
   -5000001    1    1    2    0    0 -0.15134463959E+03 -0.47204973001E+03 -0.38512521241E+03  0.67569044449E+03  0.25000000000E+03 0.  0.
    5000001    1    1    2    0    0  0.15134463959E+03  0.47204973001E+03  0.40968967822E+03  0.68998679696E+03  0.25000000000E+03 0.  0.
<mgrwt>
<rscale>  0 0.13654563E+04</rscale>
<asrwt>0</asrwt>
<pdfrwt beam="1">  1        2 0.10316252E+00 0.13654563E+04</pdfrwt>
<pdfrwt beam="2">  1       -2 0.10694167E+00 0.13654563E+04</pdfrwt>
<totfact> 0.29686800E+01</totfact>
</mgrwt>
</event>
<event>
 4    1  0.1720876E-005  0.7737486E+03  0.7818608E-02  0.9598812E-01
          2   -1    0    0  501    0  0.00000000000E+00  0.00000000000E+00  0.54146636951E+03  0.54146636952E+03  0.25500000000E-02 0.  1.
         -2   -1    0    0    0  501 -0.00000000000E+00 -0.00000000000E+00 -0.27641922864E+03  0.27641922865E+03  0.25500000000E-02 0. -1.
   -5000001    1    1    2    0    0 -0.18075861319E+03  0.22731780994E+03  0.18870273371E+03  0.42714843400E+03  0.25000000000E+03 0.  0.
    5000001    1    1    2    0    0  0.18075861319E+03 -0.22731780994E+03  0.76344407160E+02  0.39073716417E+03  0.25000000000E+03 0.  0.
<mgrwt>
<rscale>  0 0.77374858E+03</rscale>
<asrwt>0</asrwt>
<pdfrwt beam="1">  1        2 0.83302517E-01 0.77374858E+03</pdfrwt>
<pdfrwt beam="2">  1       -2 0.42526036E-01 0.77374858E+03</pdfrwt>
<totfact> 0.29601964E+02</totfact>
</mgrwt>
</event>
<event>
 4    1  0.1720876E-005  0.8554586E+03  0.7818608E-02  0.9483040E-01
         -2   -1    0    0    0  501 -0.00000000000E+00  0.00000000000E+00  0.26129319917E+03  0.26129319918E+03  0.25500000000E-02 0. -1.
          2   -1    0    0  501    0  0.00000000000E+00 -0.00000000000E+00 -0.70018025275E+03  0.70018025275E+03  0.25500000000E-02 0.  1.
   -5000001    1    1    2    0    0  0.17627719365E+03  0.21258530108E+03  0.16811763985E+02  0.37289247062E+03  0.25000000000E+03 0.  0.
    5000001    1    1    2    0    0 -0.17627719365E+03 -0.21258530108E+03 -0.45569881757E+03  0.58858098132E+03  0.25000000000E+03 0.  0.
<mgrwt>
<rscale>  0 0.85545856E+03</rscale>
<asrwt>0</asrwt>
<pdfrwt beam="1">  1        2 0.10772004E+00 0.85545856E+03</pdfrwt>
<pdfrwt beam="2">  1       -2 0.40198954E-01 0.85545856E+03</pdfrwt>
<totfact> 0.24088223E+02</totfact>
</mgrwt>
</event>
<event>
 4    1  0.1720876E-005  0.9614354E+03  0.7818608E-02  0.9351883E-01
         -2   -1    0    0    0  501 -0.00000000000E+00  0.00000000000E+00  0.26643703510E+03  0.26643703511E+03  0.25500000000E-02 0. -1.
          2   -1    0    0  501    0  0.00000000000E+00 -0.00000000000E+00 -0.86733252190E+03  0.86733252191E+03  0.25500000000E-02 0.  1.
   -5000001    1    1    2    0    0  0.15680711533E+03 -0.37220234975E+03 -0.21325965092E+03  0.52067527240E+03  0.25000000000E+03 0.  0.
    5000001    1    1    2    0    0 -0.15680711533E+03  0.37220234975E+03 -0.38763583588E+03  0.61309428462E+03  0.25000000000E+03 0.  0.
<mgrwt>
<rscale>  0 0.96143540E+03</rscale>
<asrwt>0</asrwt>
<pdfrwt beam="1">  1        2 0.13343577E+00 0.96143540E+03</pdfrwt>
<pdfrwt beam="2">  1       -2 0.40990313E-01 0.96143540E+03</pdfrwt>
<totfact> 0.17393399E+02</totfact>
</mgrwt>
</event>
<event>
 4    1  0.1720876E-005  0.9283801E+03  0.7818608E-02  0.9390784E-01
          2   -1    0    0  501    0  0.00000000000E+00  0.00000000000E+00  0.28610997028E+04  0.28610997028E+04  0.25500000000E-02 0.  1.
         -2   -1    0    0    0  501 -0.00000000000E+00 -0.00000000000E+00 -0.75311050466E+02  0.75311050509E+02  0.25500000000E-02 0. -1.
   -5000001    1    1    2    0    0  0.24229950067E+03  0.20573615102E+03  0.67207692586E+03  0.78436203767E+03  0.25000000000E+03 0.  0.
    5000001    1    1    2    0    0 -0.24229950067E+03 -0.20573615102E+03  0.21137117265E+04  0.21520487156E+04  0.25000000000E+03 0.  0.
<mgrwt>
<rscale>  0 0.92838015E+03</rscale>
<asrwt>0</asrwt>
<pdfrwt beam="1">  1        2 0.44016922E+00 0.92838015E+03</pdfrwt>
<pdfrwt beam="2">  1       -2 0.11586314E-01 0.92838015E+03</pdfrwt>
<totfact> 0.11788546E+02</totfact>
</mgrwt>
</event>
<event>
 4    1  0.1720876E-005  0.5244001E+03  0.7818608E-02  0.1007599E+00
         -2   -1    0    0    0  501 -0.00000000000E+00  0.00000000000E+00  0.42072662996E+02  0.42072663073E+02  0.25500000000E-02 0. -1.
          2   -1    0    0  501    0  0.00000000000E+00 -0.00000000000E+00 -0.16340509601E+04  0.16340509601E+04  0.25500000000E-02 0.  1.
   -5000001    1    1    2    0    0 -0.62500505513E+02  0.44840539546E+02 -0.85421812982E+03  0.89336756181E+03  0.25000000000E+03 0.  0.
    5000001    1    1    2    0    0  0.62500505513E+02 -0.44840539546E+02 -0.73776016726E+03  0.78275606135E+03  0.25000000000E+03 0.  0.
<mgrwt>
<rscale>  0 0.52440014E+03</rscale>
<asrwt>0</asrwt>
<pdfrwt beam="1">  1        2 0.25139241E+00 0.52440014E+03</pdfrwt>
<pdfrwt beam="2">  1       -2 0.64727187E-02 0.52440014E+03</pdfrwt>
<totfact> 0.15054914E+03</totfact>
</mgrwt>
</event>
<event>
 4    1  0.1720876E-005  0.6013231E+03  0.7818608E-02  0.9902665E-01
          2   -1    0    0  501    0  0.00000000000E+00  0.00000000000E+00  0.30712940801E+04  0.30712940801E+04  0.25500000000E-02 0.  1.
         -2   -1    0    0    0  501 -0.00000000000E+00 -0.00000000000E+00 -0.29432993626E+02  0.29432993737E+02  0.25500000000E-02 0. -1.
   -5000001    1    1    2    0    0  0.49982209402E+02  0.15000316101E+03  0.17985312245E+04  0.18226940870E+04  0.25000000000E+03 0.  0.
    5000001    1    1    2    0    0 -0.49982209402E+02 -0.15000316101E+03  0.12433298620E+04  0.12780329868E+04  0.25000000000E+03 0.  0.
<mgrwt>
<rscale>  0 0.60132314E+03</rscale>
<asrwt>0</asrwt>
<pdfrwt beam="1">  1        2 0.47250665E+00 0.60132314E+03</pdfrwt>
<pdfrwt beam="2">  1       -2 0.45281541E-02 0.60132314E+03</pdfrwt>
<totfact> 0.40661326E+02</totfact>
</mgrwt>
</event>
<event>
 4    1  0.1720876E-005  0.1083836E+04  0.7818608E-02  0.9221092E-01
         -2   -1    0    0    0  501 -0.00000000000E+00  0.00000000000E+00  0.25090092579E+03  0.25090092580E+03  0.25500000000E-02 0. -1.
          2   -1    0    0  501    0  0.00000000000E+00 -0.00000000000E+00 -0.11704814263E+04  0.11704814263E+04  0.25500000000E-02 0.  1.
   -5000001    1    1    2    0    0 -0.13489126576E+03  0.20086528149E+03 -0.10046799899E+04  0.10632141821E+04  0.25000000000E+03 0.  0.
    5000001    1    1    2    0    0  0.13489126576E+03 -0.20086528149E+03  0.85099489425E+02  0.35816816998E+03  0.25000000000E+03 0.  0.
<mgrwt>
<rscale>  0 0.10838355E+04</rscale>
<asrwt>0</asrwt>
<pdfrwt beam="1">  1        2 0.18007406E+00 0.10838355E+04</pdfrwt>
<pdfrwt beam="2">  1       -2 0.38600143E-01 0.10838355E+04</pdfrwt>
<totfact> 0.12422008E+02</totfact>
</mgrwt>
</event>
<event>
 4    1  0.1720876E-005  0.7378596E+03  0.7818608E-02  0.9654592E-01
         -2   -1    0    0    0  501 -0.00000000000E+00  0.00000000000E+00  0.11692498492E+04  0.11692498492E+04  0.25500000000E-02 0. -1.
          2   -1    0    0  501    0  0.00000000000E+00 -0.00000000000E+00 -0.11640726895E+03  0.11640726898E+03  0.25500000000E-02 0.  1.
   -5000001    1    1    2    0    0  0.19094160677E+03 -0.69548674727E+02  0.21320580460E+03  0.38633202102E+03  0.25000000000E+03 0.  0.
    5000001    1    1    2    0    0 -0.19094160677E+03  0.69548674727E+02  0.83963677567E+03  0.89932509717E+03  0.25000000000E+03 0.  0.
<mgrwt>
<rscale>  0 0.73785956E+03</rscale>
<asrwt>0</asrwt>
<pdfrwt beam="1">  1        2 0.17908811E-01 0.73785956E+03</pdfrwt>
<pdfrwt beam="2">  1       -2 0.17988459E+00 0.73785956E+03</pdfrwt>
<totfact> 0.59708358E+01</totfact>
</mgrwt>
</event>
<event>
 4    1  0.1720876E-005  0.7209461E+03  0.7818608E-02  0.9682067E-01
         -2   -1    0    0    0  501 -0.00000000000E+00  0.00000000000E+00  0.11838377169E+03  0.11838377172E+03  0.25500000000E-02 0. -1.
          2   -1    0    0  501    0  0.00000000000E+00 -0.00000000000E+00 -0.10976235650E+04  0.10976235650E+04  0.25500000000E-02 0.  1.
   -5000001    1    1    2    0    0  0.25877914471E+03  0.38638034387E+00 -0.52634245159E+03  0.63757601223E+03  0.25000000000E+03 0.  0.
    5000001    1    1    2    0    0 -0.25877914471E+03 -0.38638034387E+00 -0.45289734176E+03  0.57843132453E+03  0.25000000000E+03 0.  0.
<mgrwt>
<rscale>  0 0.72094609E+03</rscale>
<asrwt>0</asrwt>
<pdfrwt beam="1">  1        2 0.16886516E+00 0.72094609E+03</pdfrwt>
<pdfrwt beam="2">  1       -2 0.18212889E-01 0.72094609E+03</pdfrwt>
<totfact> 0.55338974E+02</totfact>
</mgrwt>
</event>
<event>
 4    1  0.1720876E-005  0.5277850E+03  0.7818608E-02  0.1006771E+00
         -2   -1    0    0    0  501 -0.00000000000E+00  0.00000000000E+00  0.31005804904E+02  0.31005805009E+02  0.25500000000E-02 0. -1.
          2   -1    0    0  501    0  0.00000000000E+00 -0.00000000000E+00 -0.22460067467E+04  0.22460067467E+04  0.25500000000E-02 0.  1.
   -5000001    1    1    2    0    0 -0.68563474686E+02  0.43387691273E+02 -0.12092118964E+04  0.12374477169E+04  0.25000000000E+03 0.  0.
    5000001    1    1    2    0    0  0.68563474686E+02 -0.43387691273E+02 -0.10057890455E+04  0.10395648348E+04  0.25000000000E+03 0.  0.
<mgrwt>
<rscale>  0 0.52778498E+03</rscale>
<asrwt>0</asrwt>
<pdfrwt beam="1">  1        2 0.34553937E+00 0.52778498E+03</pdfrwt>
<pdfrwt beam="2">  1       -2 0.47701256E-02 0.52778498E+03</pdfrwt>
<totfact> 0.11297522E+03</totfact>
</mgrwt>
</event>
<event>
 4    1  0.1720876E-005  0.1110352E+04  0.7818608E-02  0.9195160E-01
          2   -1    0    0  501    0  0.00000000000E+00  0.00000000000E+00  0.19092435068E+03  0.19092435070E+03  0.25500000000E-02 0.  1.
         -2   -1    0    0    0  501 -0.00000000000E+00 -0.00000000000E+00 -0.16143596500E+04  0.16143596500E+04  0.25500000000E-02 0. -1.
   -5000001    1    1    2    0    0  0.17714300223E+02  0.48190260842E+03 -0.52508518399E+03  0.75548551996E+03  0.25000000000E+03 0.  0.
    5000001    1    1    2    0    0 -0.17714300223E+02 -0.48190260842E+03 -0.89835011531E+03  0.10497984807E+04  0.25000000000E+03 0.  0.
<mgrwt>
<rscale>  0 0.11103523E+04</rscale>
<asrwt>0</asrwt>
<pdfrwt beam="1">  1        2 0.29372978E-01 0.11103523E+04</pdfrwt>
<pdfrwt beam="2">  1       -2 0.24836301E+00 0.11103523E+04</pdfrwt>
<totfact> 0.11952495E+01</totfact>
</mgrwt>
</event>
<event>
 4    1  0.1720876E-005  0.1473958E+04  0.7818608E-02  0.8901958E-01
         -2   -1    0    0    0  501 -0.00000000000E+00  0.00000000000E+00  0.26990583754E+03  0.26990583755E+03  0.25500000000E-02 0. -1.
          2   -1    0    0  501    0  0.00000000000E+00 -0.00000000000E+00 -0.20123241163E+04  0.20123241163E+04  0.25500000000E-02 0.  1.
   -5000001    1    1    2    0    0 -0.68692959639E+03 -0.29713485853E+01 -0.10161030581E+04  0.12517374022E+04  0.25000000000E+03 0.  0.
    5000001    1    1    2    0    0  0.68692959639E+03  0.29713485853E+01 -0.72631522065E+03  0.10304925517E+04  0.25000000000E+03 0.  0.
<mgrwt>
<rscale>  0 0.14739580E+04</rscale>
<asrwt>0</asrwt>
<pdfrwt beam="1">  1        2 0.30958832E+00 0.14739580E+04</pdfrwt>
<pdfrwt beam="2">  1       -2 0.41523976E-01 0.14739580E+04</pdfrwt>
<totfact> 0.34999462E+01</totfact>
</mgrwt>
</event>
<event>
 4    1  0.1720876E-005  0.6665010E+03  0.7818608E-02  0.9776300E-01
          2   -1    0    0  501    0  0.00000000000E+00  0.00000000000E+00  0.13789559688E+04  0.13789559688E+04  0.25500000000E-02 0.  1.
         -2   -1    0    0    0  501 -0.00000000000E+00 -0.00000000000E+00 -0.80536218594E+02  0.80536218635E+02  0.25500000000E-02 0. -1.
   -5000001    1    1    2    0    0  0.44177154537E+02  0.17015946907E+03  0.94012997545E+03  0.98855967783E+03  0.25000000000E+03 0.  0.
    5000001    1    1    2    0    0 -0.44177154537E+02 -0.17015946907E+03  0.35828977471E+03  0.47093250956E+03  0.25000000000E+03 0.  0.
<mgrwt>
<rscale>  0 0.66650101E+03</rscale>
<asrwt>0</asrwt>
<pdfrwt beam="1">  1        2 0.21214706E+00 0.66650101E+03</pdfrwt>
<pdfrwt beam="2">  1       -2 0.12390188E-01 0.66650101E+03</pdfrwt>
<totfact> 0.72805424E+02</totfact>
</mgrwt>
</event>
<event>
 4    1  0.1720876E-005  0.5721122E+03  0.7818608E-02  0.9965016E-01
         -2   -1    0    0    0  501 -0.00000000000E+00  0.00000000000E+00  0.36212623603E+02  0.36212623693E+02  0.25500000000E-02 0. -1.
          2   -1    0    0  501    0  0.00000000000E+00 -0.00000000000E+00 -0.22596561760E+04  0.22596561760E+04  0.25500000000E-02 0.  1.
   -5000001    1    1    2    0    0 -0.12844890782E+03  0.47083437119E+02 -0.10124377312E+04  0.10517823594E+04  0.25000000000E+03 0.  0.
    5000001    1    1    2    0    0  0.12844890782E+03 -0.47083437119E+02 -0.12110058213E+04  0.12440864404E+04  0.25000000000E+03 0.  0.
<mgrwt>
<rscale>  0 0.57211215E+03</rscale>
<asrwt>0</asrwt>
<pdfrwt beam="1">  1        2 0.34763930E+00 0.57211215E+03</pdfrwt>
<pdfrwt beam="2">  1       -2 0.55711746E-02 0.57211215E+03</pdfrwt>
<totfact> 0.86993211E+02</totfact>
</mgrwt>
</event>
<event>
 4    1  0.1720876E-005  0.6392028E+03  0.7818608E-02  0.9827253E-01
          2   -1    0    0  501    0  0.00000000000E+00  0.00000000000E+00  0.49278029143E+03  0.49278029144E+03  0.25500000000E-02 0.  1.
         -2   -1    0    0    0  501 -0.00000000000E+00 -0.00000000000E+00 -0.20728314687E+03  0.20728314689E+03  0.25500000000E-02 0. -1.
   -5000001    1    1    2    0    0  0.65171074321E+02 -0.18620991198E+03  0.17221061188E+03  0.36204681339E+03  0.25000000000E+03 0.  0.
    5000001    1    1    2    0    0 -0.65171074321E+02  0.18620991198E+03  0.11328653268E+03  0.33801662494E+03  0.25000000000E+03 0.  0.
<mgrwt>
<rscale>  0 0.63920278E+03</rscale>
<asrwt>0</asrwt>
<pdfrwt beam="1">  1        2 0.75812352E-01 0.63920278E+03</pdfrwt>
<pdfrwt beam="2">  1       -2 0.31889715E-01 0.63920278E+03</pdfrwt>
<totfact> 0.57631153E+02</totfact>
</mgrwt>
</event>
<event>
 4    1  0.1720876E-005  0.5601698E+03  0.7818608E-02  0.9991671E-01
         -2   -1    0    0    0  501 -0.00000000000E+00  0.00000000000E+00  0.71785596129E+02  0.71785596175E+02  0.25500000000E-02 0. -1.
          2   -1    0    0  501    0  0.00000000000E+00 -0.00000000000E+00 -0.10928033544E+04  0.10928033544E+04  0.25500000000E-02 0.  1.
   -5000001    1    1    2    0    0  0.39430872023E+01  0.94053048986E+02 -0.33550241989E+03  0.42886291249E+03  0.25000000000E+03 0.  0.
    5000001    1    1    2    0    0 -0.39430872023E+01 -0.94053048986E+02 -0.68551533838E+03  0.73572603808E+03  0.25000000000E+03 0.  0.
<mgrwt>
<rscale>  0 0.56016976E+03</rscale>
<asrwt>0</asrwt>
<pdfrwt beam="1">  1        2 0.16812358E+00 0.56016976E+03</pdfrwt>
<pdfrwt beam="2">  1       -2 0.11043939E-01 0.56016976E+03</pdfrwt>
<totfact> 0.12967845E+03</totfact>
</mgrwt>
</event>
<event>
 4    1  0.1720876E-005  0.6311451E+03  0.7818608E-02  0.9842817E-01
          2   -1    0    0  501    0  0.00000000000E+00  0.00000000000E+00  0.15674767646E+04  0.15674767646E+04  0.25500000000E-02 0.  1.
         -2   -1    0    0    0  501 -0.00000000000E+00 -0.00000000000E+00 -0.63532696861E+02  0.63532696912E+02  0.25500000000E-02 0. -1.
   -5000001    1    1    2    0    0  0.53851786962E+01 -0.14705748587E+03  0.10729875571E+04  0.11115112244E+04  0.25000000000E+03 0.  0.
    5000001    1    1    2    0    0 -0.53851786962E+01  0.14705748587E+03  0.43095651071E+03  0.51949823717E+03  0.25000000000E+03 0.  0.
<mgrwt>
<rscale>  0 0.63114507E+03</rscale>
<asrwt>0</asrwt>
<pdfrwt beam="1">  1        2 0.24115027E+00 0.63114507E+03</pdfrwt>
<pdfrwt beam="2">  1       -2 0.97742610E-02 0.63114507E+03</pdfrwt>
<totfact> 0.84459342E+02</totfact>
</mgrwt>
</event>
<event>
 4    1  0.1720876E-005  0.8837014E+03  0.7818608E-02  0.9446188E-01
         -2   -1    0    0    0  501 -0.00000000000E+00  0.00000000000E+00  0.27741556792E+03  0.27741556793E+03  0.25500000000E-02 0. -1.
          2   -1    0    0  501    0  0.00000000000E+00 -0.00000000000E+00 -0.70375304100E+03  0.70375304101E+03  0.25500000000E-02 0.  1.
   -5000001    1    1    2    0    0  0.30931779621E+03 -0.19137765724E+03 -0.19016814453E+03  0.48059008514E+03  0.25000000000E+03 0.  0.
    5000001    1    1    2    0    0 -0.30931779621E+03  0.19137765724E+03 -0.23616932855E+03  0.50057852380E+03  0.25000000000E+03 0.  0.
<mgrwt>
<rscale>  0 0.88370142E+03</rscale>
<asrwt>0</asrwt>
<pdfrwt beam="1">  1        2 0.10826970E+00 0.88370142E+03</pdfrwt>
<pdfrwt beam="2">  1       -2 0.42679318E-01 0.88370142E+03</pdfrwt>
<totfact> 0.21249585E+02</totfact>
</mgrwt>
</event>
<event>
 4    1  0.1720876E-005  0.6367098E+03  0.7818608E-02  0.9832042E-01
         -2   -1    0    0    0  501 -0.00000000000E+00  0.00000000000E+00  0.14263263914E+03  0.14263263916E+03  0.25500000000E-02 0. -1.
          2   -1    0    0  501    0  0.00000000000E+00 -0.00000000000E+00 -0.71056552445E+03  0.71056552446E+03  0.25500000000E-02 0.  1.
   -5000001    1    1    2    0    0  0.19120773428E+03  0.35855145333E+02 -0.24151014270E+03  0.39833796972E+03  0.25000000000E+03 0.  0.
    5000001    1    1    2    0    0 -0.19120773428E+03 -0.35855145333E+02 -0.32642274261E+03  0.45486019389E+03  0.25000000000E+03 0.  0.
<mgrwt>
<rscale>  0 0.63670978E+03</rscale>
<asrwt>0</asrwt>
<pdfrwt beam="1">  1        2 0.10931777E+00 0.63670978E+03</pdfrwt>
<pdfrwt beam="2">  1       -2 0.21943483E-01 0.63670978E+03</pdfrwt>
<totfact> 0.73218524E+02</totfact>
</mgrwt>
</event>
<event>
 4    1  0.1720876E-005  0.6121550E+03  0.7818608E-02  0.9880504E-01
          2   -1    0    0  501    0  0.00000000000E+00  0.00000000000E+00  0.23853809398E+03  0.23853809399E+03  0.25500000000E-02 0.  1.
         -2   -1    0    0    0  501 -0.00000000000E+00 -0.00000000000E+00 -0.39273991308E+03  0.39273991309E+03  0.25500000000E-02 0. -1.
   -5000001    1    1    2    0    0 -0.15586461745E+03 -0.79275234725E+02 -0.51733932467E+02  0.30944263052E+03  0.25000000000E+03 0.  0.
    5000001    1    1    2    0    0  0.15586461745E+03  0.79275234725E+02 -0.10246788664E+03  0.32183537656E+03  0.25000000000E+03 0.  0.
<mgrwt>
<rscale>  0 0.61215498E+03</rscale>
<asrwt>0</asrwt>
<pdfrwt beam="1">  1        2 0.36698168E-01 0.61215498E+03</pdfrwt>
<pdfrwt beam="2">  1       -2 0.60421525E-01 0.61215498E+03</pdfrwt>
<totfact> 0.36550627E+02</totfact>
</mgrwt>
</event>
<event>
 4    1  0.1720876E-005  0.9750321E+03  0.7818608E-02  0.9336361E-01
          2   -1    0    0  501    0  0.00000000000E+00  0.00000000000E+00  0.67335256412E+03  0.67335256412E+03  0.25500000000E-02 0.  1.
         -2   -1    0    0    0  501 -0.00000000000E+00 -0.00000000000E+00 -0.35296798312E+03  0.35296798313E+03  0.25500000000E-02 0. -1.
   -5000001    1    1    2    0    0 -0.34294054581E+03  0.19883481854E+03  0.18859600103E+02  0.46904070990E+03  0.25000000000E+03 0.  0.
    5000001    1    1    2    0    0  0.34294054581E+03 -0.19883481854E+03  0.30152498089E+03  0.55727983736E+03  0.25000000000E+03 0.  0.
<mgrwt>
<rscale>  0 0.97503209E+03</rscale>
<asrwt>0</asrwt>
<pdfrwt beam="1">  1        2 0.10359270E+00 0.97503209E+03</pdfrwt>
<pdfrwt beam="2">  1       -2 0.54302768E-01 0.97503209E+03</pdfrwt>
<totfact> 0.13736922E+02</totfact>
</mgrwt>
</event>
<event>
 4    1  0.1720876E-005  0.6669799E+03  0.7818608E-02  0.9775429E-01
          2   -1    0    0  501    0  0.00000000000E+00  0.00000000000E+00  0.40686507435E+03  0.40686507436E+03  0.25500000000E-02 0.  1.
         -2   -1    0    0    0  501 -0.00000000000E+00 -0.00000000000E+00 -0.27334749527E+03  0.27334749529E+03  0.25500000000E-02 0. -1.
   -5000001    1    1    2    0    0 -0.20864114914E+03 -0.42615544084E+02  0.12594759289E+03  0.35172433789E+03  0.25000000000E+03 0.  0.
    5000001    1    1    2    0    0  0.20864114914E+03  0.42615544084E+02  0.75699861887E+01  0.32848823175E+03  0.25000000000E+03 0.  0.
<mgrwt>
<rscale>  0 0.66697991E+03</rscale>
<asrwt>0</asrwt>
<pdfrwt beam="1">  1        2 0.62594627E-01 0.66697991E+03</pdfrwt>
<pdfrwt beam="2">  1       -2 0.42053461E-01 0.66697991E+03</pdfrwt>
<totfact> 0.42155705E+02</totfact>
</mgrwt>
</event>
<event>
 4    1  0.1720876E-005  0.1109194E+04  0.7818608E-02  0.9196277E-01
          2   -1    0    0  501    0  0.00000000000E+00  0.00000000000E+00  0.10091379833E+04  0.10091379833E+04  0.25500000000E-02 0.  1.
         -2   -1    0    0    0  501 -0.00000000000E+00 -0.00000000000E+00 -0.30479257402E+03  0.30479257403E+03  0.25500000000E-02 0. -1.
   -5000001    1    1    2    0    0 -0.14392825869E+02  0.44915254314E+03  0.59819121474E+03  0.78884592275E+03  0.25000000000E+03 0.  0.
    5000001    1    1    2    0    0  0.14392825869E+02 -0.44915254314E+03  0.10615419452E+03  0.52508463457E+03  0.25000000000E+03 0.  0.
<mgrwt>
<rscale>  0 0.11091939E+04</rscale>
<asrwt>0</asrwt>
<pdfrwt beam="1">  1        2 0.15525200E+00 0.11091939E+04</pdfrwt>
<pdfrwt beam="2">  1       -2 0.46891165E-01 0.11091939E+04</pdfrwt>
<totfact> 0.10627361E+02</totfact>
</mgrwt>
</event>
<event>
 4    1  0.1720876E-005  0.7215850E+03  0.7818608E-02  0.9681015E-01
         -2   -1    0    0    0  501 -0.00000000000E+00  0.00000000000E+00  0.17578159749E+03  0.17578159751E+03  0.25500000000E-02 0. -1.
          2   -1    0    0  501    0  0.00000000000E+00 -0.00000000000E+00 -0.74052825129E+03  0.74052825129E+03  0.25500000000E-02 0.  1.
   -5000001    1    1    2    0    0  0.21673598013E+02  0.20352579439E+03 -0.78488115269E+02  0.33249492939E+03  0.25000000000E+03 0.  0.
    5000001    1    1    2    0    0 -0.21673598013E+02 -0.20352579439E+03 -0.48625853853E+03  0.58381491941E+03  0.25000000000E+03 0.  0.
<mgrwt>
<rscale>  0 0.72158503E+03</rscale>
<asrwt>0</asrwt>
<pdfrwt beam="1">  1        2 0.11392742E+00 0.72158503E+03</pdfrwt>
<pdfrwt beam="2">  1       -2 0.27043323E-01 0.72158503E+03</pdfrwt>
<totfact> 0.47627917E+02</totfact>
</mgrwt>
</event>
<event>
 4    1  0.1720876E-005  0.9042200E+03  0.7818608E-02  0.9420322E-01
         -2   -1    0    0    0  501 -0.00000000000E+00  0.00000000000E+00  0.15264771173E+03  0.15264771175E+03  0.25500000000E-02 0. -1.
          2   -1    0    0  501    0  0.00000000000E+00 -0.00000000000E+00 -0.13390534753E+04  0.13390534753E+04  0.25500000000E-02 0.  1.
   -5000001    1    1    2    0    0  0.30852262736E+03  0.17658789141E+03 -0.38759074977E+03  0.58231957231E+03  0.25000000000E+03 0.  0.
    5000001    1    1    2    0    0 -0.30852262736E+03 -0.17658789141E+03 -0.79881501383E+03  0.90938161478E+03  0.25000000000E+03 0.  0.
<mgrwt>
<rscale>  0 0.90421999E+03</rscale>
<asrwt>0</asrwt>
<pdfrwt beam="1">  1        2 0.20600822E+00 0.90421999E+03</pdfrwt>
<pdfrwt beam="2">  1       -2 0.23484264E-01 0.90421999E+03</pdfrwt>
<totfact> 0.25235817E+02</totfact>
</mgrwt>
</event>
<event>
 4    1  0.1720876E-005  0.1402305E+04  0.7818608E-02  0.8952152E-01
         -2   -1    0    0    0  501 -0.00000000000E+00  0.00000000000E+00  0.62477613811E+03  0.62477613812E+03  0.25500000000E-02 0. -1.
          2   -1    0    0  501    0  0.00000000000E+00 -0.00000000000E+00 -0.78686562612E+03  0.78686562613E+03  0.25500000000E-02 0.  1.
   -5000001    1    1    2    0    0  0.35720724551E+03  0.52363159123E+03 -0.24745664976E+03  0.72492886071E+03  0.25000000000E+03 0.  0.
    5000001    1    1    2    0    0 -0.35720724551E+03 -0.52363159123E+03  0.85367161750E+02  0.68671290354E+03  0.25000000000E+03 0.  0.
<mgrwt>
<rscale>  0 0.14023051E+04</rscale>
<asrwt>0</asrwt>
<pdfrwt beam="1">  1        2 0.12105625E+00 0.14023051E+04</pdfrwt>
<pdfrwt beam="2">  1       -2 0.96119406E-01 0.14023051E+04</pdfrwt>
<totfact> 0.31080855E+01</totfact>
</mgrwt>
</event>
<event>
 4    1  0.1720876E-005  0.6663243E+03  0.7818608E-02  0.9776621E-01
         -2   -1    0    0    0  501 -0.00000000000E+00  0.00000000000E+00  0.10337671488E+03  0.10337671492E+03  0.25500000000E-02 0. -1.
          2   -1    0    0  501    0  0.00000000000E+00 -0.00000000000E+00 -0.10737138474E+04  0.10737138474E+04  0.25500000000E-02 0.  1.
   -5000001    1    1    2    0    0 -0.13822708637E+03 -0.14820734581E+03 -0.63738745173E+03  0.71402724625E+03  0.25000000000E+03 0.  0.
    5000001    1    1    2    0    0  0.13822708637E+03  0.14820734581E+03 -0.33294968078E+03  0.46306331607E+03  0.25000000000E+03 0.  0.
<mgrwt>
<rscale>  0 0.66632428E+03</rscale>
<asrwt>0</asrwt>
<pdfrwt beam="1">  1        2 0.16518674E+00 0.66632428E+03</pdfrwt>
<pdfrwt beam="2">  1       -2 0.15904111E-01 0.66632428E+03</pdfrwt>
<totfact> 0.72355954E+02</totfact>
</mgrwt>
</event>
<event>
 4    1  0.1720876E-005  0.6788439E+03  0.7818608E-02  0.9754112E-01
          2   -1    0    0  501    0  0.00000000000E+00  0.00000000000E+00  0.88369473731E+03  0.88369473731E+03  0.25500000000E-02 0.  1.
         -2   -1    0    0    0  501 -0.00000000000E+00 -0.00000000000E+00 -0.13036999172E+03  0.13036999175E+03  0.25500000000E-02 0. -1.
   -5000001    1    1    2    0    0  0.12920423615E+03 -0.12433184601E+03  0.59083101059E+03  0.66613318912E+03  0.25000000000E+03 0.  0.
    5000001    1    1    2    0    0 -0.12920423615E+03  0.12433184601E+03  0.16249373500E+03  0.34793153994E+03  0.25000000000E+03 0.  0.
<mgrwt>
<rscale>  0 0.67884395E+03</rscale>
<asrwt>0</asrwt>
<pdfrwt beam="1">  1        2 0.13595304E+00 0.67884395E+03</pdfrwt>
<pdfrwt beam="2">  1       -2 0.20056922E-01 0.67884395E+03</pdfrwt>
<totfact> 0.64277747E+02</totfact>
</mgrwt>
</event>
<event>
 4    1  0.1720876E-005  0.1055566E+04  0.7818608E-02  0.9249617E-01
         -2   -1    0    0    0  501 -0.00000000000E+00  0.00000000000E+00  0.19625955638E+03  0.19625955640E+03  0.25500000000E-02 0. -1.
          2   -1    0    0  501    0  0.00000000000E+00 -0.00000000000E+00 -0.14193182886E+04  0.14193182886E+04  0.25500000000E-02 0.  1.
   -5000001    1    1    2    0    0  0.14439040383E+03  0.18560951932E+03  0.21269818873E+01  0.34322588252E+03  0.25000000000E+03 0.  0.
    5000001    1    1    2    0    0 -0.14439040383E+03 -0.18560951932E+03 -0.12251857141E+04  0.12723519625E+04  0.25000000000E+03 0.  0.
<mgrwt>
<rscale>  0 0.10555658E+04</rscale>
<asrwt>0</asrwt>
<pdfrwt beam="1">  1        2 0.21835665E+00 0.10555658E+04</pdfrwt>
<pdfrwt beam="2">  1       -2 0.30193779E-01 0.10555658E+04</pdfrwt>
<totfact> 0.14212440E+02</totfact>
</mgrwt>
</event>
<event>
 4    1  0.1720876E-005  0.1063018E+04  0.7818608E-02  0.9242006E-01
         -2   -1    0    0    0  501 -0.00000000000E+00  0.00000000000E+00  0.14800135626E+03  0.14800135628E+03  0.25500000000E-02 0. -1.
          2   -1    0    0  501    0  0.00000000000E+00 -0.00000000000E+00 -0.19087786283E+04  0.19087786283E+04  0.25500000000E-02 0.  1.
   -5000001    1    1    2    0    0 -0.54094041532E+02  0.31413169662E+03 -0.21462902160E+03  0.45844356803E+03  0.25000000000E+03 0.  0.
    5000001    1    1    2    0    0  0.54094041532E+02 -0.31413169662E+03 -0.15461482504E+04  0.15983364165E+04  0.25000000000E+03 0.  0.
<mgrwt>
<rscale>  0 0.10630180E+04</rscale>
<asrwt>0</asrwt>
<pdfrwt beam="1">  1        2 0.29365823E+00 0.10630180E+04</pdfrwt>
<pdfrwt beam="2">  1       -2 0.22769441E-01 0.10630180E+04</pdfrwt>
<totfact> 0.12707227E+02</totfact>
</mgrwt>
</event>
<event>
 4    1  0.1720876E-005  0.5682417E+03  0.7818608E-02  0.9973577E-01
          2   -1    0    0  501    0  0.00000000000E+00  0.00000000000E+00  0.15526937611E+04  0.15526937611E+04  0.25500000000E-02 0.  1.
         -2   -1    0    0    0  501 -0.00000000000E+00 -0.00000000000E+00 -0.51990067356E+02  0.51990067418E+02  0.25500000000E-02 0. -1.
   -5000001    1    1    2    0    0 -0.98360811095E+02  0.91793521351E+02  0.78176671413E+03  0.83172116424E+03  0.25000000000E+03 0.  0.
    5000001    1    1    2    0    0  0.98360811095E+02 -0.91793521351E+02  0.71893697966E+03  0.77296266433E+03  0.25000000000E+03 0.  0.
<mgrwt>
<rscale>  0 0.56824169E+03</rscale>
<asrwt>0</asrwt>
<pdfrwt beam="1">  1        2 0.23887590E+00 0.56824169E+03</pdfrwt>
<pdfrwt beam="2">  1       -2 0.79984739E-02 0.56824169E+03</pdfrwt>
<totfact> 0.11910696E+03</totfact>
</mgrwt>
</event>
<event>
 4    1  0.1720876E-005  0.1042957E+04  0.7818608E-02  0.9262646E-01
          2   -1    0    0  501    0  0.00000000000E+00  0.00000000000E+00  0.70301733919E+03  0.70301733920E+03  0.25500000000E-02 0.  1.
         -2   -1    0    0    0  501 -0.00000000000E+00 -0.00000000000E+00 -0.38681793765E+03  0.38681793766E+03  0.25500000000E-02 0. -1.
   -5000001    1    1    2    0    0  0.34177959931E+03 -0.19077049292E+03  0.40589344221E+03  0.61681128549E+03  0.25000000000E+03 0.  0.
    5000001    1    1    2    0    0 -0.34177959931E+03  0.19077049292E+03 -0.89694040674E+02  0.47302399137E+03  0.25000000000E+03 0.  0.
<mgrwt>
<rscale>  0 0.10429568E+04</rscale>
<asrwt>0</asrwt>
<pdfrwt beam="1">  1        2 0.10815651E+00 0.10429568E+04</pdfrwt>
<pdfrwt beam="2">  1       -2 0.59510453E-01 0.10429568E+04</pdfrwt>
<totfact> 0.10701676E+02</totfact>
</mgrwt>
</event>
<event>
 4    1  0.1720876E-005  0.1026566E+04  0.7818608E-02  0.9279878E-01
          2   -1    0    0  501    0  0.00000000000E+00  0.00000000000E+00  0.66113177114E+03  0.66113177114E+03  0.25500000000E-02 0.  1.
         -2   -1    0    0    0  501 -0.00000000000E+00 -0.00000000000E+00 -0.39849753887E+03  0.39849753888E+03  0.25500000000E-02 0. -1.
   -5000001    1    1    2    0    0 -0.36119461934E+03  0.15835696442E+03  0.35130309973E+03  0.58433924145E+03  0.25000000000E+03 0.  0.
    5000001    1    1    2    0    0  0.36119461934E+03 -0.15835696442E+03 -0.88668867463E+02  0.47529006857E+03  0.25000000000E+03 0.  0.
<mgrwt>
<rscale>  0 0.10265659E+04</rscale>
<asrwt>0</asrwt>
<pdfrwt beam="1">  1        2 0.10171258E+00 0.10265659E+04</pdfrwt>
<pdfrwt beam="2">  1       -2 0.61307314E-01 0.10265659E+04</pdfrwt>
<totfact> 0.10865549E+02</totfact>
</mgrwt>
</event>
<event>
 4    1  0.1720876E-005  0.9619000E+03  0.7818608E-02  0.9351348E-01
          2   -1    0    0  501    0  0.00000000000E+00  0.00000000000E+00  0.40782458071E+04  0.40782458071E+04  0.25500000000E-02 0.  1.
         -2   -1    0    0    0  501 -0.00000000000E+00 -0.00000000000E+00 -0.56718728312E+02  0.56718728370E+02  0.25500000000E-02 0. -1.
   -5000001    1    1    2    0    0  0.69919356851E+02 -0.40099977560E+03  0.22510084701E+04  0.23011363864E+04  0.25000000000E+03 0.  0.
    5000001    1    1    2    0    0 -0.69919356851E+02  0.40099977560E+03  0.17705186087E+04  0.18338281490E+04  0.25000000000E+03 0.  0.
<mgrwt>
<rscale>  0 0.96190003E+03</rscale>
<asrwt>0</asrwt>
<pdfrwt beam="1">  1        2 0.62742244E+00 0.96190003E+03</pdfrwt>
<pdfrwt beam="2">  1       -2 0.87259581E-02 0.96190003E+03</pdfrwt>
<totfact> 0.27007860E+01</totfact>
</mgrwt>
</event>
<event>
 4    1  0.1720876E-005  0.7295340E+03  0.7818608E-02  0.9668017E-01
         -2   -1    0    0    0  501 -0.00000000000E+00  0.00000000000E+00  0.77551345681E+02  0.77551345723E+02  0.25500000000E-02 0. -1.
          2   -1    0    0  501    0  0.00000000000E+00 -0.00000000000E+00 -0.17157017655E+04  0.17157017655E+04  0.25500000000E-02 0.  1.
   -5000001    1    1    2    0    0  0.57091165524E+02  0.25809898903E+03 -0.75495316604E+03  0.83805057857E+03  0.25000000000E+03 0.  0.
    5000001    1    1    2    0    0 -0.57091165524E+02 -0.25809898903E+03 -0.88319725378E+03  0.95520253266E+03  0.25000000000E+03 0.  0.
<mgrwt>
<rscale>  0 0.72953405E+03</rscale>
<asrwt>0</asrwt>
<pdfrwt beam="1">  1        2 0.26395409E+00 0.72953405E+03</pdfrwt>
<pdfrwt beam="2">  1       -2 0.11930978E-01 0.72953405E+03</pdfrwt>
<totfact> 0.50276848E+02</totfact>
</mgrwt>
</event>
<event>
 4    1  0.1720876E-005  0.8656264E+03  0.7818608E-02  0.9469600E-01
         -2   -1    0    0    0  501 -0.00000000000E+00  0.00000000000E+00  0.65193593220E+03  0.65193593220E+03  0.25500000000E-02 0. -1.
          2   -1    0    0  501    0  0.00000000000E+00 -0.00000000000E+00 -0.28733999520E+03  0.28733999521E+03  0.25500000000E-02 0.  1.
   -5000001    1    1    2    0    0 -0.24232578906E+03 -0.22565641299E+03  0.31600839501E+03  0.52153994141E+03  0.25000000000E+03 0.  0.
    5000001    1    1    2    0    0  0.24232578906E+03  0.22565641299E+03  0.48587541980E+02  0.41773598600E+03  0.25000000000E+03 0.  0.
<mgrwt>
<rscale>  0 0.86562640E+03</rscale>
<asrwt>0</asrwt>
<pdfrwt beam="1">  1        2 0.44206153E-01 0.86562640E+03</pdfrwt>
<pdfrwt beam="2">  1       -2 0.10029784E+00 0.86562640E+03</pdfrwt>
<totfact> 0.94940906E+01</totfact>
</mgrwt>
</event>
<event>
 4    1  0.1720876E-005  0.6537551E+03  0.7818608E-02  0.9799758E-01
         -2   -1    0    0    0  501 -0.00000000000E+00  0.00000000000E+00  0.13666550187E+03  0.13666550189E+03  0.25500000000E-02 0. -1.
          2   -1    0    0  501    0  0.00000000000E+00 -0.00000000000E+00 -0.78182801833E+03  0.78182801834E+03  0.25500000000E-02 0.  1.
   -5000001    1    1    2    0    0  0.17538144340E+03  0.99846608438E+02 -0.23803962044E+03  0.39986354773E+03  0.25000000000E+03 0.  0.
    5000001    1    1    2    0    0 -0.17538144340E+03 -0.99846608438E+02 -0.40712289602E+03  0.51862997250E+03  0.25000000000E+03 0.  0.
<mgrwt>
<rscale>  0 0.65375506E+03</rscale>
<asrwt>0</asrwt>
<pdfrwt beam="1">  1        2 0.12028123E+00 0.65375506E+03</pdfrwt>
<pdfrwt beam="2">  1       -2 0.21025462E-01 0.65375506E+03</pdfrwt>
<totfact> 0.69797758E+02</totfact>
</mgrwt>
</event>
<event>
 4    1  0.1720876E-005  0.9338788E+03  0.7818608E-02  0.9384195E-01
          2   -1    0    0  501    0  0.00000000000E+00  0.00000000000E+00  0.18220318007E+04  0.18220318007E+04  0.25500000000E-02 0.  1.
         -2   -1    0    0    0  501 -0.00000000000E+00 -0.00000000000E+00 -0.11966444590E+03  0.11966444593E+03  0.25500000000E-02 0. -1.
   -5000001    1    1    2    0    0  0.39114497304E+03 -0.35960893480E+02  0.92454198039E+03  0.10351644552E+04  0.25000000000E+03 0.  0.
    5000001    1    1    2    0    0 -0.39114497304E+03  0.35960893480E+02  0.77782537440E+03  0.90653179142E+03  0.25000000000E+03 0.  0.
<mgrwt>
<rscale>  0 0.93387885E+03</rscale>
<asrwt>0</asrwt>
<pdfrwt beam="1">  1        2 0.28031257E+00 0.93387885E+03</pdfrwt>
<pdfrwt beam="2">  1       -2 0.18409916E-01 0.93387885E+03</pdfrwt>
<totfact> 0.20815888E+02</totfact>
</mgrwt>
</event>
<event>
 4    1  0.1720876E-005  0.7537609E+03  0.7818608E-02  0.9629468E-01
          2   -1    0    0  501    0  0.00000000000E+00  0.00000000000E+00  0.81820438882E+03  0.81820438882E+03  0.25500000000E-02 0.  1.
         -2   -1    0    0    0  501 -0.00000000000E+00 -0.00000000000E+00 -0.17359828610E+03  0.17359828612E+03  0.25500000000E-02 0. -1.
   -5000001    1    1    2    0    0 -0.55597187206E+02 -0.26102610776E+03  0.20233216572E+03  0.41792820130E+03  0.25000000000E+03 0.  0.
    5000001    1    1    2    0    0  0.55597187206E+02  0.26102610776E+03  0.44227393699E+03  0.57387447364E+03  0.25000000000E+03 0.  0.
<mgrwt>
<rscale>  0 0.75376092E+03</rscale>
<asrwt>0</asrwt>
<pdfrwt beam="1">  1        2 0.12587760E+00 0.75376092E+03</pdfrwt>
<pdfrwt beam="2">  1       -2 0.26707428E-01 0.75376092E+03</pdfrwt>
<totfact> 0.42705950E+02</totfact>
</mgrwt>
</event>
<event>
 4    1  0.1720876E-005  0.6383040E+03  0.7818608E-02  0.9828977E-01
         -2   -1    0    0    0  501 -0.00000000000E+00  0.00000000000E+00  0.26637715550E+03  0.26637715551E+03  0.25500000000E-02 0. -1.
          2   -1    0    0  501    0  0.00000000000E+00 -0.00000000000E+00 -0.38238258734E+03  0.38238258735E+03  0.25500000000E-02 0.  1.
   -5000001    1    1    2    0    0 -0.98152823631E+02  0.16577520409E+03 -0.98709962389E+01  0.31577338654E+03  0.25000000000E+03 0.  0.
    5000001    1    1    2    0    0  0.98152823631E+02 -0.16577520409E+03 -0.10613443560E+03  0.33298635632E+03  0.25000000000E+03 0.  0.
<mgrwt>
<rscale>  0 0.63830396E+03</rscale>
<asrwt>0</asrwt>
<pdfrwt beam="1">  1        2 0.58828090E-01 0.63830396E+03</pdfrwt>
<pdfrwt beam="2">  1       -2 0.40981101E-01 0.63830396E+03</pdfrwt>
<totfact> 0.47567969E+02</totfact>
</mgrwt>
</event>
<event>
 4    1  0.1720876E-005  0.6025157E+03  0.7818608E-02  0.9900201E-01
         -2   -1    0    0    0  501 -0.00000000000E+00  0.00000000000E+00  0.13568991508E+03  0.13568991510E+03  0.25500000000E-02 0. -1.
          2   -1    0    0  501    0  0.00000000000E+00 -0.00000000000E+00 -0.66885064983E+03  0.66885064984E+03  0.25500000000E-02 0.  1.
   -5000001    1    1    2    0    0  0.88356394186E+02 -0.14295176150E+03 -0.26154336059E+03  0.39893231002E+03  0.25000000000E+03 0.  0.
    5000001    1    1    2    0    0 -0.88356394186E+02  0.14295176150E+03 -0.27161737416E+03  0.40560825492E+03  0.25000000000E+03 0.  0.
<mgrwt>
<rscale>  0 0.60251569E+03</rscale>
<asrwt>0</asrwt>
<pdfrwt beam="1">  1        2 0.10290010E+00 0.60251569E+03</pdfrwt>
<pdfrwt beam="2">  1       -2 0.20875372E-01 0.60251569E+03</pdfrwt>
<totfact> 0.86275084E+02</totfact>
</mgrwt>
</event>
<event>
 4    1  0.1720876E-005  0.8098077E+03  0.7818608E-02  0.9545928E-01
          2   -1    0    0  501    0  0.00000000000E+00  0.00000000000E+00  0.26324256077E+04  0.26324256077E+04  0.25500000000E-02 0.  1.
         -2   -1    0    0    0  501 -0.00000000000E+00 -0.00000000000E+00 -0.62279876387E+02  0.62279876440E+02  0.25500000000E-02 0. -1.
   -5000001    1    1    2    0    0 -0.14822268898E+03 -0.27113975438E+03  0.10281708935E+04  0.11023257768E+04  0.25000000000E+03 0.  0.
    5000001    1    1    2    0    0  0.14822268898E+03  0.27113975438E+03  0.15419748378E+04  0.15923797073E+04  0.25000000000E+03 0.  0.
<mgrwt>
<rscale>  0 0.80980773E+03</rscale>
<asrwt>0</asrwt>
<pdfrwt beam="1">  1        2 0.40498848E+00 0.80980773E+03</pdfrwt>
<pdfrwt beam="2">  1       -2 0.95815213E-02 0.80980773E+03</pdfrwt>
<totfact> 0.22201342E+02</totfact>
</mgrwt>
</event>
<event>
 4    1  0.1720876E-005  0.6635139E+03  0.7818608E-02  0.9781747E-01
         -2   -1    0    0    0  501 -0.00000000000E+00  0.00000000000E+00  0.31604997006E+03  0.31604997007E+03  0.25500000000E-02 0. -1.
          2   -1    0    0  501    0  0.00000000000E+00 -0.00000000000E+00 -0.34824450024E+03  0.34824450025E+03  0.25500000000E-02 0.  1.
   -5000001    1    1    2    0    0 -0.68079033160E+02  0.20679056632E+03 -0.32146950238E+01  0.33152289113E+03  0.25000000000E+03 0.  0.
    5000001    1    1    2    0    0  0.68079033160E+02 -0.20679056632E+03 -0.28979835155E+02  0.33277157920E+03  0.25000000000E+03 0.  0.
<mgrwt>
<rscale>  0 0.66351387E+03</rscale>
<asrwt>0</asrwt>
<pdfrwt beam="1">  1        2 0.53576077E-01 0.66351387E+03</pdfrwt>
<pdfrwt beam="2">  1       -2 0.48623073E-01 0.66351387E+03</pdfrwt>
<totfact> 0.37571633E+02</totfact>
</mgrwt>
</event>
<event>
 4    1  0.1720876E-005  0.8659258E+03  0.7818608E-02  0.9469208E-01
          2   -1    0    0  501    0  0.00000000000E+00  0.00000000000E+00  0.51640372514E+03  0.51640372515E+03  0.25500000000E-02 0.  1.
         -2   -1    0    0    0  501 -0.00000000000E+00 -0.00000000000E+00 -0.36300452365E+03  0.36300452366E+03  0.25500000000E-02 0. -1.
   -5000001    1    1    2    0    0 -0.14773112489E+03  0.31638007276E+03  0.13265789662E+03  0.44946518579E+03  0.25000000000E+03 0.  0.
    5000001    1    1    2    0    0  0.14773112489E+03 -0.31638007276E+03  0.20741304878E+02  0.42994306301E+03  0.25000000000E+03 0.  0.
<mgrwt>
<rscale>  0 0.86592584E+03</rscale>
<asrwt>0</asrwt>
<pdfrwt beam="1">  1        2 0.79446727E-01 0.86592584E+03</pdfrwt>
<pdfrwt beam="2">  1       -2 0.55846850E-01 0.86592584E+03</pdfrwt>
<totfact> 0.17950085E+02</totfact>
</mgrwt>
</event>
<event>
 4    1  0.1720876E-005  0.5897433E+03  0.7818608E-02  0.9926917E-01
         -2   -1    0    0    0  501 -0.00000000000E+00  0.00000000000E+00  0.40935406090E+03  0.40935406090E+03  0.25500000000E-02 0. -1.
          2   -1    0    0  501    0  0.00000000000E+00 -0.00000000000E+00 -0.21240608529E+03  0.21240608530E+03  0.25500000000E-02 0.  1.
   -5000001    1    1    2    0    0 -0.13012062136E+03 -0.29876388928E+02  0.12658979531E+02  0.28369741712E+03  0.25000000000E+03 0.  0.
    5000001    1    1    2    0    0  0.13012062136E+03  0.29876388928E+02  0.18428899608E+03  0.33806272908E+03  0.25000000000E+03 0.  0.
<mgrwt>
<rscale>  0 0.58974331E+03</rscale>
<asrwt>0</asrwt>
<pdfrwt beam="1">  1        2 0.32677860E-01 0.58974331E+03</pdfrwt>
<pdfrwt beam="2">  1       -2 0.62977547E-01 0.58974331E+03</pdfrwt>
<totfact> 0.38123623E+02</totfact>
</mgrwt>
</event>
<event>
 4    1  0.1720876E-005  0.7135904E+03  0.7818608E-02  0.9694269E-01
         -2   -1    0    0    0  501 -0.00000000000E+00  0.00000000000E+00  0.79909254377E+02  0.79909254418E+02  0.25500000000E-02 0.  1.
          2   -1    0    0  501    0  0.00000000000E+00 -0.00000000000E+00 -0.15930922224E+04  0.15930922224E+04  0.25500000000E-02 0. -1.
   -5000001    1    1    2    0    0 -0.57246621746E+02  0.24681099310E+03 -0.69868843289E+03  0.78412905078E+03  0.25000000000E+03 0.  0.
    5000001    1    1    2    0    0  0.57246621746E+02 -0.24681099310E+03 -0.81449453512E+03  0.88887242604E+03  0.25000000000E+03 0.  0.
<mgrwt>
<rscale>  0 0.71359039E+03</rscale>
<asrwt>0</asrwt>
<pdfrwt beam="1">  1        2 0.24509109E+00 0.71359039E+03</pdfrwt>
<pdfrwt beam="2">  1       -2 0.12293733E-01 0.71359039E+03</pdfrwt>
<totfact> 0.55908608E+02</totfact>
</mgrwt>
</event>
<event>
 4    1  0.1720876E-005  0.6998733E+03  0.7818608E-02  0.9717449E-01
         -2   -1    0    0    0  501 -0.00000000000E+00  0.00000000000E+00  0.10631514011E+03  0.10631514014E+03  0.25500000000E-02 0. -1.
          2   -1    0    0  501    0  0.00000000000E+00 -0.00000000000E+00 -0.11518177131E+04  0.11518177132E+04  0.25500000000E-02 0.  1.
   -5000001    1    1    2    0    0  0.19406591238E+03 -0.13849235397E+03 -0.42243695846E+03  0.54570568471E+03  0.25000000000E+03 0.  0.
    5000001    1    1    2    0    0 -0.19406591238E+03  0.13849235397E+03 -0.62306561458E+03  0.71242716858E+03  0.25000000000E+03 0.  0.
<mgrwt>
<rscale>  0 0.69987331E+03</rscale>
<asrwt>0</asrwt>
<pdfrwt beam="1">  1        2 0.17720272E+00 0.69987331E+03</pdfrwt>
<pdfrwt beam="2">  1       -2 0.16356176E-01 0.69987331E+03</pdfrwt>
<totfact> 0.61767876E+02</totfact>
</mgrwt>
</event>
<event>
 4    1  0.1720876E-005  0.9423938E+03  0.7818608E-02  0.9374086E-01
         -2   -1    0    0    0  501 -0.00000000000E+00  0.00000000000E+00  0.23674934219E+03  0.23674934220E+03  0.25500000000E-02 0. -1.
          2   -1    0    0  501    0  0.00000000000E+00 -0.00000000000E+00 -0.93781251672E+03  0.93781251672E+03  0.25500000000E-02 0.  1.
   -5000001    1    1    2    0    0  0.33361207947E+03  0.21517182546E+03 -0.40529435845E+03  0.61996729836E+03  0.25000000000E+03 0.  0.
    5000001    1    1    2    0    0 -0.33361207947E+03 -0.21517182546E+03 -0.29576881608E+03  0.55459456057E+03  0.25000000000E+03 0.  0.
<mgrwt>
<rscale>  0 0.94239375E+03</rscale>
<asrwt>0</asrwt>
<pdfrwt beam="1">  1        2 0.14427885E+00 0.94239375E+03</pdfrwt>
<pdfrwt beam="2">  1       -2 0.36422976E-01 0.94239375E+03</pdfrwt>
<totfact> 0.19625570E+02</totfact>
</mgrwt>
</event>
<event>
 4    1  0.1720876E-005  0.5983887E+03  0.7818608E-02  0.9908755E-01
          2   -1    0    0  501    0  0.00000000000E+00  0.00000000000E+00  0.13346712687E+04  0.13346712687E+04  0.25500000000E-02 0.  1.
         -2   -1    0    0    0  501 -0.00000000000E+00 -0.00000000000E+00 -0.67070651678E+02  0.67070651726E+02  0.25500000000E-02 0. -1.
   -5000001    1    1    2    0    0  0.74622807648E+02  0.76802276071E+00  0.29073306947E+03  0.39063393473E+03  0.25000000000E+03 0.  0.
    5000001    1    1    2    0    0 -0.74622807648E+02 -0.76802276071E+00  0.97686754755E+03  0.10111079857E+04  0.25000000000E+03 0.  0.
<mgrwt>
<rscale>  0 0.59838874E+03</rscale>
<asrwt>0</asrwt>
<pdfrwt beam="1">  1        2 0.20533402E+00 0.59838874E+03</pdfrwt>
<pdfrwt beam="2">  1       -2 0.10318563E-01 0.59838874E+03</pdfrwt>
<totfact> 0.10443800E+03</totfact>
</mgrwt>
</event>
<event>
 4    1  0.1720876E-005  0.8486184E+03  0.7818608E-02  0.9492193E-01
         -2   -1    0    0    0  501 -0.00000000000E+00  0.00000000000E+00  0.14740073347E+03  0.14740073350E+03  0.25500000000E-02 0. -1.
          2   -1    0    0  501    0  0.00000000000E+00 -0.00000000000E+00 -0.12214206921E+04  0.12214206921E+04  0.25500000000E-02 0.  1.
   -5000001    1    1    2    0    0  0.30680638203E+03  0.14538688430E+03 -0.61387418423E+03  0.74472076394E+03  0.25000000000E+03 0.  0.
    5000001    1    1    2    0    0 -0.30680638203E+03 -0.14538688430E+03 -0.46014577440E+03  0.62410066166E+03  0.25000000000E+03 0.  0.
<mgrwt>
<rscale>  0 0.84861842E+03</rscale>
<asrwt>0</asrwt>
<pdfrwt beam="1">  1        2 0.18791087E+00 0.84861842E+03</pdfrwt>
<pdfrwt beam="2">  1       -2 0.22677037E-01 0.84861842E+03</pdfrwt>
<totfact> 0.31549552E+02</totfact>
</mgrwt>
</event>
<event>
 4    1  0.1720876E-005  0.7668004E+03  0.7818608E-02  0.9609356E-01
          2   -1    0    0  501    0  0.00000000000E+00  0.00000000000E+00  0.28698553752E+04  0.28698553752E+04  0.25500000000E-02 0.  1.
         -2   -1    0    0    0  501 -0.00000000000E+00 -0.00000000000E+00 -0.51220603683E+02  0.51220603746E+02  0.25500000000E-02 0. -1.
   -5000001    1    1    2    0    0  0.21275064310E+03 -0.18276551355E+03  0.11184587500E+04  0.11798796738E+04  0.25000000000E+03 0.  0.
    5000001    1    1    2    0    0 -0.21275064310E+03  0.18276551355E+03  0.17001760215E+04  0.17411963051E+04  0.25000000000E+03 0.  0.
<mgrwt>
<rscale>  0 0.76680043E+03</rscale>
<asrwt>0</asrwt>
<pdfrwt beam="1">  1        2 0.44151621E+00 0.76680043E+03</pdfrwt>
<pdfrwt beam="2">  1       -2 0.78800928E-02 0.76680043E+03</pdfrwt>
<totfact> 0.22161314E+02</totfact>
</mgrwt>
</event>
<event>
 4    1  0.1720876E-005  0.7812636E+03  0.7818608E-02  0.9587540E-01
          2   -1    0    0  501    0  0.00000000000E+00  0.00000000000E+00  0.15698806291E+04  0.15698806291E+04  0.25500000000E-02 0.  1.
         -2   -1    0    0    0  501 -0.00000000000E+00 -0.00000000000E+00 -0.97200507383E+02  0.97200507417E+02  0.25500000000E-02 0. -1.
   -5000001    1    1    2    0    0 -0.24292249205E+03  0.12269253080E+03  0.10064896049E+04  0.10721875391E+04  0.25000000000E+03 0.  0.
    5000001    1    1    2    0    0  0.24292249205E+03 -0.12269253080E+03  0.46619051678E+03  0.59489359737E+03  0.25000000000E+03 0.  0.
<mgrwt>
<rscale>  0 0.78126358E+03</rscale>
<asrwt>0</asrwt>
<pdfrwt beam="1">  1        2 0.24152007E+00 0.78126358E+03</pdfrwt>
<pdfrwt beam="2">  1       -2 0.14953926E-01 0.78126358E+03</pdfrwt>
<totfact> 0.41321597E+02</totfact>
</mgrwt>
</event>
<event>
 4    1  0.1720876E-005  0.6926314E+03  0.7818608E-02  0.9729917E-01
         -2   -1    0    0    0  501 -0.00000000000E+00  0.00000000000E+00  0.56923084969E+03  0.56923084970E+03  0.25500000000E-02 0. -1.
          2   -1    0    0  501    0  0.00000000000E+00 -0.00000000000E+00 -0.21069579788E+03  0.21069579789E+03  0.25500000000E-02 0.  1.
   -5000001    1    1    2    0    0 -0.25567696320E+02  0.23008316643E+03  0.10946631944E+03  0.35787546110E+03  0.25000000000E+03 0.  0.
    5000001    1    1    2    0    0  0.25567696320E+02 -0.23008316643E+03  0.24906873238E+03  0.42205118649E+03  0.25000000000E+03 0.  0.
<mgrwt>
<rscale>  0 0.69263135E+03</rscale>
<asrwt>0</asrwt>
<pdfrwt beam="1">  1        2 0.32414738E-01 0.69263135E+03</pdfrwt>
<pdfrwt beam="2">  1       -2 0.87573976E-01 0.69263135E+03</pdfrwt>
<totfact> 0.18539357E+02</totfact>
</mgrwt>
</event>
<event>
 4    1  0.1720876E-005  0.9813936E+03  0.7818608E-02  0.9329191E-01
         -2   -1    0    0    0  501 -0.00000000000E+00  0.00000000000E+00  0.53861860169E+03  0.53861860170E+03  0.25500000000E-02 0. -1.
          2   -1    0    0  501    0  0.00000000000E+00 -0.00000000000E+00 -0.44703869561E+03  0.44703869561E+03  0.25500000000E-02 0.  1.
   -5000001    1    1    2    0    0  0.16270422308E+03  0.35219943742E+03  0.21314596639E+03  0.50837811806E+03  0.25000000000E+03 0.  0.
    5000001    1    1    2    0    0 -0.16270422308E+03 -0.35219943742E+03 -0.12156606031E+03  0.47727917925E+03  0.25000000000E+03 0.  0.
<mgrwt>
<rscale>  0 0.98139362E+03</rscale>
<asrwt>0</asrwt>
<pdfrwt beam="1">  1        2 0.68775183E-01 0.98139362E+03</pdfrwt>
<pdfrwt beam="2">  1       -2 0.82864401E-01 0.98139362E+03</pdfrwt>
<totfact> 0.89467166E+01</totfact>
</mgrwt>
</event>
<event>
 4    1  0.1720876E-005  0.9215701E+03  0.7818608E-02  0.9399012E-01
         -2   -1    0    0    0  501 -0.00000000000E+00  0.00000000000E+00  0.11882122673E+03  0.11882122676E+03  0.25500000000E-02 0. -1.
          2   -1    0    0  501    0  0.00000000000E+00 -0.00000000000E+00 -0.17869100949E+04  0.17869100949E+04  0.25500000000E-02 0.  1.
   -5000001    1    1    2    0    0  0.22399036814E+03 -0.98185841969E+02 -0.21363214641E+03  0.40981805544E+03  0.25000000000E+03 0.  0.
    5000001    1    1    2    0    0 -0.22399036814E+03  0.98185841969E+02 -0.14544567218E+04  0.14959132662E+04  0.25000000000E+03 0.  0.
<mgrwt>
<rscale>  0 0.92157007E+03</rscale>
<asrwt>0</asrwt>
<pdfrwt beam="1">  1        2 0.27490923E+00 0.92157007E+03</pdfrwt>
<pdfrwt beam="2">  1       -2 0.18280190E-01 0.92157007E+03</pdfrwt>
<totfact> 0.22048114E+02</totfact>
</mgrwt>
</event>
<event>
 4    1  0.1720876E-005  0.1230533E+04  0.7818608E-02  0.9086543E-01
          2   -1    0    0  501    0  0.00000000000E+00  0.00000000000E+00  0.36803853165E+04  0.36803853165E+04  0.25500000000E-02 0.  1.
         -2   -1    0    0    0  501 -0.00000000000E+00 -0.00000000000E+00 -0.10285688147E+03  0.10285688150E+03  0.25500000000E-02 0. -1.
   -5000001    1    1    2    0    0 -0.32205850492E+03  0.28671348048E+03  0.67970697359E+03  0.84286883346E+03  0.25000000000E+03 0.  0.
    5000001    1    1    2    0    0  0.32205850492E+03 -0.28671348048E+03  0.28978214615E+04  0.29403733646E+04  0.25000000000E+03 0.  0.
<mgrwt>
<rscale>  0 0.12305331E+04</rscale>
<asrwt>0</asrwt>
<pdfrwt beam="1">  1        2 0.56621302E+00 0.12305331E+04</pdfrwt>
<pdfrwt beam="2">  1       -2 0.15824138E-01 0.12305331E+04</pdfrwt>
<totfact> 0.19609851E+01</totfact>
</mgrwt>
</event>
<event>
 4    1  0.1720876E-005  0.6646767E+03  0.7818608E-02  0.9779623E-01
          2   -1    0    0  501    0  0.00000000000E+00  0.00000000000E+00  0.96102110208E+02  0.96102110242E+02  0.25500000000E-02 0.  1.
         -2   -1    0    0    0  501 -0.00000000000E+00 -0.00000000000E+00 -0.11492856193E+04  0.11492856193E+04  0.25500000000E-02 0. -1.
   -5000001    1    1    2    0    0  0.28201564681E+02  0.19291836674E+03 -0.71335818164E+03  0.78063609946E+03  0.25000000000E+03 0.  0.
    5000001    1    1    2    0    0 -0.28201564681E+02 -0.19291836674E+03 -0.33982532742E+03  0.46475163005E+03  0.25000000000E+03 0.  0.
<mgrwt>
<rscale>  0 0.66467668E+03</rscale>
<asrwt>0</asrwt>
<pdfrwt beam="1">  1        2 0.14784941E-01 0.66467668E+03</pdfrwt>
<pdfrwt beam="2">  1       -2 0.17681316E+00 0.66467668E+03</pdfrwt>
<totfact> 0.79291572E+01</totfact>
</mgrwt>
</event>
<event>
 4    1  0.1720876E-005  0.7072957E+03  0.7818608E-02  0.9704836E-01
          2   -1    0    0  501    0  0.00000000000E+00  0.00000000000E+00  0.68895969669E+03  0.68895969670E+03  0.25500000000E-02 0.  1.
         -2   -1    0    0    0  501 -0.00000000000E+00 -0.00000000000E+00 -0.18152993825E+03  0.18152993827E+03  0.25500000000E-02 0. -1.
   -5000001    1    1    2    0    0 -0.17309333967E+03 -0.71923577840E+02  0.49872109830E+02  0.31641986762E+03  0.25000000000E+03 0.  0.
    5000001    1    1    2    0    0  0.17309333967E+03  0.71923577840E+02  0.45755764861E+03  0.55406976735E+03  0.25000000000E+03 0.  0.
<mgrwt>
<rscale>  0 0.70729573E+03</rscale>
<asrwt>0</asrwt>
<pdfrwt beam="1">  1        2 0.10599380E+00 0.70729573E+03</pdfrwt>
<pdfrwt beam="2">  1       -2 0.27927683E-01 0.70729573E+03</pdfrwt>
<totfact> 0.49235703E+02</totfact>
</mgrwt>
</event>
<event>
 4    1  0.1720876E-005  0.6462636E+03  0.7818608E-02  0.9813816E-01
          2   -1    0    0  501    0  0.00000000000E+00  0.00000000000E+00  0.13640225121E+04  0.13640225121E+04  0.25500000000E-02 0.  1.
         -2   -1    0    0    0  501 -0.00000000000E+00 -0.00000000000E+00 -0.76548700495E+02  0.76548700537E+02  0.25500000000E-02 0. -1.
   -5000001    1    1    2    0    0  0.18942268991E+03 -0.26268734529E+02  0.48079841291E+03  0.57466348042E+03  0.25000000000E+03 0.  0.
    5000001    1    1    2    0    0 -0.18942268991E+03  0.26268734529E+02  0.80667539872E+03  0.86590773225E+03  0.25000000000E+03 0.  0.
<mgrwt>
<rscale>  0 0.64626357E+03</rscale>
<asrwt>0</asrwt>
<pdfrwt beam="1">  1        2 0.20984961E+00 0.64626357E+03</pdfrwt>
<pdfrwt beam="2">  1       -2 0.11776723E-01 0.64626357E+03</pdfrwt>
<totfact> 0.80802165E+02</totfact>
</mgrwt>
</event>
<event>
 4    1  0.1720876E-005  0.6426672E+03  0.7818608E-02  0.9820637E-01
         -2   -1    0    0    0  501 -0.00000000000E+00  0.00000000000E+00  0.78591829977E+02  0.78591830019E+02  0.25500000000E-02 0. -1.
          2   -1    0    0  501    0  0.00000000000E+00 -0.00000000000E+00 -0.13138170730E+04  0.13138170730E+04  0.25500000000E-02 0.  1.
   -5000001    1    1    2    0    0 -0.18695725814E+03  0.59768941407E+02 -0.71992489890E+03  0.78696709130E+03  0.25000000000E+03 0.  0.
    5000001    1    1    2    0    0  0.18695725814E+03 -0.59768941407E+02 -0.51530034410E+03  0.60544181170E+03  0.25000000000E+03 0.  0.
<mgrwt>
<rscale>  0 0.64266722E+03</rscale>
<asrwt>0</asrwt>
<pdfrwt beam="1">  1        2 0.20212569E+00 0.64266722E+03</pdfrwt>
<pdfrwt beam="2">  1       -2 0.12091052E-01 0.64266722E+03</pdfrwt>
<totfact> 0.82640232E+02</totfact>
</mgrwt>
</event>
<event>
 4    1  0.1720876E-005  0.6742319E+03  0.7818608E-02  0.9762343E-01
          2   -1    0    0  501    0  0.00000000000E+00  0.00000000000E+00  0.67867074036E+03  0.67867074037E+03  0.25500000000E-02 0.  1.
         -2   -1    0    0    0  501 -0.00000000000E+00 -0.00000000000E+00 -0.16745550019E+03  0.16745550021E+03  0.25500000000E-02 0. -1.
   -5000001    1    1    2    0    0  0.18591379640E+03 -0.21413905325E+02  0.41496459953E+03  0.51934392641E+03  0.25000000000E+03 0.  0.
    5000001    1    1    2    0    0 -0.18591379640E+03  0.21413905325E+02  0.96250640637E+02  0.32678231417E+03  0.25000000000E+03 0.  0.
<mgrwt>
<rscale>  0 0.67423185E+03</rscale>
<asrwt>0</asrwt>
<pdfrwt beam="1">  1        2 0.10441088E+00 0.67423185E+03</pdfrwt>
<pdfrwt beam="2">  1       -2 0.25762385E-01 0.67423185E+03</pdfrwt>
<totfact> 0.58166956E+02</totfact>
</mgrwt>
</event>
<event>
 4    1  0.1720876E-005  0.6182321E+03  0.7818608E-02  0.9868286E-01
          2   -1    0    0  501    0  0.00000000000E+00  0.00000000000E+00  0.38694125299E+02  0.38694125383E+02  0.25500000000E-02 0.  1.
         -2   -1    0    0    0  501 -0.00000000000E+00 -0.00000000000E+00 -0.24694379856E+04  0.24694379856E+04  0.25500000000E-02 0. -1.
   -5000001    1    1    2    0    0 -0.31023732651E+02  0.17613032902E+03 -0.13479773678E+04  0.13825799611E+04  0.25000000000E+03 0.  0.
    5000001    1    1    2    0    0  0.31023732651E+02 -0.17613032902E+03 -0.10827664925E+04  0.11255521499E+04  0.25000000000E+03 0.  0.
<mgrwt>
<rscale>  0 0.61823213E+03</rscale>
<asrwt>0</asrwt>
<pdfrwt beam="1">  1        2 0.59529443E-02 0.61823213E+03</pdfrwt>
<pdfrwt beam="2">  1       -2 0.37991341E+00 0.61823213E+03</pdfrwt>
<totfact> 0.14156408E+01</totfact>
</mgrwt>
</event>
<event>
 4    1  0.1720876E-005  0.9320277E+03  0.7818608E-02  0.9386408E-01
          2   -1    0    0  501    0  0.00000000000E+00  0.00000000000E+00  0.17559737252E+04  0.17559737252E+04  0.25500000000E-02 0.  1.
         -2   -1    0    0    0  501 -0.00000000000E+00 -0.00000000000E+00 -0.12367433727E+03  0.12367433730E+03  0.25500000000E-02 0. -1.
   -5000001    1    1    2    0    0 -0.95109738572E+02  0.34700141136E+03  0.11363784968E+04  0.12179129402E+04  0.25000000000E+03 0.  0.
    5000001    1    1    2    0    0  0.95109738572E+02 -0.34700141136E+03  0.49592089110E+03  0.66173512230E+03  0.25000000000E+03 0.  0.
<mgrwt>
<rscale>  0 0.93202765E+03</rscale>
<asrwt>0</asrwt>
<pdfrwt beam="1">  1        2 0.27014979E+00 0.93202765E+03</pdfrwt>
<pdfrwt beam="2">  1       -2 0.19026822E-01 0.93202765E+03</pdfrwt>
<totfact> 0.21370441E+02</totfact>
</mgrwt>
</event>
<event>
 4    1  0.1720876E-005  0.5548697E+03  0.7818608E-02  0.1000373E+00
         -2   -1    0    0    0  501 -0.00000000000E+00  0.00000000000E+00  0.19514922563E+03  0.19514922565E+03  0.25500000000E-02 0. -1.
          2   -1    0    0  501    0  0.00000000000E+00 -0.00000000000E+00 -0.39441666676E+03  0.39441666677E+03  0.25500000000E-02 0.  1.
   -5000001    1    1    2    0    0 -0.87192163119E+02  0.42716442256E+02 -0.24179561673E+02  0.26928018670E+03  0.25000000000E+03 0.  0.
    5000001    1    1    2    0    0  0.87192163119E+02 -0.42716442256E+02 -0.17508787946E+03  0.32028570571E+03  0.25000000000E+03 0.  0.
<mgrwt>
<rscale>  0 0.55486974E+03</rscale>
<asrwt>0</asrwt>
<pdfrwt beam="1">  1        2 0.60679487E-01 0.55486974E+03</pdfrwt>
<pdfrwt beam="2">  1       -2 0.30022958E-01 0.55486974E+03</pdfrwt>
<totfact> 0.83048068E+02</totfact>
</mgrwt>
</event>
<event>
 4    1  0.1720876E-005  0.8164085E+03  0.7818608E-02  0.9536566E-01
         -2   -1    0    0    0  501 -0.00000000000E+00  0.00000000000E+00  0.46530643038E+02  0.46530643108E+02  0.25500000000E-02 0. -1.
          2   -1    0    0  501    0  0.00000000000E+00 -0.00000000000E+00 -0.35810963401E+04  0.35810963401E+04  0.25500000000E-02 0.  1.
   -5000001    1    1    2    0    0 -0.42059431795E+02  0.29499642942E+03 -0.12169680837E+04  0.12776162202E+04  0.25000000000E+03 0.  0.
    5000001    1    1    2    0    0  0.42059431795E+02 -0.29499642942E+03 -0.23175976133E+04  0.23500107630E+04  0.25000000000E+03 0.  0.
<mgrwt>
<rscale>  0 0.81640851E+03</rscale>
<asrwt>0</asrwt>
<pdfrwt beam="1">  1        2 0.55093768E+00 0.81640851E+03</pdfrwt>
<pdfrwt beam="2">  1       -2 0.71585633E-02 0.81640851E+03</pdfrwt>
<totfact> 0.89544729E+01</totfact>
</mgrwt>
</event>
<event>
 4    1  0.1720876E-005  0.7463516E+03  0.7818608E-02  0.9641092E-01
          2   -1    0    0  501    0  0.00000000000E+00  0.00000000000E+00  0.34409780649E+03  0.34409780650E+03  0.25500000000E-02 0.  1.
         -2   -1    0    0    0  501 -0.00000000000E+00 -0.00000000000E+00 -0.40471097678E+03  0.40471097678E+03  0.25500000000E-02 0. -1.
   -5000001    1    1    2    0    0  0.15168815263E+03 -0.80563654993E+02  0.18780363127E+03  0.35674921453E+03  0.25000000000E+03 0.  0.
    5000001    1    1    2    0    0 -0.15168815263E+03  0.80563654993E+02 -0.24841680156E+03  0.39205956875E+03  0.25000000000E+03 0.  0.
<mgrwt>
<rscale>  0 0.74635155E+03</rscale>
<asrwt>0</asrwt>
<pdfrwt beam="1">  1        2 0.52938124E-01 0.74635155E+03</pdfrwt>
<pdfrwt beam="2">  1       -2 0.62263227E-01 0.74635155E+03</pdfrwt>
<totfact> 0.22752288E+02</totfact>
</mgrwt>
</event>
<event>
 4    1  0.1720876E-005  0.5990081E+03  0.7818608E-02  0.9907466E-01
          2   -1    0    0  501    0  0.00000000000E+00  0.00000000000E+00  0.17344895996E+04  0.17344895996E+04  0.25500000000E-02 0.  1.
         -2   -1    0    0    0  501 -0.00000000000E+00 -0.00000000000E+00 -0.51717052753E+02  0.51717052816E+02  0.25500000000E-02 0. -1.
   -5000001    1    1    2    0    0 -0.32632527985E+02  0.15295666200E+03  0.68523768196E+03  0.74599685194E+03  0.25000000000E+03 0.  0.
    5000001    1    1    2    0    0  0.32632527985E+02 -0.15295666200E+03  0.99753486489E+03  0.10402098005E+04  0.25000000000E+03 0.  0.
<mgrwt>
<rscale>  0 0.59900815E+03</rscale>
<asrwt>0</asrwt>
<pdfrwt beam="1">  1        2 0.26684451E+00 0.59900815E+03</pdfrwt>
<pdfrwt beam="2">  1       -2 0.79564708E-02 0.59900815E+03</pdfrwt>
<totfact> 0.95472743E+02</totfact>
</mgrwt>
</event>
<event>
 4    1  0.1720876E-005  0.1044556E+04  0.7818608E-02  0.9260983E-01
         -2   -1    0    0    0  501 -0.00000000000E+00  0.00000000000E+00  0.14128716643E+03  0.14128716645E+03  0.25500000000E-02 0. -1.
          2   -1    0    0  501    0  0.00000000000E+00 -0.00000000000E+00 -0.19306383215E+04  0.19306383215E+04  0.25500000000E-02 0.  1.
   -5000001    1    1    2    0    0  0.42261690232E+03 -0.15842053896E+03 -0.73386998109E+03  0.89708821330E+03  0.25000000000E+03 0.  0.
    5000001    1    1    2    0    0 -0.42261690232E+03  0.15842053896E+03 -0.10554811740E+04  0.11748372747E+04  0.25000000000E+03 0.  0.
<mgrwt>
<rscale>  0 0.10445562E+04</rscale>
<asrwt>0</asrwt>
<pdfrwt beam="1">  1        2 0.29702126E+00 0.10445562E+04</pdfrwt>
<pdfrwt beam="2">  1       -2 0.21736489E-01 0.10445562E+04</pdfrwt>
<totfact> 0.13444376E+02</totfact>
</mgrwt>
</event>
<event>
 4    1  0.1720876E-005  0.2333250E+04  0.7818608E-02  0.8464925E-01
         -2   -1    0    0    0  501 -0.00000000000E+00  0.00000000000E+00  0.82177231767E+03  0.82177231768E+03  0.25500000000E-02 0. -1.
          2   -1    0    0  501    0  0.00000000000E+00 -0.00000000000E+00 -0.16561936988E+04  0.16561936988E+04  0.25500000000E-02 0.  1.
   -5000001    1    1    2    0    0 -0.60672345717E+03 -0.95483913870E+03 -0.27204722057E+03  0.11901011825E+04  0.25000000000E+03 0.  0.
    5000001    1    1    2    0    0  0.60672345717E+03  0.95483913870E+03 -0.56237416057E+03  0.12878648340E+04  0.25000000000E+03 0.  0.
<mgrwt>
<rscale>  0 0.23332502E+04</rscale>
<asrwt>0</asrwt>
<pdfrwt beam="1">  1        2 0.25479903E+00 0.23332502E+04</pdfrwt>
<pdfrwt beam="2">  1       -2 0.12642651E+00 0.23332502E+04</pdfrwt>
<totfact> 0.43714399E+00</totfact>
</mgrwt>
</event>
<event>
 4    1  0.1720876E-005  0.7060551E+03  0.7818608E-02  0.9706933E-01
          2   -1    0    0  501    0  0.00000000000E+00  0.00000000000E+00  0.10119766840E+04  0.10119766840E+04  0.25500000000E-02 0.  1.
         -2   -1    0    0    0  501 -0.00000000000E+00 -0.00000000000E+00 -0.12315348807E+03  0.12315348810E+03  0.25500000000E-02 0. -1.
   -5000001    1    1    2    0    0  0.21578878471E+03 -0.12204730088E+03  0.40285569252E+03  0.53502621642E+03  0.25000000000E+03 0.  0.
    5000001    1    1    2    0    0 -0.21578878471E+03  0.12204730088E+03  0.48596750339E+03  0.60010395567E+03  0.25000000000E+03 0.  0.
<mgrwt>
<rscale>  0 0.70605512E+03</rscale>
<asrwt>0</asrwt>
<pdfrwt beam="1">  1        2 0.15568872E+00 0.70605512E+03</pdfrwt>
<pdfrwt beam="2">  1       -2 0.18946690E-01 0.70605512E+03</pdfrwt>
<totfact> 0.58458582E+02</totfact>
</mgrwt>
</event>
<event>
 4    1  0.1720876E-005  0.8442599E+03  0.7818608E-02  0.9498074E-01
          2   -1    0    0  501    0  0.00000000000E+00  0.00000000000E+00  0.61179278218E+03  0.61179278219E+03  0.25500000000E-02 0.  1.
         -2   -1    0    0    0  501 -0.00000000000E+00 -0.00000000000E+00 -0.29126480301E+03  0.29126480302E+03  0.25500000000E-02 0. -1.
   -5000001    1    1    2    0    0 -0.31670764864E+03  0.33811798844E+02  0.28793635208E+03  0.49684435721E+03  0.25000000000E+03 0.  0.
    5000001    1    1    2    0    0  0.31670764864E+03 -0.33811798844E+02  0.32591627089E+02  0.40621322800E+03  0.25000000000E+03 0.  0.
<mgrwt>
<rscale>  0 0.84425992E+03</rscale>
<asrwt>0</asrwt>
<pdfrwt beam="1">  1        2 0.94121965E-01 0.84425992E+03</pdfrwt>
<pdfrwt beam="2">  1       -2 0.44809970E-01 0.84425992E+03</pdfrwt>
<totfact> 0.22993167E+02</totfact>
</mgrwt>
</event>
<event>
 4    1  0.1720876E-005  0.7967477E+03  0.7818608E-02  0.9564737E-01
         -2   -1    0    0    0  501 -0.00000000000E+00  0.00000000000E+00  0.21782081257E+03  0.21782081259E+03  0.25500000000E-02 0. -1.
          2   -1    0    0  501    0  0.00000000000E+00 -0.00000000000E+00 -0.72858837477E+03  0.72858837478E+03  0.25500000000E-02 0.  1.
   -5000001    1    1    2    0    0  0.57017795012E+02  0.12903695616E+03 -0.58349481335E+03  0.65028283247E+03  0.25000000000E+03 0.  0.
    5000001    1    1    2    0    0 -0.57017795012E+02 -0.12903695616E+03  0.72727251146E+02  0.29612635489E+03  0.25000000000E+03 0.  0.
<mgrwt>
<rscale>  0 0.79674767E+03</rscale>
<asrwt>0</asrwt>
<pdfrwt beam="1">  1        2 0.11209052E+00 0.79674767E+03</pdfrwt>
<pdfrwt beam="2">  1       -2 0.33510895E-01 0.79674767E+03</pdfrwt>
<totfact> 0.32565665E+02</totfact>
</mgrwt>
</event>
<event>
 4    1  0.1720876E-005  0.1243809E+04  0.7818608E-02  0.9075352E-01
         -2   -1    0    0    0  501 -0.00000000000E+00  0.00000000000E+00  0.16921730385E+03  0.16921730387E+03  0.25500000000E-02 0. -1.
          2   -1    0    0  501    0  0.00000000000E+00 -0.00000000000E+00 -0.22856131096E+04  0.22856131096E+04  0.25500000000E-02 0.  1.
   -5000001    1    1    2    0    0 -0.52655810739E+03  0.10519922811E+03 -0.68406457394E+03  0.90486167970E+03  0.25000000000E+03 0.  0.
    5000001    1    1    2    0    0  0.52655810739E+03 -0.10519922811E+03 -0.14323312318E+04  0.15499687337E+04  0.25000000000E+03 0.  0.
<mgrwt>
<rscale>  0 0.12438091E+04</rscale>
<asrwt>0</asrwt>
<pdfrwt beam="1">  1        2 0.35163276E+00 0.12438091E+04</pdfrwt>
<pdfrwt beam="2">  1       -2 0.26033433E-01 0.12438091E+04</pdfrwt>
<totfact> 0.60770481E+01</totfact>
</mgrwt>
</event>
<event>
 4    1  0.1720876E-005  0.8523719E+03  0.7818608E-02  0.9487159E-01
          2   -1    0    0  501    0  0.00000000000E+00  0.00000000000E+00  0.24772439097E+04  0.24772439097E+04  0.25500000000E-02 0. -1.
         -2   -1    0    0    0  501 -0.00000000000E+00 -0.00000000000E+00 -0.73321184559E+02  0.73321184604E+02  0.25500000000E-02 0.  1.
   -5000001    1    1    2    0    0 -0.10863349494E+03  0.32195764559E+03  0.10205249899E+04  0.11042776901E+04  0.25000000000E+03 0.  0.
    5000001    1    1    2    0    0  0.10863349494E+03 -0.32195764559E+03  0.13833977353E+04  0.14462874043E+04  0.25000000000E+03 0.  0.
<mgrwt>
<rscale>  0 0.85237189E+03</rscale>
<asrwt>0</asrwt>
<pdfrwt beam="1">  1        2 0.38111443E+00 0.85237189E+03</pdfrwt>
<pdfrwt beam="2">  1       -2 0.11280183E-01 0.85237189E+03</pdfrwt>
<totfact> 0.20774307E+02</totfact>
</mgrwt>
</event>
<event>
 4    1  0.1720876E-005  0.1311623E+04  0.7818608E-02  0.9020398E-01
          2   -1    0    0  501    0  0.00000000000E+00  0.00000000000E+00  0.20641505528E+04  0.20641505528E+04  0.25500000000E-02 0.  1.
         -2   -1    0    0    0  501 -0.00000000000E+00 -0.00000000000E+00 -0.20836116586E+03  0.20836116588E+03  0.25500000000E-02 0. -1.
   -5000001    1    1    2    0    0  0.55376464547E+03 -0.92555994666E+02  0.13243786158E+04  0.14600344560E+04  0.25000000000E+03 0.  0.
    5000001    1    1    2    0    0 -0.55376464547E+03  0.92555994666E+02  0.53141077121E+03  0.81247726274E+03  0.25000000000E+03 0.  0.
<mgrwt>
<rscale>  0 0.13116231E+04</rscale>
<asrwt>0</asrwt>
<pdfrwt beam="1">  1        2 0.31756162E+00 0.13116231E+04</pdfrwt>
<pdfrwt beam="2">  1       -2 0.32055564E-01 0.13116231E+04</pdfrwt>
<totfact> 0.54629844E+01</totfact>
</mgrwt>
</event>
<event>
 4    1  0.1720876E-005  0.6003251E+03  0.7818608E-02  0.9904732E-01
          2   -1    0    0  501    0  0.00000000000E+00  0.00000000000E+00  0.63619337437E+03  0.63619337438E+03  0.25500000000E-02 0.  1.
         -2   -1    0    0    0  501 -0.00000000000E+00 -0.00000000000E+00 -0.14161977685E+03  0.14161977687E+03  0.25500000000E-02 0. -1.
   -5000001    1    1    2    0    0  0.10956765431E+03 -0.11814560179E+03  0.29966244049E+03  0.42220970184E+03  0.25000000000E+03 0.  0.
    5000001    1    1    2    0    0 -0.10956765431E+03  0.11814560179E+03  0.19491115704E+03  0.35560344941E+03  0.25000000000E+03 0.  0.
<mgrwt>
<rscale>  0 0.60032512E+03</rscale>
<asrwt>0</asrwt>
<pdfrwt beam="1">  1        2 0.97875906E-01 0.60032512E+03</pdfrwt>
<pdfrwt beam="2">  1       -2 0.21787658E-01 0.60032512E+03</pdfrwt>
<totfact> 0.85097103E+02</totfact>
</mgrwt>
</event>
<event>
 4    1  0.1720876E-005  0.7264172E+03  0.7818608E-02  0.9673092E-01
          2   -1    0    0  501    0  0.00000000000E+00  0.00000000000E+00  0.13255447233E+04  0.13255447233E+04  0.25500000000E-02 0. -1.
         -2   -1    0    0    0  501 -0.00000000000E+00 -0.00000000000E+00 -0.99521711001E+02  0.99521711034E+02  0.25500000000E-02 0.  1.
   -5000001    1    1    2    0    0 -0.27150649674E+02  0.16266794103E+03  0.10161189174E+04  0.10593373736E+04  0.25000000000E+03 0.  0.
    5000001    1    1    2    0    0  0.27150649674E+02 -0.16266794103E+03  0.20990409493E+03  0.36572906076E+03  0.25000000000E+03 0.  0.
<mgrwt>
<rscale>  0 0.72641718E+03</rscale>
<asrwt>0</asrwt>
<pdfrwt beam="1">  1        2 0.20392995E+00 0.72641718E+03</pdfrwt>
<pdfrwt beam="2">  1       -2 0.15311033E-01 0.72641718E+03</pdfrwt>
<totfact> 0.54620620E+02</totfact>
</mgrwt>
</event>
<event>
 4    1  0.1720876E-005  0.1033854E+04  0.7818608E-02  0.9272174E-01
          2   -1    0    0  501    0  0.00000000000E+00  0.00000000000E+00  0.90371753291E+03  0.90371753291E+03  0.25500000000E-02 0.  1.
         -2   -1    0    0    0  501 -0.00000000000E+00 -0.00000000000E+00 -0.29568251052E+03  0.29568251053E+03  0.25500000000E-02 0. -1.
   -5000001    1    1    2    0    0 -0.37199507782E+03  0.15912297104E+03  0.53896224767E+03  0.71880509336E+03  0.25000000000E+03 0.  0.
    5000001    1    1    2    0    0  0.37199507782E+03 -0.15912297104E+03  0.69072774722E+02  0.48059495008E+03  0.25000000000E+03 0.  0.
<mgrwt>
<rscale>  0 0.10338539E+04</rscale>
<asrwt>0</asrwt>
<pdfrwt beam="1">  1        2 0.13903347E+00 0.10338539E+04</pdfrwt>
<pdfrwt beam="2">  1       -2 0.45489617E-01 0.10338539E+04</pdfrwt>
<totfact> 0.13308796E+02</totfact>
</mgrwt>
</event>
<event>
 4    1  0.1720876E-005  0.8737954E+03  0.7818608E-02  0.9458945E-01
          2   -1    0    0  501    0  0.00000000000E+00  0.00000000000E+00  0.10016960603E+04  0.10016960603E+04  0.25500000000E-02 0.  1.
         -2   -1    0    0    0  501 -0.00000000000E+00 -0.00000000000E+00 -0.19055639622E+03  0.19055639624E+03  0.25500000000E-02 0. -1.
   -5000001    1    1    2    0    0 -0.10271062482E+03 -0.32283120686E+03  0.56475024668E+03  0.70442338242E+03  0.25000000000E+03 0.  0.
    5000001    1    1    2    0    0  0.10271062482E+03  0.32283120686E+03  0.24638941742E+03  0.48782907415E+03  0.25000000000E+03 0.  0.
<mgrwt>
<rscale>  0 0.87379538E+03</rscale>
<asrwt>0</asrwt>
<pdfrwt beam="1">  1        2 0.15410709E+00 0.87379538E+03</pdfrwt>
<pdfrwt beam="2">  1       -2 0.29316369E-01 0.87379538E+03</pdfrwt>
<totfact> 0.26950010E+02</totfact>
</mgrwt>
</event>
<event>
 4    1  0.1720876E-005  0.1115337E+04  0.7818608E-02  0.9190371E-01
          2   -1    0    0  501    0  0.00000000000E+00  0.00000000000E+00  0.28837424549E+03  0.28837424550E+03  0.25500000000E-02 0.  1.
         -2   -1    0    0    0  501 -0.00000000000E+00 -0.00000000000E+00 -0.10784400651E+04  0.10784400651E+04  0.25500000000E-02 0. -1.
   -5000001    1    1    2    0    0  0.49399002161E+03 -0.59172197918E+02 -0.43313797835E+03  0.70543319935E+03  0.25000000000E+03 0.  0.
    5000001    1    1    2    0    0 -0.49399002161E+03  0.59172197918E+02 -0.35692784127E+03  0.66138111126E+03  0.25000000000E+03 0.  0.
<mgrwt>
<rscale>  0 0.11153373E+04</rscale>
<asrwt>0</asrwt>
<pdfrwt beam="1">  1        2 0.44365269E-01 0.11153373E+04</pdfrwt>
<pdfrwt beam="2">  1       -2 0.16591385E+00 0.11153373E+04</pdfrwt>
<totfact> 0.25923854E+01</totfact>
</mgrwt>
</event>
<event>
 4    1  0.1720876E-005  0.7211782E+03  0.7818608E-02  0.9681685E-01
          2   -1    0    0  501    0  0.00000000000E+00  0.00000000000E+00  0.28438210288E+04  0.28438210288E+04  0.25500000000E-02 0.  1.
         -2   -1    0    0    0  501 -0.00000000000E+00 -0.00000000000E+00 -0.45721754472E+02  0.45721754544E+02  0.25500000000E-02 0. -1.
   -5000001    1    1    2    0    0  0.19121005419E+03 -0.44704327650E+02  0.71714873434E+03  0.78445016980E+03  0.25000000000E+03 0.  0.
    5000001    1    1    2    0    0 -0.19121005419E+03  0.44704327650E+02  0.20809505400E+04  0.21050926136E+04  0.25000000000E+03 0.  0.
<mgrwt>
<rscale>  0 0.72117817E+03</rscale>
<asrwt>0</asrwt>
<pdfrwt beam="1">  1        2 0.43751081E+00 0.72117817E+03</pdfrwt>
<pdfrwt beam="2">  1       -2 0.70341179E-02 0.72117817E+03</pdfrwt>
<totfact> 0.27653793E+02</totfact>
</mgrwt>
</event>
<event>
 4    1  0.1720876E-005  0.1002657E+04  0.7818608E-02  0.9305636E-01
          2   -1    0    0  501    0  0.00000000000E+00  0.00000000000E+00  0.26923050592E+04  0.26923050592E+04  0.25500000000E-02 0.  1.
         -2   -1    0    0    0  501 -0.00000000000E+00 -0.00000000000E+00 -0.93351283517E+02  0.93351283552E+02  0.25500000000E-02 0. -1.
   -5000001    1    1    2    0    0  0.32789941910E+03  0.19387346857E+03  0.71852378562E+03  0.85081218924E+03  0.25000000000E+03 0.  0.
    5000001    1    1    2    0    0 -0.32789941910E+03 -0.19387346857E+03  0.18804299901E+04  0.19348441536E+04  0.25000000000E+03 0.  0.
<mgrwt>
<rscale>  0 0.10026567E+04</rscale>
<asrwt>0</asrwt>
<pdfrwt beam="1">  1        2 0.41420082E+00 0.10026567E+04</pdfrwt>
<pdfrwt beam="2">  1       -2 0.14361735E-01 0.10026567E+04</pdfrwt>
<totfact> 0.10293009E+02</totfact>
</mgrwt>
</event>
<event>
 4    1  0.1720876E-005  0.6784407E+03  0.7818608E-02  0.9754829E-01
         -2   -1    0    0    0  501 -0.00000000000E+00  0.00000000000E+00  0.23073383392E+03  0.23073383393E+03  0.25500000000E-02 0. -1.
          2   -1    0    0  501    0  0.00000000000E+00 -0.00000000000E+00 -0.49871508518E+03  0.49871508518E+03  0.25500000000E-02 0.  1.
   -5000001    1    1    2    0    0 -0.22341153530E+03 -0.27793825417E+01 -0.18933918318E+03  0.38505813244E+03  0.25000000000E+03 0.  0.
    5000001    1    1    2    0    0  0.22341153530E+03  0.27793825417E+01 -0.78642068077E+02  0.34439078667E+03  0.25000000000E+03 0.  0.
<mgrwt>
<rscale>  0 0.67844069E+03</rscale>
<asrwt>0</asrwt>
<pdfrwt beam="1">  1        2 0.76725397E-01 0.67844069E+03</pdfrwt>
<pdfrwt beam="2">  1       -2 0.35497513E-01 0.67844069E+03</pdfrwt>
<totfact> 0.46388052E+02</totfact>
</mgrwt>
</event>
<event>
 4    1  0.1720876E-005  0.8286146E+03  0.7818608E-02  0.9519498E-01
         -2   -1    0    0    0  501 -0.00000000000E+00  0.00000000000E+00  0.11824164947E+03  0.11824164950E+03  0.25500000000E-02 0. -1.
          2   -1    0    0  501    0  0.00000000000E+00 -0.00000000000E+00 -0.14516925500E+04  0.14516925501E+04  0.25500000000E-02 0.  1.
   -5000001    1    1    2    0    0  0.32676069011E+03 -0.48763696078E+02 -0.66724433262E+03  0.78540782149E+03  0.25000000000E+03 0.  0.
    5000001    1    1    2    0    0 -0.32676069011E+03  0.48763696078E+02 -0.66620656797E+03  0.78452637805E+03  0.25000000000E+03 0.  0.
<mgrwt>
<rscale>  0 0.82861456E+03</rscale>
<asrwt>0</asrwt>
<pdfrwt beam="1">  1        2 0.22333730E+00 0.82861456E+03</pdfrwt>
<pdfrwt beam="2">  1       -2 0.18191024E-01 0.82861456E+03</pdfrwt>
<totfact> 0.34296527E+02</totfact>
</mgrwt>
</event>
<event>
 4    1  0.1720876E-005  0.8010408E+03  0.7818608E-02  0.9558512E-01
          2   -1    0    0  501    0  0.00000000000E+00  0.00000000000E+00  0.55169429566E+03  0.55169429566E+03  0.25500000000E-02 0.  1.
         -2   -1    0    0    0  501 -0.00000000000E+00 -0.00000000000E+00 -0.29077081624E+03  0.29077081625E+03  0.25500000000E-02 0. -1.
   -5000001    1    1    2    0    0 -0.19298068435E+03  0.22310090877E+03  0.20654429282E+02  0.38722366337E+03  0.25000000000E+03 0.  0.
    5000001    1    1    2    0    0  0.19298068435E+03 -0.22310090877E+03  0.24026905013E+03  0.45524144855E+03  0.25000000000E+03 0.  0.
<mgrwt>
<rscale>  0 0.80104082E+03</rscale>
<asrwt>0</asrwt>
<pdfrwt beam="1">  1        2 0.84876044E-01 0.80104082E+03</pdfrwt>
<pdfrwt beam="2">  1       -2 0.44733972E-01 0.80104082E+03</pdfrwt>
<totfact> 0.26163742E+02</totfact>
</mgrwt>
</event>
<event>
 4    1  0.1720876E-005  0.6703284E+03  0.7818608E-02  0.9769365E-01
          2   -1    0    0  501    0  0.00000000000E+00  0.00000000000E+00  0.65909424359E+03  0.65909424360E+03  0.25500000000E-02 0.  1.
         -2   -1    0    0    0  501 -0.00000000000E+00 -0.00000000000E+00 -0.17043851518E+03  0.17043851520E+03  0.25500000000E-02 0. -1.
   -5000001    1    1    2    0    0  0.14593288004E+03 -0.62890140397E+02  0.50298482975E+02  0.30046882139E+03  0.25000000000E+03 0.  0.
    5000001    1    1    2    0    0 -0.14593288004E+03  0.62890140397E+02  0.43835724544E+03  0.52906393741E+03  0.25000000000E+03 0.  0.
<mgrwt>
<rscale>  0 0.67032841E+03</rscale>
<asrwt>0</asrwt>
<pdfrwt beam="1">  1        2 0.10139911E+00 0.67032841E+03</pdfrwt>
<pdfrwt beam="2">  1       -2 0.26221311E-01 0.67032841E+03</pdfrwt>
<totfact> 0.58425160E+02</totfact>
</mgrwt>
</event>
<event>
 4    1  0.1720876E-005  0.8940117E+03  0.7818608E-02  0.9433098E-01
         -2   -1    0    0    0  501 -0.00000000000E+00  0.00000000000E+00  0.85760171493E+02  0.85760171531E+02  0.25500000000E-02 0. -1.
          2   -1    0    0  501    0  0.00000000000E+00 -0.00000000000E+00 -0.23299187574E+04  0.23299187574E+04  0.25500000000E-02 0.  1.
   -5000001    1    1    2    0    0 -0.10795739021E+03 -0.18371619346E+03 -0.30291280284E+03  0.44683621604E+03  0.25000000000E+03 0.  0.
    5000001    1    1    2    0    0  0.10795739021E+03  0.18371619346E+03 -0.19412457830E+04  0.19688427129E+04  0.25000000000E+03 0.  0.
<mgrwt>
<rscale>  0 0.89401171E+03</rscale>
<asrwt>0</asrwt>
<pdfrwt beam="1">  1        2 0.35844899E+00 0.89401171E+03</pdfrwt>
<pdfrwt beam="2">  1       -2 0.13193874E-01 0.89401171E+03</pdfrwt>
<totfact> 0.19318906E+02</totfact>
</mgrwt>
</event>
<event>
 4    1  0.1720876E-005  0.6405855E+03  0.7818608E-02  0.9824607E-01
         -2   -1    0    0    0  501 -0.00000000000E+00  0.00000000000E+00  0.90775715249E+02  0.90775715285E+02  0.25500000000E-02 0. -1.
          2   -1    0    0  501    0  0.00000000000E+00 -0.00000000000E+00 -0.11301200348E+04  0.11301200348E+04  0.25500000000E-02 0.  1.
   -5000001    1    1    2    0    0  0.28799168243E+02  0.16424064415E+03 -0.30844246100E+03  0.43062876476E+03  0.25000000000E+03 0.  0.
    5000001    1    1    2    0    0 -0.28799168243E+02 -0.16424064415E+03 -0.73090185857E+03  0.79026698535E+03  0.25000000000E+03 0.  0.
<mgrwt>
<rscale>  0 0.64058553E+03</rscale>
<asrwt>0</asrwt>
<pdfrwt beam="1">  1        2 0.17386461E+00 0.64058553E+03</pdfrwt>
<pdfrwt beam="2">  1       -2 0.13965495E-01 0.64058553E+03</pdfrwt>
<totfact> 0.83320707E+02</totfact>
</mgrwt>
</event>
<event>
 4    1  0.1720876E-005  0.6980085E+03  0.7818608E-02  0.9720644E-01
         -2   -1    0    0    0  501 -0.00000000000E+00  0.00000000000E+00  0.10049377748E+03  0.10049377752E+03  0.25500000000E-02 0. -1.
          2   -1    0    0  501    0  0.00000000000E+00 -0.00000000000E+00 -0.12120547028E+04  0.12120547028E+04  0.25500000000E-02 0.  1.
   -5000001    1    1    2    0    0  0.80148487639E+02  0.21976649801E+03 -0.42848203277E+03  0.54846872848E+03  0.25000000000E+03 0.  0.
    5000001    1    1    2    0    0 -0.80148487639E+02 -0.21976649801E+03 -0.68307889252E+03  0.76407975181E+03  0.25000000000E+03 0.  0.
<mgrwt>
<rscale>  0 0.69800847E+03</rscale>
<asrwt>0</asrwt>
<pdfrwt beam="1">  1        2 0.18646994E+00 0.69800847E+03</pdfrwt>
<pdfrwt beam="2">  1       -2 0.15460582E-01 0.69800847E+03</pdfrwt>
<totfact> 0.62605702E+02</totfact>
</mgrwt>
</event>
<event>
 4    1  0.1720876E-005  0.8404697E+03  0.7818608E-02  0.9503218E-01
         -2   -1    0    0    0  501 -0.00000000000E+00  0.00000000000E+00  0.16955828398E+03  0.16955828400E+03  0.25500000000E-02 0. -1.
          2   -1    0    0  501    0  0.00000000000E+00 -0.00000000000E+00 -0.10415141052E+04  0.10415141052E+04  0.25500000000E-02 0.  1.
   -5000001    1    1    2    0    0 -0.14421222129E+03 -0.30115641211E+03 -0.36243319394E+03  0.55258498839E+03  0.25000000000E+03 0.  0.
    5000001    1    1    2    0    0  0.14421222129E+03  0.30115641211E+03 -0.50952262729E+03  0.65848740083E+03  0.25000000000E+03 0.  0.
<mgrwt>
<rscale>  0 0.84046974E+03</rscale>
<asrwt>0</asrwt>
<pdfrwt beam="1">  1        2 0.16023294E+00 0.84046974E+03</pdfrwt>
<pdfrwt beam="2">  1       -2 0.26085890E-01 0.84046974E+03</pdfrwt>
<totfact> 0.31554266E+02</totfact>
</mgrwt>
</event>
<event>
 4    1  0.1720876E-005  0.5449782E+03  0.7818608E-02  0.1002663E+00
          2   -1    0    0  501    0  0.00000000000E+00  0.00000000000E+00  0.26841586037E+03  0.26841586038E+03  0.25500000000E-02 0.  1.
         -2   -1    0    0    0  501 -0.00000000000E+00 -0.00000000000E+00 -0.27662413923E+03  0.27662413924E+03  0.25500000000E-02 0. -1.
   -5000001    1    1    2    0    0  0.58425809693E+02  0.76924127376E+02  0.45088935054E+02  0.27177915423E+03  0.25000000000E+03 0.  0.
    5000001    1    1    2    0    0 -0.58425809693E+02 -0.76924127376E+02 -0.53297213920E+02  0.27326084539E+03  0.25000000000E+03 0.  0.
<mgrwt>
<rscale>  0 0.54497819E+03</rscale>
<asrwt>0</asrwt>
<pdfrwt beam="1">  1        2 0.41294748E-01 0.54497819E+03</pdfrwt>
<pdfrwt beam="2">  1       -2 0.42557560E-01 0.54497819E+03</pdfrwt>
<totfact> 0.65465404E+02</totfact>
</mgrwt>
</event>
<event>
 4    1  0.1720876E-005  0.8974062E+03  0.7818608E-02  0.9428830E-01
          2   -1    0    0  501    0  0.00000000000E+00  0.00000000000E+00  0.75979153495E+03  0.75979153495E+03  0.25500000000E-02 0.  1.
         -2   -1    0    0    0  501 -0.00000000000E+00 -0.00000000000E+00 -0.26498645686E+03  0.26498645687E+03  0.25500000000E-02 0. -1.
   -5000001    1    1    2    0    0  0.26106298508E+03  0.25607110252E+03  0.32901822161E+03  0.55179641343E+03  0.25000000000E+03 0.  0.
    5000001    1    1    2    0    0 -0.26106298508E+03 -0.25607110252E+03  0.16578685647E+03  0.47298157839E+03  0.25000000000E+03 0.  0.
<mgrwt>
<rscale>  0 0.89740619E+03</rscale>
<asrwt>0</asrwt>
<pdfrwt beam="1">  1        2 0.11689100E+00 0.89740619E+03</pdfrwt>
<pdfrwt beam="2">  1       -2 0.40767148E-01 0.89740619E+03</pdfrwt>
<totfact> 0.21060273E+02</totfact>
</mgrwt>
</event>
<event>
 4    1  0.1720876E-005  0.6233194E+03  0.7818608E-02  0.9858173E-01
         -2   -1    0    0    0  501 -0.00000000000E+00  0.00000000000E+00  0.40848335605E+03  0.40848335606E+03  0.25500000000E-02 0. -1.
          2   -1    0    0  501    0  0.00000000000E+00 -0.00000000000E+00 -0.23778638593E+03  0.23778638594E+03  0.25500000000E-02 0.  1.
   -5000001    1    1    2    0    0  0.88207446342E+01 -0.18541981688E+03  0.99004107130E+02  0.32674168277E+03  0.25000000000E+03 0.  0.
    5000001    1    1    2    0    0 -0.88207446342E+01  0.18541981688E+03  0.71692862991E+02  0.31952805923E+03  0.25000000000E+03 0.  0.
<mgrwt>
<rscale>  0 0.62331944E+03</rscale>
<asrwt>0</asrwt>
<pdfrwt beam="1">  1        2 0.36582521E-01 0.62331944E+03</pdfrwt>
<pdfrwt beam="2">  1       -2 0.62843592E-01 0.62331944E+03</pdfrwt>
<totfact> 0.33742818E+02</totfact>
</mgrwt>
</event>
<event>
 4    1  0.1720876E-005  0.6582277E+03  0.7818608E-02  0.9791462E-01
          2   -1    0    0  501    0  0.00000000000E+00  0.00000000000E+00  0.61796673060E+03  0.61796673060E+03  0.25500000000E-02 0.  1.
         -2   -1    0    0    0  501 -0.00000000000E+00 -0.00000000000E+00 -0.17527794539E+03  0.17527794541E+03  0.25500000000E-02 0. -1.
   -5000001    1    1    2    0    0 -0.16181860568E+03  0.10789534744E+03  0.32906147514E+03  0.45673638082E+03  0.25000000000E+03 0.  0.
    5000001    1    1    2    0    0  0.16181860568E+03 -0.10789534744E+03  0.11362731006E+03  0.33650829520E+03  0.25000000000E+03 0.  0.
<mgrwt>
<rscale>  0 0.65822774E+03</rscale>
<asrwt>0</asrwt>
<pdfrwt beam="1">  1        2 0.95071804E-01 0.65822774E+03</pdfrwt>
<pdfrwt beam="2">  1       -2 0.26965838E-01 0.65822774E+03</pdfrwt>
<totfact> 0.60098410E+02</totfact>
</mgrwt>
</event>
<event>
 4    1  0.1720876E-005  0.6669300E+03  0.7818608E-02  0.9775520E-01
          2   -1    0    0  501    0  0.00000000000E+00  0.00000000000E+00  0.10109940848E+04  0.10109940848E+04  0.25500000000E-02 0.  1.
         -2   -1    0    0    0  501 -0.00000000000E+00 -0.00000000000E+00 -0.10998967478E+03  0.10998967481E+03  0.25500000000E-02 0. -1.
   -5000001    1    1    2    0    0  0.16156687371E+03  0.14739776380E+03  0.40095516205E+03  0.52066783790E+03  0.25000000000E+03 0.  0.
    5000001    1    1    2    0    0 -0.16156687371E+03 -0.14739776380E+03  0.50004924796E+03  0.60031592170E+03  0.25000000000E+03 0.  0.
<mgrwt>
<rscale>  0 0.66693001E+03</rscale>
<asrwt>0</asrwt>
<pdfrwt beam="1">  1        2 0.15553756E+00 0.66693001E+03</pdfrwt>
<pdfrwt beam="2">  1       -2 0.16921488E-01 0.66693001E+03</pdfrwt>
<totfact> 0.71232396E+02</totfact>
</mgrwt>
</event>
<event>
 4    1  0.1720876E-005  0.9122924E+03  0.7818608E-02  0.9410344E-01
          2   -1    0    0  501    0  0.00000000000E+00  0.00000000000E+00  0.31886061535E+04  0.31886061535E+04  0.25500000000E-02 0.  1.
         -2   -1    0    0    0  501 -0.00000000000E+00 -0.00000000000E+00 -0.65254020184E+02  0.65254020234E+02  0.25500000000E-02 0. -1.
   -5000001    1    1    2    0    0 -0.12401576623E+03 -0.23946572870E+03  0.25243219340E+04  0.25509654980E+04  0.25000000000E+03 0.  0.
    5000001    1    1    2    0    0  0.12401576623E+03  0.23946572870E+03  0.59903019934E+03  0.70289467576E+03  0.25000000000E+03 0.  0.
<mgrwt>
<rscale>  0 0.91229243E+03</rscale>
<asrwt>0</asrwt>
<pdfrwt beam="1">  1        2 0.49055473E+00 0.91229243E+03</pdfrwt>
<pdfrwt beam="2">  1       -2 0.10039081E-01 0.91229243E+03</pdfrwt>
<totfact> 0.93744852E+01</totfact>
</mgrwt>
</event>
<event>
 4    1  0.1720876E-005  0.1066355E+04  0.7818608E-02  0.9238619E-01
         -2   -1    0    0    0  501 -0.00000000000E+00  0.00000000000E+00  0.81935316936E+03  0.81935316937E+03  0.25500000000E-02 0. -1.
          2   -1    0    0  501    0  0.00000000000E+00 -0.00000000000E+00 -0.34695459312E+03  0.34695459313E+03  0.25500000000E-02 0.  1.
   -5000001    1    1    2    0    0 -0.26267216118E+03  0.38507851789E+03  0.16286030585E+03  0.55344883090E+03  0.25000000000E+03 0.  0.
    5000001    1    1    2    0    0  0.26267216118E+03 -0.38507851789E+03  0.30953827039E+03  0.61285893160E+03  0.25000000000E+03 0.  0.
<mgrwt>
<rscale>  0 0.10663552E+04</rscale>
<asrwt>0</asrwt>
<pdfrwt beam="1">  1        2 0.53377630E-01 0.10663552E+04</pdfrwt>
<pdfrwt beam="2">  1       -2 0.12605433E+00 0.10663552E+04</pdfrwt>
<totfact> 0.43556426E+01</totfact>
</mgrwt>
</event>
<event>
 4    1  0.1720876E-005  0.6852677E+03  0.7818608E-02  0.9742763E-01
         -2   -1    0    0    0  501 -0.00000000000E+00  0.00000000000E+00  0.23515946260E+03  0.23515946261E+03  0.25500000000E-02 0. -1.
          2   -1    0    0  501    0  0.00000000000E+00 -0.00000000000E+00 -0.49922705099E+03  0.49922705100E+03  0.25500000000E-02 0.  1.
   -5000001    1    1    2    0    0  0.22333662139E+03  0.33845228549E+02 -0.65337693503E+02  0.34321095574E+03  0.25000000000E+03 0.  0.
    5000001    1    1    2    0    0 -0.22333662139E+03 -0.33845228549E+02 -0.19872989489E+03  0.39117555787E+03  0.25000000000E+03 0.  0.
<mgrwt>
<rscale>  0 0.68526773E+03</rscale>
<asrwt>0</asrwt>
<pdfrwt beam="1">  1        2 0.76804162E-01 0.68526773E+03</pdfrwt>
<pdfrwt beam="2">  1       -2 0.36178379E-01 0.68526773E+03</pdfrwt>
<totfact> 0.44674918E+02</totfact>
</mgrwt>
</event>
<event>
 4    1  0.1720876E-005  0.7870747E+03  0.7818608E-02  0.9578917E-01
         -2   -1    0    0    0  501 -0.00000000000E+00  0.00000000000E+00  0.11209464969E+03  0.11209464972E+03  0.25500000000E-02 0. -1.
          2   -1    0    0  501    0  0.00000000000E+00 -0.00000000000E+00 -0.13816149501E+04  0.13816149501E+04  0.25500000000E-02 0.  1.
   -5000001    1    1    2    0    0 -0.53746734031E+02 -0.29537204603E+03 -0.72454604102E+03  0.82316482101E+03  0.25000000000E+03 0.  0.
    5000001    1    1    2    0    0  0.53746734031E+02  0.29537204603E+03 -0.54497425941E+03  0.67054477883E+03  0.25000000000E+03 0.  0.
<mgrwt>
<rscale>  0 0.78707469E+03</rscale>
<asrwt>0</asrwt>
<pdfrwt beam="1">  1        2 0.21255613E+00 0.78707469E+03</pdfrwt>
<pdfrwt beam="2">  1       -2 0.17245332E-01 0.78707469E+03</pdfrwt>
<totfact> 0.41290615E+02</totfact>
</mgrwt>
</event>
<event>
 4    1  0.1720876E-005  0.1932664E+04  0.7818608E-02  0.8638766E-01
          2   -1    0    0  501    0  0.00000000000E+00  0.00000000000E+00  0.82082016701E+03  0.82082016701E+03  0.25500000000E-02 0.  1.
         -2   -1    0    0    0  501 -0.00000000000E+00 -0.00000000000E+00 -0.11376394382E+04  0.11376394382E+04  0.25500000000E-02 0. -1.
   -5000001    1    1    2    0    0 -0.68239678119E+03 -0.52041782689E+03  0.21363830948E+03  0.91904374695E+03  0.25000000000E+03 0.  0.
    5000001    1    1    2    0    0  0.68239678119E+03  0.52041782689E+03 -0.53045758069E+03  0.10394158583E+04  0.25000000000E+03 0.  0.
<mgrwt>
<rscale>  0 0.19326639E+04</rscale>
<asrwt>0</asrwt>
<pdfrwt beam="1">  1        2 0.12628003E+00 0.19326639E+04</pdfrwt>
<pdfrwt beam="2">  1       -2 0.17502145E+00 0.19326639E+04</pdfrwt>
<totfact> 0.61030088E+00</totfact>
</mgrwt>
</event>
<event>
 4    1  0.1720876E-005  0.6452767E+03  0.7818608E-02  0.9815683E-01
         -2   -1    0    0    0  501 -0.00000000000E+00  0.00000000000E+00  0.91542468149E+02  0.91542468184E+02  0.25500000000E-02 0. -1.
          2   -1    0    0  501    0  0.00000000000E+00 -0.00000000000E+00 -0.11371281632E+04  0.11371281632E+04  0.25500000000E-02 0.  1.
   -5000001    1    1    2    0    0  0.62441883834E+02  0.19407504894E+03 -0.53346348382E+03  0.62341591417E+03  0.25000000000E+03 0.  0.
    5000001    1    1    2    0    0 -0.62441883834E+02 -0.19407504894E+03 -0.51212221126E+03  0.60525471724E+03  0.25000000000E+03 0.  0.
<mgrwt>
<rscale>  0 0.64527674E+03</rscale>
<asrwt>0</asrwt>
<pdfrwt beam="1">  1        2 0.17494278E+00 0.64527674E+03</pdfrwt>
<pdfrwt beam="2">  1       -2 0.14083458E-01 0.64527674E+03</pdfrwt>
<totfact> 0.81347788E+02</totfact>
</mgrwt>
</event>
<event>
 4    1  0.1720876E-005  0.1152967E+04  0.7818608E-02  0.9155051E-01
         -2   -1    0    0    0  501 -0.00000000000E+00  0.00000000000E+00  0.13883966889E+03  0.13883966891E+03  0.25500000000E-02 0. -1.
          2   -1    0    0  501    0  0.00000000000E+00 -0.00000000000E+00 -0.23936465601E+04  0.23936465601E+04  0.25500000000E-02 0.  1.
   -5000001    1    1    2    0    0 -0.46746425769E+03  0.17409108487E+03 -0.14457252550E+04  0.15496619150E+04  0.25000000000E+03 0.  0.
    5000001    1    1    2    0    0  0.46746425769E+03 -0.17409108487E+03 -0.80908163622E+03  0.98282431396E+03  0.25000000000E+03 0.  0.
<mgrwt>
<rscale>  0 0.11529668E+04</rscale>
<asrwt>0</asrwt>
<pdfrwt beam="1">  1        2 0.36825329E+00 0.11529668E+04</pdfrwt>
<pdfrwt beam="2">  1       -2 0.21359951E-01 0.11529668E+04</pdfrwt>
<totfact> 0.75949195E+01</totfact>
</mgrwt>
</event>
<event>
 4    1  0.1720876E-005  0.1162925E+04  0.7818608E-02  0.9145942E-01
         -2   -1    0    0    0  501 -0.00000000000E+00  0.00000000000E+00  0.63450811748E+03  0.63450811748E+03  0.25500000000E-02 0. -1.
          2   -1    0    0  501    0  0.00000000000E+00 -0.00000000000E+00 -0.53285183265E+03  0.53285183266E+03  0.25500000000E-02 0.  1.
   -5000001    1    1    2    0    0 -0.68371769663E+02  0.14501256808E+03  0.55262988120E+03  0.62737797968E+03  0.25000000000E+03 0.  0.
    5000001    1    1    2    0    0  0.68371769663E+02 -0.14501256808E+03 -0.45097359638E+03  0.53998197046E+03  0.25000000000E+03 0.  0.
<mgrwt>
<rscale>  0 0.11629253E+04</rscale>
<asrwt>0</asrwt>
<pdfrwt beam="1">  1        2 0.81977205E-01 0.11629253E+04</pdfrwt>
<pdfrwt beam="2">  1       -2 0.97616634E-01 0.11629253E+04</pdfrwt>
<totfact> 0.49446006E+01</totfact>
</mgrwt>
</event>
<event>
 4    1  0.1720876E-005  0.8232399E+03  0.7818608E-02  0.9526974E-01
         -2   -1    0    0    0  501 -0.00000000000E+00  0.00000000000E+00  0.11333475977E+03  0.11333475980E+03  0.25500000000E-02 0. -1.
          2   -1    0    0  501    0  0.00000000000E+00 -0.00000000000E+00 -0.14949605474E+04  0.14949605474E+04  0.25500000000E-02 0.  1.
   -5000001    1    1    2    0    0  0.12691117047E+03  0.30064657289E+03 -0.65001140579E+03  0.76909663543E+03  0.25000000000E+03 0.  0.
    5000001    1    1    2    0    0 -0.12691117047E+03 -0.30064657289E+03 -0.73161438185E+03  0.83919867178E+03  0.25000000000E+03 0.  0.
<mgrwt>
<rscale>  0 0.82323993E+03</rscale>
<asrwt>0</asrwt>
<pdfrwt beam="1">  1        2 0.22999392E+00 0.82323993E+03</pdfrwt>
<pdfrwt beam="2">  1       -2 0.17436118E-01 0.82323993E+03</pdfrwt>
<totfact> 0.34907164E+02</totfact>
</mgrwt>
</event>
<event>
 4    1  0.1720876E-005  0.9713954E+03  0.7818608E-02  0.9340486E-01
         -2   -1    0    0    0  501 -0.00000000000E+00  0.00000000000E+00  0.18627394198E+03  0.18627394200E+03  0.25500000000E-02 0. -1.
          2   -1    0    0  501    0  0.00000000000E+00 -0.00000000000E+00 -0.12664263896E+04  0.12664263896E+04  0.25500000000E-02 0.  1.
   -5000001    1    1    2    0    0 -0.37936285184E+03  0.65250249527E+02 -0.77761003988E+03  0.90296796319E+03  0.25000000000E+03 0.  0.
    5000001    1    1    2    0    0  0.37936285184E+03 -0.65250249527E+02 -0.30254240778E+03  0.54973236845E+03  0.25000000000E+03 0.  0.
<mgrwt>
<rscale>  0 0.97139536E+03</rscale>
<asrwt>0</asrwt>
<pdfrwt beam="1">  1        2 0.19483482E+00 0.97139536E+03</pdfrwt>
<pdfrwt beam="2">  1       -2 0.28657530E-01 0.97139536E+03</pdfrwt>
<totfact> 0.19282325E+02</totfact>
</mgrwt>
</event>
<event>
 4    1  0.1720876E-005  0.1115539E+04  0.7818608E-02  0.9190177E-01
          2   -1    0    0  501    0  0.00000000000E+00  0.00000000000E+00  0.24123817939E+04  0.24123817939E+04  0.25500000000E-02 0.  1.
         -2   -1    0    0    0  501 -0.00000000000E+00 -0.00000000000E+00 -0.12896252424E+03  0.12896252426E+03  0.25500000000E-02 0. -1.
   -5000001    1    1    2    0    0 -0.39086613580E+03 -0.23129668597E+03  0.16104311976E+04  0.16918224302E+04  0.25000000000E+03 0.  0.
    5000001    1    1    2    0    0  0.39086613580E+03  0.23129668597E+03  0.67298807213E+03  0.84952188805E+03  0.25000000000E+03 0.  0.
<mgrwt>
<rscale>  0 0.11155391E+04</rscale>
<asrwt>0</asrwt>
<pdfrwt beam="1">  1        2 0.37113560E+00 0.11155391E+04</pdfrwt>
<pdfrwt beam="2">  1       -2 0.19840391E-01 0.11155391E+04</pdfrwt>
<totfact> 0.84691593E+01</totfact>
</mgrwt>
</event>
<event>
 4    1  0.1720876E-005  0.5239562E+03  0.7818608E-02  0.1007708E+00
         -2   -1    0    0    0  501 -0.00000000000E+00  0.00000000000E+00  0.80724319716E+02  0.80724319756E+02  0.25500000000E-02 0. -1.
          2   -1    0    0  501    0  0.00000000000E+00 -0.00000000000E+00 -0.85020864135E+03  0.85020864136E+03  0.25500000000E-02 0.  1.
   -5000001    1    1    2    0    0 -0.37082528141E+02  0.64361683031E+02 -0.34068141328E+03  0.42904704345E+03  0.25000000000E+03 0.  0.
    5000001    1    1    2    0    0  0.37082528141E+02 -0.64361683031E+02 -0.42880290836E+03  0.50188591767E+03  0.25000000000E+03 0.  0.
<mgrwt>
<rscale>  0 0.52395616E+03</rscale>
<asrwt>0</asrwt>
<pdfrwt beam="1">  1        2 0.13080132E+00 0.52395616E+03</pdfrwt>
<pdfrwt beam="2">  1       -2 0.12419127E-01 0.52395616E+03</pdfrwt>
<totfact> 0.15319789E+03</totfact>
</mgrwt>
</event>
<event>
 4    1  0.1720876E-005  0.9958394E+03  0.7818608E-02  0.9313120E-01
          2   -1    0    0  501    0  0.00000000000E+00  0.00000000000E+00  0.26841841444E+03  0.26841841445E+03  0.25500000000E-02 0.  1.
         -2   -1    0    0    0  501 -0.00000000000E+00 -0.00000000000E+00 -0.92364769917E+03  0.92364769918E+03  0.25500000000E-02 0. -1.
   -5000001    1    1    2    0    0  0.28383817060E+03 -0.31377198533E+03 -0.42343135400E+03  0.64869952783E+03  0.25000000000E+03 0.  0.
    5000001    1    1    2    0    0 -0.28383817060E+03  0.31377198533E+03 -0.23179793074E+03  0.54336658579E+03  0.25000000000E+03 0.  0.
<mgrwt>
<rscale>  0 0.99583945E+03</rscale>
<asrwt>0</asrwt>
<pdfrwt beam="1">  1        2 0.41295141E-01 0.99583945E+03</pdfrwt>
<pdfrwt beam="2">  1       -2 0.14209964E+00 0.99583945E+03</pdfrwt>
<totfact> 0.42848453E+01</totfact>
</mgrwt>
</event>
<event>
 4    1  0.1720876E-005  0.7742914E+03  0.7818608E-02  0.9597993E-01
          2   -1    0    0  501    0  0.00000000000E+00  0.00000000000E+00  0.77701249778E+03  0.77701249779E+03  0.25500000000E-02 0.  1.
         -2   -1    0    0    0  501 -0.00000000000E+00 -0.00000000000E+00 -0.19289495030E+03  0.19289495032E+03  0.25500000000E-02 0. -1.
   -5000001    1    1    2    0    0  0.64867785065E+02 -0.28769567019E+03  0.31727259070E+03  0.50013850581E+03  0.25000000000E+03 0.  0.
    5000001    1    1    2    0    0 -0.64867785065E+02  0.28769567019E+03  0.26684495679E+03  0.46976894230E+03  0.25000000000E+03 0.  0.
<mgrwt>
<rscale>  0 0.77429138E+03</rscale>
<asrwt>0</asrwt>
<pdfrwt beam="1">  1        2 0.11954039E+00 0.77429138E+03</pdfrwt>
<pdfrwt beam="2">  1       -2 0.29676146E-01 0.77429138E+03</pdfrwt>
<totfact> 0.37647203E+02</totfact>
</mgrwt>
</event>
<event>
 4    1  0.1720876E-005  0.8338276E+03  0.7818608E-02  0.9512304E-01
          2   -1    0    0  501    0  0.00000000000E+00  0.00000000000E+00  0.72557649212E+03  0.72557649212E+03  0.25500000000E-02 0.  1.
         -2   -1    0    0    0  501 -0.00000000000E+00 -0.00000000000E+00 -0.23955724231E+03  0.23955724232E+03  0.25500000000E-02 0. -1.
   -5000001    1    1    2    0    0  0.31467541603E+03 -0.64873756450E+02  0.34710433119E+03  0.53498657783E+03  0.25000000000E+03 0.  0.
    5000001    1    1    2    0    0 -0.31467541603E+03  0.64873756450E+02  0.13891491861E+03  0.43014715661E+03  0.25000000000E+03 0.  0.
<mgrwt>
<rscale>  0 0.83382757E+03</rscale>
<asrwt>0</asrwt>
<pdfrwt beam="1">  1        2 0.11162715E+00 0.83382757E+03</pdfrwt>
<pdfrwt beam="2">  1       -2 0.36854960E-01 0.83382757E+03</pdfrwt>
<totfact> 0.27266210E+02</totfact>
</mgrwt>
</event>
<event>
 4    1  0.1720876E-005  0.6471088E+03  0.7818608E-02  0.9812220E-01
         -2   -1    0    0    0  501 -0.00000000000E+00  0.00000000000E+00  0.11584983914E+04  0.11584983914E+04  0.25500000000E-02 0. -1.
          2   -1    0    0  501    0  0.00000000000E+00 -0.00000000000E+00 -0.90364766389E+02  0.90364766425E+02  0.25500000000E-02 0.  1.
   -5000001    1    1    2    0    0  0.49580178627E+02 -0.19425256538E+03  0.44786250426E+03  0.55070234791E+03  0.25000000000E+03 0.  0.
    5000001    1    1    2    0    0 -0.49580178627E+02  0.19425256538E+03  0.62027112076E+03  0.69816080993E+03  0.25000000000E+03 0.  0.
<mgrwt>
<rscale>  0 0.64710876E+03</rscale>
<asrwt>0</asrwt>
<pdfrwt beam="1">  1        2 0.13902272E-01 0.64710876E+03</pdfrwt>
<pdfrwt beam="2">  1       -2 0.17823052E+00 0.64710876E+03</pdfrwt>
<totfact> 0.83658979E+01</totfact>
</mgrwt>
</event>
<event>
 4    1  0.1720876E-005  0.6266648E+03  0.7818608E-02  0.9851579E-01
         -2   -1    0    0    0  501 -0.00000000000E+00  0.00000000000E+00  0.52005300821E+03  0.52005300822E+03  0.25500000000E-02 0. -1.
          2   -1    0    0  501    0  0.00000000000E+00 -0.00000000000E+00 -0.18878306700E+03  0.18878306702E+03  0.25500000000E-02 0.  1.
   -5000001    1    1    2    0    0  0.11770076751E+03 -0.14512595116E+03  0.19686281310E+03  0.36901216722E+03  0.25000000000E+03 0.  0.
    5000001    1    1    2    0    0 -0.11770076751E+03  0.14512595116E+03  0.13440712811E+03  0.33982390802E+03  0.25000000000E+03 0.  0.
<mgrwt>
<rscale>  0 0.62666483E+03</rscale>
<asrwt>0</asrwt>
<pdfrwt beam="1">  1        2 0.29043549E-01 0.62666483E+03</pdfrwt>
<pdfrwt beam="2">  1       -2 0.80008154E-01 0.62666483E+03</pdfrwt>
<totfact> 0.25793453E+02</totfact>
</mgrwt>
</event>
<event>
 4    1  0.1720876E-005  0.6956690E+03  0.7818608E-02  0.9724668E-01
          2   -1    0    0  501    0  0.00000000000E+00  0.00000000000E+00  0.44641000579E+03  0.44641000580E+03  0.25500000000E-02 0.  1.
         -2   -1    0    0    0  501 -0.00000000000E+00 -0.00000000000E+00 -0.27102627277E+03  0.27102627278E+03  0.25500000000E-02 0. -1.
   -5000001    1    1    2    0    0  0.23417543209E+03  0.21014290458E+02  0.29270359737E+02  0.34443647797E+03  0.25000000000E+03 0.  0.
    5000001    1    1    2    0    0 -0.23417543209E+03 -0.21014290458E+02  0.14611337328E+03  0.37299980060E+03  0.25000000000E+03 0.  0.
<mgrwt>
<rscale>  0 0.69566900E+03</rscale>
<asrwt>0</asrwt>
<pdfrwt beam="1">  1        2 0.68678462E-01 0.69566900E+03</pdfrwt>
<pdfrwt beam="2">  1       -2 0.41696350E-01 0.69566900E+03</pdfrwt>
<totfact> 0.38570243E+02</totfact>
</mgrwt>
</event>
<event>
 4    1  0.1720876E-005  0.6026071E+03  0.7818608E-02  0.9900012E-01
          2   -1    0    0  501    0  0.00000000000E+00  0.00000000000E+00  0.22333245034E+03  0.22333245036E+03  0.25500000000E-02 0.  1.
         -2   -1    0    0    0  501 -0.00000000000E+00 -0.00000000000E+00 -0.40649639005E+03  0.40649639006E+03  0.25500000000E-02 0. -1.
   -5000001    1    1    2    0    0  0.11031022433E+02  0.15987742330E+01  0.83806682228E+02  0.26390869543E+03  0.25000000000E+03 0.  0.
    5000001    1    1    2    0    0 -0.11031022433E+02 -0.15987742330E+01 -0.26697062194E+03  0.36592014499E+03  0.25000000000E+03 0.  0.
<mgrwt>
<rscale>  0 0.60260712E+03</rscale>
<asrwt>0</asrwt>
<pdfrwt beam="1">  1        2 0.34358839E-01 0.60260712E+03</pdfrwt>
<pdfrwt beam="2">  1       -2 0.62537906E-01 0.60260712E+03</pdfrwt>
<totfact> 0.36577954E+02</totfact>
</mgrwt>
</event>
<event>
 4    1  0.1720876E-005  0.8662354E+03  0.7818608E-02  0.9468802E-01
         -2   -1    0    0    0  501 -0.00000000000E+00  0.00000000000E+00  0.38240667012E+03  0.38240667013E+03  0.25500000000E-02 0. -1.
          2   -1    0    0  501    0  0.00000000000E+00 -0.00000000000E+00 -0.49055353104E+03  0.49055353105E+03  0.25500000000E-02 0.  1.
   -5000001    1    1    2    0    0 -0.34640518374E+03 -0.36930282806E+02 -0.11562578503E+03  0.44410552718E+03  0.25000000000E+03 0.  0.
    5000001    1    1    2    0    0  0.34640518374E+03  0.36930282806E+02  0.74789241106E+01  0.42885467400E+03  0.25000000000E+03 0.  0.
<mgrwt>
<rscale>  0 0.86623540E+03</rscale>
<asrwt>0</asrwt>
<pdfrwt beam="1">  1        2 0.75469774E-01 0.86623540E+03</pdfrwt>
<pdfrwt beam="2">  1       -2 0.58831795E-01 0.86623540E+03</pdfrwt>
<totfact> 0.17087796E+02</totfact>
</mgrwt>
</event>
<event>
 4    1  0.1720876E-005  0.6005044E+03  0.7818608E-02  0.9904360E-01
          2   -1    0    0  501    0  0.00000000000E+00  0.00000000000E+00  0.21490080644E+04  0.21490080644E+04  0.25500000000E-02 0.  1.
         -2   -1    0    0    0  501 -0.00000000000E+00 -0.00000000000E+00 -0.41950236132E+02  0.41950236210E+02  0.25500000000E-02 0. -1.
   -5000001    1    1    2    0    0  0.14546274132E+03  0.14450790748E+02  0.13427347123E+04  0.13736101128E+04  0.25000000000E+03 0.  0.
    5000001    1    1    2    0    0 -0.14546274132E+03 -0.14450790748E+02  0.76432311601E+03  0.81734818782E+03  0.25000000000E+03 0.  0.
<mgrwt>
<rscale>  0 0.60050444E+03</rscale>
<asrwt>0</asrwt>
<pdfrwt beam="1">  1        2 0.33061661E+00 0.60050444E+03</pdfrwt>
<pdfrwt beam="2">  1       -2 0.64538828E-02 0.60050444E+03</pdfrwt>
<totfact> 0.79264398E+02</totfact>
</mgrwt>
</event>
<event>
 4    1  0.1720876E-005  0.1056201E+04  0.7818608E-02  0.9248966E-01
          2   -1    0    0  501    0  0.00000000000E+00  0.00000000000E+00  0.14525858008E+04  0.14525858008E+04  0.25500000000E-02 0.  1.
         -2   -1    0    0    0  501 -0.00000000000E+00 -0.00000000000E+00 -0.19199546624E+03  0.19199546626E+03  0.25500000000E-02 0. -1.
   -5000001    1    1    2    0    0 -0.37768190218E+03 -0.25317146829E+03  0.47733324311E+03  0.70504357069E+03  0.25000000000E+03 0.  0.
    5000001    1    1    2    0    0  0.37768190218E+03  0.25317146829E+03  0.78325709142E+03  0.93953769634E+03  0.25000000000E+03 0.  0.
<mgrwt>
<rscale>  0 0.10562005E+04</rscale>
<asrwt>0</asrwt>
<pdfrwt beam="1">  1        2 0.22347473E+00 0.10562005E+04</pdfrwt>
<pdfrwt beam="2">  1       -2 0.29537765E-01 0.10562005E+04</pdfrwt>
<totfact> 0.14175298E+02</totfact>
</mgrwt>
</event>
<event>
 4    1  0.1720876E-005  0.6584572E+03  0.7818608E-02  0.9791038E-01
          2   -1    0    0  501    0  0.00000000000E+00  0.00000000000E+00  0.40376760180E+03  0.40376760181E+03  0.25500000000E-02 0.  1.
         -2   -1    0    0    0  501 -0.00000000000E+00 -0.00000000000E+00 -0.26845011286E+03  0.26845011287E+03  0.25500000000E-02 0. -1.
   -5000001    1    1    2    0    0 -0.95422966438E+02 -0.14335083960E+03  0.19774397816E+03  0.36229502707E+03  0.25000000000E+03 0.  0.
    5000001    1    1    2    0    0  0.95422966438E+02  0.14335083960E+03 -0.62426489221E+02  0.30992268761E+03  0.25000000000E+03 0.  0.
<mgrwt>
<rscale>  0 0.65845716E+03</rscale>
<asrwt>0</asrwt>
<pdfrwt beam="1">  1        2 0.62118093E-01 0.65845716E+03</pdfrwt>
<pdfrwt beam="2">  1       -2 0.41300017E-01 0.65845716E+03</pdfrwt>
<totfact> 0.44062561E+02</totfact>
</mgrwt>
</event>
<event>
 4    1  0.1720876E-005  0.2827590E+04  0.7818608E-02  0.8294754E-01
         -2   -1    0    0    0  501 -0.00000000000E+00  0.00000000000E+00  0.18297985264E+04  0.18297985264E+04  0.25500000000E-02 0. -1.
          2   -1    0    0  501    0  0.00000000000E+00 -0.00000000000E+00 -0.10923697398E+04  0.10923697398E+04  0.25500000000E-02 0.  1.
   -5000001    1    1    2    0    0  0.13452985335E+04  0.80286205094E+02  0.10653977637E+02  0.13707251826E+04  0.25000000000E+03 0.  0.
    5000001    1    1    2    0    0 -0.13452985335E+04 -0.80286205094E+02  0.72677480902E+03  0.15514430837E+04  0.25000000000E+03 0.  0.
<mgrwt>
<rscale>  0 0.28275902E+04</rscale>
<asrwt>0</asrwt>
<pdfrwt beam="1">  1        2 0.16805688E+00 0.28275902E+04</pdfrwt>
<pdfrwt beam="2">  1       -2 0.28150746E+00 0.28275902E+04</pdfrwt>
<totfact> 0.78835637E-01</totfact>
</mgrwt>
</event>
<event>
 4    1  0.1720876E-005  0.5863454E+03  0.7818608E-02  0.9934147E-01
         -2   -1    0    0    0  501 -0.00000000000E+00  0.00000000000E+00  0.54584721154E+02  0.54584721214E+02  0.25500000000E-02 0. -1.
          2   -1    0    0  501    0  0.00000000000E+00 -0.00000000000E+00 -0.15746206320E+04  0.15746206320E+04  0.25500000000E-02 0.  1.
   -5000001    1    1    2    0    0  0.39327768490E+02  0.13325286223E+03 -0.93895544925E+03  0.98154996528E+03  0.25000000000E+03 0.  0.
    5000001    1    1    2    0    0 -0.39327768490E+02 -0.13325286223E+03 -0.58108046156E+03  0.64765538790E+03  0.25000000000E+03 0.  0.
<mgrwt>
<rscale>  0 0.58634539E+03</rscale>
<asrwt>0</asrwt>
<pdfrwt beam="1">  1        2 0.24224929E+00 0.58634539E+03</pdfrwt>
<pdfrwt beam="2">  1       -2 0.83976506E-02 0.58634539E+03</pdfrwt>
<totfact> 0.10710409E+03</totfact>
</mgrwt>
</event>
<event>
 4    1  0.1720876E-005  0.6836157E+03  0.7818608E-02  0.9745669E-01
         -2   -1    0    0    0  501 -0.00000000000E+00  0.00000000000E+00  0.69255807537E+02  0.69255807584E+02  0.25500000000E-02 0. -1.
          2   -1    0    0  501    0  0.00000000000E+00 -0.00000000000E+00 -0.16869718156E+04  0.16869718156E+04  0.25500000000E-02 0.  1.
   -5000001    1    1    2    0    0 -0.17450193967E+03  0.13673630182E+03 -0.99384320590E+03  0.10485094473E+04  0.25000000000E+03 0.  0.
    5000001    1    1    2    0    0  0.17450193967E+03 -0.13673630182E+03 -0.62387280215E+03  0.70771817586E+03  0.25000000000E+03 0.  0.
<mgrwt>
<rscale>  0 0.68361567E+03</rscale>
<asrwt>0</asrwt>
<pdfrwt beam="1">  1        2 0.25953410E+00 0.68361567E+03</pdfrwt>
<pdfrwt beam="2">  1       -2 0.10654741E-01 0.68361567E+03</pdfrwt>
<totfact> 0.62951724E+02</totfact>
</mgrwt>
</event>
<event>
 4    1  0.1720876E-005  0.1252395E+04  0.7818608E-02  0.9068192E-01
         -2   -1    0    0    0  501 -0.00000000000E+00  0.00000000000E+00  0.29506603509E+03  0.29506603511E+03  0.25500000000E-02 0. -1.
          2   -1    0    0  501    0  0.00000000000E+00 -0.00000000000E+00 -0.13289345190E+04  0.13289345190E+04  0.25500000000E-02 0.  1.
   -5000001    1    1    2    0    0 -0.54696103254E+03  0.16046971274E+03 -0.60589441805E+03  0.86863395378E+03  0.25000000000E+03 0.  0.
    5000001    1    1    2    0    0  0.54696103254E+03 -0.16046971274E+03 -0.42797406581E+03  0.75536660029E+03  0.25000000000E+03 0.  0.
<mgrwt>
<rscale>  0 0.12523952E+04</rscale>
<asrwt>0</asrwt>
<pdfrwt beam="1">  1        2 0.20445146E+00 0.12523952E+04</pdfrwt>
<pdfrwt beam="2">  1       -2 0.45394775E-01 0.12523952E+04</pdfrwt>
<totfact> 0.71932214E+01</totfact>
</mgrwt>
</event>
<event>
 4    1  0.1720876E-005  0.9818024E+03  0.7818608E-02  0.9328732E-01
          2   -1    0    0  501    0  0.00000000000E+00  0.00000000000E+00  0.10213099611E+04  0.10213099611E+04  0.25500000000E-02 0.  1.
         -2   -1    0    0    0  501 -0.00000000000E+00 -0.00000000000E+00 -0.23595579049E+03  0.23595579051E+03  0.25500000000E-02 0. -1.
   -5000001    1    1    2    0    0 -0.37021811816E+03  0.11377965139E+03  0.17658041065E+03  0.49364755192E+03  0.25000000000E+03 0.  0.
    5000001    1    1    2    0    0  0.37021811816E+03 -0.11377965139E+03  0.60877375994E+03  0.76361819967E+03  0.25000000000E+03 0.  0.
<mgrwt>
<rscale>  0 0.98180242E+03</rscale>
<asrwt>0</asrwt>
<pdfrwt beam="1">  1        2 0.15712461E+00 0.98180242E+03</pdfrwt>
<pdfrwt beam="2">  1       -2 0.36300892E-01 0.98180242E+03</pdfrwt>
<totfact> 0.17399770E+02</totfact>
</mgrwt>
</event>
<event>
 4    1  0.1720876E-005  0.5758178E+03  0.7818608E-02  0.9956887E-01
         -2   -1    0    0    0  501 -0.00000000000E+00  0.00000000000E+00  0.14970139664E+03  0.14970139666E+03  0.25500000000E-02 0. -1.
          2   -1    0    0  501    0  0.00000000000E+00 -0.00000000000E+00 -0.55371248266E+03  0.55371248266E+03  0.25500000000E-02 0.  1.
   -5000001    1    1    2    0    0 -0.15272454526E+02  0.14105155721E+03 -0.18220437132E+03  0.34033398682E+03  0.25000000000E+03 0.  0.
    5000001    1    1    2    0    0  0.15272454526E+02 -0.14105155721E+03 -0.22180671469E+03  0.36307989251E+03  0.25000000000E+03 0.  0.
<mgrwt>
<rscale>  0 0.57581779E+03</rscale>
<asrwt>0</asrwt>
<pdfrwt beam="1">  1        2 0.85186535E-01 0.57581779E+03</pdfrwt>
<pdfrwt beam="2">  1       -2 0.23030984E-01 0.57581779E+03</pdfrwt>
<totfact> 0.91098813E+02</totfact>
</mgrwt>
</event>
<event>
 4    1  0.1720876E-005  0.6807338E+03  0.7818608E-02  0.9750759E-01
         -2   -1    0    0    0  501 -0.00000000000E+00  0.00000000000E+00  0.34268681651E+03  0.34268681652E+03  0.25500000000E-02 0. -1.
          2   -1    0    0  501    0  0.00000000000E+00 -0.00000000000E+00 -0.33806271199E+03  0.33806271200E+03  0.25500000000E-02 0.  1.
   -5000001    1    1    2    0    0  0.27579146171E+02 -0.22921272442E+03  0.94222246158E+01  0.34042306129E+03  0.25000000000E+03 0.  0.
    5000001    1    1    2    0    0 -0.27579146171E+02  0.22921272442E+03 -0.47981201016E+01  0.34032646723E+03  0.25000000000E+03 0.  0.
<mgrwt>
<rscale>  0 0.68073382E+03</rscale>
<asrwt>0</asrwt>
<pdfrwt beam="1">  1        2 0.52009648E-01 0.68073382E+03</pdfrwt>
<pdfrwt beam="2">  1       -2 0.52721049E-01 0.68073382E+03</pdfrwt>
<totfact> 0.32918283E+02</totfact>
</mgrwt>
</event>
<event>
 4    1  0.1720876E-005  0.1148708E+04  0.7818608E-02  0.9158976E-01
         -2   -1    0    0    0  501 -0.00000000000E+00  0.00000000000E+00  0.18562242979E+03  0.18562242981E+03  0.25500000000E-02 0. -1.
          2   -1    0    0  501    0  0.00000000000E+00 -0.00000000000E+00 -0.17771702561E+04  0.17771702561E+04  0.25500000000E-02 0.  1.
   -5000001    1    1    2    0    0  0.49134318083E+03  0.81166007231E+01 -0.10707553281E+04  0.12043674577E+04  0.25000000000E+03 0.  0.
    5000001    1    1    2    0    0 -0.49134318083E+03 -0.81166007231E+01 -0.52079249817E+03  0.75842522816E+03  0.25000000000E+03 0.  0.
<mgrwt>
<rscale>  0 0.11487083E+04</rscale>
<asrwt>0</asrwt>
<pdfrwt beam="1">  1        2 0.27341080E+00 0.11487083E+04</pdfrwt>
<pdfrwt beam="2">  1       -2 0.28557298E-01 0.11487083E+04</pdfrwt>
<totfact> 0.98876663E+01</totfact>
</mgrwt>
</event>
<event>
 4    1  0.1720876E-005  0.8710279E+03  0.7818608E-02  0.9462541E-01
          2   -1    0    0  501    0  0.00000000000E+00  0.00000000000E+00  0.37891540816E+03  0.37891540817E+03  0.25500000000E-02 0.  1.
         -2   -1    0    0    0  501 -0.00000000000E+00 -0.00000000000E+00 -0.50056660215E+03  0.50056660216E+03  0.25500000000E-02 0. -1.
   -5000001    1    1    2    0    0  0.30914866819E+03 -0.82174832406E+02  0.98332997826E+02  0.41772596351E+03  0.25000000000E+03 0.  0.
    5000001    1    1    2    0    0 -0.30914866819E+03  0.82174832406E+02 -0.21998419182E+03  0.46175604682E+03  0.25000000000E+03 0.  0.
<mgrwt>
<rscale>  0 0.87102789E+03</rscale>
<asrwt>0</asrwt>
<pdfrwt beam="1">  1        2 0.58294678E-01 0.87102789E+03</pdfrwt>
<pdfrwt beam="2">  1       -2 0.77010247E-01 0.87102789E+03</pdfrwt>
<totfact> 0.12791576E+02</totfact>
</mgrwt>
</event>
<event>
 4    1  0.1720876E-005  0.6493313E+03  0.7818608E-02  0.9808035E-01
         -2   -1    0    0    0  501 -0.00000000000E+00  0.00000000000E+00  0.16778698283E+03  0.16778698285E+03  0.25500000000E-02 0. -1.
          2   -1    0    0  501    0  0.00000000000E+00 -0.00000000000E+00 -0.62822388330E+03  0.62822388330E+03  0.25500000000E-02 0.  1.
   -5000001    1    1    2    0    0 -0.10167184845E+03  0.17586753035E+03 -0.27988206052E+03  0.42673237608E+03  0.25000000000E+03 0.  0.
    5000001    1    1    2    0    0  0.10167184845E+03 -0.17586753035E+03 -0.18055483995E+03  0.36927849007E+03  0.25000000000E+03 0.  0.
<mgrwt>
<rscale>  0 0.64933132E+03</rscale>
<asrwt>0</asrwt>
<pdfrwt beam="1">  1        2 0.96649827E-01 0.64933132E+03</pdfrwt>
<pdfrwt beam="2">  1       -2 0.25813382E-01 0.64933132E+03</pdfrwt>
<totfact> 0.63780725E+02</totfact>
</mgrwt>
</event>
<event>
 4    1  0.1720876E-005  0.1243342E+04  0.7818608E-02  0.9075743E-01
         -2   -1    0    0    0  501 -0.00000000000E+00  0.00000000000E+00  0.18076944616E+03  0.18076944618E+03  0.25500000000E-02 0. -1.
          2   -1    0    0  501    0  0.00000000000E+00 -0.00000000000E+00 -0.21379423845E+04  0.21379423845E+04  0.25500000000E-02 0.  1.
   -5000001    1    1    2    0    0  0.45111052569E+02  0.51558267138E+03 -0.53682023969E+03  0.78647089446E+03  0.25000000000E+03 0.  0.
    5000001    1    1    2    0    0 -0.45111052569E+02 -0.51558267138E+03 -0.14203526987E+04  0.15322409363E+04  0.25000000000E+03 0.  0.
<mgrwt>
<rscale>  0 0.12433417E+04</rscale>
<asrwt>0</asrwt>
<pdfrwt beam="1">  1        2 0.32891420E+00 0.12433417E+04</pdfrwt>
<pdfrwt beam="2">  1       -2 0.27810685E-01 0.12433417E+04</pdfrwt>
<totfact> 0.65120965E+01</totfact>
</mgrwt>
</event>
<event>
 4    1  0.1720876E-005  0.6269377E+03  0.7818608E-02  0.9851043E-01
         -2   -1    0    0    0  501 -0.00000000000E+00  0.00000000000E+00  0.81965744242E+02  0.81965744282E+02  0.25500000000E-02 0. -1.
          2   -1    0    0  501    0  0.00000000000E+00 -0.00000000000E+00 -0.11988267481E+04  0.11988267481E+04  0.25500000000E-02 0.  1.
   -5000001    1    1    2    0    0  0.61198631047E+02  0.16927798984E+03 -0.67689279021E+03  0.74369628190E+03  0.25000000000E+03 0.  0.
    5000001    1    1    2    0    0 -0.61198631047E+02 -0.16927798984E+03 -0.43996821363E+03  0.53709621046E+03  0.25000000000E+03 0.  0.
<mgrwt>
<rscale>  0 0.62693772E+03</rscale>
<asrwt>0</asrwt>
<pdfrwt beam="1">  1        2 0.18443487E+00 0.62693772E+03</pdfrwt>
<pdfrwt beam="2">  1       -2 0.12610115E-01 0.62693772E+03</pdfrwt>
<totfact> 0.89935856E+02</totfact>
</mgrwt>
</event>
<event>
 4    1  0.1720876E-005  0.8417571E+03  0.7818608E-02  0.9501468E-01
          2   -1    0    0  501    0  0.00000000000E+00  0.00000000000E+00  0.29996521388E+04  0.29996521388E+04  0.25500000000E-02 0.  1.
         -2   -1    0    0    0  501 -0.00000000000E+00 -0.00000000000E+00 -0.59053102908E+02  0.59053102963E+02  0.25500000000E-02 0. -1.
   -5000001    1    1    2    0    0  0.19331523563E+03  0.26968218518E+03  0.12254749017E+04  0.12939814512E+04  0.25000000000E+03 0.  0.
    5000001    1    1    2    0    0 -0.19331523563E+03 -0.26968218518E+03  0.17151241343E+04  0.17647237906E+04  0.25000000000E+03 0.  0.
<mgrwt>
<rscale>  0 0.84175713E+03</rscale>
<asrwt>0</asrwt>
<pdfrwt beam="1">  1        2 0.46148501E+00 0.84175713E+03</pdfrwt>
<pdfrwt beam="2">  1       -2 0.90850914E-02 0.84175713E+03</pdfrwt>
<totfact> 0.14589693E+02</totfact>
</mgrwt>
</event>
<event>
 4    1  0.1720876E-005  0.9479301E+03  0.7818608E-02  0.9367573E-01
          2   -1    0    0  501    0  0.00000000000E+00  0.00000000000E+00  0.26326168653E+03  0.26326168654E+03  0.25500000000E-02 0.  1.
         -2   -1    0    0    0  501 -0.00000000000E+00 -0.00000000000E+00 -0.85330640927E+03  0.85330640927E+03  0.25500000000E-02 0. -1.
   -5000001    1    1    2    0    0  0.27423541408E+03  0.19550987422E+03 -0.35045621243E+02  0.42090066384E+03  0.25000000000E+03 0.  0.
    5000001    1    1    2    0    0 -0.27423541408E+03 -0.19550987422E+03 -0.55499910150E+03  0.69566743198E+03  0.25000000000E+03 0.  0.
<mgrwt>
<rscale>  0 0.94793013E+03</rscale>
<asrwt>0</asrwt>
<pdfrwt beam="1">  1        2 0.40501798E-01 0.94793013E+03</pdfrwt>
<pdfrwt beam="2">  1       -2 0.13127791E+00 0.94793013E+03</pdfrwt>
<totfact> 0.53832877E+01</totfact>
</mgrwt>
</event>
<event>
 4    1  0.1720876E-005  0.8266938E+03  0.7818608E-02  0.9522163E-01
          2   -1    0    0  501    0  0.00000000000E+00  0.00000000000E+00  0.51494514952E+03  0.51494514953E+03  0.25500000000E-02 0.  1.
         -2   -1    0    0    0  501 -0.00000000000E+00 -0.00000000000E+00 -0.33179387149E+03  0.33179387150E+03  0.25500000000E-02 0. -1.
   -5000001    1    1    2    0    0 -0.20918811973E+03  0.25197441419E+03  0.57530078444E+02  0.41600539031E+03  0.25000000000E+03 0.  0.
    5000001    1    1    2    0    0  0.20918811973E+03 -0.25197441419E+03  0.12562119959E+03  0.43073363071E+03  0.25000000000E+03 0.  0.
<mgrwt>
<rscale>  0 0.82669376E+03</rscale>
<asrwt>0</asrwt>
<pdfrwt beam="1">  1        2 0.79222331E-01 0.82669376E+03</pdfrwt>
<pdfrwt beam="2">  1       -2 0.51045211E-01 0.82669376E+03</pdfrwt>
<totfact> 0.21717309E+02</totfact>
</mgrwt>
</event>
<event>
 4    1  0.1720876E-005  0.6066776E+03  0.7818608E-02  0.9891648E-01
          2   -1    0    0  501    0  0.00000000000E+00  0.00000000000E+00  0.25329301804E+04  0.25329301804E+04  0.25500000000E-02 0.  1.
         -2   -1    0    0    0  501 -0.00000000000E+00 -0.00000000000E+00 -0.36327263449E+02  0.36327263538E+02  0.25500000000E-02 0. -1.
   -5000001    1    1    2    0    0 -0.15540991827E+03  0.82680301269E+01  0.15564316280E+04  0.15840454589E+04  0.25000000000E+03 0.  0.
    5000001    1    1    2    0    0  0.15540991827E+03 -0.82680301269E+01  0.94017128888E+03  0.98521198504E+03  0.25000000000E+03 0.  0.
<mgrwt>
<rscale>  0 0.60667758E+03</rscale>
<asrwt>0</asrwt>
<pdfrwt beam="1">  1        2 0.38968167E+00 0.60667758E+03</pdfrwt>
<pdfrwt beam="2">  1       -2 0.55888083E-02 0.60667758E+03</pdfrwt>
<totfact> 0.60808063E+02</totfact>
</mgrwt>
</event>
<event>
 4    1  0.1720876E-005  0.5482102E+03  0.7818608E-02  0.1001909E+00
          2   -1    0    0  501    0  0.00000000000E+00  0.00000000000E+00  0.99969183839E+02  0.99969183872E+02  0.25500000000E-02 0.  1.
         -2   -1    0    0    0  501 -0.00000000000E+00 -0.00000000000E+00 -0.75156762691E+03  0.75156762692E+03  0.25500000000E-02 0. -1.
   -5000001    1    1    2    0    0 -0.94749427063E+02 -0.44346650659E+02 -0.38964590899E+03  0.47462407624E+03  0.25000000000E+03 0.  0.
    5000001    1    1    2    0    0  0.94749427063E+02  0.44346650659E+02 -0.26195253409E+03  0.37691273455E+03  0.25000000000E+03 0.  0.
<mgrwt>
<rscale>  0 0.54821019E+03</rscale>
<asrwt>0</asrwt>
<pdfrwt beam="1">  1        2 0.15379875E-01 0.54821019E+03</pdfrwt>
<pdfrwt beam="2">  1       -2 0.11562579E+00 0.54821019E+03</pdfrwt>
<totfact> 0.22941597E+02</totfact>
</mgrwt>
</event>
<event>
 4    1  0.1720876E-005  0.9365039E+03  0.7818608E-02  0.9381066E-01
          2   -1    0    0  501    0  0.00000000000E+00  0.00000000000E+00  0.90797770725E+03  0.90797770726E+03  0.25500000000E-02 0.  1.
         -2   -1    0    0    0  501 -0.00000000000E+00 -0.00000000000E+00 -0.24148155429E+03  0.24148155430E+03  0.25500000000E-02 0. -1.
   -5000001    1    1    2    0    0  0.36226062663E+03 -0.15680587176E+03  0.37085974408E+03  0.59653817380E+03  0.25000000000E+03 0.  0.
    5000001    1    1    2    0    0 -0.36226062663E+03  0.15680587176E+03  0.29563640889E+03  0.55292108775E+03  0.25000000000E+03 0.  0.
<mgrwt>
<rscale>  0 0.93650386E+03</rscale>
<asrwt>0</asrwt>
<pdfrwt beam="1">  1        2 0.13968888E+00 0.93650386E+03</pdfrwt>
<pdfrwt beam="2">  1       -2 0.37151009E-01 0.93650386E+03</pdfrwt>
<totfact> 0.19784714E+02</totfact>
</mgrwt>
</event>
<event>
 4    1  0.1720876E-005  0.7976742E+03  0.7818608E-02  0.9563390E-01
         -2   -1    0    0    0  501 -0.00000000000E+00  0.00000000000E+00  0.95875727828E+02  0.95875727862E+02  0.25500000000E-02 0. -1.
          2   -1    0    0  501    0  0.00000000000E+00 -0.00000000000E+00 -0.16591376769E+04  0.16591376769E+04  0.25500000000E-02 0.  1.
   -5000001    1    1    2    0    0 -0.34551879802E+02  0.30815389957E+03 -0.82663354411E+03  0.91759232477E+03  0.25000000000E+03 0.  0.
    5000001    1    1    2    0    0  0.34551879802E+02 -0.30815389957E+03 -0.73662840493E+03  0.83742107996E+03  0.25000000000E+03 0.  0.
<mgrwt>
<rscale>  0 0.79767420E+03</rscale>
<asrwt>0</asrwt>
<pdfrwt beam="1">  1        2 0.25525193E+00 0.79767420E+03</pdfrwt>
<pdfrwt beam="2">  1       -2 0.14750113E-01 0.79767420E+03</pdfrwt>
<totfact> 0.37723126E+02</totfact>
</mgrwt>
</event>
<event>
 4    1  0.1720876E-005  0.9540703E+03  0.7818608E-02  0.9360406E-01
          2   -1    0    0  501    0  0.00000000000E+00  0.00000000000E+00  0.61274411572E+03  0.61274411573E+03  0.25500000000E-02 0.  1.
         -2   -1    0    0    0  501 -0.00000000000E+00 -0.00000000000E+00 -0.37138264556E+03  0.37138264557E+03  0.25500000000E-02 0. -1.
   -5000001    1    1    2    0    0  0.26666395941E+03 -0.23054419451E+03  0.32903992503E+03  0.54316439973E+03  0.25000000000E+03 0.  0.
    5000001    1    1    2    0    0 -0.26666395941E+03  0.23054419451E+03 -0.87678454869E+02  0.44096236157E+03  0.25000000000E+03 0.  0.
<mgrwt>
<rscale>  0 0.95407029E+03</rscale>
<asrwt>0</asrwt>
<pdfrwt beam="1">  1        2 0.94268326E-01 0.95407029E+03</pdfrwt>
<pdfrwt beam="2">  1       -2 0.57135791E-01 0.95407029E+03</pdfrwt>
<totfact> 0.13897226E+02</totfact>
</mgrwt>
</event>
<event>
 4    1  0.1720876E-005  0.1002487E+04  0.7818608E-02  0.9305822E-01
          2   -1    0    0  501    0  0.00000000000E+00  0.00000000000E+00  0.31049135322E+04  0.31049135322E+04  0.25500000000E-02 0.  1.
         -2   -1    0    0    0  501 -0.00000000000E+00 -0.00000000000E+00 -0.80918459102E+02  0.80918459142E+02  0.25500000000E-02 0. -1.
   -5000001    1    1    2    0    0 -0.23351250572E+02 -0.19642469516E+03  0.28276341005E+03  0.42612567141E+03  0.25000000000E+03 0.  0.
    5000001    1    1    2    0    0  0.23351250572E+02  0.19642469516E+03  0.27412316631E+04  0.27597063200E+04  0.25000000000E+03 0.  0.
<mgrwt>
<rscale>  0 0.10024865E+04</rscale>
<asrwt>0</asrwt>
<pdfrwt beam="1">  1        2 0.47767897E+00 0.10024865E+04</pdfrwt>
<pdfrwt beam="2">  1       -2 0.12448995E-01 0.10024865E+04</pdfrwt>
<totfact> 0.73553437E+01</totfact>
</mgrwt>
</event>
<event>
 4    1  0.1720876E-005  0.1027805E+04  0.7818608E-02  0.9278564E-01
         -2   -1    0    0    0  501 -0.00000000000E+00  0.00000000000E+00  0.25249819535E+03  0.25249819537E+03  0.25500000000E-02 0. -1.
          2   -1    0    0  501    0  0.00000000000E+00 -0.00000000000E+00 -0.10459304240E+04  0.10459304240E+04  0.25500000000E-02 0.  1.
   -5000001    1    1    2    0    0  0.35709259429E+02  0.35921127414E+03 -0.73401484556E+03  0.85532782264E+03  0.25000000000E+03 0.  0.
    5000001    1    1    2    0    0 -0.35709259429E+02 -0.35921127414E+03 -0.59417383117E+02  0.44310079676E+03  0.25000000000E+03 0.  0.
<mgrwt>
<rscale>  0 0.10278045E+04</rscale>
<asrwt>0</asrwt>
<pdfrwt beam="1">  1        2 0.16091237E+00 0.10278045E+04</pdfrwt>
<pdfrwt beam="2">  1       -2 0.38845877E-01 0.10278045E+04</pdfrwt>
<totfact> 0.14687578E+02</totfact>
</mgrwt>
</event>
<event>
 4    1  0.1720876E-005  0.5761590E+03  0.7818608E-02  0.9956141E-01
          2   -1    0    0  501    0  0.00000000000E+00  0.00000000000E+00  0.35169102715E+03  0.35169102715E+03  0.25500000000E-02 0.  1.
         -2   -1    0    0    0  501 -0.00000000000E+00 -0.00000000000E+00 -0.23597363002E+03  0.23597363003E+03  0.25500000000E-02 0. -1.
   -5000001    1    1    2    0    0  0.12765268904E+03  0.57848212160E+02  0.28153521451E+02  0.28798306450E+03  0.25000000000E+03 0.  0.
    5000001    1    1    2    0    0 -0.12765268904E+03 -0.57848212160E+02  0.87563875675E+02  0.29968159268E+03  0.25000000000E+03 0.  0.
<mgrwt>
<rscale>  0 0.57615903E+03</rscale>
<asrwt>0</asrwt>
<pdfrwt beam="1">  1        2 0.54106312E-01 0.57615903E+03</pdfrwt>
<pdfrwt beam="2">  1       -2 0.36303635E-01 0.57615903E+03</pdfrwt>
<totfact> 0.66040722E+02</totfact>
</mgrwt>
</event>
<event>
 4    1  0.1720876E-005  0.5724168E+03  0.7818608E-02  0.9964345E-01
          2   -1    0    0  501    0  0.00000000000E+00  0.00000000000E+00  0.13998098589E+04  0.13998098589E+04  0.25500000000E-02 0.  1.
         -2   -1    0    0    0  501 -0.00000000000E+00 -0.00000000000E+00 -0.58518842934E+02  0.58518842989E+02  0.25500000000E-02 0. -1.
   -5000001    1    1    2    0    0 -0.57836240177E+01 -0.13229956946E+03  0.78106946603E+03  0.83072627089E+03  0.25000000000E+03 0.  0.
    5000001    1    1    2    0    0  0.57836240177E+01  0.13229956946E+03  0.56022154995E+03  0.62760243102E+03  0.25000000000E+03 0.  0.
<mgrwt>
<rscale>  0 0.57241682E+03</rscale>
<asrwt>0</asrwt>
<pdfrwt beam="1">  1        2 0.21535534E+00 0.57241682E+03</pdfrwt>
<pdfrwt beam="2">  1       -2 0.90028998E-02 0.57241682E+03</pdfrwt>
<totfact> 0.11976106E+03</totfact>
</mgrwt>
</event>
<event>
 4    1  0.1720876E-005  0.6649940E+03  0.7818608E-02  0.9779044E-01
          2   -1    0    0  501    0  0.00000000000E+00  0.00000000000E+00  0.23102094272E+04  0.23102094272E+04  0.25500000000E-02 0.  1.
         -2   -1    0    0    0  501 -0.00000000000E+00 -0.00000000000E+00 -0.47854647045E+02  0.47854647113E+02  0.25500000000E-02 0. -1.
   -5000001    1    1    2    0    0 -0.16935559190E+03 -0.58446080791E+02  0.68324399817E+03  0.74927940176E+03  0.25000000000E+03 0.  0.
    5000001    1    1    2    0    0  0.16935559190E+03  0.58446080791E+02  0.15791107820E+04  0.16087846725E+04  0.25000000000E+03 0.  0.
<mgrwt>
<rscale>  0 0.66499401E+03</rscale>
<asrwt>0</asrwt>
<pdfrwt beam="1">  1        2 0.35541691E+00 0.66499401E+03</pdfrwt>
<pdfrwt beam="2">  1       -2 0.73622519E-02 0.66499401E+03</pdfrwt>
<totfact> 0.52228061E+02</totfact>
</mgrwt>
</event>
<event>
 4    1  0.1720876E-005  0.1211424E+04  0.7818608E-02  0.9102915E-01
          2   -1    0    0  501    0  0.00000000000E+00  0.00000000000E+00  0.12401770438E+04  0.12401770438E+04  0.25500000000E-02 0.  1.
         -2   -1    0    0    0  501 -0.00000000000E+00 -0.00000000000E+00 -0.29583448091E+03  0.29583448092E+03  0.25500000000E-02 0. -1.
   -5000001    1    1    2    0    0 -0.25819143501E+03  0.48605349912E+03  0.52088902295E+03  0.79795751475E+03  0.25000000000E+03 0.  0.
    5000001    1    1    2    0    0  0.25819143501E+03 -0.48605349912E+03  0.42345353990E+03  0.73805400993E+03  0.25000000000E+03 0.  0.
<mgrwt>
<rscale>  0 0.12114242E+04</rscale>
<asrwt>0</asrwt>
<pdfrwt beam="1">  1        2 0.19079647E+00 0.12114242E+04</pdfrwt>
<pdfrwt beam="2">  1       -2 0.45512997E-01 0.12114242E+04</pdfrwt>
<totfact> 0.80879948E+01</totfact>
</mgrwt>
</event>
<event>
 4    1  0.1720876E-005  0.6316463E+03  0.7818608E-02  0.9841841E-01
         -2   -1    0    0    0  501 -0.00000000000E+00  0.00000000000E+00  0.10407259157E+04  0.10407259157E+04  0.25500000000E-02 0.  1.
          2   -1    0    0  501    0  0.00000000000E+00 -0.00000000000E+00 -0.95841036688E+02  0.95841036722E+02  0.25500000000E-02 0. -1.
   -5000001    1    1    2    0    0  0.89862282061E+02 -0.17056069448E+03  0.48834124311E+03  0.58150094580E+03  0.25000000000E+03 0.  0.
    5000001    1    1    2    0    0 -0.89862282061E+02  0.17056069448E+03  0.45654363593E+03  0.55506600666E+03  0.25000000000E+03 0.  0.
<mgrwt>
<rscale>  0 0.63164626E+03</rscale>
<asrwt>0</asrwt>
<pdfrwt beam="1">  1        2 0.14744775E-01 0.63164626E+03</pdfrwt>
<pdfrwt beam="2">  1       -2 0.16011167E+00 0.63164626E+03</pdfrwt>
<totfact> 0.10470437E+02</totfact>
</mgrwt>
</event>
<event>
 4    1  0.1720876E-005  0.5913455E+03  0.7818608E-02  0.9923526E-01
          2   -1    0    0  501    0  0.00000000000E+00  0.00000000000E+00  0.14038120794E+04  0.14038120794E+04  0.25500000000E-02 0.  1.
         -2   -1    0    0    0  501 -0.00000000000E+00 -0.00000000000E+00 -0.62274979031E+02  0.62274979083E+02  0.25500000000E-02 0. -1.
   -5000001    1    1    2    0    0  0.80286715397E+02  0.97027497980E+02  0.90677959498E+03  0.94900449203E+03  0.25000000000E+03 0.  0.
    5000001    1    1    2    0    0 -0.80286715397E+02 -0.97027497980E+02  0.43475750539E+03  0.51708256645E+03  0.25000000000E+03 0.  0.
<mgrwt>
<rscale>  0 0.59134548E+03</rscale>
<asrwt>0</asrwt>
<pdfrwt beam="1">  1        2 0.21597107E+00 0.59134548E+03</pdfrwt>
<pdfrwt beam="2">  1       -2 0.95807668E-02 0.59134548E+03</pdfrwt>
<totfact> 0.10769908E+03</totfact>
</mgrwt>
</event>
<event>
 4    1  0.1720876E-005  0.7536789E+03  0.7818608E-02  0.9629596E-01
          2   -1    0    0  501    0  0.00000000000E+00  0.00000000000E+00  0.82418146758E+03  0.82418146759E+03  0.25500000000E-02 0.  1.
         -2   -1    0    0    0  501 -0.00000000000E+00 -0.00000000000E+00 -0.17230181734E+03  0.17230181736E+03  0.25500000000E-02 0. -1.
   -5000001    1    1    2    0    0  0.11375320631E+03 -0.22055998546E+03  0.50293866997E+03  0.61403078497E+03  0.25000000000E+03 0.  0.
    5000001    1    1    2    0    0 -0.11375320631E+03  0.22055998546E+03  0.14894098027E+03  0.38245249998E+03  0.25000000000E+03 0.  0.
<mgrwt>
<rscale>  0 0.75367888E+03</rscale>
<asrwt>0</asrwt>
<pdfrwt beam="1">  1        2 0.12679715E+00 0.75367888E+03</pdfrwt>
<pdfrwt beam="2">  1       -2 0.26507973E-01 0.75367888E+03</pdfrwt>
<totfact> 0.42872971E+02</totfact>
</mgrwt>
</event>
<event>
 4    1  0.1720876E-005  0.6508192E+03  0.7818608E-02  0.9805243E-01
         -2   -1    0    0    0  501 -0.00000000000E+00  0.00000000000E+00  0.43220725790E+03  0.43220725791E+03  0.25500000000E-02 0. -1.
          2   -1    0    0  501    0  0.00000000000E+00 -0.00000000000E+00 -0.24500145264E+03  0.24500145265E+03  0.25500000000E-02 0.  1.
   -5000001    1    1    2    0    0  0.11514928960E+03  0.15651370385E+03  0.17171687147E+03  0.36019797658E+03  0.25000000000E+03 0.  0.
    5000001    1    1    2    0    0 -0.11514928960E+03 -0.15651370385E+03  0.15488933796E+02  0.31701073398E+03  0.25000000000E+03 0.  0.
<mgrwt>
<rscale>  0 0.65081919E+03</rscale>
<asrwt>0</asrwt>
<pdfrwt beam="1">  1        2 0.37692532E-01 0.65081919E+03</pdfrwt>
<pdfrwt beam="2">  1       -2 0.66493423E-01 0.65081919E+03</pdfrwt>
<totfact> 0.28906086E+02</totfact>
</mgrwt>
</event>
<event>
 4    1  0.1720876E-005  0.7610639E+03  0.7818608E-02  0.9618151E-01
         -2   -1    0    0    0  501 -0.00000000000E+00  0.00000000000E+00  0.63249713963E+03  0.63249713963E+03  0.25500000000E-02 0. -1.
          2   -1    0    0  501    0  0.00000000000E+00 -0.00000000000E+00 -0.22894107995E+03  0.22894107997E+03  0.25500000000E-02 0.  1.
   -5000001    1    1    2    0    0 -0.18431592900E+03 -0.15243298925E+03  0.22466295625E+02  0.34671733780E+03  0.25000000000E+03 0.  0.
    5000001    1    1    2    0    0  0.18431592900E+03  0.15243298925E+03  0.38108976405E+03  0.51472088180E+03  0.25000000000E+03 0.  0.
<mgrwt>
<rscale>  0 0.76106393E+03</rscale>
<asrwt>0</asrwt>
<pdfrwt beam="1">  1        2 0.35221705E-01 0.76106393E+03</pdfrwt>
<pdfrwt beam="2">  1       -2 0.97307251E-01 0.76106393E+03</pdfrwt>
<totfact> 0.13196337E+02</totfact>
</mgrwt>
</event>
<event>
 4    1  0.1720876E-005  0.7604420E+03  0.7818608E-02  0.9619109E-01
          2   -1    0    0  501    0  0.00000000000E+00  0.00000000000E+00  0.27859914070E+04  0.27859914070E+04  0.25500000000E-02 0. -1.
         -2   -1    0    0    0  501 -0.00000000000E+00 -0.00000000000E+00 -0.51891050544E+02  0.51891050607E+02  0.25500000000E-02 0.  1.
   -5000001    1    1    2    0    0 -0.13418735330E+03 -0.22275921566E+03  0.91860072756E+03  0.98689169143E+03  0.25000000000E+03 0.  0.
    5000001    1    1    2    0    0  0.13418735330E+03  0.22275921566E+03  0.18154996289E+04  0.18509907661E+04  0.25000000000E+03 0.  0.
<mgrwt>
<rscale>  0 0.76044203E+03</rscale>
<asrwt>0</asrwt>
<pdfrwt beam="1">  1        2 0.42861407E+00 0.76044203E+03</pdfrwt>
<pdfrwt beam="2">  1       -2 0.79832383E-02 0.76044203E+03</pdfrwt>
<totfact> 0.24358845E+02</totfact>
</mgrwt>
</event>
<event>
 4    1  0.1720876E-005  0.9851672E+03  0.7818608E-02  0.9324964E-01
         -2   -1    0    0    0  501 -0.00000000000E+00  0.00000000000E+00  0.22540454018E+03  0.22540454019E+03  0.25500000000E-02 0. -1.
          2   -1    0    0  501    0  0.00000000000E+00 -0.00000000000E+00 -0.10764582731E+04  0.10764582731E+04  0.25500000000E-02 0.  1.
   -5000001    1    1    2    0    0 -0.58511781029E+02 -0.30047096290E+03 -0.81402860328E+03  0.90490275445E+03  0.25000000000E+03 0.  0.
    5000001    1    1    2    0    0  0.58511781029E+02  0.30047096290E+03 -0.37025129608E+02  0.39696005880E+03  0.25000000000E+03 0.  0.
<mgrwt>
<rscale>  0 0.98516716E+03</rscale>
<asrwt>0</asrwt>
<pdfrwt beam="1">  1        2 0.16560896E+00 0.98516716E+03</pdfrwt>
<pdfrwt beam="2">  1       -2 0.34677622E-01 0.98516716E+03</pdfrwt>
<totfact> 0.17530982E+02</totfact>
</mgrwt>
</event>
<event>
 4    1  0.1720876E-005  0.5661877E+03  0.7818608E-02  0.9978150E-01
          2   -1    0    0  501    0  0.00000000000E+00  0.00000000000E+00  0.15481312104E+04  0.15481312104E+04  0.25500000000E-02 0.  1.
         -2   -1    0    0    0  501 -0.00000000000E+00 -0.00000000000E+00 -0.51767019026E+02  0.51767019089E+02  0.25500000000E-02 0. -1.
   -5000001    1    1    2    0    0 -0.92672536592E+02 -0.88342162644E+02  0.64829310926E+03  0.70652423331E+03  0.25000000000E+03 0.  0.
    5000001    1    1    2    0    0  0.92672536592E+02  0.88342162644E+02  0.84807108215E+03  0.89337399622E+03  0.25000000000E+03 0.  0.
<mgrwt>
<rscale>  0 0.56618774E+03</rscale>
<asrwt>0</asrwt>
<pdfrwt beam="1">  1        2 0.23817403E+00 0.56618774E+03</pdfrwt>
<pdfrwt beam="2">  1       -2 0.79641570E-02 0.56618774E+03</pdfrwt>
<totfact> 0.12062899E+03</totfact>
</mgrwt>
</event>
<event>
 4    1  0.1720876E-005  0.7318454E+03  0.7818608E-02  0.9664271E-01
         -2   -1    0    0    0  501 -0.00000000000E+00  0.00000000000E+00  0.94698528324E+02  0.94698528358E+02  0.25500000000E-02 0. -1.
          2   -1    0    0  501    0  0.00000000000E+00 -0.00000000000E+00 -0.14139544349E+04  0.14139544349E+04  0.25500000000E-02 0.  1.
   -5000001    1    1    2    0    0 -0.24569771442E+03 -0.10311964522E+03 -0.61848299449E+03  0.71834688178E+03  0.25000000000E+03 0.  0.
    5000001    1    1    2    0    0  0.24569771442E+03  0.10311964522E+03 -0.70077291208E+03  0.79030608147E+03  0.25000000000E+03 0.  0.
<mgrwt>
<rscale>  0 0.73184535E+03</rscale>
<asrwt>0</asrwt>
<pdfrwt beam="1">  1        2 0.21753144E+00 0.73184535E+03</pdfrwt>
<pdfrwt beam="2">  1       -2 0.14569005E-01 0.73184535E+03</pdfrwt>
<totfact> 0.52903977E+02</totfact>
</mgrwt>
</event>
<event>
 4    1  0.1720876E-005  0.1332394E+04  0.7818608E-02  0.9004263E-01
          2   -1    0    0  501    0  0.00000000000E+00  0.00000000000E+00  0.72310988442E+03  0.72310988442E+03  0.25500000000E-02 0.  1.
         -2   -1    0    0    0  501 -0.00000000000E+00 -0.00000000000E+00 -0.61376387011E+03  0.61376387011E+03  0.25500000000E-02 0. -1.
   -5000001    1    1    2    0    0 -0.61580452021E+03 -0.20638050436E+02  0.13576978759E+02  0.66507553750E+03  0.25000000000E+03 0.  0.
    5000001    1    1    2    0    0  0.61580452021E+03  0.20638050436E+02  0.95769035554E+02  0.67179821703E+03  0.25000000000E+03 0.  0.
<mgrwt>
<rscale>  0 0.13323944E+04</rscale>
<asrwt>0</asrwt>
<pdfrwt beam="1">  1        2 0.11124767E+00 0.13323944E+04</pdfrwt>
<pdfrwt beam="2">  1       -2 0.94425212E-01 0.13323944E+04</pdfrwt>
<totfact> 0.36354096E+01</totfact>
</mgrwt>
</event>
<event>
 4    1  0.1720876E-005  0.9056409E+03  0.7818608E-02  0.9418557E-01
         -2   -1    0    0    0  501 -0.00000000000E+00  0.00000000000E+00  0.90570040254E+02  0.90570040290E+02  0.25500000000E-02 0. -1.
          2   -1    0    0  501    0  0.00000000000E+00 -0.00000000000E+00 -0.22639537302E+04  0.22639537302E+04  0.25500000000E-02 0.  1.
   -5000001    1    1    2    0    0  0.25956541467E+02 -0.35691869834E+03 -0.77382717610E+03  0.88846676794E+03  0.25000000000E+03 0.  0.
    5000001    1    1    2    0    0 -0.25956541467E+02  0.35691869834E+03 -0.13995565139E+04  0.14660570026E+04  0.25000000000E+03 0.  0.
<mgrwt>
<rscale>  0 0.90564095E+03</rscale>
<asrwt>0</asrwt>
<pdfrwt beam="1">  1        2 0.34830053E+00 0.90564095E+03</pdfrwt>
<pdfrwt beam="2">  1       -2 0.13933854E-01 0.90564095E+03</pdfrwt>
<totfact> 0.19169785E+02</totfact>
</mgrwt>
</event>
<event>
 4    1  0.1720876E-005  0.6977008E+03  0.7818608E-02  0.9721172E-01
         -2   -1    0    0    0  501 -0.00000000000E+00  0.00000000000E+00  0.83902749176E+02  0.83902749215E+02  0.25500000000E-02 0. -1.
          2   -1    0    0  501    0  0.00000000000E+00 -0.00000000000E+00 -0.14504483650E+04  0.14504483650E+04  0.25500000000E-02 0.  1.
   -5000001    1    1    2    0    0 -0.98592540198E+02  0.19862843101E+03 -0.90343939906E+03  0.96326345844E+03  0.25000000000E+03 0.  0.
    5000001    1    1    2    0    0  0.98592540198E+02 -0.19862843101E+03 -0.46310621680E+03  0.57108765581E+03  0.25000000000E+03 0.  0.
<mgrwt>
<rscale>  0 0.69770081E+03</rscale>
<asrwt>0</asrwt>
<pdfrwt beam="1">  1        2 0.22314588E+00 0.69770081E+03</pdfrwt>
<pdfrwt beam="2">  1       -2 0.12908116E-01 0.69770081E+03</pdfrwt>
<totfact> 0.61915929E+02</totfact>
</mgrwt>
</event>
<event>
 4    1  0.1720876E-005  0.7642087E+03  0.7818608E-02  0.9613319E-01
         -2   -1    0    0    0  501 -0.00000000000E+00  0.00000000000E+00  0.20291248874E+03  0.20291248876E+03  0.25500000000E-02 0. -1.
          2   -1    0    0  501    0  0.00000000000E+00 -0.00000000000E+00 -0.71954034875E+03  0.71954034875E+03  0.25500000000E-02 0.  1.
   -5000001    1    1    2    0    0  0.18325903777E+02 -0.27373662695E+03 -0.14876852736E+03  0.39987454835E+03  0.25000000000E+03 0.  0.
    5000001    1    1    2    0    0 -0.18325903777E+02  0.27373662695E+03 -0.36785933265E+03  0.52257828916E+03  0.25000000000E+03 0.  0.
<mgrwt>
<rscale>  0 0.76420867E+03</rscale>
<asrwt>0</asrwt>
<pdfrwt beam="1">  1        2 0.11069851E+00 0.76420867E+03</pdfrwt>
<pdfrwt beam="2">  1       -2 0.31217306E-01 0.76420867E+03</pdfrwt>
<totfact> 0.37853562E+02</totfact>
</mgrwt>
</event>
<event>
 4    1  0.1720876E-005  0.9203018E+03  0.7818608E-02  0.9400553E-01
          2   -1    0    0  501    0  0.00000000000E+00  0.00000000000E+00  0.64691853655E+03  0.64691853655E+03  0.25500000000E-02 0.  1.
         -2   -1    0    0    0  501 -0.00000000000E+00 -0.00000000000E+00 -0.32730374148E+03  0.32730374149E+03  0.25500000000E-02 0. -1.
   -5000001    1    1    2    0    0 -0.16164973756E+03 -0.24701446473E+03  0.42358982559E+03  0.57365069841E+03  0.25000000000E+03 0.  0.
    5000001    1    1    2    0    0  0.16164973756E+03  0.24701446473E+03 -0.10397503052E+03  0.40057157964E+03  0.25000000000E+03 0.  0.
<mgrwt>
<rscale>  0 0.92030181E+03</rscale>
<asrwt>0</asrwt>
<pdfrwt beam="1">  1        2 0.99525928E-01 0.92030181E+03</pdfrwt>
<pdfrwt beam="2">  1       -2 0.50354422E-01 0.92030181E+03</pdfrwt>
<totfact> 0.16910944E+02</totfact>
</mgrwt>
</event>
<event>
 4    1  0.1720876E-005  0.8899426E+03  0.7818608E-02  0.9438242E-01
          2   -1    0    0  501    0  0.00000000000E+00  0.00000000000E+00  0.12317234533E+03  0.12317234536E+03  0.25500000000E-02 0.  1.
         -2   -1    0    0    0  501 -0.00000000000E+00 -0.00000000000E+00 -0.16074993324E+04  0.16074993324E+04  0.25500000000E-02 0. -1.
   -5000001    1    1    2    0    0 -0.32177133902E+03 -0.12796894507E+03 -0.98495227874E+03  0.10735659444E+04  0.25000000000E+03 0.  0.
    5000001    1    1    2    0    0  0.32177133902E+03  0.12796894507E+03 -0.49937470830E+03  0.65710573336E+03  0.25000000000E+03 0.  0.
<mgrwt>
<rscale>  0 0.88994261E+03</rscale>
<asrwt>0</asrwt>
<pdfrwt beam="1">  1        2 0.18949593E-01 0.88994261E+03</pdfrwt>
<pdfrwt beam="2">  1       -2 0.24730757E+00 0.88994261E+03</pdfrwt>
<totfact> 0.20527250E+01</totfact>
</mgrwt>
</event>
<event>
 4    1  0.1720876E-005  0.7518992E+03  0.7818608E-02  0.9632375E-01
         -2   -1    0    0    0  501 -0.00000000000E+00  0.00000000000E+00  0.41535423656E+03  0.41535423657E+03  0.25500000000E-02 0. -1.
          2   -1    0    0  501    0  0.00000000000E+00 -0.00000000000E+00 -0.34028329345E+03  0.34028329346E+03  0.25500000000E-02 0.  1.
   -5000001    1    1    2    0    0 -0.18044875177E+03  0.11508303655E+03 -0.14511591278E+03  0.35967274773E+03  0.25000000000E+03 0.  0.
    5000001    1    1    2    0    0  0.18044875177E+03 -0.11508303655E+03  0.22018685589E+03  0.39596478230E+03  0.25000000000E+03 0.  0.
<mgrwt>
<rscale>  0 0.75189922E+03</rscale>
<asrwt>0</asrwt>
<pdfrwt beam="1">  1        2 0.52351276E-01 0.75189922E+03</pdfrwt>
<pdfrwt beam="2">  1       -2 0.63900652E-01 0.75189922E+03</pdfrwt>
<totfact> 0.21791772E+02</totfact>
</mgrwt>
</event>
<event>
 4    1  0.1720876E-005  0.1346925E+04  0.7818608E-02  0.8993159E-01
          2   -1    0    0  501    0  0.00000000000E+00  0.00000000000E+00  0.16447051532E+04  0.16447051532E+04  0.25500000000E-02 0.  1.
         -2   -1    0    0    0  501 -0.00000000000E+00 -0.00000000000E+00 -0.27576492498E+03  0.27576492499E+03  0.25500000000E-02 0. -1.
   -5000001    1    1    2    0    0  0.60686960582E+03 -0.42714345146E+02  0.47816084466E+03  0.81317465966E+03  0.25000000000E+03 0.  0.
    5000001    1    1    2    0    0 -0.60686960582E+03  0.42714345146E+02  0.89077938355E+03  0.11072954185E+04  0.25000000000E+03 0.  0.
<mgrwt>
<rscale>  0 0.13469254E+04</rscale>
<asrwt>0</asrwt>
<pdfrwt beam="1">  1        2 0.25303156E+00 0.13469254E+04</pdfrwt>
<pdfrwt beam="2">  1       -2 0.42425373E-01 0.13469254E+04</pdfrwt>
<totfact> 0.54158138E+01</totfact>
</mgrwt>
</event>
<event>
 4    1  0.1720876E-005  0.6682305E+03  0.7818608E-02  0.9773160E-01
          2   -1    0    0  501    0  0.00000000000E+00  0.00000000000E+00  0.63319408280E+03  0.63319408281E+03  0.25500000000E-02 0.  1.
         -2   -1    0    0    0  501 -0.00000000000E+00 -0.00000000000E+00 -0.17630139478E+03  0.17630139480E+03  0.25500000000E-02 0. -1.
   -5000001    1    1    2    0    0  0.20342367291E+03 -0.81314806806E+02  0.26934279226E+03  0.42783037322E+03  0.25000000000E+03 0.  0.
    5000001    1    1    2    0    0 -0.20342367291E+03  0.81314806806E+02  0.18754989576E+03  0.38166510439E+03  0.25000000000E+03 0.  0.
<mgrwt>
<rscale>  0 0.66823050E+03</rscale>
<asrwt>0</asrwt>
<pdfrwt beam="1">  1        2 0.97414473E-01 0.66823050E+03</pdfrwt>
<pdfrwt beam="2">  1       -2 0.27123292E-01 0.66823050E+03</pdfrwt>
<totfact> 0.57715600E+02</totfact>
</mgrwt>
</event>
<event>
 4    1  0.1720876E-005  0.7052227E+03  0.7818608E-02  0.9708342E-01
          2   -1    0    0  501    0  0.00000000000E+00  0.00000000000E+00  0.14152253975E+03  0.14152253977E+03  0.25500000000E-02 0.  1.
         -2   -1    0    0    0  501 -0.00000000000E+00 -0.00000000000E+00 -0.87855092432E+03  0.87855092432E+03  0.25500000000E-02 0. -1.
   -5000001    1    1    2    0    0  0.97534253963E+02 -0.21826660182E+03 -0.46748304233E+03  0.58154418150E+03  0.25000000000E+03 0.  0.
    5000001    1    1    2    0    0 -0.97534253963E+02  0.21826660182E+03 -0.26954534225E+03  0.43852928259E+03  0.25000000000E+03 0.  0.
<mgrwt>
<rscale>  0 0.70522268E+03</rscale>
<asrwt>0</asrwt>
<pdfrwt beam="1">  1        2 0.21772699E-01 0.70522268E+03</pdfrwt>
<pdfrwt beam="2">  1       -2 0.13516168E+00 0.70522268E+03</pdfrwt>
<totfact> 0.10235161E+02</totfact>
</mgrwt>
</event>
<event>
 4    1  0.1720876E-005  0.7232934E+03  0.7818608E-02  0.9678206E-01
          2   -1    0    0  501    0  0.00000000000E+00  0.00000000000E+00  0.52053658829E+03  0.52053658830E+03  0.25500000000E-02 0.  1.
         -2   -1    0    0    0  501 -0.00000000000E+00 -0.00000000000E+00 -0.25125677123E+03  0.25125677124E+03  0.25500000000E-02 0. -1.
   -5000001    1    1    2    0    0  0.98190909335E+01 -0.23608612221E+03  0.25372656773E+03  0.42744618704E+03  0.25000000000E+03 0.  0.
    5000001    1    1    2    0    0 -0.98190909335E+01  0.23608612221E+03  0.15553249336E+02  0.34434717250E+03  0.25000000000E+03 0.  0.
<mgrwt>
<rscale>  0 0.72329342E+03</rscale>
<asrwt>0</asrwt>
<pdfrwt beam="1">  1        2 0.80082552E-01 0.72329342E+03</pdfrwt>
<pdfrwt beam="2">  1       -2 0.38654888E-01 0.72329342E+03</pdfrwt>
<totfact> 0.37424733E+02</totfact>
</mgrwt>
</event>
<event>
 4    1  0.1720876E-005  0.6907737E+03  0.7818608E-02  0.9733142E-01
          2   -1    0    0  501    0  0.00000000000E+00  0.00000000000E+00  0.60328585387E+03  0.60328585388E+03  0.25500000000E-02 0.  1.
         -2   -1    0    0    0  501 -0.00000000000E+00 -0.00000000000E+00 -0.19773723503E+03  0.19773723505E+03  0.25500000000E-02 0. -1.
   -5000001    1    1    2    0    0  0.74057780404E+02  0.41791980805E+02  0.46092842918E+03  0.53121195518E+03  0.25000000000E+03 0.  0.
    5000001    1    1    2    0    0 -0.74057780404E+02 -0.41791980805E+02 -0.55379810340E+02  0.26981113374E+03  0.25000000000E+03 0.  0.
<mgrwt>
<rscale>  0 0.69077370E+03</rscale>
<asrwt>0</asrwt>
<pdfrwt beam="1">  1        2 0.92813207E-01 0.69077370E+03</pdfrwt>
<pdfrwt beam="2">  1       -2 0.30421114E-01 0.69077370E+03</pdfrwt>
<totfact> 0.49524068E+02</totfact>
</mgrwt>
</event>
<event>
 4    1  0.1720876E-005  0.6989192E+03  0.7818608E-02  0.9719082E-01
         -2   -1    0    0    0  501 -0.00000000000E+00  0.00000000000E+00  0.55586388317E+03  0.55586388317E+03  0.25500000000E-02 0. -1.
          2   -1    0    0  501    0  0.00000000000E+00 -0.00000000000E+00 -0.21969768540E+03  0.21969768541E+03  0.25500000000E-02 0.  1.
   -5000001    1    1    2    0    0  0.16382642965E+03  0.25776260287E+01 -0.32811864498E+02  0.30070311216E+03  0.25000000000E+03 0.  0.
    5000001    1    1    2    0    0 -0.16382642965E+03 -0.25776260287E+01  0.36897806227E+03  0.47485845643E+03  0.25000000000E+03 0.  0.
<mgrwt>
<rscale>  0 0.69891919E+03</rscale>
<asrwt>0</asrwt>
<pdfrwt beam="1">  1        2 0.33799644E-01 0.69891919E+03</pdfrwt>
<pdfrwt beam="2">  1       -2 0.85517521E-01 0.69891919E+03</pdfrwt>
<totfact> 0.18671895E+02</totfact>
</mgrwt>
</event>
<event>
 4    1  0.1720876E-005  0.9994395E+03  0.7818608E-02  0.9309160E-01
         -2   -1    0    0    0  501 -0.00000000000E+00  0.00000000000E+00  0.28150235590E+03  0.28150235592E+03  0.25500000000E-02 0. -1.
          2   -1    0    0  501    0  0.00000000000E+00 -0.00000000000E+00 -0.88709682847E+03  0.88709682847E+03  0.25500000000E-02 0.  1.
   -5000001    1    1    2    0    0 -0.36620006900E+03 -0.32740429764E+02 -0.36049762355E+02  0.44606503073E+03  0.25000000000E+03 0.  0.
    5000001    1    1    2    0    0  0.36620006900E+03  0.32740429764E+02 -0.56954471020E+03  0.72253415365E+03  0.25000000000E+03 0.  0.
<mgrwt>
<rscale>  0 0.99943954E+03</rscale>
<asrwt>0</asrwt>
<pdfrwt beam="1">  1        2 0.13647643E+00 0.99943954E+03</pdfrwt>
<pdfrwt beam="2">  1       -2 0.43308055E-01 0.99943954E+03</pdfrwt>
<totfact> 0.15093804E+02</totfact>
</mgrwt>
</event>
<event>
 4    1  0.1720876E-005  0.8528010E+03  0.7818608E-02  0.9486585E-01
         -2   -1    0    0    0  501 -0.00000000000E+00  0.00000000000E+00  0.32822029631E+03  0.32822029632E+03  0.25500000000E-02 0. -1.
          2   -1    0    0  501    0  0.00000000000E+00 -0.00000000000E+00 -0.55394922515E+03  0.55394922516E+03  0.25500000000E-02 0.  1.
   -5000001    1    1    2    0    0  0.34098928952E+03 -0.49054511635E+02 -0.86749507460E+02  0.43440248356E+03  0.25000000000E+03 0.  0.
    5000001    1    1    2    0    0 -0.34098928952E+03  0.49054511635E+02 -0.13897942138E+03  0.44776703792E+03  0.25000000000E+03 0.  0.
<mgrwt>
<rscale>  0 0.85280098E+03</rscale>
<asrwt>0</asrwt>
<pdfrwt beam="1">  1        2 0.85222958E-01 0.85280098E+03</pdfrwt>
<pdfrwt beam="2">  1       -2 0.50495430E-01 0.85280098E+03</pdfrwt>
<totfact> 0.20351599E+02</totfact>
</mgrwt>
</event>
<event>
 4    1  0.1720876E-005  0.7934406E+03  0.7818608E-02  0.9569560E-01
         -2   -1    0    0    0  501 -0.00000000000E+00  0.00000000000E+00  0.12823463234E+03  0.12823463237E+03  0.25500000000E-02 0. -1.
          2   -1    0    0  501    0  0.00000000000E+00 -0.00000000000E+00 -0.12273361269E+04  0.12273361269E+04  0.25500000000E-02 0.  1.
   -5000001    1    1    2    0    0  0.16880838778E+03 -0.20943359537E+03 -0.29311891942E+03  0.46986956017E+03  0.25000000000E+03 0.  0.
    5000001    1    1    2    0    0 -0.16880838778E+03  0.20943359537E+03 -0.80598257519E+03  0.88570119914E+03  0.25000000000E+03 0.  0.
<mgrwt>
<rscale>  0 0.79344060E+03</rscale>
<asrwt>0</asrwt>
<pdfrwt beam="1">  1        2 0.18882093E+00 0.79344060E+03</pdfrwt>
<pdfrwt beam="2">  1       -2 0.19728406E-01 0.79344060E+03</pdfrwt>
<totfact> 0.40134611E+02</totfact>
</mgrwt>
</event>
<event>
 4    1  0.1720876E-005  0.9489505E+03  0.7818608E-02  0.9366378E-01
          2   -1    0    0  501    0  0.00000000000E+00  0.00000000000E+00  0.48711031423E+03  0.48711031423E+03  0.25500000000E-02 0.  1.
         -2   -1    0    0    0  501 -0.00000000000E+00 -0.00000000000E+00 -0.46216787568E+03  0.46216787569E+03  0.25500000000E-02 0. -1.
   -5000001    1    1    2    0    0 -0.16219994690E+03 -0.25880068356E+03  0.27588729122E+03  0.48156039501E+03  0.25000000000E+03 0.  0.
    5000001    1    1    2    0    0  0.16219994690E+03  0.25880068356E+03 -0.25094485267E+03  0.46771779491E+03  0.25000000000E+03 0.  0.
<mgrwt>
<rscale>  0 0.94895045E+03</rscale>
<asrwt>0</asrwt>
<pdfrwt beam="1">  1        2 0.74940049E-01 0.94895045E+03</pdfrwt>
<pdfrwt beam="2">  1       -2 0.71102750E-01 0.94895045E+03</pdfrwt>
<totfact> 0.11423172E+02</totfact>
</mgrwt>
</event>
<event>
 4    1  0.1720876E-005  0.6162535E+03  0.7818608E-02  0.9872247E-01
          2   -1    0    0  501    0  0.00000000000E+00  0.00000000000E+00  0.11943924837E+04  0.11943924837E+04  0.25500000000E-02 0.  1.
         -2   -1    0    0    0  501 -0.00000000000E+00 -0.00000000000E+00 -0.79489867274E+02  0.79489867315E+02  0.25500000000E-02 0. -1.
   -5000001    1    1    2    0    0 -0.10319337343E+03 -0.13854644498E+03  0.45208574324E+03  0.54472516830E+03  0.25000000000E+03 0.  0.
    5000001    1    1    2    0    0  0.10319337343E+03  0.13854644498E+03  0.66281687323E+03  0.72915718276E+03  0.25000000000E+03 0.  0.
<mgrwt>
<rscale>  0 0.61625352E+03</rscale>
<asrwt>0</asrwt>
<pdfrwt beam="1">  1        2 0.18375270E+00 0.61625352E+03</pdfrwt>
<pdfrwt beam="2">  1       -2 0.12229210E-01 0.61625352E+03</pdfrwt>
<totfact> 0.95222272E+02</totfact>
</mgrwt>
</event>
<event>
 4    1  0.1720876E-005  0.9693656E+03  0.7818608E-02  0.9342797E-01
         -2   -1    0    0    0  501 -0.00000000000E+00  0.00000000000E+00  0.31946433290E+03  0.31946433291E+03  0.25500000000E-02 0. -1.
          2   -1    0    0  501    0  0.00000000000E+00 -0.00000000000E+00 -0.73534785774E+03  0.73534785774E+03  0.25500000000E-02 0.  1.
   -5000001    1    1    2    0    0 -0.14820879502E+03 -0.38463115662E+03 -0.15342093992E+03  0.50591002992E+03  0.25000000000E+03 0.  0.
    5000001    1    1    2    0    0  0.14820879502E+03  0.38463115662E+03 -0.26246258492E+03  0.54890216073E+03  0.25000000000E+03 0.  0.
<mgrwt>
<rscale>  0 0.96936559E+03</rscale>
<asrwt>0</asrwt>
<pdfrwt beam="1">  1        2 0.11313044E+00 0.96936559E+03</pdfrwt>
<pdfrwt beam="2">  1       -2 0.49148359E-01 0.96936559E+03</pdfrwt>
<totfact> 0.15076555E+02</totfact>
</mgrwt>
</event>
<event>
 4    1  0.1720876E-005  0.6700284E+03  0.7818608E-02  0.9769907E-01
          2   -1    0    0  501    0  0.00000000000E+00  0.00000000000E+00  0.34537456770E+03  0.34537456771E+03  0.25500000000E-02 0.  1.
         -2   -1    0    0    0  501 -0.00000000000E+00 -0.00000000000E+00 -0.32496459876E+03  0.32496459877E+03  0.25500000000E-02 0. -1.
   -5000001    1    1    2    0    0 -0.11337091786E+03 -0.19113060256E+03  0.28938935630E+02  0.33573998011E+03  0.25000000000E+03 0.  0.
    5000001    1    1    2    0    0  0.11337091786E+03  0.19113060256E+03 -0.85289666894E+01  0.33459918637E+03  0.25000000000E+03 0.  0.
<mgrwt>
<rscale>  0 0.67002838E+03</rscale>
<asrwt>0</asrwt>
<pdfrwt beam="1">  1        2 0.53134549E-01 0.67002838E+03</pdfrwt>
<pdfrwt beam="2">  1       -2 0.49994554E-01 0.67002838E+03</pdfrwt>
<totfact> 0.35836051E+02</totfact>
</mgrwt>
</event>
<event>
 4    1  0.1720876E-005  0.5535710E+03  0.7818608E-02  0.1000671E+00
         -2   -1    0    0    0  501 -0.00000000000E+00  0.00000000000E+00  0.25026118711E+04  0.25026118711E+04  0.25500000000E-02 0. -1.
          2   -1    0    0  501    0  0.00000000000E+00 -0.00000000000E+00 -0.30612107511E+02  0.30612107618E+02  0.25500000000E-02 0.  1.
   -5000001    1    1    2    0    0  0.78463839704E+02  0.88852117138E+02  0.12008644278E+04  0.12323257064E+04  0.25000000000E+03 0.  0.
    5000001    1    1    2    0    0 -0.78463839704E+02 -0.88852117138E+02  0.12711353358E+04  0.13008982723E+04  0.25000000000E+03 0.  0.
<mgrwt>
<rscale>  0 0.55357104E+03</rscale>
<asrwt>0</asrwt>
<pdfrwt beam="1">  1        2 0.47095540E-02 0.55357104E+03</pdfrwt>
<pdfrwt beam="2">  1       -2 0.38501730E+00 0.55357104E+03</pdfrwt>
<totfact> 0.18158880E+01</totfact>
</mgrwt>
</event>
<event>
 4    1  0.1720876E-005  0.9514173E+03  0.7818608E-02  0.9363495E-01
         -2   -1    0    0    0  501 -0.00000000000E+00  0.00000000000E+00  0.86480633864E+02  0.86480633902E+02  0.25500000000E-02 0. -1.
          2   -1    0    0  501    0  0.00000000000E+00 -0.00000000000E+00 -0.26167561480E+04  0.26167561480E+04  0.25500000000E-02 0.  1.
   -5000001    1    1    2    0    0  0.33700883052E+02 -0.31975271798E+03 -0.19635432329E+04  0.20053377715E+04  0.25000000000E+03 0.  0.
    5000001    1    1    2    0    0 -0.33700883052E+02  0.31975271798E+03 -0.56673228119E+03  0.69789901040E+03  0.25000000000E+03 0.  0.
<mgrwt>
<rscale>  0 0.95141732E+03</rscale>
<asrwt>0</asrwt>
<pdfrwt beam="1">  1        2 0.40257781E+00 0.95141732E+03</pdfrwt>
<pdfrwt beam="2">  1       -2 0.13304715E-01 0.95141732E+03</pdfrwt>
<totfact> 0.13017511E+02</totfact>
</mgrwt>
</event>
<event>
 4    1  0.1720876E-005  0.8192450E+03  0.7818608E-02  0.9532571E-01
         -2   -1    0    0    0  501 -0.00000000000E+00  0.00000000000E+00  0.45852840956E+03  0.45852840957E+03  0.25500000000E-02 0. -1.
          2   -1    0    0  501    0  0.00000000000E+00 -0.00000000000E+00 -0.36593285174E+03  0.36593285175E+03  0.25500000000E-02 0.  1.
   -5000001    1    1    2    0    0  0.97154148947E+02  0.16745151576E+03  0.30836255596E+03  0.44166322544E+03  0.25000000000E+03 0.  0.
    5000001    1    1    2    0    0 -0.97154148947E+02 -0.16745151576E+03 -0.21576699814E+03  0.38279803588E+03  0.25000000000E+03 0.  0.
<mgrwt>
<rscale>  0 0.81924504E+03</rscale>
<asrwt>0</asrwt>
<pdfrwt beam="1">  1        2 0.56297362E-01 0.81924504E+03</pdfrwt>
<pdfrwt beam="2">  1       -2 0.70542832E-01 0.81924504E+03</pdfrwt>
<totfact> 0.16181657E+02</totfact>
</mgrwt>
</event>
<event>
 4    1  0.1720876E-005  0.5770463E+03  0.7818608E-02  0.9954206E-01
          2   -1    0    0  501    0  0.00000000000E+00  0.00000000000E+00  0.43874693203E+03  0.43874693204E+03  0.25500000000E-02 0.  1.
         -2   -1    0    0    0  501 -0.00000000000E+00 -0.00000000000E+00 -0.18973491353E+03  0.18973491354E+03  0.25500000000E-02 0. -1.
   -5000001    1    1    2    0    0  0.14396529375E+03  0.43623350316E+01  0.12533220814E+03  0.31456827267E+03  0.25000000000E+03 0.  0.
    5000001    1    1    2    0    0 -0.14396529375E+03 -0.43623350316E+01  0.12367981036E+03  0.31391357292E+03  0.25000000000E+03 0.  0.
<mgrwt>
<rscale>  0 0.57704631E+03</rscale>
<asrwt>0</asrwt>
<pdfrwt beam="1">  1        2 0.67499528E-01 0.57704631E+03</pdfrwt>
<pdfrwt beam="2">  1       -2 0.29189987E-01 0.57704631E+03</pdfrwt>
<totfact> 0.77601029E+02</totfact>
</mgrwt>
</event>
<event>
 4    1  0.1720876E-005  0.8726311E+03  0.7818608E-02  0.9460456E-01
          2   -1    0    0  501    0  0.00000000000E+00  0.00000000000E+00  0.15930801485E+04  0.15930801485E+04  0.25500000000E-02 0.  1.
         -2   -1    0    0    0  501 -0.00000000000E+00 -0.00000000000E+00 -0.11949886269E+03  0.11949886271E+03  0.25500000000E-02 0. -1.
   -5000001    1    1    2    0    0  0.33398772439E+03  0.12764405462E+03  0.74762226747E+03  0.86560953064E+03  0.25000000000E+03 0.  0.
    5000001    1    1    2    0    0 -0.33398772439E+03 -0.12764405462E+03  0.72595901838E+03  0.84696948061E+03  0.25000000000E+03 0.  0.
<mgrwt>
<rscale>  0 0.87263112E+03</rscale>
<asrwt>0</asrwt>
<pdfrwt beam="1">  1        2 0.24508922E+00 0.87263112E+03</pdfrwt>
<pdfrwt beam="2">  1       -2 0.18384443E-01 0.87263112E+03</pdfrwt>
<totfact> 0.28007067E+02</totfact>
</mgrwt>
</event>
<event>
 4    1  0.1720876E-005  0.8597639E+03  0.7818608E-02  0.9477325E-01
         -2   -1    0    0    0  501 -0.00000000000E+00  0.00000000000E+00  0.38092003468E+03  0.38092003469E+03  0.25500000000E-02 0. -1.
          2   -1    0    0  501    0  0.00000000000E+00 -0.00000000000E+00 -0.48513724419E+03  0.48513724419E+03  0.25500000000E-02 0.  1.
   -5000001    1    1    2    0    0  0.20507828897E+03  0.43090192542E+02  0.22991330640E+03  0.39909146541E+03  0.25000000000E+03 0.  0.
    5000001    1    1    2    0    0 -0.20507828897E+03 -0.43090192542E+02 -0.33413051590E+03  0.46696581348E+03  0.25000000000E+03 0.  0.
<mgrwt>
<rscale>  0 0.85976391E+03</rscale>
<asrwt>0</asrwt>
<pdfrwt beam="1">  1        2 0.74636499E-01 0.85976391E+03</pdfrwt>
<pdfrwt beam="2">  1       -2 0.58603082E-01 0.85976391E+03</pdfrwt>
<totfact> 0.17456275E+02</totfact>
</mgrwt>
</event>
<event>
 4    1  0.1720876E-005  0.6549452E+03  0.7818608E-02  0.9797544E-01
         -2   -1    0    0    0  501 -0.00000000000E+00  0.00000000000E+00  0.70472832620E+02  0.70472832666E+02  0.25500000000E-02 0. -1.
          2   -1    0    0  501    0  0.00000000000E+00 -0.00000000000E+00 -0.15216970494E+04  0.15216970494E+04  0.25500000000E-02 0.  1.
   -5000001    1    1    2    0    0  0.14579199487E+03 -0.33121595796E+02 -0.10893363648E+04  0.11276107757E+04  0.25000000000E+03 0.  0.
    5000001    1    1    2    0    0 -0.14579199487E+03  0.33121595796E+02 -0.36188785204E+03  0.46455910639E+03  0.25000000000E+03 0.  0.
<mgrwt>
<rscale>  0 0.65494519E+03</rscale>
<asrwt>0</asrwt>
<pdfrwt beam="1">  1        2 0.23410722E+00 0.65494519E+03</pdfrwt>
<pdfrwt beam="2">  1       -2 0.10841975E-01 0.65494519E+03</pdfrwt>
<totfact> 0.75519507E+02</totfact>
</mgrwt>
</event>
<event>
 4    1  0.1720876E-005  0.9401069E+03  0.7818608E-02  0.9376789E-01
         -2   -1    0    0    0  501 -0.00000000000E+00  0.00000000000E+00  0.42962802923E+03  0.42962802923E+03  0.25500000000E-02 0. -1.
          2   -1    0    0  501    0  0.00000000000E+00 -0.00000000000E+00 -0.51428261201E+03  0.51428261202E+03  0.25500000000E-02 0.  1.
   -5000001    1    1    2    0    0 -0.86809271943E+02 -0.37676899889E+03  0.52710311313E+02  0.46343187756E+03  0.25000000000E+03 0.  0.
    5000001    1    1    2    0    0  0.86809271943E+02  0.37676899889E+03 -0.13736489409E+03  0.48047876369E+03  0.25000000000E+03 0.  0.
<mgrwt>
<rscale>  0 0.94010686E+03</rscale>
<asrwt>0</asrwt>
<pdfrwt beam="1">  1        2 0.79120402E-01 0.94010686E+03</pdfrwt>
<pdfrwt beam="2">  1       -2 0.66096620E-01 0.94010686E+03</pdfrwt>
<totfact> 0.12574986E+02</totfact>
</mgrwt>
</event>
<event>
 4    1  0.1720876E-005  0.5809847E+03  0.7818608E-02  0.9945661E-01
         -2   -1    0    0    0  501 -0.00000000000E+00  0.00000000000E+00  0.18120907724E+03  0.18120907726E+03  0.25500000000E-02 0. -1.
          2   -1    0    0  501    0  0.00000000000E+00 -0.00000000000E+00 -0.46568198773E+03  0.46568198774E+03  0.25500000000E-02 0.  1.
   -5000001    1    1    2    0    0 -0.93646820658E+02  0.11114730356E+03 -0.17297933682E+03  0.33696483656E+03  0.25000000000E+03 0.  0.
    5000001    1    1    2    0    0  0.93646820658E+02 -0.11114730356E+03 -0.11149357366E+03  0.30992622844E+03  0.25000000000E+03 0.  0.
<mgrwt>
<rscale>  0 0.58098469E+03</rscale>
<asrwt>0</asrwt>
<pdfrwt beam="1">  1        2 0.71643382E-01 0.58098469E+03</pdfrwt>
<pdfrwt beam="2">  1       -2 0.27878320E-01 0.58098469E+03</pdfrwt>
<totfact> 0.78904848E+02</totfact>
</mgrwt>
</event>
<event>
 4    1  0.1720876E-005  0.8172236E+03  0.7818608E-02  0.9535416E-01
         -2   -1    0    0    0  501 -0.00000000000E+00  0.00000000000E+00  0.22681271377E+03  0.22681271378E+03  0.25500000000E-02 0. -1.
          2   -1    0    0  501    0  0.00000000000E+00 -0.00000000000E+00 -0.73612977080E+03  0.73612977080E+03  0.25500000000E-02 0.  1.
   -5000001    1    1    2    0    0 -0.23408712751E+03 -0.19606502525E+03 -0.12981710688E+03  0.41544043933E+03  0.25000000000E+03 0.  0.
    5000001    1    1    2    0    0  0.23408712751E+03  0.19606502525E+03 -0.37949995015E+03  0.54750204525E+03  0.25000000000E+03 0.  0.
<mgrwt>
<rscale>  0 0.81722357E+03</rscale>
<asrwt>0</asrwt>
<pdfrwt beam="1">  1        2 0.11325073E+00 0.81722357E+03</pdfrwt>
<pdfrwt beam="2">  1       -2 0.34894264E-01 0.81722357E+03</pdfrwt>
<totfact> 0.29738362E+02</totfact>
</mgrwt>
</event>
<event>
 4    1  0.1720876E-005  0.1251584E+04  0.7818608E-02  0.9068866E-01
          2   -1    0    0  501    0  0.00000000000E+00  0.00000000000E+00  0.28955010075E+03  0.28955010076E+03  0.25500000000E-02 0.  1.
         -2   -1    0    0    0  501 -0.00000000000E+00 -0.00000000000E+00 -0.13524966156E+04  0.13524966156E+04  0.25500000000E-02 0. -1.
   -5000001    1    1    2    0    0  0.16355097670E+03 -0.54725056101E+03 -0.60192317324E+03  0.86662771995E+03  0.25000000000E+03 0.  0.
    5000001    1    1    2    0    0 -0.16355097670E+03  0.54725056101E+03 -0.46102334164E+03  0.77541899644E+03  0.25000000000E+03 0.  0.
<mgrwt>
<rscale>  0 0.12515838E+04</rscale>
<asrwt>0</asrwt>
<pdfrwt beam="1">  1        2 0.44546170E-01 0.12515838E+04</pdfrwt>
<pdfrwt beam="2">  1       -2 0.20807640E+00 0.12515838E+04</pdfrwt>
<totfact> 0.13229254E+01</totfact>
</mgrwt>
</event>
<event>
 4    1  0.1720876E-005  0.5460360E+03  0.7818608E-02  0.1002416E+00
         -2   -1    0    0    0  501 -0.00000000000E+00  0.00000000000E+00  0.32366238232E+02  0.32366238332E+02  0.25500000000E-02 0. -1.
          2   -1    0    0  501    0  0.00000000000E+00 -0.00000000000E+00 -0.23029810917E+04  0.23029810917E+04  0.25500000000E-02 0.  1.
   -5000001    1    1    2    0    0 -0.97469009544E+02 -0.50384584715E+02 -0.11359209432E+04  0.11682701757E+04  0.25000000000E+03 0.  0.
    5000001    1    1    2    0    0  0.97469009544E+02  0.50384584715E+02 -0.11346939102E+04  0.11670771543E+04  0.25000000000E+03 0.  0.
<mgrwt>
<rscale>  0 0.54603602E+03</rscale>
<asrwt>0</asrwt>
<pdfrwt beam="1">  1        2 0.35430465E+00 0.54603602E+03</pdfrwt>
<pdfrwt beam="2">  1       -2 0.49794231E-02 0.54603602E+03</pdfrwt>
<totfact> 0.98245299E+02</totfact>
</mgrwt>
</event>
<event>
 4    1  0.1720876E-005  0.6590128E+03  0.7818608E-02  0.9790013E-01
         -2   -1    0    0    0  501 -0.00000000000E+00  0.00000000000E+00  0.16482829125E+03  0.16482829127E+03  0.25500000000E-02 0. -1.
          2   -1    0    0  501    0  0.00000000000E+00 -0.00000000000E+00 -0.65871253428E+03  0.65871253429E+03  0.25500000000E-02 0.  1.
   -5000001    1    1    2    0    0  0.11626396871E+03  0.88968311017E+02 -0.44310978885E+03  0.52941378501E+03  0.25000000000E+03 0.  0.
    5000001    1    1    2    0    0 -0.11626396871E+03 -0.88968311017E+02 -0.50774454173E+02  0.29412704055E+03  0.25000000000E+03 0.  0.
<mgrwt>
<rscale>  0 0.65901278E+03</rscale>
<asrwt>0</asrwt>
<pdfrwt beam="1">  1        2 0.10134039E+00 0.65901278E+03</pdfrwt>
<pdfrwt beam="2">  1       -2 0.25358199E-01 0.65901278E+03</pdfrwt>
<totfact> 0.62133592E+02</totfact>
</mgrwt>
</event>
<event>
 4    1  0.1720876E-005  0.1010858E+04  0.7818608E-02  0.9296715E-01
         -2   -1    0    0    0  501 -0.00000000000E+00  0.00000000000E+00  0.81143541105E+02  0.81143541145E+02  0.25500000000E-02 0. -1.
          2   -1    0    0  501    0  0.00000000000E+00 -0.00000000000E+00 -0.31482303687E+04  0.31482303688E+04  0.25500000000E-02 0.  1.
   -5000001    1    1    2    0    0  0.23979215853E+03  0.33834722557E+03 -0.19962705951E+04  0.20541605130E+04  0.25000000000E+03 0.  0.
    5000001    1    1    2    0    0 -0.23979215853E+03 -0.33834722557E+03 -0.10708162326E+04  0.11752133969E+04  0.25000000000E+03 0.  0.
<mgrwt>
<rscale>  0 0.10108582E+04</rscale>
<asrwt>0</asrwt>
<pdfrwt beam="1">  1        2 0.48434304E+00 0.10108582E+04</pdfrwt>
<pdfrwt beam="2">  1       -2 0.12483624E-01 0.10108582E+04</pdfrwt>
<totfact> 0.68680527E+01</totfact>
</mgrwt>
</event>
<event>
 4    1  0.1720876E-005  0.6920573E+03  0.7818608E-02  0.9730912E-01
         -2   -1    0    0    0  501 -0.00000000000E+00  0.00000000000E+00  0.42053482246E+03  0.42053482247E+03  0.25500000000E-02 0. -1.
          2   -1    0    0  501    0  0.00000000000E+00 -0.00000000000E+00 -0.28472274176E+03  0.28472274177E+03  0.25500000000E-02 0.  1.
   -5000001    1    1    2    0    0  0.18826418371E+03  0.12665620300E+02 -0.81977555230E+02  0.32376556390E+03  0.25000000000E+03 0.  0.
    5000001    1    1    2    0    0 -0.18826418371E+03 -0.12665620300E+02  0.21778963593E+03  0.38149200034E+03  0.25000000000E+03 0.  0.
<mgrwt>
<rscale>  0 0.69205730E+03</rscale>
<asrwt>0</asrwt>
<pdfrwt beam="1">  1        2 0.43803499E-01 0.69205730E+03</pdfrwt>
<pdfrwt beam="2">  1       -2 0.64697665E-01 0.69205730E+03</pdfrwt>
<totfact> 0.25918529E+02</totfact>
</mgrwt>
</event>
<event>
 4    1  0.1720876E-005  0.6886359E+03  0.7818608E-02  0.9736866E-01
          2   -1    0    0  501    0  0.00000000000E+00  0.00000000000E+00  0.27634384910E+04  0.27634384910E+04  0.25500000000E-02 0.  1.
         -2   -1    0    0    0  501 -0.00000000000E+00 -0.00000000000E+00 -0.42901205708E+02  0.42901205784E+02  0.25500000000E-02 0. -1.
   -5000001    1    1    2    0    0 -0.13306534652E+03  0.99013015383E+02  0.20487856960E+04  0.20706358424E+04  0.25000000000E+03 0.  0.
    5000001    1    1    2    0    0  0.13306534652E+03 -0.99013015383E+02  0.67175158935E+03  0.73570385445E+03  0.25000000000E+03 0.  0.
<mgrwt>
<rscale>  0 0.68863588E+03</rscale>
<asrwt>0</asrwt>
<pdfrwt beam="1">  1        2 0.42514452E+00 0.68863588E+03</pdfrwt>
<pdfrwt beam="2">  1       -2 0.66001833E-02 0.68863588E+03</pdfrwt>
<totfact> 0.34234862E+02</totfact>
</mgrwt>
</event>
<event>
 4    1  0.1720876E-005  0.1132085E+04  0.7818608E-02  0.9174472E-01
          2   -1    0    0  501    0  0.00000000000E+00  0.00000000000E+00  0.62546989087E+03  0.62546989088E+03  0.25500000000E-02 0.  1.
         -2   -1    0    0    0  501 -0.00000000000E+00 -0.00000000000E+00 -0.51226161581E+03  0.51226161581E+03  0.25500000000E-02 0. -1.
   -5000001    1    1    2    0    0 -0.20725935084E+03 -0.46140516468E+03  0.10214074784E+03  0.57339680577E+03  0.25000000000E+03 0.  0.
    5000001    1    1    2    0    0  0.20725935084E+03  0.46140516468E+03  0.11067527228E+02  0.56433470092E+03  0.25000000000E+03 0.  0.
<mgrwt>
<rscale>  0 0.11320852E+04</rscale>
<asrwt>0</asrwt>
<pdfrwt beam="1">  1        2 0.96226137E-01 0.11320852E+04</pdfrwt>
<pdfrwt beam="2">  1       -2 0.78809479E-01 0.11320852E+04</pdfrwt>
<totfact> 0.66833200E+01</totfact>
</mgrwt>
</event>
<event>
 4    1  0.1720876E-005  0.6292026E+03  0.7818608E-02  0.9846606E-01
          2   -1    0    0  501    0  0.00000000000E+00  0.00000000000E+00  0.39632857461E+03  0.39632857462E+03  0.25500000000E-02 0.  1.
         -2   -1    0    0    0  501 -0.00000000000E+00 -0.00000000000E+00 -0.24972706233E+03  0.24972706234E+03  0.25500000000E-02 0. -1.
   -5000001    1    1    2    0    0 -0.78276356420E+02 -0.17284605511E+03  0.95585154277E+02  0.32808454468E+03  0.25000000000E+03 0.  0.
    5000001    1    1    2    0    0  0.78276356420E+02  0.17284605511E+03  0.51016358003E+02  0.31797109228E+03  0.25000000000E+03 0.  0.
<mgrwt>
<rscale>  0 0.62920258E+03</rscale>
<asrwt>0</asrwt>
<pdfrwt beam="1">  1        2 0.60973627E-01 0.62920258E+03</pdfrwt>
<pdfrwt beam="2">  1       -2 0.38419548E-01 0.62920258E+03</pdfrwt>
<totfact> 0.51811616E+02</totfact>
</mgrwt>
</event>
<event>
 4    1  0.1720876E-005  0.7028373E+03  0.7818608E-02  0.9712392E-01
         -2   -1    0    0    0  501 -0.00000000000E+00  0.00000000000E+00  0.18262573866E+03  0.18262573868E+03  0.25500000000E-02 0. -1.
          2   -1    0    0  501    0  0.00000000000E+00 -0.00000000000E+00 -0.67621940130E+03  0.67621940130E+03  0.25500000000E-02 0.  1.
   -5000001    1    1    2    0    0 -0.14485782674E+03  0.30433760498E+02 -0.52143298652E+01  0.29058078564E+03  0.25000000000E+03 0.  0.
    5000001    1    1    2    0    0  0.14485782674E+03 -0.30433760498E+02 -0.48837933277E+03  0.56826435435E+03  0.25000000000E+03 0.  0.
<mgrwt>
<rscale>  0 0.70283730E+03</rscale>
<asrwt>0</asrwt>
<pdfrwt beam="1">  1        2 0.10403375E+00 0.70283730E+03</pdfrwt>
<pdfrwt beam="2">  1       -2 0.28096268E-01 0.70283730E+03</pdfrwt>
<totfact> 0.49851263E+02</totfact>
</mgrwt>
</event>
<event>
 4    1  0.1720876E-005  0.5992083E+03  0.7818608E-02  0.9907050E-01
          2   -1    0    0  501    0  0.00000000000E+00  0.00000000000E+00  0.39882288540E+02  0.39882288622E+02  0.25500000000E-02 0.  1.
         -2   -1    0    0    0  501 -0.00000000000E+00 -0.00000000000E+00 -0.22506892622E+04  0.22506892622E+04  0.25500000000E-02 0. -1.
   -5000001    1    1    2    0    0  0.18991594192E+02 -0.11124633105E+03 -0.15661289849E+04  0.15899674286E+04  0.25000000000E+03 0.  0.
    5000001    1    1    2    0    0 -0.18991594192E+02  0.11124633105E+03 -0.64467798882E+03  0.70060412224E+03  0.25000000000E+03 0.  0.
<mgrwt>
<rscale>  0 0.59920827E+03</rscale>
<asrwt>0</asrwt>
<pdfrwt beam="1">  1        2 0.61357384E-02 0.59920827E+03</pdfrwt>
<pdfrwt beam="2">  1       -2 0.34625979E+00 0.59920827E+03</pdfrwt>
<totfact> 0.22125779E+01</totfact>
</mgrwt>
</event>
<event>
 4    1  0.1720876E-005  0.7405891E+03  0.7818608E-02  0.9650231E-01
         -2   -1    0    0    0  501 -0.00000000000E+00  0.00000000000E+00  0.15704585030E+04  0.15704585030E+04  0.25500000000E-02 0.  1.
          2   -1    0    0  501    0  0.00000000000E+00 -0.00000000000E+00 -0.87310836732E+02  0.87310836769E+02  0.25500000000E-02 0. -1.
   -5000001    1    1    2    0    0 -0.20579880644E+03  0.17372193323E+03  0.63934792623E+03  0.73742676219E+03  0.25000000000E+03 0.  0.
    5000001    1    1    2    0    0  0.20579880644E+03 -0.17372193323E+03  0.84379974001E+03  0.92034257755E+03  0.25000000000E+03 0.  0.
<mgrwt>
<rscale>  0 0.74058908E+03</rscale>
<asrwt>0</asrwt>
<pdfrwt beam="1">  1        2 0.13432436E-01 0.74058908E+03</pdfrwt>
<pdfrwt beam="2">  1       -2 0.24160901E+00 0.74058908E+03</pdfrwt>
<totfact> 0.34114882E+01</totfact>
</mgrwt>
</event>
<event>
 4    1  0.1720876E-005  0.7617193E+03  0.7818608E-02  0.9617142E-01
         -2   -1    0    0    0  501 -0.00000000000E+00  0.00000000000E+00  0.20159428493E+03  0.20159428495E+03  0.25500000000E-02 0. -1.
          2   -1    0    0  501    0  0.00000000000E+00 -0.00000000000E+00 -0.71953467691E+03  0.71953467692E+03  0.25500000000E-02 0.  1.
   -5000001    1    1    2    0    0 -0.57290895686E+02  0.23434283372E+03 -0.70248457799E+02  0.35444838308E+03  0.25000000000E+03 0.  0.
    5000001    1    1    2    0    0  0.57290895686E+02 -0.23434283372E+03 -0.44769193419E+03  0.56668057879E+03  0.25000000000E+03 0.  0.
<mgrwt>
<rscale>  0 0.76171931E+03</rscale>
<asrwt>0</asrwt>
<pdfrwt beam="1">  1        2 0.11069764E+00 0.76171931E+03</pdfrwt>
<pdfrwt beam="2">  1       -2 0.31014506E-01 0.76171931E+03</pdfrwt>
<totfact> 0.38320903E+02</totfact>
</mgrwt>
</event>
<event>
 4    1  0.1720876E-005  0.5757364E+03  0.7818608E-02  0.9957064E-01
          2   -1    0    0  501    0  0.00000000000E+00  0.00000000000E+00  0.21647919968E+03  0.21647919969E+03  0.25500000000E-02 0.  1.
         -2   -1    0    0    0  501 -0.00000000000E+00 -0.00000000000E+00 -0.38279939906E+03  0.38279939906E+03  0.25500000000E-02 0. -1.
   -5000001    1    1    2    0    0  0.66440476397E+02 -0.42625697905E+02 -0.20692028034E+03  0.33398695999E+03  0.25000000000E+03 0.  0.
    5000001    1    1    2    0    0 -0.66440476397E+02  0.42625697905E+02  0.40600080968E+02  0.26529163877E+03  0.25000000000E+03 0.  0.
<mgrwt>
<rscale>  0 0.57573642E+03</rscale>
<asrwt>0</asrwt>
<pdfrwt beam="1">  1        2 0.33304492E-01 0.57573642E+03</pdfrwt>
<pdfrwt beam="2">  1       -2 0.58892215E-01 0.57573642E+03</pdfrwt>
<totfact> 0.43005391E+02</totfact>
</mgrwt>
</event>
<event>
 4    1  0.1720876E-005  0.7476949E+03  0.7818608E-02  0.9638974E-01
          2   -1    0    0  501    0  0.00000000000E+00  0.00000000000E+00  0.28488279493E+04  0.28488279493E+04  0.25500000000E-02 0.  1.
         -2   -1    0    0    0  501 -0.00000000000E+00 -0.00000000000E+00 -0.49059443445E+02  0.49059443511E+02  0.25500000000E-02 0. -1.
   -5000001    1    1    2    0    0 -0.38164745447E+02 -0.27330605822E+03  0.12708054075E+04  0.13242353012E+04  0.25000000000E+03 0.  0.
    5000001    1    1    2    0    0  0.38164745447E+02  0.27330605822E+03  0.15289630983E+04  0.15736520915E+04  0.25000000000E+03 0.  0.
<mgrwt>
<rscale>  0 0.74769489E+03</rscale>
<asrwt>0</asrwt>
<pdfrwt beam="1">  1        2 0.43828129E+00 0.74769489E+03</pdfrwt>
<pdfrwt beam="2">  1       -2 0.75476055E-02 0.74769489E+03</pdfrwt>
<totfact> 0.24485772E+02</totfact>
</mgrwt>
</event>
<event>
 4    1  0.1720876E-005  0.5429302E+03  0.7818608E-02  0.1003144E+00
          2   -1    0    0  501    0  0.00000000000E+00  0.00000000000E+00  0.12426259241E+04  0.12426259241E+04  0.25500000000E-02 0.  1.
         -2   -1    0    0    0  501 -0.00000000000E+00 -0.00000000000E+00 -0.59304482830E+02  0.59304482884E+02  0.25500000000E-02 0. -1.
   -5000001    1    1    2    0    0  0.46359635510E+02 -0.31413167034E+02  0.80690824711E+03  0.84660316685E+03  0.25000000000E+03 0.  0.
    5000001    1    1    2    0    0 -0.46359635510E+02  0.31413167034E+02  0.37641319413E+03  0.45532724011E+03  0.25000000000E+03 0.  0.
<mgrwt>
<rscale>  0 0.54293015E+03</rscale>
<asrwt>0</asrwt>
<pdfrwt beam="1">  1        2 0.19117320E+00 0.54293015E+03</pdfrwt>
<pdfrwt beam="2">  1       -2 0.91237676E-02 0.54293015E+03</pdfrwt>
<totfact> 0.14413150E+03</totfact>
</mgrwt>
</event>
<event>
 4    1  0.1720876E-005  0.1350765E+04  0.7818608E-02  0.8990249E-01
          2   -1    0    0  501    0  0.00000000000E+00  0.00000000000E+00  0.14234580860E+04  0.14234580860E+04  0.25500000000E-02 0.  1.
         -2   -1    0    0    0  501 -0.00000000000E+00 -0.00000000000E+00 -0.32044612051E+03  0.32044612052E+03  0.25500000000E-02 0. -1.
   -5000001    1    1    2    0    0 -0.53882772394E+03 -0.12934601084E+03  0.17163044913E+03  0.63168245003E+03  0.25000000000E+03 0.  0.
    5000001    1    1    2    0    0  0.53882772394E+03  0.12934601084E+03  0.93138151639E+03  0.11122217565E+04  0.25000000000E+03 0.  0.
<mgrwt>
<rscale>  0 0.13507651E+04</rscale>
<asrwt>0</asrwt>
<pdfrwt beam="1">  1        2 0.21899355E+00 0.13507651E+04</pdfrwt>
<pdfrwt beam="2">  1       -2 0.49299403E-01 0.13507651E+04</pdfrwt>
<totfact> 0.53359074E+01</totfact>
</mgrwt>
</event>
<event>
 4    1  0.1720876E-005  0.6195550E+03  0.7818608E-02  0.9865646E-01
          2   -1    0    0  501    0  0.00000000000E+00  0.00000000000E+00  0.71746230009E+03  0.71746230009E+03  0.25500000000E-02 0.  1.
         -2   -1    0    0    0  501 -0.00000000000E+00 -0.00000000000E+00 -0.13375209919E+03  0.13375209921E+03  0.25500000000E-02 0. -1.
   -5000001    1    1    2    0    0  0.54848064767E+02 -0.11595421798E+03  0.47103563296E+03  0.54847812937E+03  0.25000000000E+03 0.  0.
    5000001    1    1    2    0    0 -0.54848064767E+02  0.11595421798E+03  0.11267456794E+03  0.30273626994E+03  0.25000000000E+03 0.  0.
<mgrwt>
<rscale>  0 0.61955497E+03</rscale>
<asrwt>0</asrwt>
<pdfrwt beam="1">  1        2 0.11037882E+00 0.61955497E+03</pdfrwt>
<pdfrwt beam="2">  1       -2 0.20577246E-01 0.61955497E+03</pdfrwt>
<totfact> 0.81019119E+02</totfact>
</mgrwt>
</event>
<event>
 4    1  0.1720876E-005  0.9347739E+03  0.7818608E-02  0.9383127E-01
         -2   -1    0    0    0  501 -0.00000000000E+00  0.00000000000E+00  0.54108173433E+03  0.54108173433E+03  0.25500000000E-02 0. -1.
          2   -1    0    0  501    0  0.00000000000E+00 -0.00000000000E+00 -0.40372932008E+03  0.40372932009E+03  0.25500000000E-02 0.  1.
   -5000001    1    1    2    0    0  0.26851097354E+03 -0.18263861584E+03  0.29580121650E+03  0.50542394738E+03  0.25000000000E+03 0.  0.
    5000001    1    1    2    0    0 -0.26851097354E+03  0.18263861584E+03 -0.15844880225E+03  0.43938710705E+03  0.25000000000E+03 0.  0.
<mgrwt>
<rscale>  0 0.93477390E+03</rscale>
<asrwt>0</asrwt>
<pdfrwt beam="1">  1        2 0.62112203E-01 0.93477390E+03</pdfrwt>
<pdfrwt beam="2">  1       -2 0.83243344E-01 0.93477390E+03</pdfrwt>
<totfact> 0.99654351E+01</totfact>
</mgrwt>
</event>
<event>
 4    1  0.1720876E-005  0.7410480E+03  0.7818608E-02  0.9649500E-01
          2   -1    0    0  501    0  0.00000000000E+00  0.00000000000E+00  0.11589726302E+03  0.11589726304E+03  0.25500000000E-02 0.  1.
         -2   -1    0    0    0  501 -0.00000000000E+00 -0.00000000000E+00 -0.11845666141E+04  0.11845666141E+04  0.25500000000E-02 0. -1.
   -5000001    1    1    2    0    0 -0.10398783957E+03 -0.25117667961E+03 -0.58653614049E+03  0.69312902065E+03  0.25000000000E+03 0.  0.
    5000001    1    1    2    0    0  0.10398783957E+03  0.25117667961E+03 -0.48213321058E+03  0.60733485648E+03  0.25000000000E+03 0.  0.
<mgrwt>
<rscale>  0 0.74104798E+03</rscale>
<asrwt>0</asrwt>
<pdfrwt beam="1">  1        2 0.17830349E-01 0.74104798E+03</pdfrwt>
<pdfrwt beam="2">  1       -2 0.18224101E+00 0.74104798E+03</pdfrwt>
<totfact> 0.57827271E+01</totfact>
</mgrwt>
</event>
<event>
 4    1  0.1720876E-005  0.1030705E+04  0.7818608E-02  0.9275494E-01
         -2   -1    0    0    0  501 -0.00000000000E+00  0.00000000000E+00  0.77897156197E+03  0.77897156198E+03  0.25500000000E-02 0. -1.
          2   -1    0    0  501    0  0.00000000000E+00 -0.00000000000E+00 -0.34094743152E+03  0.34094743153E+03  0.25500000000E-02 0.  1.
   -5000001    1    1    2    0    0  0.31981332199E+03 -0.31496603587E+03  0.17549297409E+03  0.54293825489E+03  0.25000000000E+03 0.  0.
    5000001    1    1    2    0    0 -0.31981332199E+03  0.31496603587E+03  0.26253115636E+03  0.57698073862E+03  0.25000000000E+03 0.  0.
<mgrwt>
<rscale>  0 0.10307053E+04</rscale>
<asrwt>0</asrwt>
<pdfrwt beam="1">  1        2 0.52453452E-01 0.10307053E+04</pdfrwt>
<pdfrwt beam="2">  1       -2 0.11984178E+00 0.10307053E+04</pdfrwt>
<totfact> 0.50513152E+01</totfact>
</mgrwt>
</event>
<event>
 4    1  0.1720876E-005  0.1073866E+04  0.7818608E-02  0.9231045E-01
         -2   -1    0    0    0  501 -0.00000000000E+00  0.00000000000E+00  0.67374671358E+03  0.67374671358E+03  0.25500000000E-02 0. -1.
          2   -1    0    0  501    0  0.00000000000E+00 -0.00000000000E+00 -0.42790133331E+03  0.42790133332E+03  0.25500000000E-02 0.  1.
   -5000001    1    1    2    0    0  0.36513078316E+03 -0.30058704618E+03  0.17020249733E+03  0.56137505398E+03  0.25000000000E+03 0.  0.
    5000001    1    1    2    0    0 -0.36513078316E+03  0.30058704618E+03  0.75642882941E+02  0.54027299292E+03  0.25000000000E+03 0.  0.
<mgrwt>
<rscale>  0 0.10738661E+04</rscale>
<asrwt>0</asrwt>
<pdfrwt beam="1">  1        2 0.65830975E-01 0.10738661E+04</pdfrwt>
<pdfrwt beam="2">  1       -2 0.10365334E+00 0.10738661E+04</pdfrwt>
<totfact> 0.55547020E+01</totfact>
</mgrwt>
</event>
<event>
 4    1  0.1720876E-005  0.7729814E+03  0.7818608E-02  0.9599970E-01
         -2   -1    0    0    0  501 -0.00000000000E+00  0.00000000000E+00  0.75474828196E+02  0.75474828239E+02  0.25500000000E-02 0. -1.
          2   -1    0    0  501    0  0.00000000000E+00 -0.00000000000E+00 -0.19791373909E+04  0.19791373909E+04  0.25500000000E-02 0.  1.
   -5000001    1    1    2    0    0  0.11066806618E+03 -0.27279539401E+03 -0.99037800078E+03  0.10630208522E+04  0.25000000000E+03 0.  0.
    5000001    1    1    2    0    0 -0.11066806618E+03  0.27279539401E+03 -0.91328456194E+03  0.99159136692E+03  0.25000000000E+03 0.  0.
<mgrwt>
<rscale>  0 0.77298138E+03</rscale>
<asrwt>0</asrwt>
<pdfrwt beam="1">  1        2 0.30448264E+00 0.77298138E+03</pdfrwt>
<pdfrwt beam="2">  1       -2 0.11611514E-01 0.77298138E+03</pdfrwt>
<totfact> 0.37661190E+02</totfact>
</mgrwt>
</event>
<event>
 4    1  0.1720876E-005  0.6443330E+03  0.7818608E-02  0.9817471E-01
         -2   -1    0    0    0  501 -0.00000000000E+00  0.00000000000E+00  0.33845179220E+03  0.33845179221E+03  0.25500000000E-02 0. -1.
          2   -1    0    0  501    0  0.00000000000E+00 -0.00000000000E+00 -0.30666478120E+03  0.30666478121E+03  0.25500000000E-02 0.  1.
   -5000001    1    1    2    0    0  0.18232281897E+03  0.73607049812E+01  0.10541955516E+03  0.32696952902E+03  0.25000000000E+03 0.  0.
    5000001    1    1    2    0    0 -0.18232281897E+03 -0.73607049812E+01 -0.73632544161E+02  0.31814704439E+03  0.25000000000E+03 0.  0.
<mgrwt>
<rscale>  0 0.64433297E+03</rscale>
<asrwt>0</asrwt>
<pdfrwt beam="1">  1        2 0.47179197E-01 0.64433297E+03</pdfrwt>
<pdfrwt beam="2">  1       -2 0.52069507E-01 0.64433297E+03</pdfrwt>
<totfact> 0.37659340E+02</totfact>
</mgrwt>
</event>
<event>
 4    1  0.1720876E-005  0.1347819E+04  0.7818608E-02  0.8992481E-01
         -2   -1    0    0    0  501 -0.00000000000E+00  0.00000000000E+00  0.48497198990E+03  0.48497198990E+03  0.25500000000E-02 0. -1.
          2   -1    0    0  501    0  0.00000000000E+00 -0.00000000000E+00 -0.93645355497E+03  0.93645355497E+03  0.25500000000E-02 0.  1.
   -5000001    1    1    2    0    0  0.99344475363E+02 -0.39271705314E+03 -0.72882242773E+03  0.87050453174E+03  0.25000000000E+03 0.  0.
    5000001    1    1    2    0    0 -0.99344475363E+02  0.39271705314E+03  0.27734086266E+03  0.55092101314E+03  0.25000000000E+03 0.  0.
<mgrwt>
<rscale>  0 0.13478186E+04</rscale>
<asrwt>0</asrwt>
<pdfrwt beam="1">  1        2 0.14406978E+00 0.13478186E+04</pdfrwt>
<pdfrwt beam="2">  1       -2 0.74611075E-01 0.13478186E+04</pdfrwt>
<totfact> 0.43751263E+01</totfact>
</mgrwt>
</event>
<event>
 4    1  0.1720876E-005  0.1027882E+04  0.7818608E-02  0.9278482E-01
         -2   -1    0    0    0  501 -0.00000000000E+00  0.00000000000E+00  0.32817748492E+03  0.32817748493E+03  0.25500000000E-02 0. -1.
          2   -1    0    0  501    0  0.00000000000E+00 -0.00000000000E+00 -0.80485560058E+03  0.80485560058E+03  0.25500000000E-02 0.  1.
   -5000001    1    1    2    0    0  0.28018651166E+03  0.25240765874E+03  0.30362747110E+02  0.45347106183E+03  0.25000000000E+03 0.  0.
    5000001    1    1    2    0    0 -0.28018651166E+03 -0.25240765874E+03 -0.50704086277E+03  0.67956202368E+03  0.25000000000E+03 0.  0.
<mgrwt>
<rscale>  0 0.10278823E+04</rscale>
<asrwt>0</asrwt>
<pdfrwt beam="1">  1        2 0.12382394E+00 0.10278823E+04</pdfrwt>
<pdfrwt beam="2">  1       -2 0.50488844E-01 0.10278823E+04</pdfrwt>
<totfact> 0.12636734E+02</totfact>
</mgrwt>
</event>
<event>
 4    1  0.1720876E-005  0.1193912E+04  0.7818608E-02  0.9118202E-01
         -2   -1    0    0    0  501 -0.00000000000E+00  0.00000000000E+00  0.51800607000E+03  0.51800607000E+03  0.25500000000E-02 0. -1.
          2   -1    0    0  501    0  0.00000000000E+00 -0.00000000000E+00 -0.68793905424E+03  0.68793905425E+03  0.25500000000E-02 0.  1.
   -5000001    1    1    2    0    0  0.19753345611E+03  0.41427921543E+03 -0.37633497218E+03  0.64403008152E+03  0.25000000000E+03 0.  0.
    5000001    1    1    2    0    0 -0.19753345611E+03 -0.41427921543E+03  0.20640198793E+03  0.56191504273E+03  0.25000000000E+03 0.  0.
<mgrwt>
<rscale>  0 0.11939122E+04</rscale>
<asrwt>0</asrwt>
<pdfrwt beam="1">  1        2 0.10583678E+00 0.11939122E+04</pdfrwt>
<pdfrwt beam="2">  1       -2 0.79693242E-01 0.11939122E+04</pdfrwt>
<totfact> 0.57677185E+01</totfact>
</mgrwt>
</event>
<event>
 4    1  0.1720876E-005  0.1463276E+04  0.7818608E-02  0.8909248E-01
          2   -1    0    0  501    0  0.00000000000E+00  0.00000000000E+00  0.24355762747E+04  0.24355762747E+04  0.25500000000E-02 0.  1.
         -2   -1    0    0    0  501 -0.00000000000E+00 -0.00000000000E+00 -0.21978128002E+03  0.21978128004E+03  0.25500000000E-02 0. -1.
   -5000001    1    1    2    0    0 -0.10132091580E+03 -0.67476907406E+03  0.12620356497E+04  0.14563012094E+04  0.25000000000E+03 0.  0.
    5000001    1    1    2    0    0  0.10132091580E+03  0.67476907406E+03  0.95375934500E+03  0.11990563454E+04  0.25000000000E+03 0.  0.
<mgrwt>
<rscale>  0 0.14632759E+04</rscale>
<asrwt>0</asrwt>
<pdfrwt beam="1">  1        2 0.37470406E+00 0.14632759E+04</pdfrwt>
<pdfrwt beam="2">  1       -2 0.33812503E-01 0.14632759E+04</pdfrwt>
<totfact> 0.30147414E+01</totfact>
</mgrwt>
</event>
<event>
 4    1  0.1720876E-005  0.1153664E+04  0.7818608E-02  0.9154410E-01
          2   -1    0    0  501    0  0.00000000000E+00  0.00000000000E+00  0.12378863660E+04  0.12378863660E+04  0.25500000000E-02 0.  1.
         -2   -1    0    0    0  501 -0.00000000000E+00 -0.00000000000E+00 -0.26879274534E+03  0.26879274536E+03  0.25500000000E-02 0. -1.
   -5000001    1    1    2    0    0  0.36061030603E+03  0.37382577784E+03  0.45686187393E+03  0.73553264839E+03  0.25000000000E+03 0.  0.
    5000001    1    1    2    0    0 -0.36061030603E+03 -0.37382577784E+03  0.51223174672E+03  0.77114646296E+03  0.25000000000E+03 0.  0.
<mgrwt>
<rscale>  0 0.11536635E+04</rscale>
<asrwt>0</asrwt>
<pdfrwt beam="1">  1        2 0.19044406E+00 0.11536635E+04</pdfrwt>
<pdfrwt beam="2">  1       -2 0.41352729E-01 0.11536635E+04</pdfrwt>
<totfact> 0.98520997E+01</totfact>
</mgrwt>
</event>
<event>
 4    1  0.1720876E-005  0.1038297E+04  0.7818608E-02  0.9267511E-01
          2   -1    0    0  501    0  0.00000000000E+00  0.00000000000E+00  0.97402455366E+03  0.97402455366E+03  0.25500000000E-02 0.  1.
         -2   -1    0    0    0  501 -0.00000000000E+00 -0.00000000000E+00 -0.27670240753E+03  0.27670240754E+03  0.25500000000E-02 0. -1.
   -5000001    1    1    2    0    0  0.13904269922E+03 -0.43136301334E+03  0.39696544966E+03  0.65229478743E+03  0.25000000000E+03 0.  0.
    5000001    1    1    2    0    0 -0.13904269922E+03  0.43136301334E+03  0.30035669646E+03  0.59843217377E+03  0.25000000000E+03 0.  0.
<mgrwt>
<rscale>  0 0.10382966E+04</rscale>
<asrwt>0</asrwt>
<pdfrwt beam="1">  1        2 0.14984993E+00 0.10382966E+04</pdfrwt>
<pdfrwt beam="2">  1       -2 0.42569602E-01 0.10382966E+04</pdfrwt>
<totfact> 0.13637961E+02</totfact>
</mgrwt>
</event>
<event>
 4    1  0.1720876E-005  0.6649822E+03  0.7818608E-02  0.9779065E-01
          2   -1    0    0  501    0  0.00000000000E+00  0.00000000000E+00  0.17978988105E+04  0.17978988105E+04  0.25500000000E-02 0. -1.
         -2   -1    0    0    0  501 -0.00000000000E+00 -0.00000000000E+00 -0.61488624477E+02  0.61488624530E+02  0.25500000000E-02 0.  1.
   -5000001    1    1    2    0    0 -0.17234258643E+02 -0.21749704704E+03  0.80899939708E+03  0.87440380238E+03  0.25000000000E+03 0.  0.
    5000001    1    1    2    0    0  0.17234258643E+02  0.21749704704E+03  0.92741078891E+03  0.98498363262E+03  0.25000000000E+03 0.  0.
<mgrwt>
<rscale>  0 0.66498218E+03</rscale>
<asrwt>0</asrwt>
<pdfrwt beam="1">  1        2 0.27659984E+00 0.66498218E+03</pdfrwt>
<pdfrwt beam="2">  1       -2 0.94597877E-02 0.66498218E+03</pdfrwt>
<totfact> 0.66544045E+02</totfact>
</mgrwt>
</event>
<event>
 4    1  0.1720876E-005  0.8026872E+03  0.7818608E-02  0.9556136E-01
         -2   -1    0    0    0  501 -0.00000000000E+00  0.00000000000E+00  0.62469204169E+02  0.62469204221E+02  0.25500000000E-02 0. -1.
          2   -1    0    0  501    0  0.00000000000E+00 -0.00000000000E+00 -0.25784973018E+04  0.25784973018E+04  0.25500000000E-02 0.  1.
   -5000001    1    1    2    0    0 -0.29247388503E+03  0.10130509176E+03 -0.14312706912E+04  0.14855434987E+04  0.25000000000E+03 0.  0.
    5000001    1    1    2    0    0  0.29247388503E+03 -0.10130509176E+03 -0.10847574064E+04  0.11554230073E+04  0.25000000000E+03 0.  0.
<mgrwt>
<rscale>  0 0.80268717E+03</rscale>
<asrwt>0</asrwt>
<pdfrwt beam="1">  1        2 0.39669181E+00 0.80268717E+03</pdfrwt>
<pdfrwt beam="2">  1       -2 0.96106488E-02 0.80268717E+03</pdfrwt>
<totfact> 0.23745157E+02</totfact>
</mgrwt>
</event>
<event>
 4    1  0.1720876E-005  0.7969989E+03  0.7818608E-02  0.9564371E-01
          2   -1    0    0  501    0  0.00000000000E+00  0.00000000000E+00  0.87687940183E+03  0.87687940183E+03  0.25500000000E-02 0.  1.
         -2   -1    0    0    0  501 -0.00000000000E+00 -0.00000000000E+00 -0.18109880356E+03  0.18109880358E+03  0.25500000000E-02 0. -1.
   -5000001    1    1    2    0    0 -0.10623591753E+03 -0.28613702627E+03  0.27348966263E+03  0.48005943751E+03  0.25000000000E+03 0.  0.
    5000001    1    1    2    0    0  0.10623591753E+03  0.28613702627E+03  0.42229093564E+03  0.57791876790E+03  0.25000000000E+03 0.  0.
<mgrwt>
<rscale>  0 0.79699890E+03</rscale>
<asrwt>0</asrwt>
<pdfrwt beam="1">  1        2 0.13490453E+00 0.79699890E+03</pdfrwt>
<pdfrwt beam="2">  1       -2 0.27861353E-01 0.79699890E+03</pdfrwt>
<totfact> 0.35916682E+02</totfact>
</mgrwt>
</event>
<event>
 4    1  0.1720876E-005  0.8158107E+03  0.7818608E-02  0.9537410E-01
          2   -1    0    0  501    0  0.00000000000E+00  0.00000000000E+00  0.58769875469E+03  0.58769875469E+03  0.25500000000E-02 0.  1.
         -2   -1    0    0    0  501 -0.00000000000E+00 -0.00000000000E+00 -0.28311574141E+03  0.28311574142E+03  0.25500000000E-02 0. -1.
   -5000001    1    1    2    0    0  0.24321746210E+03  0.14331430805E+03  0.31831957582E+03  0.49347854778E+03  0.25000000000E+03 0.  0.
    5000001    1    1    2    0    0 -0.24321746210E+03 -0.14331430805E+03 -0.13736562549E+02  0.37733594834E+03  0.25000000000E+03 0.  0.
<mgrwt>
<rscale>  0 0.81581069E+03</rscale>
<asrwt>0</asrwt>
<pdfrwt beam="1">  1        2 0.90415193E-01 0.81581069E+03</pdfrwt>
<pdfrwt beam="2">  1       -2 0.43556268E-01 0.81581069E+03</pdfrwt>
<totfact> 0.25568655E+02</totfact>
</mgrwt>
</event>
<event>
 4    1  0.1720876E-005  0.8912984E+03  0.7818608E-02  0.9436525E-01
          2   -1    0    0  501    0  0.00000000000E+00  0.00000000000E+00  0.33731165215E+04  0.33731165215E+04  0.25500000000E-02 0.  1.
         -2   -1    0    0    0  501 -0.00000000000E+00 -0.00000000000E+00 -0.58878258703E+02  0.58878258758E+02  0.25500000000E-02 0. -1.
   -5000001    1    1    2    0    0 -0.30274790882E+03 -0.19700606851E+03  0.19461812883E+04  0.19951414222E+04  0.25000000000E+03 0.  0.
    5000001    1    1    2    0    0  0.30274790882E+03  0.19700606851E+03  0.13680569745E+04  0.14368533581E+04  0.25000000000E+03 0.  0.
<mgrwt>
<rscale>  0 0.89129844E+03</rscale>
<asrwt>0</asrwt>
<pdfrwt beam="1">  1        2 0.51894102E+00 0.89129844E+03</pdfrwt>
<pdfrwt beam="2">  1       -2 0.90581934E-02 0.89129844E+03</pdfrwt>
<totfact> 0.84234543E+01</totfact>
</mgrwt>
</event>
<event>
 4    1  0.1720876E-005  0.1122512E+04  0.7818608E-02  0.9183524E-01
          2   -1    0    0  501    0  0.00000000000E+00  0.00000000000E+00  0.72335893461E+03  0.72335893462E+03  0.25500000000E-02 0.  1.
         -2   -1    0    0    0  501 -0.00000000000E+00 -0.00000000000E+00 -0.43547967088E+03  0.43547967088E+03  0.25500000000E-02 0. -1.
   -5000001    1    1    2    0    0  0.24205818877E+03  0.42408825944E+03  0.21505252726E+02  0.54900409328E+03  0.25000000000E+03 0.  0.
    5000001    1    1    2    0    0 -0.24205818877E+03 -0.42408825944E+03  0.26637401101E+03  0.60983451222E+03  0.25000000000E+03 0.  0.
<mgrwt>
<rscale>  0 0.11225117E+04</rscale>
<asrwt>0</asrwt>
<pdfrwt beam="1">  1        2 0.11128599E+00 0.11225117E+04</pdfrwt>
<pdfrwt beam="2">  1       -2 0.66996873E-01 0.11225117E+04</pdfrwt>
<totfact> 0.79717922E+01</totfact>
</mgrwt>
</event>
<event>
 4    1  0.1720876E-005  0.5919640E+03  0.7818608E-02  0.9922220E-01
         -2   -1    0    0    0  501 -0.00000000000E+00  0.00000000000E+00  0.27138819887E+03  0.27138819889E+03  0.25500000000E-02 0.  1.
          2   -1    0    0  501    0  0.00000000000E+00 -0.00000000000E+00 -0.32280450974E+03  0.32280450975E+03  0.25500000000E-02 0. -1.
   -5000001    1    1    2    0    0 -0.10211393966E+03  0.10928094985E+03  0.26793185401E+02  0.29255334121E+03  0.25000000000E+03 0.  0.
    5000001    1    1    2    0    0  0.10211393966E+03 -0.10928094985E+03 -0.78209496265E+02  0.30163936742E+03  0.25000000000E+03 0.  0.
<mgrwt>
<rscale>  0 0.59196397E+03</rscale>
<asrwt>0</asrwt>
<pdfrwt beam="1">  1        2 0.49662232E-01 0.59196397E+03</pdfrwt>
<pdfrwt beam="2">  1       -2 0.41752031E-01 0.59196397E+03</pdfrwt>
<totfact> 0.55412428E+02</totfact>
</mgrwt>
</event>
<event>
 4    1  0.1720876E-005  0.7588525E+03  0.7818608E-02  0.9621564E-01
          2   -1    0    0  501    0  0.00000000000E+00  0.00000000000E+00  0.21623814719E+04  0.21623814719E+04  0.25500000000E-02 0.  1.
         -2   -1    0    0    0  501 -0.00000000000E+00 -0.00000000000E+00 -0.66576723786E+02  0.66576723835E+02  0.25500000000E-02 0. -1.
   -5000001    1    1    2    0    0 -0.29039618072E+02  0.28200139605E+03  0.11451517746E+04  0.12059190162E+04  0.25000000000E+03 0.  0.
    5000001    1    1    2    0    0  0.29039618072E+02 -0.28200139605E+03  0.95065297352E+03  0.10230391795E+04  0.25000000000E+03 0.  0.
<mgrwt>
<rscale>  0 0.75885249E+03</rscale>
<asrwt>0</asrwt>
<pdfrwt beam="1">  1        2 0.33267408E+00 0.75885249E+03</pdfrwt>
<pdfrwt beam="2">  1       -2 0.10242573E-01 0.75885249E+03</pdfrwt>
<totfact> 0.36760256E+02</totfact>
</mgrwt>
</event>
<event>
 4    1  0.1720876E-005  0.7268516E+03  0.7818608E-02  0.9672383E-01
          2   -1    0    0  501    0  0.00000000000E+00  0.00000000000E+00  0.19859223928E+04  0.19859223928E+04  0.25500000000E-02 0.  1.
         -2   -1    0    0    0  501 -0.00000000000E+00 -0.00000000000E+00 -0.66507291399E+02  0.66507291448E+02  0.25500000000E-02 0. -1.
   -5000001    1    1    2    0    0  0.16918815637E+03  0.47764241486E+02  0.40441438910E+03  0.50690931451E+03  0.25000000000E+03 0.  0.
    5000001    1    1    2    0    0 -0.16918815637E+03 -0.47764241486E+02  0.15150007123E+04  0.15455203697E+04  0.25000000000E+03 0.  0.
<mgrwt>
<rscale>  0 0.72685162E+03</rscale>
<asrwt>0</asrwt>
<pdfrwt beam="1">  1        2 0.30552648E+00 0.72685162E+03</pdfrwt>
<pdfrwt beam="2">  1       -2 0.10231892E-01 0.72685162E+03</pdfrwt>
<totfact> 0.46102007E+02</totfact>
</mgrwt>
</event>
<event>
 4    1  0.1720876E-005  0.7284739E+03  0.7818608E-02  0.9669740E-01
          2   -1    0    0  501    0  0.00000000000E+00  0.00000000000E+00  0.26585162637E+03  0.26585162638E+03  0.25500000000E-02 0.  1.
         -2   -1    0    0    0  501 -0.00000000000E+00 -0.00000000000E+00 -0.49903233459E+03  0.49903233459E+03  0.25500000000E-02 0. -1.
   -5000001    1    1    2    0    0  0.19170739690E+03  0.75203703366E+02  0.58354407855E+02  0.32910873574E+03  0.25000000000E+03 0.  0.
    5000001    1    1    2    0    0 -0.19170739690E+03 -0.75203703366E+02 -0.29153511607E+03  0.43577522523E+03  0.25000000000E+03 0.  0.
<mgrwt>
<rscale>  0 0.72847391E+03</rscale>
<asrwt>0</asrwt>
<pdfrwt beam="1">  1        2 0.40900250E-01 0.72847391E+03</pdfrwt>
<pdfrwt beam="2">  1       -2 0.76774205E-01 0.72847391E+03</pdfrwt>
<totfact> 0.19224673E+02</totfact>
</mgrwt>
</event>
<event>
 4    1  0.1720876E-005  0.7342254E+03  0.7818608E-02  0.9660428E-01
         -2   -1    0    0    0  501 -0.00000000000E+00  0.00000000000E+00  0.12334797882E+03  0.12334797885E+03  0.25500000000E-02 0. -1.
          2   -1    0    0  501    0  0.00000000000E+00 -0.00000000000E+00 -0.10926140215E+04  0.10926140215E+04  0.25500000000E-02 0.  1.
   -5000001    1    1    2    0    0  0.17666803755E+03 -0.20063390130E+03 -0.43761061788E+03  0.57049856330E+03  0.25000000000E+03 0.  0.
    5000001    1    1    2    0    0 -0.17666803755E+03  0.20063390130E+03 -0.53165542477E+03  0.64546343702E+03  0.25000000000E+03 0.  0.
<mgrwt>
<rscale>  0 0.73422539E+03</rscale>
<asrwt>0</asrwt>
<pdfrwt beam="1">  1        2 0.16809446E+00 0.73422539E+03</pdfrwt>
<pdfrwt beam="2">  1       -2 0.18976613E-01 0.73422539E+03</pdfrwt>
<totfact> 0.51873316E+02</totfact>
</mgrwt>
</event>
<event>
 4    1  0.1720876E-005  0.8516822E+03  0.7818608E-02  0.9488082E-01
         -2   -1    0    0    0  501 -0.00000000000E+00  0.00000000000E+00  0.52581697126E+02  0.52581697187E+02  0.25500000000E-02 0. -1.
          2   -1    0    0  501    0  0.00000000000E+00 -0.00000000000E+00 -0.34487407958E+04  0.34487407958E+04  0.25500000000E-02 0.  1.
   -5000001    1    1    2    0    0  0.90472415424E+01 -0.33714364395E+03 -0.14046935029E+04  0.14660871483E+04  0.25000000000E+03 0.  0.
    5000001    1    1    2    0    0 -0.90472415424E+01  0.33714364395E+03 -0.19914655958E+04  0.20352353447E+04  0.25000000000E+03 0.  0.
<mgrwt>
<rscale>  0 0.85168220E+03</rscale>
<asrwt>0</asrwt>
<pdfrwt beam="1">  1        2 0.53057533E+00 0.85168220E+03</pdfrwt>
<pdfrwt beam="2">  1       -2 0.80894946E-02 0.85168220E+03</pdfrwt>
<totfact> 0.90385243E+01</totfact>
</mgrwt>
</event>
<event>
 4    1  0.1720876E-005  0.5863831E+03  0.7818608E-02  0.9934067E-01
          2   -1    0    0  501    0  0.00000000000E+00  0.00000000000E+00  0.16748469823E+04  0.16748469823E+04  0.25500000000E-02 0.  1.
         -2   -1    0    0    0  501 -0.00000000000E+00 -0.00000000000E+00 -0.51324861697E+02  0.51324861761E+02  0.25500000000E-02 0. -1.
   -5000001    1    1    2    0    0  0.13342876019E+03  0.65944480436E+02  0.70523996378E+03  0.76289928238E+03  0.25000000000E+03 0.  0.
    5000001    1    1    2    0    0 -0.13342876019E+03 -0.65944480436E+02  0.91828215679E+03  0.96327256165E+03  0.25000000000E+03 0.  0.
<mgrwt>
<rscale>  0 0.58638312E+03</rscale>
<asrwt>0</asrwt>
<pdfrwt beam="1">  1        2 0.25766878E+00 0.58638312E+03</pdfrwt>
<pdfrwt beam="2">  1       -2 0.78961323E-02 0.58638312E+03</pdfrwt>
<totfact> 0.10418787E+03</totfact>
</mgrwt>
</event>
<event>
 4    1  0.1720876E-005  0.8796094E+03  0.7818608E-02  0.9451436E-01
          2   -1    0    0  501    0  0.00000000000E+00  0.00000000000E+00  0.55826905027E+03  0.55826905028E+03  0.25500000000E-02 0.  1.
         -2   -1    0    0    0  501 -0.00000000000E+00 -0.00000000000E+00 -0.34647843919E+03  0.34647843920E+03  0.25500000000E-02 0. -1.
   -5000001    1    1    2    0    0  0.29313362650E+03  0.75883628438E+02 -0.97863351287E+02  0.40467627009E+03  0.25000000000E+03 0.  0.
    5000001    1    1    2    0    0 -0.29313362650E+03 -0.75883628438E+02  0.30965396237E+03  0.50007121939E+03  0.25000000000E+03 0.  0.
<mgrwt>
<rscale>  0 0.87960943E+03</rscale>
<asrwt>0</asrwt>
<pdfrwt beam="1">  1        2 0.85887546E-01 0.87960943E+03</pdfrwt>
<pdfrwt beam="2">  1       -2 0.53304376E-01 0.87960943E+03</pdfrwt>
<totfact> 0.18022889E+02</totfact>
</mgrwt>
</event>
<event>
 4    1  0.1720876E-005  0.7944943E+03  0.7818608E-02  0.9568021E-01
          2   -1    0    0  501    0  0.00000000000E+00  0.00000000000E+00  0.19534760410E+03  0.19534760412E+03  0.25500000000E-02 0.  1.
         -2   -1    0    0    0  501 -0.00000000000E+00 -0.00000000000E+00 -0.80781785591E+03  0.80781785591E+03  0.25500000000E-02 0. -1.
   -5000001    1    1    2    0    0 -0.31136086878E+02 -0.22053426639E+03 -0.57615950533E+03  0.66638171804E+03  0.25000000000E+03 0.  0.
    5000001    1    1    2    0    0  0.31136086878E+02  0.22053426639E+03 -0.36310746482E+02  0.33678374199E+03  0.25000000000E+03 0.  0.
<mgrwt>
<rscale>  0 0.79449426E+03</rscale>
<asrwt>0</asrwt>
<pdfrwt beam="1">  1        2 0.30053478E-01 0.79449426E+03</pdfrwt>
<pdfrwt beam="2">  1       -2 0.12427967E+00 0.79449426E+03</pdfrwt>
<totfact> 0.87060621E+01</totfact>
</mgrwt>
</event>
<event>
 4    1  0.1720876E-005  0.1309249E+04  0.7818608E-02  0.9022262E-01
          2   -1    0    0  501    0  0.00000000000E+00  0.00000000000E+00  0.27237933221E+04  0.27237933221E+04  0.25500000000E-02 0.  1.
         -2   -1    0    0    0  501 -0.00000000000E+00 -0.00000000000E+00 -0.15732967297E+03  0.15732967300E+03  0.25500000000E-02 0. -1.
   -5000001    1    1    2    0    0  0.53344547928E+03  0.22929962918E+03  0.16572748376E+04  0.17737537277E+04  0.25000000000E+03 0.  0.
    5000001    1    1    2    0    0 -0.53344547928E+03 -0.22929962918E+03  0.90918881156E+03  0.11073692674E+04  0.25000000000E+03 0.  0.
<mgrwt>
<rscale>  0 0.13092494E+04</rscale>
<asrwt>0</asrwt>
<pdfrwt beam="1">  1        2 0.41904507E+00 0.13092494E+04</pdfrwt>
<pdfrwt beam="2">  1       -2 0.24204568E-01 0.13092494E+04</pdfrwt>
<totfact> 0.38573168E+01</totfact>
</mgrwt>
</event>
<event>
 4    1  0.1720876E-005  0.7477932E+03  0.7818608E-02  0.9638819E-01
          2   -1    0    0  501    0  0.00000000000E+00  0.00000000000E+00  0.20427122822E+03  0.20427122824E+03  0.25500000000E-02 0.  1.
         -2   -1    0    0    0  501 -0.00000000000E+00 -0.00000000000E+00 -0.68437774485E+03  0.68437774485E+03  0.25500000000E-02 0. -1.
   -5000001    1    1    2    0    0 -0.63170064249E+02  0.27075217841E+03 -0.24150061662E+03  0.44510644452E+03  0.25000000000E+03 0.  0.
    5000001    1    1    2    0    0  0.63170064249E+02 -0.27075217841E+03 -0.23860590001E+03  0.44354252857E+03  0.25000000000E+03 0.  0.
<mgrwt>
<rscale>  0 0.74779324E+03</rscale>
<asrwt>0</asrwt>
<pdfrwt beam="1">  1        2 0.31426343E-01 0.74779324E+03</pdfrwt>
<pdfrwt beam="2">  1       -2 0.10528888E+00 0.74779324E+03</pdfrwt>
<totfact> 0.12442546E+02</totfact>
</mgrwt>
</event>
<event>
 4    1  0.1720876E-005  0.5985958E+03  0.7818608E-02  0.9908324E-01
          2   -1    0    0  501    0  0.00000000000E+00  0.00000000000E+00  0.23259212156E+04  0.23259212156E+04  0.25500000000E-02 0.  1.
         -2   -1    0    0    0  501 -0.00000000000E+00 -0.00000000000E+00 -0.38513440897E+02  0.38513440982E+02  0.25500000000E-02 0. -1.
   -5000001    1    1    2    0    0  0.94253125579E+02 -0.13219029495E+03  0.10376191972E+04  0.10795885902E+04  0.25000000000E+03 0.  0.
    5000001    1    1    2    0    0 -0.94253125579E+02  0.13219029495E+03  0.12497885775E+04  0.12848460664E+04  0.25000000000E+03 0.  0.
<mgrwt>
<rscale>  0 0.59859579E+03</rscale>
<asrwt>0</asrwt>
<pdfrwt beam="1">  1        2 0.35783406E+00 0.59859579E+03</pdfrwt>
<pdfrwt beam="2">  1       -2 0.59251443E-02 0.59859579E+03</pdfrwt>
<totfact> 0.72490718E+02</totfact>
</mgrwt>
</event>
<event>
 4    1  0.1720876E-005  0.1026597E+04  0.7818608E-02  0.9279845E-01
         -2   -1    0    0    0  501 -0.00000000000E+00  0.00000000000E+00  0.32716488730E+03  0.32716488731E+03  0.25500000000E-02 0. -1.
          2   -1    0    0  501    0  0.00000000000E+00 -0.00000000000E+00 -0.80532901940E+03  0.80532901940E+03  0.25500000000E-02 0.  1.
   -5000001    1    1    2    0    0 -0.19762149623E+03  0.23019962811E+03 -0.60317154022E+03  0.71997363250E+03  0.25000000000E+03 0.  0.
    5000001    1    1    2    0    0  0.19762149623E+03 -0.23019962811E+03  0.12500740812E+03  0.41252027422E+03  0.25000000000E+03 0.  0.
<mgrwt>
<rscale>  0 0.10265971E+04</rscale>
<asrwt>0</asrwt>
<pdfrwt beam="1">  1        2 0.12389677E+00 0.10265971E+04</pdfrwt>
<pdfrwt beam="2">  1       -2 0.50333060E-01 0.10265971E+04</pdfrwt>
<totfact> 0.12707680E+02</totfact>
</mgrwt>
</event>
<event>
 4    1  0.1720876E-005  0.6627128E+03  0.7818608E-02  0.9783213E-01
         -2   -1    0    0    0  501 -0.00000000000E+00  0.00000000000E+00  0.17386241822E+03  0.17386241824E+03  0.25500000000E-02 0. -1.
          2   -1    0    0  501    0  0.00000000000E+00 -0.00000000000E+00 -0.63151697788E+03  0.63151697789E+03  0.25500000000E-02 0.  1.
   -5000001    1    1    2    0    0  0.17865080129E+03 -0.96697898133E+02 -0.32320097613E+03  0.45631728356E+03  0.25000000000E+03 0.  0.
    5000001    1    1    2    0    0 -0.17865080129E+03  0.96697898133E+02 -0.13445358353E+03  0.34906211257E+03  0.25000000000E+03 0.  0.
<mgrwt>
<rscale>  0 0.66271282E+03</rscale>
<asrwt>0</asrwt>
<pdfrwt beam="1">  1        2 0.97156457E-01 0.66271282E+03</pdfrwt>
<pdfrwt beam="2">  1       -2 0.26748065E-01 0.66271282E+03</pdfrwt>
<totfact> 0.59398121E+02</totfact>
</mgrwt>
</event>
<event>
 4    1  0.1720876E-005  0.8186093E+03  0.7818608E-02  0.9533465E-01
          2   -1    0    0  501    0  0.00000000000E+00  0.00000000000E+00  0.16531182347E+04  0.16531182347E+04  0.25500000000E-02 0.  1.
         -2   -1    0    0    0  501 -0.00000000000E+00 -0.00000000000E+00 -0.10134198690E+03  0.10134198693E+03  0.25500000000E-02 0. -1.
   -5000001    1    1    2    0    0  0.21762056272E+03  0.22954633546E+03  0.62464207974E+03  0.74345676217E+03  0.25000000000E+03 0.  0.
    5000001    1    1    2    0    0 -0.21762056272E+03 -0.22954633546E+03  0.92713416803E+03  0.10110034594E+04  0.25000000000E+03 0.  0.
<mgrwt>
<rscale>  0 0.81860928E+03</rscale>
<asrwt>0</asrwt>
<pdfrwt beam="1">  1        2 0.25432587E+00 0.81860928E+03</pdfrwt>
<pdfrwt beam="2">  1       -2 0.15591075E-01 0.81860928E+03</pdfrwt>
<totfact> 0.34555679E+02</totfact>
</mgrwt>
</event>
<event>
 4    1  0.1720876E-005  0.1135040E+04  0.7818608E-02  0.9171697E-01
          2   -1    0    0  501    0  0.00000000000E+00  0.00000000000E+00  0.11142467807E+04  0.11142467807E+04  0.25500000000E-02 0.  1.
         -2   -1    0    0    0  501 -0.00000000000E+00 -0.00000000000E+00 -0.28905507876E+03  0.28905507877E+03  0.25500000000E-02 0. -1.
   -5000001    1    1    2    0    0  0.27724425922E+03 -0.42744288801E+03  0.41584092457E+03  0.70355914913E+03  0.25000000000E+03 0.  0.
    5000001    1    1    2    0    0 -0.27724425922E+03  0.42744288801E+03  0.40935077742E+03  0.69974271039E+03  0.25000000000E+03 0.  0.
<mgrwt>
<rscale>  0 0.11350395E+04</rscale>
<asrwt>0</asrwt>
<pdfrwt beam="1">  1        2 0.17142258E+00 0.11350395E+04</pdfrwt>
<pdfrwt beam="2">  1       -2 0.44470013E-01 0.11350395E+04</pdfrwt>
<totfact> 0.10138826E+02</totfact>
</mgrwt>
</event>
<event>
 4    1  0.1720876E-005  0.8465921E+03  0.7818608E-02  0.9494922E-01
          2   -1    0    0  501    0  0.00000000000E+00  0.00000000000E+00  0.14662881989E+04  0.14662881989E+04  0.25500000000E-02 0.  1.
         -2   -1    0    0    0  501 -0.00000000000E+00 -0.00000000000E+00 -0.12219939356E+03  0.12219939359E+03  0.25500000000E-02 0. -1.
   -5000001    1    1    2    0    0 -0.25907217503E+03  0.16459739546E+03  0.39078962624E+03  0.55626183263E+03  0.25000000000E+03 0.  0.
    5000001    1    1    2    0    0  0.25907217503E+03 -0.16459739546E+03  0.95329917910E+03  0.10322257599E+04  0.25000000000E+03 0.  0.
<mgrwt>
<rscale>  0 0.84659206E+03</rscale>
<asrwt>0</asrwt>
<pdfrwt beam="1">  1        2 0.22558282E+00 0.84659206E+03</pdfrwt>
<pdfrwt beam="2">  1       -2 0.18799905E-01 0.84659206E+03</pdfrwt>
<totfact> 0.31753028E+02</totfact>
</mgrwt>
</event>
<event>
 4    1  0.1720876E-005  0.5835566E+03  0.7818608E-02  0.9940121E-01
         -2   -1    0    0    0  501 -0.00000000000E+00  0.00000000000E+00  0.21790324894E+03  0.21790324895E+03  0.25500000000E-02 0. -1.
          2   -1    0    0  501    0  0.00000000000E+00 -0.00000000000E+00 -0.39069891663E+03  0.39069891664E+03  0.25500000000E-02 0.  1.
   -5000001    1    1    2    0    0  0.14835720322E+03  0.24642885874E+02 -0.90752157561E+02  0.30553737198E+03  0.25000000000E+03 0.  0.
    5000001    1    1    2    0    0 -0.14835720322E+03 -0.24642885874E+02 -0.82043510131E+02  0.30306479361E+03  0.25000000000E+03 0.  0.
<mgrwt>
<rscale>  0 0.58355656E+03</rscale>
<asrwt>0</asrwt>
<pdfrwt beam="1">  1        2 0.60107526E-01 0.58355656E+03</pdfrwt>
<pdfrwt beam="2">  1       -2 0.33523577E-01 0.58355656E+03</pdfrwt>
<totfact> 0.68315601E+02</totfact>
</mgrwt>
</event>
<event>
 4    1  0.1720876E-005  0.7491227E+03  0.7818608E-02  0.9636728E-01
          2   -1    0    0  501    0  0.00000000000E+00  0.00000000000E+00  0.25176611251E+04  0.25176611251E+04  0.25500000000E-02 0.  1.
         -2   -1    0    0    0  501 -0.00000000000E+00 -0.00000000000E+00 -0.55724810680E+02  0.55724810738E+02  0.25500000000E-02 0. -1.
   -5000001    1    1    2    0    0  0.99481580733E+02  0.24024353392E+03  0.88432520150E+03  0.95506261706E+03  0.25000000000E+03 0.  0.
    5000001    1    1    2    0    0 -0.99481580733E+02 -0.24024353392E+03  0.15776111129E+04  0.16183233187E+04  0.25000000000E+03 0.  0.
<mgrwt>
<rscale>  0 0.74912266E+03</rscale>
<asrwt>0</asrwt>
<pdfrwt beam="1">  1        2 0.38733255E+00 0.74912266E+03</pdfrwt>
<pdfrwt beam="2">  1       -2 0.85730462E-02 0.74912266E+03</pdfrwt>
<totfact> 0.31093656E+02</totfact>
</mgrwt>
</event>
<event>
 4    1  0.1720876E-005  0.1092035E+04  0.7818608E-02  0.9212990E-01
          2   -1    0    0  501    0  0.00000000000E+00  0.00000000000E+00  0.73952748561E+03  0.73952748561E+03  0.25500000000E-02 0.  1.
         -2   -1    0    0    0  501 -0.00000000000E+00 -0.00000000000E+00 -0.40314306865E+03  0.40314306866E+03  0.25500000000E-02 0. -1.
   -5000001    1    1    2    0    0  0.43626868790E+03  0.65497695171E+02  0.38010441696E+03  0.63371893131E+03  0.25000000000E+03 0.  0.
    5000001    1    1    2    0    0 -0.43626868790E+03 -0.65497695171E+02 -0.43720000005E+02  0.50895162296E+03  0.25000000000E+03 0.  0.
<mgrwt>
<rscale>  0 0.10920355E+04</rscale>
<asrwt>0</asrwt>
<pdfrwt beam="1">  1        2 0.11377346E+00 0.10920355E+04</pdfrwt>
<pdfrwt beam="2">  1       -2 0.62022011E-01 0.10920355E+04</pdfrwt>
<totfact> 0.91611710E+01</totfact>
</mgrwt>
</event>
<event>
 4    1  0.1720876E-005  0.7305891E+03  0.7818608E-02  0.9666305E-01
          2   -1    0    0  501    0  0.00000000000E+00  0.00000000000E+00  0.19055416913E+04  0.19055416913E+04  0.25500000000E-02 0.  1.
         -2   -1    0    0    0  501 -0.00000000000E+00 -0.00000000000E+00 -0.70027394878E+02  0.70027394925E+02  0.25500000000E-02 0. -1.
   -5000001    1    1    2    0    0  0.13296790933E+03  0.23076273844E+03  0.92550712684E+03  0.99498509948E+03  0.25000000000E+03 0.  0.
    5000001    1    1    2    0    0 -0.13296790933E+03 -0.23076273844E+03  0.91000716956E+03  0.98058398672E+03  0.25000000000E+03 0.  0.
<mgrwt>
<rscale>  0 0.73058913E+03</rscale>
<asrwt>0</asrwt>
<pdfrwt beam="1">  1        2 0.29316023E+00 0.73058913E+03</pdfrwt>
<pdfrwt beam="2">  1       -2 0.10773446E-01 0.73058913E+03</pdfrwt>
<totfact> 0.46858348E+02</totfact>
</mgrwt>
</event>
<event>
 4    1  0.1720876E-005  0.9431963E+03  0.7818608E-02  0.9373139E-01
          2   -1    0    0  501    0  0.00000000000E+00  0.00000000000E+00  0.33024978198E+04  0.33024978198E+04  0.25500000000E-02 0.  1.
         -2   -1    0    0    0  501 -0.00000000000E+00 -0.00000000000E+00 -0.67344428148E+02  0.67344428196E+02  0.25500000000E-02 0. -1.
   -5000001    1    1    2    0    0  0.37847417189E+03 -0.68309454473E+02  0.20088901113E+04  0.20605941764E+04  0.25000000000E+03 0.  0.
    5000001    1    1    2    0    0 -0.37847417189E+03  0.68309454473E+02  0.12262632803E+04  0.13092480716E+04  0.25000000000E+03 0.  0.
<mgrwt>
<rscale>  0 0.94319633E+03</rscale>
<asrwt>0</asrwt>
<pdfrwt beam="1">  1        2 0.50807660E+00 0.94319633E+03</pdfrwt>
<pdfrwt beam="2">  1       -2 0.10360681E-01 0.94319633E+03</pdfrwt>
<totfact> 0.74888540E+01</totfact>
</mgrwt>
</event>
<event>
 4    1  0.1720876E-005  0.5624715E+03  0.7818608E-02  0.9986478E-01
          2   -1    0    0  501    0  0.00000000000E+00  0.00000000000E+00  0.68990740625E+03  0.68990740625E+03  0.25500000000E-02 0.  1.
         -2   -1    0    0    0  501 -0.00000000000E+00 -0.00000000000E+00 -0.11464371366E+03  0.11464371368E+03  0.25500000000E-02 0. -1.
   -5000001    1    1    2    0    0  0.99029672495E+02  0.82302424446E+02  0.28247808152E+03  0.39859055639E+03  0.25000000000E+03 0.  0.
    5000001    1    1    2    0    0 -0.99029672495E+02 -0.82302424446E+02  0.29278561107E+03  0.40596056354E+03  0.25000000000E+03 0.  0.
<mgrwt>
<rscale>  0 0.56247150E+03</rscale>
<asrwt>0</asrwt>
<pdfrwt beam="1">  1        2 0.10613960E+00 0.56247150E+03</pdfrwt>
<pdfrwt beam="2">  1       -2 0.17637495E-01 0.56247150E+03</pdfrwt>
<totfact> 0.11124734E+03</totfact>
</mgrwt>
</event>
<event>
 4    1  0.1720876E-005  0.1103242E+04  0.7818608E-02  0.9202038E-01
         -2   -1    0    0    0  501 -0.00000000000E+00  0.00000000000E+00  0.12262909852E+03  0.12262909855E+03  0.25500000000E-02 0. -1.
          2   -1    0    0  501    0  0.00000000000E+00 -0.00000000000E+00 -0.24813497836E+04  0.24813497836E+04  0.25500000000E-02 0.  1.
   -5000001    1    1    2    0    0  0.49096138473E+03  0.27104189415E+02 -0.11860232140E+04  0.13080247637E+04  0.25000000000E+03 0.  0.
    5000001    1    1    2    0    0 -0.49096138473E+03 -0.27104189415E+02 -0.11726974711E+04  0.12959541184E+04  0.25000000000E+03 0.  0.
<mgrwt>
<rscale>  0 0.11032419E+04</rscale>
<asrwt>0</asrwt>
<pdfrwt beam="1">  1        2 0.38174608E+00 0.11032419E+04</pdfrwt>
<pdfrwt beam="2">  1       -2 0.18866017E-01 0.11032419E+04</pdfrwt>
<totfact> 0.84586853E+01</totfact>
</mgrwt>
</event>
<event>
 4    1  0.1720876E-005  0.1104906E+04  0.7818608E-02  0.9200424E-01
         -2   -1    0    0    0  501 -0.00000000000E+00  0.00000000000E+00  0.12998083559E+03  0.12998083562E+03  0.25500000000E-02 0. -1.
          2   -1    0    0  501    0  0.00000000000E+00 -0.00000000000E+00 -0.23480696600E+04  0.23480696600E+04  0.25500000000E-02 0.  1.
   -5000001    1    1    2    0    0 -0.26852602420E+03  0.29719344532E+03 -0.46574076603E+03  0.66320783376E+03  0.25000000000E+03 0.  0.
    5000001    1    1    2    0    0  0.26852602420E+03 -0.29719344532E+03 -0.17523480584E+04  0.18148426619E+04  0.25000000000E+03 0.  0.
<mgrwt>
<rscale>  0 0.11049055E+04</rscale>
<asrwt>0</asrwt>
<pdfrwt beam="1">  1        2 0.36124145E+00 0.11049055E+04</pdfrwt>
<pdfrwt beam="2">  1       -2 0.19997053E-01 0.11049055E+04</pdfrwt>
<totfact> 0.90909392E+01</totfact>
</mgrwt>
</event>
<event>
 4    1  0.1720876E-005  0.8929852E+03  0.7818608E-02  0.9434393E-01
          2   -1    0    0  501    0  0.00000000000E+00  0.00000000000E+00  0.37227761422E+03  0.37227761423E+03  0.25500000000E-02 0.  1.
         -2   -1    0    0    0  501 -0.00000000000E+00 -0.00000000000E+00 -0.53550262644E+03  0.53550262645E+03  0.25500000000E-02 0. -1.
   -5000001    1    1    2    0    0  0.31806481798E+03 -0.11681417588E+03 -0.23254756872E+03  0.48102926298E+03  0.25000000000E+03 0.  0.
    5000001    1    1    2    0    0 -0.31806481798E+03  0.11681417588E+03  0.69322556493E+02  0.42675097770E+03  0.25000000000E+03 0.  0.
<mgrwt>
<rscale>  0 0.89298520E+03</rscale>
<asrwt>0</asrwt>
<pdfrwt beam="1">  1        2 0.57273479E-01 0.89298520E+03</pdfrwt>
<pdfrwt beam="2">  1       -2 0.82385020E-01 0.89298520E+03</pdfrwt>
<totfact> 0.11200102E+02</totfact>
</mgrwt>
</event>
<event>
 4    1  0.1720876E-005  0.1342650E+04  0.7818608E-02  0.8996410E-01
         -2   -1    0    0    0  501 -0.00000000000E+00  0.00000000000E+00  0.11107562547E+04  0.11107562547E+04  0.25500000000E-02 0. -1.
          2   -1    0    0  501    0  0.00000000000E+00 -0.00000000000E+00 -0.40573937059E+03  0.40573937060E+03  0.25500000000E-02 0.  1.
   -5000001    1    1    2    0    0 -0.19800639631E+03 -0.58087693077E+03  0.23110650099E+03  0.70180820491E+03  0.25000000000E+03 0.  0.
    5000001    1    1    2    0    0  0.19800639631E+03  0.58087693077E+03  0.47391038308E+03  0.81468742035E+03  0.25000000000E+03 0.  0.
<mgrwt>
<rscale>  0 0.13426504E+04</rscale>
<asrwt>0</asrwt>
<pdfrwt beam="1">  1        2 0.62421441E-01 0.13426504E+04</pdfrwt>
<pdfrwt beam="2">  1       -2 0.17088558E+00 0.13426504E+04</pdfrwt>
<totfact> 0.16044697E+01</totfact>
</mgrwt>
</event>
<event>
 4    1  0.1720876E-005  0.1040021E+04  0.7818608E-02  0.9265708E-01
         -2   -1    0    0    0  501 -0.00000000000E+00  0.00000000000E+00  0.43533763291E+03  0.43533763292E+03  0.25500000000E-02 0. -1.
          2   -1    0    0  501    0  0.00000000000E+00 -0.00000000000E+00 -0.62115236534E+03  0.62115236535E+03  0.25500000000E-02 0.  1.
   -5000001    1    1    2    0    0 -0.19325990352E+03  0.38932640707E+03 -0.23288103532E+03  0.55286347154E+03  0.25000000000E+03 0.  0.
    5000001    1    1    2    0    0  0.19325990352E+03 -0.38932640707E+03  0.47066302889E+02  0.50362652673E+03  0.25000000000E+03 0.  0.
<mgrwt>
<rscale>  0 0.10400212E+04</rscale>
<asrwt>0</asrwt>
<pdfrwt beam="1">  1        2 0.95561903E-01 0.10400212E+04</pdfrwt>
<pdfrwt beam="2">  1       -2 0.66975020E-01 0.10400212E+04</pdfrwt>
<totfact> 0.97008409E+01</totfact>
</mgrwt>
</event>
<event>
 4    1  0.1720876E-005  0.6141989E+03  0.7818608E-02  0.9876378E-01
         -2   -1    0    0    0  501 -0.00000000000E+00  0.00000000000E+00  0.99983292086E+02  0.99983292118E+02  0.25500000000E-02 0. -1.
          2   -1    0    0  501    0  0.00000000000E+00 -0.00000000000E+00 -0.94325824968E+03  0.94325824968E+03  0.25500000000E-02 0.  1.
   -5000001    1    1    2    0    0  0.14825359147E+03  0.95280828989E+02 -0.37504353227E+03  0.48395786475E+03  0.25000000000E+03 0.  0.
    5000001    1    1    2    0    0 -0.14825359147E+03 -0.95280828989E+02 -0.46823142532E+03  0.55928367705E+03  0.25000000000E+03 0.  0.
<mgrwt>
<rscale>  0 0.61419888E+03</rscale>
<asrwt>0</asrwt>
<pdfrwt beam="1">  1        2 0.14511665E+00 0.61419888E+03</pdfrwt>
<pdfrwt beam="2">  1       -2 0.15382046E-01 0.61419888E+03</pdfrwt>
<totfact> 0.92746834E+02</totfact>
</mgrwt>
</event>
<event>
 4    1  0.1720876E-005  0.6218213E+03  0.7818608E-02  0.9861140E-01
          2   -1    0    0  501    0  0.00000000000E+00  0.00000000000E+00  0.63810432110E+03  0.63810432110E+03  0.25500000000E-02 0.  1.
         -2   -1    0    0    0  501 -0.00000000000E+00 -0.00000000000E+00 -0.15148844559E+03  0.15148844562E+03  0.25500000000E-02 0. -1.
   -5000001    1    1    2    0    0  0.42764597883E+02 -0.14788901443E+03  0.11340566912E+03  0.31473928450E+03  0.25000000000E+03 0.  0.
    5000001    1    1    2    0    0 -0.42764597883E+02  0.14788901443E+03  0.37321020639E+03  0.47485348222E+03  0.25000000000E+03 0.  0.
<mgrwt>
<rscale>  0 0.62182130E+03</rscale>
<asrwt>0</asrwt>
<pdfrwt beam="1">  1        2 0.98169898E-01 0.62182130E+03</pdfrwt>
<pdfrwt beam="2">  1       -2 0.23305914E-01 0.62182130E+03</pdfrwt>
<totfact> 0.75217176E+02</totfact>
</mgrwt>
</event>
<event>
 4    1  0.1720876E-005  0.7106750E+03  0.7818608E-02  0.9699149E-01
          2   -1    0    0  501    0  0.00000000000E+00  0.00000000000E+00  0.48023220940E+03  0.48023220941E+03  0.25500000000E-02 0.  1.
         -2   -1    0    0    0  501 -0.00000000000E+00 -0.00000000000E+00 -0.26292432078E+03  0.26292432079E+03  0.25500000000E-02 0. -1.
   -5000001    1    1    2    0    0  0.16936093429E+03 -0.18043799979E+03  0.16118676190E+03  0.38693949145E+03  0.25000000000E+03 0.  0.
    5000001    1    1    2    0    0 -0.16936093429E+03  0.18043799979E+03  0.56121126722E+02  0.35621703875E+03  0.25000000000E+03 0.  0.
<mgrwt>
<rscale>  0 0.71067497E+03</rscale>
<asrwt>0</asrwt>
<pdfrwt beam="1">  1        2 0.73881878E-01 0.71067497E+03</pdfrwt>
<pdfrwt beam="2">  1       -2 0.40449896E-01 0.71067497E+03</pdfrwt>
<totfact> 0.37633452E+02</totfact>
</mgrwt>
</event>
<event>
 4    1  0.1720876E-005  0.5804593E+03  0.7818608E-02  0.9946797E-01
         -2   -1    0    0    0  501 -0.00000000000E+00  0.00000000000E+00  0.29739269227E+02  0.29739269337E+02  0.25500000000E-02 0. -1.
          2   -1    0    0  501    0  0.00000000000E+00 -0.00000000000E+00 -0.28323911598E+04  0.28323911598E+04  0.25500000000E-02 0.  1.
   -5000001    1    1    2    0    0  0.93597607887E+02  0.13955411645E+02 -0.84394935248E+03  0.88527158278E+03  0.25000000000E+03 0.  0.
    5000001    1    1    2    0    0 -0.93597607887E+02 -0.13955411645E+02 -0.19587025381E+04  0.19768588464E+04  0.25000000000E+03 0.  0.
<mgrwt>
<rscale>  0 0.58045928E+03</rscale>
<asrwt>0</asrwt>
<pdfrwt beam="1">  1        2 0.43575227E+00 0.58045928E+03</pdfrwt>
<pdfrwt beam="2">  1       -2 0.45752744E-02 0.58045928E+03</pdfrwt>
<totfact> 0.55873657E+02</totfact>
</mgrwt>
</event>
<event>
 4    1  0.1720876E-005  0.8500921E+03  0.7818608E-02  0.9490213E-01
          2   -1    0    0  501    0  0.00000000000E+00  0.00000000000E+00  0.19124863587E+04  0.19124863587E+04  0.25500000000E-02 0.  1.
         -2   -1    0    0    0  501 -0.00000000000E+00 -0.00000000000E+00 -0.94465581773E+02  0.94465581807E+02  0.25500000000E-02 0. -1.
   -5000001    1    1    2    0    0  0.24536763690E+03 -0.20061701515E+03  0.12232064880E+04  0.12880941644E+04  0.25000000000E+03 0.  0.
    5000001    1    1    2    0    0 -0.24536763690E+03  0.20061701515E+03  0.59481428895E+03  0.71885777616E+03  0.25000000000E+03 0.  0.
<mgrwt>
<rscale>  0 0.85009208E+03</rscale>
<asrwt>0</asrwt>
<pdfrwt beam="1">  1        2 0.29422867E+00 0.85009208E+03</pdfrwt>
<pdfrwt beam="2">  1       -2 0.14533166E-01 0.85009208E+03</pdfrwt>
<totfact> 0.28004418E+02</totfact>
</mgrwt>
</event>
<event>
 4    1  0.1720876E-005  0.5942923E+03  0.7818608E-02  0.9917319E-01
         -2   -1    0    0    0  501 -0.00000000000E+00  0.00000000000E+00  0.49218849593E+02  0.49218849659E+02  0.25500000000E-02 0. -1.
          2   -1    0    0  501    0  0.00000000000E+00 -0.00000000000E+00 -0.17939434026E+04  0.17939434026E+04  0.25500000000E-02 0.  1.
   -5000001    1    1    2    0    0 -0.12928765419E+03  0.95286168907E+02 -0.86914056118E+03  0.91853147284E+03  0.25000000000E+03 0.  0.
    5000001    1    1    2    0    0  0.12928765419E+03 -0.95286168907E+02 -0.87558399183E+03  0.92463077943E+03  0.25000000000E+03 0.  0.
<mgrwt>
<rscale>  0 0.59429229E+03</rscale>
<asrwt>0</asrwt>
<pdfrwt beam="1">  1        2 0.27599124E+00 0.59429229E+03</pdfrwt>
<pdfrwt beam="2">  1       -2 0.75721321E-02 0.59429229E+03</pdfrwt>
<totfact> 0.95940960E+02</totfact>
</mgrwt>
</event>
<event>
 4    1  0.1720876E-005  0.1095753E+04  0.7818608E-02  0.9209341E-01
         -2   -1    0    0    0  501 -0.00000000000E+00  0.00000000000E+00  0.53953233259E+03  0.53953233260E+03  0.25500000000E-02 0. -1.
          2   -1    0    0  501    0  0.00000000000E+00 -0.00000000000E+00 -0.55635002395E+03  0.55635002396E+03  0.25500000000E-02 0.  1.
   -5000001    1    1    2    0    0  0.10555461947E+03  0.20678177424E+03 -0.43714143758E+03  0.55452061846E+03  0.25000000000E+03 0.  0.
    5000001    1    1    2    0    0 -0.10555461947E+03 -0.20678177424E+03  0.42032374621E+03  0.54136173810E+03  0.25000000000E+03 0.  0.
<mgrwt>
<rscale>  0 0.10957533E+04</rscale>
<asrwt>0</asrwt>
<pdfrwt beam="1">  1        2 0.85592312E-01 0.10957533E+04</pdfrwt>
<pdfrwt beam="2">  1       -2 0.83004974E-01 0.10957533E+04</pdfrwt>
<totfact> 0.68629005E+01</totfact>
</mgrwt>
</event>
<event>
 4    1  0.1720876E-005  0.6978381E+03  0.7818608E-02  0.9720936E-01
          2   -1    0    0  501    0  0.00000000000E+00  0.00000000000E+00  0.77942310621E+03  0.77942310622E+03  0.25500000000E-02 0.  1.
         -2   -1    0    0    0  501 -0.00000000000E+00 -0.00000000000E+00 -0.15619823947E+03  0.15619823949E+03  0.25500000000E-02 0. -1.
   -5000001    1    1    2    0    0 -0.21202603584E+03 -0.11787034889E+03  0.28493003868E+03  0.45003731619E+03  0.25000000000E+03 0.  0.
    5000001    1    1    2    0    0  0.21202603584E+03  0.11787034889E+03  0.33829482807E+03  0.48558402951E+03  0.25000000000E+03 0.  0.
<mgrwt>
<rscale>  0 0.69783814E+03</rscale>
<asrwt>0</asrwt>
<pdfrwt beam="1">  1        2 0.11991125E+00 0.69783814E+03</pdfrwt>
<pdfrwt beam="2">  1       -2 0.24030498E-01 0.69783814E+03</pdfrwt>
<totfact> 0.55219331E+02</totfact>
</mgrwt>
</event>
<event>
 4    1  0.1720876E-005  0.5151694E+03  0.7818608E-02  0.1009894E+00
          2   -1    0    0  501    0  0.00000000000E+00  0.00000000000E+00  0.14474334115E+04  0.14474334115E+04  0.25500000000E-02 0.  1.
         -2   -1    0    0    0  501 -0.00000000000E+00 -0.00000000000E+00 -0.45839667604E+02  0.45839667675E+02  0.25500000000E-02 0. -1.
   -5000001    1    1    2    0    0  0.37166858122E+02 -0.45391993433E+02  0.64224372800E+03  0.69167825943E+03  0.25000000000E+03 0.  0.
    5000001    1    1    2    0    0 -0.37166858122E+02  0.45391993433E+02  0.75935001594E+03  0.80159481979E+03  0.25000000000E+03 0.  0.
<mgrwt>
<rscale>  0 0.51516936E+03</rscale>
<asrwt>0</asrwt>
<pdfrwt beam="1">  1        2 0.22268202E+00 0.51516936E+03</pdfrwt>
<pdfrwt beam="2">  1       -2 0.70522578E-02 0.51516936E+03</pdfrwt>
<totfact> 0.16650264E+03</totfact>
</mgrwt>
</event>
<event>
 4    1  0.1720876E-005  0.7904228E+03  0.7818608E-02  0.9573984E-01
          2   -1    0    0  501    0  0.00000000000E+00  0.00000000000E+00  0.75319943324E+03  0.75319943325E+03  0.25500000000E-02 0.  1.
         -2   -1    0    0    0  501 -0.00000000000E+00 -0.00000000000E+00 -0.20737142825E+03  0.20737142826E+03  0.25500000000E-02 0. -1.
   -5000001    1    1    2    0    0 -0.15639246650E+03 -0.18282317337E+03  0.42946313325E+02  0.34961021457E+03  0.25000000000E+03 0.  0.
    5000001    1    1    2    0    0  0.15639246650E+03  0.18282317337E+03  0.50288169167E+03  0.61096064695E+03  0.25000000000E+03 0.  0.
<mgrwt>
<rscale>  0 0.79042278E+03</rscale>
<asrwt>0</asrwt>
<pdfrwt beam="1">  1        2 0.11587684E+00 0.79042278E+03</pdfrwt>
<pdfrwt beam="2">  1       -2 0.31903297E-01 0.79042278E+03</pdfrwt>
<totfact> 0.34236316E+02</totfact>
</mgrwt>
</event>
<event>
 4    1  0.1720876E-005  0.5948162E+03  0.7818608E-02  0.9916220E-01
         -2   -1    0    0    0  501 -0.00000000000E+00  0.00000000000E+00  0.11079733276E+03  0.11079733279E+03  0.25500000000E-02 0. -1.
          2   -1    0    0  501    0  0.00000000000E+00 -0.00000000000E+00 -0.79831853154E+03  0.79831853154E+03  0.25500000000E-02 0.  1.
   -5000001    1    1    2    0    0  0.56123161137E+02 -0.10357294831E+03 -0.51170643787E+03  0.58156740228E+03  0.25000000000E+03 0.  0.
    5000001    1    1    2    0    0 -0.56123161137E+02  0.10357294831E+03 -0.17581476090E+03  0.32754846205E+03  0.25000000000E+03 0.  0.
<mgrwt>
<rscale>  0 0.59481615E+03</rscale>
<asrwt>0</asrwt>
<pdfrwt beam="1">  1        2 0.12281823E+00 0.59481615E+03</pdfrwt>
<pdfrwt beam="2">  1       -2 0.17045744E-01 0.59481615E+03</pdfrwt>
<totfact> 0.97823786E+02</totfact>
</mgrwt>
</event>
<event>
 4    1  0.1720876E-005  0.9115066E+03  0.7818608E-02  0.9411311E-01
         -2   -1    0    0    0  501 -0.00000000000E+00  0.00000000000E+00  0.32085859170E+03  0.32085859171E+03  0.25500000000E-02 0. -1.
          2   -1    0    0  501    0  0.00000000000E+00 -0.00000000000E+00 -0.64736019901E+03  0.64736019901E+03  0.25500000000E-02 0.  1.
   -5000001    1    1    2    0    0  0.65385925996E+02 -0.36858137050E+03 -0.23898580194E+03  0.50964866283E+03  0.25000000000E+03 0.  0.
    5000001    1    1    2    0    0 -0.65385925996E+02  0.36858137050E+03 -0.87515805369E+02  0.45857012789E+03  0.25000000000E+03 0.  0.
<mgrwt>
<rscale>  0 0.91150662E+03</rscale>
<asrwt>0</asrwt>
<pdfrwt beam="1">  1        2 0.99593876E-01 0.91150662E+03</pdfrwt>
<pdfrwt beam="2">  1       -2 0.49362861E-01 0.91150662E+03</pdfrwt>
<totfact> 0.17602694E+02</totfact>
</mgrwt>
</event>
<event>
 4    1  0.1720876E-005  0.6493412E+03  0.7818608E-02  0.9808016E-01
         -2   -1    0    0    0  501 -0.00000000000E+00  0.00000000000E+00  0.12473571048E+03  0.12473571051E+03  0.25500000000E-02 0. -1.
          2   -1    0    0  501    0  0.00000000000E+00 -0.00000000000E+00 -0.84507487316E+03  0.84507487316E+03  0.25500000000E-02 0.  1.
   -5000001    1    1    2    0    0 -0.10304951696E+03  0.15311476682E+03 -0.21968501050E+03  0.38055858761E+03  0.25000000000E+03 0.  0.
    5000001    1    1    2    0    0  0.10304951696E+03 -0.15311476682E+03 -0.50065415218E+03  0.58925199606E+03  0.25000000000E+03 0.  0.
<mgrwt>
<rscale>  0 0.64934125E+03</rscale>
<asrwt>0</asrwt>
<pdfrwt beam="1">  1        2 0.13001152E+00 0.64934125E+03</pdfrwt>
<pdfrwt beam="2">  1       -2 0.19190110E-01 0.64934125E+03</pdfrwt>
<totfact> 0.73847214E+02</totfact>
</mgrwt>
</event>
<event>
 4    1  0.1720876E-005  0.7184663E+03  0.7818608E-02  0.9686163E-01
         -2   -1    0    0    0  501 -0.00000000000E+00  0.00000000000E+00  0.99477456489E+02  0.99477456522E+02  0.25500000000E-02 0. -1.
          2   -1    0    0  501    0  0.00000000000E+00 -0.00000000000E+00 -0.12972632956E+04  0.12972632956E+04  0.25500000000E-02 0.  1.
   -5000001    1    1    2    0    0  0.20985609968E+02  0.24867993296E+03 -0.47191226676E+03  0.58947713476E+03  0.25000000000E+03 0.  0.
    5000001    1    1    2    0    0 -0.20985609968E+02 -0.24867993296E+03 -0.72587357232E+03  0.80726361734E+03  0.25000000000E+03 0.  0.
<mgrwt>
<rscale>  0 0.71846629E+03</rscale>
<asrwt>0</asrwt>
<pdfrwt beam="1">  1        2 0.19957896E+00 0.71846629E+03</pdfrwt>
<pdfrwt beam="2">  1       -2 0.15304225E-01 0.71846629E+03</pdfrwt>
<totfact> 0.56767193E+02</totfact>
</mgrwt>
</event>
<event>
 4    1  0.1720876E-005  0.7710819E+03  0.7818608E-02  0.9602845E-01
         -2   -1    0    0    0  501 -0.00000000000E+00  0.00000000000E+00  0.81476213572E+03  0.81476213572E+03  0.25500000000E-02 0. -1.
          2   -1    0    0  501    0  0.00000000000E+00 -0.00000000000E+00 -0.18243583604E+03  0.18243583606E+03  0.25500000000E-02 0.  1.
   -5000001    1    1    2    0    0  0.15608599635E+02  0.27966581596E+03  0.20279034518E+03  0.42670894190E+03  0.25000000000E+03 0.  0.
    5000001    1    1    2    0    0 -0.15608599635E+02 -0.27966581596E+03  0.42953595449E+03  0.57048902987E+03  0.25000000000E+03 0.  0.
<mgrwt>
<rscale>  0 0.77108187E+03</rscale>
<asrwt>0</asrwt>
<pdfrwt beam="1">  1        2 0.28067052E-01 0.77108187E+03</pdfrwt>
<pdfrwt beam="2">  1       -2 0.12534802E+00 0.77108187E+03</pdfrwt>
<totfact> 0.92182115E+01</totfact>
</mgrwt>
</event>
<event>
 4    1  0.1720876E-005  0.6806722E+03  0.7818608E-02  0.9750868E-01
          2   -1    0    0  501    0  0.00000000000E+00  0.00000000000E+00  0.78013506497E+03  0.78013506497E+03  0.25500000000E-02 0.  1.
         -2   -1    0    0    0  501 -0.00000000000E+00 -0.00000000000E+00 -0.14847258628E+03  0.14847258630E+03  0.25500000000E-02 0. -1.
   -5000001    1    1    2    0    0  0.11906874211E+03  0.19781156081E+03  0.32221439073E+03  0.46864580712E+03  0.25000000000E+03 0.  0.
    5000001    1    1    2    0    0 -0.11906874211E+03 -0.19781156081E+03  0.30944808796E+03  0.45996184415E+03  0.25000000000E+03 0.  0.
<mgrwt>
<rscale>  0 0.68067223E+03</rscale>
<asrwt>0</asrwt>
<pdfrwt beam="1">  1        2 0.12002078E+00 0.68067223E+03</pdfrwt>
<pdfrwt beam="2">  1       -2 0.22841937E-01 0.68067223E+03</pdfrwt>
<totfact> 0.60411940E+02</totfact>
</mgrwt>
</event>
<event>
 4    1  0.1720876E-005  0.8232972E+03  0.7818608E-02  0.9526894E-01
          2   -1    0    0  501    0  0.00000000000E+00  0.00000000000E+00  0.17545145735E+04  0.17545145735E+04  0.25500000000E-02 0.  1.
         -2   -1    0    0    0  501 -0.00000000000E+00 -0.00000000000E+00 -0.96582025129E+02  0.96582025163E+02  0.25500000000E-02 0. -1.
   -5000001    1    1    2    0    0 -0.27717865311E+03  0.96166435492E+02  0.11538462463E+04  0.12165266742E+04  0.25000000000E+03 0.  0.
    5000001    1    1    2    0    0  0.27717865311E+03 -0.96166435492E+02  0.50408630214E+03  0.63456992448E+03  0.25000000000E+03 0.  0.
<mgrwt>
<rscale>  0 0.82329720E+03</rscale>
<asrwt>0</asrwt>
<pdfrwt beam="1">  1        2 0.26992533E+00 0.82329720E+03</pdfrwt>
<pdfrwt beam="2">  1       -2 0.14858773E-01 0.82329720E+03</pdfrwt>
<totfact> 0.32974680E+02</totfact>
</mgrwt>
</event>
<event>
 4    1  0.1720876E-005  0.1208455E+04  0.7818608E-02  0.9105488E-01
         -2   -1    0    0    0  501 -0.00000000000E+00  0.00000000000E+00  0.11953212788E+04  0.11953212788E+04  0.25500000000E-02 0. -1.
          2   -1    0    0  501    0  0.00000000000E+00 -0.00000000000E+00 -0.30543314376E+03  0.30543314377E+03  0.25500000000E-02 0.  1.
   -5000001    1    1    2    0    0  0.35520063129E+02 -0.54837969709E+03  0.47558524688E+03  0.76854622119E+03  0.25000000000E+03 0.  0.
    5000001    1    1    2    0    0 -0.35520063129E+02  0.54837969709E+03  0.41430288821E+03  0.73220820143E+03  0.25000000000E+03 0.  0.
<mgrwt>
<rscale>  0 0.12084548E+04</rscale>
<asrwt>0</asrwt>
<pdfrwt beam="1">  1        2 0.46989714E-01 0.12084548E+04</pdfrwt>
<pdfrwt beam="2">  1       -2 0.18389558E+00 0.12084548E+04</pdfrwt>
<totfact> 0.18074349E+01</totfact>
</mgrwt>
</event>
<event>
 4    1  0.1720876E-005  0.8023685E+03  0.7818608E-02  0.9556595E-01
          2   -1    0    0  501    0  0.00000000000E+00  0.00000000000E+00  0.92937957478E+02  0.92937957513E+02  0.25500000000E-02 0.  1.
         -2   -1    0    0    0  501 -0.00000000000E+00 -0.00000000000E+00 -0.17317877844E+04  0.17317877844E+04  0.25500000000E-02 0. -1.
   -5000001    1    1    2    0    0 -0.25633825270E+03 -0.13607528918E+03 -0.10906437511E+04  0.11559539679E+04  0.25000000000E+03 0.  0.
    5000001    1    1    2    0    0  0.25633825270E+03  0.13607528918E+03 -0.54820607580E+03  0.66877177397E+03  0.25000000000E+03 0.  0.
<mgrwt>
<rscale>  0 0.80236854E+03</rscale>
<asrwt>0</asrwt>
<pdfrwt beam="1">  1        2 0.14298149E-01 0.80236854E+03</pdfrwt>
<pdfrwt beam="2">  1       -2 0.26642887E+00 0.80236854E+03</pdfrwt>
<totfact> 0.22255120E+01</totfact>
</mgrwt>
</event>
<event>
 4    1  0.1720876E-005  0.7310892E+03  0.7818608E-02  0.9665495E-01
         -2   -1    0    0    0  501 -0.00000000000E+00  0.00000000000E+00  0.99155915097E+02  0.99155915130E+02  0.25500000000E-02 0. -1.
          2   -1    0    0  501    0  0.00000000000E+00 -0.00000000000E+00 -0.13476033460E+04  0.13476033460E+04  0.25500000000E-02 0.  1.
   -5000001    1    1    2    0    0  0.18632466533E+03 -0.16609670299E+03 -0.81005002806E+03  0.88373414759E+03  0.25000000000E+03 0.  0.
    5000001    1    1    2    0    0 -0.18632466533E+03  0.16609670299E+03 -0.43839740279E+03  0.56302511350E+03  0.25000000000E+03 0.  0.
<mgrwt>
<rscale>  0 0.73108917E+03</rscale>
<asrwt>0</asrwt>
<pdfrwt beam="1">  1        2 0.20732358E+00 0.73108917E+03</pdfrwt>
<pdfrwt beam="2">  1       -2 0.15254757E-01 0.73108917E+03</pdfrwt>
<totfact> 0.53377436E+02</totfact>
</mgrwt>
</event>
<event>
 4    1  0.1720876E-005  0.8492847E+03  0.7818608E-02  0.9491297E-01
          2   -1    0    0  501    0  0.00000000000E+00  0.00000000000E+00  0.59246914183E+03  0.59246914184E+03  0.25500000000E-02 0.  1.
         -2   -1    0    0    0  501 -0.00000000000E+00 -0.00000000000E+00 -0.30435532972E+03  0.30435532973E+03  0.25500000000E-02 0. -1.
   -5000001    1    1    2    0    0 -0.22092750011E+03  0.20419756860E+03  0.31858244039E+03  0.50448030552E+03  0.25000000000E+03 0.  0.
    5000001    1    1    2    0    0  0.22092750011E+03 -0.20419756860E+03 -0.30468628281E+02  0.39234416605E+03  0.25000000000E+03 0.  0.
<mgrwt>
<rscale>  0 0.84928474E+03</rscale>
<asrwt>0</asrwt>
<pdfrwt beam="1">  1        2 0.91149098E-01 0.84928474E+03</pdfrwt>
<pdfrwt beam="2">  1       -2 0.46823897E-01 0.84928474E+03</pdfrwt>
<totfact> 0.21885396E+02</totfact>
</mgrwt>
</event>
<event>
 4    1  0.1720876E-005  0.9483549E+03  0.7818608E-02  0.9367076E-01
          2   -1    0    0  501    0  0.00000000000E+00  0.00000000000E+00  0.74716436975E+03  0.74716436976E+03  0.25500000000E-02 0.  1.
         -2   -1    0    0    0  501 -0.00000000000E+00 -0.00000000000E+00 -0.30093008537E+03  0.30093008538E+03  0.25500000000E-02 0. -1.
   -5000001    1    1    2    0    0  0.51308209023E+02  0.29078219271E+03 -0.79863919652E+02  0.39505070760E+03  0.25000000000E+03 0.  0.
    5000001    1    1    2    0    0 -0.51308209023E+02 -0.29078219271E+03  0.52609820404E+03  0.65304374754E+03  0.25000000000E+03 0.  0.
<mgrwt>
<rscale>  0 0.94835487E+03</rscale>
<asrwt>0</asrwt>
<pdfrwt beam="1">  1        2 0.11494836E+00 0.94835487E+03</pdfrwt>
<pdfrwt beam="2">  1       -2 0.46296936E-01 0.94835487E+03</pdfrwt>
<totfact> 0.16682073E+02</totfact>
</mgrwt>
</event>
<event>
 4    1  0.1720876E-005  0.6929304E+03  0.7818608E-02  0.9729399E-01
         -2   -1    0    0    0  501 -0.00000000000E+00  0.00000000000E+00  0.76362565857E+02  0.76362565900E+02  0.25500000000E-02 0. -1.
          2   -1    0    0  501    0  0.00000000000E+00 -0.00000000000E+00 -0.15719500533E+04  0.15719500533E+04  0.25500000000E-02 0.  1.
   -5000001    1    1    2    0    0  0.20369780646E+03  0.94339691766E+02 -0.94887064824E+03  0.10066023450E+04  0.25000000000E+03 0.  0.
    5000001    1    1    2    0    0 -0.20369780646E+03 -0.94339691766E+02 -0.54671683923E+03  0.64171027426E+03  0.25000000000E+03 0.  0.
<mgrwt>
<rscale>  0 0.69293041E+03</rscale>
<asrwt>0</asrwt>
<pdfrwt beam="1">  1        2 0.24183845E+00 0.69293041E+03</pdfrwt>
<pdfrwt beam="2">  1       -2 0.11748088E-01 0.69293041E+03</pdfrwt>
<totfact> 0.61973935E+02</totfact>
</mgrwt>
</event>
<event>
 4    1  0.1720876E-005  0.1520284E+04  0.7818608E-02  0.8871075E-01
          2   -1    0    0  501    0  0.00000000000E+00  0.00000000000E+00  0.10916630835E+04  0.10916630836E+04  0.25500000000E-02 0.  1.
         -2   -1    0    0    0  501 -0.00000000000E+00 -0.00000000000E+00 -0.52929882428E+03  0.52929882428E+03  0.25500000000E-02 0. -1.
   -5000001    1    1    2    0    0  0.55762301357E+03  0.27650402079E+03  0.66252358194E+03  0.94278067196E+03  0.25000000000E+03 0.  0.
    5000001    1    1    2    0    0 -0.55762301357E+03 -0.27650402079E+03 -0.10015932267E+03  0.67818123588E+03  0.25000000000E+03 0.  0.
<mgrwt>
<rscale>  0 0.15202842E+04</rscale>
<asrwt>0</asrwt>
<pdfrwt beam="1">  1        2 0.16794817E+00 0.15202842E+04</pdfrwt>
<pdfrwt beam="2">  1       -2 0.81430589E-01 0.15202842E+04</pdfrwt>
<totfact> 0.28253306E+01</totfact>
</mgrwt>
</event>
<event>
 4    1  0.1720876E-005  0.7032756E+03  0.7818608E-02  0.9711647E-01
          2   -1    0    0  501    0  0.00000000000E+00  0.00000000000E+00  0.11873944339E+04  0.11873944339E+04  0.25500000000E-02 0.  1.
         -2   -1    0    0    0  501 -0.00000000000E+00 -0.00000000000E+00 -0.10413483743E+03  0.10413483746E+03  0.25500000000E-02 0. -1.
   -5000001    1    1    2    0    0 -0.21306343829E+03  0.90765024909E+02  0.38243177429E+03  0.51223859720E+03  0.25000000000E+03 0.  0.
    5000001    1    1    2    0    0  0.21306343829E+03 -0.90765024909E+02  0.70082782214E+03  0.77929067412E+03  0.25000000000E+03 0.  0.
<mgrwt>
<rscale>  0 0.70327555E+03</rscale>
<asrwt>0</asrwt>
<pdfrwt beam="1">  1        2 0.18267607E+00 0.70327555E+03</pdfrwt>
<pdfrwt beam="2">  1       -2 0.16020744E-01 0.70327555E+03</pdfrwt>
<totfact> 0.60929419E+02</totfact>
</mgrwt>
</event>
<event>
 4    1  0.1720876E-005  0.7109745E+03  0.7818608E-02  0.9698646E-01
          2   -1    0    0  501    0  0.00000000000E+00  0.00000000000E+00  0.12087517753E+04  0.12087517753E+04  0.25500000000E-02 0.  1.
         -2   -1    0    0    0  501 -0.00000000000E+00 -0.00000000000E+00 -0.10454683604E+03  0.10454683607E+03  0.25500000000E-02 0. -1.
   -5000001    1    1    2    0    0 -0.20317940569E+03  0.94527339084E+02  0.33625965311E+03  0.47517138281E+03  0.25000000000E+03 0.  0.
    5000001    1    1    2    0    0  0.20317940569E+03 -0.94527339084E+02  0.76794528618E+03  0.83812722858E+03  0.25000000000E+03 0.  0.
<mgrwt>
<rscale>  0 0.71097447E+03</rscale>
<asrwt>0</asrwt>
<pdfrwt beam="1">  1        2 0.18596181E+00 0.71097447E+03</pdfrwt>
<pdfrwt beam="2">  1       -2 0.16084129E-01 0.71097447E+03</pdfrwt>
<totfact> 0.58767837E+02</totfact>
</mgrwt>
</event>
<event>
 4    1  0.1720876E-005  0.8948271E+03  0.7818608E-02  0.9432071E-01
          2   -1    0    0  501    0  0.00000000000E+00  0.00000000000E+00  0.25068626643E+04  0.25068626643E+04  0.25500000000E-02 0.  1.
         -2   -1    0    0    0  501 -0.00000000000E+00 -0.00000000000E+00 -0.79852348980E+02  0.79852349021E+02  0.25500000000E-02 0. -1.
   -5000001    1    1    2    0    0  0.22500522212E+03  0.15169913865E+03  0.19450338742E+04  0.19797213820E+04  0.25000000000E+03 0.  0.
    5000001    1    1    2    0    0 -0.22500522212E+03 -0.15169913865E+03  0.48197644114E+03  0.60699363132E+03  0.25000000000E+03 0.  0.
<mgrwt>
<rscale>  0 0.89482707E+03</rscale>
<asrwt>0</asrwt>
<pdfrwt beam="1">  1        2 0.38567117E+00 0.89482707E+03</pdfrwt>
<pdfrwt beam="2">  1       -2 0.12284977E-01 0.89482707E+03</pdfrwt>
<totfact> 0.17286349E+02</totfact>
</mgrwt>
</event>
<event>
 4    1  0.1720876E-005  0.6888814E+03  0.7818608E-02  0.9736438E-01
          2   -1    0    0  501    0  0.00000000000E+00  0.00000000000E+00  0.30135286818E+04  0.30135286818E+04  0.25500000000E-02 0.  1.
         -2   -1    0    0    0  501 -0.00000000000E+00 -0.00000000000E+00 -0.39368932854E+02  0.39368932937E+02  0.25500000000E-02 0. -1.
   -5000001    1    1    2    0    0 -0.16581938546E+03 -0.16337113323E+03  0.12912213285E+04  0.13356416866E+04  0.25000000000E+03 0.  0.
    5000001    1    1    2    0    0  0.16581938546E+03  0.16337113323E+03  0.16829384204E+04  0.17172559281E+04  0.25000000000E+03 0.  0.
<mgrwt>
<rscale>  0 0.68888144E+03</rscale>
<asrwt>0</asrwt>
<pdfrwt beam="1">  1        2 0.46361983E+00 0.68888144E+03</pdfrwt>
<pdfrwt beam="2">  1       -2 0.60567585E-02 0.68888144E+03</pdfrwt>
<totfact> 0.27768601E+02</totfact>
</mgrwt>
</event>
<event>
 4    1  0.1720876E-005  0.1168266E+04  0.7818608E-02  0.9141096E-01
         -2   -1    0    0    0  501 -0.00000000000E+00  0.00000000000E+00  0.39502064919E+03  0.39502064920E+03  0.25500000000E-02 0. -1.
          2   -1    0    0  501    0  0.00000000000E+00 -0.00000000000E+00 -0.86378067902E+03  0.86378067902E+03  0.25500000000E-02 0.  1.
   -5000001    1    1    2    0    0  0.85373528507E+02  0.30512196224E+03 -0.68938842352E+03  0.79883943924E+03  0.25000000000E+03 0.  0.
    5000001    1    1    2    0    0 -0.85373528507E+02 -0.30512196224E+03  0.22062839369E+03  0.45996188898E+03  0.25000000000E+03 0.  0.
<mgrwt>
<rscale>  0 0.11682657E+04</rscale>
<asrwt>0</asrwt>
<pdfrwt beam="1">  1        2 0.13288933E+00 0.11682657E+04</pdfrwt>
<pdfrwt beam="2">  1       -2 0.60772408E-01 0.11682657E+04</pdfrwt>
<totfact> 0.77395400E+01</totfact>
</mgrwt>
</event>
<event>
 4    1  0.1720876E-005  0.2445171E+04  0.7818608E-02  0.8422783E-01
          2   -1    0    0  501    0  0.00000000000E+00  0.00000000000E+00  0.85997313892E+03  0.85997313892E+03  0.25500000000E-02 0.  1.
         -2   -1    0    0    0  501 -0.00000000000E+00 -0.00000000000E+00 -0.17380953433E+04  0.17380953433E+04  0.25500000000E-02 0. -1.
   -5000001    1    1    2    0    0 -0.25756251012E+03 -0.69615805292E+03 -0.14365054237E+04  0.16361608459E+04  0.25000000000E+03 0.  0.
    5000001    1    1    2    0    0  0.25756251012E+03  0.69615805292E+03  0.55838321931E+03  0.96190763635E+03  0.25000000000E+03 0.  0.
<mgrwt>
<rscale>  0 0.24451710E+04</rscale>
<asrwt>0</asrwt>
<pdfrwt beam="1">  1        2 0.13230356E+00 0.24451710E+04</pdfrwt>
<pdfrwt beam="2">  1       -2 0.26739928E+00 0.24451710E+04</pdfrwt>
<totfact> 0.14067611E+00</totfact>
</mgrwt>
</event>
<event>
 4    1  0.1720876E-005  0.7646557E+03  0.7818608E-02  0.9612634E-01
         -2   -1    0    0    0  501 -0.00000000000E+00  0.00000000000E+00  0.82798713846E+02  0.82798713885E+02  0.25500000000E-02 0. -1.
          2   -1    0    0  501    0  0.00000000000E+00 -0.00000000000E+00 -0.17654208327E+04  0.17654208327E+04  0.25500000000E-02 0.  1.
   -5000001    1    1    2    0    0 -0.10766795662E+03  0.75596468914E+02 -0.14639910548E+04  0.14909986665E+04  0.25000000000E+03 0.  0.
    5000001    1    1    2    0    0  0.10766795662E+03 -0.75596468914E+02 -0.21863106406E+03  0.35722088008E+03  0.25000000000E+03 0.  0.
<mgrwt>
<rscale>  0 0.76465567E+03</rscale>
<asrwt>0</asrwt>
<pdfrwt beam="1">  1        2 0.27160318E+00 0.76465567E+03</pdfrwt>
<pdfrwt beam="2">  1       -2 0.12738265E-01 0.76465567E+03</pdfrwt>
<totfact> 0.42276820E+02</totfact>
</mgrwt>
</event>
<event>
 4    1  0.1720876E-005  0.8388470E+03  0.7818608E-02  0.9505430E-01
         -2   -1    0    0    0  501 -0.00000000000E+00  0.00000000000E+00  0.18118527742E+03  0.18118527744E+03  0.25500000000E-02 0. -1.
          2   -1    0    0  501    0  0.00000000000E+00 -0.00000000000E+00 -0.97091820924E+03  0.97091820924E+03  0.25500000000E-02 0.  1.
   -5000001    1    1    2    0    0 -0.26377404706E+03  0.20887818634E+03 -0.41473343273E+03  0.58966996265E+03  0.25000000000E+03 0.  0.
    5000001    1    1    2    0    0  0.26377404706E+03 -0.20887818634E+03 -0.37499949909E+03  0.56243352402E+03  0.25000000000E+03 0.  0.
<mgrwt>
<rscale>  0 0.83884703E+03</rscale>
<asrwt>0</asrwt>
<pdfrwt beam="1">  1        2 0.14937203E+00 0.83884703E+03</pdfrwt>
<pdfrwt beam="2">  1       -2 0.27874659E-01 0.83884703E+03</pdfrwt>
<totfact> 0.31011804E+02</totfact>
</mgrwt>
</event>
<event>
 4    1  0.1720876E-005  0.7971000E+03  0.7818608E-02  0.9564224E-01
          2   -1    0    0  501    0  0.00000000000E+00  0.00000000000E+00  0.10423562100E+04  0.10423562100E+04  0.25500000000E-02 0.  1.
         -2   -1    0    0    0  501 -0.00000000000E+00 -0.00000000000E+00 -0.15238753906E+03  0.15238753908E+03  0.25500000000E-02 0. -1.
   -5000001    1    1    2    0    0  0.27465913394E+03 -0.12473601307E+03  0.33539924907E+03  0.51574157200E+03  0.25000000000E+03 0.  0.
    5000001    1    1    2    0    0 -0.27465913394E+03  0.12473601307E+03  0.55456942189E+03  0.67900217710E+03  0.25000000000E+03 0.  0.
<mgrwt>
<rscale>  0 0.79709999E+03</rscale>
<asrwt>0</asrwt>
<pdfrwt beam="1">  1        2 0.16036249E+00 0.79709999E+03</pdfrwt>
<pdfrwt beam="2">  1       -2 0.23444237E-01 0.79709999E+03</pdfrwt>
<totfact> 0.38285084E+02</totfact>
</mgrwt>
</event>
<event>
 4    1  0.1720876E-005  0.8208619E+03  0.7818608E-02  0.9530302E-01
         -2   -1    0    0    0  501 -0.00000000000E+00  0.00000000000E+00  0.76541171885E+02  0.76541171928E+02  0.25500000000E-02 0. -1.
          2   -1    0    0  501    0  0.00000000000E+00 -0.00000000000E+00 -0.22008226829E+04  0.22008226829E+04  0.25500000000E-02 0.  1.
   -5000001    1    1    2    0    0  0.31587770587E+03  0.29868546313E+02 -0.86049457504E+03  0.95059022128E+03  0.25000000000E+03 0.  0.
    5000001    1    1    2    0    0 -0.31587770587E+03 -0.29868546313E+02 -0.12637869359E+04  0.13267736335E+04  0.25000000000E+03 0.  0.
<mgrwt>
<rscale>  0 0.82086186E+03</rscale>
<asrwt>0</asrwt>
<pdfrwt beam="1">  1        2 0.33858806E+00 0.82086186E+03</pdfrwt>
<pdfrwt beam="2">  1       -2 0.11775567E-01 0.82086186E+03</pdfrwt>
<totfact> 0.27704695E+02</totfact>
</mgrwt>
</event>
<event>
 4    1  0.1720876E-005  0.6166812E+03  0.7818608E-02  0.9871390E-01
          2   -1    0    0  501    0  0.00000000000E+00  0.00000000000E+00  0.12938580308E+04  0.12938580308E+04  0.25500000000E-02 0.  1.
         -2   -1    0    0    0  501 -0.00000000000E+00 -0.00000000000E+00 -0.73480946825E+02  0.73480946870E+02  0.25500000000E-02 0. -1.
   -5000001    1    1    2    0    0  0.17895854431E+03  0.20930071032E+02  0.63340995343E+03  0.70439505787E+03  0.25000000000E+03 0.  0.
    5000001    1    1    2    0    0 -0.17895854431E+03 -0.20930071032E+02  0.58696713055E+03  0.66294391980E+03  0.25000000000E+03 0.  0.
<mgrwt>
<rscale>  0 0.61668116E+03</rscale>
<asrwt>0</asrwt>
<pdfrwt beam="1">  1        2 0.19905507E+00 0.61668116E+03</pdfrwt>
<pdfrwt beam="2">  1       -2 0.11304762E-01 0.61668116E+03</pdfrwt>
<totfact> 0.94868041E+02</totfact>
</mgrwt>
</event>
<event>
 4    1  0.1720876E-005  0.1206332E+04  0.7818608E-02  0.9107332E-01
         -2   -1    0    0    0  501 -0.00000000000E+00  0.00000000000E+00  0.16700311937E+03  0.16700311939E+03  0.25500000000E-02 0. -1.
          2   -1    0    0  501    0  0.00000000000E+00 -0.00000000000E+00 -0.21784568101E+04  0.21784568101E+04  0.25500000000E-02 0.  1.
   -5000001    1    1    2    0    0 -0.23414294369E+03 -0.49288048483E+03 -0.11216527749E+04  0.12721474120E+04  0.25000000000E+03 0.  0.
    5000001    1    1    2    0    0  0.23414294369E+03  0.49288048483E+03 -0.88980091581E+03  0.10733125175E+04  0.25000000000E+03 0.  0.
<mgrwt>
<rscale>  0 0.12063318E+04</rscale>
<asrwt>0</asrwt>
<pdfrwt beam="1">  1        2 0.33514718E+00 0.12063318E+04</pdfrwt>
<pdfrwt beam="2">  1       -2 0.25692789E-01 0.12063318E+04</pdfrwt>
<totfact> 0.71685928E+01</totfact>
</mgrwt>
</event>
<event>
 4    1  0.1720876E-005  0.9323232E+03  0.7818608E-02  0.9386054E-01
         -2   -1    0    0    0  501 -0.00000000000E+00  0.00000000000E+00  0.13995828241E+03  0.13995828243E+03  0.25500000000E-02 0. -1.
          2   -1    0    0  501    0  0.00000000000E+00 -0.00000000000E+00 -0.15526530453E+04  0.15526530453E+04  0.25500000000E-02 0.  1.
   -5000001    1    1    2    0    0 -0.27145817035E+03 -0.20492763059E+03 -0.34726008058E+03  0.54660263043E+03  0.25000000000E+03 0.  0.
    5000001    1    1    2    0    0  0.27145817035E+03  0.20492763059E+03 -0.10654346823E+04  0.11460086973E+04  0.25000000000E+03 0.  0.
<mgrwt>
<rscale>  0 0.93232323E+03</rscale>
<asrwt>0</asrwt>
<pdfrwt beam="1">  1        2 0.23886969E+00 0.93232323E+03</pdfrwt>
<pdfrwt beam="2">  1       -2 0.21532045E-01 0.93232323E+03</pdfrwt>
<totfact> 0.22271790E+02</totfact>
</mgrwt>
</event>
<event>
 4    1  0.1720876E-005  0.6106002E+03  0.7818608E-02  0.9883655E-01
         -2   -1    0    0    0  501 -0.00000000000E+00  0.00000000000E+00  0.31865230454E+03  0.31865230455E+03  0.25500000000E-02 0. -1.
          2   -1    0    0  501    0  0.00000000000E+00 -0.00000000000E+00 -0.29250734269E+03  0.29250734270E+03  0.25500000000E-02 0.  1.
   -5000001    1    1    2    0    0 -0.55241900232E+02  0.16612214076E+03  0.20819447623E+02  0.30591123319E+03  0.25000000000E+03 0.  0.
    5000001    1    1    2    0    0  0.55241900232E+02 -0.16612214076E+03  0.53255142309E+01  0.30524841407E+03  0.25000000000E+03 0.  0.
<mgrwt>
<rscale>  0 0.61060016E+03</rscale>
<asrwt>0</asrwt>
<pdfrwt beam="1">  1        2 0.45001130E-01 0.61060016E+03</pdfrwt>
<pdfrwt beam="2">  1       -2 0.49023431E-01 0.61060016E+03</pdfrwt>
<totfact> 0.44888294E+02</totfact>
</mgrwt>
</event>
<event>
 4    1  0.1720876E-005  0.7476734E+03  0.7818608E-02  0.9639008E-01
          2   -1    0    0  501    0  0.00000000000E+00  0.00000000000E+00  0.11233507029E+04  0.11233507029E+04  0.25500000000E-02 0.  1.
         -2   -1    0    0    0  501 -0.00000000000E+00 -0.00000000000E+00 -0.12440804063E+03  0.12440804065E+03  0.25500000000E-02 0. -1.
   -5000001    1    1    2    0    0  0.25267361008E+03  0.70853843934E+02  0.65233010424E+03  0.74625651443E+03  0.25000000000E+03 0.  0.
    5000001    1    1    2    0    0 -0.25267361008E+03 -0.70853843934E+02  0.34661255803E+03  0.50150222912E+03  0.25000000000E+03 0.  0.
<mgrwt>
<rscale>  0 0.74767335E+03</rscale>
<asrwt>0</asrwt>
<pdfrwt beam="1">  1        2 0.17282319E+00 0.74767335E+03</pdfrwt>
<pdfrwt beam="2">  1       -2 0.19139698E-01 0.74767335E+03</pdfrwt>
<totfact> 0.48919675E+02</totfact>
</mgrwt>
</event>
<event>
 4    1  0.1720876E-005  0.8174767E+03  0.7818608E-02  0.9535059E-01
         -2   -1    0    0    0  501 -0.00000000000E+00  0.00000000000E+00  0.42345163830E+03  0.42345163831E+03  0.25500000000E-02 0. -1.
          2   -1    0    0  501    0  0.00000000000E+00 -0.00000000000E+00 -0.39453626817E+03  0.39453626818E+03  0.25500000000E-02 0.  1.
   -5000001    1    1    2    0    0 -0.18120727845E+03 -0.26557858551E+03  0.49105431943E+02  0.41021872982E+03  0.25000000000E+03 0.  0.
    5000001    1    1    2    0    0  0.18120727845E+03  0.26557858551E+03 -0.20190061810E+02  0.40776917667E+03  0.25000000000E+03 0.  0.
<mgrwt>
<rscale>  0 0.81747668E+03</rscale>
<asrwt>0</asrwt>
<pdfrwt beam="1">  1        2 0.60697888E-01 0.81747668E+03</pdfrwt>
<pdfrwt beam="2">  1       -2 0.65146406E-01 0.81747668E+03</pdfrwt>
<totfact> 0.17672852E+02</totfact>
</mgrwt>
</event>
<event>
 4    1  0.1720876E-005  0.1444182E+04  0.7818608E-02  0.8922444E-01
         -2   -1    0    0    0  501 -0.00000000000E+00  0.00000000000E+00  0.54921395557E+03  0.54921395557E+03  0.25500000000E-02 0. -1.
          2   -1    0    0  501    0  0.00000000000E+00 -0.00000000000E+00 -0.94938487371E+03  0.94938487372E+03  0.25500000000E-02 0.  1.
   -5000001    1    1    2    0    0 -0.56898618857E+03  0.30671483621E+03 -0.41044587330E+03  0.80547196627E+03  0.25000000000E+03 0.  0.
    5000001    1    1    2    0    0  0.56898618857E+03 -0.30671483621E+03  0.10274955156E+02  0.69312686302E+03  0.25000000000E+03 0.  0.
<mgrwt>
<rscale>  0 0.14441820E+04</rscale>
<asrwt>0</asrwt>
<pdfrwt beam="1">  1        2 0.14605921E+00 0.14441820E+04</pdfrwt>
<pdfrwt beam="2">  1       -2 0.84494454E-01 0.14441820E+04</pdfrwt>
<totfact> 0.32211403E+01</totfact>
</mgrwt>
</event>
<event>
 4    1  0.1720876E-005  0.1891095E+04  0.7818608E-02  0.8659301E-01
          2   -1    0    0  501    0  0.00000000000E+00  0.00000000000E+00  0.31490464857E+03  0.31490464858E+03  0.25500000000E-02 0.  1.
         -2   -1    0    0    0  501 -0.00000000000E+00 -0.00000000000E+00 -0.28391467945E+04  0.28391467945E+04  0.25500000000E-02 0. -1.
   -5000001    1    1    2    0    0 -0.45941683452E+03 -0.65374367835E+03 -0.52918797872E+03  0.99044663745E+03  0.25000000000E+03 0.  0.
    5000001    1    1    2    0    0  0.45941683452E+03  0.65374367835E+03 -0.19950541672E+04  0.21636048056E+04  0.25000000000E+03 0.  0.
<mgrwt>
<rscale>  0 0.18910955E+04</rscale>
<asrwt>0</asrwt>
<pdfrwt beam="1">  1        2 0.48446871E-01 0.18910955E+04</pdfrwt>
<pdfrwt beam="2">  1       -2 0.43679180E+00 0.18910955E+04</pdfrwt>
<totfact> 0.41510835E-01</totfact>
</mgrwt>
</event>
<event>
 4    1  0.1720876E-005  0.1019257E+04  0.7818608E-02  0.9287673E-01
          2   -1    0    0  501    0  0.00000000000E+00  0.00000000000E+00  0.18209183226E+04  0.18209183226E+04  0.25500000000E-02 0.  1.
         -2   -1    0    0    0  501 -0.00000000000E+00 -0.00000000000E+00 -0.14263201481E+03  0.14263201484E+03  0.25500000000E-02 0. -1.
   -5000001    1    1    2    0    0 -0.19340282166E+03  0.21429699714E+03  0.18900212966E+03  0.42608644595E+03  0.25000000000E+03 0.  0.
    5000001    1    1    2    0    0  0.19340282166E+03 -0.21429699714E+03  0.14892841782E+04  0.15374638915E+04  0.25000000000E+03 0.  0.
<mgrwt>
<rscale>  0 0.10192571E+04</rscale>
<asrwt>0</asrwt>
<pdfrwt beam="1">  1        2 0.28014127E+00 0.10192571E+04</pdfrwt>
<pdfrwt beam="2">  1       -2 0.21943388E-01 0.10192571E+04</pdfrwt>
<totfact> 0.15218862E+02</totfact>
</mgrwt>
</event>
<event>
 4    1  0.1720876E-005  0.6033794E+03  0.7818608E-02  0.9898420E-01
          2   -1    0    0  501    0  0.00000000000E+00  0.00000000000E+00  0.17326140691E+04  0.17326140691E+04  0.25500000000E-02 0.  1.
         -2   -1    0    0    0  501 -0.00000000000E+00 -0.00000000000E+00 -0.52531423621E+02  0.52531423683E+02  0.25500000000E-02 0. -1.
   -5000001    1    1    2    0    0 -0.16685153533E+03  0.62595274797E+01  0.91477499402E+03  0.96290804660E+03  0.25000000000E+03 0.  0.
    5000001    1    1    2    0    0  0.16685153533E+03 -0.62595274797E+01  0.76530765148E+03  0.82223744620E+03  0.25000000000E+03 0.  0.
<mgrwt>
<rscale>  0 0.60337943E+03</rscale>
<asrwt>0</asrwt>
<pdfrwt beam="1">  1        2 0.26655601E+00 0.60337943E+03</pdfrwt>
<pdfrwt beam="2">  1       -2 0.80817576E-02 0.60337943E+03</pdfrwt>
<totfact> 0.93319096E+02</totfact>
</mgrwt>
</event>
<event>
 4    1  0.1720876E-005  0.5371564E+03  0.7818608E-02  0.1004511E+00
          2   -1    0    0  501    0  0.00000000000E+00  0.00000000000E+00  0.37355058842E+03  0.37355058843E+03  0.25500000000E-02 0.  1.
         -2   -1    0    0    0  501 -0.00000000000E+00 -0.00000000000E+00 -0.19310435530E+03  0.19310435531E+03  0.25500000000E-02 0. -1.
   -5000001    1    1    2    0    0  0.23786321795E+02  0.91018094236E+02  0.60682394609E+02  0.27392049138E+03  0.25000000000E+03 0.  0.
    5000001    1    1    2    0    0 -0.23786321795E+02 -0.91018094236E+02  0.11976383851E+03  0.29273445236E+03  0.25000000000E+03 0.  0.
<mgrwt>
<rscale>  0 0.53715639E+03</rscale>
<asrwt>0</asrwt>
<pdfrwt beam="1">  1        2 0.57469321E-01 0.53715639E+03</pdfrwt>
<pdfrwt beam="2">  1       -2 0.29708363E-01 0.53715639E+03</pdfrwt>
<totfact> 0.89962616E+02</totfact>
</mgrwt>
</event>
<event>
 4    1  0.1720876E-005  0.8540933E+03  0.7818608E-02  0.9484859E-01
         -2   -1    0    0    0  501 -0.00000000000E+00  0.00000000000E+00  0.45491986662E+03  0.45491986662E+03  0.25500000000E-02 0. -1.
          2   -1    0    0  501    0  0.00000000000E+00 -0.00000000000E+00 -0.40088128834E+03  0.40088128835E+03  0.25500000000E-02 0.  1.
   -5000001    1    1    2    0    0 -0.29344579104E+03 -0.13687809162E+03 -0.95793397203E+02  0.42014571185E+03  0.25000000000E+03 0.  0.
    5000001    1    1    2    0    0  0.29344579104E+03  0.13687809162E+03  0.14983197548E+03  0.43565544312E+03  0.25000000000E+03 0.  0.
<mgrwt>
<rscale>  0 0.85409335E+03</rscale>
<asrwt>0</asrwt>
<pdfrwt beam="1">  1        2 0.61674044E-01 0.85409335E+03</pdfrwt>
<pdfrwt beam="2">  1       -2 0.69987672E-01 0.85409335E+03</pdfrwt>
<totfact> 0.14838216E+02</totfact>
</mgrwt>
</event>
<event>
 4    1  0.1720876E-005  0.6388146E+03  0.7818608E-02  0.9827997E-01
         -2   -1    0    0    0  501 -0.00000000000E+00  0.00000000000E+00  0.16336456963E+03  0.16336456965E+03  0.25500000000E-02 0. -1.
          2   -1    0    0  501    0  0.00000000000E+00 -0.00000000000E+00 -0.62449916239E+03  0.62449916240E+03  0.25500000000E-02 0.  1.
   -5000001    1    1    2    0    0 -0.27215516429E+02  0.19202315692E+03 -0.28443195869E+03  0.42545871275E+03  0.25000000000E+03 0.  0.
    5000001    1    1    2    0    0  0.27215516429E+02 -0.19202315692E+03 -0.17670263407E+03  0.36240501930E+03  0.25000000000E+03 0.  0.
<mgrwt>
<rscale>  0 0.63881464E+03</rscale>
<asrwt>0</asrwt>
<pdfrwt beam="1">  1        2 0.96076793E-01 0.63881464E+03</pdfrwt>
<pdfrwt beam="2">  1       -2 0.25133011E-01 0.63881464E+03</pdfrwt>
<totfact> 0.67431679E+02</totfact>
</mgrwt>
</event>
<event>
 4    1  0.1720876E-005  0.1134319E+04  0.7818608E-02  0.9172373E-01
          2   -1    0    0  501    0  0.00000000000E+00  0.00000000000E+00  0.13339266474E+04  0.13339266474E+04  0.25500000000E-02 0.  1.
         -2   -1    0    0    0  501 -0.00000000000E+00 -0.00000000000E+00 -0.24114510726E+03  0.24114510727E+03  0.25500000000E-02 0. -1.
   -5000001    1    1    2    0    0  0.28822493074E+03  0.31788314548E+03  0.92678208963E+03  0.10514505916E+04  0.25000000000E+03 0.  0.
    5000001    1    1    2    0    0 -0.28822493074E+03 -0.31788314548E+03  0.16599945053E+03  0.52362116311E+03  0.25000000000E+03 0.  0.
<mgrwt>
<rscale>  0 0.11343190E+04</rscale>
<asrwt>0</asrwt>
<pdfrwt beam="1">  1        2 0.20521948E+00 0.11343190E+04</pdfrwt>
<pdfrwt beam="2">  1       -2 0.37099248E-01 0.11343190E+04</pdfrwt>
<totfact> 0.10709871E+02</totfact>
</mgrwt>
</event>
<event>
 4    1  0.1720876E-005  0.8404664E+03  0.7818608E-02  0.9503223E-01
          2   -1    0    0  501    0  0.00000000000E+00  0.00000000000E+00  0.17164667002E+04  0.17164667002E+04  0.25500000000E-02 0.  1.
         -2   -1    0    0    0  501 -0.00000000000E+00 -0.00000000000E+00 -0.10288341153E+03  0.10288341156E+03  0.25500000000E-02 0. -1.
   -5000001    1    1    2    0    0 -0.26403924066E+03 -0.13082896875E+03  0.44936837752E+03  0.59267603156E+03  0.25000000000E+03 0.  0.
    5000001    1    1    2    0    0  0.26403924066E+03  0.13082896875E+03  0.11642149111E+04  0.12266740802E+04  0.25000000000E+03 0.  0.
<mgrwt>
<rscale>  0 0.84046642E+03</rscale>
<asrwt>0</asrwt>
<pdfrwt beam="1">  1        2 0.26407181E+00 0.84046642E+03</pdfrwt>
<pdfrwt beam="2">  1       -2 0.15828217E-01 0.84046642E+03</pdfrwt>
<totfact> 0.31040755E+02</totfact>
</mgrwt>
</event>
<event>
 4    1  0.1720876E-005  0.9051168E+03  0.7818608E-02  0.9419208E-01
         -2   -1    0    0    0  501 -0.00000000000E+00  0.00000000000E+00  0.12043451111E+04  0.12043451111E+04  0.25500000000E-02 0. -1.
          2   -1    0    0  501    0  0.00000000000E+00 -0.00000000000E+00 -0.17005847406E+03  0.17005847408E+03  0.25500000000E-02 0.  1.
   -5000001    1    1    2    0    0 -0.15091978454E+03  0.28379318869E+03  0.81699541817E+03  0.91285095642E+03  0.25000000000E+03 0.  0.
    5000001    1    1    2    0    0  0.15091978454E+03 -0.28379318869E+03  0.21729121885E+03  0.46155262875E+03  0.25000000000E+03 0.  0.
<mgrwt>
<rscale>  0 0.90511677E+03</rscale>
<asrwt>0</asrwt>
<pdfrwt beam="1">  1        2 0.26162843E-01 0.90511677E+03</pdfrwt>
<pdfrwt beam="2">  1       -2 0.18528386E+00 0.90511677E+03</pdfrwt>
<totfact> 0.34872997E+01</totfact>
</mgrwt>
</event>
<event>
 4    1  0.1720876E-005  0.1434619E+04  0.7818608E-02  0.8929134E-01
         -2   -1    0    0    0  501 -0.00000000000E+00  0.00000000000E+00  0.23079658153E+04  0.23079658153E+04  0.25500000000E-02 0. -1.
          2   -1    0    0  501    0  0.00000000000E+00 -0.00000000000E+00 -0.22293775265E+03  0.22293775267E+03  0.25500000000E-02 0.  1.
   -5000001    1    1    2    0    0 -0.59294733843E+03 -0.13679780348E+03  0.15468693093E+04  0.16809535524E+04  0.25000000000E+03 0.  0.
    5000001    1    1    2    0    0  0.59294733843E+03  0.13679780348E+03  0.53815875332E+03  0.84995001557E+03  0.25000000000E+03 0.  0.
<mgrwt>
<rscale>  0 0.14346187E+04</rscale>
<asrwt>0</asrwt>
<pdfrwt beam="1">  1        2 0.34298117E-01 0.14346187E+04</pdfrwt>
<pdfrwt beam="2">  1       -2 0.35507165E+00 0.14346187E+04</pdfrwt>
<totfact> 0.21664228E+00</totfact>
</mgrwt>
</event>
<event>
 4    1  0.1720876E-005  0.6429886E+03  0.7818608E-02  0.9820025E-01
          2   -1    0    0  501    0  0.00000000000E+00  0.00000000000E+00  0.56115462204E+03  0.56115462205E+03  0.25500000000E-02 0.  1.
         -2   -1    0    0    0  501 -0.00000000000E+00 -0.00000000000E+00 -0.18418913134E+03  0.18418913136E+03  0.25500000000E-02 0. -1.
   -5000001    1    1    2    0    0 -0.11820606301E+02 -0.19957856669E+03  0.15395432664E+03  0.35520876356E+03  0.25000000000E+03 0.  0.
    5000001    1    1    2    0    0  0.11820606301E+02  0.19957856669E+03  0.22301116406E+03  0.39013498985E+03  0.25000000000E+03 0.  0.
<mgrwt>
<rscale>  0 0.64298859E+03</rscale>
<asrwt>0</asrwt>
<pdfrwt beam="1">  1        2 0.86331480E-01 0.64298859E+03</pdfrwt>
<pdfrwt beam="2">  1       -2 0.28336790E-01 0.64298859E+03</pdfrwt>
<totfact> 0.61626971E+02</totfact>
</mgrwt>
</event>
<event>
 4    1  0.1720876E-005  0.8055950E+03  0.7818608E-02  0.9551954E-01
         -2   -1    0    0    0  501 -0.00000000000E+00  0.00000000000E+00  0.10129664234E+04  0.10129664234E+04  0.25500000000E-02 0. -1.
          2   -1    0    0  501    0  0.00000000000E+00 -0.00000000000E+00 -0.16016898978E+03  0.16016898980E+03  0.25500000000E-02 0.  1.
   -5000001    1    1    2    0    0 -0.30712965792E+03 -0.59573259438E+02  0.48934123326E+03  0.63232305239E+03  0.25000000000E+03 0.  0.
    5000001    1    1    2    0    0  0.30712965792E+03  0.59573259438E+02  0.36345620035E+03  0.54081236080E+03  0.25000000000E+03 0.  0.
<mgrwt>
<rscale>  0 0.80559496E+03</rscale>
<asrwt>0</asrwt>
<pdfrwt beam="1">  1        2 0.24641383E-01 0.80559496E+03</pdfrwt>
<pdfrwt beam="2">  1       -2 0.15584099E+00 0.80559496E+03</pdfrwt>
<totfact> 0.60800400E+01</totfact>
</mgrwt>
</event>
<event>
 4    1  0.1720876E-005  0.7516542E+03  0.7818608E-02  0.9632759E-01
         -2   -1    0    0    0  501 -0.00000000000E+00  0.00000000000E+00  0.16823237435E+03  0.16823237437E+03  0.25500000000E-02 0. -1.
          2   -1    0    0  501    0  0.00000000000E+00 -0.00000000000E+00 -0.83958882661E+03  0.83958882661E+03  0.25500000000E-02 0.  1.
   -5000001    1    1    2    0    0 -0.24780844477E+02 -0.19854626701E+03 -0.59948401664E+03  0.67964387484E+03  0.25000000000E+03 0.  0.
    5000001    1    1    2    0    0  0.24780844477E+02  0.19854626701E+03 -0.71872435622E+02  0.32817732615E+03  0.25000000000E+03 0.  0.
<mgrwt>
<rscale>  0 0.75165423E+03</rscale>
<asrwt>0</asrwt>
<pdfrwt beam="1">  1        2 0.12916751E+00 0.75165423E+03</pdfrwt>
<pdfrwt beam="2">  1       -2 0.25881904E-01 0.75165423E+03</pdfrwt>
<totfact> 0.43675800E+02</totfact>
</mgrwt>
</event>
<event>
 4    1  0.1720876E-005  0.5525376E+03  0.7818608E-02  0.1000908E+00
          2   -1    0    0  501    0  0.00000000000E+00  0.00000000000E+00  0.12888761159E+04  0.12888761159E+04  0.25500000000E-02 0.  1.
         -2   -1    0    0    0  501 -0.00000000000E+00 -0.00000000000E+00 -0.59217826334E+02  0.59217826389E+02  0.25500000000E-02 0. -1.
   -5000001    1    1    2    0    0  0.81623436681E+02  0.15798599574E+02  0.41197929733E+03  0.48901832542E+03  0.25000000000E+03 0.  0.
    5000001    1    1    2    0    0 -0.81623436681E+02 -0.15798599574E+02  0.81767899221E+03  0.85907561685E+03  0.25000000000E+03 0.  0.
<mgrwt>
<rscale>  0 0.55253757E+03</rscale>
<asrwt>0</asrwt>
<pdfrwt beam="1">  1        2 0.19828863E+00 0.55253757E+03</pdfrwt>
<pdfrwt beam="2">  1       -2 0.91104349E-02 0.55253757E+03</pdfrwt>
<totfact> 0.13585233E+03</totfact>
</mgrwt>
</event>
<event>
 4    1  0.1720876E-005  0.6957165E+03  0.7818608E-02  0.9724586E-01
          2   -1    0    0  501    0  0.00000000000E+00  0.00000000000E+00  0.23560295036E+03  0.23560295038E+03  0.25500000000E-02 0.  1.
         -2   -1    0    0    0  501 -0.00000000000E+00 -0.00000000000E+00 -0.51359862348E+03  0.51359862348E+03  0.25500000000E-02 0. -1.
   -5000001    1    1    2    0    0  0.14514656011E+03  0.13273604623E+03  0.12604860651E+02  0.31834770989E+03  0.25000000000E+03 0.  0.
    5000001    1    1    2    0    0 -0.14514656011E+03 -0.13273604623E+03 -0.29060053376E+03  0.43085386398E+03  0.25000000000E+03 0.  0.
<mgrwt>
<rscale>  0 0.69571647E+03</rscale>
<asrwt>0</asrwt>
<pdfrwt beam="1">  1        2 0.36246608E-01 0.69571647E+03</pdfrwt>
<pdfrwt beam="2">  1       -2 0.79015173E-01 0.69571647E+03</pdfrwt>
<totfact> 0.20646333E+02</totfact>
</mgrwt>
</event>
<event>
 4    1  0.1720876E-005  0.9905294E+03  0.7818608E-02  0.9318993E-01
         -2   -1    0    0    0  501 -0.00000000000E+00  0.00000000000E+00  0.48505470452E+03  0.48505470452E+03  0.25500000000E-02 0. -1.
          2   -1    0    0  501    0  0.00000000000E+00 -0.00000000000E+00 -0.50568955707E+03  0.50568955707E+03  0.25500000000E-02 0.  1.
   -5000001    1    1    2    0    0  0.25298747314E+03 -0.32303612903E+03  0.10984229943E+03  0.49286948878E+03  0.25000000000E+03 0.  0.
    5000001    1    1    2    0    0 -0.25298747314E+03  0.32303612903E+03 -0.13047715198E+03  0.49787477282E+03  0.25000000000E+03 0.  0.
<mgrwt>
<rscale>  0 0.99052935E+03</rscale>
<asrwt>0</asrwt>
<pdfrwt beam="1">  1        2 0.77798394E-01 0.99052935E+03</pdfrwt>
<pdfrwt beam="2">  1       -2 0.74623800E-01 0.99052935E+03</pdfrwt>
<totfact> 0.98098516E+01</totfact>
</mgrwt>
</event>
<event>
 4    1  0.1720876E-005  0.7581716E+03  0.7818608E-02  0.9622617E-01
         -2   -1    0    0    0  501 -0.00000000000E+00  0.00000000000E+00  0.26485391418E+03  0.26485391419E+03  0.25500000000E-02 0.  1.
          2   -1    0    0  501    0  0.00000000000E+00 -0.00000000000E+00 -0.54258600846E+03  0.54258600847E+03  0.25500000000E-02 0. -1.
   -5000001    1    1    2    0    0  0.21348530483E+03 -0.10655672982E+03  0.27065420567E+02  0.34664513416E+03  0.25000000000E+03 0.  0.
    5000001    1    1    2    0    0 -0.21348530483E+03  0.10655672982E+03 -0.30479751485E+03  0.46079478850E+03  0.25000000000E+03 0.  0.
<mgrwt>
<rscale>  0 0.75817156E+03</rscale>
<asrwt>0</asrwt>
<pdfrwt beam="1">  1        2 0.83474770E-01 0.75817156E+03</pdfrwt>
<pdfrwt beam="2">  1       -2 0.40746756E-01 0.75817156E+03</pdfrwt>
<totfact> 0.32133963E+02</totfact>
</mgrwt>
</event>
<event>
 4    1  0.1720876E-005  0.1415413E+04  0.7818608E-02  0.8942737E-01
         -2   -1    0    0    0  501 -0.00000000000E+00  0.00000000000E+00  0.14593595033E+03  0.14593595035E+03  0.25500000000E-02 0. -1.
          2   -1    0    0  501    0  0.00000000000E+00 -0.00000000000E+00 -0.34319733862E+04  0.34319733862E+04  0.25500000000E-02 0.  1.
   -5000001    1    1    2    0    0  0.44421010590E+02  0.62264183020E+03 -0.22008155390E+04  0.23012485984E+04  0.25000000000E+03 0.  0.
    5000001    1    1    2    0    0 -0.44421010590E+02 -0.62264183020E+03 -0.10852218968E+04  0.12766607381E+04  0.25000000000E+03 0.  0.
<mgrwt>
<rscale>  0 0.14154127E+04</rscale>
<asrwt>0</asrwt>
<pdfrwt beam="1">  1        2 0.52799585E+00 0.14154127E+04</pdfrwt>
<pdfrwt beam="2">  1       -2 0.22451687E-01 0.14154127E+04</pdfrwt>
<totfact> 0.15584273E+01</totfact>
</mgrwt>
</event>
<event>
 4    1  0.1720876E-005  0.6849930E+03  0.7818608E-02  0.9743246E-01
          2   -1    0    0  501    0  0.00000000000E+00  0.00000000000E+00  0.61674212857E+03  0.61674212858E+03  0.25500000000E-02 0.  1.
         -2   -1    0    0    0  501 -0.00000000000E+00 -0.00000000000E+00 -0.19019918317E+03  0.19019918319E+03  0.25500000000E-02 0. -1.
   -5000001    1    1    2    0    0  0.20276062826E+03 -0.13943244610E+02  0.35013366703E+03  0.47581495482E+03  0.25000000000E+03 0.  0.
    5000001    1    1    2    0    0 -0.20276062826E+03  0.13943244610E+02  0.76409278374E+02  0.33112635694E+03  0.25000000000E+03 0.  0.
<mgrwt>
<rscale>  0 0.68499299E+03</rscale>
<asrwt>0</asrwt>
<pdfrwt beam="1">  1        2 0.94883403E-01 0.68499299E+03</pdfrwt>
<pdfrwt beam="2">  1       -2 0.29261413E-01 0.68499299E+03</pdfrwt>
<totfact> 0.51827031E+02</totfact>
</mgrwt>
</event>
<event>
 4    1  0.1720876E-005  0.7652942E+03  0.7818608E-02  0.9611657E-01
         -2   -1    0    0    0  501 -0.00000000000E+00  0.00000000000E+00  0.21289240915E+03  0.21289240916E+03  0.25500000000E-02 0. -1.
          2   -1    0    0  501    0  0.00000000000E+00 -0.00000000000E+00 -0.68775959561E+03  0.68775959562E+03  0.25500000000E-02 0.  1.
   -5000001    1    1    2    0    0  0.12180775641E+03  0.59859333964E+02  0.63759061451E+02  0.29152270461E+03  0.25000000000E+03 0.  0.
    5000001    1    1    2    0    0 -0.12180775641E+03 -0.59859333964E+02 -0.53862624791E+03  0.60912930017E+03  0.25000000000E+03 0.  0.
<mgrwt>
<rscale>  0 0.76529418E+03</rscale>
<asrwt>0</asrwt>
<pdfrwt beam="1">  1        2 0.10580917E+00 0.76529418E+03</pdfrwt>
<pdfrwt beam="2">  1       -2 0.32752679E-01 0.76529418E+03</pdfrwt>
<totfact> 0.36626632E+02</totfact>
</mgrwt>
</event>
<event>
 4    1  0.1720876E-005  0.9417601E+03  0.7818608E-02  0.9374834E-01
         -2   -1    0    0    0  501 -0.00000000000E+00  0.00000000000E+00  0.22884974031E+03  0.22884974032E+03  0.25500000000E-02 0. -1.
          2   -1    0    0  501    0  0.00000000000E+00 -0.00000000000E+00 -0.96888046527E+03  0.96888046527E+03  0.25500000000E-02 0.  1.
   -5000001    1    1    2    0    0  0.16966975655E+03 -0.29374796016E+03 -0.63725176629E+03  0.76398004164E+03  0.25000000000E+03 0.  0.
    5000001    1    1    2    0    0 -0.16966975655E+03  0.29374796016E+03 -0.10277895867E+03  0.43375016395E+03  0.25000000000E+03 0.  0.
<mgrwt>
<rscale>  0 0.94176015E+03</rscale>
<asrwt>0</asrwt>
<pdfrwt beam="1">  1        2 0.14905853E+00 0.94176015E+03</pdfrwt>
<pdfrwt beam="2">  1       -2 0.35207653E-01 0.94176015E+03</pdfrwt>
<totfact> 0.19983371E+02</totfact>
</mgrwt>
</event>
<event>
 4    1  0.1720876E-005  0.7739071E+03  0.7818608E-02  0.9598573E-01
         -2   -1    0    0    0  501 -0.00000000000E+00  0.00000000000E+00  0.53692799293E+02  0.53692799354E+02  0.25500000000E-02 0. -1.
          2   -1    0    0  501    0  0.00000000000E+00 -0.00000000000E+00 -0.27886990584E+04  0.27886990584E+04  0.25500000000E-02 0.  1.
   -5000001    1    1    2    0    0  0.20263365912E+03  0.16620507765E+03 -0.18677102499E+04  0.19025052182E+04  0.25000000000E+03 0.  0.
    5000001    1    1    2    0    0 -0.20263365912E+03 -0.16620507765E+03 -0.86729600914E+03  0.93988663950E+03  0.25000000000E+03 0.  0.
<mgrwt>
<rscale>  0 0.77390712E+03</rscale>
<asrwt>0</asrwt>
<pdfrwt beam="1">  1        2 0.42903051E+00 0.77390712E+03</pdfrwt>
<pdfrwt beam="2">  1       -2 0.82604328E-02 0.77390712E+03</pdfrwt>
<totfact> 0.22945745E+02</totfact>
</mgrwt>
</event>
<event>
 4    1  0.1720876E-005  0.1122709E+04  0.7818608E-02  0.9183336E-01
         -2   -1    0    0    0  501 -0.00000000000E+00  0.00000000000E+00  0.19159846043E+03  0.19159846045E+03  0.25500000000E-02 0. -1.
          2   -1    0    0  501    0  0.00000000000E+00 -0.00000000000E+00 -0.16446838847E+04  0.16446838847E+04  0.25500000000E-02 0.  1.
   -5000001    1    1    2    0    0  0.39408405592E+03 -0.14537570968E+03 -0.27510273156E+03  0.56090806110E+03  0.25000000000E+03 0.  0.
    5000001    1    1    2    0    0 -0.39408405592E+03  0.14537570968E+03 -0.11779826927E+04  0.12753742841E+04  0.25000000000E+03 0.  0.
<mgrwt>
<rscale>  0 0.11227090E+04</rscale>
<asrwt>0</asrwt>
<pdfrwt beam="1">  1        2 0.25302828E+00 0.11227090E+04</pdfrwt>
<pdfrwt beam="2">  1       -2 0.29476687E-01 0.11227090E+04</pdfrwt>
<totfact> 0.11058801E+02</totfact>
</mgrwt>
</event>
<event>
 4    1  0.1720876E-005  0.1029961E+04  0.7818608E-02  0.9276281E-01
          2   -1    0    0  501    0  0.00000000000E+00  0.00000000000E+00  0.14489046722E+04  0.14489046722E+04  0.25500000000E-02 0.  1.
         -2   -1    0    0    0  501 -0.00000000000E+00 -0.00000000000E+00 -0.18303811602E+03  0.18303811604E+03  0.25500000000E-02 0. -1.
   -5000001    1    1    2    0    0  0.58682853461E+02  0.42372475666E+03  0.85542839210E+03  0.98855656425E+03  0.25000000000E+03 0.  0.
    5000001    1    1    2    0    0 -0.58682853461E+02 -0.42372475666E+03  0.41043816406E+03  0.64338622399E+03  0.25000000000E+03 0.  0.
<mgrwt>
<rscale>  0 0.10299607E+04</rscale>
<asrwt>0</asrwt>
<pdfrwt beam="1">  1        2 0.22290840E+00 0.10299607E+04</pdfrwt>
<pdfrwt beam="2">  1       -2 0.28159711E-01 0.10299607E+04</pdfrwt>
<totfact> 0.15586712E+02</totfact>
</mgrwt>
</event>
<event>
 4    1  0.1720876E-005  0.7889135E+03  0.7818608E-02  0.9576204E-01
         -2   -1    0    0    0  501 -0.00000000000E+00  0.00000000000E+00  0.18213535223E+03  0.18213535225E+03  0.25500000000E-02 0. -1.
          2   -1    0    0  501    0  0.00000000000E+00 -0.00000000000E+00 -0.85428840950E+03  0.85428840950E+03  0.25500000000E-02 0.  1.
   -5000001    1    1    2    0    0 -0.30222288411E+03 -0.29289025293E+01 -0.39101629103E+03  0.55384202621E+03  0.25000000000E+03 0.  0.
    5000001    1    1    2    0    0  0.30222288411E+03  0.29289025293E+01 -0.28113676623E+03  0.48258173554E+03  0.25000000000E+03 0.  0.
<mgrwt>
<rscale>  0 0.78891348E+03</rscale>
<asrwt>0</asrwt>
<pdfrwt beam="1">  1        2 0.13142898E+00 0.78891348E+03</pdfrwt>
<pdfrwt beam="2">  1       -2 0.28020824E-01 0.78891348E+03</pdfrwt>
<totfact> 0.36850030E+02</totfact>
</mgrwt>
</event>
<event>
 4    1  0.1720876E-005  0.7074464E+03  0.7818608E-02  0.9704582E-01
         -2   -1    0    0    0  501 -0.00000000000E+00  0.00000000000E+00  0.12423380772E+03  0.12423380774E+03  0.25500000000E-02 0. -1.
          2   -1    0    0  501    0  0.00000000000E+00 -0.00000000000E+00 -0.10071341782E+04  0.10071341782E+04  0.25500000000E-02 0.  1.
   -5000001    1    1    2    0    0 -0.24349045320E+03 -0.39108701173E+02 -0.50935661603E+03  0.61867701880E+03  0.25000000000E+03 0.  0.
    5000001    1    1    2    0    0  0.24349045320E+03  0.39108701173E+02 -0.37354375450E+03  0.51269096718E+03  0.25000000000E+03 0.  0.
<mgrwt>
<rscale>  0 0.70744643E+03</rscale>
<asrwt>0</asrwt>
<pdfrwt beam="1">  1        2 0.15494371E+00 0.70744643E+03</pdfrwt>
<pdfrwt beam="2">  1       -2 0.19112894E-01 0.70744643E+03</pdfrwt>
<totfact> 0.57983587E+02</totfact>
</mgrwt>
</event>
<event>
 4    1  0.1720876E-005  0.1124609E+04  0.7818608E-02  0.9181532E-01
          2   -1    0    0  501    0  0.00000000000E+00  0.00000000000E+00  0.18193463061E+04  0.18193463061E+04  0.25500000000E-02 0.  1.
         -2   -1    0    0    0  501 -0.00000000000E+00 -0.00000000000E+00 -0.17379129132E+03  0.17379129134E+03  0.25500000000E-02 0. -1.
   -5000001    1    1    2    0    0 -0.36252908285E+03 -0.18664187474E+03  0.13468012650E+04  0.14292082328E+04  0.25000000000E+03 0.  0.
    5000001    1    1    2    0    0  0.36252908285E+03  0.18664187474E+03  0.29875374983E+03  0.56392936468E+03  0.25000000000E+03 0.  0.
<mgrwt>
<rscale>  0 0.11246093E+04</rscale>
<asrwt>0</asrwt>
<pdfrwt beam="1">  1        2 0.27989943E+00 0.11246093E+04</pdfrwt>
<pdfrwt beam="2">  1       -2 0.26737122E-01 0.11246093E+04</pdfrwt>
<totfact> 0.10597510E+02</totfact>
</mgrwt>
</event>
<event>
 4    1  0.1720876E-005  0.6154017E+03  0.7818608E-02  0.9873958E-01
          2   -1    0    0  501    0  0.00000000000E+00  0.00000000000E+00  0.50157059210E+03  0.50157059210E+03  0.25500000000E-02 0.  1.
         -2   -1    0    0    0  501 -0.00000000000E+00 -0.00000000000E+00 -0.18876665268E+03  0.18876665269E+03  0.25500000000E-02 0. -1.
   -5000001    1    1    2    0    0  0.10700060834E+03  0.13152841388E+03  0.90695262787E+02  0.31539575859E+03  0.25000000000E+03 0.  0.
    5000001    1    1    2    0    0 -0.10700060834E+03 -0.13152841388E+03  0.22210867663E+03  0.37494148621E+03  0.25000000000E+03 0.  0.
<mgrwt>
<rscale>  0 0.61540166E+03</rscale>
<asrwt>0</asrwt>
<pdfrwt beam="1">  1        2 0.77164705E-01 0.61540166E+03</pdfrwt>
<pdfrwt beam="2">  1       -2 0.29041024E-01 0.61540166E+03</pdfrwt>
<totfact> 0.67200639E+02</totfact>
</mgrwt>
</event>
<event>
 4    1  0.1720876E-005  0.5208077E+03  0.7818608E-02  0.1008486E+00
         -2   -1    0    0    0  501 -0.00000000000E+00  0.00000000000E+00  0.27977760386E+03  0.27977760387E+03  0.25500000000E-02 0. -1.
          2   -1    0    0  501    0  0.00000000000E+00 -0.00000000000E+00 -0.24237167878E+03  0.24237167879E+03  0.25500000000E-02 0.  1.
   -5000001    1    1    2    0    0  0.16689514972E+02  0.38652636023E+02 -0.40927987315E+02  0.25680277710E+03  0.25000000000E+03 0.  0.
    5000001    1    1    2    0    0 -0.16689514972E+02 -0.38652636023E+02  0.78333912394E+02  0.26534650556E+03  0.25000000000E+03 0.  0.
<mgrwt>
<rscale>  0 0.52080771E+03</rscale>
<asrwt>0</asrwt>
<pdfrwt beam="1">  1        2 0.37287951E-01 0.52080771E+03</pdfrwt>
<pdfrwt beam="2">  1       -2 0.43042708E-01 0.52080771E+03</pdfrwt>
<totfact> 0.71676938E+02</totfact>
</mgrwt>
</event>
<event>
 4    1  0.1720876E-005  0.6769092E+03  0.7818608E-02  0.9757556E-01
          2   -1    0    0  501    0  0.00000000000E+00  0.00000000000E+00  0.74112486654E+03  0.74112486654E+03  0.25500000000E-02 0.  1.
         -2   -1    0    0    0  501 -0.00000000000E+00 -0.00000000000E+00 -0.15456441017E+03  0.15456441019E+03  0.25500000000E-02 0. -1.
   -5000001    1    1    2    0    0  0.14232426653E+03  0.16166138927E+03  0.19372348422E+03  0.38264786679E+03  0.25000000000E+03 0.  0.
    5000001    1    1    2    0    0 -0.14232426653E+03 -0.16166138927E+03  0.39283697215E+03  0.51304140994E+03  0.25000000000E+03 0.  0.
<mgrwt>
<rscale>  0 0.67690923E+03</rscale>
<asrwt>0</asrwt>
<pdfrwt beam="1">  1        2 0.11401921E+00 0.67690923E+03</pdfrwt>
<pdfrwt beam="2">  1       -2 0.23779140E-01 0.67690923E+03</pdfrwt>
<totfact> 0.60101546E+02</totfact>
</mgrwt>
</event>
<event>
 4    1  0.1720876E-005  0.5432377E+03  0.7818608E-02  0.1003071E+00
         -2   -1    0    0    0  501 -0.00000000000E+00  0.00000000000E+00  0.10854496227E+03  0.10854496230E+03  0.25500000000E-02 0. -1.
          2   -1    0    0  501    0  0.00000000000E+00 -0.00000000000E+00 -0.67968873760E+03  0.67968873760E+03  0.25500000000E-02 0.  1.
   -5000001    1    1    2    0    0 -0.43346738971E+02 -0.26639158765E+02 -0.42081966315E+03  0.49211560985E+03  0.25000000000E+03 0.  0.
    5000001    1    1    2    0    0  0.43346738971E+02  0.26639158765E+02 -0.15032411217E+03  0.29611809006E+03  0.25000000000E+03 0.  0.
<mgrwt>
<rscale>  0 0.54323766E+03</rscale>
<asrwt>0</asrwt>
<pdfrwt beam="1">  1        2 0.10456750E+00 0.54323766E+03</pdfrwt>
<pdfrwt beam="2">  1       -2 0.16699225E-01 0.54323766E+03</pdfrwt>
<totfact> 0.12443594E+03</totfact>
</mgrwt>
</event>
<event>
 4    1  0.1720876E-005  0.1494859E+04  0.7818608E-02  0.8887879E-01
          2   -1    0    0  501    0  0.00000000000E+00  0.00000000000E+00  0.34033184106E+04  0.34033184106E+04  0.25500000000E-02 0.  1.
         -2   -1    0    0    0  501 -0.00000000000E+00 -0.00000000000E+00 -0.16414883900E+03  0.16414883902E+03  0.25500000000E-02 0. -1.
   -5000001    1    1    2    0    0 -0.24637670613E+02  0.69147975237E+03  0.13047894976E+04  0.14979075057E+04  0.25000000000E+03 0.  0.
    5000001    1    1    2    0    0  0.24637670613E+02 -0.69147975237E+03  0.19343800740E+04  0.20695597439E+04  0.25000000000E+03 0.  0.
<mgrwt>
<rscale>  0 0.14948589E+04</rscale>
<asrwt>0</asrwt>
<pdfrwt beam="1">  1        2 0.52358744E+00 0.14948589E+04</pdfrwt>
<pdfrwt beam="2">  1       -2 0.25253668E-01 0.14948589E+04</pdfrwt>
<totfact> 0.13078932E+01</totfact>
</mgrwt>
</event>
<event>
 4    1  0.1720876E-005  0.5274774E+03  0.7818608E-02  0.1006846E+00
          2   -1    0    0  501    0  0.00000000000E+00  0.00000000000E+00  0.22493207349E+04  0.22493207349E+04  0.25500000000E-02 0.  1.
         -2   -1    0    0    0  501 -0.00000000000E+00 -0.00000000000E+00 -0.30924047123E+02  0.30924047229E+02  0.25500000000E-02 0. -1.
   -5000001    1    1    2    0    0 -0.79008928104E+02  0.11872126556E+02  0.12214897766E+04  0.12493680932E+04  0.25000000000E+03 0.  0.
    5000001    1    1    2    0    0  0.79008928104E+02 -0.11872126556E+02  0.99690691117E+03  0.10308766889E+04  0.25000000000E+03 0.  0.
<mgrwt>
<rscale>  0 0.52747739E+03</rscale>
<asrwt>0</asrwt>
<pdfrwt beam="1">  1        2 0.34604942E+00 0.52747739E+03</pdfrwt>
<pdfrwt beam="2">  1       -2 0.47575447E-02 0.52747739E+03</pdfrwt>
<totfact> 0.11296677E+03</totfact>
</mgrwt>
</event>
<event>
 4    1  0.1720876E-005  0.7433202E+03  0.7818608E-02  0.9645889E-01
          2   -1    0    0  501    0  0.00000000000E+00  0.00000000000E+00  0.68975164596E+03  0.68975164597E+03  0.25500000000E-02 0.  1.
         -2   -1    0    0    0  501 -0.00000000000E+00 -0.00000000000E+00 -0.20026225342E+03  0.20026225343E+03  0.25500000000E-02 0. -1.
   -5000001    1    1    2    0    0 -0.12380014772E+03 -0.21464624632E+03  0.38758466254E+03  0.52356600183E+03  0.25000000000E+03 0.  0.
    5000001    1    1    2    0    0  0.12380014772E+03  0.21464624632E+03  0.10190473001E+03  0.36644789757E+03  0.25000000000E+03 0.  0.
<mgrwt>
<rscale>  0 0.74332017E+03</rscale>
<asrwt>0</asrwt>
<pdfrwt beam="1">  1        2 0.10611564E+00 0.74332017E+03</pdfrwt>
<pdfrwt beam="2">  1       -2 0.30809578E-01 0.74332017E+03</pdfrwt>
<totfact> 0.40955492E+02</totfact>
</mgrwt>
</event>
<event>
 4    1  0.1720876E-005  0.1012407E+04  0.7818608E-02  0.9295041E-01
         -2   -1    0    0    0  501 -0.00000000000E+00  0.00000000000E+00  0.13191990691E+03  0.13191990693E+03  0.25500000000E-02 0. -1.
          2   -1    0    0  501    0  0.00000000000E+00 -0.00000000000E+00 -0.19424056576E+04  0.19424056576E+04  0.25500000000E-02 0.  1.
   -5000001    1    1    2    0    0 -0.12794983758E+03  0.39408602063E+03 -0.60087862340E+03  0.77151155056E+03  0.25000000000E+03 0.  0.
    5000001    1    1    2    0    0  0.12794983758E+03 -0.39408602063E+03 -0.12096071273E+04  0.13028140140E+04  0.25000000000E+03 0.  0.
<mgrwt>
<rscale>  0 0.10124070E+04</rscale>
<asrwt>0</asrwt>
<pdfrwt beam="1">  1        2 0.29883162E+00 0.10124070E+04</pdfrwt>
<pdfrwt beam="2">  1       -2 0.20295372E-01 0.10124070E+04</pdfrwt>
<totfact> 0.14989485E+02</totfact>
</mgrwt>
</event>
<event>
 4    1  0.1720876E-005  0.1060795E+04  0.7818608E-02  0.9244269E-01
          2   -1    0    0  501    0  0.00000000000E+00  0.00000000000E+00  0.16702433305E+04  0.16702433305E+04  0.25500000000E-02 0.  1.
         -2   -1    0    0    0  501 -0.00000000000E+00 -0.00000000000E+00 -0.16843160872E+03  0.16843160874E+03  0.25500000000E-02 0. -1.
   -5000001    1    1    2    0    0  0.38684338557E+03 -0.23158965696E+03  0.53483233987E+03  0.74285072925E+03  0.25000000000E+03 0.  0.
    5000001    1    1    2    0    0 -0.38684338557E+03  0.23158965696E+03  0.96697938188E+03  0.10958242100E+04  0.25000000000E+03 0.  0.
<mgrwt>
<rscale>  0 0.10607955E+04</rscale>
<asrwt>0</asrwt>
<pdfrwt beam="1">  1        2 0.25696053E+00 0.10607955E+04</pdfrwt>
<pdfrwt beam="2">  1       -2 0.25912553E-01 0.10607955E+04</pdfrwt>
<totfact> 0.13624690E+02</totfact>
</mgrwt>
</event>
<event>
 4    1  0.1720876E-005  0.9120148E+03  0.7818608E-02  0.9410686E-01
          2   -1    0    0  501    0  0.00000000000E+00  0.00000000000E+00  0.18176546427E+04  0.18176546427E+04  0.25500000000E-02 0.  1.
         -2   -1    0    0    0  501 -0.00000000000E+00 -0.00000000000E+00 -0.11440167459E+03  0.11440167462E+03  0.25500000000E-02 0. -1.
   -5000001    1    1    2    0    0  0.27287460823E+03  0.16328546891E+02  0.14149727340E+04  0.14626602515E+04  0.25000000000E+03 0.  0.
    5000001    1    1    2    0    0 -0.27287460823E+03 -0.16328546891E+02  0.28828023409E+03  0.46939606584E+03  0.25000000000E+03 0.  0.
<mgrwt>
<rscale>  0 0.91201477E+03</rscale>
<asrwt>0</asrwt>
<pdfrwt beam="1">  1        2 0.27963917E+00 0.91201477E+03</pdfrwt>
<pdfrwt beam="2">  1       -2 0.17600258E-01 0.91201477E+03</pdfrwt>
<totfact> 0.22660939E+02</totfact>
</mgrwt>
</event>
<event>
 4    1  0.1720876E-005  0.6098126E+03  0.7818608E-02  0.9885255E-01
         -2   -1    0    0    0  501 -0.00000000000E+00  0.00000000000E+00  0.53094836226E+02  0.53094836287E+02  0.25500000000E-02 0. -1.
          2   -1    0    0  501    0  0.00000000000E+00 -0.00000000000E+00 -0.17509772261E+04  0.17509772261E+04  0.25500000000E-02 0.  1.
   -5000001    1    1    2    0    0 -0.15613765892E+03  0.57699833685E+02 -0.10043520433E+04  0.10482992255E+04  0.25000000000E+03 0.  0.
    5000001    1    1    2    0    0  0.15613765892E+03 -0.57699833685E+02 -0.69353034665E+03  0.75577283694E+03  0.25000000000E+03 0.  0.
<mgrwt>
<rscale>  0 0.60981259E+03</rscale>
<asrwt>0</asrwt>
<pdfrwt beam="1">  1        2 0.26938107E+00 0.60981259E+03</pdfrwt>
<pdfrwt beam="2">  1       -2 0.81684377E-02 0.60981259E+03</pdfrwt>
<totfact> 0.89631013E+02</totfact>
</mgrwt>
</event>
<event>
 4    1  0.1720876E-005  0.1040338E+04  0.7818608E-02  0.9265377E-01
         -2   -1    0    0    0  501 -0.00000000000E+00  0.00000000000E+00  0.20610073326E+03  0.20610073328E+03  0.25500000000E-02 0.  1.
          2   -1    0    0  501    0  0.00000000000E+00 -0.00000000000E+00 -0.13128329839E+04  0.13128329839E+04  0.25500000000E-02 0. -1.
   -5000001    1    1    2    0    0  0.26461452319E+03 -0.34427105708E+03 -0.75741889861E+03  0.90814469915E+03  0.25000000000E+03 0.  0.
    5000001    1    1    2    0    0 -0.26461452319E+03  0.34427105708E+03 -0.34931335201E+03  0.61078901801E+03  0.25000000000E+03 0.  0.
<mgrwt>
<rscale>  0 0.10403381E+04</rscale>
<asrwt>0</asrwt>
<pdfrwt beam="1">  1        2 0.20197430E+00 0.10403381E+04</pdfrwt>
<pdfrwt beam="2">  1       -2 0.31707806E-01 0.10403381E+04</pdfrwt>
<totfact> 0.14943682E+02</totfact>
</mgrwt>
</event>
<event>
 4    1  0.1720876E-005  0.9837018E+03  0.7818608E-02  0.9326603E-01
         -2   -1    0    0    0  501 -0.00000000000E+00  0.00000000000E+00  0.63268384557E+03  0.63268384558E+03  0.25500000000E-02 0. -1.
          2   -1    0    0  501    0  0.00000000000E+00 -0.00000000000E+00 -0.38236680606E+03  0.38236680606E+03  0.25500000000E-02 0.  1.
   -5000001    1    1    2    0    0  0.15861780970E+03  0.38932268543E+03  0.71684857077E+02  0.49433842829E+03  0.25000000000E+03 0.  0.
    5000001    1    1    2    0    0 -0.15861780970E+03 -0.38932268543E+03  0.17863218244E+03  0.52071222335E+03  0.25000000000E+03 0.  0.
<mgrwt>
<rscale>  0 0.98370179E+03</rscale>
<asrwt>0</asrwt>
<pdfrwt beam="1">  1        2 0.58825663E-01 0.98370179E+03</pdfrwt>
<pdfrwt beam="2">  1       -2 0.97335975E-01 0.98370179E+03</pdfrwt>
<totfact> 0.73626842E+01</totfact>
</mgrwt>
</event>
<event>
 4    1  0.1720876E-005  0.6004746E+03  0.7818608E-02  0.9904422E-01
          2   -1    0    0  501    0  0.00000000000E+00  0.00000000000E+00  0.29864547958E+04  0.29864547958E+04  0.25500000000E-02 0.  1.
         -2   -1    0    0    0  501 -0.00000000000E+00 -0.00000000000E+00 -0.30183762321E+02  0.30183762429E+02  0.25500000000E-02 0. -1.
   -5000001    1    1    2    0    0 -0.34217333709E+02  0.16197921760E+03  0.15550415156E+04  0.15836862720E+04  0.25000000000E+03 0.  0.
    5000001    1    1    2    0    0  0.34217333709E+02 -0.16197921760E+03  0.14012295179E+04  0.14329522863E+04  0.25000000000E+03 0.  0.
<mgrwt>
<rscale>  0 0.60047462E+03</rscale>
<asrwt>0</asrwt>
<pdfrwt beam="1">  1        2 0.45945479E+00 0.60047462E+03</pdfrwt>
<pdfrwt beam="2">  1       -2 0.46436537E-02 0.60047462E+03</pdfrwt>
<totfact> 0.44073398E+02</totfact>
</mgrwt>
</event>
<event>
 4    1  0.1720876E-005  0.7439892E+03  0.7818608E-02  0.9644828E-01
         -2   -1    0    0    0  501 -0.00000000000E+00  0.00000000000E+00  0.82357203999E+02  0.82357204038E+02  0.25500000000E-02 0. -1.
          2   -1    0    0  501    0  0.00000000000E+00 -0.00000000000E+00 -0.16802414548E+04  0.16802414548E+04  0.25500000000E-02 0.  1.
   -5000001    1    1    2    0    0 -0.99711077809E+02 -0.14182925721E+03 -0.13060782309E+04  0.13410436915E+04  0.25000000000E+03 0.  0.
    5000001    1    1    2    0    0  0.99711077809E+02  0.14182925721E+03 -0.29180601985E+03  0.42155496731E+03  0.25000000000E+03 0.  0.
<mgrwt>
<rscale>  0 0.74398922E+03</rscale>
<asrwt>0</asrwt>
<pdfrwt beam="1">  1        2 0.25849866E+00 0.74398922E+03</pdfrwt>
<pdfrwt beam="2">  1       -2 0.12670340E-01 0.74398922E+03</pdfrwt>
<totfact> 0.47545563E+02</totfact>
</mgrwt>
</event>
<event>
 4    1  0.1720876E-005  0.5755596E+03  0.7818608E-02  0.9957451E-01
          2   -1    0    0  501    0  0.00000000000E+00  0.00000000000E+00  0.16620246209E+04  0.16620246209E+04  0.25500000000E-02 0.  1.
         -2   -1    0    0    0  501 -0.00000000000E+00 -0.00000000000E+00 -0.49829108293E+02  0.49829108358E+02  0.25500000000E-02 0. -1.
   -5000001    1    1    2    0    0  0.11933835310E+03 -0.52523637996E+02  0.97739010605E+03  0.10172471649E+04  0.25000000000E+03 0.  0.
    5000001    1    1    2    0    0 -0.11933835310E+03  0.52523637996E+02  0.63480540652E+03  0.69460656433E+03  0.25000000000E+03 0.  0.
<mgrwt>
<rscale>  0 0.57555957E+03</rscale>
<asrwt>0</asrwt>
<pdfrwt beam="1">  1        2 0.25569612E+00 0.57555957E+03</pdfrwt>
<pdfrwt beam="2">  1       -2 0.76660160E-02 0.57555957E+03</pdfrwt>
<totfact> 0.11103388E+03</totfact>
</mgrwt>
</event>
<event>
 4    1  0.1720876E-005  0.9456010E+03  0.7818608E-02  0.9370307E-01
         -2   -1    0    0    0  501 -0.00000000000E+00  0.00000000000E+00  0.10168387375E+03  0.10168387378E+03  0.25500000000E-02 0. -1.
          2   -1    0    0  501    0  0.00000000000E+00 -0.00000000000E+00 -0.21983852377E+04  0.21983852377E+04  0.25500000000E-02 0.  1.
   -5000001    1    1    2    0    0  0.32522358331E+03  0.76952986660E+02 -0.50800890801E+03  0.65746877638E+03  0.25000000000E+03 0.  0.
    5000001    1    1    2    0    0 -0.32522358331E+03 -0.76952986660E+02 -0.15886924559E+04  0.16426003351E+04  0.25000000000E+03 0.  0.
<mgrwt>
<rscale>  0 0.94560103E+03</rscale>
<asrwt>0</asrwt>
<pdfrwt beam="1">  1        2 0.33821308E+00 0.94560103E+03</pdfrwt>
<pdfrwt beam="2">  1       -2 0.15643674E-01 0.94560103E+03</pdfrwt>
<totfact> 0.17081094E+02</totfact>
</mgrwt>
</event>
<event>
 4    1  0.1720876E-005  0.6582726E+03  0.7818608E-02  0.9791379E-01
         -2   -1    0    0    0  501 -0.00000000000E+00  0.00000000000E+00  0.10349151457E+03  0.10349151460E+03  0.25500000000E-02 0. -1.
          2   -1    0    0  501    0  0.00000000000E+00 -0.00000000000E+00 -0.10467593571E+04  0.10467593571E+04  0.25500000000E-02 0.  1.
   -5000001    1    1    2    0    0 -0.11389372446E+03  0.16145787651E+03 -0.61562340575E+03  0.69320459034E+03  0.25000000000E+03 0.  0.
    5000001    1    1    2    0    0  0.11389372446E+03 -0.16145787651E+03 -0.32764443678E+03  0.45704628137E+03  0.25000000000E+03 0.  0.
<mgrwt>
<rscale>  0 0.65827262E+03</rscale>
<asrwt>0</asrwt>
<pdfrwt beam="1">  1        2 0.16103989E+00 0.65827262E+03</pdfrwt>
<pdfrwt beam="2">  1       -2 0.15921772E-01 0.65827262E+03</pdfrwt>
<totfact> 0.75068871E+02</totfact>
</mgrwt>
</event>
<event>
 4    1  0.1720876E-005  0.5706045E+03  0.7818608E-02  0.9968342E-01
         -2   -1    0    0    0  501 -0.00000000000E+00  0.00000000000E+00  0.74585784705E+02  0.74585784748E+02  0.25500000000E-02 0. -1.
          2   -1    0    0  501    0  0.00000000000E+00 -0.00000000000E+00 -0.10913254173E+04  0.10913254173E+04  0.25500000000E-02 0.  1.
   -5000001    1    1    2    0    0  0.12486667833E+03  0.52905624986E+02 -0.55436294595E+03  0.62306417676E+03  0.25000000000E+03 0.  0.
    5000001    1    1    2    0    0 -0.12486667833E+03 -0.52905624986E+02 -0.46237668660E+03  0.54284702525E+03  0.25000000000E+03 0.  0.
<mgrwt>
<rscale>  0 0.57060446E+03</rscale>
<asrwt>0</asrwt>
<pdfrwt beam="1">  1        2 0.16789621E+00 0.57060446E+03</pdfrwt>
<pdfrwt beam="2">  1       -2 0.11474737E-01 0.57060446E+03</pdfrwt>
<totfact> 0.12202980E+03</totfact>
</mgrwt>
</event>
<event>
 4    1  0.1720876E-005  0.6199949E+03  0.7818608E-02  0.9864770E-01
          2   -1    0    0  501    0  0.00000000000E+00  0.00000000000E+00  0.13487593593E+03  0.13487593596E+03  0.25500000000E-02 0.  1.
         -2   -1    0    0    0  501 -0.00000000000E+00 -0.00000000000E+00 -0.71249485135E+03  0.71249485136E+03  0.25500000000E-02 0. -1.
   -5000001    1    1    2    0    0  0.39050974703E+02 -0.88161692963E+02 -0.50186703890E+03  0.56891826079E+03  0.25000000000E+03 0.  0.
    5000001    1    1    2    0    0 -0.39050974703E+02  0.88161692963E+02 -0.75751876524E+02  0.27845252653E+03  0.25000000000E+03 0.  0.
<mgrwt>
<rscale>  0 0.61999487E+03</rscale>
<asrwt>0</asrwt>
<pdfrwt beam="1">  1        2 0.20750144E-01 0.61999487E+03</pdfrwt>
<pdfrwt beam="2">  1       -2 0.10961459E+00 0.61999487E+03</pdfrwt>
<totfact> 0.18256563E+02</totfact>
</mgrwt>
</event>
<event>
 4    1  0.1720876E-005  0.1120834E+04  0.7818608E-02  0.9185121E-01
          2   -1    0    0  501    0  0.00000000000E+00  0.00000000000E+00  0.30935998583E+03  0.30935998584E+03  0.25500000000E-02 0.  1.
         -2   -1    0    0    0  501 -0.00000000000E+00 -0.00000000000E+00 -0.10152152526E+04  0.10152152527E+04  0.25500000000E-02 0. -1.
   -5000001    1    1    2    0    0 -0.45045911537E+03  0.16183803681E+03 -0.53004445968E+03  0.75667172143E+03  0.25000000000E+03 0.  0.
    5000001    1    1    2    0    0  0.45045911537E+03 -0.16183803681E+03 -0.17581080714E+03  0.56790351706E+03  0.25000000000E+03 0.  0.
<mgrwt>
<rscale>  0 0.11208336E+04</rscale>
<asrwt>0</asrwt>
<pdfrwt beam="1">  1        2 0.47593844E-01 0.11208336E+04</pdfrwt>
<pdfrwt beam="2">  1       -2 0.15618696E+00 0.11208336E+04</pdfrwt>
<totfact> 0.28259956E+01</totfact>
</mgrwt>
</event>
<event>
 4    1  0.1720876E-005  0.1037178E+04  0.7818608E-02  0.9268683E-01
          2   -1    0    0  501    0  0.00000000000E+00  0.00000000000E+00  0.50203423605E+03  0.50203423606E+03  0.25500000000E-02 0.  1.
         -2   -1    0    0    0  501 -0.00000000000E+00 -0.00000000000E+00 -0.53568918921E+03  0.53568918921E+03  0.25500000000E-02 0. -1.
   -5000001    1    1    2    0    0 -0.18961826662E+03 -0.38317841741E+03 -0.17070545202E+03  0.52385221003E+03  0.25000000000E+03 0.  0.
    5000001    1    1    2    0    0  0.18961826662E+03  0.38317841741E+03  0.13705049886E+03  0.51387121523E+03  0.25000000000E+03 0.  0.
<mgrwt>
<rscale>  0 0.10371775E+04</rscale>
<asrwt>0</asrwt>
<pdfrwt beam="1">  1        2 0.77236036E-01 0.10371775E+04</pdfrwt>
<pdfrwt beam="2">  1       -2 0.82413722E-01 0.10371775E+04</pdfrwt>
<totfact> 0.78987668E+01</totfact>
</mgrwt>
</event>
<event>
 4    1  0.1720876E-005  0.6538994E+03  0.7818608E-02  0.9799490E-01
         -2   -1    0    0    0  501 -0.00000000000E+00  0.00000000000E+00  0.52993355388E+02  0.52993355450E+02  0.25500000000E-02 0. -1.
          2   -1    0    0  501    0  0.00000000000E+00 -0.00000000000E+00 -0.20171606580E+04  0.20171606580E+04  0.25500000000E-02 0.  1.
   -5000001    1    1    2    0    0 -0.57443727102E+02  0.18257593879E+03 -0.12610093303E+04  0.12997223882E+04  0.25000000000E+03 0.  0.
    5000001    1    1    2    0    0  0.57443727102E+02 -0.18257593879E+03 -0.70315797231E+03  0.77043162528E+03  0.25000000000E+03 0.  0.
<mgrwt>
<rscale>  0 0.65389942E+03</rscale>
<asrwt>0</asrwt>
<pdfrwt beam="1">  1        2 0.31033235E+00 0.65389942E+03</pdfrwt>
<pdfrwt beam="2">  1       -2 0.81528255E-02 0.65389942E+03</pdfrwt>
<totfact> 0.64306439E+02</totfact>
</mgrwt>
</event>
<event>
 4    1  0.1720876E-005  0.1007316E+04  0.7818608E-02  0.9300557E-01
         -2   -1    0    0    0  501 -0.00000000000E+00  0.00000000000E+00  0.48281747845E+03  0.48281747845E+03  0.25500000000E-02 0. -1.
          2   -1    0    0  501    0  0.00000000000E+00 -0.00000000000E+00 -0.52539791852E+03  0.52539791853E+03  0.25500000000E-02 0.  1.
   -5000001    1    1    2    0    0  0.85222483720E+02  0.40290887200E+03 -0.16829843374E+03  0.51031636625E+03  0.25000000000E+03 0.  0.
    5000001    1    1    2    0    0 -0.85222483720E+02 -0.40290887200E+03  0.12571799367E+03  0.49789903073E+03  0.25000000000E+03 0.  0.
<mgrwt>
<rscale>  0 0.10073158E+04</rscale>
<asrwt>0</asrwt>
<pdfrwt beam="1">  1        2 0.80830449E-01 0.10073158E+04</pdfrwt>
<pdfrwt beam="2">  1       -2 0.74279612E-01 0.10073158E+04</pdfrwt>
<totfact> 0.94682751E+01</totfact>
</mgrwt>
</event>
<event>
 4    1  0.1720876E-005  0.7729375E+03  0.7818608E-02  0.9600037E-01
          2   -1    0    0  501    0  0.00000000000E+00  0.00000000000E+00  0.49526729691E+03  0.49526729692E+03  0.25500000000E-02 0.  1.
         -2   -1    0    0    0  501 -0.00000000000E+00 -0.00000000000E+00 -0.30157065381E+03  0.30157065382E+03  0.25500000000E-02 0. -1.
   -5000001    1    1    2    0    0 -0.66650014740E+02 -0.28138916028E+03  0.38203481035E+02  0.38416349377E+03  0.25000000000E+03 0.  0.
    5000001    1    1    2    0    0  0.66650014740E+02  0.28138916028E+03  0.15549316206E+03  0.41267445697E+03  0.25000000000E+03 0.  0.
<mgrwt>
<rscale>  0 0.77293747E+03</rscale>
<asrwt>0</asrwt>
<pdfrwt beam="1">  1        2 0.76194968E-01 0.77293747E+03</pdfrwt>
<pdfrwt beam="2">  1       -2 0.46395485E-01 0.77293747E+03</pdfrwt>
<totfact> 0.27630532E+02</totfact>
</mgrwt>
</event>
<event>
 4    1  0.1720876E-005  0.7676679E+03  0.7818608E-02  0.9608033E-01
          2   -1    0    0  501    0  0.00000000000E+00  0.00000000000E+00  0.11887423443E+04  0.11887423443E+04  0.25500000000E-02 0.  1.
         -2   -1    0    0    0  501 -0.00000000000E+00 -0.00000000000E+00 -0.12393645637E+03  0.12393645639E+03  0.25500000000E-02 0. -1.
   -5000001    1    1    2    0    0 -0.28763112955E+03 -0.32949248355E+02  0.58677832648E+03  0.70044708871E+03  0.25000000000E+03 0.  0.
    5000001    1    1    2    0    0  0.28763112955E+03  0.32949248355E+02  0.47802756147E+03  0.61223171200E+03  0.25000000000E+03 0.  0.
<mgrwt>
<rscale>  0 0.76766793E+03</rscale>
<asrwt>0</asrwt>
<pdfrwt beam="1">  1        2 0.18288343E+00 0.76766793E+03</pdfrwt>
<pdfrwt beam="2">  1       -2 0.19067148E-01 0.76766793E+03</pdfrwt>
<totfact> 0.44947684E+02</totfact>
</mgrwt>
</event>
<event>
 4    1  0.1720876E-005  0.1204350E+04  0.7818608E-02  0.9109057E-01
          2   -1    0    0  501    0  0.00000000000E+00  0.00000000000E+00  0.31373766817E+03  0.31373766818E+03  0.25500000000E-02 0.  1.
         -2   -1    0    0    0  501 -0.00000000000E+00 -0.00000000000E+00 -0.11557896826E+04  0.11557896826E+04  0.25500000000E-02 0. -1.
   -5000001    1    1    2    0    0 -0.54625173644E+03 -0.66374688035E+01 -0.47103481885E+03  0.76341916149E+03  0.25000000000E+03 0.  0.
    5000001    1    1    2    0    0  0.54625173644E+03  0.66374688035E+01 -0.37101719554E+03  0.70610818926E+03  0.25000000000E+03 0.  0.
<mgrwt>
<rscale>  0 0.12043500E+04</rscale>
<asrwt>0</asrwt>
<pdfrwt beam="1">  1        2 0.48267334E-01 0.12043500E+04</pdfrwt>
<pdfrwt beam="2">  1       -2 0.17781380E+00 0.12043500E+04</pdfrwt>
<totfact> 0.19323258E+01</totfact>
</mgrwt>
</event>
<event>
 4    1  0.1720876E-005  0.7278138E+03  0.7818608E-02  0.9670815E-01
         -2   -1    0    0    0  501 -0.00000000000E+00  0.00000000000E+00  0.37941028430E+03  0.37941028431E+03  0.25500000000E-02 0. -1.
          2   -1    0    0  501    0  0.00000000000E+00 -0.00000000000E+00 -0.34903697293E+03  0.34903697294E+03  0.25500000000E-02 0.  1.
   -5000001    1    1    2    0    0 -0.25442346353E+03  0.71630754355E+02  0.70584187848E+01  0.36388471394E+03  0.25000000000E+03 0.  0.
    5000001    1    1    2    0    0  0.25442346353E+03 -0.71630754355E+02  0.23314892582E+02  0.36456254331E+03  0.25000000000E+03 0.  0.
<mgrwt>
<rscale>  0 0.72781376E+03</rscale>
<asrwt>0</asrwt>
<pdfrwt beam="1">  1        2 0.53697996E-01 0.72781376E+03</pdfrwt>
<pdfrwt beam="2">  1       -2 0.58370813E-01 0.72781376E+03</pdfrwt>
<totfact> 0.25680953E+02</totfact>
</mgrwt>
</event>
<event>
 4    1  0.1720876E-005  0.9928826E+03  0.7818608E-02  0.9316386E-01
          2   -1    0    0  501    0  0.00000000000E+00  0.00000000000E+00  0.86254142152E+03  0.86254142153E+03  0.25500000000E-02 0.  1.
         -2   -1    0    0    0  501 -0.00000000000E+00 -0.00000000000E+00 -0.28573000839E+03  0.28573000840E+03  0.25500000000E-02 0. -1.
   -5000001    1    1    2    0    0  0.40675786882E+03 -0.12660856303E+03  0.23090209891E+03  0.54524991643E+03  0.25000000000E+03 0.  0.
    5000001    1    1    2    0    0 -0.40675786882E+03  0.12660856303E+03  0.34590931422E+03  0.60302151350E+03  0.25000000000E+03 0.  0.
<mgrwt>
<rscale>  0 0.99288261E+03</rscale>
<asrwt>0</asrwt>
<pdfrwt beam="1">  1        2 0.13269868E+00 0.99288261E+03</pdfrwt>
<pdfrwt beam="2">  1       -2 0.43958464E-01 0.99288261E+03</pdfrwt>
<totfact> 0.15239682E+02</totfact>
</mgrwt>
</event>
<event>
 4    1  0.1720876E-005  0.1377424E+04  0.7818608E-02  0.8970324E-01
          2   -1    0    0  501    0  0.00000000000E+00  0.00000000000E+00  0.11847975706E+04  0.11847975706E+04  0.25500000000E-02 0.  1.
         -2   -1    0    0    0  501 -0.00000000000E+00 -0.00000000000E+00 -0.40034211134E+03  0.40034211135E+03  0.25500000000E-02 0. -1.
   -5000001    1    1    2    0    0 -0.61093221985E+03  0.16414868561E+03  0.26806184219E+03  0.73112250648E+03  0.25000000000E+03 0.  0.
    5000001    1    1    2    0    0  0.61093221985E+03 -0.16414868561E+03  0.51639361706E+03  0.85401717546E+03  0.25000000000E+03 0.  0.
<mgrwt>
<rscale>  0 0.13774242E+04</rscale>
<asrwt>0</asrwt>
<pdfrwt beam="1">  1        2 0.18227654E+00 0.13774242E+04</pdfrwt>
<pdfrwt beam="2">  1       -2 0.61591096E-01 0.13774242E+04</pdfrwt>
<totfact> 0.46199645E+01</totfact>
</mgrwt>
</event>
<event>
 4    1  0.1720876E-005  0.6350546E+03  0.7818608E-02  0.9835234E-01
         -2   -1    0    0    0  501 -0.00000000000E+00  0.00000000000E+00  0.47015765613E+02  0.47015765682E+02  0.25500000000E-02 0. -1.
          2   -1    0    0  501    0  0.00000000000E+00 -0.00000000000E+00 -0.21444632944E+04  0.21444632944E+04  0.25500000000E-02 0.  1.
   -5000001    1    1    2    0    0  0.74725481056E+02  0.15719315906E+03 -0.13579554259E+04  0.13917027432E+04  0.25000000000E+03 0.  0.
    5000001    1    1    2    0    0 -0.74725481056E+02 -0.15719315906E+03 -0.73949210292E+03  0.79977631689E+03  0.25000000000E+03 0.  0.
<mgrwt>
<rscale>  0 0.63505459E+03</rscale>
<asrwt>0</asrwt>
<pdfrwt beam="1">  1        2 0.32991735E+00 0.63505459E+03</pdfrwt>
<pdfrwt beam="2">  1       -2 0.72331964E-02 0.63505459E+03</pdfrwt>
<totfact> 0.66414236E+02</totfact>
</mgrwt>
</event>
<event>
 4    1  0.1720876E-005  0.1033547E+04  0.7818608E-02  0.9272498E-01
         -2   -1    0    0    0  501 -0.00000000000E+00  0.00000000000E+00  0.61011985231E+02  0.61011985284E+02  0.25500000000E-02 0.  1.
          2   -1    0    0  501    0  0.00000000000E+00 -0.00000000000E+00 -0.43770880958E+04  0.43770880958E+04  0.25500000000E-02 0. -1.
   -5000001    1    1    2    0    0 -0.31971531081E+02  0.44903041659E+03 -0.19706511748E+04  0.20368152951E+04  0.25000000000E+03 0.  0.
    5000001    1    1    2    0    0  0.31971531081E+02 -0.44903041659E+03 -0.23454249358E+04  0.24012847860E+04  0.25000000000E+03 0.  0.
<mgrwt>
<rscale>  0 0.10335470E+04</rscale>
<asrwt>0</asrwt>
<pdfrwt beam="1">  1        2 0.67339792E+00 0.10335470E+04</pdfrwt>
<pdfrwt beam="2">  1       -2 0.93864627E-02 0.10335470E+04</pdfrwt>
<totfact> 0.13130424E+01</totfact>
</mgrwt>
</event>
<event>
 4    1  0.1720876E-005  0.1139010E+04  0.7818608E-02  0.9167982E-01
         -2   -1    0    0    0  501 -0.00000000000E+00  0.00000000000E+00  0.20757586639E+03  0.20757586640E+03  0.25500000000E-02 0. -1.
          2   -1    0    0  501    0  0.00000000000E+00 -0.00000000000E+00 -0.15624940737E+04  0.15624940737E+04  0.25500000000E-02 0.  1.
   -5000001    1    1    2    0    0  0.48122901349E+03 -0.17081510196E+03 -0.62646144710E+03  0.84599829030E+03  0.25000000000E+03 0.  0.
    5000001    1    1    2    0    0 -0.48122901349E+03  0.17081510196E+03 -0.72845676020E+03  0.92407164980E+03  0.25000000000E+03 0.  0.
<mgrwt>
<rscale>  0 0.11390102E+04</rscale>
<asrwt>0</asrwt>
<pdfrwt beam="1">  1        2 0.24038370E+00 0.11390102E+04</pdfrwt>
<pdfrwt beam="2">  1       -2 0.31934750E-01 0.11390102E+04</pdfrwt>
<totfact> 0.10567284E+02</totfact>
</mgrwt>
</event>
<event>
 4    1  0.1720876E-005  0.6513737E+03  0.7818608E-02  0.9804205E-01
         -2   -1    0    0    0  501 -0.00000000000E+00  0.00000000000E+00  0.44370432791E+02  0.44370432865E+02  0.25500000000E-02 0. -1.
          2   -1    0    0  501    0  0.00000000000E+00 -0.00000000000E+00 -0.23905989116E+04  0.23905989116E+04  0.25500000000E-02 0.  1.
   -5000001    1    1    2    0    0  0.17010206970E+03  0.89500411406E+02 -0.86880330435E+03  0.92426415024E+03  0.25000000000E+03 0.  0.
    5000001    1    1    2    0    0 -0.17010206970E+03 -0.89500411406E+02 -0.14774251745E+04  0.15107051943E+04  0.25000000000E+03 0.  0.
<mgrwt>
<rscale>  0 0.65137365E+03</rscale>
<asrwt>0</asrwt>
<pdfrwt beam="1">  1        2 0.36778435E+00 0.65137365E+03</pdfrwt>
<pdfrwt beam="2">  1       -2 0.68262223E-02 0.65137365E+03</pdfrwt>
<totfact> 0.53181332E+02</totfact>
</mgrwt>
</event>
<event>
 4    1  0.1720876E-005  0.6664989E+03  0.7818608E-02  0.9776303E-01
         -2   -1    0    0    0  501 -0.00000000000E+00  0.00000000000E+00  0.18116032080E+03  0.18116032082E+03  0.25500000000E-02 0. -1.
          2   -1    0    0  501    0  0.00000000000E+00 -0.00000000000E+00 -0.61302164227E+03  0.61302164228E+03  0.25500000000E-02 0.  1.
   -5000001    1    1    2    0    0 -0.16792150506E+03  0.14124487345E+03 -0.19187826148E+03  0.38401173598E+03  0.25000000000E+03 0.  0.
    5000001    1    1    2    0    0  0.16792150506E+03 -0.14124487345E+03 -0.23998305998E+03  0.41017022712E+03  0.25000000000E+03 0.  0.
<mgrwt>
<rscale>  0 0.66649890E+03</rscale>
<asrwt>0</asrwt>
<pdfrwt beam="1">  1        2 0.94311021E-01 0.66649890E+03</pdfrwt>
<pdfrwt beam="2">  1       -2 0.27870819E-01 0.66649890E+03</pdfrwt>
<totfact> 0.57124501E+02</totfact>
</mgrwt>
</event>
<event>
 4    1  0.1720876E-005  0.6184892E+03  0.7818608E-02  0.9867772E-01
         -2   -1    0    0    0  501 -0.00000000000E+00  0.00000000000E+00  0.29368020943E+03  0.29368020944E+03  0.25500000000E-02 0. -1.
          2   -1    0    0  501    0  0.00000000000E+00 -0.00000000000E+00 -0.32563386652E+03  0.32563386653E+03  0.25500000000E-02 0.  1.
   -5000001    1    1    2    0    0 -0.96605539437E+01 -0.17907618574E+03  0.15219425435E+02  0.30804745984E+03  0.25000000000E+03 0.  0.
    5000001    1    1    2    0    0  0.96605539437E+01  0.17907618574E+03 -0.47173082529E+02  0.31126661613E+03  0.25000000000E+03 0.  0.
<mgrwt>
<rscale>  0 0.61848920E+03</rscale>
<asrwt>0</asrwt>
<pdfrwt beam="1">  1        2 0.50097518E-01 0.61848920E+03</pdfrwt>
<pdfrwt beam="2">  1       -2 0.45181571E-01 0.61848920E+03</pdfrwt>
<totfact> 0.46941813E+02</totfact>
</mgrwt>
</event>
<event>
 4    1  0.1720876E-005  0.8910505E+03  0.7818608E-02  0.9436838E-01
          2   -1    0    0  501    0  0.00000000000E+00  0.00000000000E+00  0.13659103590E+04  0.13659103590E+04  0.25500000000E-02 0.  1.
         -2   -1    0    0    0  501 -0.00000000000E+00 -0.00000000000E+00 -0.14531902587E+03  0.14531902589E+03  0.25500000000E-02 0. -1.
   -5000001    1    1    2    0    0 -0.36304982401E+03  0.60798024246E+02  0.64788391424E+03  0.78597400771E+03  0.25000000000E+03 0.  0.
    5000001    1    1    2    0    0  0.36304982401E+03 -0.60798024246E+02  0.57270741885E+03  0.72525537714E+03  0.25000000000E+03 0.  0.
<mgrwt>
<rscale>  0 0.89105053E+03</rscale>
<asrwt>0</asrwt>
<pdfrwt beam="1">  1        2 0.21014005E+00 0.89105053E+03</pdfrwt>
<pdfrwt beam="2">  1       -2 0.22356774E-01 0.89105053E+03</pdfrwt>
<totfact> 0.26614202E+02</totfact>
</mgrwt>
</event>
<event>
 4    1  0.1720876E-005  0.7328620E+03  0.7818608E-02  0.9662628E-01
         -2   -1    0    0    0  501 -0.00000000000E+00  0.00000000000E+00  0.11285106537E+03  0.11285106540E+03  0.25500000000E-02 0. -1.
          2   -1    0    0  501    0  0.00000000000E+00 -0.00000000000E+00 -0.11898131047E+04  0.11898131047E+04  0.25500000000E-02 0.  1.
   -5000001    1    1    2    0    0  0.21924636008E+03  0.85309722331E+02 -0.76628559627E+03  0.83966679712E+03  0.25000000000E+03 0.  0.
    5000001    1    1    2    0    0 -0.21924636008E+03 -0.85309722331E+02 -0.31067644310E+03  0.46299737303E+03  0.25000000000E+03 0.  0.
<mgrwt>
<rscale>  0 0.73286200E+03</rscale>
<asrwt>0</asrwt>
<pdfrwt beam="1">  1        2 0.18304816E+00 0.73286200E+03</pdfrwt>
<pdfrwt beam="2">  1       -2 0.17361703E-01 0.73286200E+03</pdfrwt>
<totfact> 0.52860103E+02</totfact>
</mgrwt>
</event>
<event>
 4    1  0.1720876E-005  0.6470448E+03  0.7818608E-02  0.9812340E-01
          2   -1    0    0  501    0  0.00000000000E+00  0.00000000000E+00  0.34933475399E+03  0.34933475400E+03  0.25500000000E-02 0.  1.
         -2   -1    0    0    0  501 -0.00000000000E+00 -0.00000000000E+00 -0.29961734482E+03  0.29961734483E+03  0.25500000000E-02 0. -1.
   -5000001    1    1    2    0    0 -0.95892987685E+02 -0.15690636334E+03 -0.66798199342E+02  0.31745404609E+03  0.25000000000E+03 0.  0.
    5000001    1    1    2    0    0  0.95892987685E+02  0.15690636334E+03  0.11651560851E+03  0.33149805274E+03  0.25000000000E+03 0.  0.
<mgrwt>
<rscale>  0 0.64704483E+03</rscale>
<asrwt>0</asrwt>
<pdfrwt beam="1">  1        2 0.53743808E-01 0.64704483E+03</pdfrwt>
<pdfrwt beam="2">  1       -2 0.46094976E-01 0.64704483E+03</pdfrwt>
<totfact> 0.41696645E+02</totfact>
</mgrwt>
</event>
<event>
 4    1  0.1720876E-005  0.8013158E+03  0.7818608E-02  0.9558115E-01
         -2   -1    0    0    0  501 -0.00000000000E+00  0.00000000000E+00  0.11499487515E+03  0.11499487518E+03  0.25500000000E-02 0. -1.
          2   -1    0    0  501    0  0.00000000000E+00 -0.00000000000E+00 -0.13959468888E+04  0.13959468888E+04  0.25500000000E-02 0.  1.
   -5000001    1    1    2    0    0  0.23569907284E+03 -0.20445243853E+03 -0.59160044932E+03  0.71403497407E+03  0.25000000000E+03 0.  0.
    5000001    1    1    2    0    0 -0.23569907284E+03  0.20445243853E+03 -0.68935156432E+03  0.79690678990E+03  0.25000000000E+03 0.  0.
<mgrwt>
<rscale>  0 0.80131576E+03</rscale>
<asrwt>0</asrwt>
<pdfrwt beam="1">  1        2 0.21476105E+00 0.80131576E+03</pdfrwt>
<pdfrwt beam="2">  1       -2 0.17691520E-01 0.80131576E+03</pdfrwt>
<totfact> 0.38750900E+02</totfact>
</mgrwt>
</event>
<event>
 4    1  0.1720876E-005  0.6635414E+03  0.7818608E-02  0.9781696E-01
         -2   -1    0    0    0  501 -0.00000000000E+00  0.00000000000E+00  0.81332015581E+02  0.81332015621E+02  0.25500000000E-02 0. -1.
          2   -1    0    0  501    0  0.00000000000E+00 -0.00000000000E+00 -0.13533638808E+04  0.13533638808E+04  0.25500000000E-02 0.  1.
   -5000001    1    1    2    0    0  0.20194688981E+03 -0.14914484562E+02 -0.46080165428E+03  0.56199924621E+03  0.25000000000E+03 0.  0.
    5000001    1    1    2    0    0 -0.20194688981E+03  0.14914484562E+02 -0.81123021092E+03  0.87269665019E+03  0.25000000000E+03 0.  0.
<mgrwt>
<rscale>  0 0.66354144E+03</rscale>
<asrwt>0</asrwt>
<pdfrwt beam="1">  1        2 0.20820981E+00 0.66354144E+03</pdfrwt>
<pdfrwt beam="2">  1       -2 0.12512619E-01 0.66354144E+03</pdfrwt>
<totfact> 0.74070709E+02</totfact>
</mgrwt>
</event>
<event>
 4    1  0.1720876E-005  0.8062900E+03  0.7818608E-02  0.9550957E-01
         -2   -1    0    0    0  501 -0.00000000000E+00  0.00000000000E+00  0.55185956853E+03  0.55185956854E+03  0.25500000000E-02 0. -1.
          2   -1    0    0  501    0  0.00000000000E+00 -0.00000000000E+00 -0.29450590171E+03  0.29450590172E+03  0.25500000000E-02 0.  1.
   -5000001    1    1    2    0    0  0.10892835933E+03  0.26847737008E+03 -0.44345712518E+01  0.38270765753E+03  0.25000000000E+03 0.  0.
    5000001    1    1    2    0    0 -0.10892835933E+03 -0.26847737008E+03  0.26178823808E+03  0.46365781273E+03  0.25000000000E+03 0.  0.
<mgrwt>
<rscale>  0 0.80629002E+03</rscale>
<asrwt>0</asrwt>
<pdfrwt beam="1">  1        2 0.45308601E-01 0.80629002E+03</pdfrwt>
<pdfrwt beam="2">  1       -2 0.84901471E-01 0.80629002E+03</pdfrwt>
<totfact> 0.13639022E+02</totfact>
</mgrwt>
</event>
<event>
 4    1  0.1720876E-005  0.5243653E+03  0.7818608E-02  0.1007608E+00
          2   -1    0    0  501    0  0.00000000000E+00  0.00000000000E+00  0.22983863127E+03  0.22983863128E+03  0.25500000000E-02 0. -1.
         -2   -1    0    0    0  501 -0.00000000000E+00 -0.00000000000E+00 -0.29907832069E+03  0.29907832070E+03  0.25500000000E-02 0.  1.
   -5000001    1    1    2    0    0  0.39087417332E+02 -0.18802311769E+02 -0.10121106778E+03  0.27317582866E+03  0.25000000000E+03 0.  0.
    5000001    1    1    2    0    0 -0.39087417332E+02  0.18802311769E+02  0.31971378365E+02  0.25574112332E+03  0.25000000000E+03 0.  0.
<mgrwt>
<rscale>  0 0.52436534E+03</rscale>
<asrwt>0</asrwt>
<pdfrwt beam="1">  1        2 0.35359789E-01 0.52436534E+03</pdfrwt>
<pdfrwt beam="2">  1       -2 0.46012050E-01 0.52436534E+03</pdfrwt>
<totfact> 0.66625739E+02</totfact>
</mgrwt>
</event>
<event>
 4    1  0.1720876E-005  0.6113516E+03  0.7818608E-02  0.9882131E-01
         -2   -1    0    0    0  501 -0.00000000000E+00  0.00000000000E+00  0.10138124857E+03  0.10138124861E+03  0.25500000000E-02 0. -1.
          2   -1    0    0  501    0  0.00000000000E+00 -0.00000000000E+00 -0.92164668435E+03  0.92164668435E+03  0.25500000000E-02 0.  1.
   -5000001    1    1    2    0    0 -0.10363689698E+03 -0.61069393396E+02 -0.62487214516E+03  0.68369238333E+03  0.25000000000E+03 0.  0.
    5000001    1    1    2    0    0  0.10363689698E+03  0.61069393396E+02 -0.19539329062E+03  0.33933554963E+03  0.25000000000E+03 0.  0.
<mgrwt>
<rscale>  0 0.61135159E+03</rscale>
<asrwt>0</asrwt>
<pdfrwt beam="1">  1        2 0.14179179E+00 0.61135159E+03</pdfrwt>
<pdfrwt beam="2">  1       -2 0.15597116E-01 0.61135159E+03</pdfrwt>
<totfact> 0.93607243E+02</totfact>
</mgrwt>
</event>
<event>
 4    1  0.1720876E-005  0.9410189E+03  0.7818608E-02  0.9375710E-01
          2   -1    0    0  501    0  0.00000000000E+00  0.00000000000E+00  0.43776757863E+04  0.43776757863E+04  0.25500000000E-02 0.  1.
         -2   -1    0    0    0  501 -0.00000000000E+00 -0.00000000000E+00 -0.50570022443E+02  0.50570022507E+02  0.25500000000E-02 0. -1.
   -5000001    1    1    2    0    0  0.94034106715E+02 -0.14668766976E+03  0.38505635514E+04  0.38626026652E+04  0.25000000000E+03 0.  0.
    5000001    1    1    2    0    0 -0.94034106715E+02  0.14668766976E+03  0.47654221249E+03  0.56564314366E+03  0.25000000000E+03 0.  0.
<mgrwt>
<rscale>  0 0.94101894E+03</rscale>
<asrwt>0</asrwt>
<pdfrwt beam="1">  1        2 0.67348878E+00 0.94101894E+03</pdfrwt>
<pdfrwt beam="2">  1       -2 0.77800012E-02 0.94101894E+03</pdfrwt>
<totfact> 0.18012643E+01</totfact>
</mgrwt>
</event>
<event>
 4    1  0.1720876E-005  0.6035495E+03  0.7818608E-02  0.9898069E-01
         -2   -1    0    0    0  501 -0.00000000000E+00  0.00000000000E+00  0.30123639569E+02  0.30123639677E+02  0.25500000000E-02 0. -1.
          2   -1    0    0  501    0  0.00000000000E+00 -0.00000000000E+00 -0.30231410447E+04  0.30231410447E+04  0.25500000000E-02 0.  1.
   -5000001    1    1    2    0    0 -0.88003365866E+02 -0.14220279604E+03 -0.13724087078E+04  0.14049810991E+04  0.25000000000E+03 0.  0.
    5000001    1    1    2    0    0  0.88003365866E+02  0.14220279604E+03 -0.16206086974E+04  0.16482835853E+04  0.25000000000E+03 0.  0.
<mgrwt>
<rscale>  0 0.60354954E+03</rscale>
<asrwt>0</asrwt>
<pdfrwt beam="1">  1        2 0.46509838E+00 0.60354954E+03</pdfrwt>
<pdfrwt beam="2">  1       -2 0.46344085E-02 0.60354954E+03</pdfrwt>
<totfact> 0.41980071E+02</totfact>
</mgrwt>
</event>
<event>
 4    1  0.1720876E-005  0.6073744E+03  0.7818608E-02  0.9890223E-01
         -2   -1    0    0    0  501 -0.00000000000E+00  0.00000000000E+00  0.87505960958E+02  0.87505960995E+02  0.25500000000E-02 0. -1.
          2   -1    0    0  501    0  0.00000000000E+00 -0.00000000000E+00 -0.10539388237E+04  0.10539388237E+04  0.25500000000E-02 0.  1.
   -5000001    1    1    2    0    0  0.23747000832E+01  0.15591418162E+03 -0.34497459303E+03  0.45367647180E+03  0.25000000000E+03 0.  0.
    5000001    1    1    2    0    0 -0.23747000832E+01 -0.15591418162E+03 -0.62145826969E+03  0.68776831287E+03  0.25000000000E+03 0.  0.
<mgrwt>
<rscale>  0 0.60737445E+03</rscale>
<asrwt>0</asrwt>
<pdfrwt beam="1">  1        2 0.16214443E+00 0.60737445E+03</pdfrwt>
<pdfrwt beam="2">  1       -2 0.13462456E-01 0.60737445E+03</pdfrwt>
<totfact> 0.98698091E+02</totfact>
</mgrwt>
</event>
<event>
 4    1  0.1720876E-005  0.8856437E+03  0.7818608E-02  0.9443708E-01
          2   -1    0    0  501    0  0.00000000000E+00  0.00000000000E+00  0.33271964920E+03  0.33271964921E+03  0.25500000000E-02 0.  1.
         -2   -1    0    0    0  501 -0.00000000000E+00 -0.00000000000E+00 -0.58935863153E+03  0.58935863154E+03  0.25500000000E-02 0. -1.
   -5000001    1    1    2    0    0 -0.26804259386E+02  0.21703839642E+03  0.17658864822E+03  0.37617507164E+03  0.25000000000E+03 0.  0.
    5000001    1    1    2    0    0  0.26804259386E+02 -0.21703839642E+03 -0.43322763055E+03  0.54590320911E+03  0.25000000000E+03 0.  0.
<mgrwt>
<rscale>  0 0.88564371E+03</rscale>
<asrwt>0</asrwt>
<pdfrwt beam="1">  1        2 0.51187638E-01 0.88564371E+03</pdfrwt>
<pdfrwt beam="2">  1       -2 0.90670559E-01 0.88564371E+03</pdfrwt>
<totfact> 0.10203328E+02</totfact>
</mgrwt>
</event>
<event>
 4    1  0.1720876E-005  0.1454469E+04  0.7818608E-02  0.8915308E-01
          2   -1    0    0  501    0  0.00000000000E+00  0.00000000000E+00  0.11904380303E+04  0.11904380303E+04  0.25500000000E-02 0.  1.
         -2   -1    0    0    0  501 -0.00000000000E+00 -0.00000000000E+00 -0.44426496282E+03  0.44426496283E+03  0.25500000000E-02 0. -1.
   -5000001    1    1    2    0    0 -0.43227581930E+03  0.52059153591E+03  0.47665768759E+03  0.86462736618E+03  0.25000000000E+03 0.  0.
    5000001    1    1    2    0    0  0.43227581930E+03 -0.52059153591E+03  0.26951537987E+03  0.77007562693E+03  0.25000000000E+03 0.  0.
<mgrwt>
<rscale>  0 0.14544688E+04</rscale>
<asrwt>0</asrwt>
<pdfrwt beam="1">  1        2 0.18314431E+00 0.14544688E+04</pdfrwt>
<pdfrwt beam="2">  1       -2 0.68348457E-01 0.14544688E+04</pdfrwt>
<totfact> 0.36439478E+01</totfact>
</mgrwt>
</event>
<event>
 4    1  0.1720876E-005  0.1106569E+04  0.7818608E-02  0.9198813E-01
         -2   -1    0    0    0  501 -0.00000000000E+00  0.00000000000E+00  0.31290771232E+03  0.31290771234E+03  0.25500000000E-02 0. -1.
          2   -1    0    0  501    0  0.00000000000E+00 -0.00000000000E+00 -0.97831976006E+03  0.97831976007E+03  0.25500000000E-02 0.  1.
   -5000001    1    1    2    0    0  0.11466468679E+03 -0.47986232488E+03 -0.34953318296E+03  0.65428532555E+03  0.25000000000E+03 0.  0.
    5000001    1    1    2    0    0 -0.11466468679E+03  0.47986232488E+03 -0.31587886478E+03  0.63694214686E+03  0.25000000000E+03 0.  0.
<mgrwt>
<rscale>  0 0.11065691E+04</rscale>
<asrwt>0</asrwt>
<pdfrwt beam="1">  1        2 0.15051073E+00 0.11065691E+04</pdfrwt>
<pdfrwt beam="2">  1       -2 0.48139649E-01 0.11065691E+04</pdfrwt>
<totfact> 0.10551952E+02</totfact>
</mgrwt>
</event>
<event>
 4    1  0.1720876E-005  0.7983484E+03  0.7818608E-02  0.9562411E-01
         -2   -1    0    0    0  501 -0.00000000000E+00  0.00000000000E+00  0.92115610534E+02  0.92115610569E+02  0.25500000000E-02 0. -1.
          2   -1    0    0  501    0  0.00000000000E+00 -0.00000000000E+00 -0.17297833250E+04  0.17297833250E+04  0.25500000000E-02 0.  1.
   -5000001    1    1    2    0    0 -0.17536220675E+03 -0.25580554201E+03 -0.87709045129E+03  0.96331512945E+03  0.25000000000E+03 0.  0.
    5000001    1    1    2    0    0  0.17536220675E+03  0.25580554201E+03 -0.76057726322E+03  0.85858380616E+03  0.25000000000E+03 0.  0.
<mgrwt>
<rscale>  0 0.79834841E+03</rscale>
<asrwt>0</asrwt>
<pdfrwt beam="1">  1        2 0.26612049E+00 0.79834841E+03</pdfrwt>
<pdfrwt beam="2">  1       -2 0.14171634E-01 0.79834841E+03</pdfrwt>
<totfact> 0.36909568E+02</totfact>
</mgrwt>
</event>
<event>
 4    1  0.1720876E-005  0.8803730E+03  0.7818608E-02  0.9450454E-01
         -2   -1    0    0    0  501 -0.00000000000E+00  0.00000000000E+00  0.41963665525E+03  0.41963665526E+03  0.25500000000E-02 0. -1.
          2   -1    0    0  501    0  0.00000000000E+00 -0.00000000000E+00 -0.46174268634E+03  0.46174268635E+03  0.25500000000E-02 0.  1.
   -5000001    1    1    2    0    0 -0.31323284822E+03 -0.33017756370E+02 -0.20030842382E+03  0.44925321823E+03  0.25000000000E+03 0.  0.
    5000001    1    1    2    0    0  0.31323284822E+03  0.33017756370E+02  0.15820239274E+03  0.43212612338E+03  0.25000000000E+03 0.  0.
<mgrwt>
<rscale>  0 0.88037300E+03</rscale>
<asrwt>0</asrwt>
<pdfrwt beam="1">  1        2 0.71037336E-01 0.88037300E+03</pdfrwt>
<pdfrwt beam="2">  1       -2 0.64559485E-01 0.88037300E+03</pdfrwt>
<totfact> 0.15030616E+02</totfact>
</mgrwt>
</event>
<event>
 4    1  0.1720876E-005  0.9303835E+03  0.7818608E-02  0.9388378E-01
         -2   -1    0    0    0  501 -0.00000000000E+00  0.00000000000E+00  0.16279552251E+03  0.16279552253E+03  0.25500000000E-02 0. -1.
          2   -1    0    0  501    0  0.00000000000E+00 -0.00000000000E+00 -0.13292956383E+04  0.13292956383E+04  0.25500000000E-02 0.  1.
   -5000001    1    1    2    0    0  0.17961066313E+03 -0.33750541627E+03 -0.72428310036E+03  0.85630362944E+03  0.25000000000E+03 0.  0.
    5000001    1    1    2    0    0 -0.17961066313E+03  0.33750541627E+03 -0.44221701540E+03  0.63578753136E+03  0.25000000000E+03 0.  0.
<mgrwt>
<rscale>  0 0.93038353E+03</rscale>
<asrwt>0</asrwt>
<pdfrwt beam="1">  1        2 0.20450701E+00 0.93038353E+03</pdfrwt>
<pdfrwt beam="2">  1       -2 0.25045466E-01 0.93038353E+03</pdfrwt>
<totfact> 0.22732284E+02</totfact>
</mgrwt>
</event>
<event>
 4    1  0.1720876E-005  0.7145415E+03  0.7818608E-02  0.9692682E-01
          2   -1    0    0  501    0  0.00000000000E+00  0.00000000000E+00  0.65952444590E+03  0.65952444591E+03  0.25500000000E-02 0.  1.
         -2   -1    0    0    0  501 -0.00000000000E+00 -0.00000000000E+00 -0.19353702601E+03  0.19353702603E+03  0.25500000000E-02 0. -1.
   -5000001    1    1    2    0    0 -0.39005378753E+02 -0.22098578309E+03  0.37816544884E+03  0.50583123924E+03  0.25000000000E+03 0.  0.
    5000001    1    1    2    0    0  0.39005378753E+02  0.22098578309E+03  0.87821971053E+02  0.34723023270E+03  0.25000000000E+03 0.  0.
<mgrwt>
<rscale>  0 0.71454153E+03</rscale>
<asrwt>0</asrwt>
<pdfrwt beam="1">  1        2 0.10146530E+00 0.71454153E+03</pdfrwt>
<pdfrwt beam="2">  1       -2 0.29774927E-01 0.71454153E+03</pdfrwt>
<totfact> 0.46189609E+02</totfact>
</mgrwt>
</event>
<event>
 4    1  0.1720876E-005  0.8023899E+03  0.7818608E-02  0.9556564E-01
          2   -1    0    0  501    0  0.00000000000E+00  0.00000000000E+00  0.62103865543E+03  0.62103865544E+03  0.25500000000E-02 0.  1.
         -2   -1    0    0    0  501 -0.00000000000E+00 -0.00000000000E+00 -0.25917452190E+03  0.25917452191E+03  0.25500000000E-02 0. -1.
   -5000001    1    1    2    0    0  0.27910448313E+03  0.13589795463E+03  0.23108055951E+03  0.46072311810E+03  0.25000000000E+03 0.  0.
    5000001    1    1    2    0    0 -0.27910448313E+03 -0.13589795463E+03  0.13078357403E+03  0.41949005925E+03  0.25000000000E+03 0.  0.
<mgrwt>
<rscale>  0 0.80238992E+03</rscale>
<asrwt>0</asrwt>
<pdfrwt beam="1">  1        2 0.95544407E-01 0.80238992E+03</pdfrwt>
<pdfrwt beam="2">  1       -2 0.39873004E-01 0.80238992E+03</pdfrwt>
<totfact> 0.28468039E+02</totfact>
</mgrwt>
</event>
<event>
 4    1  0.1720876E-005  0.6695105E+03  0.7818608E-02  0.9770842E-01
          2   -1    0    0  501    0  0.00000000000E+00  0.00000000000E+00  0.67142049840E+03  0.67142049841E+03  0.25500000000E-02 0.  1.
         -2   -1    0    0    0  501 -0.00000000000E+00 -0.00000000000E+00 -0.16690150549E+03  0.16690150551E+03  0.25500000000E-02 0. -1.
   -5000001    1    1    2    0    0  0.89303609600E+02 -0.63147775217E+02  0.49505332331E+03  0.56527919573E+03  0.25000000000E+03 0.  0.
    5000001    1    1    2    0    0 -0.89303609600E+02  0.63147775217E+02  0.94656695925E+01  0.27304280819E+03  0.25000000000E+03 0.  0.
<mgrwt>
<rscale>  0 0.66951054E+03</rscale>
<asrwt>0</asrwt>
<pdfrwt beam="1">  1        2 0.10329546E+00 0.66951054E+03</pdfrwt>
<pdfrwt beam="2">  1       -2 0.25677154E-01 0.66951054E+03</pdfrwt>
<totfact> 0.59310966E+02</totfact>
</mgrwt>
</event>
<event>
 4    1  0.1720876E-005  0.6208325E+03  0.7818608E-02  0.9863104E-01
          2   -1    0    0  501    0  0.00000000000E+00  0.00000000000E+00  0.68089344542E+03  0.68089344543E+03  0.25500000000E-02 0.  1.
         -2   -1    0    0    0  501 -0.00000000000E+00 -0.00000000000E+00 -0.14151738989E+03  0.14151738991E+03  0.25500000000E-02 0. -1.
   -5000001    1    1    2    0    0 -0.15234069429E+03 -0.10061958028E+03  0.23929869380E+03  0.39127465025E+03  0.25000000000E+03 0.  0.
    5000001    1    1    2    0    0  0.15234069429E+03  0.10061958028E+03  0.30007736174E+03  0.43113618509E+03  0.25000000000E+03 0.  0.
<mgrwt>
<rscale>  0 0.62083255E+03</rscale>
<asrwt>0</asrwt>
<pdfrwt beam="1">  1        2 0.10475284E+00 0.62083255E+03</pdfrwt>
<pdfrwt beam="2">  1       -2 0.21771906E-01 0.62083255E+03</pdfrwt>
<totfact> 0.78343552E+02</totfact>
</mgrwt>
</event>
<event>
 4    1  0.1720876E-005  0.6330249E+03  0.7818608E-02  0.9839164E-01
         -2   -1    0    0    0  501 -0.00000000000E+00  0.00000000000E+00  0.82713858169E+03  0.82713858170E+03  0.25500000000E-02 0. -1.
          2   -1    0    0  501    0  0.00000000000E+00 -0.00000000000E+00 -0.12111651948E+03  0.12111651950E+03  0.25500000000E-02 0.  1.
   -5000001    1    1    2    0    0  0.18422756437E+03 -0.48293803167E+02  0.29680087034E+03  0.43227635088E+03  0.25000000000E+03 0.  0.
    5000001    1    1    2    0    0 -0.18422756437E+03  0.48293803167E+02  0.40922119188E+03  0.51597875032E+03  0.25000000000E+03 0.  0.
<mgrwt>
<rscale>  0 0.63302495E+03</rscale>
<asrwt>0</asrwt>
<pdfrwt beam="1">  1        2 0.18633310E-01 0.63302495E+03</pdfrwt>
<pdfrwt beam="2">  1       -2 0.12725209E+00 0.63302495E+03</pdfrwt>
<totfact> 0.14352758E+02</totfact>
</mgrwt>
</event>
<event>
 4    1  0.1720876E-005  0.6710905E+03  0.7818608E-02  0.9767990E-01
         -2   -1    0    0    0  501 -0.00000000000E+00  0.00000000000E+00  0.11334745311E+03  0.11334745314E+03  0.25500000000E-02 0. -1.
          2   -1    0    0  501    0  0.00000000000E+00 -0.00000000000E+00 -0.99332274367E+03  0.99332274367E+03  0.25500000000E-02 0.  1.
   -5000001    1    1    2    0    0  0.12137253569E+03 -0.75720484713E+02 -0.15614895462E+03  0.32763910062E+03  0.25000000000E+03 0.  0.
    5000001    1    1    2    0    0 -0.12137253569E+03  0.75720484713E+02 -0.72382633595E+03  0.77903109619E+03  0.25000000000E+03 0.  0.
<mgrwt>
<rscale>  0 0.67109047E+03</rscale>
<asrwt>0</asrwt>
<pdfrwt beam="1">  1        2 0.15281888E+00 0.67109047E+03</pdfrwt>
<pdfrwt beam="2">  1       -2 0.17438070E-01 0.67109047E+03</pdfrwt>
<totfact> 0.69415340E+02</totfact>
</mgrwt>
</event>
<event>
 4    1  0.1720876E-005  0.7060332E+03  0.7818608E-02  0.9706970E-01
         -2   -1    0    0    0  501 -0.00000000000E+00  0.00000000000E+00  0.12817806093E+04  0.12817806093E+04  0.25500000000E-02 0. -1.
          2   -1    0    0  501    0  0.00000000000E+00 -0.00000000000E+00 -0.97224699030E+02  0.97224699064E+02  0.25500000000E-02 0.  1.
   -5000001    1    1    2    0    0 -0.22211559227E+03 -0.10376055806E+03  0.50451232740E+03  0.61411259410E+03  0.25000000000E+03 0.  0.
    5000001    1    1    2    0    0  0.22211559227E+03  0.10376055806E+03  0.68004358290E+03  0.76489271430E+03  0.25000000000E+03 0.  0.
<mgrwt>
<rscale>  0 0.70603324E+03</rscale>
<asrwt>0</asrwt>
<pdfrwt beam="1">  1        2 0.14957646E-01 0.70603324E+03</pdfrwt>
<pdfrwt beam="2">  1       -2 0.19719701E+00 0.70603324E+03</pdfrwt>
<totfact> 0.56930314E+01</totfact>
</mgrwt>
</event>
<event>
 4    1  0.1720876E-005  0.8283771E+03  0.7818608E-02  0.9519827E-01
         -2   -1    0    0    0  501 -0.00000000000E+00  0.00000000000E+00  0.44475951344E+03  0.44475951345E+03  0.25500000000E-02 0. -1.
          2   -1    0    0  501    0  0.00000000000E+00 -0.00000000000E+00 -0.38571891329E+03  0.38571891330E+03  0.25500000000E-02 0.  1.
   -5000001    1    1    2    0    0 -0.14688598424E+01 -0.18940239825E+03  0.30071847903E+03  0.43451930871E+03  0.25000000000E+03 0.  0.
    5000001    1    1    2    0    0  0.14688598424E+01  0.18940239825E+03 -0.24167787888E+03  0.39595911803E+03  0.25000000000E+03 0.  0.
<mgrwt>
<rscale>  0 0.82837710E+03</rscale>
<asrwt>0</asrwt>
<pdfrwt beam="1">  1        2 0.59341371E-01 0.82837710E+03</pdfrwt>
<pdfrwt beam="2">  1       -2 0.68424540E-01 0.82837710E+03</pdfrwt>
<totfact> 0.16295708E+02</totfact>
</mgrwt>
</event>
<event>
 4    1  0.1720876E-005  0.6390141E+03  0.7818608E-02  0.9827615E-01
          2   -1    0    0  501    0  0.00000000000E+00  0.00000000000E+00  0.11736227547E+04  0.11736227547E+04  0.25500000000E-02 0.  1.
         -2   -1    0    0    0  501 -0.00000000000E+00 -0.00000000000E+00 -0.86982595066E+02  0.86982595104E+02  0.25500000000E-02 0. -1.
   -5000001    1    1    2    0    0 -0.16377615076E+02 -0.17359977573E+03  0.73232871216E+03  0.79322786831E+03  0.25000000000E+03 0.  0.
    5000001    1    1    2    0    0  0.16377615076E+02  0.17359977573E+03  0.35431144752E+03  0.46737748155E+03  0.25000000000E+03 0.  0.
<mgrwt>
<rscale>  0 0.63901409E+03</rscale>
<asrwt>0</asrwt>
<pdfrwt beam="1">  1        2 0.18055734E+00 0.63901409E+03</pdfrwt>
<pdfrwt beam="2">  1       -2 0.13381938E-01 0.63901409E+03</pdfrwt>
<totfact> 0.84286075E+02</totfact>
</mgrwt>
</event>
<event>
 4    1  0.1720876E-005  0.6009826E+03  0.7818608E-02  0.9903370E-01
          2   -1    0    0  501    0  0.00000000000E+00  0.00000000000E+00  0.15496523847E+04  0.15496523847E+04  0.25500000000E-02 0.  1.
         -2   -1    0    0    0  501 -0.00000000000E+00 -0.00000000000E+00 -0.58267920361E+02  0.58267920416E+02  0.25500000000E-02 0. -1.
   -5000001    1    1    2    0    0  0.12789282894E+03  0.98272183066E+01  0.46075776384E+03  0.53967663175E+03  0.25000000000E+03 0.  0.
    5000001    1    1    2    0    0 -0.12789282894E+03 -0.98272183066E+01  0.10306267005E+04  0.10682436733E+04  0.25000000000E+03 0.  0.
<mgrwt>
<rscale>  0 0.60098260E+03</rscale>
<asrwt>0</asrwt>
<pdfrwt beam="1">  1        2 0.23840810E+00 0.60098260E+03</pdfrwt>
<pdfrwt beam="2">  1       -2 0.89642938E-02 0.60098260E+03</pdfrwt>
<totfact> 0.99478988E+02</totfact>
</mgrwt>
</event>
<event>
 4    1  0.1720876E-005  0.7029201E+03  0.7818608E-02  0.9712251E-01
         -2   -1    0    0    0  501 -0.00000000000E+00  0.00000000000E+00  0.44816527609E+02  0.44816527682E+02  0.25500000000E-02 0. -1.
          2   -1    0    0  501    0  0.00000000000E+00 -0.00000000000E+00 -0.27562189091E+04  0.27562189091E+04  0.25500000000E-02 0.  1.
   -5000001    1    1    2    0    0  0.24606266627E+03 -0.19985656844E+02 -0.13908716334E+04  0.14345627078E+04  0.25000000000E+03 0.  0.
    5000001    1    1    2    0    0 -0.24606266627E+03  0.19985656844E+02 -0.13205307481E+04  0.13664727289E+04  0.25000000000E+03 0.  0.
<mgrwt>
<rscale>  0 0.70292008E+03</rscale>
<asrwt>0</asrwt>
<pdfrwt beam="1">  1        2 0.42403355E+00 0.70292008E+03</pdfrwt>
<pdfrwt beam="2">  1       -2 0.68948526E-02 0.70292008E+03</pdfrwt>
<totfact> 0.32214982E+02</totfact>
</mgrwt>
</event>
<event>
 4    1  0.1720876E-005  0.1012772E+04  0.7818608E-02  0.9294647E-01
         -2   -1    0    0    0  501 -0.00000000000E+00  0.00000000000E+00  0.30529269239E+03  0.30529269240E+03  0.25500000000E-02 0. -1.
          2   -1    0    0  501    0  0.00000000000E+00 -0.00000000000E+00 -0.83993751946E+03  0.83993751947E+03  0.25500000000E-02 0.  1.
   -5000001    1    1    2    0    0 -0.36140831234E+03 -0.24910542144E+03 -0.22722633816E+03  0.55389645962E+03  0.25000000000E+03 0.  0.
    5000001    1    1    2    0    0  0.36140831234E+03  0.24910542144E+03 -0.30741848891E+03  0.59133375225E+03  0.25000000000E+03 0.  0.
<mgrwt>
<rscale>  0 0.10127720E+04</rscale>
<asrwt>0</asrwt>
<pdfrwt beam="1">  1        2 0.12922116E+00 0.10127720E+04</pdfrwt>
<pdfrwt beam="2">  1       -2 0.46968107E-01 0.10127720E+04</pdfrwt>
<totfact> 0.13826411E+02</totfact>
</mgrwt>
</event>
<event>
 4    1  0.1720876E-005  0.5281940E+03  0.7818608E-02  0.1006671E+00
          2   -1    0    0  501    0  0.00000000000E+00  0.00000000000E+00  0.58333392128E+03  0.58333392129E+03  0.25500000000E-02 0.  1.
         -2   -1    0    0    0  501 -0.00000000000E+00 -0.00000000000E+00 -0.11956654532E+03  0.11956654535E+03  0.25500000000E-02 0. -1.
   -5000001    1    1    2    0    0 -0.10273092392E+02  0.79967377702E+02  0.19551457404E+03  0.32745422060E+03  0.25000000000E+03 0.  0.
    5000001    1    1    2    0    0  0.10273092392E+02 -0.79967377702E+02  0.26825280192E+03  0.37544624603E+03  0.25000000000E+03 0.  0.
<mgrwt>
<rscale>  0 0.52819399E+03</rscale>
<asrwt>0</asrwt>
<pdfrwt beam="1">  1        2 0.89743680E-01 0.52819399E+03</pdfrwt>
<pdfrwt beam="2">  1       -2 0.18394853E-01 0.52819399E+03</pdfrwt>
<totfact> 0.12690960E+03</totfact>
</mgrwt>
</event>
<event>
 4    1  0.1720876E-005  0.8823906E+03  0.7818608E-02  0.9447866E-01
         -2   -1    0    0    0  501 -0.00000000000E+00  0.00000000000E+00  0.23067538211E+03  0.23067538213E+03  0.25500000000E-02 0. -1.
          2   -1    0    0  501    0  0.00000000000E+00 -0.00000000000E+00 -0.84384076810E+03  0.84384076810E+03  0.25500000000E-02 0.  1.
   -5000001    1    1    2    0    0 -0.22349469718E+03 -0.27457112435E+03 -0.20606173145E+03  0.47989646713E+03  0.25000000000E+03 0.  0.
    5000001    1    1    2    0    0  0.22349469718E+03  0.27457112435E+03 -0.40710365454E+03  0.59461968310E+03  0.25000000000E+03 0.  0.
<mgrwt>
<rscale>  0 0.88239060E+03</rscale>
<asrwt>0</asrwt>
<pdfrwt beam="1">  1        2 0.12982165E+00 0.88239060E+03</pdfrwt>
<pdfrwt beam="2">  1       -2 0.35488521E-01 0.88239060E+03</pdfrwt>
<totfact> 0.23970352E+02</totfact>
</mgrwt>
</event>
<event>
 4    1  0.1720876E-005  0.6666082E+03  0.7818608E-02  0.9776105E-01
         -2   -1    0    0    0  501 -0.00000000000E+00  0.00000000000E+00  0.57491139411E+02  0.57491139468E+02  0.25500000000E-02 0. -1.
          2   -1    0    0  501    0  0.00000000000E+00 -0.00000000000E+00 -0.19323261658E+04  0.19323261658E+04  0.25500000000E-02 0.  1.
   -5000001    1    1    2    0    0  0.16499410950E+03 -0.13094586320E+03 -0.11313672474E+04  0.11776509346E+04  0.25000000000E+03 0.  0.
    5000001    1    1    2    0    0 -0.16499410950E+03  0.13094586320E+03 -0.74346777900E+03  0.81216637068E+03  0.25000000000E+03 0.  0.
<mgrwt>
<rscale>  0 0.66660823E+03</rscale>
<asrwt>0</asrwt>
<pdfrwt beam="1">  1        2 0.29728090E+00 0.66660823E+03</pdfrwt>
<pdfrwt beam="2">  1       -2 0.88447922E-02 0.66660823E+03</pdfrwt>
<totfact> 0.62690548E+02</totfact>
</mgrwt>
</event>
<event>
 4    1  0.1720876E-005  0.5743079E+03  0.7818608E-02  0.9960191E-01
         -2   -1    0    0    0  501 -0.00000000000E+00  0.00000000000E+00  0.84236200760E+02  0.84236200798E+02  0.25500000000E-02 0. -1.
          2   -1    0    0  501    0  0.00000000000E+00 -0.00000000000E+00 -0.97888296868E+03  0.97888296869E+03  0.25500000000E-02 0.  1.
   -5000001    1    1    2    0    0  0.12997139327E+03  0.24790693663E+02 -0.35569256688E+03  0.45444949520E+03  0.25000000000E+03 0.  0.
    5000001    1    1    2    0    0 -0.12997139327E+03 -0.24790693663E+02 -0.53895420105E+03  0.60866967428E+03  0.25000000000E+03 0.  0.
<mgrwt>
<rscale>  0 0.57430787E+03</rscale>
<asrwt>0</asrwt>
<pdfrwt beam="1">  1        2 0.15059737E+00 0.57430787E+03</pdfrwt>
<pdfrwt beam="2">  1       -2 0.12959416E-01 0.57430787E+03</pdfrwt>
<totfact> 0.11730828E+03</totfact>
</mgrwt>
</event>
<event>
 4    1  0.1720876E-005  0.6671814E+03  0.7818608E-02  0.9775063E-01
          2   -1    0    0  501    0  0.00000000000E+00  0.00000000000E+00  0.18384942629E+04  0.18384942629E+04  0.25500000000E-02 0.  1.
         -2   -1    0    0    0  501 -0.00000000000E+00 -0.00000000000E+00 -0.60529284683E+02  0.60529284737E+02  0.25500000000E-02 0. -1.
   -5000001    1    1    2    0    0 -0.16529332692E+03  0.48379592110E+02  0.49540205747E+03  0.58102122802E+03  0.25000000000E+03 0.  0.
    5000001    1    1    2    0    0  0.16529332692E+03 -0.48379592110E+02  0.12825629207E+04  0.13180023196E+04  0.25000000000E+03 0.  0.
<mgrwt>
<rscale>  0 0.66718136E+03</rscale>
<asrwt>0</asrwt>
<pdfrwt beam="1">  1        2 0.28284528E+00 0.66718136E+03</pdfrwt>
<pdfrwt beam="2">  1       -2 0.93121974E-02 0.66718136E+03</pdfrwt>
<totfact> 0.64870528E+02</totfact>
</mgrwt>
</event>
<event>
 4    1  0.1720876E-005  0.1012303E+04  0.7818608E-02  0.9295153E-01
          2   -1    0    0  501    0  0.00000000000E+00  0.00000000000E+00  0.15164821562E+04  0.15164821562E+04  0.25500000000E-02 0.  1.
         -2   -1    0    0    0  501 -0.00000000000E+00 -0.00000000000E+00 -0.16893674351E+03  0.16893674353E+03  0.25500000000E-02 0. -1.
   -5000001    1    1    2    0    0 -0.36213524875E+03 -0.13520681307E+03  0.10240692924E+04  0.11227825864E+04  0.25000000000E+03 0.  0.
    5000001    1    1    2    0    0  0.36213524875E+03  0.13520681307E+03  0.32347612030E+03  0.56263631334E+03  0.25000000000E+03 0.  0.
<mgrwt>
<rscale>  0 0.10123034E+04</rscale>
<asrwt>0</asrwt>
<pdfrwt beam="1">  1        2 0.23330495E+00 0.10123034E+04</pdfrwt>
<pdfrwt beam="2">  1       -2 0.25990268E-01 0.10123034E+04</pdfrwt>
<totfact> 0.16556878E+02</totfact>
</mgrwt>
</event>
<event>
 4    1  0.1720876E-005  0.8342856E+03  0.7818608E-02  0.9511674E-01
          2   -1    0    0  501    0  0.00000000000E+00  0.00000000000E+00  0.15288162151E+04  0.15288162152E+04  0.25500000000E-02 0.  1.
         -2   -1    0    0    0  501 -0.00000000000E+00 -0.00000000000E+00 -0.11381885481E+03  0.11381885484E+03  0.25500000000E-02 0. -1.
   -5000001    1    1    2    0    0  0.56511560395E+02  0.28089333231E+03  0.10451742410E+04  0.11121977408E+04  0.25000000000E+03 0.  0.
    5000001    1    1    2    0    0 -0.56511560395E+02 -0.28089333231E+03  0.36982311932E+03  0.53043732917E+03  0.25000000000E+03 0.  0.
<mgrwt>
<rscale>  0 0.83428559E+03</rscale>
<asrwt>0</asrwt>
<pdfrwt beam="1">  1        2 0.23520248E+00 0.83428559E+03</pdfrwt>
<pdfrwt beam="2">  1       -2 0.17510594E-01 0.83428559E+03</pdfrwt>
<totfact> 0.33155359E+02</totfact>
</mgrwt>
</event>
<event>
 4    1  0.1720876E-005  0.5718560E+03  0.7818608E-02  0.9965580E-01
         -2   -1    0    0    0  501 -0.00000000000E+00  0.00000000000E+00  0.22330982311E+03  0.22330982313E+03  0.25500000000E-02 0. -1.
          2   -1    0    0  501    0  0.00000000000E+00 -0.00000000000E+00 -0.36610488530E+03  0.36610488531E+03  0.25500000000E-02 0.  1.
   -5000001    1    1    2    0    0 -0.33592628103E+02  0.99005837068E+02 -0.16543598188E+03  0.31748966052E+03  0.25000000000E+03 0.  0.
    5000001    1    1    2    0    0  0.33592628103E+02 -0.99005837068E+02  0.22640919697E+02  0.27192504791E+03  0.25000000000E+03 0.  0.
<mgrwt>
<rscale>  0 0.57185599E+03</rscale>
<asrwt>0</asrwt>
<pdfrwt beam="1">  1        2 0.56323828E-01 0.57185599E+03</pdfrwt>
<pdfrwt beam="2">  1       -2 0.34355357E-01 0.57185599E+03</pdfrwt>
<totfact> 0.70135513E+02</totfact>
</mgrwt>
</event>
<event>
 4    1  0.1720876E-005  0.8219147E+03  0.7818608E-02  0.9528827E-01
          2   -1    0    0  501    0  0.00000000000E+00  0.00000000000E+00  0.23457527480E+04  0.23457527480E+04  0.25500000000E-02 0.  1.
         -2   -1    0    0    0  501 -0.00000000000E+00 -0.00000000000E+00 -0.71996486842E+02  0.71996486887E+02  0.25500000000E-02 0. -1.
   -5000001    1    1    2    0    0  0.26820267410E+03 -0.13058610834E+03  0.74884751957E+03  0.84395379829E+03  0.25000000000E+03 0.  0.
    5000001    1    1    2    0    0 -0.26820267410E+03  0.13058610834E+03  0.15249087416E+04  0.15737954366E+04  0.25000000000E+03 0.  0.
<mgrwt>
<rscale>  0 0.82191473E+03</rscale>
<asrwt>0</asrwt>
<pdfrwt beam="1">  1        2 0.36088496E+00 0.82191473E+03</pdfrwt>
<pdfrwt beam="2">  1       -2 0.11076385E-01 0.82191473E+03</pdfrwt>
<totfact> 0.25456303E+02</totfact>
</mgrwt>
</event>
<event>
 4    1  0.1720876E-005  0.1007042E+04  0.7818608E-02  0.9300855E-01
          2   -1    0    0  501    0  0.00000000000E+00  0.00000000000E+00  0.98438634805E+03  0.98438634806E+03  0.25500000000E-02 0.  1.
         -2   -1    0    0    0  501 -0.00000000000E+00 -0.00000000000E+00 -0.25755476117E+03  0.25755476118E+03  0.25500000000E-02 0. -1.
   -5000001    1    1    2    0    0 -0.26634764633E+03 -0.33543654781E+03  0.47074911055E+03  0.68378612987E+03  0.25000000000E+03 0.  0.
    5000001    1    1    2    0    0  0.26634764633E+03  0.33543654781E+03  0.25608247633E+03  0.55815497937E+03  0.25000000000E+03 0.  0.
<mgrwt>
<rscale>  0 0.10070420E+04</rscale>
<asrwt>0</asrwt>
<pdfrwt beam="1">  1        2 0.15144405E+00 0.10070420E+04</pdfrwt>
<pdfrwt beam="2">  1       -2 0.39623809E-01 0.10070420E+04</pdfrwt>
<totfact> 0.15487410E+02</totfact>
</mgrwt>
</event>
<event>
 4    1  0.1720876E-005  0.1249647E+04  0.7818608E-02  0.9070477E-01
         -2   -1    0    0    0  501 -0.00000000000E+00  0.00000000000E+00  0.10103290484E+03  0.10103290488E+03  0.25500000000E-02 0. -1.
          2   -1    0    0  501    0  0.00000000000E+00 -0.00000000000E+00 -0.38641298522E+04  0.38641298522E+04  0.25500000000E-02 0.  1.
   -5000001    1    1    2    0    0 -0.51805461228E+03 -0.24024616927E+03 -0.17467243050E+04  0.18546278874E+04  0.25000000000E+03 0.  0.
    5000001    1    1    2    0    0  0.51805461228E+03  0.24024616927E+03 -0.20163726423E+04  0.21105348696E+04  0.25000000000E+03 0.  0.
<mgrwt>
<rscale>  0 0.12496468E+04</rscale>
<asrwt>0</asrwt>
<pdfrwt beam="1">  1        2 0.59448140E+00 0.12496468E+04</pdfrwt>
<pdfrwt beam="2">  1       -2 0.15543527E-01 0.12496468E+04</pdfrwt>
<totfact> 0.14727370E+01</totfact>
</mgrwt>
</event>
<event>
 4    1  0.1720876E-005  0.7596296E+03  0.7818608E-02  0.9620363E-01
          2   -1    0    0  501    0  0.00000000000E+00  0.00000000000E+00  0.12245706254E+03  0.12245706256E+03  0.25500000000E-02 0.  1.
         -2   -1    0    0    0  501 -0.00000000000E+00 -0.00000000000E+00 -0.11780397504E+04  0.11780397504E+04  0.25500000000E-02 0. -1.
   -5000001    1    1    2    0    0  0.10791623942E+03  0.17978788898E+03 -0.86059957313E+03  0.92038102166E+03  0.25000000000E+03 0.  0.
    5000001    1    1    2    0    0 -0.10791623942E+03 -0.17978788898E+03 -0.19498311469E+03  0.38011579126E+03  0.25000000000E+03 0.  0.
<mgrwt>
<rscale>  0 0.75962961E+03</rscale>
<asrwt>0</asrwt>
<pdfrwt beam="1">  1        2 0.18839549E-01 0.75962961E+03</pdfrwt>
<pdfrwt beam="2">  1       -2 0.18123688E+00 0.75962961E+03</pdfrwt>
<totfact> 0.54962999E+01</totfact>
</mgrwt>
</event>
<event>
 4    1  0.1720876E-005  0.7607287E+03  0.7818608E-02  0.9618667E-01
         -2   -1    0    0    0  501 -0.00000000000E+00  0.00000000000E+00  0.30516200598E+03  0.30516200599E+03  0.25500000000E-02 0. -1.
          2   -1    0    0  501    0  0.00000000000E+00 -0.00000000000E+00 -0.47409915825E+03  0.47409915826E+03  0.25500000000E-02 0.  1.
   -5000001    1    1    2    0    0 -0.24215248562E+02 -0.60400204590E+02  0.20151450761E+03  0.32763189673E+03  0.25000000000E+03 0.  0.
    5000001    1    1    2    0    0  0.24215248562E+02  0.60400204590E+02 -0.37045165988E+03  0.45162926752E+03  0.25000000000E+03 0.  0.
<mgrwt>
<rscale>  0 0.76072873E+03</rscale>
<asrwt>0</asrwt>
<pdfrwt beam="1">  1        2 0.72938332E-01 0.76072873E+03</pdfrwt>
<pdfrwt beam="2">  1       -2 0.46948001E-01 0.76072873E+03</pdfrwt>
<totfact> 0.28389646E+02</totfact>
</mgrwt>
</event>
<event>
 4    1  0.1720876E-005  0.1742654E+04  0.7818608E-02  0.8737404E-01
          2   -1    0    0  501    0  0.00000000000E+00  0.00000000000E+00  0.12130259052E+04  0.12130259052E+04  0.25500000000E-02 0.  1.
         -2   -1    0    0    0  501 -0.00000000000E+00 -0.00000000000E+00 -0.62588182355E+03  0.62588182355E+03  0.25500000000E-02 0. -1.
   -5000001    1    1    2    0    0  0.22739202115E+03 -0.78154698629E+03  0.48868488189E+03  0.98175136203E+03  0.25000000000E+03 0.  0.
    5000001    1    1    2    0    0 -0.22739202115E+03  0.78154698629E+03  0.98459199792E+02  0.85715636676E+03  0.25000000000E+03 0.  0.
<mgrwt>
<rscale>  0 0.17426541E+04</rscale>
<asrwt>0</asrwt>
<pdfrwt beam="1">  1        2 0.18661937E+00 0.17426541E+04</pdfrwt>
<pdfrwt beam="2">  1       -2 0.96289513E-01 0.17426541E+04</pdfrwt>
<totfact> 0.15935558E+01</totfact>
</mgrwt>
</event>
<event>
 4    1  0.1720876E-005  0.7918532E+03  0.7818608E-02  0.9571885E-01
         -2   -1    0    0    0  501 -0.00000000000E+00  0.00000000000E+00  0.49800023182E+02  0.49800023247E+02  0.25500000000E-02 0. -1.
          2   -1    0    0  501    0  0.00000000000E+00 -0.00000000000E+00 -0.31477468919E+04  0.31477468919E+04  0.25500000000E-02 0.  1.
   -5000001    1    1    2    0    0 -0.22049745989E+03  0.19501613992E+03 -0.11967715891E+04  0.12575423099E+04  0.25000000000E+03 0.  0.
    5000001    1    1    2    0    0  0.22049745989E+03 -0.19501613992E+03 -0.19011752797E+04  0.19400046053E+04  0.25000000000E+03 0.  0.
<mgrwt>
<rscale>  0 0.79185319E+03</rscale>
<asrwt>0</asrwt>
<pdfrwt beam="1">  1        2 0.48426860E+00 0.79185319E+03</pdfrwt>
<pdfrwt beam="2">  1       -2 0.76615445E-02 0.79185319E+03</pdfrwt>
<totfact> 0.15609159E+02</totfact>
</mgrwt>
</event>
<event>
 4    1  0.1720876E-005  0.6671021E+03  0.7818608E-02  0.9775207E-01
          2   -1    0    0  501    0  0.00000000000E+00  0.00000000000E+00  0.16695745435E+04  0.16695745435E+04  0.25500000000E-02 0.  1.
         -2   -1    0    0    0  501 -0.00000000000E+00 -0.00000000000E+00 -0.66637525896E+02  0.66637525944E+02  0.25500000000E-02 0. -1.
   -5000001    1    1    2    0    0 -0.16919808402E+03  0.23765255097E+02  0.11654959595E+04  0.12041900227E+04  0.25000000000E+03 0.  0.
    5000001    1    1    2    0    0  0.16919808402E+03 -0.23765255097E+02  0.43744105809E+03  0.53202204681E+03  0.25000000000E+03 0.  0.
<mgrwt>
<rscale>  0 0.66710214E+03</rscale>
<asrwt>0</asrwt>
<pdfrwt beam="1">  1        2 0.25685760E+00 0.66710214E+03</pdfrwt>
<pdfrwt beam="2">  1       -2 0.10251928E-01 0.66710214E+03</pdfrwt>
<totfact> 0.68585091E+02</totfact>
</mgrwt>
</event>
<event>
 4    1  0.1720876E-005  0.1004799E+04  0.7818608E-02  0.9303297E-01
          2   -1    0    0  501    0  0.00000000000E+00  0.00000000000E+00  0.18719864447E+04  0.18719864447E+04  0.25500000000E-02 0.  1.
         -2   -1    0    0    0  501 -0.00000000000E+00 -0.00000000000E+00 -0.13483280443E+03  0.13483280446E+03  0.25500000000E-02 0. -1.
   -5000001    1    1    2    0    0  0.25748195912E+01  0.43535380357E+03  0.83038740034E+03  0.97035189423E+03  0.25000000000E+03 0.  0.
    5000001    1    1    2    0    0 -0.25748195912E+01 -0.43535380357E+03  0.90676623990E+03  0.10364673549E+04  0.25000000000E+03 0.  0.
<mgrwt>
<rscale>  0 0.10047988E+04</rscale>
<asrwt>0</asrwt>
<pdfrwt beam="1">  1        2 0.28799790E+00 0.10047988E+04</pdfrwt>
<pdfrwt beam="2">  1       -2 0.20743509E-01 0.10047988E+04</pdfrwt>
<totfact> 0.15776906E+02</totfact>
</mgrwt>
</event>
<event>
 4    1  0.1720876E-005  0.6468916E+03  0.7818608E-02  0.9812629E-01
          2   -1    0    0  501    0  0.00000000000E+00  0.00000000000E+00  0.68541093703E+03  0.68541093703E+03  0.25500000000E-02 0.  1.
         -2   -1    0    0    0  501 -0.00000000000E+00 -0.00000000000E+00 -0.15263426911E+03  0.15263426914E+03  0.25500000000E-02 0. -1.
   -5000001    1    1    2    0    0  0.13205196214E+03  0.77100214307E+02  0.89066118497E+02  0.30629224152E+03  0.25000000000E+03 0.  0.
    5000001    1    1    2    0    0 -0.13205196214E+03 -0.77100214307E+02  0.44371054942E+03  0.53175296465E+03  0.25000000000E+03 0.  0.
<mgrwt>
<rscale>  0 0.64689164E+03</rscale>
<asrwt>0</asrwt>
<pdfrwt beam="1">  1        2 0.10544783E+00 0.64689164E+03</pdfrwt>
<pdfrwt beam="2">  1       -2 0.23482196E-01 0.64689164E+03</pdfrwt>
<totfact> 0.67907163E+02</totfact>
</mgrwt>
</event>
<event>
 4    1  0.1720876E-005  0.6192846E+03  0.7818608E-02  0.9866185E-01
          2   -1    0    0  501    0  0.00000000000E+00  0.00000000000E+00  0.22616993857E+03  0.22616993859E+03  0.25500000000E-02 0.  1.
         -2   -1    0    0    0  501 -0.00000000000E+00 -0.00000000000E+00 -0.42392178138E+03  0.42392178139E+03  0.25500000000E-02 0. -1.
   -5000001    1    1    2    0    0  0.17075178002E+02  0.13186647372E+03 -0.23040051697E+03  0.36505441624E+03  0.25000000000E+03 0.  0.
    5000001    1    1    2    0    0 -0.17075178002E+02 -0.13186647372E+03  0.32648674162E+02  0.28503730373E+03  0.25000000000E+03 0.  0.
<mgrwt>
<rscale>  0 0.61928463E+03</rscale>
<asrwt>0</asrwt>
<pdfrwt beam="1">  1        2 0.34795375E-01 0.61928463E+03</pdfrwt>
<pdfrwt beam="2">  1       -2 0.65218736E-01 0.61928463E+03</pdfrwt>
<totfact> 0.32966299E+02</totfact>
</mgrwt>
</event>
<event>
 4    1  0.1720876E-005  0.7010028E+03  0.7818608E-02  0.9715519E-01
         -2   -1    0    0    0  501 -0.00000000000E+00  0.00000000000E+00  0.37018767620E+03  0.37018767621E+03  0.25500000000E-02 0. -1.
          2   -1    0    0  501    0  0.00000000000E+00 -0.00000000000E+00 -0.33186198861E+03  0.33186198862E+03  0.25500000000E-02 0.  1.
   -5000001    1    1    2    0    0 -0.15055037533E+03  0.19086231160E+03  0.54675367314E+02  0.35296350136E+03  0.25000000000E+03 0.  0.
    5000001    1    1    2    0    0  0.15055037533E+03 -0.19086231160E+03 -0.16349679719E+02  0.34908616347E+03  0.25000000000E+03 0.  0.
<mgrwt>
<rscale>  0 0.70100276E+03</rscale>
<asrwt>0</asrwt>
<pdfrwt beam="1">  1        2 0.51055691E-01 0.70100276E+03</pdfrwt>
<pdfrwt beam="2">  1       -2 0.56951950E-01 0.70100276E+03</pdfrwt>
<totfact> 0.28623828E+02</totfact>
</mgrwt>
</event>
<event>
 4    1  0.1720876E-005  0.1012358E+04  0.7818608E-02  0.9295094E-01
         -2   -1    0    0    0  501 -0.00000000000E+00  0.00000000000E+00  0.83655599357E+02  0.83655599395E+02  0.25500000000E-02 0. -1.
          2   -1    0    0  501    0  0.00000000000E+00 -0.00000000000E+00 -0.30627596773E+04  0.30627596773E+04  0.25500000000E-02 0.  1.
   -5000001    1    1    2    0    0 -0.24371863964E+03 -0.31207615314E+03 -0.89230734062E+03  0.10077215344E+04  0.25000000000E+03 0.  0.
    5000001    1    1    2    0    0  0.24371863964E+03  0.31207615314E+03 -0.20867967373E+04  0.21386937424E+04  0.25000000000E+03 0.  0.
<mgrwt>
<rscale>  0 0.10123576E+04</rscale>
<asrwt>0</asrwt>
<pdfrwt beam="1">  1        2 0.47119371E+00 0.10123576E+04</pdfrwt>
<pdfrwt beam="2">  1       -2 0.12870095E-01 0.10123576E+04</pdfrwt>
<totfact> 0.73866733E+01</totfact>
</mgrwt>
</event>
<event>
 4    1  0.1720876E-005  0.5630832E+03  0.7818608E-02  0.9985102E-01
         -2   -1    0    0    0  501 -0.00000000000E+00  0.00000000000E+00  0.40252771019E+02  0.40252771100E+02  0.25500000000E-02 0. -1.
          2   -1    0    0  501    0  0.00000000000E+00 -0.00000000000E+00 -0.19691978884E+04  0.19691978884E+04  0.25500000000E-02 0.  1.
   -5000001    1    1    2    0    0 -0.10623315672E+03  0.16989310548E+02 -0.12216029216E+04  0.12515541612E+04  0.25000000000E+03 0.  0.
    5000001    1    1    2    0    0  0.10623315672E+03 -0.16989310548E+02 -0.70734219573E+03  0.75789649829E+03  0.25000000000E+03 0.  0.
<mgrwt>
<rscale>  0 0.56308320E+03</rscale>
<asrwt>0</asrwt>
<pdfrwt beam="1">  1        2 0.30295345E+00 0.56308320E+03</pdfrwt>
<pdfrwt beam="2">  1       -2 0.61927355E-02 0.56308320E+03</pdfrwt>
<totfact> 0.10614899E+03</totfact>
</mgrwt>
</event>
<event>
 4    1  0.1720876E-005  0.6535974E+03  0.7818608E-02  0.9800052E-01
          2   -1    0    0  501    0  0.00000000000E+00  0.00000000000E+00  0.98125147302E+03  0.98125147302E+03  0.25500000000E-02 0.  1.
         -2   -1    0    0    0  501 -0.00000000000E+00 -0.00000000000E+00 -0.10883793244E+03  0.10883793247E+03  0.25500000000E-02 0. -1.
   -5000001    1    1    2    0    0  0.21642700289E+02 -0.20635902171E+03  0.37735979396E+03  0.49794865841E+03  0.25000000000E+03 0.  0.
    5000001    1    1    2    0    0 -0.21642700289E+02  0.20635902171E+03  0.49505374662E+03  0.59214074708E+03  0.25000000000E+03 0.  0.
<mgrwt>
<rscale>  0 0.65359737E+03</rscale>
<asrwt>0</asrwt>
<pdfrwt beam="1">  1        2 0.15096177E+00 0.65359737E+03</pdfrwt>
<pdfrwt beam="2">  1       -2 0.16744297E-01 0.65359737E+03</pdfrwt>
<totfact> 0.75791108E+02</totfact>
</mgrwt>
</event>
<event>
 4    1  0.1720876E-005  0.1036705E+04  0.7818608E-02  0.9269179E-01
         -2   -1    0    0    0  501 -0.00000000000E+00  0.00000000000E+00  0.31016645416E+03  0.31016645417E+03  0.25500000000E-02 0. -1.
          2   -1    0    0  501    0  0.00000000000E+00 -0.00000000000E+00 -0.86627496894E+03  0.86627496894E+03  0.25500000000E-02 0.  1.
   -5000001    1    1    2    0    0 -0.30526215242E+03 -0.30021079431E+03 -0.10641232073E+03  0.50708488907E+03  0.25000000000E+03 0.  0.
    5000001    1    1    2    0    0  0.30526215242E+03  0.30021079431E+03 -0.44969619406E+03  0.66935653404E+03  0.25000000000E+03 0.  0.
<mgrwt>
<rscale>  0 0.10367052E+04</rscale>
<asrwt>0</asrwt>
<pdfrwt beam="1">  1        2 0.13327307E+00 0.10367052E+04</pdfrwt>
<pdfrwt beam="2">  1       -2 0.47717916E-01 0.10367052E+04</pdfrwt>
<totfact> 0.12819825E+02</totfact>
</mgrwt>
</event>
<event>
 4    1  0.1720876E-005  0.5918486E+03  0.7818608E-02  0.9922463E-01
         -2   -1    0    0    0  501 -0.00000000000E+00  0.00000000000E+00  0.13855323919E+03  0.13855323922E+03  0.25500000000E-02 0.  1.
          2   -1    0    0  501    0  0.00000000000E+00 -0.00000000000E+00 -0.63204005448E+03  0.63204005449E+03  0.25500000000E-02 0. -1.
   -5000001    1    1    2    0    0  0.11135022109E+03  0.99876754597E+02 -0.17912705193E+03  0.34199523180E+03  0.25000000000E+03 0.  0.
    5000001    1    1    2    0    0 -0.11135022109E+03 -0.99876754597E+02 -0.31435976336E+03  0.42859806190E+03  0.25000000000E+03 0.  0.
<mgrwt>
<rscale>  0 0.59184862E+03</rscale>
<asrwt>0</asrwt>
<pdfrwt beam="1">  1        2 0.97236930E-01 0.59184862E+03</pdfrwt>
<pdfrwt beam="2">  1       -2 0.21315883E-01 0.59184862E+03</pdfrwt>
<totfact> 0.89159691E+02</totfact>
</mgrwt>
</event>
<event>
 4    1  0.1720876E-005  0.7109191E+03  0.7818608E-02  0.9698739E-01
          2   -1    0    0  501    0  0.00000000000E+00  0.00000000000E+00  0.21399676132E+04  0.21399676132E+04  0.25500000000E-02 0. -1.
         -2   -1    0    0    0  501 -0.00000000000E+00 -0.00000000000E+00 -0.59043647457E+02  0.59043647512E+02  0.25500000000E-02 0.  1.
   -5000001    1    1    2    0    0 -0.27487774125E+02  0.18067713994E+03  0.50068676064E+03  0.58871643336E+03  0.25000000000E+03 0.  0.
    5000001    1    1    2    0    0  0.27487774125E+02 -0.18067713994E+03  0.15802372051E+04  0.16102948274E+04  0.25000000000E+03 0.  0.
<mgrwt>
<rscale>  0 0.71091910E+03</rscale>
<asrwt>0</asrwt>
<pdfrwt beam="1">  1        2 0.32922581E+00 0.71091910E+03</pdfrwt>
<pdfrwt beam="2">  1       -2 0.90836373E-02 0.71091910E+03</pdfrwt>
<totfact> 0.46126235E+02</totfact>
</mgrwt>
</event>
<event>
 4    1  0.1720876E-005  0.1269698E+04  0.7818608E-02  0.9053946E-01
          2   -1    0    0  501    0  0.00000000000E+00  0.00000000000E+00  0.15156673091E+04  0.15156673091E+04  0.25500000000E-02 0.  1.
         -2   -1    0    0    0  501 -0.00000000000E+00 -0.00000000000E+00 -0.26591145208E+03  0.26591145209E+03  0.25500000000E-02 0. -1.
   -5000001    1    1    2    0    0  0.22981413316E+02 -0.57154495527E+03  0.46280625262E+03  0.77709806892E+03  0.25000000000E+03 0.  0.
    5000001    1    1    2    0    0 -0.22981413316E+02  0.57154495527E+03  0.78694960435E+03  0.10044806922E+04  0.25000000000E+03 0.  0.
<mgrwt>
<rscale>  0 0.12696981E+04</rscale>
<asrwt>0</asrwt>
<pdfrwt beam="1">  1        2 0.23317958E+00 0.12696981E+04</pdfrwt>
<pdfrwt beam="2">  1       -2 0.40909455E-01 0.12696981E+04</pdfrwt>
<totfact> 0.69099778E+01</totfact>
</mgrwt>
</event>
<event>
 4    1  0.1720876E-005  0.7187056E+03  0.7818608E-02  0.9685767E-01
         -2   -1    0    0    0  501 -0.00000000000E+00  0.00000000000E+00  0.11139246231E+03  0.11139246234E+03  0.25500000000E-02 0. -1.
          2   -1    0    0  501    0  0.00000000000E+00 -0.00000000000E+00 -0.11592743943E+04  0.11592743943E+04  0.25500000000E-02 0.  1.
   -5000001    1    1    2    0    0 -0.85909062676E+02 -0.14388478220E+03 -0.17680484053E+03  0.34906038050E+03  0.25000000000E+03 0.  0.
    5000001    1    1    2    0    0  0.85909062676E+02  0.14388478220E+03 -0.87107709143E+03  0.92160647611E+03  0.25000000000E+03 0.  0.
<mgrwt>
<rscale>  0 0.71870558E+03</rscale>
<asrwt>0</asrwt>
<pdfrwt beam="1">  1        2 0.17834990E+00 0.71870558E+03</pdfrwt>
<pdfrwt beam="2">  1       -2 0.17137303E-01 0.71870558E+03</pdfrwt>
<totfact> 0.56402131E+02</totfact>
</mgrwt>
</event>
<event>
 4    1  0.1720876E-005  0.7981692E+03  0.7818608E-02  0.9562671E-01
          2   -1    0    0  501    0  0.00000000000E+00  0.00000000000E+00  0.12332721853E+04  0.12332721853E+04  0.25500000000E-02 0.  1.
         -2   -1    0    0    0  501 -0.00000000000E+00 -0.00000000000E+00 -0.12914302601E+03  0.12914302603E+03  0.25500000000E-02 0. -1.
   -5000001    1    1    2    0    0 -0.10582323828E+01 -0.27800733732E+03  0.79029720742E+03  0.87427620093E+03  0.25000000000E+03 0.  0.
    5000001    1    1    2    0    0  0.10582323828E+01  0.27800733732E+03  0.31383195188E+03  0.48813901041E+03  0.25000000000E+03 0.  0.
<mgrwt>
<rscale>  0 0.79816916E+03</rscale>
<asrwt>0</asrwt>
<pdfrwt beam="1">  1        2 0.18973418E+00 0.79816916E+03</pdfrwt>
<pdfrwt beam="2">  1       -2 0.19868158E-01 0.79816916E+03</pdfrwt>
<totfact> 0.39315495E+02</totfact>
</mgrwt>
</event>
<event>
 4    1  0.1720876E-005  0.7194665E+03  0.7818608E-02  0.9684509E-01
         -2   -1    0    0    0  501 -0.00000000000E+00  0.00000000000E+00  0.67705914518E+02  0.67705914566E+02  0.25500000000E-02 0. -1.
          2   -1    0    0  501    0  0.00000000000E+00 -0.00000000000E+00 -0.19113248028E+04  0.19113248028E+04  0.25500000000E-02 0.  1.
   -5000001    1    1    2    0    0  0.16770598183E+03  0.17191696356E+03 -0.65758180150E+03  0.74336704552E+03  0.25000000000E+03 0.  0.
    5000001    1    1    2    0    0 -0.16770598183E+03 -0.17191696356E+03 -0.11860370868E+04  0.12356636718E+04  0.25000000000E+03 0.  0.
<mgrwt>
<rscale>  0 0.71946645E+03</rscale>
<asrwt>0</asrwt>
<pdfrwt beam="1">  1        2 0.29404993E+00 0.71946645E+03</pdfrwt>
<pdfrwt beam="2">  1       -2 0.10416296E-01 0.71946645E+03</pdfrwt>
<totfact> 0.49193674E+02</totfact>
</mgrwt>
</event>
<event>
 4    1  0.1720876E-005  0.1081234E+04  0.7818608E-02  0.9223678E-01
          2   -1    0    0  501    0  0.00000000000E+00  0.00000000000E+00  0.13116417192E+04  0.13116417192E+04  0.25500000000E-02 0.  1.
         -2   -1    0    0    0  501 -0.00000000000E+00 -0.00000000000E+00 -0.22282513378E+03  0.22282513380E+03  0.25500000000E-02 0. -1.
   -5000001    1    1    2    0    0  0.10181122550E+03 -0.31417937623E+03  0.51372984042E+02  0.41738877510E+03  0.25000000000E+03 0.  0.
    5000001    1    1    2    0    0 -0.10181122550E+03  0.31417937623E+03  0.10374436013E+04  0.11170780779E+04  0.25000000000E+03 0.  0.
<mgrwt>
<rscale>  0 0.10812340E+04</rscale>
<asrwt>0</asrwt>
<pdfrwt beam="1">  1        2 0.20179103E+00 0.10812340E+04</pdfrwt>
<pdfrwt beam="2">  1       -2 0.34280790E-01 0.10812340E+04</pdfrwt>
<totfact> 0.12881194E+02</totfact>
</mgrwt>
</event>
<event>
 4    1  0.1720876E-005  0.7709864E+03  0.7818608E-02  0.9602989E-01
         -2   -1    0    0    0  501 -0.00000000000E+00  0.00000000000E+00  0.12325795428E+04  0.12325795428E+04  0.25500000000E-02 0. -1.
          2   -1    0    0  501    0  0.00000000000E+00 -0.00000000000E+00 -0.12056423970E+03  0.12056423972E+03  0.25500000000E-02 0.  1.
   -5000001    1    1    2    0    0  0.95604278843E+02  0.98538664499E+02  0.10111627431E+04  0.10506189317E+04  0.25000000000E+03 0.  0.
    5000001    1    1    2    0    0 -0.95604278843E+02 -0.98538664499E+02  0.10085256001E+03  0.30252485087E+03  0.25000000000E+03 0.  0.
<mgrwt>
<rscale>  0 0.77098642E+03</rscale>
<asrwt>0</asrwt>
<pdfrwt beam="1">  1        2 0.18548346E-01 0.77098642E+03</pdfrwt>
<pdfrwt beam="2">  1       -2 0.18962761E+00 0.77098642E+03</pdfrwt>
<totfact> 0.49115302E+01</totfact>
</mgrwt>
</event>
<event>
 4    1  0.1720876E-005  0.6661461E+03  0.7818608E-02  0.9776945E-01
          2   -1    0    0  501    0  0.00000000000E+00  0.00000000000E+00  0.28973675388E+04  0.28973675388E+04  0.25500000000E-02 0.  1.
         -2   -1    0    0    0  501 -0.00000000000E+00 -0.00000000000E+00 -0.38289116088E+02  0.38289116173E+02  0.25500000000E-02 0. -1.
   -5000001    1    1    2    0    0  0.20273161291E+03 -0.22192349526E+02  0.17941450618E+04  0.18229232321E+04  0.25000000000E+03 0.  0.
    5000001    1    1    2    0    0 -0.20273161291E+03  0.22192349526E+02  0.10649333609E+04  0.11127334228E+04  0.25000000000E+03 0.  0.
<mgrwt>
<rscale>  0 0.66614606E+03</rscale>
<asrwt>0</asrwt>
<pdfrwt beam="1">  1        2 0.44574903E+00 0.66614606E+03</pdfrwt>
<pdfrwt beam="2">  1       -2 0.58906309E-02 0.66614606E+03</pdfrwt>
<totfact> 0.34190268E+02</totfact>
</mgrwt>
</event>
<event>
 4    1  0.1720876E-005  0.9906800E+03  0.7818608E-02  0.9318826E-01
         -2   -1    0    0    0  501 -0.00000000000E+00  0.00000000000E+00  0.14479658471E+03  0.14479658473E+03  0.25500000000E-02 0.  1.
          2   -1    0    0  501    0  0.00000000000E+00 -0.00000000000E+00 -0.16945270485E+04  0.16945270485E+04  0.25500000000E-02 0. -1.
   -5000001    1    1    2    0    0 -0.23030819855E+02 -0.40705781423E+03 -0.10143287531E+04  0.11214228917E+04  0.25000000000E+03 0.  0.
    5000001    1    1    2    0    0  0.23030819855E+02  0.40705781423E+03 -0.53540171068E+03  0.71790074146E+03  0.25000000000E+03 0.  0.
<mgrwt>
<rscale>  0 0.99068003E+03</rscale>
<asrwt>0</asrwt>
<pdfrwt beam="1">  1        2 0.26069645E+00 0.99068003E+03</pdfrwt>
<pdfrwt beam="2">  1       -2 0.22276399E-01 0.99068003E+03</pdfrwt>
<totfact> 0.17427149E+02</totfact>
</mgrwt>
</event>
<event>
 4    1  0.1720876E-005  0.7903168E+03  0.7818608E-02  0.9574140E-01
          2   -1    0    0  501    0  0.00000000000E+00  0.00000000000E+00  0.15094280157E+04  0.15094280157E+04  0.25500000000E-02 0.  1.
         -2   -1    0    0    0  501 -0.00000000000E+00 -0.00000000000E+00 -0.10344988359E+03  0.10344988362E+03  0.25500000000E-02 0. -1.
   -5000001    1    1    2    0    0 -0.25955745823E+03 -0.13303466477E+03  0.51393287224E+03  0.64163485981E+03  0.25000000000E+03 0.  0.
    5000001    1    1    2    0    0  0.25955745823E+03  0.13303466477E+03  0.89204525987E+03  0.97124303952E+03  0.25000000000E+03 0.  0.
<mgrwt>
<rscale>  0 0.79031678E+03</rscale>
<asrwt>0</asrwt>
<pdfrwt beam="1">  1        2 0.23221969E+00 0.79031678E+03</pdfrwt>
<pdfrwt beam="2">  1       -2 0.15915367E-01 0.79031678E+03</pdfrwt>
<totfact> 0.40138719E+02</totfact>
</mgrwt>
</event>
<event>
 4    1  0.1720876E-005  0.1061859E+04  0.7818608E-02  0.9243186E-01
          2   -1    0    0  501    0  0.00000000000E+00  0.00000000000E+00  0.64067753801E+03  0.64067753801E+03  0.25500000000E-02 0.  1.
         -2   -1    0    0    0  501 -0.00000000000E+00 -0.00000000000E+00 -0.43998106506E+03  0.43998106506E+03  0.25500000000E-02 0. -1.
   -5000001    1    1    2    0    0 -0.27707141403E+03 -0.19361867795E+03 -0.22962864045E+03  0.47904704721E+03  0.25000000000E+03 0.  0.
    5000001    1    1    2    0    0  0.27707141403E+03  0.19361867795E+03  0.43032511340E+03  0.60161155587E+03  0.25000000000E+03 0.  0.
<mgrwt>
<rscale>  0 0.10618587E+04</rscale>
<asrwt>0</asrwt>
<pdfrwt beam="1">  1        2 0.98565776E-01 0.10618587E+04</pdfrwt>
<pdfrwt beam="2">  1       -2 0.67689394E-01 0.10618587E+04</pdfrwt>
<totfact> 0.91150874E+01</totfact>
</mgrwt>
</event>
<event>
 4    1  0.1720876E-005  0.9167390E+03  0.7818608E-02  0.9404895E-01
         -2   -1    0    0    0  501 -0.00000000000E+00  0.00000000000E+00  0.28634095299E+03  0.28634095300E+03  0.25500000000E-02 0. -1.
          2   -1    0    0  501    0  0.00000000000E+00 -0.00000000000E+00 -0.73374971263E+03  0.73374971264E+03  0.25500000000E-02 0.  1.
   -5000001    1    1    2    0    0  0.27055855251E+03 -0.27102490248E+03 -0.18947679503E+03  0.49503321500E+03  0.25000000000E+03 0.  0.
    5000001    1    1    2    0    0 -0.27055855251E+03  0.27102490248E+03 -0.25793196461E+03  0.52505745063E+03  0.25000000000E+03 0.  0.
<mgrwt>
<rscale>  0 0.91673899E+03</rscale>
<asrwt>0</asrwt>
<pdfrwt beam="1">  1        2 0.11288457E+00 0.91673899E+03</pdfrwt>
<pdfrwt beam="2">  1       -2 0.44052455E-01 0.91673899E+03</pdfrwt>
<totfact> 0.18890012E+02</totfact>
</mgrwt>
</event>
<event>
 4    1  0.1720876E-005  0.5777049E+03  0.7818608E-02  0.9952772E-01
          2   -1    0    0  501    0  0.00000000000E+00  0.00000000000E+00  0.20557971703E+04  0.20557971703E+04  0.25500000000E-02 0.  1.
         -2   -1    0    0    0  501 -0.00000000000E+00 -0.00000000000E+00 -0.40585583794E+02  0.40585583874E+02  0.25500000000E-02 0. -1.
   -5000001    1    1    2    0    0  0.13068219300E+03  0.46016277879E+02  0.11589927526E+04  0.11937166891E+04  0.25000000000E+03 0.  0.
    5000001    1    1    2    0    0 -0.13068219300E+03 -0.46016277879E+02  0.85621883391E+03  0.90266606502E+03  0.25000000000E+03 0.  0.
<mgrwt>
<rscale>  0 0.57770487E+03</rscale>
<asrwt>0</asrwt>
<pdfrwt beam="1">  1        2 0.31627647E+00 0.57770487E+03</pdfrwt>
<pdfrwt beam="2">  1       -2 0.62439364E-02 0.57770487E+03</pdfrwt>
<totfact> 0.93979174E+02</totfact>
</mgrwt>
</event>
<event>
 4    1  0.1720876E-005  0.6431008E+03  0.7818608E-02  0.9819812E-01
         -2   -1    0    0    0  501 -0.00000000000E+00  0.00000000000E+00  0.47635858483E+02  0.47635858552E+02  0.25500000000E-02 0. -1.
          2   -1    0    0  501    0  0.00000000000E+00 -0.00000000000E+00 -0.21705219335E+04  0.21705219335E+04  0.25500000000E-02 0.  1.
   -5000001    1    1    2    0    0  0.18931461623E+03 -0.62153929179E+02 -0.94238250190E+03  0.99513210918E+03  0.25000000000E+03 0.  0.
    5000001    1    1    2    0    0 -0.18931461623E+03  0.62153929179E+02 -0.11805035731E+04  0.12230256829E+04  0.25000000000E+03 0.  0.
<mgrwt>
<rscale>  0 0.64310085E+03</rscale>
<asrwt>0</asrwt>
<pdfrwt beam="1">  1        2 0.33392638E+00 0.64310085E+03</pdfrwt>
<pdfrwt beam="2">  1       -2 0.73285953E-02 0.64310085E+03</pdfrwt>
<totfact> 0.62909818E+02</totfact>
</mgrwt>
</event>
<event>
 4    1  0.1720876E-005  0.1195289E+04  0.7818608E-02  0.9116990E-01
          2   -1    0    0  501    0  0.00000000000E+00  0.00000000000E+00  0.53524496074E+03  0.53524496075E+03  0.25500000000E-02 0. -1.
         -2   -1    0    0    0  501 -0.00000000000E+00 -0.00000000000E+00 -0.66731833793E+03  0.66731833794E+03  0.25500000000E-02 0.  1.
   -5000001    1    1    2    0    0 -0.16898371576E+03 -0.42505673080E+03  0.22806079245E+03  0.56898193789E+03  0.25000000000E+03 0.  0.
    5000001    1    1    2    0    0  0.16898371576E+03  0.42505673080E+03 -0.36013416964E+03  0.63358136079E+03  0.25000000000E+03 0.  0.
<mgrwt>
<rscale>  0 0.11952887E+04</rscale>
<asrwt>0</asrwt>
<pdfrwt beam="1">  1        2 0.82345378E-01 0.11952887E+04</pdfrwt>
<pdfrwt beam="2">  1       -2 0.10266436E+00 0.11952887E+04</pdfrwt>
<totfact> 0.43543134E+01</totfact>
</mgrwt>
</event>
<event>
 4    1  0.1720876E-005  0.6398068E+03  0.7818608E-02  0.9826096E-01
          2   -1    0    0  501    0  0.00000000000E+00  0.00000000000E+00  0.40469500638E+03  0.40469500638E+03  0.25500000000E-02 0.  1.
         -2   -1    0    0    0  501 -0.00000000000E+00 -0.00000000000E+00 -0.25287729535E+03  0.25287729536E+03  0.25500000000E-02 0. -1.
   -5000001    1    1    2    0    0 -0.17375871816E+03  0.73294670694E+02  0.14309980893E+03  0.34429893437E+03  0.25000000000E+03 0.  0.
    5000001    1    1    2    0    0  0.17375871816E+03 -0.73294670694E+02  0.87179020987E+01  0.31327336738E+03  0.25000000000E+03 0.  0.
<mgrwt>
<rscale>  0 0.63980678E+03</rscale>
<asrwt>0</asrwt>
<pdfrwt beam="1">  1        2 0.62260770E-01 0.63980678E+03</pdfrwt>
<pdfrwt beam="2">  1       -2 0.38904200E-01 0.63980678E+03</pdfrwt>
<totfact> 0.49390140E+02</totfact>
</mgrwt>
</event>
<event>
 4    1  0.1720876E-005  0.7182687E+03  0.7818608E-02  0.9686490E-01
          2   -1    0    0  501    0  0.00000000000E+00  0.00000000000E+00  0.77213856691E+03  0.77213856691E+03  0.25500000000E-02 0.  1.
         -2   -1    0    0    0  501 -0.00000000000E+00 -0.00000000000E+00 -0.16703929509E+03  0.16703929511E+03  0.25500000000E-02 0. -1.
   -5000001    1    1    2    0    0 -0.14926174857E+03  0.20866446694E+03  0.33607906452E+03  0.49119147688E+03  0.25000000000E+03 0.  0.
    5000001    1    1    2    0    0  0.14926174857E+03 -0.20866446694E+03  0.26902020729E+03  0.44798638515E+03  0.25000000000E+03 0.  0.
<mgrwt>
<rscale>  0 0.71826870E+03</rscale>
<asrwt>0</asrwt>
<pdfrwt beam="1">  1        2 0.11879055E+00 0.71826870E+03</pdfrwt>
<pdfrwt beam="2">  1       -2 0.25698353E-01 0.71826870E+03</pdfrwt>
<totfact> 0.49505870E+02</totfact>
</mgrwt>
</event>
<event>
 4    1  0.1720876E-005  0.7407997E+03  0.7818608E-02  0.9649896E-01
          2   -1    0    0  501    0  0.00000000000E+00  0.00000000000E+00  0.20260864853E+04  0.20260864853E+04  0.25500000000E-02 0.  1.
         -2   -1    0    0    0  501 -0.00000000000E+00 -0.00000000000E+00 -0.67714802077E+02  0.67714802125E+02  0.25500000000E-02 0. -1.
   -5000001    1    1    2    0    0  0.82895111030E+02 -0.22175869430E+03  0.13651485079E+04  0.14078987771E+04  0.25000000000E+03 0.  0.
    5000001    1    1    2    0    0 -0.82895111030E+02  0.22175869430E+03  0.59322317528E+03  0.68590251029E+03  0.25000000000E+03 0.  0.
<mgrwt>
<rscale>  0 0.74079969E+03</rscale>
<asrwt>0</asrwt>
<pdfrwt beam="1">  1        2 0.31170564E+00 0.74079969E+03</pdfrwt>
<pdfrwt beam="2">  1       -2 0.10417661E-01 0.74079969E+03</pdfrwt>
<totfact> 0.42522755E+02</totfact>
</mgrwt>
</event>
<event>
 4    1  0.1720876E-005  0.6906858E+03  0.7818608E-02  0.9733295E-01
         -2   -1    0    0    0  501 -0.00000000000E+00  0.00000000000E+00  0.73563133060E+02  0.73563133104E+02  0.25500000000E-02 0. -1.
          2   -1    0    0  501    0  0.00000000000E+00 -0.00000000000E+00 -0.16212158363E+04  0.16212158363E+04  0.25500000000E-02 0.  1.
   -5000001    1    1    2    0    0  0.33970454215E+02  0.20359873922E+03 -0.10657651013E+04  0.11139846002E+04  0.25000000000E+03 0.  0.
    5000001    1    1    2    0    0 -0.33970454215E+02 -0.20359873922E+03 -0.48188760190E+03  0.58079436915E+03  0.25000000000E+03 0.  0.
<mgrwt>
<rscale>  0 0.69068579E+03</rscale>
<asrwt>0</asrwt>
<pdfrwt beam="1">  1        2 0.24941779E+00 0.69068579E+03</pdfrwt>
<pdfrwt beam="2">  1       -2 0.11317406E-01 0.69068579E+03</pdfrwt>
<totfact> 0.61926136E+02</totfact>
</mgrwt>
</event>
<event>
 4    1  0.1720876E-005  0.7736925E+03  0.7818608E-02  0.9598897E-01
          2   -1    0    0  501    0  0.00000000000E+00  0.00000000000E+00  0.47667373702E+03  0.47667373702E+03  0.25500000000E-02 0.  1.
         -2   -1    0    0    0  501 -0.00000000000E+00 -0.00000000000E+00 -0.31394646161E+03  0.31394646162E+03  0.25500000000E-02 0. -1.
   -5000001    1    1    2    0    0 -0.19882546324E+03  0.11031089978E+03 -0.11103742189E+03  0.35570966884E+03  0.25000000000E+03 0.  0.
    5000001    1    1    2    0    0  0.19882546324E+03 -0.11031089978E+03  0.27376469730E+03  0.43491052980E+03  0.25000000000E+03 0.  0.
<mgrwt>
<rscale>  0 0.77369253E+03</rscale>
<asrwt>0</asrwt>
<pdfrwt beam="1">  1        2 0.73334421E-01 0.77369253E+03</pdfrwt>
<pdfrwt beam="2">  1       -2 0.48299455E-01 0.77369253E+03</pdfrwt>
<totfact> 0.26632578E+02</totfact>
</mgrwt>
</event>
<event>
 4    1  0.1720876E-005  0.1104014E+04  0.7818608E-02  0.9201289E-01
         -2   -1    0    0    0  501 -0.00000000000E+00  0.00000000000E+00  0.80474559492E+03  0.80474559493E+03  0.25500000000E-02 0. -1.
          2   -1    0    0  501    0  0.00000000000E+00 -0.00000000000E+00 -0.37864340745E+03  0.37864340746E+03  0.25500000000E-02 0.  1.
   -5000001    1    1    2    0    0 -0.43788503122E+03  0.21529285862E+03  0.28183062545E+03  0.61645990704E+03  0.25000000000E+03 0.  0.
    5000001    1    1    2    0    0  0.43788503122E+03 -0.21529285862E+03  0.14427156202E+03  0.56692909534E+03  0.25000000000E+03 0.  0.
<mgrwt>
<rscale>  0 0.11040138E+04</rscale>
<asrwt>0</asrwt>
<pdfrwt beam="1">  1        2 0.58252832E-01 0.11040138E+04</pdfrwt>
<pdfrwt beam="2">  1       -2 0.12380701E+00 0.11040138E+04</pdfrwt>
<totfact> 0.41222071E+01</totfact>
</mgrwt>
</event>
<event>
 4    1  0.1720876E-005  0.8590515E+03  0.7818608E-02  0.9478268E-01
         -2   -1    0    0    0  501 -0.00000000000E+00  0.00000000000E+00  0.15174580466E+03  0.15174580468E+03  0.25500000000E-02 0. -1.
          2   -1    0    0  501    0  0.00000000000E+00 -0.00000000000E+00 -0.12157988642E+04  0.12157988642E+04  0.25500000000E-02 0.  1.
   -5000001    1    1    2    0    0 -0.30223734618E+03 -0.16433020147E+03 -0.62807837635E+03  0.75850792704E+03  0.25000000000E+03 0.  0.
    5000001    1    1    2    0    0  0.30223734618E+03  0.16433020147E+03 -0.43597468320E+03  0.60903674186E+03  0.25000000000E+03 0.  0.
<mgrwt>
<rscale>  0 0.85905152E+03</rscale>
<asrwt>0</asrwt>
<pdfrwt beam="1">  1        2 0.18704597E+00 0.85905152E+03</pdfrwt>
<pdfrwt beam="2">  1       -2 0.23345509E-01 0.85905152E+03</pdfrwt>
<totfact> 0.30167666E+02</totfact>
</mgrwt>
</event>
<event>
 4    1  0.1720876E-005  0.1164028E+04  0.7818608E-02  0.9144938E-01
          2   -1    0    0  501    0  0.00000000000E+00  0.00000000000E+00  0.12815548349E+04  0.12815548349E+04  0.25500000000E-02 0.  1.
         -2   -1    0    0    0  501 -0.00000000000E+00 -0.00000000000E+00 -0.26431998183E+03  0.26431998184E+03  0.25500000000E-02 0. -1.
   -5000001    1    1    2    0    0 -0.19919806392E+03 -0.32718721166E+03  0.30690983575E+02  0.45844659080E+03  0.25000000000E+03 0.  0.
    5000001    1    1    2    0    0  0.19919806392E+03  0.32718721166E+03  0.98654386954E+03  0.10874282260E+04  0.25000000000E+03 0.  0.
<mgrwt>
<rscale>  0 0.11640284E+04</rscale>
<asrwt>0</asrwt>
<pdfrwt beam="1">  1        2 0.19716228E+00 0.11640284E+04</pdfrwt>
<pdfrwt beam="2">  1       -2 0.40664613E-01 0.11640284E+04</pdfrwt>
<totfact> 0.95909057E+01</totfact>
</mgrwt>
</event>
<event>
 4    1  0.1720876E-005  0.6311051E+03  0.7818608E-02  0.9842895E-01
         -2   -1    0    0    0  501 -0.00000000000E+00  0.00000000000E+00  0.23997821614E+03  0.23997821615E+03  0.25500000000E-02 0. -1.
          2   -1    0    0  501    0  0.00000000000E+00 -0.00000000000E+00 -0.41492687963E+03  0.41492687964E+03  0.25500000000E-02 0.  1.
   -5000001    1    1    2    0    0  0.49982158236E+02  0.31693593108E+02  0.10265843043E+03  0.27666126097E+03  0.25000000000E+03 0.  0.
    5000001    1    1    2    0    0 -0.49982158236E+02 -0.31693593108E+02 -0.27760709392E+03  0.37824383482E+03  0.25000000000E+03 0.  0.
<mgrwt>
<rscale>  0 0.63110510E+03</rscale>
<asrwt>0</asrwt>
<pdfrwt beam="1">  1        2 0.63834905E-01 0.63110510E+03</pdfrwt>
<pdfrwt beam="2">  1       -2 0.36919726E-01 0.63110510E+03</pdfrwt>
<totfact> 0.53127162E+02</totfact>
</mgrwt>
</event>
<event>
 4    1  0.1720876E-005  0.8431684E+03  0.7818608E-02  0.9499552E-01
         -2   -1    0    0    0  501 -0.00000000000E+00  0.00000000000E+00  0.21528857895E+03  0.21528857896E+03  0.25500000000E-02 0. -1.
          2   -1    0    0  501    0  0.00000000000E+00 -0.00000000000E+00 -0.82555818171E+03  0.82555818172E+03  0.25500000000E-02 0.  1.
   -5000001    1    1    2    0    0  0.27845576987E+03  0.15224529923E+03 -0.45386902551E+03  0.60762927779E+03  0.25000000000E+03 0.  0.
    5000001    1    1    2    0    0 -0.27845576987E+03 -0.15224529923E+03 -0.15640057726E+03  0.43321748289E+03  0.25000000000E+03 0.  0.
<mgrwt>
<rscale>  0 0.84316842E+03</rscale>
<asrwt>0</asrwt>
<pdfrwt beam="1">  1        2 0.12700895E+00 0.84316842E+03</pdfrwt>
<pdfrwt beam="2">  1       -2 0.33121320E-01 0.84316842E+03</pdfrwt>
<totfact> 0.28202915E+02</totfact>
</mgrwt>
</event>
<event>
 4    1  0.1720876E-005  0.8966418E+03  0.7818608E-02  0.9429789E-01
         -2   -1    0    0    0  501 -0.00000000000E+00  0.00000000000E+00  0.79626285606E+02  0.79626285647E+02  0.25500000000E-02 0. -1.
          2   -1    0    0  501    0  0.00000000000E+00 -0.00000000000E+00 -0.25241867652E+04  0.25241867652E+04  0.25500000000E-02 0.  1.
   -5000001    1    1    2    0    0 -0.32273872847E+03  0.16901596830E+03 -0.10017907336E+04  0.10949024424E+04  0.25000000000E+03 0.  0.
    5000001    1    1    2    0    0  0.32273872847E+03 -0.16901596830E+03 -0.14427697459E+04  0.15089106084E+04  0.25000000000E+03 0.  0.
<mgrwt>
<rscale>  0 0.89664177E+03</rscale>
<asrwt>0</asrwt>
<pdfrwt beam="1">  1        2 0.38833636E+00 0.89664177E+03</pdfrwt>
<pdfrwt beam="2">  1       -2 0.12250200E-01 0.89664177E+03</pdfrwt>
<totfact> 0.16974169E+02</totfact>
</mgrwt>
</event>
<event>
 4    1  0.1720876E-005  0.8262177E+03  0.7818608E-02  0.9522825E-01
         -2   -1    0    0    0  501 -0.00000000000E+00  0.00000000000E+00  0.61807579397E+03  0.61807579397E+03  0.25500000000E-02 0. -1.
          2   -1    0    0  501    0  0.00000000000E+00 -0.00000000000E+00 -0.27611322759E+03  0.27611322760E+03  0.25500000000E-02 0.  1.
   -5000001    1    1    2    0    0  0.31562787146E+03 -0.92009622513E+02  0.16178655745E+03  0.44357819384E+03  0.25000000000E+03 0.  0.
    5000001    1    1    2    0    0 -0.31562787146E+03  0.92009622513E+02  0.18017600893E+03  0.45061082773E+03  0.25000000000E+03 0.  0.
<mgrwt>
<rscale>  0 0.82621765E+03</rscale>
<asrwt>0</asrwt>
<pdfrwt beam="1">  1        2 0.42478959E-01 0.82621765E+03</pdfrwt>
<pdfrwt beam="2">  1       -2 0.95088583E-01 0.82621765E+03</pdfrwt>
<totfact> 0.11272340E+02</totfact>
</mgrwt>
</event>
<event>
 4    1  0.1720876E-005  0.7065275E+03  0.7818608E-02  0.9706134E-01
         -2   -1    0    0    0  501 -0.00000000000E+00  0.00000000000E+00  0.14873793941E+03  0.14873793943E+03  0.25500000000E-02 0. -1.
          2   -1    0    0  501    0  0.00000000000E+00 -0.00000000000E+00 -0.83902784933E+03  0.83902784933E+03  0.25500000000E-02 0.  1.
   -5000001    1    1    2    0    0  0.36023871218E+01  0.24409554853E+03 -0.41778555210E+03  0.54464702473E+03  0.25000000000E+03 0.  0.
    5000001    1    1    2    0    0 -0.36023871218E+01 -0.24409554853E+03 -0.27250435782E+03  0.44311876403E+03  0.25000000000E+03 0.  0.
<mgrwt>
<rscale>  0 0.70652749E+03</rscale>
<asrwt>0</asrwt>
<pdfrwt beam="1">  1        2 0.12908120E+00 0.70652749E+03</pdfrwt>
<pdfrwt beam="2">  1       -2 0.22882760E-01 0.70652749E+03</pdfrwt>
<totfact> 0.54627999E+02</totfact>
</mgrwt>
</event>
<event>
 4    1  0.1720876E-005  0.6396808E+03  0.7818608E-02  0.9826338E-01
          2   -1    0    0  501    0  0.00000000000E+00  0.00000000000E+00  0.17139779286E+04  0.17139779286E+04  0.25500000000E-02 0.  1.
         -2   -1    0    0    0  501 -0.00000000000E+00 -0.00000000000E+00 -0.59684473120E+02  0.59684473175E+02  0.25500000000E-02 0. -1.
   -5000001    1    1    2    0    0 -0.52655331598E+02 -0.11531221904E+03  0.40003480567E+03  0.48846426435E+03  0.25000000000E+03 0.  0.
    5000001    1    1    2    0    0  0.52655331598E+02  0.11531221904E+03  0.12542586498E+04  0.12851981374E+04  0.25000000000E+03 0.  0.
<mgrwt>
<rscale>  0 0.63968076E+03</rscale>
<asrwt>0</asrwt>
<pdfrwt beam="1">  1        2 0.26368887E+00 0.63968076E+03</pdfrwt>
<pdfrwt beam="2">  1       -2 0.91822281E-02 0.63968076E+03</pdfrwt>
<totfact> 0.77673075E+02</totfact>
</mgrwt>
</event>
<event>
 4    1  0.1720876E-005  0.1577859E+04  0.7818608E-02  0.8834267E-01
          2   -1    0    0  501    0  0.00000000000E+00  0.00000000000E+00  0.99117610678E+03  0.99117610678E+03  0.25500000000E-02 0.  1.
         -2   -1    0    0    0  501 -0.00000000000E+00 -0.00000000000E+00 -0.62795074685E+03  0.62795074686E+03  0.25500000000E-02 0. -1.
   -5000001    1    1    2    0    0 -0.12160847791E+03  0.57780341362E+03  0.65326916102E+03  0.91537205739E+03  0.25000000000E+03 0.  0.
    5000001    1    1    2    0    0  0.12160847791E+03 -0.57780341362E+03 -0.29004380110E+03  0.70375479626E+03  0.25000000000E+03 0.  0.
<mgrwt>
<rscale>  0 0.15778590E+04</rscale>
<asrwt>0</asrwt>
<pdfrwt beam="1">  1        2 0.15248863E+00 0.15778590E+04</pdfrwt>
<pdfrwt beam="2">  1       -2 0.96607808E-01 0.15778590E+04</pdfrwt>
<totfact> 0.21970478E+01</totfact>
</mgrwt>
</event>
<event>
 4    1  0.1720876E-005  0.6287839E+03  0.7818608E-02  0.9847425E-01
         -2   -1    0    0    0  501 -0.00000000000E+00  0.00000000000E+00  0.15801951588E+03  0.15801951590E+03  0.25500000000E-02 0. -1.
          2   -1    0    0  501    0  0.00000000000E+00 -0.00000000000E+00 -0.62550685635E+03  0.62550685636E+03  0.25500000000E-02 0.  1.
   -5000001    1    1    2    0    0  0.70561409430E+02 -0.13551608931E+03 -0.37581397532E+03  0.47652876829E+03  0.25000000000E+03 0.  0.
    5000001    1    1    2    0    0 -0.70561409430E+02  0.13551608931E+03 -0.91673365153E+02  0.30699760396E+03  0.25000000000E+03 0.  0.
<mgrwt>
<rscale>  0 0.62878388E+03</rscale>
<asrwt>0</asrwt>
<pdfrwt beam="1">  1        2 0.96231823E-01 0.62878388E+03</pdfrwt>
<pdfrwt beam="2">  1       -2 0.24310695E-01 0.62878388E+03</pdfrwt>
<totfact> 0.71458753E+02</totfact>
</mgrwt>
</event>
<event>
 4    1  0.1720876E-005  0.5401079E+03  0.7818608E-02  0.1003810E+00
          2   -1    0    0  501    0  0.00000000000E+00  0.00000000000E+00  0.27539626055E+03  0.27539626057E+03  0.25500000000E-02 0.  1.
         -2   -1    0    0    0  501 -0.00000000000E+00 -0.00000000000E+00 -0.26481525935E+03  0.26481525936E+03  0.25500000000E-02 0. -1.
   -5000001    1    1    2    0    0  0.81789734495E+02  0.21911985944E+02 -0.51811927604E+02  0.26898730758E+03  0.25000000000E+03 0.  0.
    5000001    1    1    2    0    0 -0.81789734495E+02 -0.21911985944E+02  0.62392928811E+02  0.27122421235E+03  0.25000000000E+03 0.  0.
<mgrwt>
<rscale>  0 0.54010789E+03</rscale>
<asrwt>0</asrwt>
<pdfrwt beam="1">  1        2 0.42368656E-01 0.54010789E+03</pdfrwt>
<pdfrwt beam="2">  1       -2 0.40740809E-01 0.54010789E+03</pdfrwt>
<totfact> 0.69302992E+02</totfact>
</mgrwt>
</event>
<event>
 4    1  0.1720876E-005  0.7349538E+03  0.7818608E-02  0.9659256E-01
         -2   -1    0    0    0  501 -0.00000000000E+00  0.00000000000E+00  0.11851519835E+03  0.11851519838E+03  0.25500000000E-02 0. -1.
          2   -1    0    0  501    0  0.00000000000E+00 -0.00000000000E+00 -0.11394257498E+04  0.11394257498E+04  0.25500000000E-02 0.  1.
   -5000001    1    1    2    0    0  0.12613806855E+03  0.11649842971E+03 -0.15529862933E+03  0.34073503010E+03  0.25000000000E+03 0.  0.
    5000001    1    1    2    0    0 -0.12613806855E+03 -0.11649842971E+03 -0.86561192208E+03  0.91720591805E+03  0.25000000000E+03 0.  0.
<mgrwt>
<rscale>  0 0.73495379E+03</rscale>
<asrwt>0</asrwt>
<pdfrwt beam="1">  1        2 0.17529626E+00 0.73495379E+03</pdfrwt>
<pdfrwt beam="2">  1       -2 0.18233108E-01 0.73495379E+03</pdfrwt>
<totfact> 0.52066386E+02</totfact>
</mgrwt>
</event>
<event>
 4    1  0.1720876E-005  0.7552033E+03  0.7818608E-02  0.9627222E-01
          2   -1    0    0  501    0  0.00000000000E+00  0.00000000000E+00  0.19403998085E+04  0.19403998085E+04  0.25500000000E-02 0.  1.
         -2   -1    0    0    0  501 -0.00000000000E+00 -0.00000000000E+00 -0.73481245933E+02  0.73481245977E+02  0.25500000000E-02 0. -1.
   -5000001    1    1    2    0    0  0.13502244243E+03  0.24314982594E+03  0.79412465612E+03  0.87777381327E+03  0.25000000000E+03 0.  0.
    5000001    1    1    2    0    0 -0.13502244243E+03 -0.24314982594E+03  0.10727939065E+04  0.11361072413E+04  0.25000000000E+03 0.  0.
<mgrwt>
<rscale>  0 0.75520327E+03</rscale>
<asrwt>0</asrwt>
<pdfrwt beam="1">  1        2 0.29852303E+00 0.75520327E+03</pdfrwt>
<pdfrwt beam="2">  1       -2 0.11304808E-01 0.75520327E+03</pdfrwt>
<totfact> 0.41374577E+02</totfact>
</mgrwt>
</event>
<event>
 4    1  0.1720876E-005  0.7726874E+03  0.7818608E-02  0.9600415E-01
         -2   -1    0    0    0  501 -0.00000000000E+00  0.00000000000E+00  0.29455569857E+03  0.29455569858E+03  0.25500000000E-02 0. -1.
          2   -1    0    0  501    0  0.00000000000E+00 -0.00000000000E+00 -0.50673417563E+03  0.50673417563E+03  0.25500000000E-02 0.  1.
   -5000001    1    1    2    0    0 -0.31571065163E+02  0.29051188410E+03 -0.14443856959E+03  0.41079969249E+03  0.25000000000E+03 0.  0.
    5000001    1    1    2    0    0  0.31571065163E+02 -0.29051188410E+03 -0.67739907469E+02  0.39049018173E+03  0.25000000000E+03 0.  0.
<mgrwt>
<rscale>  0 0.77268736E+03</rscale>
<asrwt>0</asrwt>
<pdfrwt beam="1">  1        2 0.77959104E-01 0.77268736E+03</pdfrwt>
<pdfrwt beam="2">  1       -2 0.45316261E-01 0.77268736E+03</pdfrwt>
<totfact> 0.28203230E+02</totfact>
</mgrwt>
</event>
<event>
 4    1  0.1720876E-005  0.7634217E+03  0.7818608E-02  0.9614526E-01
         -2   -1    0    0    0  501 -0.00000000000E+00  0.00000000000E+00  0.26185306215E+03  0.26185306217E+03  0.25500000000E-02 0. -1.
          2   -1    0    0  501    0  0.00000000000E+00 -0.00000000000E+00 -0.55643097722E+03  0.55643097723E+03  0.25500000000E-02 0.  1.
   -5000001    1    1    2    0    0  0.26910892400E+03 -0.94714413999E+02 -0.10165320479E+03  0.39271339070E+03  0.25000000000E+03 0.  0.
    5000001    1    1    2    0    0 -0.26910892400E+03  0.94714413999E+02 -0.19292471028E+03  0.42557064869E+03  0.25000000000E+03 0.  0.
<mgrwt>
<rscale>  0 0.76342165E+03</rscale>
<asrwt>0</asrwt>
<pdfrwt beam="1">  1        2 0.85604765E-01 0.76342165E+03</pdfrwt>
<pdfrwt beam="2">  1       -2 0.40285087E-01 0.76342165E+03</pdfrwt>
<totfact> 0.31887379E+02</totfact>
</mgrwt>
</event>
<event>
 4    1  0.1720876E-005  0.7816708E+03  0.7818608E-02  0.9586933E-01
          2   -1    0    0  501    0  0.00000000000E+00  0.00000000000E+00  0.14984987564E+03  0.14984987566E+03  0.25500000000E-02 0.  1.
         -2   -1    0    0    0  501 -0.00000000000E+00 -0.00000000000E+00 -0.10193690416E+04  0.10193690416E+04  0.25500000000E-02 0. -1.
   -5000001    1    1    2    0    0 -0.21530370621E+03  0.20012540387E+03 -0.34199064429E+03  0.51561949533E+03  0.25000000000E+03 0.  0.
    5000001    1    1    2    0    0  0.21530370621E+03 -0.20012540387E+03 -0.52752852166E+03  0.65359942193E+03  0.25000000000E+03 0.  0.
<mgrwt>
<rscale>  0 0.78167084E+03</rscale>
<asrwt>0</asrwt>
<pdfrwt beam="1">  1        2 0.23053828E-01 0.78167084E+03</pdfrwt>
<pdfrwt beam="2">  1       -2 0.15682600E+00 0.78167084E+03</pdfrwt>
<totfact> 0.64644283E+01</totfact>
</mgrwt>
</event>
<event>
 4    1  0.1720876E-005  0.6314606E+03  0.7818608E-02  0.9842203E-01
         -2   -1    0    0    0  501 -0.00000000000E+00  0.00000000000E+00  0.93189556822E+02  0.93189556857E+02  0.25500000000E-02 0. -1.
          2   -1    0    0  501    0  0.00000000000E+00 -0.00000000000E+00 -0.10697081073E+04  0.10697081073E+04  0.25500000000E-02 0.  1.
   -5000001    1    1    2    0    0 -0.17657475201E+03  0.64780674369E+02 -0.40990043829E+03  0.51564866734E+03  0.25000000000E+03 0.  0.
    5000001    1    1    2    0    0  0.17657475201E+03 -0.64780674369E+02 -0.56661811215E+03  0.64724899678E+03  0.25000000000E+03 0.  0.
<mgrwt>
<rscale>  0 0.63146061E+03</rscale>
<asrwt>0</asrwt>
<pdfrwt beam="1">  1        2 0.16457047E+00 0.63146061E+03</pdfrwt>
<pdfrwt beam="2">  1       -2 0.14336856E-01 0.63146061E+03</pdfrwt>
<totfact> 0.86804551E+02</totfact>
</mgrwt>
</event>
<event>
 4    1  0.1720876E-005  0.9553602E+03  0.7818608E-02  0.9358907E-01
         -2   -1    0    0    0  501 -0.00000000000E+00  0.00000000000E+00  0.21605999683E+03  0.21605999685E+03  0.25500000000E-02 0.  1.
          2   -1    0    0  501    0  0.00000000000E+00 -0.00000000000E+00 -0.10560874920E+04  0.10560874920E+04  0.25500000000E-02 0. -1.
   -5000001    1    1    2    0    0 -0.40372984104E+03  0.39861837839E+02 -0.37602069439E+03  0.60702414554E+03  0.25000000000E+03 0.  0.
    5000001    1    1    2    0    0  0.40372984104E+03 -0.39861837839E+02 -0.46400680079E+03  0.66512334333E+03  0.25000000000E+03 0.  0.
<mgrwt>
<rscale>  0 0.95536016E+03</rscale>
<asrwt>0</asrwt>
<pdfrwt beam="1">  1        2 0.16247500E+00 0.95536016E+03</pdfrwt>
<pdfrwt beam="2">  1       -2 0.33240000E-01 0.95536016E+03</pdfrwt>
<totfact> 0.19595515E+02</totfact>
</mgrwt>
</event>
<event>
 4    1  0.1720876E-005  0.1706794E+04  0.7818608E-02  0.8757499E-01
          2   -1    0    0  501    0  0.00000000000E+00  0.00000000000E+00  0.88966238252E+03  0.88966238252E+03  0.25500000000E-02 0.  1.
         -2   -1    0    0    0  501 -0.00000000000E+00 -0.00000000000E+00 -0.81860991064E+03  0.81860991064E+03  0.25500000000E-02 0. -1.
   -5000001    1    1    2    0    0 -0.81373880413E+02 -0.78122995757E+03  0.25672554759E+03  0.86333652871E+03  0.25000000000E+03 0.  0.
    5000001    1    1    2    0    0  0.81373880413E+02  0.78122995757E+03 -0.18567307571E+03  0.84493576446E+03  0.25000000000E+03 0.  0.
<mgrwt>
<rscale>  0 0.17067940E+04</rscale>
<asrwt>0</asrwt>
<pdfrwt beam="1">  1        2 0.13687113E+00 0.17067940E+04</pdfrwt>
<pdfrwt beam="2">  1       -2 0.12593999E+00 0.17067940E+04</pdfrwt>
<totfact> 0.13334630E+01</totfact>
</mgrwt>
</event>
<event>
 4    1  0.1720876E-005  0.6867183E+03  0.7818608E-02  0.9740219E-01
         -2   -1    0    0    0  501 -0.00000000000E+00  0.00000000000E+00  0.11629004797E+03  0.11629004800E+03  0.25500000000E-02 0. -1.
          2   -1    0    0  501    0  0.00000000000E+00 -0.00000000000E+00 -0.10138057598E+04  0.10138057598E+04  0.25500000000E-02 0.  1.
   -5000001    1    1    2    0    0 -0.58821817976E+02  0.13129954294E+03 -0.75528996375E+03  0.80849397375E+03  0.25000000000E+03 0.  0.
    5000001    1    1    2    0    0  0.58821817976E+02 -0.13129954294E+03 -0.14222574807E+03  0.32160183404E+03  0.25000000000E+03 0.  0.
<mgrwt>
<rscale>  0 0.68671834E+03</rscale>
<asrwt>0</asrwt>
<pdfrwt beam="1">  1        2 0.15597011E+00 0.68671834E+03</pdfrwt>
<pdfrwt beam="2">  1       -2 0.17890777E-01 0.68671834E+03</pdfrwt>
<totfact> 0.64427090E+02</totfact>
</mgrwt>
</event>
<event>
 4    1  0.1720876E-005  0.9613230E+03  0.7818608E-02  0.9352013E-01
          2   -1    0    0  501    0  0.00000000000E+00  0.00000000000E+00  0.18174819329E+04  0.18174819329E+04  0.25500000000E-02 0.  1.
         -2   -1    0    0    0  501 -0.00000000000E+00 -0.00000000000E+00 -0.12711845419E+03  0.12711845422E+03  0.25500000000E-02 0. -1.
   -5000001    1    1    2    0    0  0.34597980407E+03 -0.46068859670E+02  0.12823727288E+04  0.13523328659E+04  0.25000000000E+03 0.  0.
    5000001    1    1    2    0    0 -0.34597980407E+03  0.46068859670E+02  0.40799074989E+03  0.59226752119E+03  0.25000000000E+03 0.  0.
<mgrwt>
<rscale>  0 0.96132303E+03</rscale>
<asrwt>0</asrwt>
<pdfrwt beam="1">  1        2 0.27961258E+00 0.96132303E+03</pdfrwt>
<pdfrwt beam="2">  1       -2 0.19556687E-01 0.96132303E+03</pdfrwt>
<totfact> 0.18805880E+02</totfact>
</mgrwt>
</event>
<event>
 4    1  0.1720876E-005  0.7066427E+03  0.7818608E-02  0.9705939E-01
         -2   -1    0    0    0  501 -0.00000000000E+00  0.00000000000E+00  0.68358770894E+02  0.68358770942E+02  0.25500000000E-02 0. -1.
          2   -1    0    0  501    0  0.00000000000E+00 -0.00000000000E+00 -0.18261879036E+04  0.18261879036E+04  0.25500000000E-02 0.  1.
   -5000001    1    1    2    0    0 -0.20652806171E+03  0.11240873378E+03 -0.65385938841E+03  0.73845897889E+03  0.25000000000E+03 0.  0.
    5000001    1    1    2    0    0  0.20652806171E+03 -0.11240873378E+03 -0.11039697443E+04  0.11560876957E+04  0.25000000000E+03 0.  0.
<mgrwt>
<rscale>  0 0.70664266E+03</rscale>
<asrwt>0</asrwt>
<pdfrwt beam="1">  1        2 0.28095195E+00 0.70664266E+03</pdfrwt>
<pdfrwt beam="2">  1       -2 0.10516735E-01 0.70664266E+03</pdfrwt>
<totfact> 0.53925690E+02</totfact>
</mgrwt>
</event>
<event>
 4    1  0.1720876E-005  0.6969070E+03  0.7818608E-02  0.9722536E-01
         -2   -1    0    0    0  501 -0.00000000000E+00  0.00000000000E+00  0.69848416241E+02  0.69848416287E+02  0.25500000000E-02 0. -1.
          2   -1    0    0  501    0  0.00000000000E+00 -0.00000000000E+00 -0.17383336250E+04  0.17383336250E+04  0.25500000000E-02 0.  1.
   -5000001    1    1    2    0    0  0.51454789196E+01 -0.22555022046E+03 -0.10666057743E+04  0.11185022377E+04  0.25000000000E+03 0.  0.
    5000001    1    1    2    0    0 -0.51454789196E+01  0.22555022046E+03 -0.60187943449E+03  0.68967980365E+03  0.25000000000E+03 0.  0.
<mgrwt>
<rscale>  0 0.69690703E+03</rscale>
<asrwt>0</asrwt>
<pdfrwt beam="1">  1        2 0.26743591E+00 0.69690703E+03</pdfrwt>
<pdfrwt beam="2">  1       -2 0.10745912E-01 0.69690703E+03</pdfrwt>
<totfact> 0.58155429E+02</totfact>
</mgrwt>
</event>
<event>
 4    1  0.1720876E-005  0.5536495E+03  0.7818608E-02  0.1000653E+00
          2   -1    0    0  501    0  0.00000000000E+00  0.00000000000E+00  0.12765198695E+04  0.12765198695E+04  0.25500000000E-02 0.  1.
         -2   -1    0    0    0  501 -0.00000000000E+00 -0.00000000000E+00 -0.60031917670E+02  0.60031917724E+02  0.25500000000E-02 0. -1.
   -5000001    1    1    2    0    0 -0.47561047968E+02  0.98060604449E+02  0.49363255847E+03  0.56396013885E+03  0.25000000000E+03 0.  0.
    5000001    1    1    2    0    0  0.47561047968E+02 -0.98060604449E+02  0.72285539332E+03  0.77259164834E+03  0.25000000000E+03 0.  0.
<mgrwt>
<rscale>  0 0.55364948E+03</rscale>
<asrwt>0</asrwt>
<pdfrwt beam="1">  1        2 0.19638768E+00 0.55364948E+03</pdfrwt>
<pdfrwt beam="2">  1       -2 0.92356794E-02 0.55364948E+03</pdfrwt>
<totfact> 0.13508058E+03</totfact>
</mgrwt>
</event>
<event>
 4    1  0.1720876E-005  0.1047075E+04  0.7818608E-02  0.9258369E-01
         -2   -1    0    0    0  501 -0.00000000000E+00  0.00000000000E+00  0.95294199658E+02  0.95294199692E+02  0.25500000000E-02 0. -1.
          2   -1    0    0  501    0  0.00000000000E+00 -0.00000000000E+00 -0.28762665702E+04  0.28762665702E+04  0.25500000000E-02 0.  1.
   -5000001    1    1    2    0    0  0.33451057222E+02 -0.36680971240E+03 -0.21724632625E+04  0.22176034284E+04  0.25000000000E+03 0.  0.
    5000001    1    1    2    0    0 -0.33451057222E+02  0.36680971240E+03 -0.60850910798E+03  0.75395734152E+03  0.25000000000E+03 0.  0.
<mgrwt>
<rscale>  0 0.10470750E+04</rscale>
<asrwt>0</asrwt>
<pdfrwt beam="1">  1        2 0.44250249E+00 0.10470750E+04</pdfrwt>
<pdfrwt beam="2">  1       -2 0.14660648E-01 0.10470750E+04</pdfrwt>
<totfact> 0.76934578E+01</totfact>
</mgrwt>
</event>
<event>
 4    1  0.1720876E-005  0.1336671E+04  0.7818608E-02  0.9000980E-01
         -2   -1    0    0    0  501 -0.00000000000E+00  0.00000000000E+00  0.49381740615E+03  0.49381740615E+03  0.25500000000E-02 0. -1.
          2   -1    0    0  501    0  0.00000000000E+00 -0.00000000000E+00 -0.90452922278E+03  0.90452922278E+03  0.25500000000E-02 0.  1.
   -5000001    1    1    2    0    0 -0.40121366007E+03  0.16464416157E+03  0.25789947661E+03  0.56310943963E+03  0.25000000000E+03 0.  0.
    5000001    1    1    2    0    0  0.40121366007E+03 -0.16464416157E+03 -0.66861129323E+03  0.83523718931E+03  0.25000000000E+03 0.  0.
<mgrwt>
<rscale>  0 0.13366709E+04</rscale>
<asrwt>0</asrwt>
<pdfrwt beam="1">  1        2 0.13915834E+00 0.13366709E+04</pdfrwt>
<pdfrwt beam="2">  1       -2 0.75971909E-01 0.13366709E+04</pdfrwt>
<totfact> 0.44186913E+01</totfact>
</mgrwt>
</event>
<event>
 4    1  0.1720876E-005  0.7765679E+03  0.7818608E-02  0.9594567E-01
         -2   -1    0    0    0  501 -0.00000000000E+00  0.00000000000E+00  0.63756163404E+02  0.63756163455E+02  0.25500000000E-02 0. -1.
          2   -1    0    0  501    0  0.00000000000E+00 -0.00000000000E+00 -0.23647037788E+04  0.23647037788E+04  0.25500000000E-02 0.  1.
   -5000001    1    1    2    0    0 -0.23146222815E+03 -0.86292092679E+02 -0.63431687942E+03  0.72517514563E+03  0.25000000000E+03 0.  0.
    5000001    1    1    2    0    0  0.23146222815E+03  0.86292092679E+02 -0.16666307359E+04  0.17032847966E+04  0.25000000000E+03 0.  0.
<mgrwt>
<rscale>  0 0.77656794E+03</rscale>
<asrwt>0</asrwt>
<pdfrwt beam="1">  1        2 0.36380051E+00 0.77656794E+03</pdfrwt>
<pdfrwt beam="2">  1       -2 0.98086424E-02 0.77656794E+03</pdfrwt>
<totfact> 0.30424503E+02</totfact>
</mgrwt>
</event>
<event>
 4    1  0.1720876E-005  0.7613808E+03  0.7818608E-02  0.9617663E-01
          2   -1    0    0  501    0  0.00000000000E+00  0.00000000000E+00  0.19577754967E+04  0.19577754967E+04  0.25500000000E-02 0.  1.
         -2   -1    0    0    0  501 -0.00000000000E+00 -0.00000000000E+00 -0.74025430660E+02  0.74025430704E+02  0.25500000000E-02 0. -1.
   -5000001    1    1    2    0    0 -0.15119633198E+03 -0.22387770972E+03  0.68254765407E+03  0.77546944479E+03  0.25000000000E+03 0.  0.
    5000001    1    1    2    0    0  0.15119633198E+03  0.22387770972E+03  0.12012024120E+04  0.12563314826E+04  0.25000000000E+03 0.  0.
<mgrwt>
<rscale>  0 0.76138078E+03</rscale>
<asrwt>0</asrwt>
<pdfrwt beam="1">  1        2 0.30119625E+00 0.76138078E+03</pdfrwt>
<pdfrwt beam="2">  1       -2 0.11388527E-01 0.76138078E+03</pdfrwt>
<totfact> 0.39975425E+02</totfact>
</mgrwt>
</event>
<event>
 4    1  0.1720876E-005  0.6922483E+03  0.7818608E-02  0.9730581E-01
          2   -1    0    0  501    0  0.00000000000E+00  0.00000000000E+00  0.11158904256E+04  0.11158904256E+04  0.25500000000E-02 0.  1.
         -2   -1    0    0    0  501 -0.00000000000E+00 -0.00000000000E+00 -0.10735995328E+03  0.10735995331E+03  0.25500000000E-02 0. -1.
   -5000001    1    1    2    0    0  0.22762836707E+03  0.56344939424E+02  0.58924118405E+03  0.68168511695E+03  0.25000000000E+03 0.  0.
    5000001    1    1    2    0    0 -0.22762836707E+03 -0.56344939424E+02  0.41928928826E+03  0.54156526194E+03  0.25000000000E+03 0.  0.
<mgrwt>
<rscale>  0 0.69224835E+03</rscale>
<asrwt>0</asrwt>
<pdfrwt beam="1">  1        2 0.17167544E+00 0.69224835E+03</pdfrwt>
<pdfrwt beam="2">  1       -2 0.16516917E-01 0.69224835E+03</pdfrwt>
<totfact> 0.63872292E+02</totfact>
</mgrwt>
</event>
<event>
 4    1  0.1720876E-005  0.6253608E+03  0.7818608E-02  0.9854144E-01
         -2   -1    0    0    0  501 -0.00000000000E+00  0.00000000000E+00  0.14632640113E+03  0.14632640115E+03  0.25500000000E-02 0. -1.
          2   -1    0    0  501    0  0.00000000000E+00 -0.00000000000E+00 -0.66815708714E+03  0.66815708714E+03  0.25500000000E-02 0.  1.
   -5000001    1    1    2    0    0 -0.70078127026E+01 -0.76976620020E+02 -0.48383316489E+03  0.55006276089E+03  0.25000000000E+03 0.  0.
    5000001    1    1    2    0    0  0.70078127026E+01  0.76976620020E+02 -0.37997521119E+02  0.26442072740E+03  0.25000000000E+03 0.  0.
<mgrwt>
<rscale>  0 0.62536077E+03</rscale>
<asrwt>0</asrwt>
<pdfrwt beam="1">  1        2 0.10279340E+00 0.62536077E+03</pdfrwt>
<pdfrwt beam="2">  1       -2 0.22511754E-01 0.62536077E+03</pdfrwt>
<totfact> 0.75591821E+02</totfact>
</mgrwt>
</event>
<event>
 4    1  0.1720876E-005  0.1026896E+04  0.7818608E-02  0.9279528E-01
          2   -1    0    0  501    0  0.00000000000E+00  0.00000000000E+00  0.12884169240E+04  0.12884169240E+04  0.25500000000E-02 0.  1.
         -2   -1    0    0    0  501 -0.00000000000E+00 -0.00000000000E+00 -0.20461449353E+03  0.20461449354E+03  0.25500000000E-02 0. -1.
   -5000001    1    1    2    0    0 -0.36202297492E+03 -0.95939475872E+02  0.18320901793E+03  0.48613841820E+03  0.25000000000E+03 0.  0.
    5000001    1    1    2    0    0  0.36202297492E+03  0.95939475872E+02  0.90059341253E+03  0.10068929993E+04  0.25000000000E+03 0.  0.
<mgrwt>
<rscale>  0 0.10268959E+04</rscale>
<asrwt>0</asrwt>
<pdfrwt beam="1">  1        2 0.19821798E+00 0.10268959E+04</pdfrwt>
<pdfrwt beam="2">  1       -2 0.31479154E-01 0.10268959E+04</pdfrwt>
<totfact> 0.15664671E+02</totfact>
</mgrwt>
</event>
<event>
 4    1  0.1720876E-005  0.6289590E+03  0.7818608E-02  0.9847082E-01
         -2   -1    0    0    0  501 -0.00000000000E+00  0.00000000000E+00  0.44363649832E+02  0.44363649905E+02  0.25500000000E-02 0. -1.
          2   -1    0    0  501    0  0.00000000000E+00 -0.00000000000E+00 -0.22292427268E+04  0.22292427268E+04  0.25500000000E-02 0.  1.
   -5000001    1    1    2    0    0  0.16531007109E+03  0.24330641786E+02 -0.75959744656E+03  0.81695023138E+03  0.25000000000E+03 0.  0.
    5000001    1    1    2    0    0 -0.16531007109E+03 -0.24330641786E+02 -0.14252816304E+04  0.14566561453E+04  0.25000000000E+03 0.  0.
<mgrwt>
<rscale>  0 0.62895896E+03</rscale>
<asrwt>0</asrwt>
<pdfrwt beam="1">  1        2 0.34296033E+00 0.62895896E+03</pdfrwt>
<pdfrwt beam="2">  1       -2 0.68251786E-02 0.62895896E+03</pdfrwt>
<totfact> 0.65454440E+02</totfact>
</mgrwt>
</event>
<event>
 4    1  0.1720876E-005  0.7063883E+03  0.7818608E-02  0.9706369E-01
         -2   -1    0    0    0  501 -0.00000000000E+00  0.00000000000E+00  0.21424862183E+03  0.21424862184E+03  0.25500000000E-02 0. -1.
          2   -1    0    0  501    0  0.00000000000E+00 -0.00000000000E+00 -0.58224931304E+03  0.58224931304E+03  0.25500000000E-02 0.  1.
   -5000001    1    1    2    0    0  0.57113651846E+02  0.24246131713E+03 -0.16818816268E+03  0.39094336878E+03  0.25000000000E+03 0.  0.
    5000001    1    1    2    0    0 -0.57113651846E+02 -0.24246131713E+03 -0.19981252853E+03  0.40555456610E+03  0.25000000000E+03 0.  0.
<mgrwt>
<rscale>  0 0.70638831E+03</rscale>
<asrwt>0</asrwt>
<pdfrwt beam="1">  1        2 0.89576817E-01 0.70638831E+03</pdfrwt>
<pdfrwt beam="2">  1       -2 0.32961327E-01 0.70638831E+03</pdfrwt>
<totfact> 0.44463166E+02</totfact>
</mgrwt>
</event>
<event>
 4    1  0.1720876E-005  0.7011230E+03  0.7818608E-02  0.9715314E-01
         -2   -1    0    0    0  501 -0.00000000000E+00  0.00000000000E+00  0.66608169911E+02  0.66608169960E+02  0.25500000000E-02 0. -1.
          2   -1    0    0  501    0  0.00000000000E+00 -0.00000000000E+00 -0.18450192165E+04  0.18450192165E+04  0.25500000000E-02 0.  1.
   -5000001    1    1    2    0    0 -0.50696694407E+02 -0.24037066216E+03 -0.90752472157E+03  0.97285627423E+03  0.25000000000E+03 0.  0.
    5000001    1    1    2    0    0  0.50696694407E+02  0.24037066216E+03 -0.87088632499E+03  0.93877111220E+03  0.25000000000E+03 0.  0.
<mgrwt>
<rscale>  0 0.70112297E+03</rscale>
<asrwt>0</asrwt>
<pdfrwt beam="1">  1        2 0.28384907E+00 0.70112297E+03</pdfrwt>
<pdfrwt beam="2">  1       -2 0.10247412E-01 0.70112297E+03</pdfrwt>
<totfact> 0.54966015E+02</totfact>
</mgrwt>
</event>
<event>
 4    1  0.1720876E-005  0.9824177E+03  0.7818608E-02  0.9328042E-01
          2   -1    0    0  501    0  0.00000000000E+00  0.00000000000E+00  0.24878763085E+03  0.24878763086E+03  0.25500000000E-02 0.  1.
         -2   -1    0    0    0  501 -0.00000000000E+00 -0.00000000000E+00 -0.96984778614E+03  0.96984778614E+03  0.25500000000E-02 0. -1.
   -5000001    1    1    2    0    0  0.34354412209E+03  0.15830537360E+03 -0.59491509078E+03  0.74800208581E+03  0.25000000000E+03 0.  0.
    5000001    1    1    2    0    0 -0.34354412209E+03 -0.15830537360E+03 -0.12614506451E+03  0.47063333120E+03  0.25000000000E+03 0.  0.
<mgrwt>
<rscale>  0 0.98241770E+03</rscale>
<asrwt>0</asrwt>
<pdfrwt beam="1">  1        2 0.38275020E-01 0.98241770E+03</pdfrwt>
<pdfrwt beam="2">  1       -2 0.14920735E+00 0.98241770E+03</pdfrwt>
<totfact> 0.41054336E+01</totfact>
</mgrwt>
</event>
<event>
 4    1  0.1720876E-005  0.8286284E+03  0.7818608E-02  0.9519479E-01
          2   -1    0    0  501    0  0.00000000000E+00  0.00000000000E+00  0.25127207565E+04  0.25127207565E+04  0.25500000000E-02 0.  1.
         -2   -1    0    0    0  501 -0.00000000000E+00 -0.00000000000E+00 -0.68314893420E+02  0.68314893467E+02  0.25500000000E-02 0. -1.
   -5000001    1    1    2    0    0 -0.66163653018E+02  0.19528282922E+03  0.41809889464E+03  0.52897986547E+03  0.25000000000E+03 0.  0.
    5000001    1    1    2    0    0  0.66163653018E+02 -0.19528282922E+03  0.20263069685E+04  0.20520557845E+04  0.25000000000E+03 0.  0.
<mgrwt>
<rscale>  0 0.82862839E+03</rscale>
<asrwt>0</asrwt>
<pdfrwt beam="1">  1        2 0.38657238E+00 0.82862839E+03</pdfrwt>
<pdfrwt beam="2">  1       -2 0.10509985E-01 0.82862839E+03</pdfrwt>
<totfact> 0.22322939E+02</totfact>
</mgrwt>
</event>
<event>
 4    1  0.1720876E-005  0.7943716E+03  0.7818608E-02  0.9568200E-01
          2   -1    0    0  501    0  0.00000000000E+00  0.00000000000E+00  0.43964327414E+03  0.43964327414E+03  0.25500000000E-02 0.  1.
         -2   -1    0    0    0  501 -0.00000000000E+00 -0.00000000000E+00 -0.35882853167E+03  0.35882853168E+03  0.25500000000E-02 0. -1.
   -5000001    1    1    2    0    0 -0.24815533092E+02  0.29118703877E+03  0.14017110730E+03  0.40933316693E+03  0.25000000000E+03 0.  0.
    5000001    1    1    2    0    0  0.24815533092E+02 -0.29118703877E+03 -0.59356364832E+02  0.38913863889E+03  0.25000000000E+03 0.  0.
<mgrwt>
<rscale>  0 0.79437158E+03</rscale>
<asrwt>0</asrwt>
<pdfrwt beam="1">  1        2 0.67637426E-01 0.79437158E+03</pdfrwt>
<pdfrwt beam="2">  1       -2 0.55204390E-01 0.79437158E+03</pdfrwt>
<totfact> 0.22202685E+02</totfact>
</mgrwt>
</event>
<event>
 4    1  0.1720876E-005  0.6643348E+03  0.7818608E-02  0.9780247E-01
         -2   -1    0    0    0  501 -0.00000000000E+00  0.00000000000E+00  0.59659712101E+02  0.59659712155E+02  0.25500000000E-02 0. -1.
          2   -1    0    0  501    0  0.00000000000E+00 -0.00000000000E+00 -0.18494084646E+04  0.18494084646E+04  0.25500000000E-02 0.  1.
   -5000001    1    1    2    0    0 -0.19713909109E+03 -0.73916699559E+02 -0.72468037972E+03  0.79497745406E+03  0.25000000000E+03 0.  0.
    5000001    1    1    2    0    0  0.19713909109E+03  0.73916699559E+02 -0.10650683728E+04  0.11140907227E+04  0.25000000000E+03 0.  0.
<mgrwt>
<rscale>  0 0.66433478E+03</rscale>
<asrwt>0</asrwt>
<pdfrwt beam="1">  1        2 0.28452434E+00 0.66433478E+03</pdfrwt>
<pdfrwt beam="2">  1       -2 0.91784187E-02 0.66433478E+03</pdfrwt>
<totfact> 0.65516751E+02</totfact>
</mgrwt>
</event>
<event>
 4    1  0.1720876E-005  0.5741250E+03  0.7818608E-02  0.9960592E-01
         -2   -1    0    0    0  501 -0.00000000000E+00  0.00000000000E+00  0.20914137241E+03  0.20914137243E+03  0.25500000000E-02 0. -1.
          2   -1    0    0  501    0  0.00000000000E+00 -0.00000000000E+00 -0.39401520560E+03  0.39401520561E+03  0.25500000000E-02 0.  1.
   -5000001    1    1    2    0    0  0.13550495343E+03 -0.23899361963E+02 -0.12519217847E+03  0.31161812119E+03  0.25000000000E+03 0.  0.
    5000001    1    1    2    0    0 -0.13550495343E+03  0.23899361963E+02 -0.59681654717E+02  0.29153845684E+03  0.25000000000E+03 0.  0.
<mgrwt>
<rscale>  0 0.57412501E+03</rscale>
<asrwt>0</asrwt>
<pdfrwt beam="1">  1        2 0.60617724E-01 0.57412501E+03</pdfrwt>
<pdfrwt beam="2">  1       -2 0.32175596E-01 0.57412501E+03</pdfrwt>
<totfact> 0.73095855E+02</totfact>
</mgrwt>
</event>
<event>
 4    1  0.1720876E-005  0.5842570E+03  0.7818608E-02  0.9938617E-01
         -2   -1    0    0    0  501 -0.00000000000E+00  0.00000000000E+00  0.32491397695E+02  0.32491397795E+02  0.25500000000E-02 0. -1.
          2   -1    0    0  501    0  0.00000000000E+00 -0.00000000000E+00 -0.26265125812E+04  0.26265125812E+04  0.25500000000E-02 0.  1.
   -5000001    1    1    2    0    0 -0.10769555372E+03  0.10270421922E+03 -0.14167807929E+04  0.14463451539E+04  0.25000000000E+03 0.  0.
    5000001    1    1    2    0    0  0.10769555372E+03 -0.10270421922E+03 -0.11772403906E+04  0.12126588251E+04  0.25000000000E+03 0.  0.
<mgrwt>
<rscale>  0 0.58425702E+03</rscale>
<asrwt>0</asrwt>
<pdfrwt beam="1">  1        2 0.40407869E+00 0.58425702E+03</pdfrwt>
<pdfrwt beam="2">  1       -2 0.49986786E-02 0.58425702E+03</pdfrwt>
<totfact> 0.64128792E+02</totfact>
</mgrwt>
</event>
<event>
 4    1  0.1720876E-005  0.7430974E+03  0.7818608E-02  0.9646242E-01
         -2   -1    0    0    0  501 -0.00000000000E+00  0.00000000000E+00  0.30289504540E+02  0.30289504648E+02  0.25500000000E-02 0. -1.
          2   -1    0    0  501    0  0.00000000000E+00 -0.00000000000E+00 -0.45576325966E+04  0.45576325966E+04  0.25500000000E-02 0.  1.
   -5000001    1    1    2    0    0  0.58830653677E+02 -0.88916209033E+02 -0.69953545307E+03  0.75047783987E+03  0.25000000000E+03 0.  0.
    5000001    1    1    2    0    0 -0.58830653677E+02  0.88916209033E+02 -0.38278076390E+04  0.38374442614E+04  0.25000000000E+03 0.  0.
<mgrwt>
<rscale>  0 0.74309739E+03</rscale>
<asrwt>0</asrwt>
<pdfrwt beam="1">  1        2 0.70117370E+00 0.74309739E+03</pdfrwt>
<pdfrwt beam="2">  1       -2 0.46599274E-02 0.74309739E+03</pdfrwt>
<totfact> 0.28284832E+01</totfact>
</mgrwt>
</event>
<event>
 4    1  0.1720876E-005  0.6654936E+03  0.7818608E-02  0.9778133E-01
         -2   -1    0    0    0  501 -0.00000000000E+00  0.00000000000E+00  0.92065641796E+02  0.92065641832E+02  0.25500000000E-02 0. -1.
          2   -1    0    0  501    0  0.00000000000E+00 -0.00000000000E+00 -0.12026250442E+04  0.12026250442E+04  0.25500000000E-02 0.  1.
   -5000001    1    1    2    0    0 -0.88458895131E+01 -0.21709642818E+03 -0.61714828917E+03  0.70041496252E+03  0.25000000000E+03 0.  0.
    5000001    1    1    2    0    0  0.88458895131E+01  0.21709642818E+03 -0.49341111319E+03  0.59427572347E+03  0.25000000000E+03 0.  0.
<mgrwt>
<rscale>  0 0.66549364E+03</rscale>
<asrwt>0</asrwt>
<pdfrwt beam="1">  1        2 0.18501923E+00 0.66549364E+03</pdfrwt>
<pdfrwt beam="2">  1       -2 0.14163946E-01 0.66549364E+03</pdfrwt>
<totfact> 0.73605588E+02</totfact>
</mgrwt>
</event>
<event>
 4    1  0.1720876E-005  0.7819117E+03  0.7818608E-02  0.9586575E-01
          2   -1    0    0  501    0  0.00000000000E+00  0.00000000000E+00  0.19362654982E+04  0.19362654982E+04  0.25500000000E-02 0.  1.
         -2   -1    0    0    0  501 -0.00000000000E+00 -0.00000000000E+00 -0.78938803586E+02  0.78938803627E+02  0.25500000000E-02 0. -1.
   -5000001    1    1    2    0    0 -0.27357396369E+03 -0.97151191681E+01  0.12485926445E+04  0.13024671547E+04  0.25000000000E+03 0.  0.
    5000001    1    1    2    0    0  0.27357396369E+03  0.97151191681E+01  0.60873405017E+03  0.71273714719E+03  0.25000000000E+03 0.  0.
<mgrwt>
<rscale>  0 0.78191171E+03</rscale>
<asrwt>0</asrwt>
<pdfrwt beam="1">  1        2 0.29788700E+00 0.78191171E+03</pdfrwt>
<pdfrwt beam="2">  1       -2 0.12144431E-01 0.78191171E+03</pdfrwt>
<totfact> 0.36880651E+02</totfact>
</mgrwt>
</event>
<event>
 4    1  0.1720876E-005  0.9504443E+03  0.7818608E-02  0.9364631E-01
         -2   -1    0    0    0  501 -0.00000000000E+00  0.00000000000E+00  0.85020293968E+02  0.85020294006E+02  0.25500000000E-02 0. -1.
          2   -1    0    0  501    0  0.00000000000E+00 -0.00000000000E+00 -0.26562610125E+04  0.26562610125E+04  0.25500000000E-02 0.  1.
   -5000001    1    1    2    0    0 -0.33046813061E+02  0.38372003405E+03 -0.93234360696E+03  0.10392775172E+04  0.25000000000E+03 0.  0.
    5000001    1    1    2    0    0  0.33046813061E+02 -0.38372003405E+03 -0.16388971115E+04  0.17020037892E+04  0.25000000000E+03 0.  0.
<mgrwt>
<rscale>  0 0.95044430E+03</rscale>
<asrwt>0</asrwt>
<pdfrwt beam="1">  1        2 0.40865548E+00 0.95044430E+03</pdfrwt>
<pdfrwt beam="2">  1       -2 0.13080047E-01 0.95044430E+03</pdfrwt>
<totfact> 0.12706163E+02</totfact>
</mgrwt>
</event>
<event>
 4    1  0.1720876E-005  0.7851555E+03  0.7818608E-02  0.9581756E-01
         -2   -1    0    0    0  501 -0.00000000000E+00  0.00000000000E+00  0.10005531556E+03  0.10005531559E+03  0.25500000000E-02 0. -1.
          2   -1    0    0  501    0  0.00000000000E+00 -0.00000000000E+00 -0.15403210052E+04  0.15403210052E+04  0.25500000000E-02 0.  1.
   -5000001    1    1    2    0    0 -0.67438316331E+02  0.29408304804E+03 -0.77064482541E+03  0.86453814987E+03  0.25000000000E+03 0.  0.
    5000001    1    1    2    0    0  0.67438316331E+02 -0.29408304804E+03 -0.66962086425E+03  0.77583817094E+03  0.25000000000E+03 0.  0.
<mgrwt>
<rscale>  0 0.78515554E+03</rscale>
<asrwt>0</asrwt>
<pdfrwt beam="1">  1        2 0.23697245E+00 0.78515554E+03</pdfrwt>
<pdfrwt beam="2">  1       -2 0.15393127E-01 0.78515554E+03</pdfrwt>
<totfact> 0.40846441E+02</totfact>
</mgrwt>
</event>
<event>
 4    1  0.1720876E-005  0.8153796E+03  0.7818608E-02  0.9538019E-01
         -2   -1    0    0    0  501 -0.00000000000E+00  0.00000000000E+00  0.31486600160E+03  0.31486600161E+03  0.25500000000E-02 0. -1.
          2   -1    0    0  501    0  0.00000000000E+00 -0.00000000000E+00 -0.52787850206E+03  0.52787850207E+03  0.25500000000E-02 0.  1.
   -5000001    1    1    2    0    0 -0.31007079433E+03 -0.21297341269E+02 -0.19333989350E+02  0.39933854984E+03  0.25000000000E+03 0.  0.
    5000001    1    1    2    0    0  0.31007079433E+03  0.21297341269E+02 -0.19367851111E+03  0.44340595385E+03  0.25000000000E+03 0.  0.
<mgrwt>
<rscale>  0 0.81537965E+03</rscale>
<asrwt>0</asrwt>
<pdfrwt beam="1">  1        2 0.81212077E-01 0.81537965E+03</pdfrwt>
<pdfrwt beam="2">  1       -2 0.48440923E-01 0.81537965E+03</pdfrwt>
<totfact> 0.23477013E+02</totfact>
</mgrwt>
</event>
<event>
 4    1  0.1720876E-005  0.6132248E+03  0.7818608E-02  0.9878342E-01
         -2   -1    0    0    0  501 -0.00000000000E+00  0.00000000000E+00  0.18219021247E+03  0.18219021248E+03  0.25500000000E-02 0. -1.
          2   -1    0    0  501    0  0.00000000000E+00 -0.00000000000E+00 -0.51600552897E+03  0.51600552897E+03  0.25500000000E-02 0.  1.
   -5000001    1    1    2    0    0 -0.97774742605E+02 -0.14344661914E+02 -0.33480432486E+03  0.42937117458E+03  0.25000000000E+03 0.  0.
    5000001    1    1    2    0    0  0.97774742605E+02  0.14344661914E+02  0.98900836297E+00  0.26882456687E+03  0.25000000000E+03 0.  0.
<mgrwt>
<rscale>  0 0.61322478E+03</rscale>
<asrwt>0</asrwt>
<pdfrwt beam="1">  1        2 0.79385465E-01 0.61322478E+03</pdfrwt>
<pdfrwt beam="2">  1       -2 0.28029264E-01 0.61322478E+03</pdfrwt>
<totfact> 0.69403694E+02</totfact>
</mgrwt>
</event>
<event>
 4    1  0.1720876E-005  0.7575429E+03  0.7818608E-02  0.9623591E-01
          2   -1    0    0  501    0  0.00000000000E+00  0.00000000000E+00  0.18205694384E+04  0.18205694384E+04  0.25500000000E-02 0.  1.
         -2   -1    0    0    0  501 -0.00000000000E+00 -0.00000000000E+00 -0.78803802317E+02  0.78803802359E+02  0.25500000000E-02 0. -1.
   -5000001    1    1    2    0    0 -0.28202827286E+02  0.17818612577E+03  0.14226106797E+04  0.14556327974E+04  0.25000000000E+03 0.  0.
    5000001    1    1    2    0    0  0.28202827286E+02 -0.17818612577E+03  0.31915495637E+03  0.44374044335E+03  0.25000000000E+03 0.  0.
<mgrwt>
<rscale>  0 0.75754285E+03</rscale>
<asrwt>0</asrwt>
<pdfrwt beam="1">  1        2 0.28008764E+00 0.75754285E+03</pdfrwt>
<pdfrwt beam="2">  1       -2 0.12123661E-01 0.75754285E+03</pdfrwt>
<totfact> 0.42840514E+02</totfact>
</mgrwt>
</event>
<event>
 4    1  0.1720876E-005  0.7730150E+03  0.7818608E-02  0.9599920E-01
          2   -1    0    0  501    0  0.00000000000E+00  0.00000000000E+00  0.11817911275E+04  0.11817911275E+04  0.25500000000E-02 0.  1.
         -2   -1    0    0    0  501 -0.00000000000E+00 -0.00000000000E+00 -0.12640818076E+03  0.12640818079E+03  0.25500000000E-02 0. -1.
   -5000001    1    1    2    0    0 -0.21762316008E+03 -0.48370359944E+02  0.85404664655E+03  0.91738498244E+03  0.25000000000E+03 0.  0.
    5000001    1    1    2    0    0  0.21762316008E+03  0.48370359944E+02  0.20133630021E+03  0.39081432587E+03  0.25000000000E+03 0.  0.
<mgrwt>
<rscale>  0 0.77301505E+03</rscale>
<asrwt>0</asrwt>
<pdfrwt beam="1">  1        2 0.18181401E+00 0.77301505E+03</pdfrwt>
<pdfrwt beam="2">  1       -2 0.19447413E-01 0.77301505E+03</pdfrwt>
<totfact> 0.43831812E+02</totfact>
</mgrwt>
</event>
<event>
 4    1  0.1720876E-005  0.8129728E+03  0.7818608E-02  0.9541427E-01
          2   -1    0    0  501    0  0.00000000000E+00  0.00000000000E+00  0.89549214142E+03  0.89549214143E+03  0.25500000000E-02 0. -1.
         -2   -1    0    0    0  501 -0.00000000000E+00 -0.00000000000E+00 -0.18451442043E+03  0.18451442045E+03  0.25500000000E-02 0.  1.
   -5000001    1    1    2    0    0 -0.57638914356E+02  0.31479719293E+03  0.33203489831E+03  0.52456333347E+03  0.25000000000E+03 0.  0.
    5000001    1    1    2    0    0  0.57638914356E+02 -0.31479719293E+03  0.37894282268E+03  0.55544322841E+03  0.25000000000E+03 0.  0.
<mgrwt>
<rscale>  0 0.81297285E+03</rscale>
<asrwt>0</asrwt>
<pdfrwt beam="1">  1        2 0.13776802E+00 0.81297285E+03</pdfrwt>
<pdfrwt beam="2">  1       -2 0.28386834E-01 0.81297285E+03</pdfrwt>
<totfact> 0.33684432E+02</totfact>
</mgrwt>
</event>
<event>
 4    1  0.1720876E-005  0.8926885E+03  0.7818608E-02  0.9434768E-01
         -2   -1    0    0    0  501 -0.00000000000E+00  0.00000000000E+00  0.34165890229E+03  0.34165890230E+03  0.25500000000E-02 0.  1.
          2   -1    0    0  501    0  0.00000000000E+00 -0.00000000000E+00 -0.58310545907E+03  0.58310545908E+03  0.25500000000E-02 0. -1.
   -5000001    1    1    2    0    0 -0.20118051013E+03 -0.31011669913E+03 -0.12982571463E+03  0.46475873409E+03  0.25000000000E+03 0.  0.
    5000001    1    1    2    0    0  0.20118051013E+03  0.31011669913E+03 -0.11162084216E+03  0.46000562729E+03  0.25000000000E+03 0.  0.
<mgrwt>
<rscale>  0 0.89268846E+03</rscale>
<asrwt>0</asrwt>
<pdfrwt beam="1">  1        2 0.89708532E-01 0.89268846E+03</pdfrwt>
<pdfrwt beam="2">  1       -2 0.52562908E-01 0.89268846E+03</pdfrwt>
<totfact> 0.17599428E+02</totfact>
</mgrwt>
</event>
<event>
 4    1  0.1720876E-005  0.6802225E+03  0.7818608E-02  0.9751665E-01
         -2   -1    0    0    0  501 -0.00000000000E+00  0.00000000000E+00  0.17562524949E+03  0.17562524951E+03  0.25500000000E-02 0. -1.
          2   -1    0    0  501    0  0.00000000000E+00 -0.00000000000E+00 -0.65865055211E+03  0.65865055211E+03  0.25500000000E-02 0.  1.
   -5000001    1    1    2    0    0  0.17618799249E+03 -0.67771879310E+02 -0.79077963821E+02  0.32309218604E+03  0.25000000000E+03 0.  0.
    5000001    1    1    2    0    0 -0.17618799249E+03  0.67771879310E+02 -0.40394733879E+03  0.51118361558E+03  0.25000000000E+03 0.  0.
<mgrwt>
<rscale>  0 0.68022252E+03</rscale>
<asrwt>0</asrwt>
<pdfrwt beam="1">  1        2 0.10133085E+00 0.68022252E+03</pdfrwt>
<pdfrwt beam="2">  1       -2 0.27019269E-01 0.68022252E+03</pdfrwt>
<totfact> 0.55358159E+02</totfact>
</mgrwt>
</event>
<event>
 4    1  0.1720876E-005  0.7966182E+03  0.7818608E-02  0.9564925E-01
          2   -1    0    0  501    0  0.00000000000E+00  0.00000000000E+00  0.26319690219E+03  0.26319690220E+03  0.25500000000E-02 0.  1.
         -2   -1    0    0    0  501 -0.00000000000E+00 -0.00000000000E+00 -0.60278114608E+03  0.60278114609E+03  0.25500000000E-02 0. -1.
   -5000001    1    1    2    0    0  0.21422156056E+03  0.28619283622E+02  0.71919056776E+02  0.33820451081E+03  0.25000000000E+03 0.  0.
    5000001    1    1    2    0    0 -0.21422156056E+03 -0.28619283622E+02 -0.41150330067E+03  0.52777353748E+03  0.25000000000E+03 0.  0.
<mgrwt>
<rscale>  0 0.79661818E+03</rscale>
<asrwt>0</asrwt>
<pdfrwt beam="1">  1        2 0.40491831E-01 0.79661818E+03</pdfrwt>
<pdfrwt beam="2">  1       -2 0.92735561E-01 0.79661818E+03</pdfrwt>
<totfact> 0.12620319E+02</totfact>
</mgrwt>
</event>
<event>
 4    1  0.1720876E-005  0.7197424E+03  0.7818608E-02  0.9684053E-01
         -2   -1    0    0    0  501 -0.00000000000E+00  0.00000000000E+00  0.11767422817E+03  0.11767422820E+03  0.25500000000E-02 0. -1.
          2   -1    0    0  501    0  0.00000000000E+00 -0.00000000000E+00 -0.11005577044E+04  0.11005577044E+04  0.25500000000E-02 0.  1.
   -5000001    1    1    2    0    0 -0.20833263453E+03 -0.15362776349E+03 -0.49451747754E+03  0.61159750810E+03  0.25000000000E+03 0.  0.
    5000001    1    1    2    0    0  0.20833263453E+03  0.15362776349E+03 -0.48836599872E+03  0.60663442454E+03  0.25000000000E+03 0.  0.
<mgrwt>
<rscale>  0 0.71974239E+03</rscale>
<asrwt>0</asrwt>
<pdfrwt beam="1">  1        2 0.16931656E+00 0.71974239E+03</pdfrwt>
<pdfrwt beam="2">  1       -2 0.18103728E-01 0.71974239E+03</pdfrwt>
<totfact> 0.55688934E+02</totfact>
</mgrwt>
</event>
<event>
 4    1  0.1720876E-005  0.1323348E+04  0.7818608E-02  0.9011253E-01
         -2   -1    0    0    0  501 -0.00000000000E+00  0.00000000000E+00  0.28977726673E+03  0.28977726674E+03  0.25500000000E-02 0. -1.
          2   -1    0    0  501    0  0.00000000000E+00 -0.00000000000E+00 -0.15108576442E+04  0.15108576442E+04  0.25500000000E-02 0.  1.
   -5000001    1    1    2    0    0 -0.38097951349E+03 -0.38130487145E+03 -0.21437021911E+03  0.63165923213E+03  0.25000000000E+03 0.  0.
    5000001    1    1    2    0    0  0.38097951349E+03  0.38130487145E+03 -0.10067101583E+04  0.11689756788E+04  0.25000000000E+03 0.  0.
<mgrwt>
<rscale>  0 0.13233476E+04</rscale>
<asrwt>0</asrwt>
<pdfrwt beam="1">  1        2 0.23243963E+00 0.13233476E+04</pdfrwt>
<pdfrwt beam="2">  1       -2 0.44581119E-01 0.13233476E+04</pdfrwt>
<totfact> 0.58423512E+01</totfact>
</mgrwt>
</event>
<event>
 4    1  0.1720876E-005  0.1069890E+04  0.7818608E-02  0.9235046E-01
          2   -1    0    0  501    0  0.00000000000E+00  0.00000000000E+00  0.69478859199E+03  0.69478859199E+03  0.25500000000E-02 0.  1.
         -2   -1    0    0    0  501 -0.00000000000E+00 -0.00000000000E+00 -0.41187530563E+03  0.41187530564E+03  0.25500000000E-02 0. -1.
   -5000001    1    1    2    0    0 -0.34326264522E+03 -0.30424285747E+03  0.26062639824E+03  0.58379712176E+03  0.25000000000E+03 0.  0.
    5000001    1    1    2    0    0  0.34326264522E+03  0.30424285747E+03  0.22286888120E+02  0.52286677587E+03  0.25000000000E+03 0.  0.
<mgrwt>
<rscale>  0 0.10698902E+04</rscale>
<asrwt>0</asrwt>
<pdfrwt beam="1">  1        2 0.10689055E+00 0.10698902E+04</pdfrwt>
<pdfrwt beam="2">  1       -2 0.63365432E-01 0.10698902E+04</pdfrwt>
<totfact> 0.94912582E+01</totfact>
</mgrwt>
</event>
<event>
 4    1  0.1720876E-005  0.6001120E+03  0.7818608E-02  0.9905174E-01
          2   -1    0    0  501    0  0.00000000000E+00  0.00000000000E+00  0.83588998788E+03  0.83588998788E+03  0.25500000000E-02 0.  1.
         -2   -1    0    0    0  501 -0.00000000000E+00 -0.00000000000E+00 -0.10770985381E+03  0.10770985384E+03  0.25500000000E-02 0. -1.
   -5000001    1    1    2    0    0 -0.10284471623E+03  0.46609378975E+02  0.55527484100E+03  0.61933804898E+03  0.25000000000E+03 0.  0.
    5000001    1    1    2    0    0  0.10284471623E+03 -0.46609378975E+02  0.17290529307E+03  0.32426179275E+03  0.25000000000E+03 0.  0.
<mgrwt>
<rscale>  0 0.60011195E+03</rscale>
<asrwt>0</asrwt>
<pdfrwt beam="1">  1        2 0.12859847E+00 0.60011195E+03</pdfrwt>
<pdfrwt beam="2">  1       -2 0.16570746E-01 0.60011195E+03</pdfrwt>
<totfact> 0.96569710E+02</totfact>
</mgrwt>
</event>
<event>
 4    1  0.1720876E-005  0.7671279E+03  0.7818608E-02  0.9608856E-01
         -2   -1    0    0    0  501 -0.00000000000E+00  0.00000000000E+00  0.94576182294E+02  0.94576182328E+02  0.25500000000E-02 0. -1.
          2   -1    0    0  501    0  0.00000000000E+00 -0.00000000000E+00 -0.15555850260E+04  0.15555850260E+04  0.25500000000E-02 0.  1.
   -5000001    1    1    2    0    0 -0.20514647610E+03 -0.18711324150E+03 -0.91710267348E+03  0.99028973311E+03  0.25000000000E+03 0.  0.
    5000001    1    1    2    0    0  0.20514647610E+03  0.18711324150E+03 -0.54390617023E+03  0.65987147523E+03  0.25000000000E+03 0.  0.
<mgrwt>
<rscale>  0 0.76712787E+03</rscale>
<asrwt>0</asrwt>
<pdfrwt beam="1">  1        2 0.23932075E+00 0.76712787E+03</pdfrwt>
<pdfrwt beam="2">  1       -2 0.14550183E-01 0.76712787E+03</pdfrwt>
<totfact> 0.44109486E+02</totfact>
</mgrwt>
</event>
<event>
 4    1  0.1720876E-005  0.5731145E+03  0.7818608E-02  0.9962810E-01
          2   -1    0    0  501    0  0.00000000000E+00  0.00000000000E+00  0.67908076370E+02  0.67908076418E+02  0.25500000000E-02 0.  1.
         -2   -1    0    0    0  501 -0.00000000000E+00 -0.00000000000E+00 -0.12092091278E+04  0.12092091278E+04  0.25500000000E-02 0. -1.
   -5000001    1    1    2    0    0  0.13054380269E+03  0.46308348898E+02 -0.61680104502E+03  0.67980120383E+03  0.25000000000E+03 0.  0.
    5000001    1    1    2    0    0 -0.13054380269E+03 -0.46308348898E+02 -0.52450000644E+03  0.59731600041E+03  0.25000000000E+03 0.  0.
<mgrwt>
<rscale>  0 0.57311453E+03</rscale>
<asrwt>0</asrwt>
<pdfrwt beam="1">  1        2 0.10447397E-01 0.57311453E+03</pdfrwt>
<pdfrwt beam="2">  1       -2 0.18603216E+00 0.57311453E+03</pdfrwt>
<totfact> 0.10609480E+02</totfact>
</mgrwt>
</event>
<event>
 4    1  0.1720876E-005  0.6748413E+03  0.7818608E-02  0.9761251E-01
          2   -1    0    0  501    0  0.00000000000E+00  0.00000000000E+00  0.31649762459E+03  0.31649762460E+03  0.25500000000E-02 0.  1.
         -2   -1    0    0    0  501 -0.00000000000E+00 -0.00000000000E+00 -0.35972686836E+03  0.35972686837E+03  0.25500000000E-02 0. -1.
   -5000001    1    1    2    0    0 -0.21346107585E+03 -0.28791229253E+02 -0.92172960444E+02  0.34262285450E+03  0.25000000000E+03 0.  0.
    5000001    1    1    2    0    0  0.21346107585E+03  0.28791229253E+02  0.48943716677E+02  0.33360163847E+03  0.25000000000E+03 0.  0.
<mgrwt>
<rscale>  0 0.67484131E+03</rscale>
<asrwt>0</asrwt>
<pdfrwt beam="1">  1        2 0.48691942E-01 0.67484131E+03</pdfrwt>
<pdfrwt beam="2">  1       -2 0.55342595E-01 0.67484131E+03</pdfrwt>
<totfact> 0.32048389E+02</totfact>
</mgrwt>
</event>
<event>
 4    1  0.1720876E-005  0.8424313E+03  0.7818608E-02  0.9500552E-01
         -2   -1    0    0    0  501 -0.00000000000E+00  0.00000000000E+00  0.31815171102E+03  0.31815171103E+03  0.25500000000E-02 0. -1.
          2   -1    0    0  501    0  0.00000000000E+00 -0.00000000000E+00 -0.55766667542E+03  0.55766667543E+03  0.25500000000E-02 0.  1.
   -5000001    1    1    2    0    0 -0.15999066540E+03 -0.29619159954E+03 -0.16129243854E+03  0.44926799060E+03  0.25000000000E+03 0.  0.
    5000001    1    1    2    0    0  0.15999066540E+03  0.29619159954E+03 -0.78222525859E+02  0.42655039585E+03  0.25000000000E+03 0.  0.
<mgrwt>
<rscale>  0 0.84243126E+03</rscale>
<asrwt>0</asrwt>
<pdfrwt beam="1">  1        2 0.85794873E-01 0.84243126E+03</pdfrwt>
<pdfrwt beam="2">  1       -2 0.48946417E-01 0.84243126E+03</pdfrwt>
<totfact> 0.21521349E+02</totfact>
</mgrwt>
</event>
<event>
 4    1  0.1720876E-005  0.6852131E+03  0.7818608E-02  0.9742859E-01
         -2   -1    0    0    0  501 -0.00000000000E+00  0.00000000000E+00  0.51868568216E+03  0.51868568217E+03  0.25500000000E-02 0. -1.
          2   -1    0    0  501    0  0.00000000000E+00 -0.00000000000E+00 -0.22630132143E+03  0.22630132144E+03  0.25500000000E-02 0.  1.
   -5000001    1    1    2    0    0  0.85234805837E+02 -0.19981410065E+03  0.24152597835E+03  0.40990906938E+03  0.25000000000E+03 0.  0.
    5000001    1    1    2    0    0 -0.85234805837E+02  0.19981410065E+03  0.50858382389E+02  0.33507793423E+03  0.25000000000E+03 0.  0.
<mgrwt>
<rscale>  0 0.68521312E+03</rscale>
<asrwt>0</asrwt>
<pdfrwt beam="1">  1        2 0.34815589E-01 0.68521312E+03</pdfrwt>
<pdfrwt beam="2">  1       -2 0.79797796E-01 0.68521312E+03</pdfrwt>
<totfact> 0.21131510E+02</totfact>
</mgrwt>
</event>
<event>
 4    1  0.1720876E-005  0.5485175E+03  0.7818608E-02  0.1001838E+00
          2   -1    0    0  501    0  0.00000000000E+00  0.00000000000E+00  0.36823573450E+03  0.36823573451E+03  0.25500000000E-02 0.  1.
         -2   -1    0    0    0  501 -0.00000000000E+00 -0.00000000000E+00 -0.20426549465E+03  0.20426549467E+03  0.25500000000E-02 0. -1.
   -5000001    1    1    2    0    0 -0.66730456341E+02 -0.76759357911E+02  0.31142745494E+02  0.27168883567E+03  0.25000000000E+03 0.  0.
    5000001    1    1    2    0    0  0.66730456341E+02  0.76759357911E+02  0.13282749435E+03  0.30081239351E+03  0.25000000000E+03 0.  0.
<mgrwt>
<rscale>  0 0.54851747E+03</rscale>
<asrwt>0</asrwt>
<pdfrwt beam="1">  1        2 0.56651651E-01 0.54851747E+03</pdfrwt>
<pdfrwt beam="2">  1       -2 0.31425461E-01 0.54851747E+03</pdfrwt>
<totfact> 0.82372246E+02</totfact>
</mgrwt>
</event>
<event>
 4    1  0.1720876E-005  0.7893419E+03  0.7818608E-02  0.9575574E-01
         -2   -1    0    0    0  501 -0.00000000000E+00  0.00000000000E+00  0.87819323291E+02  0.87819323328E+02  0.25500000000E-02 0. -1.
          2   -1    0    0  501    0  0.00000000000E+00 -0.00000000000E+00 -0.17737004102E+04  0.17737004102E+04  0.25500000000E-02 0.  1.
   -5000001    1    1    2    0    0 -0.14921781884E+03  0.24978091469E+03 -0.10617526943E+04  0.11289265905E+04  0.25000000000E+03 0.  0.
    5000001    1    1    2    0    0  0.14921781884E+03 -0.24978091469E+03 -0.62412839256E+03  0.73259314302E+03  0.25000000000E+03 0.  0.
<mgrwt>
<rscale>  0 0.78934193E+03</rscale>
<asrwt>0</asrwt>
<pdfrwt beam="1">  1        2 0.27287696E+00 0.78934193E+03</pdfrwt>
<pdfrwt beam="2">  1       -2 0.13510666E-01 0.78934193E+03</pdfrwt>
<totfact> 0.37861420E+02</totfact>
</mgrwt>
</event>
<event>
 4    1  0.1720876E-005  0.6454324E+03  0.7818608E-02  0.9815388E-01
         -2   -1    0    0    0  501 -0.00000000000E+00  0.00000000000E+00  0.14262636389E+03  0.14262636391E+03  0.25500000000E-02 0. -1.
          2   -1    0    0  501    0  0.00000000000E+00 -0.00000000000E+00 -0.73019992754E+03  0.73019992755E+03  0.25500000000E-02 0.  1.
   -5000001    1    1    2    0    0  0.21035434399E+02 -0.20236025629E+03 -0.31532202278E+03  0.45091034683E+03  0.25000000000E+03 0.  0.
    5000001    1    1    2    0    0 -0.21035434399E+02  0.20236025629E+03 -0.27225154088E+03  0.42191594464E+03  0.25000000000E+03 0.  0.
<mgrwt>
<rscale>  0 0.64543245E+03</rscale>
<asrwt>0</asrwt>
<pdfrwt beam="1">  1        2 0.11233845E+00 0.64543245E+03</pdfrwt>
<pdfrwt beam="2">  1       -2 0.21942518E-01 0.64543245E+03</pdfrwt>
<totfact> 0.70721323E+02</totfact>
</mgrwt>
</event>
<event>
 4    1  0.1720876E-005  0.8045866E+03  0.7818608E-02  0.9553402E-01
          2   -1    0    0  501    0  0.00000000000E+00  0.00000000000E+00  0.22268591672E+04  0.22268591672E+04  0.25500000000E-02 0.  1.
         -2   -1    0    0    0  501 -0.00000000000E+00 -0.00000000000E+00 -0.72676313815E+02  0.72676313860E+02  0.25500000000E-02 0. -1.
   -5000001    1    1    2    0    0  0.15798385634E+02  0.25316730901E+03  0.54242800321E+03  0.64890015720E+03  0.25000000000E+03 0.  0.
    5000001    1    1    2    0    0 -0.15798385634E+02 -0.25316730901E+03  0.16117548501E+04  0.16506353238E+04  0.25000000000E+03 0.  0.
<mgrwt>
<rscale>  0 0.80458664E+03</rscale>
<asrwt>0</asrwt>
<pdfrwt beam="1">  1        2 0.34259370E+00 0.80458664E+03</pdfrwt>
<pdfrwt beam="2">  1       -2 0.11180972E-01 0.80458664E+03</pdfrwt>
<totfact> 0.29230869E+02</totfact>
</mgrwt>
</event>
<event>
 4    1  0.1720876E-005  0.6685260E+03  0.7818608E-02  0.9772624E-01
          2   -1    0    0  501    0  0.00000000000E+00  0.00000000000E+00  0.58547390552E+03  0.58547390553E+03  0.25500000000E-02 0.  1.
         -2   -1    0    0    0  501 -0.00000000000E+00 -0.00000000000E+00 -0.19083986228E+03  0.19083986230E+03  0.25500000000E-02 0. -1.
   -5000001    1    1    2    0    0 -0.18083035000E+03 -0.93250367254E+02  0.30011401295E+03  0.44041306434E+03  0.25000000000E+03 0.  0.
    5000001    1    1    2    0    0  0.18083035000E+03  0.93250367254E+02  0.94520030284E+02  0.33590070348E+03  0.25000000000E+03 0.  0.
<mgrwt>
<rscale>  0 0.66852602E+03</rscale>
<asrwt>0</asrwt>
<pdfrwt beam="1">  1        2 0.90072908E-01 0.66852602E+03</pdfrwt>
<pdfrwt beam="2">  1       -2 0.29359979E-01 0.66852602E+03</pdfrwt>
<totfact> 0.54859577E+02</totfact>
</mgrwt>
</event>
<event>
 4    1  0.1720876E-005  0.7263068E+03  0.7818608E-02  0.9673272E-01
         -2   -1    0    0    0  501 -0.00000000000E+00  0.00000000000E+00  0.79487436449E+03  0.79487436449E+03  0.25500000000E-02 0. -1.
          2   -1    0    0  501    0  0.00000000000E+00 -0.00000000000E+00 -0.16591352252E+03  0.16591352254E+03  0.25500000000E-02 0.  1.
   -5000001    1    1    2    0    0 -0.77771597470E+01  0.26312028823E+03  0.32686403511E+03  0.48850063228E+03  0.25000000000E+03 0.  0.
    5000001    1    1    2    0    0  0.77771597470E+01 -0.26312028823E+03  0.30209680685E+03  0.47228725475E+03  0.25000000000E+03 0.  0.
<mgrwt>
<rscale>  0 0.72630684E+03</rscale>
<asrwt>0</asrwt>
<pdfrwt beam="1">  1        2 0.25525157E-01 0.72630684E+03</pdfrwt>
<pdfrwt beam="2">  1       -2 0.12228836E+00 0.72630684E+03</pdfrwt>
<totfact> 0.10949886E+02</totfact>
</mgrwt>
</event>
<event>
 4    1  0.1720876E-005  0.7622848E+03  0.7818608E-02  0.9616272E-01
         -2   -1    0    0    0  501 -0.00000000000E+00  0.00000000000E+00  0.16633547546E+03  0.16633547548E+03  0.25500000000E-02 0. -1.
          2   -1    0    0  501    0  0.00000000000E+00 -0.00000000000E+00 -0.87335270504E+03  0.87335270505E+03  0.25500000000E-02 0.  1.
   -5000001    1    1    2    0    0 -0.21022045401E+03  0.19481831846E+03 -0.38754414931E+03  0.54298921183E+03  0.25000000000E+03 0.  0.
    5000001    1    1    2    0    0  0.21022045401E+03 -0.19481831846E+03 -0.31947308027E+03  0.49669896870E+03  0.25000000000E+03 0.  0.
<mgrwt>
<rscale>  0 0.76228482E+03</rscale>
<asrwt>0</asrwt>
<pdfrwt beam="1">  1        2 0.13436195E+00 0.76228482E+03</pdfrwt>
<pdfrwt beam="2">  1       -2 0.25590074E-01 0.76228482E+03</pdfrwt>
<totfact> 0.42231617E+02</totfact>
</mgrwt>
</event>
<event>
 4    1  0.1720876E-005  0.8258115E+03  0.7818608E-02  0.9523390E-01
         -2   -1    0    0    0  501 -0.00000000000E+00  0.00000000000E+00  0.17327401748E+03  0.17327401750E+03  0.25500000000E-02 0. -1.
          2   -1    0    0  501    0  0.00000000000E+00 -0.00000000000E+00 -0.98393944361E+03  0.98393944361E+03  0.25500000000E-02 0.  1.
   -5000001    1    1    2    0    0  0.25879756033E+03 -0.10746212355E+03 -0.64587944854E+03  0.74711749229E+03  0.25000000000E+03 0.  0.
    5000001    1    1    2    0    0 -0.25879756033E+03  0.10746212355E+03 -0.16478597759E+03  0.41009596882E+03  0.25000000000E+03 0.  0.
<mgrwt>
<rscale>  0 0.82581146E+03</rscale>
<asrwt>0</asrwt>
<pdfrwt beam="1">  1        2 0.15137530E+00 0.82581146E+03</pdfrwt>
<pdfrwt beam="2">  1       -2 0.26657542E-01 0.82581146E+03</pdfrwt>
<totfact> 0.33025718E+02</totfact>
</mgrwt>
</event>
<event>
 4    1  0.1720876E-005  0.5702457E+03  0.7818608E-02  0.9969135E-01
         -2   -1    0    0    0  501 -0.00000000000E+00  0.00000000000E+00  0.63689307743E+02  0.63689307794E+02  0.25500000000E-02 0. -1.
          2   -1    0    0  501    0  0.00000000000E+00 -0.00000000000E+00 -0.12764316136E+04  0.12764316136E+04  0.25500000000E-02 0.  1.
   -5000001    1    1    2    0    0 -0.90459389522E+02  0.64518862815E+02 -0.41763996899E+03  0.49926819297E+03  0.25000000000E+03 0.  0.
    5000001    1    1    2    0    0  0.90459389522E+02 -0.64518862815E+02 -0.79510233685E+03  0.84085272841E+03  0.25000000000E+03 0.  0.
<mgrwt>
<rscale>  0 0.57024572E+03</rscale>
<asrwt>0</asrwt>
<pdfrwt beam="1">  1        2 0.19637408E+00 0.57024572E+03</pdfrwt>
<pdfrwt beam="2">  1       -2 0.97983560E-02 0.57024572E+03</pdfrwt>
<totfact> 0.12273825E+03</totfact>
</mgrwt>
</event>
<event>
 4    1  0.1720876E-005  0.6113581E+03  0.7818608E-02  0.9882118E-01
         -2   -1    0    0    0  501 -0.00000000000E+00  0.00000000000E+00  0.42844961281E+02  0.42844961357E+02  0.25500000000E-02 0. -1.
          2   -1    0    0  501    0  0.00000000000E+00 -0.00000000000E+00 -0.21808790437E+04  0.21808790437E+04  0.25500000000E-02 0.  1.
   -5000001    1    1    2    0    0  0.56452973741E+02  0.16608866014E+03 -0.10219703269E+04  0.10666282062E+04  0.25000000000E+03 0.  0.
    5000001    1    1    2    0    0 -0.56452973741E+02 -0.16608866014E+03 -0.11160637556E+04  0.11570957989E+04  0.25000000000E+03 0.  0.
<mgrwt>
<rscale>  0 0.61135809E+03</rscale>
<asrwt>0</asrwt>
<pdfrwt beam="1">  1        2 0.33551977E+00 0.61135809E+03</pdfrwt>
<pdfrwt beam="2">  1       -2 0.65915342E-02 0.61135809E+03</pdfrwt>
<totfact> 0.73602833E+02</totfact>
</mgrwt>
</event>
<event>
 4    1  0.1720876E-005  0.7007942E+03  0.7818608E-02  0.9715875E-01
          2   -1    0    0  501    0  0.00000000000E+00  0.00000000000E+00  0.57244686962E+03  0.57244686962E+03  0.25500000000E-02 0.  1.
         -2   -1    0    0    0  501 -0.00000000000E+00 -0.00000000000E+00 -0.21447949353E+03  0.21447949355E+03  0.25500000000E-02 0. -1.
   -5000001    1    1    2    0    0  0.32722908907E+02  0.18688158897E+03  0.35396480758E+03  0.47306088622E+03  0.25000000000E+03 0.  0.
    5000001    1    1    2    0    0 -0.32722908907E+02 -0.18688158897E+03  0.40025684992E+01  0.31386547695E+03  0.25000000000E+03 0.  0.
<mgrwt>
<rscale>  0 0.70079416E+03</rscale>
<asrwt>0</asrwt>
<pdfrwt beam="1">  1        2 0.88068749E-01 0.70079416E+03</pdfrwt>
<pdfrwt beam="2">  1       -2 0.32996845E-01 0.70079416E+03</pdfrwt>
<totfact> 0.45288623E+02</totfact>
</mgrwt>
</event>
<event>
 4    1  0.1720876E-005  0.9780781E+03  0.7818608E-02  0.9332921E-01
          2   -1    0    0  501    0  0.00000000000E+00  0.00000000000E+00  0.36332872497E+04  0.36332872497E+04  0.25500000000E-02 0.  1.
         -2   -1    0    0    0  501 -0.00000000000E+00 -0.00000000000E+00 -0.65824463953E+02  0.65824464002E+02  0.25500000000E-02 0. -1.
   -5000001    1    1    2    0    0  0.40310171281E+03 -0.55475085443E+02  0.13854375546E+04  0.14654370316E+04  0.25000000000E+03 0.  0.
    5000001    1    1    2    0    0 -0.40310171281E+03  0.55475085443E+02  0.21820252311E+04  0.22336746821E+04  0.25000000000E+03 0.  0.
<mgrwt>
<rscale>  0 0.97807809E+03</rscale>
<asrwt>0</asrwt>
<pdfrwt beam="1">  1        2 0.55896737E+00 0.97807809E+03</pdfrwt>
<pdfrwt beam="2">  1       -2 0.10126839E-01 0.97807809E+03</pdfrwt>
<totfact> 0.46061020E+01</totfact>
</mgrwt>
</event>
<event>
 4    1  0.1720876E-005  0.7407334E+03  0.7818608E-02  0.9650001E-01
         -2   -1    0    0    0  501 -0.00000000000E+00  0.00000000000E+00  0.17082735188E+03  0.17082735190E+03  0.25500000000E-02 0. -1.
          2   -1    0    0  501    0  0.00000000000E+00 -0.00000000000E+00 -0.80298309531E+03  0.80298309532E+03  0.25500000000E-02 0.  1.
   -5000001    1    1    2    0    0 -0.19875364699E+03 -0.16830388525E+03 -0.20733207015E+03  0.41631213926E+03  0.25000000000E+03 0.  0.
    5000001    1    1    2    0    0  0.19875364699E+03  0.16830388525E+03 -0.42482367328E+03  0.55749830795E+03  0.25000000000E+03 0.  0.
<mgrwt>
<rscale>  0 0.74073335E+03</rscale>
<asrwt>0</asrwt>
<pdfrwt beam="1">  1        2 0.12353586E+00 0.74073335E+03</pdfrwt>
<pdfrwt beam="2">  1       -2 0.26281131E-01 0.74073335E+03</pdfrwt>
<totfact> 0.45109942E+02</totfact>
</mgrwt>
</event>
<event>
 4    1  0.1720876E-005  0.7449744E+03  0.7818608E-02  0.9643268E-01
          2   -1    0    0  501    0  0.00000000000E+00  0.00000000000E+00  0.82030374841E+03  0.82030374841E+03  0.25500000000E-02 0.  1.
         -2   -1    0    0    0  501 -0.00000000000E+00 -0.00000000000E+00 -0.16914067078E+03  0.16914067080E+03  0.25500000000E-02 0. -1.
   -5000001    1    1    2    0    0 -0.19633739583E+03  0.11104031757E+03  0.11403954982E+03  0.35550435166E+03  0.25000000000E+03 0.  0.
    5000001    1    1    2    0    0  0.19633739583E+03 -0.11104031757E+03  0.53712352781E+03  0.63394006755E+03  0.25000000000E+03 0.  0.
<mgrwt>
<rscale>  0 0.74497443E+03</rscale>
<asrwt>0</asrwt>
<pdfrwt beam="1">  1        2 0.12620058E+00 0.74497443E+03</pdfrwt>
<pdfrwt beam="2">  1       -2 0.26021642E-01 0.74497443E+03</pdfrwt>
<totfact> 0.44635522E+02</totfact>
</mgrwt>
</event>
<event>
 4    1  0.1720876E-005  0.5994465E+03  0.7818608E-02  0.9906555E-01
          2   -1    0    0  501    0  0.00000000000E+00  0.00000000000E+00  0.17742391636E+04  0.17742391636E+04  0.25500000000E-02 0.  1.
         -2   -1    0    0    0  501 -0.00000000000E+00 -0.00000000000E+00 -0.50632420288E+02  0.50632420352E+02  0.25500000000E-02 0. -1.
   -5000001    1    1    2    0    0  0.10999785277E+03 -0.98476883748E+02  0.63528091619E+03  0.69848340476E+03  0.25000000000E+03 0.  0.
    5000001    1    1    2    0    0 -0.10999785277E+03  0.98476883748E+02  0.10883258271E+04  0.11263881791E+04  0.25000000000E+03 0.  0.
<mgrwt>
<rscale>  0 0.59944649E+03</rscale>
<asrwt>0</asrwt>
<pdfrwt beam="1">  1        2 0.27295982E+00 0.59944649E+03</pdfrwt>
<pdfrwt beam="2">  1       -2 0.77896047E-02 0.59944649E+03</pdfrwt>
<totfact> 0.93970229E+02</totfact>
</mgrwt>
</event>
<event>
 4    1  0.1720876E-005  0.8002023E+03  0.7818608E-02  0.9559724E-01
          2   -1    0    0  501    0  0.00000000000E+00  0.00000000000E+00  0.31602686363E+04  0.31602686363E+04  0.25500000000E-02 0.  1.
         -2   -1    0    0    0  501 -0.00000000000E+00 -0.00000000000E+00 -0.50654221876E+02  0.50654221940E+02  0.25500000000E-02 0. -1.
   -5000001    1    1    2    0    0  0.60208503823E+02  0.28856603267E+03  0.11400173976E+04  0.12037587324E+04  0.25000000000E+03 0.  0.
    5000001    1    1    2    0    0 -0.60208503823E+02 -0.28856603267E+03  0.19695970169E+04  0.20071641258E+04  0.25000000000E+03 0.  0.
<mgrwt>
<rscale>  0 0.80020235E+03</rscale>
<asrwt>0</asrwt>
<pdfrwt beam="1">  1        2 0.48619546E+00 0.80020235E+03</pdfrwt>
<pdfrwt beam="2">  1       -2 0.77929526E-02 0.80020235E+03</pdfrwt>
<totfact> 0.14901998E+02</totfact>
</mgrwt>
</event>
<event>
 4    1  0.1720876E-005  0.1228432E+04  0.7818608E-02  0.9088328E-01
          2   -1    0    0  501    0  0.00000000000E+00  0.00000000000E+00  0.18184142988E+04  0.18184142988E+04  0.25500000000E-02 0.  1.
         -2   -1    0    0    0  501 -0.00000000000E+00 -0.00000000000E+00 -0.20746707804E+03  0.20746707806E+03  0.25500000000E-02 0. -1.
   -5000001    1    1    2    0    0  0.19432087276E+03  0.29254485565E+03  0.83943602786E+02  0.43919201109E+03  0.25000000000E+03 0.  0.
    5000001    1    1    2    0    0 -0.19432087276E+03 -0.29254485565E+03  0.15270036179E+04  0.15866893657E+04  0.25000000000E+03 0.  0.
<mgrwt>
<rscale>  0 0.12284317E+04</rscale>
<asrwt>0</asrwt>
<pdfrwt beam="1">  1        2 0.27975605E+00 0.12284317E+04</pdfrwt>
<pdfrwt beam="2">  1       -2 0.31918012E-01 0.12284317E+04</pdfrwt>
<totfact> 0.75790550E+01</totfact>
</mgrwt>
</event>
<event>
 4    1  0.1720876E-005  0.8060900E+03  0.7818608E-02  0.9551244E-01
          2   -1    0    0  501    0  0.00000000000E+00  0.00000000000E+00  0.23125704146E+04  0.23125704146E+04  0.25500000000E-02 0.  1.
         -2   -1    0    0    0  501 -0.00000000000E+00 -0.00000000000E+00 -0.70244467091E+02  0.70244467138E+02  0.25500000000E-02 0. -1.
   -5000001    1    1    2    0    0 -0.19594444246E+03 -0.24114347968E+03  0.12935489939E+04  0.13536297137E+04  0.25000000000E+03 0.  0.
    5000001    1    1    2    0    0  0.19594444246E+03  0.24114347968E+03  0.94877695368E+03  0.10291851681E+04  0.25000000000E+03 0.  0.
<mgrwt>
<rscale>  0 0.80609001E+03</rscale>
<asrwt>0</asrwt>
<pdfrwt beam="1">  1        2 0.35578001E+00 0.80609001E+03</pdfrwt>
<pdfrwt beam="2">  1       -2 0.10806843E-01 0.80609001E+03</pdfrwt>
<totfact> 0.27699928E+02</totfact>
</mgrwt>
</event>
<event>
 4    1  0.1720876E-005  0.5967659E+03  0.7818608E-02  0.9912139E-01
         -2   -1    0    0    0  501 -0.00000000000E+00  0.00000000000E+00  0.14535645383E+03  0.14535645385E+03  0.25500000000E-02 0. -1.
          2   -1    0    0  501    0  0.00000000000E+00 -0.00000000000E+00 -0.61251072420E+03  0.61251072421E+03  0.25500000000E-02 0.  1.
   -5000001    1    1    2    0    0  0.16282157913E+02  0.13231322189E+03 -0.11471233055E+03  0.30566454838E+03  0.25000000000E+03 0.  0.
    5000001    1    1    2    0    0 -0.16282157913E+02 -0.13231322189E+03 -0.35244193982E+03  0.45220262969E+03  0.25000000000E+03 0.  0.
<mgrwt>
<rscale>  0 0.59676591E+03</rscale>
<asrwt>0</asrwt>
<pdfrwt beam="1">  1        2 0.94232418E-01 0.59676591E+03</pdfrwt>
<pdfrwt beam="2">  1       -2 0.22362532E-01 0.59676591E+03</pdfrwt>
<totfact> 0.85099343E+02</totfact>
</mgrwt>
</event>
<event>
 4    1  0.1720876E-005  0.9557578E+03  0.7818608E-02  0.9358446E-01
         -2   -1    0    0    0  501 -0.00000000000E+00  0.00000000000E+00  0.16908422396E+03  0.16908422398E+03  0.25500000000E-02 0. -1.
          2   -1    0    0  501    0  0.00000000000E+00 -0.00000000000E+00 -0.13506183432E+04  0.13506183432E+04  0.25500000000E-02 0.  1.
   -5000001    1    1    2    0    0 -0.30824893115E+03  0.14424937356E+02 -0.16815235719E+03  0.43127798182E+03  0.25000000000E+03 0.  0.
    5000001    1    1    2    0    0  0.30824893115E+03 -0.14424937356E+02 -0.10133817621E+04  0.10884245854E+04  0.25000000000E+03 0.  0.
<mgrwt>
<rscale>  0 0.95575782E+03</rscale>
<asrwt>0</asrwt>
<pdfrwt beam="1">  1        2 0.20778743E+00 0.95575782E+03</pdfrwt>
<pdfrwt beam="2">  1       -2 0.26012958E-01 0.95575782E+03</pdfrwt>
<totfact> 0.20599290E+02</totfact>
</mgrwt>
</event>
<event>
 4    1  0.1720876E-005  0.8084145E+03  0.7818608E-02  0.9547917E-01
          2   -1    0    0  501    0  0.00000000000E+00  0.00000000000E+00  0.63081283640E+03  0.63081283641E+03  0.25500000000E-02 0.  1.
         -2   -1    0    0    0  501 -0.00000000000E+00 -0.00000000000E+00 -0.25900473772E+03  0.25900473773E+03  0.25500000000E-02 0. -1.
   -5000001    1    1    2    0    0 -0.19238515037E+03  0.15504176423E+03  0.40558439478E+03  0.53670168252E+03  0.25000000000E+03 0.  0.
    5000001    1    1    2    0    0  0.19238515037E+03 -0.15504176423E+03 -0.33776296094E+02  0.35311589162E+03  0.25000000000E+03 0.  0.
<mgrwt>
<rscale>  0 0.80841453E+03</rscale>
<asrwt>0</asrwt>
<pdfrwt beam="1">  1        2 0.97048127E-01 0.80841453E+03</pdfrwt>
<pdfrwt beam="2">  1       -2 0.39846883E-01 0.80841453E+03</pdfrwt>
<totfact> 0.27958894E+02</totfact>
</mgrwt>
</event>
<event>
 4    1  0.1720876E-005  0.7077403E+03  0.7818608E-02  0.9704086E-01
          2   -1    0    0  501    0  0.00000000000E+00  0.00000000000E+00  0.49979870947E+03  0.49979870948E+03  0.25500000000E-02 0.  1.
         -2   -1    0    0    0  501 -0.00000000000E+00 -0.00000000000E+00 -0.25054900798E+03  0.25054900799E+03  0.25500000000E-02 0. -1.
   -5000001    1    1    2    0    0  0.23925994726E+03 -0.79107318267E+01  0.20265002680E+03  0.40109217819E+03  0.25000000000E+03 0.  0.
    5000001    1    1    2    0    0 -0.23925994726E+03  0.79107318267E+01  0.46599674690E+02  0.34925553928E+03  0.25000000000E+03 0.  0.
<mgrwt>
<rscale>  0 0.70774027E+03</rscale>
<asrwt>0</asrwt>
<pdfrwt beam="1">  1        2 0.76892109E-01 0.70774027E+03</pdfrwt>
<pdfrwt beam="2">  1       -2 0.38546001E-01 0.70774027E+03</pdfrwt>
<totfact> 0.39470366E+02</totfact>
</mgrwt>
</event>
<event>
 4    1  0.1720876E-005  0.6305249E+03  0.7818608E-02  0.9844025E-01
          2   -1    0    0  501    0  0.00000000000E+00  0.00000000000E+00  0.68186063458E+03  0.68186063458E+03  0.25500000000E-02 0.  1.
         -2   -1    0    0    0  501 -0.00000000000E+00 -0.00000000000E+00 -0.14576354392E+03  0.14576354394E+03  0.25500000000E-02 0. -1.
   -5000001    1    1    2    0    0  0.12197655152E+03 -0.11614301686E+03  0.38922708086E+03  0.49230600236E+03  0.25000000000E+03 0.  0.
    5000001    1    1    2    0    0 -0.12197655152E+03  0.11614301686E+03  0.14687000980E+03  0.33531817616E+03  0.25000000000E+03 0.  0.
<mgrwt>
<rscale>  0 0.63052493E+03</rscale>
<asrwt>0</asrwt>
<pdfrwt beam="1">  1        2 0.10490163E+00 0.63052493E+03</pdfrwt>
<pdfrwt beam="2">  1       -2 0.22425161E-01 0.63052493E+03</pdfrwt>
<totfact> 0.74207676E+02</totfact>
</mgrwt>
</event>
<event>
 4    1  0.1720876E-005  0.8646436E+03  0.7818608E-02  0.9470891E-01
          2   -1    0    0  501    0  0.00000000000E+00  0.00000000000E+00  0.14613852885E+04  0.14613852885E+04  0.25500000000E-02 0.  1.
         -2   -1    0    0    0  501 -0.00000000000E+00 -0.00000000000E+00 -0.12789381752E+03  0.12789381754E+03  0.25500000000E-02 0. -1.
   -5000001    1    1    2    0    0  0.34772458050E+03 -0.20195353639E+02  0.76878629194E+03  0.88025712088E+03  0.25000000000E+03 0.  0.
    5000001    1    1    2    0    0 -0.34772458050E+03  0.20195353639E+02  0.56470517902E+03  0.70902198513E+03  0.25000000000E+03 0.  0.
<mgrwt>
<rscale>  0 0.86464361E+03</rscale>
<asrwt>0</asrwt>
<pdfrwt beam="1">  1        2 0.22482850E+00 0.86464361E+03</pdfrwt>
<pdfrwt beam="2">  1       -2 0.19675972E-01 0.86464361E+03</pdfrwt>
<totfact> 0.29482540E+02</totfact>
</mgrwt>
</event>
<event>
 4    1  0.1720876E-005  0.9561992E+03  0.7818608E-02  0.9357934E-01
          2   -1    0    0  501    0  0.00000000000E+00  0.00000000000E+00  0.60220998680E+03  0.60220998681E+03  0.25500000000E-02 0.  1.
         -2   -1    0    0    0  501 -0.00000000000E+00 -0.00000000000E+00 -0.37956734702E+03  0.37956734703E+03  0.25500000000E-02 0. -1.
   -5000001    1    1    2    0    0 -0.36165455981E+03 -0.16471678833E+03  0.18608568599E+02  0.46986372473E+03  0.25000000000E+03 0.  0.
    5000001    1    1    2    0    0  0.36165455981E+03  0.16471678833E+03  0.20403407118E+03  0.51191360911E+03  0.25000000000E+03 0.  0.
<mgrwt>
<rscale>  0 0.95619924E+03</rscale>
<asrwt>0</asrwt>
<pdfrwt beam="1">  1        2 0.92647690E-01 0.95619924E+03</pdfrwt>
<pdfrwt beam="2">  1       -2 0.58394977E-01 0.95619924E+03</pdfrwt>
<totfact> 0.13557320E+02</totfact>
</mgrwt>
</event>
<event>
 4    1  0.1720876E-005  0.6589080E+03  0.7818608E-02  0.9790206E-01
         -2   -1    0    0    0  501 -0.00000000000E+00  0.00000000000E+00  0.45013803703E+03  0.45013803704E+03  0.25500000000E-02 0. -1.
          2   -1    0    0  501    0  0.00000000000E+00 -0.00000000000E+00 -0.24112586345E+03  0.24112586346E+03  0.25500000000E-02 0.  1.
   -5000001    1    1    2    0    0 -0.23515940620E+02  0.18518597628E+03  0.21549865094E+03  0.37919192216E+03  0.25000000000E+03 0.  0.
    5000001    1    1    2    0    0  0.23515940620E+02 -0.18518597628E+03 -0.64864773575E+01  0.31207197834E+03  0.25000000000E+03 0.  0.
<mgrwt>
<rscale>  0 0.65890795E+03</rscale>
<asrwt>0</asrwt>
<pdfrwt beam="1">  1        2 0.37096287E-01 0.65890795E+03</pdfrwt>
<pdfrwt beam="2">  1       -2 0.69252006E-01 0.65890795E+03</pdfrwt>
<totfact> 0.26941394E+02</totfact>
</mgrwt>
</event>
<event>
 4    1  0.1720876E-005  0.1138291E+04  0.7818608E-02  0.9168654E-01
         -2   -1    0    0    0  501 -0.00000000000E+00  0.00000000000E+00  0.26497949226E+03  0.26497949227E+03  0.25500000000E-02 0. -1.
          2   -1    0    0  501    0  0.00000000000E+00 -0.00000000000E+00 -0.12224591617E+04  0.12224591617E+04  0.25500000000E-02 0.  1.
   -5000001    1    1    2    0    0 -0.11726422489E+03 -0.48468191085E+03 -0.62634335314E+03  0.83873324076E+03  0.25000000000E+03 0.  0.
    5000001    1    1    2    0    0  0.11726422489E+03  0.48468191085E+03 -0.33113631630E+03  0.64870541320E+03  0.25000000000E+03 0.  0.
<mgrwt>
<rscale>  0 0.11382910E+04</rscale>
<asrwt>0</asrwt>
<pdfrwt beam="1">  1        2 0.18807064E+00 0.11382910E+04</pdfrwt>
<pdfrwt beam="2">  1       -2 0.40766076E-01 0.11382910E+04</pdfrwt>
<totfact> 0.10358652E+02</totfact>
</mgrwt>
</event>
<event>
 4    1  0.1720876E-005  0.7404345E+03  0.7818608E-02  0.9650478E-01
         -2   -1    0    0    0  501 -0.00000000000E+00  0.00000000000E+00  0.34434662767E+03  0.34434662768E+03  0.25500000000E-02 0. -1.
          2   -1    0    0  501    0  0.00000000000E+00 -0.00000000000E+00 -0.39803152021E+03  0.39803152022E+03  0.25500000000E-02 0.  1.
   -5000001    1    1    2    0    0  0.32622228179E+02 -0.20824365190E+03 -0.20088146608E+03  0.38377466271E+03  0.25000000000E+03 0.  0.
    5000001    1    1    2    0    0 -0.32622228179E+02  0.20824365190E+03  0.14719657354E+03  0.35860348519E+03  0.25000000000E+03 0.  0.
<mgrwt>
<rscale>  0 0.74043450E+03</rscale>
<asrwt>0</asrwt>
<pdfrwt beam="1">  1        2 0.61235618E-01 0.74043450E+03</pdfrwt>
<pdfrwt beam="2">  1       -2 0.52976404E-01 0.74043450E+03</pdfrwt>
<totfact> 0.27107026E+02</totfact>
</mgrwt>
</event>
<event>
 4    1  0.1720876E-005  0.7400393E+03  0.7818608E-02  0.9651108E-01
          2   -1    0    0  501    0  0.00000000000E+00  0.00000000000E+00  0.68713671057E+03  0.68713671058E+03  0.25500000000E-02 0.  1.
         -2   -1    0    0    0  501 -0.00000000000E+00 -0.00000000000E+00 -0.19925371935E+03  0.19925371937E+03  0.25500000000E-02 0. -1.
   -5000001    1    1    2    0    0  0.12753429204E+02 -0.13716843120E+03  0.52595442480E+03  0.59841948952E+03  0.25000000000E+03 0.  0.
    5000001    1    1    2    0    0 -0.12753429204E+02  0.13716843120E+03 -0.38071433580E+02  0.28797094043E+03  0.25000000000E+03 0.  0.
<mgrwt>
<rscale>  0 0.74003931E+03</rscale>
<asrwt>0</asrwt>
<pdfrwt beam="1">  1        2 0.10571334E+00 0.74003931E+03</pdfrwt>
<pdfrwt beam="2">  1       -2 0.30654418E-01 0.74003931E+03</pdfrwt>
<totfact> 0.41544708E+02</totfact>
</mgrwt>
</event>
<event>
 4    1  0.1720876E-005  0.8784476E+03  0.7818608E-02  0.9452931E-01
         -2   -1    0    0    0  501 -0.00000000000E+00  0.00000000000E+00  0.20397856426E+03  0.20397856428E+03  0.25500000000E-02 0. -1.
          2   -1    0    0  501    0  0.00000000000E+00 -0.00000000000E+00 -0.94577362060E+03  0.94577362061E+03  0.25500000000E-02 0.  1.
   -5000001    1    1    2    0    0  0.24686692006E+03  0.12454784172E+03 -0.67493899720E+03  0.77103702313E+03  0.25000000000E+03 0.  0.
    5000001    1    1    2    0    0 -0.24686692006E+03 -0.12454784172E+03 -0.66856059137E+02  0.37871516175E+03  0.25000000000E+03 0.  0.
<mgrwt>
<rscale>  0 0.87844760E+03</rscale>
<asrwt>0</asrwt>
<pdfrwt beam="1">  1        2 0.14550363E+00 0.87844760E+03</pdfrwt>
<pdfrwt beam="2">  1       -2 0.31381318E-01 0.87844760E+03</pdfrwt>
<totfact> 0.25804741E+02</totfact>
</mgrwt>
</event>
<event>
 4    1  0.1720876E-005  0.7064116E+03  0.7818608E-02  0.9706330E-01
         -2   -1    0    0    0  501 -0.00000000000E+00  0.00000000000E+00  0.15602617713E+03  0.15602617715E+03  0.25500000000E-02 0. -1.
          2   -1    0    0  501    0  0.00000000000E+00 -0.00000000000E+00 -0.79957319101E+03  0.79957319102E+03  0.25500000000E-02 0.  1.
   -5000001    1    1    2    0    0  0.11439390431E+03 -0.25821560593E+02 -0.23855894080E+02  0.27716749813E+03  0.25000000000E+03 0.  0.
    5000001    1    1    2    0    0 -0.11439390431E+03  0.25821560593E+02 -0.61969111980E+03  0.67843187005E+03  0.25000000000E+03 0.  0.
<mgrwt>
<rscale>  0 0.70641163E+03</rscale>
<asrwt>0</asrwt>
<pdfrwt beam="1">  1        2 0.12301126E+00 0.70641163E+03</pdfrwt>
<pdfrwt beam="2">  1       -2 0.24004028E-01 0.70641163E+03</pdfrwt>
<totfact> 0.53487006E+02</totfact>
</mgrwt>
</event>
<event>
 4    1  0.1720876E-005  0.1274882E+04  0.7818608E-02  0.9049725E-01
         -2   -1    0    0    0  501 -0.00000000000E+00  0.00000000000E+00  0.34424704824E+03  0.34424704825E+03  0.25500000000E-02 0. -1.
          2   -1    0    0  501    0  0.00000000000E+00 -0.00000000000E+00 -0.11803473043E+04  0.11803473043E+04  0.25500000000E-02 0.  1.
   -5000001    1    1    2    0    0 -0.42461407204E+03  0.30168226306E+03 -0.96003681161E+02  0.58568421937E+03  0.25000000000E+03 0.  0.
    5000001    1    1    2    0    0  0.42461407204E+03 -0.30168226306E+03 -0.74009657486E+03  0.93891013315E+03  0.25000000000E+03 0.  0.
<mgrwt>
<rscale>  0 0.12748821E+04</rscale>
<asrwt>0</asrwt>
<pdfrwt beam="1">  1        2 0.18159189E+00 0.12748821E+04</pdfrwt>
<pdfrwt beam="2">  1       -2 0.52961085E-01 0.12748821E+04</pdfrwt>
<totfact> 0.64241187E+01</totfact>
</mgrwt>
</event>
<event>
 4    1  0.1720876E-005  0.6458264E+03  0.7818608E-02  0.9814642E-01
         -2   -1    0    0    0  501 -0.00000000000E+00  0.00000000000E+00  0.12842283126E+03  0.12842283129E+03  0.25500000000E-02 0. -1.
          2   -1    0    0  501    0  0.00000000000E+00 -0.00000000000E+00 -0.81195009616E+03  0.81195009616E+03  0.25500000000E-02 0.  1.
   -5000001    1    1    2    0    0  0.20146873931E+03 -0.84575584459E+01 -0.29321384705E+03  0.43489716407E+03  0.25000000000E+03 0.  0.
    5000001    1    1    2    0    0 -0.20146873931E+03  0.84575584459E+01 -0.39031341784E+03  0.50547576337E+03  0.25000000000E+03 0.  0.
<mgrwt>
<rscale>  0 0.64582639E+03</rscale>
<asrwt>0</asrwt>
<pdfrwt beam="1">  1        2 0.12491540E+00 0.64582639E+03</pdfrwt>
<pdfrwt beam="2">  1       -2 0.19757359E-01 0.64582639E+03</pdfrwt>
<totfact> 0.74062011E+02</totfact>
</mgrwt>
</event>
<event>
 4    1  0.1720876E-005  0.6531079E+03  0.7818608E-02  0.9800965E-01
         -2   -1    0    0    0  501 -0.00000000000E+00  0.00000000000E+00  0.22569899599E+03  0.22569899601E+03  0.25500000000E-02 0. -1.
          2   -1    0    0  501    0  0.00000000000E+00 -0.00000000000E+00 -0.47247657072E+03  0.47247657073E+03  0.25500000000E-02 0.  1.
   -5000001    1    1    2    0    0  0.54091889599E+02  0.70769466618E+02 -0.32678993747E+03  0.42098208175E+03  0.25000000000E+03 0.  0.
    5000001    1    1    2    0    0 -0.54091889599E+02 -0.70769466618E+02  0.80012362743E+02  0.27719348498E+03  0.25000000000E+03 0.  0.
<mgrwt>
<rscale>  0 0.65310792E+03</rscale>
<asrwt>0</asrwt>
<pdfrwt beam="1">  1        2 0.72688703E-01 0.65310792E+03</pdfrwt>
<pdfrwt beam="2">  1       -2 0.34722923E-01 0.65310792E+03</pdfrwt>
<totfact> 0.51512029E+02</totfact>
</mgrwt>
</event>
<event>
 4    1  0.1720876E-005  0.5986294E+03  0.7818608E-02  0.9908254E-01
         -2   -1    0    0    0  501 -0.00000000000E+00  0.00000000000E+00  0.11454488014E+03  0.11454488017E+03  0.25500000000E-02 0. -1.
          2   -1    0    0  501    0  0.00000000000E+00 -0.00000000000E+00 -0.78213263570E+03  0.78213263571E+03  0.25500000000E-02 0.  1.
   -5000001    1    1    2    0    0  0.76996554101E+02  0.12942188860E+03 -0.43327407742E+03  0.52240302522E+03  0.25000000000E+03 0.  0.
    5000001    1    1    2    0    0 -0.76996554101E+02 -0.12942188860E+03 -0.23431367815E+03  0.37427449066E+03  0.25000000000E+03 0.  0.
<mgrwt>
<rscale>  0 0.59862940E+03</rscale>
<asrwt>0</asrwt>
<pdfrwt beam="1">  1        2 0.12032809E+00 0.59862940E+03</pdfrwt>
<pdfrwt beam="2">  1       -2 0.17622290E-01 0.59862940E+03</pdfrwt>
<totfact> 0.94912679E+02</totfact>
</mgrwt>
</event>
<event>
 4    1  0.1720876E-005  0.1836620E+04  0.7818608E-02  0.8687064E-01
          2   -1    0    0  501    0  0.00000000000E+00  0.00000000000E+00  0.27829783585E+04  0.27829783585E+04  0.25500000000E-02 0.  1.
         -2   -1    0    0    0  501 -0.00000000000E+00 -0.00000000000E+00 -0.30301816357E+03  0.30301816358E+03  0.25500000000E-02 0. -1.
   -5000001    1    1    2    0    0 -0.52577498694E+03  0.63321714954E+03  0.69970516150E+03  0.11088239754E+04  0.25000000000E+03 0.  0.
    5000001    1    1    2    0    0  0.52577498694E+03 -0.63321714954E+03  0.17802550334E+04  0.19771725467E+04  0.25000000000E+03 0.  0.
<mgrwt>
<rscale>  0 0.18366197E+04</rscale>
<asrwt>0</asrwt>
<pdfrwt beam="1">  1        2 0.42815050E+00 0.18366197E+04</pdfrwt>
<pdfrwt beam="2">  1       -2 0.46618180E-01 0.18366197E+04</pdfrwt>
<totfact> 0.97450186E+00</totfact>
</mgrwt>
</event>
<event>
 4    1  0.1720876E-005  0.6738985E+03  0.7818608E-02  0.9762941E-01
         -2   -1    0    0    0  501 -0.00000000000E+00  0.00000000000E+00  0.52533532022E+02  0.52533532084E+02  0.25500000000E-02 0. -1.
          2   -1    0    0  501    0  0.00000000000E+00 -0.00000000000E+00 -0.21611870588E+04  0.21611870588E+04  0.25500000000E-02 0.  1.
   -5000001    1    1    2    0    0  0.10438599329E+03  0.90131754958E+02 -0.46656340252E+03  0.54699321515E+03  0.25000000000E+03 0.  0.
    5000001    1    1    2    0    0 -0.10438599329E+03 -0.90131754958E+02 -0.16420901242E+04  0.16667273757E+04  0.25000000000E+03 0.  0.
<mgrwt>
<rscale>  0 0.67389848E+03</rscale>
<asrwt>0</asrwt>
<pdfrwt beam="1">  1        2 0.33249025E+00 0.67389848E+03</pdfrwt>
<pdfrwt beam="2">  1       -2 0.80820835E-02 0.67389848E+03</pdfrwt>
<totfact> 0.54335756E+02</totfact>
</mgrwt>
</event>
<event>
 4    1  0.1720876E-005  0.1057221E+04  0.7818608E-02  0.9247921E-01
         -2   -1    0    0    0  501 -0.00000000000E+00  0.00000000000E+00  0.49241364895E+03  0.49241364895E+03  0.25500000000E-02 0. -1.
          2   -1    0    0  501    0  0.00000000000E+00 -0.00000000000E+00 -0.56746766840E+03  0.56746766840E+03  0.25500000000E-02 0.  1.
   -5000001    1    1    2    0    0  0.41768297949E+03  0.10792061977E+00  0.16907352984E+03  0.51531052919E+03  0.25000000000E+03 0.  0.
    5000001    1    1    2    0    0 -0.41768297949E+03 -0.10792061977E+00 -0.24412754929E+03  0.54457078816E+03  0.25000000000E+03 0.  0.
<mgrwt>
<rscale>  0 0.10572206E+04</rscale>
<asrwt>0</asrwt>
<pdfrwt beam="1">  1        2 0.87302718E-01 0.10572206E+04</pdfrwt>
<pdfrwt beam="2">  1       -2 0.75755946E-01 0.10572206E+04</pdfrwt>
<totfact> 0.82496209E+01</totfact>
</mgrwt>
</event>
<event>
 4    1  0.1720876E-005  0.6331450E+03  0.7818608E-02  0.9838931E-01
          2   -1    0    0  501    0  0.00000000000E+00  0.00000000000E+00  0.84434286304E+03  0.84434286304E+03  0.25500000000E-02 0.  1.
         -2   -1    0    0    0  501 -0.00000000000E+00 -0.00000000000E+00 -0.11869364714E+03  0.11869364717E+03  0.25500000000E-02 0. -1.
   -5000001    1    1    2    0    0  0.12682656054E+03 -0.32558925813E+02  0.14465754135E+03  0.31712909734E+03  0.25000000000E+03 0.  0.
    5000001    1    1    2    0    0 -0.12682656054E+03  0.32558925813E+02  0.58099167455E+03  0.64590741287E+03  0.25000000000E+03 0.  0.
<mgrwt>
<rscale>  0 0.63314496E+03</rscale>
<asrwt>0</asrwt>
<pdfrwt beam="1">  1        2 0.12989890E+00 0.63314496E+03</pdfrwt>
<pdfrwt beam="2">  1       -2 0.18260562E-01 0.63314496E+03</pdfrwt>
<totfact> 0.80602661E+02</totfact>
</mgrwt>
</event>
<event>
 4    1  0.1720876E-005  0.7183867E+03  0.7818608E-02  0.9686295E-01
         -2   -1    0    0    0  501 -0.00000000000E+00  0.00000000000E+00  0.12964377637E+03  0.12964377640E+03  0.25500000000E-02 0. -1.
          2   -1    0    0  501    0  0.00000000000E+00 -0.00000000000E+00 -0.99518742156E+03  0.99518742157E+03  0.25500000000E-02 0.  1.
   -5000001    1    1    2    0    0  0.24755983036E+03 -0.71805339690E+02 -0.41894513094E+03  0.55177613137E+03  0.25000000000E+03 0.  0.
    5000001    1    1    2    0    0 -0.24755983036E+03  0.71805339690E+02 -0.44659851425E+03  0.57305506659E+03  0.25000000000E+03 0.  0.
<mgrwt>
<rscale>  0 0.71838668E+03</rscale>
<asrwt>0</asrwt>
<pdfrwt beam="1">  1        2 0.15310575E+00 0.71838668E+03</pdfrwt>
<pdfrwt beam="2">  1       -2 0.19945197E-01 0.71838668E+03</pdfrwt>
<totfact> 0.54759271E+02</totfact>
</mgrwt>
</event>
<event>
 4    1  0.1720876E-005  0.7885433E+03  0.7818608E-02  0.9576750E-01
         -2   -1    0    0    0  501 -0.00000000000E+00  0.00000000000E+00  0.15109256754E+03  0.15109256756E+03  0.25500000000E-02 0. -1.
          2   -1    0    0  501    0  0.00000000000E+00 -0.00000000000E+00 -0.10288404956E+04  0.10288404956E+04  0.25500000000E-02 0.  1.
   -5000001    1    1    2    0    0  0.24025005454E+03  0.97361800387E+02 -0.67899305109E+03  0.76859024994E+03  0.25000000000E+03 0.  0.
    5000001    1    1    2    0    0 -0.24025005454E+03 -0.97361800387E+02 -0.19875487700E+03  0.41134281325E+03  0.25000000000E+03 0.  0.
<mgrwt>
<rscale>  0 0.78854335E+03</rscale>
<asrwt>0</asrwt>
<pdfrwt beam="1">  1        2 0.15828315E+00 0.78854335E+03</pdfrwt>
<pdfrwt beam="2">  1       -2 0.23245011E-01 0.78854335E+03</pdfrwt>
<totfact> 0.39657324E+02</totfact>
</mgrwt>
</event>
<event>
 4    1  0.1720876E-005  0.7587529E+03  0.7818608E-02  0.9621718E-01
          2   -1    0    0  501    0  0.00000000000E+00  0.00000000000E+00  0.53603205978E+03  0.53603205979E+03  0.25500000000E-02 0.  1.
         -2   -1    0    0    0  501 -0.00000000000E+00 -0.00000000000E+00 -0.26850348362E+03  0.26850348363E+03  0.25500000000E-02 0. -1.
   -5000001    1    1    2    0    0 -0.20412089048E+03 -0.11464969779E+03 -0.39225734463E+02  0.34474417962E+03  0.25000000000E+03 0.  0.
    5000001    1    1    2    0    0  0.20412089048E+03  0.11464969779E+03  0.30675431063E+03  0.45979136380E+03  0.25000000000E+03 0.  0.
<mgrwt>
<rscale>  0 0.75875286E+03</rscale>
<asrwt>0</asrwt>
<pdfrwt beam="1">  1        2 0.82466470E-01 0.75875286E+03</pdfrwt>
<pdfrwt beam="2">  1       -2 0.41308228E-01 0.75875286E+03</pdfrwt>
<totfact> 0.31734280E+02</totfact>
</mgrwt>
</event>
<event>
 4    1  0.1720876E-005  0.5443419E+03  0.7818608E-02  0.1002812E+00
          2   -1    0    0  501    0  0.00000000000E+00  0.00000000000E+00  0.34116793523E+03  0.34116793524E+03  0.25500000000E-02 0.  1.
         -2   -1    0    0    0  501 -0.00000000000E+00 -0.00000000000E+00 -0.21712776620E+03  0.21712776622E+03  0.25500000000E-02 0. -1.
   -5000001    1    1    2    0    0  0.98549838494E+02  0.17244316979E+02  0.10262787640E+03  0.28816994665E+03  0.25000000000E+03 0.  0.
    5000001    1    1    2    0    0 -0.98549838494E+02 -0.17244316979E+02  0.21412292627E+02  0.27012575481E+03  0.25000000000E+03 0.  0.
<mgrwt>
<rscale>  0 0.54434192E+03</rscale>
<asrwt>0</asrwt>
<pdfrwt beam="1">  1        2 0.52487374E-01 0.54434192E+03</pdfrwt>
<pdfrwt beam="2">  1       -2 0.33404272E-01 0.54434192E+03</pdfrwt>
<totfact> 0.79977246E+02</totfact>
</mgrwt>
</event>
<event>
 4    1  0.1720876E-005  0.7440337E+03  0.7818608E-02  0.9644757E-01
          2   -1    0    0  501    0  0.00000000000E+00  0.00000000000E+00  0.18176313935E+04  0.18176313935E+04  0.25500000000E-02 0.  1.
         -2   -1    0    0    0  501 -0.00000000000E+00 -0.00000000000E+00 -0.76141153696E+02  0.76141153739E+02  0.25500000000E-02 0. -1.
   -5000001    1    1    2    0    0  0.17218576301E+03  0.19902912124E+03  0.10780880045E+04  0.11375562727E+04  0.25000000000E+03 0.  0.
    5000001    1    1    2    0    0 -0.17218576301E+03 -0.19902912124E+03  0.66340223526E+03  0.75621627451E+03  0.25000000000E+03 0.  0.
<mgrwt>
<rscale>  0 0.74403374E+03</rscale>
<asrwt>0</asrwt>
<pdfrwt beam="1">  1        2 0.27963557E+00 0.74403374E+03</pdfrwt>
<pdfrwt beam="2">  1       -2 0.11714025E-01 0.74403374E+03</pdfrwt>
<totfact> 0.45553132E+02</totfact>
</mgrwt>
</event>
<event>
 4    1  0.1720876E-005  0.6209161E+03  0.7818608E-02  0.9862937E-01
          2   -1    0    0  501    0  0.00000000000E+00  0.00000000000E+00  0.16271888046E+04  0.16271888046E+04  0.25500000000E-02 0.  1.
         -2   -1    0    0    0  501 -0.00000000000E+00 -0.00000000000E+00 -0.59233576658E+02  0.59233576713E+02  0.25500000000E-02 0. -1.
   -5000001    1    1    2    0    0 -0.17998924031E+03  0.38456760464E+02  0.77575573608E+03  0.83556688010E+03  0.25000000000E+03 0.  0.
    5000001    1    1    2    0    0  0.17998924031E+03 -0.38456760464E+02  0.79219949190E+03  0.85085550126E+03  0.25000000000E+03 0.  0.
<mgrwt>
<rscale>  0 0.62091614E+03</rscale>
<asrwt>0</asrwt>
<pdfrwt beam="1">  1        2 0.25033672E+00 0.62091614E+03</pdfrwt>
<pdfrwt beam="2">  1       -2 0.91128585E-02 0.62091614E+03</pdfrwt>
<totfact> 0.87767122E+02</totfact>
</mgrwt>
</event>
<event>
 4    1  0.1720876E-005  0.7809039E+03  0.7818608E-02  0.9588077E-01
          2   -1    0    0  501    0  0.00000000000E+00  0.00000000000E+00  0.24466648322E+03  0.24466648323E+03  0.25500000000E-02 0.  1.
         -2   -1    0    0    0  501 -0.00000000000E+00 -0.00000000000E+00 -0.62310426171E+03  0.62310426172E+03  0.25500000000E-02 0. -1.
   -5000001    1    1    2    0    0  0.11735919041E+03 -0.27281539968E+03 -0.23572269452E+03  0.45416584040E+03  0.25000000000E+03 0.  0.
    5000001    1    1    2    0    0 -0.11735919041E+03  0.27281539968E+03 -0.14271508397E+03  0.41360490455E+03  0.25000000000E+03 0.  0.
<mgrwt>
<rscale>  0 0.78090391E+03</rscale>
<asrwt>0</asrwt>
<pdfrwt beam="1">  1        2 0.37640998E-01 0.78090391E+03</pdfrwt>
<pdfrwt beam="2">  1       -2 0.95862194E-01 0.78090391E+03</pdfrwt>
<totfact> 0.12679416E+02</totfact>
</mgrwt>
</event>
<event>
 4    1  0.1720876E-005  0.8162720E+03  0.7818608E-02  0.9536758E-01
         -2   -1    0    0    0  501 -0.00000000000E+00  0.00000000000E+00  0.61123016577E+02  0.61123016630E+02  0.25500000000E-02 0. -1.
          2   -1    0    0  501    0  0.00000000000E+00 -0.00000000000E+00 -0.27252418148E+04  0.27252418148E+04  0.25500000000E-02 0.  1.
   -5000001    1    1    2    0    0 -0.27229661176E+03 -0.11073852717E+03 -0.87834897682E+03  0.95937760619E+03  0.25000000000E+03 0.  0.
    5000001    1    1    2    0    0  0.27229661176E+03  0.11073852717E+03 -0.17857698215E+04  0.18269872253E+04  0.25000000000E+03 0.  0.
<mgrwt>
<rscale>  0 0.81627202E+03</rscale>
<asrwt>0</asrwt>
<pdfrwt beam="1">  1        2 0.41926788E+00 0.81627202E+03</pdfrwt>
<pdfrwt beam="2">  1       -2 0.94035431E-02 0.81627202E+03</pdfrwt>
<totfact> 0.20199387E+02</totfact>
</mgrwt>
</event>
<event>
 4    1  0.1720876E-005  0.6757262E+03  0.7818608E-02  0.9759668E-01
         -2   -1    0    0    0  501 -0.00000000000E+00  0.00000000000E+00  0.34524295345E+02  0.34524295439E+02  0.25500000000E-02 0. -1.
          2   -1    0    0  501    0  0.00000000000E+00 -0.00000000000E+00 -0.33064095519E+04  0.33064095519E+04  0.25500000000E-02 0.  1.
   -5000001    1    1    2    0    0 -0.61409612508E+02 -0.21881533896E+03 -0.16379630210E+04  0.16724455601E+04  0.25000000000E+03 0.  0.
    5000001    1    1    2    0    0  0.61409612508E+02  0.21881533896E+03 -0.16339222355E+04  0.16684882873E+04  0.25000000000E+03 0.  0.
<mgrwt>
<rscale>  0 0.67572616E+03</rscale>
<asrwt>0</asrwt>
<pdfrwt beam="1">  1        2 0.50867814E+00 0.67572616E+03</pdfrwt>
<pdfrwt beam="2">  1       -2 0.53114327E-02 0.67572616E+03</pdfrwt>
<totfact> 0.22336158E+02</totfact>
</mgrwt>
</event>
<event>
 4    1  0.1720876E-005  0.5666045E+03  0.7818608E-02  0.9977221E-01
          2   -1    0    0  501    0  0.00000000000E+00  0.00000000000E+00  0.56130147005E+03  0.56130147006E+03  0.25500000000E-02 0.  1.
         -2   -1    0    0    0  501 -0.00000000000E+00 -0.00000000000E+00 -0.14298942789E+03  0.14298942791E+03  0.25500000000E-02 0. -1.
   -5000001    1    1    2    0    0  0.10631001722E+03 -0.55043495281E+02  0.28193878324E+03  0.39537461177E+03  0.25000000000E+03 0.  0.
    5000001    1    1    2    0    0 -0.10631001722E+03  0.55043495281E+02  0.13637325892E+03  0.30891628621E+03  0.25000000000E+03 0.  0.
<mgrwt>
<rscale>  0 0.56660454E+03</rscale>
<asrwt>0</asrwt>
<pdfrwt beam="1">  1        2 0.86354072E-01 0.56660454E+03</pdfrwt>
<pdfrwt beam="2">  1       -2 0.21998374E-01 0.56660454E+03</pdfrwt>
<totfact> 0.97239451E+02</totfact>
</mgrwt>
</event>
<event>
 4    1  0.1720876E-005  0.7340752E+03  0.7818608E-02  0.9660671E-01
         -2   -1    0    0    0  501 -0.00000000000E+00  0.00000000000E+00  0.49291086503E+03  0.49291086504E+03  0.25500000000E-02 0. -1.
          2   -1    0    0  501    0  0.00000000000E+00 -0.00000000000E+00 -0.27330821520E+03  0.27330821521E+03  0.25500000000E-02 0.  1.
   -5000001    1    1    2    0    0  0.13627736544E+03 -0.12105163918E+03  0.31591071798E+03  0.44218163848E+03  0.25000000000E+03 0.  0.
    5000001    1    1    2    0    0 -0.13627736544E+03  0.12105163918E+03 -0.96308068143E+02  0.32403744177E+03  0.25000000000E+03 0.  0.
<mgrwt>
<rscale>  0 0.73407517E+03</rscale>
<asrwt>0</asrwt>
<pdfrwt beam="1">  1        2 0.42047418E-01 0.73407517E+03</pdfrwt>
<pdfrwt beam="2">  1       -2 0.75832439E-01 0.73407517E+03</pdfrwt>
<totfact> 0.19157855E+02</totfact>
</mgrwt>
</event>
<event>
 4    1  0.1720876E-005  0.7435358E+03  0.7818608E-02  0.9645547E-01
         -2   -1    0    0    0  501 -0.00000000000E+00  0.00000000000E+00  0.50951557644E+02  0.50951557708E+02  0.25500000000E-02 0. -1.
          2   -1    0    0  501    0  0.00000000000E+00 -0.00000000000E+00 -0.27126035185E+04  0.27126035185E+04  0.25500000000E-02 0.  1.
   -5000001    1    1    2    0    0 -0.48423883771E+00 -0.12584092429E+03 -0.22402988138E+04  0.22577145409E+04  0.25000000000E+03 0.  0.
    5000001    1    1    2    0    0  0.48423883771E+00  0.12584092429E+03 -0.42135314707E+03  0.50584053540E+03  0.25000000000E+03 0.  0.
<mgrwt>
<rscale>  0 0.74353581E+03</rscale>
<asrwt>0</asrwt>
<pdfrwt beam="1">  1        2 0.41732350E+00 0.74353581E+03</pdfrwt>
<pdfrwt beam="2">  1       -2 0.78387033E-02 0.74353581E+03</pdfrwt>
<totfact> 0.27740918E+02</totfact>
</mgrwt>
</event>
<event>
 4    1  0.1720876E-005  0.7070201E+03  0.7818608E-02  0.9705302E-01
          2   -1    0    0  501    0  0.00000000000E+00  0.00000000000E+00  0.41084253084E+03  0.41084253085E+03  0.25500000000E-02 0.  1.
         -2   -1    0    0    0  501 -0.00000000000E+00 -0.00000000000E+00 -0.30417819475E+03  0.30417819476E+03  0.25500000000E-02 0. -1.
   -5000001    1    1    2    0    0  0.97029614975E+02 -0.23030209177E+03  0.57318820062E+02  0.35810507786E+03  0.25000000000E+03 0.  0.
    5000001    1    1    2    0    0 -0.97029614975E+02  0.23030209177E+03  0.49345516029E+02  0.35691564775E+03  0.25000000000E+03 0.  0.
<mgrwt>
<rscale>  0 0.70702005E+03</rscale>
<asrwt>0</asrwt>
<pdfrwt beam="1">  1        2 0.63206543E-01 0.70702005E+03</pdfrwt>
<pdfrwt beam="2">  1       -2 0.46796646E-01 0.70702005E+03</pdfrwt>
<totfact> 0.33689871E+02</totfact>
</mgrwt>
</event>
<event>
 4    1  0.1720876E-005  0.6646245E+03  0.7818608E-02  0.9779718E-01
          2   -1    0    0  501    0  0.00000000000E+00  0.00000000000E+00  0.36273366581E+04  0.36273366581E+04  0.25500000000E-02 0.  1.
         -2   -1    0    0    0  501 -0.00000000000E+00 -0.00000000000E+00 -0.30444214387E+02  0.30444214493E+02  0.25500000000E-02 0. -1.
   -5000001    1    1    2    0    0 -0.19596958612E+03  0.23541650631E+02  0.23197768966E+04  0.23415428969E+04  0.25000000000E+03 0.  0.
    5000001    1    1    2    0    0  0.19596958612E+03 -0.23541650631E+02  0.12771155471E+04  0.13162379757E+04  0.25000000000E+03 0.  0.
<mgrwt>
<rscale>  0 0.66462445E+03</rscale>
<asrwt>0</asrwt>
<pdfrwt beam="1">  1        2 0.55805171E+00 0.66462445E+03</pdfrwt>
<pdfrwt beam="2">  1       -2 0.46837260E-02 0.66462445E+03</pdfrwt>
<totfact> 0.16515784E+02</totfact>
</mgrwt>
</event>
<event>
 4    1  0.1720876E-005  0.7546276E+03  0.7818608E-02  0.9628118E-01
         -2   -1    0    0    0  501 -0.00000000000E+00  0.00000000000E+00  0.73826589161E+02  0.73826589205E+02  0.25500000000E-02 0. -1.
          2   -1    0    0  501    0  0.00000000000E+00 -0.00000000000E+00 -0.19283799923E+04  0.19283799923E+04  0.25500000000E-02 0.  1.
   -5000001    1    1    2    0    0  0.17241837450E+03  0.20335748977E+03 -0.67861646278E+03  0.77078055766E+03  0.25000000000E+03 0.  0.
    5000001    1    1    2    0    0 -0.17241837450E+03 -0.20335748977E+03 -0.11759369404E+04  0.12314260239E+04  0.25000000000E+03 0.  0.
<mgrwt>
<rscale>  0 0.75462764E+03</rscale>
<asrwt>0</asrwt>
<pdfrwt beam="1">  1        2 0.29667381E+00 0.75462764E+03</pdfrwt>
<pdfrwt beam="2">  1       -2 0.11357938E-01 0.75462764E+03</pdfrwt>
<totfact> 0.41682421E+02</totfact>
</mgrwt>
</event>
<event>
 4    1  0.1720876E-005  0.9077549E+03  0.7818608E-02  0.9415939E-01
          2   -1    0    0  501    0  0.00000000000E+00  0.00000000000E+00  0.31609318060E+03  0.31609318061E+03  0.25500000000E-02 0.  1.
         -2   -1    0    0    0  501 -0.00000000000E+00 -0.00000000000E+00 -0.65172158086E+03  0.65172158087E+03  0.25500000000E-02 0. -1.
   -5000001    1    1    2    0    0 -0.20916445370E+03 -0.13411624075E+03  0.13705589192E+03  0.37818150700E+03  0.25000000000E+03 0.  0.
    5000001    1    1    2    0    0  0.20916445370E+03  0.13411624075E+03 -0.47268429218E+03  0.58963325448E+03  0.25000000000E+03 0.  0.
<mgrwt>
<rscale>  0 0.90775492E+03</rscale>
<asrwt>0</asrwt>
<pdfrwt beam="1">  1        2 0.48629720E-01 0.90775492E+03</pdfrwt>
<pdfrwt beam="2">  1       -2 0.10026486E+00 0.90775492E+03</pdfrwt>
<totfact> 0.85271371E+01</totfact>
</mgrwt>
</event>
<event>
 4    1  0.1720876E-005  0.1156652E+04  0.7818608E-02  0.9151669E-01
         -2   -1    0    0    0  501 -0.00000000000E+00  0.00000000000E+00  0.34157624885E+03  0.34157624886E+03  0.25500000000E-02 0. -1.
          2   -1    0    0  501    0  0.00000000000E+00 -0.00000000000E+00 -0.97916865660E+03  0.97916865661E+03  0.25500000000E-02 0.  1.
   -5000001    1    1    2    0    0 -0.36977985971E+03  0.28670705165E+03 -0.55861932671E+02  0.53344037496E+03  0.25000000000E+03 0.  0.
    5000001    1    1    2    0    0  0.36977985971E+03 -0.28670705165E+03 -0.58173047508E+03  0.78730453051E+03  0.25000000000E+03 0.  0.
<mgrwt>
<rscale>  0 0.11566516E+04</rscale>
<asrwt>0</asrwt>
<pdfrwt beam="1">  1        2 0.15064133E+00 0.11566516E+04</pdfrwt>
<pdfrwt beam="2">  1       -2 0.52550192E-01 0.11566516E+04</pdfrwt>
<totfact> 0.87834722E+01</totfact>
</mgrwt>
</event>
<event>
 4    1  0.1720876E-005  0.5362058E+03  0.7818608E-02  0.1004738E+00
         -2   -1    0    0    0  501 -0.00000000000E+00  0.00000000000E+00  0.75104908291E+02  0.75104908334E+02  0.25500000000E-02 0. -1.
          2   -1    0    0  501    0  0.00000000000E+00 -0.00000000000E+00 -0.95705000796E+03  0.95705000796E+03  0.25500000000E-02 0.  1.
   -5000001    1    1    2    0    0  0.42476335740E+02  0.46190384168E+02 -0.58296564967E+03  0.63740625929E+03  0.25000000000E+03 0.  0.
    5000001    1    1    2    0    0 -0.42476335740E+02 -0.46190384168E+02 -0.29897945000E+03  0.39474865701E+03  0.25000000000E+03 0.  0.
<mgrwt>
<rscale>  0 0.53620576E+03</rscale>
<asrwt>0</asrwt>
<pdfrwt beam="1">  1        2 0.14723845E+00 0.53620576E+03</pdfrwt>
<pdfrwt beam="2">  1       -2 0.11554602E-01 0.53620576E+03</pdfrwt>
<totfact> 0.14646910E+03</totfact>
</mgrwt>
</event>
<event>
 4    1  0.1720876E-005  0.6338863E+03  0.7818608E-02  0.9837494E-01
         -2   -1    0    0    0  501 -0.00000000000E+00  0.00000000000E+00  0.10505766872E+03  0.10505766875E+03  0.25500000000E-02 0. -1.
          2   -1    0    0  501    0  0.00000000000E+00 -0.00000000000E+00 -0.95616956034E+03  0.95616956035E+03  0.25500000000E-02 0.  1.
   -5000001    1    1    2    0    0 -0.69436386063E+02 -0.14550294573E+03 -0.24246352086E+03  0.38377216923E+03  0.25000000000E+03 0.  0.
    5000001    1    1    2    0    0  0.69436386063E+02  0.14550294573E+03 -0.60864837076E+03  0.67745505987E+03  0.25000000000E+03 0.  0.
<mgrwt>
<rscale>  0 0.63388625E+03</rscale>
<asrwt>0</asrwt>
<pdfrwt beam="1">  1        2 0.14710300E+00 0.63388625E+03</pdfrwt>
<pdfrwt beam="2">  1       -2 0.16162719E-01 0.63388625E+03</pdfrwt>
<totfact> 0.83601547E+02</totfact>
</mgrwt>
</event>
<event>
 4    1  0.1720876E-005  0.7740062E+03  0.7818608E-02  0.9598423E-01
          2   -1    0    0  501    0  0.00000000000E+00  0.00000000000E+00  0.15070786264E+04  0.15070786264E+04  0.25500000000E-02 0.  1.
         -2   -1    0    0    0  501 -0.00000000000E+00 -0.00000000000E+00 -0.99378623776E+02  0.99378623809E+02  0.25500000000E-02 0. -1.
   -5000001    1    1    2    0    0  0.28513749279E+03 -0.52156100128E+02  0.82213130794E+03  0.90687570045E+03  0.25000000000E+03 0.  0.
    5000001    1    1    2    0    0 -0.28513749279E+03  0.52156100128E+02  0.58556869471E+03  0.69958154978E+03  0.25000000000E+03 0.  0.
<mgrwt>
<rscale>  0 0.77400620E+03</rscale>
<asrwt>0</asrwt>
<pdfrwt beam="1">  1        2 0.23185826E+00 0.77400620E+03</pdfrwt>
<pdfrwt beam="2">  1       -2 0.15289019E-01 0.77400620E+03</pdfrwt>
<totfact> 0.43143647E+02</totfact>
</mgrwt>
</event>
<event>
 4    1  0.1720876E-005  0.8138555E+03  0.7818608E-02  0.9540176E-01
         -2   -1    0    0    0  501 -0.00000000000E+00  0.00000000000E+00  0.56288486037E+02  0.56288486095E+02  0.25500000000E-02 0. -1.
          2   -1    0    0  501    0  0.00000000000E+00 -0.00000000000E+00 -0.29418126294E+04  0.29418126294E+04  0.25500000000E-02 0.  1.
   -5000001    1    1    2    0    0 -0.30201477767E+03  0.10611212092E+03 -0.13512228327E+04  0.14109485645E+04  0.25000000000E+03 0.  0.
    5000001    1    1    2    0    0  0.30201477767E+03 -0.10611212092E+03 -0.15343013107E+04  0.15871525510E+04  0.25000000000E+03 0.  0.
<mgrwt>
<rscale>  0 0.81385546E+03</rscale>
<asrwt>0</asrwt>
<pdfrwt beam="1">  1        2 0.45258644E+00 0.81385546E+03</pdfrwt>
<pdfrwt beam="2">  1       -2 0.86597693E-02 0.81385546E+03</pdfrwt>
<totfact> 0.17150890E+02</totfact>
</mgrwt>
</event>
<event>
 4    1  0.1720876E-005  0.1167866E+04  0.7818608E-02  0.9141458E-01
         -2   -1    0    0    0  501 -0.00000000000E+00  0.00000000000E+00  0.58554363819E+03  0.58554363819E+03  0.25500000000E-02 0. -1.
          2   -1    0    0  501    0  0.00000000000E+00 -0.00000000000E+00 -0.58232648247E+03  0.58232648247E+03  0.25500000000E-02 0.  1.
   -5000001    1    1    2    0    0  0.30328430147E+03  0.41328446352E+03  0.12687737260E+03  0.58428014085E+03  0.25000000000E+03 0.  0.
    5000001    1    1    2    0    0 -0.30328430147E+03 -0.41328446352E+03 -0.12366021688E+03  0.58358997982E+03  0.25000000000E+03 0.  0.
<mgrwt>
<rscale>  0 0.11678657E+04</rscale>
<asrwt>0</asrwt>
<pdfrwt beam="1">  1        2 0.89588690E-01 0.11678657E+04</pdfrwt>
<pdfrwt beam="2">  1       -2 0.90083637E-01 0.11678657E+04</pdfrwt>
<totfact> 0.53639277E+01</totfact>
</mgrwt>
</event>
<event>
 4    1  0.1720876E-005  0.6963424E+03  0.7818608E-02  0.9723508E-01
         -2   -1    0    0    0  501 -0.00000000000E+00  0.00000000000E+00  0.72165433200E+02  0.72165433245E+02  0.25500000000E-02 0. -1.
          2   -1    0    0  501    0  0.00000000000E+00 -0.00000000000E+00 -0.16797958160E+04  0.16797958160E+04  0.25500000000E-02 0.  1.
   -5000001    1    1    2    0    0 -0.21467680905E+03  0.10282593164E+03 -0.68951558679E+03  0.77109730189E+03  0.25000000000E+03 0.  0.
    5000001    1    1    2    0    0  0.21467680905E+03 -0.10282593164E+03 -0.91811479597E+03  0.98086394731E+03  0.25000000000E+03 0.  0.
<mgrwt>
<rscale>  0 0.69634242E+03</rscale>
<asrwt>0</asrwt>
<pdfrwt beam="1">  1        2 0.25843010E+00 0.69634242E+03</pdfrwt>
<pdfrwt beam="2">  1       -2 0.11102376E-01 0.69634242E+03</pdfrwt>
<totfact> 0.59338185E+02</totfact>
</mgrwt>
</event>
<event>
 4    1  0.1720876E-005  0.6422967E+03  0.7818608E-02  0.9821342E-01
          2   -1    0    0  501    0  0.00000000000E+00  0.00000000000E+00  0.40153138341E+03  0.40153138342E+03  0.25500000000E-02 0.  1.
         -2   -1    0    0    0  501 -0.00000000000E+00 -0.00000000000E+00 -0.25685726637E+03  0.25685726638E+03  0.25500000000E-02 0. -1.
   -5000001    1    1    2    0    0  0.32260716411E+02  0.11328784604E+03  0.24002459464E+03  0.36604193191E+03  0.25000000000E+03 0.  0.
    5000001    1    1    2    0    0 -0.32260716411E+02 -0.11328784604E+03 -0.95350477598E+02  0.29234671789E+03  0.25000000000E+03 0.  0.
<mgrwt>
<rscale>  0 0.64229667E+03</rscale>
<asrwt>0</asrwt>
<pdfrwt beam="1">  1        2 0.61774059E-01 0.64229667E+03</pdfrwt>
<pdfrwt beam="2">  1       -2 0.39516503E-01 0.64229667E+03</pdfrwt>
<totfact> 0.48339305E+02</totfact>
</mgrwt>
</event>
<event>
 4    1  0.1720876E-005  0.6058995E+03  0.7818608E-02  0.9893242E-01
          2   -1    0    0  501    0  0.00000000000E+00  0.00000000000E+00  0.32202861769E+03  0.32202861770E+03  0.25500000000E-02 0.  1.
         -2   -1    0    0    0  501 -0.00000000000E+00 -0.00000000000E+00 -0.28500120974E+03  0.28500120975E+03  0.25500000000E-02 0. -1.
   -5000001    1    1    2    0    0  0.94263970357E+01 -0.16198028952E+03  0.72948061834E+02  0.30683528298E+03  0.25000000000E+03 0.  0.
    5000001    1    1    2    0    0 -0.94263970357E+01  0.16198028952E+03 -0.35920653889E+02  0.30019454447E+03  0.25000000000E+03 0.  0.
<mgrwt>
<rscale>  0 0.60589948E+03</rscale>
<asrwt>0</asrwt>
<pdfrwt beam="1">  1        2 0.49542864E-01 0.60589948E+03</pdfrwt>
<pdfrwt beam="2">  1       -2 0.43846340E-01 0.60589948E+03</pdfrwt>
<totfact> 0.50448587E+02</totfact>
</mgrwt>
</event>
<event>
 4    1  0.1720876E-005  0.8698676E+03  0.7818608E-02  0.9464053E-01
          2   -1    0    0  501    0  0.00000000000E+00  0.00000000000E+00  0.67889109934E+03  0.67889109935E+03  0.25500000000E-02 0.  1.
         -2   -1    0    0    0  501 -0.00000000000E+00 -0.00000000000E+00 -0.27864173605E+03  0.27864173606E+03  0.25500000000E-02 0. -1.
   -5000001    1    1    2    0    0 -0.28196289016E+03 -0.18779710803E+03  0.80061068609E+02  0.42857974744E+03  0.25000000000E+03 0.  0.
    5000001    1    1    2    0    0  0.28196289016E+03  0.18779710803E+03  0.32018829469E+03  0.52895308796E+03  0.25000000000E+03 0.  0.
<mgrwt>
<rscale>  0 0.86986756E+03</rscale>
<asrwt>0</asrwt>
<pdfrwt beam="1">  1        2 0.10444478E+00 0.86986756E+03</pdfrwt>
<pdfrwt beam="2">  1       -2 0.42867960E-01 0.86986756E+03</pdfrwt>
<totfact> 0.22056666E+02</totfact>
</mgrwt>
</event>
<event>
 4    1  0.1720876E-005  0.6832687E+03  0.7818608E-02  0.9746281E-01
          2   -1    0    0  501    0  0.00000000000E+00  0.00000000000E+00  0.55178797274E+03  0.55178797275E+03  0.25500000000E-02 0.  1.
         -2   -1    0    0    0  501 -0.00000000000E+00 -0.00000000000E+00 -0.21151970080E+03  0.21151970082E+03  0.25500000000E-02 0. -1.
   -5000001    1    1    2    0    0  0.20144658010E+03 -0.76687849799E+02  0.26849508678E+03  0.42550130736E+03  0.25000000000E+03 0.  0.
    5000001    1    1    2    0    0 -0.20144658010E+03  0.76687849799E+02  0.71773185161E+02  0.33780636620E+03  0.25000000000E+03 0.  0.
<mgrwt>
<rscale>  0 0.68326869E+03</rscale>
<asrwt>0</asrwt>
<pdfrwt beam="1">  1        2 0.84890457E-01 0.68326869E+03</pdfrwt>
<pdfrwt beam="2">  1       -2 0.32541493E-01 0.68326869E+03</pdfrwt>
<totfact> 0.48581206E+02</totfact>
</mgrwt>
</event>
<event>
 4    1  0.1720876E-005  0.7021751E+03  0.7818608E-02  0.9713520E-01
         -2   -1    0    0    0  501 -0.00000000000E+00  0.00000000000E+00  0.12625926778E+03  0.12625926781E+03  0.25500000000E-02 0. -1.
          2   -1    0    0  501    0  0.00000000000E+00 -0.00000000000E+00 -0.97626474106E+03  0.97626474106E+03  0.25500000000E-02 0.  1.
   -5000001    1    1    2    0    0  0.66452987053E+01 -0.19766334910E+03 -0.65602116078E+03  0.72936871537E+03  0.25000000000E+03 0.  0.
    5000001    1    1    2    0    0 -0.66452987053E+01  0.19766334910E+03 -0.19398431249E+03  0.37315529350E+03  0.25000000000E+03 0.  0.
<mgrwt>
<rscale>  0 0.70217511E+03</rscale>
<asrwt>0</asrwt>
<pdfrwt beam="1">  1        2 0.15019457E+00 0.70217511E+03</pdfrwt>
<pdfrwt beam="2">  1       -2 0.19424503E-01 0.70217511E+03</pdfrwt>
<totfact> 0.59007044E+02</totfact>
</mgrwt>
</event>
<event>
 4    1  0.1720876E-005  0.6866488E+03  0.7818608E-02  0.9740341E-01
         -2   -1    0    0    0  501 -0.00000000000E+00  0.00000000000E+00  0.14597691599E+03  0.14597691601E+03  0.25500000000E-02 0. -1.
          2   -1    0    0  501    0  0.00000000000E+00 -0.00000000000E+00 -0.80746770899E+03  0.80746770900E+03  0.25500000000E-02 0.  1.
   -5000001    1    1    2    0    0 -0.54190694130E+02 -0.14748773230E+03 -0.57396879448E+03  0.64546838772E+03  0.25000000000E+03 0.  0.
    5000001    1    1    2    0    0  0.54190694130E+02  0.14748773230E+03 -0.87521998518E+02  0.30797623729E+03  0.25000000000E+03 0.  0.
<mgrwt>
<rscale>  0 0.68664881E+03</rscale>
<asrwt>0</asrwt>
<pdfrwt beam="1">  1        2 0.12422580E+00 0.68664881E+03</pdfrwt>
<pdfrwt beam="2">  1       -2 0.22457988E-01 0.68664881E+03</pdfrwt>
<totfact> 0.59487276E+02</totfact>
</mgrwt>
</event>
<event>
 4    1  0.1720876E-005  0.9757663E+03  0.7818608E-02  0.9335531E-01
          2   -1    0    0  501    0  0.00000000000E+00  0.00000000000E+00  0.11662520840E+04  0.11662520840E+04  0.25500000000E-02 0.  1.
         -2   -1    0    0    0  501 -0.00000000000E+00 -0.00000000000E+00 -0.20409821306E+03  0.20409821308E+03  0.25500000000E-02 0. -1.
   -5000001    1    1    2    0    0  0.29797869498E+03 -0.28065602142E+03  0.35569400636E+03  0.59714096425E+03  0.25000000000E+03 0.  0.
    5000001    1    1    2    0    0 -0.29797869498E+03  0.28065602142E+03  0.60645986454E+03  0.77320933280E+03  0.25000000000E+03 0.  0.
<mgrwt>
<rscale>  0 0.97576630E+03</rscale>
<asrwt>0</asrwt>
<pdfrwt beam="1">  1        2 0.17942340E+00 0.97576630E+03</pdfrwt>
<pdfrwt beam="2">  1       -2 0.31399725E-01 0.97576630E+03</pdfrwt>
<totfact> 0.18648228E+02</totfact>
</mgrwt>
</event>
<event>
 4    1  0.1720876E-005  0.6917514E+03  0.7818608E-02  0.9731443E-01
          2   -1    0    0  501    0  0.00000000000E+00  0.00000000000E+00  0.10214354224E+04  0.10214354224E+04  0.25500000000E-02 0.  1.
         -2   -1    0    0    0  501 -0.00000000000E+00 -0.00000000000E+00 -0.11711948568E+03  0.11711948571E+03  0.25500000000E-02 0. -1.
   -5000001    1    1    2    0    0 -0.18927771101E+03  0.12823198235E+03  0.33741017561E+03  0.47813713492E+03  0.25000000000E+03 0.  0.
    5000001    1    1    2    0    0  0.18927771101E+03 -0.12823198235E+03  0.56690576112E+03  0.66041777322E+03  0.25000000000E+03 0.  0.
<mgrwt>
<rscale>  0 0.69175138E+03</rscale>
<asrwt>0</asrwt>
<pdfrwt beam="1">  1        2 0.15714391E+00 0.69175138E+03</pdfrwt>
<pdfrwt beam="2">  1       -2 0.18018382E-01 0.69175138E+03</pdfrwt>
<totfact> 0.62929356E+02</totfact>
</mgrwt>
</event>
<event>
 4    1  0.1720876E-005  0.7152987E+03  0.7818608E-02  0.9691421E-01
          2   -1    0    0  501    0  0.00000000000E+00  0.00000000000E+00  0.36737957747E+03  0.36737957748E+03  0.25500000000E-02 0.  1.
         -2   -1    0    0    0  501 -0.00000000000E+00 -0.00000000000E+00 -0.34817681422E+03  0.34817681422E+03  0.25500000000E-02 0. -1.
   -5000001    1    1    2    0    0 -0.16126404364E+03  0.18236115056E+03 -0.68857544979E+02  0.35567266202E+03  0.25000000000E+03 0.  0.
    5000001    1    1    2    0    0  0.16126404364E+03 -0.18236115056E+03  0.88060308234E+02  0.35988372969E+03  0.25000000000E+03 0.  0.
<mgrwt>
<rscale>  0 0.71529868E+03</rscale>
<asrwt>0</asrwt>
<pdfrwt beam="1">  1        2 0.56519935E-01 0.71529868E+03</pdfrwt>
<pdfrwt beam="2">  1       -2 0.53565664E-01 0.71529868E+03</pdfrwt>
<totfact> 0.29009446E+02</totfact>
</mgrwt>
</event>
<event>
 4    1  0.1720876E-005  0.9646486E+03  0.7818608E-02  0.9348191E-01
          2   -1    0    0  501    0  0.00000000000E+00  0.00000000000E+00  0.15189060969E+04  0.15189060969E+04  0.25500000000E-02 0.  1.
         -2   -1    0    0    0  501 -0.00000000000E+00 -0.00000000000E+00 -0.15316069731E+03  0.15316069733E+03  0.25500000000E-02 0. -1.
   -5000001    1    1    2    0    0 -0.31705308841E+03  0.13203052828E+03  0.10788267947E+04  0.11594489959E+04  0.25000000000E+03 0.  0.
    5000001    1    1    2    0    0  0.31705308841E+03 -0.13203052828E+03  0.28691860489E+03  0.51261779827E+03  0.25000000000E+03 0.  0.
<mgrwt>
<rscale>  0 0.96464857E+03</rscale>
<asrwt>0</asrwt>
<pdfrwt beam="1">  1        2 0.23367786E+00 0.96464857E+03</pdfrwt>
<pdfrwt beam="2">  1       -2 0.23563184E-01 0.96464857E+03</pdfrwt>
<totfact> 0.19765290E+02</totfact>
</mgrwt>
</event>
<event>
 4    1  0.1720876E-005  0.7936040E+03  0.7818608E-02  0.9569321E-01
         -2   -1    0    0    0  501 -0.00000000000E+00  0.00000000000E+00  0.18937193787E+03  0.18937193789E+03  0.25500000000E-02 0. -1.
          2   -1    0    0  501    0  0.00000000000E+00 -0.00000000000E+00 -0.83144229173E+03  0.83144229173E+03  0.25500000000E-02 0.  1.
   -5000001    1    1    2    0    0  0.76515457238E+02  0.26384764531E+03 -0.14149748352E+03  0.39748173917E+03  0.25000000000E+03 0.  0.
    5000001    1    1    2    0    0 -0.76515457238E+02 -0.26384764531E+03 -0.50057287034E+03  0.62333249045E+03  0.25000000000E+03 0.  0.
<mgrwt>
<rscale>  0 0.79360403E+03</rscale>
<asrwt>0</asrwt>
<pdfrwt beam="1">  1        2 0.12791420E+00 0.79360403E+03</pdfrwt>
<pdfrwt beam="2">  1       -2 0.29134145E-01 0.79360403E+03</pdfrwt>
<totfact> 0.35573982E+02</totfact>
</mgrwt>
</event>
<event>
 4    1  0.1720876E-005  0.8575185E+03  0.7818608E-02  0.9480301E-01
          2   -1    0    0  501    0  0.00000000000E+00  0.00000000000E+00  0.72764634180E+03  0.72764634181E+03  0.25500000000E-02 0.  1.
         -2   -1    0    0    0  501 -0.00000000000E+00 -0.00000000000E+00 -0.25264264649E+03  0.25264264650E+03  0.25500000000E-02 0. -1.
   -5000001    1    1    2    0    0  0.29728820938E+03  0.14991594329E+03  0.12047664233E+03  0.43343937389E+03  0.25000000000E+03 0.  0.
    5000001    1    1    2    0    0 -0.29728820938E+03 -0.14991594329E+03  0.35452705299E+03  0.54684961442E+03  0.25000000000E+03 0.  0.
<mgrwt>
<rscale>  0 0.85751851E+03</rscale>
<asrwt>0</asrwt>
<pdfrwt beam="1">  1        2 0.11194559E+00 0.85751851E+03</pdfrwt>
<pdfrwt beam="2">  1       -2 0.38868100E-01 0.85751851E+03</pdfrwt>
<totfact> 0.24488187E+02</totfact>
</mgrwt>
</event>
<event>
 4    1  0.1720876E-005  0.1135052E+04  0.7818608E-02  0.9171685E-01
          2   -1    0    0  501    0  0.00000000000E+00  0.00000000000E+00  0.20570770709E+04  0.20570770709E+04  0.25500000000E-02 0.  1.
         -2   -1    0    0    0  501 -0.00000000000E+00 -0.00000000000E+00 -0.15657458293E+03  0.15657458295E+03  0.25500000000E-02 0. -1.
   -5000001    1    1    2    0    0  0.13031644712E+03 -0.47381845412E+03  0.12126300954E+04  0.13320878545E+04  0.25000000000E+03 0.  0.
    5000001    1    1    2    0    0 -0.13031644712E+03  0.47381845412E+03  0.68787239256E+03  0.88156379933E+03  0.25000000000E+03 0.  0.
<mgrwt>
<rscale>  0 0.11350524E+04</rscale>
<asrwt>0</asrwt>
<pdfrwt beam="1">  1        2 0.31647340E+00 0.11350524E+04</pdfrwt>
<pdfrwt beam="2">  1       -2 0.24088397E-01 0.11350524E+04</pdfrwt>
<totfact> 0.94622275E+01</totfact>
</mgrwt>
</event>
<event>
 4    1  0.1720876E-005  0.1258065E+04  0.7818608E-02  0.9063497E-01
         -2   -1    0    0    0  501 -0.00000000000E+00  0.00000000000E+00  0.13571128535E+04  0.13571128535E+04  0.25500000000E-02 0. -1.
          2   -1    0    0  501    0  0.00000000000E+00 -0.00000000000E+00 -0.29156148109E+03  0.29156148110E+03  0.25500000000E-02 0.  1.
   -5000001    1    1    2    0    0 -0.31510839382E+03  0.46127113049E+03  0.34233802034E+03  0.70125578490E+03  0.25000000000E+03 0.  0.
    5000001    1    1    2    0    0  0.31510839382E+03 -0.46127113049E+03  0.72321335203E+03  0.94741854965E+03  0.25000000000E+03 0.  0.
<mgrwt>
<rscale>  0 0.12580649E+04</rscale>
<asrwt>0</asrwt>
<pdfrwt beam="1">  1        2 0.44855614E-01 0.12580649E+04</pdfrwt>
<pdfrwt beam="2">  1       -2 0.20878659E+00 0.12580649E+04</pdfrwt>
<totfact> 0.12984026E+01</totfact>
</mgrwt>
</event>
<event>
 4    1  0.1720876E-005  0.5391973E+03  0.7818608E-02  0.1004026E+00
          2   -1    0    0  501    0  0.00000000000E+00  0.00000000000E+00  0.33866225922E+04  0.33866225922E+04  0.25500000000E-02 0.  1.
         -2   -1    0    0    0  501 -0.00000000000E+00 -0.00000000000E+00 -0.21461925594E+02  0.21461925745E+02  0.25500000000E-02 0. -1.
   -5000001    1    1    2    0    0 -0.55859681801E+02  0.82240036338E+02  0.17920053577E+04  0.18120891065E+04  0.25000000000E+03 0.  0.
    5000001    1    1    2    0    0  0.55859681801E+02 -0.82240036338E+02  0.15731553088E+04  0.15959954115E+04  0.25000000000E+03 0.  0.
<mgrwt>
<rscale>  0 0.53919734E+03</rscale>
<asrwt>0</asrwt>
<pdfrwt beam="1">  1        2 0.52101861E+00 0.53919734E+03</pdfrwt>
<pdfrwt beam="2">  1       -2 0.33018363E-02 0.53919734E+03</pdfrwt>
<totfact> 0.41909710E+02</totfact>
</mgrwt>
</event>
<event>
 4    1  0.1720876E-005  0.1433155E+04  0.7818608E-02  0.8930163E-01
         -2   -1    0    0    0  501 -0.00000000000E+00  0.00000000000E+00  0.55706504774E+03  0.55706504774E+03  0.25500000000E-02 0. -1.
          2   -1    0    0  501    0  0.00000000000E+00 -0.00000000000E+00 -0.92176607126E+03  0.92176607126E+03  0.25500000000E-02 0.  1.
   -5000001    1    1    2    0    0  0.22153748452E+03 -0.55009229633E+03 -0.50751794554E+03  0.81960652546E+03  0.25000000000E+03 0.  0.
    5000001    1    1    2    0    0 -0.22153748452E+03  0.55009229633E+03  0.14281692201E+03  0.65922459355E+03  0.25000000000E+03 0.  0.
<mgrwt>
<rscale>  0 0.14331555E+04</rscale>
<asrwt>0</asrwt>
<pdfrwt beam="1">  1        2 0.14181017E+00 0.14331555E+04</pdfrwt>
<pdfrwt beam="2">  1       -2 0.85702315E-01 0.14331555E+04</pdfrwt>
<totfact> 0.32558322E+01</totfact>
</mgrwt>
</event>
<event>
 4    1  0.1720876E-005  0.6528121E+03  0.7818608E-02  0.9801517E-01
         -2   -1    0    0    0  501 -0.00000000000E+00  0.00000000000E+00  0.73426685382E+03  0.73426685382E+03  0.25500000000E-02 0. -1.
          2   -1    0    0  501    0  0.00000000000E+00 -0.00000000000E+00 -0.14509836247E+03  0.14509836249E+03  0.25500000000E-02 0.  1.
   -5000001    1    1    2    0    0 -0.20355701360E+03  0.28467758836E+02  0.35165570615E+03  0.47792008406E+03  0.25000000000E+03 0.  0.
    5000001    1    1    2    0    0  0.20355701360E+03 -0.28467758836E+02  0.23751278520E+03  0.40144513226E+03  0.25000000000E+03 0.  0.
<mgrwt>
<rscale>  0 0.65281213E+03</rscale>
<asrwt>0</asrwt>
<pdfrwt beam="1">  1        2 0.22322825E-01 0.65281213E+03</pdfrwt>
<pdfrwt beam="2">  1       -2 0.11296413E+00 0.65281213E+03</pdfrwt>
<totfact> 0.15573488E+02</totfact>
</mgrwt>
</event>
<event>
 4    1  0.1720876E-005  0.7924840E+03  0.7818608E-02  0.9570960E-01
         -2   -1    0    0    0  501 -0.00000000000E+00  0.00000000000E+00  0.76248415515E+03  0.76248415515E+03  0.25500000000E-02 0.  1.
          2   -1    0    0  501    0  0.00000000000E+00 -0.00000000000E+00 -0.20591603126E+03  0.20591603127E+03  0.25500000000E-02 0. -1.
   -5000001    1    1    2    0    0  0.34645385498E+02 -0.30227606744E+03  0.33205937339E+03  0.51510634935E+03  0.25000000000E+03 0.  0.
    5000001    1    1    2    0    0 -0.34645385498E+02  0.30227606744E+03  0.22450875050E+03  0.45329383708E+03  0.25000000000E+03 0.  0.
<mgrwt>
<rscale>  0 0.79248397E+03</rscale>
<asrwt>0</asrwt>
<pdfrwt beam="1">  1        2 0.31679390E-01 0.79248397E+03</pdfrwt>
<pdfrwt beam="2">  1       -2 0.11730525E+00 0.79248397E+03</pdfrwt>
<totfact> 0.94697865E+01</totfact>
</mgrwt>
</event>
<event>
 4    1  0.1720876E-005  0.7615457E+03  0.7818608E-02  0.9617409E-01
          2   -1    0    0  501    0  0.00000000000E+00  0.00000000000E+00  0.29638361193E+04  0.29638361193E+04  0.25500000000E-02 0.  1.
         -2   -1    0    0    0  501 -0.00000000000E+00 -0.00000000000E+00 -0.48919019586E+02  0.48919019652E+02  0.25500000000E-02 0. -1.
   -5000001    1    1    2    0    0 -0.80302878371E+02 -0.25917477188E+03  0.18300019407E+04  0.18668227601E+04  0.25000000000E+03 0.  0.
    5000001    1    1    2    0    0  0.80302878371E+02  0.25917477188E+03  0.10849151591E+04  0.11459323789E+04  0.25000000000E+03 0.  0.
<mgrwt>
<rscale>  0 0.76154568E+03</rscale>
<asrwt>0</asrwt>
<pdfrwt beam="1">  1        2 0.45597470E+00 0.76154568E+03</pdfrwt>
<pdfrwt beam="2">  1       -2 0.75260045E-02 0.76154568E+03</pdfrwt>
<totfact> 0.20944007E+02</totfact>
</mgrwt>
</event>
<event>
 4    1  0.1720876E-005  0.7552887E+03  0.7818608E-02  0.9627090E-01
          2   -1    0    0  501    0  0.00000000000E+00  0.00000000000E+00  0.59996402851E+03  0.59996402851E+03  0.25500000000E-02 0.  1.
         -2   -1    0    0    0  501 -0.00000000000E+00 -0.00000000000E+00 -0.23770631159E+03  0.23770631161E+03  0.25500000000E-02 0. -1.
   -5000001    1    1    2    0    0 -0.68195781128E+02  0.22303087358E+03  0.35900220182E+03  0.49575802166E+03  0.25000000000E+03 0.  0.
    5000001    1    1    2    0    0  0.68195781128E+02 -0.22303087358E+03  0.32555150981E+01  0.34191231846E+03  0.25000000000E+03 0.  0.
<mgrwt>
<rscale>  0 0.75528865E+03</rscale>
<asrwt>0</asrwt>
<pdfrwt beam="1">  1        2 0.92302158E-01 0.75528865E+03</pdfrwt>
<pdfrwt beam="2">  1       -2 0.36570202E-01 0.75528865E+03</pdfrwt>
<totfact> 0.35149990E+02</totfact>
</mgrwt>
</event>
<event>
 4    1  0.1720876E-005  0.6981049E+03  0.7818608E-02  0.9720479E-01
         -2   -1    0    0    0  501 -0.00000000000E+00  0.00000000000E+00  0.54770655994E+02  0.54770656053E+02  0.25500000000E-02 0. -1.
          2   -1    0    0  501    0  0.00000000000E+00 -0.00000000000E+00 -0.22245052065E+04  0.22245052065E+04  0.25500000000E-02 0.  1.
   -5000001    1    1    2    0    0  0.20864597835E+03 -0.11932505740E+03 -0.95566459601E+03  0.10166446939E+04  0.25000000000E+03 0.  0.
    5000001    1    1    2    0    0 -0.20864597835E+03  0.11932505740E+03 -0.12140699545E+04  0.12626311687E+04  0.25000000000E+03 0.  0.
<mgrwt>
<rscale>  0 0.69810489E+03</rscale>
<asrwt>0</asrwt>
<pdfrwt beam="1">  1        2 0.34223150E+00 0.69810489E+03</pdfrwt>
<pdfrwt beam="2">  1       -2 0.84262565E-02 0.69810489E+03</pdfrwt>
<totfact> 0.46822349E+02</totfact>
</mgrwt>
</event>
<event>
 4    1  0.1720876E-005  0.7754645E+03  0.7818608E-02  0.9596226E-01
          2   -1    0    0  501    0  0.00000000000E+00  0.00000000000E+00  0.40209235417E+04  0.40209235417E+04  0.25500000000E-02 0.  1.
         -2   -1    0    0    0  501 -0.00000000000E+00 -0.00000000000E+00 -0.37388501743E+02  0.37388501830E+02  0.25500000000E-02 0. -1.
   -5000001    1    1    2    0    0 -0.25647563851E+03 -0.14830271976E+03  0.19502758449E+04  0.19884288574E+04  0.25000000000E+03 0.  0.
    5000001    1    1    2    0    0  0.25647563851E+03  0.14830271976E+03  0.20332591950E+04  0.20698831861E+04  0.25000000000E+03 0.  0.
<mgrwt>
<rscale>  0 0.77546452E+03</rscale>
<asrwt>0</asrwt>
<pdfrwt beam="1">  1        2 0.61860339E+00 0.77546452E+03</pdfrwt>
<pdfrwt beam="2">  1       -2 0.57520793E-02 0.77546452E+03</pdfrwt>
<totfact> 0.59947610E+01</totfact>
</mgrwt>
</event>
<event>
 4    1  0.1720876E-005  0.8209536E+03  0.7818608E-02  0.9530173E-01
          2   -1    0    0  501    0  0.00000000000E+00  0.00000000000E+00  0.93663801763E+03  0.93663801764E+03  0.25500000000E-02 0.  1.
         -2   -1    0    0    0  501 -0.00000000000E+00 -0.00000000000E+00 -0.17988933457E+03  0.17988933459E+03  0.25500000000E-02 0. -1.
   -5000001    1    1    2    0    0  0.32055454864E+03 -0.18813457410E+02  0.30536143509E+03  0.50877772246E+03  0.25000000000E+03 0.  0.
    5000001    1    1    2    0    0 -0.32055454864E+03  0.18813457410E+02  0.45138724798E+03  0.60774962976E+03  0.25000000000E+03 0.  0.
<mgrwt>
<rscale>  0 0.82095357E+03</rscale>
<asrwt>0</asrwt>
<pdfrwt beam="1">  1        2 0.14409815E+00 0.82095357E+03</pdfrwt>
<pdfrwt beam="2">  1       -2 0.27675283E-01 0.82095357E+03</pdfrwt>
<totfact> 0.33116912E+02</totfact>
</mgrwt>
</event>
<event>
 4    1  0.1720876E-005  0.5833808E+03  0.7818608E-02  0.9940498E-01
          2   -1    0    0  501    0  0.00000000000E+00  0.00000000000E+00  0.32474227473E+03  0.32474227474E+03  0.25500000000E-02 0.  1.
         -2   -1    0    0    0  501 -0.00000000000E+00 -0.00000000000E+00 -0.26200252204E+03  0.26200252205E+03  0.25500000000E-02 0. -1.
   -5000001    1    1    2    0    0 -0.12557636355E+03  0.37556327653E+01  0.11430607415E+03  0.30224064328E+03  0.25000000000E+03 0.  0.
    5000001    1    1    2    0    0  0.12557636355E+03 -0.37556327653E+01 -0.51566321465E+02  0.28450415352E+03  0.25000000000E+03 0.  0.
<mgrwt>
<rscale>  0 0.58338082E+03</rscale>
<asrwt>0</asrwt>
<pdfrwt beam="1">  1        2 0.49960350E-01 0.58338082E+03</pdfrwt>
<pdfrwt beam="2">  1       -2 0.40308080E-01 0.58338082E+03</pdfrwt>
<totfact> 0.58966569E+02</totfact>
</mgrwt>
</event>
<event>
 4    1  0.1720876E-005  0.6253770E+03  0.7818608E-02  0.9854112E-01
          2   -1    0    0  501    0  0.00000000000E+00  0.00000000000E+00  0.13159890237E+04  0.13159890237E+04  0.25500000000E-02 0.  1.
         -2   -1    0    0    0  501 -0.00000000000E+00 -0.00000000000E+00 -0.74297040853E+02  0.74297040897E+02  0.25500000000E-02 0. -1.
   -5000001    1    1    2    0    0 -0.15473951026E+03  0.43275414262E+02  0.40465416532E+03  0.50205783633E+03  0.25000000000E+03 0.  0.
    5000001    1    1    2    0    0  0.15473951026E+03 -0.43275414262E+02  0.83703781751E+03  0.88822822825E+03  0.25000000000E+03 0.  0.
<mgrwt>
<rscale>  0 0.62537698E+03</rscale>
<asrwt>0</asrwt>
<pdfrwt beam="1">  1        2 0.20245987E+00 0.62537698E+03</pdfrwt>
<pdfrwt beam="2">  1       -2 0.11430313E-01 0.62537698E+03</pdfrwt>
<totfact> 0.90455529E+02</totfact>
</mgrwt>
</event>
<event>
 4    1  0.1720876E-005  0.6164239E+03  0.7818608E-02  0.9871906E-01
          2   -1    0    0  501    0  0.00000000000E+00  0.00000000000E+00  0.57498389777E+03  0.57498389778E+03  0.25500000000E-02 0.  1.
         -2   -1    0    0    0  501 -0.00000000000E+00 -0.00000000000E+00 -0.16521262936E+03  0.16521262938E+03  0.25500000000E-02 0. -1.
   -5000001    1    1    2    0    0  0.50961495994E+02 -0.15057985718E+03  0.10283083538E+03  0.31360093777E+03  0.25000000000E+03 0.  0.
    5000001    1    1    2    0    0 -0.50961495994E+02  0.15057985718E+03  0.30694043303E+03  0.42659558939E+03  0.25000000000E+03 0.  0.
<mgrwt>
<rscale>  0 0.61642389E+03</rscale>
<asrwt>0</asrwt>
<pdfrwt beam="1">  1        2 0.88459060E-01 0.61642389E+03</pdfrwt>
<pdfrwt beam="2">  1       -2 0.25417328E-01 0.61642389E+03</pdfrwt>
<totfact> 0.73001500E+02</totfact>
</mgrwt>
</event>
<event>
 4    1  0.1720876E-005  0.6897642E+03  0.7818608E-02  0.9734899E-01
          2   -1    0    0  501    0  0.00000000000E+00  0.00000000000E+00  0.32099321832E+04  0.32099321832E+04  0.25500000000E-02 0.  1.
         -2   -1    0    0    0  501 -0.00000000000E+00 -0.00000000000E+00 -0.37054886134E+02  0.37054886222E+02  0.25500000000E-02 0. -1.
   -5000001    1    1    2    0    0 -0.88234438173E+02 -0.11431825123E+03  0.24744980459E+04  0.24912837168E+04  0.25000000000E+03 0.  0.
    5000001    1    1    2    0    0  0.88234438173E+02  0.11431825123E+03  0.69837925118E+03  0.75570335260E+03  0.25000000000E+03 0.  0.
<mgrwt>
<rscale>  0 0.68976423E+03</rscale>
<asrwt>0</asrwt>
<pdfrwt beam="1">  1        2 0.49383579E+00 0.68976423E+03</pdfrwt>
<pdfrwt beam="2">  1       -2 0.57007510E-02 0.68976423E+03</pdfrwt>
<totfact> 0.23028110E+02</totfact>
</mgrwt>
</event>
<event>
 4    1  0.1720876E-005  0.1076196E+04  0.7818608E-02  0.9228709E-01
         -2   -1    0    0    0  501 -0.00000000000E+00  0.00000000000E+00  0.47855801624E+03  0.47855801625E+03  0.25500000000E-02 0. -1.
          2   -1    0    0  501    0  0.00000000000E+00 -0.00000000000E+00 -0.60504530198E+03  0.60504530199E+03  0.25500000000E-02 0.  1.
   -5000001    1    1    2    0    0  0.45467872132E+03  0.93480447077E+02 -0.17158514270E+03  0.55444818946E+03  0.25000000000E+03 0.  0.
    5000001    1    1    2    0    0 -0.45467872132E+03 -0.93480447077E+02  0.45097856957E+02  0.52915512877E+03  0.25000000000E+03 0.  0.
<mgrwt>
<rscale>  0 0.10761957E+04</rscale>
<asrwt>0</asrwt>
<pdfrwt beam="1">  1        2 0.93083893E-01 0.10761957E+04</pdfrwt>
<pdfrwt beam="2">  1       -2 0.73624310E-01 0.10761957E+04</pdfrwt>
<totfact> 0.81261449E+01</totfact>
</mgrwt>
</event>
<event>
 4    1  0.1720876E-005  0.8250095E+03  0.7818608E-02  0.9524506E-01
          2   -1    0    0  501    0  0.00000000000E+00  0.00000000000E+00  0.43054055526E+03  0.43054055527E+03  0.25500000000E-02 0.  1.
         -2   -1    0    0    0  501 -0.00000000000E+00 -0.00000000000E+00 -0.39522443855E+03  0.39522443856E+03  0.25500000000E-02 0. -1.
   -5000001    1    1    2    0    0  0.19342236465E+03 -0.26443233458E+03  0.35660038046E+02  0.41365240121E+03  0.25000000000E+03 0.  0.
    5000001    1    1    2    0    0 -0.19342236465E+03  0.26443233458E+03 -0.34392133713E+00  0.41211259262E+03  0.25000000000E+03 0.  0.
<mgrwt>
<rscale>  0 0.82500945E+03</rscale>
<asrwt>0</asrwt>
<pdfrwt beam="1">  1        2 0.66237008E-01 0.82500945E+03</pdfrwt>
<pdfrwt beam="2">  1       -2 0.60803760E-01 0.82500945E+03</pdfrwt>
<totfact> 0.18544794E+02</totfact>
</mgrwt>
</event>
<event>
 4    1  0.1720876E-005  0.5714680E+03  0.7818608E-02  0.9966435E-01
          2   -1    0    0  501    0  0.00000000000E+00  0.00000000000E+00  0.24383349270E+03  0.24383349271E+03  0.25500000000E-02 0.  1.
         -2   -1    0    0    0  501 -0.00000000000E+00 -0.00000000000E+00 -0.33483470234E+03  0.33483470235E+03  0.25500000000E-02 0. -1.
   -5000001    1    1    2    0    0  0.11253041124E+03 -0.45428872820E+02  0.21797575964E+02  0.27875080315E+03  0.25000000000E+03 0.  0.
    5000001    1    1    2    0    0 -0.11253041124E+03  0.45428872820E+02 -0.11279878561E+03  0.29991739192E+03  0.25000000000E+03 0.  0.
<mgrwt>
<rscale>  0 0.57146799E+03</rscale>
<asrwt>0</asrwt>
<pdfrwt beam="1">  1        2 0.37512845E-01 0.57146799E+03</pdfrwt>
<pdfrwt beam="2">  1       -2 0.51513031E-01 0.57146799E+03</pdfrwt>
<totfact> 0.49681415E+02</totfact>
</mgrwt>
</event>
<event>
 4    1  0.1720876E-005  0.5810613E+03  0.7818608E-02  0.9945496E-01
          2   -1    0    0  501    0  0.00000000000E+00  0.00000000000E+00  0.12289470571E+03  0.12289470574E+03  0.25500000000E-02 0.  1.
         -2   -1    0    0    0  501 -0.00000000000E+00 -0.00000000000E+00 -0.68683230695E+03  0.68683230696E+03  0.25500000000E-02 0. -1.
   -5000001    1    1    2    0    0 -0.11094775891E+03 -0.96802463538E+02 -0.26093007504E+03  0.39021100217E+03  0.25000000000E+03 0.  0.
    5000001    1    1    2    0    0  0.11094775891E+03  0.96802463538E+02 -0.30300752620E+03  0.41951601052E+03  0.25000000000E+03 0.  0.
<mgrwt>
<rscale>  0 0.58106129E+03</rscale>
<asrwt>0</asrwt>
<pdfrwt beam="1">  1        2 0.18906878E-01 0.58106129E+03</pdfrwt>
<pdfrwt beam="2">  1       -2 0.10566651E+00 0.58106129E+03</pdfrwt>
<totfact> 0.22263050E+02</totfact>
</mgrwt>
</event>
<event>
 4    1  0.1720876E-005  0.6682129E+03  0.7818608E-02  0.9773192E-01
         -2   -1    0    0    0  501 -0.00000000000E+00  0.00000000000E+00  0.73470605988E+02  0.73470606032E+02  0.25500000000E-02 0. -1.
          2   -1    0    0  501    0  0.00000000000E+00 -0.00000000000E+00 -0.15193440874E+04  0.15193440874E+04  0.25500000000E-02 0.  1.
   -5000001    1    1    2    0    0  0.12809327606E+03  0.17494386967E+03 -0.83253184414E+03  0.89589202274E+03  0.25000000000E+03 0.  0.
    5000001    1    1    2    0    0 -0.12809327606E+03 -0.17494386967E+03 -0.61334163723E+03  0.69692267065E+03  0.25000000000E+03 0.  0.
<mgrwt>
<rscale>  0 0.66821293E+03</rscale>
<asrwt>0</asrwt>
<pdfrwt beam="1">  1        2 0.23374522E+00 0.66821293E+03</pdfrwt>
<pdfrwt beam="2">  1       -2 0.11303171E-01 0.66821293E+03</pdfrwt>
<totfact> 0.70699819E+02</totfact>
</mgrwt>
</event>
<event>
 4    1  0.1720876E-005  0.8384646E+03  0.7818608E-02  0.9505951E-01
         -2   -1    0    0    0  501 -0.00000000000E+00  0.00000000000E+00  0.10103099073E+03  0.10103099076E+03  0.25500000000E-02 0. -1.
          2   -1    0    0  501    0  0.00000000000E+00 -0.00000000000E+00 -0.17396219904E+04  0.17396219904E+04  0.25500000000E-02 0.  1.
   -5000001    1    1    2    0    0 -0.33233940346E+03  0.28017800390E+02 -0.72059986639E+03  0.83246540089E+03  0.25000000000E+03 0.  0.
    5000001    1    1    2    0    0  0.33233940346E+03 -0.28017800390E+02 -0.91799113325E+03  0.10081875802E+04  0.25000000000E+03 0.  0.
<mgrwt>
<rscale>  0 0.83846463E+03</rscale>
<asrwt>0</asrwt>
<pdfrwt beam="1">  1        2 0.26763413E+00 0.83846463E+03</pdfrwt>
<pdfrwt beam="2">  1       -2 0.15543231E-01 0.83846463E+03</pdfrwt>
<totfact> 0.31097281E+02</totfact>
</mgrwt>
</event>
<event>
 4    1  0.1720876E-005  0.6206363E+03  0.7818608E-02  0.9863494E-01
         -2   -1    0    0    0  501 -0.00000000000E+00  0.00000000000E+00  0.77679587697E+02  0.77679587739E+02  0.25500000000E-02 0. -1.
          2   -1    0    0  501    0  0.00000000000E+00 -0.00000000000E+00 -0.12396739070E+04  0.12396739070E+04  0.25500000000E-02 0.  1.
   -5000001    1    1    2    0    0 -0.13929438151E+03  0.11050643237E+03 -0.68016441819E+03  0.74614893425E+03  0.25000000000E+03 0.  0.
    5000001    1    1    2    0    0  0.13929438151E+03 -0.11050643237E+03 -0.48182990109E+03  0.57120456047E+03  0.25000000000E+03 0.  0.
<mgrwt>
<rscale>  0 0.62063631E+03</rscale>
<asrwt>0</asrwt>
<pdfrwt beam="1">  1        2 0.19071905E+00 0.62063631E+03</pdfrwt>
<pdfrwt beam="2">  1       -2 0.11950707E-01 0.62063631E+03</pdfrwt>
<totfact> 0.93041684E+02</totfact>
</mgrwt>
</event>
<event>
 4    1  0.1720876E-005  0.5874855E+03  0.7818608E-02  0.9931715E-01
          2   -1    0    0  501    0  0.00000000000E+00  0.00000000000E+00  0.34887228201E+04  0.34887228201E+04  0.25500000000E-02 0.  1.
         -2   -1    0    0    0  501 -0.00000000000E+00 -0.00000000000E+00 -0.24732486364E+02  0.24732486496E+02  0.25500000000E-02 0. -1.
   -5000001    1    1    2    0    0 -0.13387355957E+03 -0.76564550495E+02  0.17276435009E+04  0.17524372532E+04  0.25000000000E+03 0.  0.
    5000001    1    1    2    0    0  0.13387355957E+03  0.76564550495E+02  0.17363468329E+04  0.17610180534E+04  0.25000000000E+03 0.  0.
<mgrwt>
<rscale>  0 0.58748545E+03</rscale>
<asrwt>0</asrwt>
<pdfrwt beam="1">  1        2 0.53672680E+00 0.58748545E+03</pdfrwt>
<pdfrwt beam="2">  1       -2 0.38049964E-02 0.58748545E+03</pdfrwt>
<totfact> 0.28656999E+02</totfact>
</mgrwt>
</event>
<event>
 4    1  0.1720876E-005  0.5822968E+03  0.7818608E-02  0.9942831E-01
          2   -1    0    0  501    0  0.00000000000E+00  0.00000000000E+00  0.30041050816E+04  0.30041050816E+04  0.25500000000E-02 0.  1.
         -2   -1    0    0    0  501 -0.00000000000E+00 -0.00000000000E+00 -0.28217181048E+02  0.28217181164E+02  0.25500000000E-02 0. -1.
   -5000001    1    1    2    0    0 -0.47098937213E+02 -0.63068528615E+02  0.21481176505E+04  0.21640483796E+04  0.25000000000E+03 0.  0.
    5000001    1    1    2    0    0  0.47098937213E+02  0.63068528615E+02  0.82777025011E+03  0.86827388315E+03  0.25000000000E+03 0.  0.
<mgrwt>
<rscale>  0 0.58229675E+03</rscale>
<asrwt>0</asrwt>
<pdfrwt beam="1">  1        2 0.46217008E+00 0.58229675E+03</pdfrwt>
<pdfrwt beam="2">  1       -2 0.43411041E-02 0.58229675E+03</pdfrwt>
<totfact> 0.47811873E+02</totfact>
</mgrwt>
</event>
<event>
 4    1  0.1720876E-005  0.7986867E+03  0.7818608E-02  0.9561920E-01
          2   -1    0    0  501    0  0.00000000000E+00  0.00000000000E+00  0.24802836503E+04  0.24802836503E+04  0.25500000000E-02 0.  1.
         -2   -1    0    0    0  501 -0.00000000000E+00 -0.00000000000E+00 -0.64297125803E+02  0.64297125854E+02  0.25500000000E-02 0. -1.
   -5000001    1    1    2    0    0 -0.26554988552E+03  0.22373027783E+02  0.17212963360E+04  0.17596529119E+04  0.25000000000E+03 0.  0.
    5000001    1    1    2    0    0  0.26554988552E+03 -0.22373027783E+02  0.69469018849E+03  0.78492786423E+03  0.25000000000E+03 0.  0.
<mgrwt>
<rscale>  0 0.79868670E+03</rscale>
<asrwt>0</asrwt>
<pdfrwt beam="1">  1        2 0.38158213E+00 0.79868670E+03</pdfrwt>
<pdfrwt beam="2">  1       -2 0.98918648E-02 0.79868670E+03</pdfrwt>
<totfact> 0.25783714E+02</totfact>
</mgrwt>
</event>
<event>
 4    1  0.1720876E-005  0.7587169E+03  0.7818608E-02  0.9621773E-01
         -2   -1    0    0    0  501 -0.00000000000E+00  0.00000000000E+00  0.11234295893E+03  0.11234295896E+03  0.25500000000E-02 0. -1.
          2   -1    0    0  501    0  0.00000000000E+00 -0.00000000000E+00 -0.12810134050E+04  0.12810134050E+04  0.25500000000E-02 0.  1.
   -5000001    1    1    2    0    0 -0.27654579851E+03  0.57399937876E+02 -0.65871779645E+03  0.75906618085E+03  0.25000000000E+03 0.  0.
    5000001    1    1    2    0    0  0.27654579851E+03 -0.57399937876E+02 -0.50995264959E+03  0.63429018309E+03  0.25000000000E+03 0.  0.
<mgrwt>
<rscale>  0 0.75871691E+03</rscale>
<asrwt>0</asrwt>
<pdfrwt beam="1">  1        2 0.19707898E+00 0.75871691E+03</pdfrwt>
<pdfrwt beam="2">  1       -2 0.17283533E-01 0.75871691E+03</pdfrwt>
<totfact> 0.47045833E+02</totfact>
</mgrwt>
</event>
<event>
 4    1  0.1720876E-005  0.6718323E+03  0.7818608E-02  0.9766653E-01
         -2   -1    0    0    0  501 -0.00000000000E+00  0.00000000000E+00  0.57480266850E+02  0.57480266906E+02  0.25500000000E-02 0. -1.
          2   -1    0    0  501    0  0.00000000000E+00 -0.00000000000E+00 -0.19631024586E+04  0.19631024586E+04  0.25500000000E-02 0.  1.
   -5000001    1    1    2    0    0 -0.32678877341E+02 -0.21881548349E+03 -0.84061911789E+03  0.90448251846E+03  0.25000000000E+03 0.  0.
    5000001    1    1    2    0    0  0.32678877341E+02  0.21881548349E+03 -0.10650030738E+04  0.11161002070E+04  0.25000000000E+03 0.  0.
<mgrwt>
<rscale>  0 0.67183228E+03</rscale>
<asrwt>0</asrwt>
<pdfrwt beam="1">  1        2 0.30201571E+00 0.67183228E+03</pdfrwt>
<pdfrwt beam="2">  1       -2 0.88431195E-02 0.67183228E+03</pdfrwt>
<totfact> 0.60320183E+02</totfact>
</mgrwt>
</event>
<event>
 4    1  0.1720876E-005  0.5747525E+03  0.7818608E-02  0.9959217E-01
         -2   -1    0    0    0  501 -0.00000000000E+00  0.00000000000E+00  0.16107996991E+03  0.16107996993E+03  0.25500000000E-02 0. -1.
          2   -1    0    0  501    0  0.00000000000E+00 -0.00000000000E+00 -0.51269632073E+03  0.51269632074E+03  0.25500000000E-02 0.  1.
   -5000001    1    1    2    0    0  0.60910056552E+01 -0.13095646387E+03 -0.11269574150E+03  0.30395234155E+03  0.25000000000E+03 0.  0.
    5000001    1    1    2    0    0 -0.60910056552E+01  0.13095646387E+03 -0.23892060933E+03  0.36982394912E+03  0.25000000000E+03 0.  0.
<mgrwt>
<rscale>  0 0.57475250E+03</rscale>
<asrwt>0</asrwt>
<pdfrwt beam="1">  1        2 0.78876357E-01 0.57475250E+03</pdfrwt>
<pdfrwt beam="2">  1       -2 0.24781534E-01 0.57475250E+03</pdfrwt>
<totfact> 0.87442476E+02</totfact>
</mgrwt>
</event>
<event>
 4    1  0.1720876E-005  0.6384667E+03  0.7818608E-02  0.9828665E-01
         -2   -1    0    0    0  501 -0.00000000000E+00  0.00000000000E+00  0.12898819760E+03  0.12898819763E+03  0.25500000000E-02 0. -1.
          2   -1    0    0  501    0  0.00000000000E+00 -0.00000000000E+00 -0.79007180341E+03  0.79007180341E+03  0.25500000000E-02 0.  1.
   -5000001    1    1    2    0    0 -0.91092873978E+02  0.17307657884E+03 -0.37949521198E+03  0.49474238726E+03  0.25000000000E+03 0.  0.
    5000001    1    1    2    0    0  0.91092873978E+02 -0.17307657884E+03 -0.28158839382E+03  0.42431761378E+03  0.25000000000E+03 0.  0.
<mgrwt>
<rscale>  0 0.63846672E+03</rscale>
<asrwt>0</asrwt>
<pdfrwt beam="1">  1        2 0.12154951E+00 0.63846672E+03</pdfrwt>
<pdfrwt beam="2">  1       -2 0.19844339E-01 0.63846672E+03</pdfrwt>
<totfact> 0.76208332E+02</totfact>
</mgrwt>
</event>
<event>
 4    1  0.1720876E-005  0.7926855E+03  0.7818608E-02  0.9570665E-01
         -2   -1    0    0    0  501 -0.00000000000E+00  0.00000000000E+00  0.12146161405E+03  0.12146161407E+03  0.25500000000E-02 0. -1.
          2   -1    0    0  501    0  0.00000000000E+00 -0.00000000000E+00 -0.12933105299E+04  0.12933105299E+04  0.25500000000E-02 0.  1.
   -5000001    1    1    2    0    0  0.49717238120E+02 -0.28592051732E+03 -0.40421596655E+03  0.55687780850E+03  0.25000000000E+03 0.  0.
    5000001    1    1    2    0    0 -0.49717238120E+02  0.28592051732E+03 -0.76763294932E+03  0.85789433550E+03  0.25000000000E+03 0.  0.
<mgrwt>
<rscale>  0 0.79268552E+03</rscale>
<asrwt>0</asrwt>
<pdfrwt beam="1">  1        2 0.19897084E+00 0.79268552E+03</pdfrwt>
<pdfrwt beam="2">  1       -2 0.18686403E-01 0.79268552E+03</pdfrwt>
<totfact> 0.40375726E+02</totfact>
</mgrwt>
</event>
<event>
 4    1  0.1720876E-005  0.1448000E+04  0.7818608E-02  0.8919788E-01
         -2   -1    0    0    0  501 -0.00000000000E+00  0.00000000000E+00  0.12385090180E+04  0.12385090180E+04  0.25500000000E-02 0. -1.
          2   -1    0    0  501    0  0.00000000000E+00 -0.00000000000E+00 -0.42323173642E+03  0.42323173642E+03  0.25500000000E-02 0.  1.
   -5000001    1    1    2    0    0  0.37975185419E+03  0.43536866729E+03  0.81809034311E+03  0.10322447174E+04  0.25000000000E+03 0.  0.
    5000001    1    1    2    0    0 -0.37975185419E+03 -0.43536866729E+03 -0.28130615520E+01  0.62949603695E+03  0.25000000000E+03 0.  0.
<mgrwt>
<rscale>  0 0.14480004E+04</rscale>
<asrwt>0</asrwt>
<pdfrwt beam="1">  1        2 0.65112575E-01 0.14480004E+04</pdfrwt>
<pdfrwt beam="2">  1       -2 0.19053985E+00 0.14480004E+04</pdfrwt>
<totfact> 0.11108204E+01</totfact>
</mgrwt>
</event>
<event>
 4    1  0.1720876E-005  0.9807613E+03  0.7818608E-02  0.9329901E-01
         -2   -1    0    0    0  501 -0.00000000000E+00  0.00000000000E+00  0.49040738504E+03  0.49040738504E+03  0.25500000000E-02 0. -1.
          2   -1    0    0  501    0  0.00000000000E+00 -0.00000000000E+00 -0.49035387492E+03  0.49035387493E+03  0.25500000000E-02 0.  1.
   -5000001    1    1    2    0    0 -0.84449634263E+02  0.39275560169E+03 -0.12875390425E+03  0.49037360374E+03  0.25000000000E+03 0.  0.
    5000001    1    1    2    0    0  0.84449634263E+02 -0.39275560169E+03  0.12880741436E+03  0.49038765623E+03  0.25000000000E+03 0.  0.
<mgrwt>
<rscale>  0 0.98076126E+03</rscale>
<asrwt>0</asrwt>
<pdfrwt beam="1">  1        2 0.75439058E-01 0.98076126E+03</pdfrwt>
<pdfrwt beam="2">  1       -2 0.75447290E-01 0.98076126E+03</pdfrwt>
<totfact> 0.99282132E+01</totfact>
</mgrwt>
</event>
<event>
 4    1  0.1720876E-005  0.2687789E+04  0.7818608E-02  0.8338978E-01
         -2   -1    0    0    0  501 -0.00000000000E+00  0.00000000000E+00  0.82730847222E+03  0.82730847223E+03  0.25500000000E-02 0. -1.
          2   -1    0    0  501    0  0.00000000000E+00 -0.00000000000E+00 -0.21830460563E+04  0.21830460563E+04  0.25500000000E-02 0.  1.
   -5000001    1    1    2    0    0  0.10720432327E+04  0.33373453439E+03 -0.14561736618E+04  0.18556931765E+04  0.25000000000E+03 0.  0.
    5000001    1    1    2    0    0 -0.10720432327E+04 -0.33373453439E+03  0.10043607767E+03  0.11546613520E+04  0.25000000000E+03 0.  0.
<mgrwt>
<rscale>  0 0.26877891E+04</rscale>
<asrwt>0</asrwt>
<pdfrwt beam="1">  1        2 0.33585324E+00 0.26877891E+04</pdfrwt>
<pdfrwt beam="2">  1       -2 0.12727823E+00 0.26877891E+04</pdfrwt>
<totfact> 0.21236635E+00</totfact>
</mgrwt>
</event>
<event>
 4    1  0.1720876E-005  0.8180202E+03  0.7818608E-02  0.9534294E-01
         -2   -1    0    0    0  501 -0.00000000000E+00  0.00000000000E+00  0.37155108194E+03  0.37155108195E+03  0.25500000000E-02 0. -1.
          2   -1    0    0  501    0  0.00000000000E+00 -0.00000000000E+00 -0.45024561307E+03  0.45024561308E+03  0.25500000000E-02 0.  1.
   -5000001    1    1    2    0    0 -0.12489761776E+02  0.31579046683E+03  0.31044982791E+02  0.40415764751E+03  0.25000000000E+03 0.  0.
    5000001    1    1    2    0    0  0.12489761776E+02 -0.31579046683E+03 -0.10973951392E+03  0.41763904751E+03  0.25000000000E+03 0.  0.
<mgrwt>
<rscale>  0 0.81802016E+03</rscale>
<asrwt>0</asrwt>
<pdfrwt beam="1">  1        2 0.69268556E-01 0.81802016E+03</pdfrwt>
<pdfrwt beam="2">  1       -2 0.57161705E-01 0.81802016E+03</pdfrwt>
<totfact> 0.20075027E+02</totfact>
</mgrwt>
</event>
<event>
 4    1  0.1720876E-005  0.7732421E+03  0.7818608E-02  0.9599577E-01
         -2   -1    0    0    0  501 -0.00000000000E+00  0.00000000000E+00  0.88201632206E+02  0.88201632243E+02  0.25500000000E-02 0. -1.
          2   -1    0    0  501    0  0.00000000000E+00 -0.00000000000E+00 -0.16947059345E+04  0.16947059345E+04  0.25500000000E-02 0.  1.
   -5000001    1    1    2    0    0  0.62767793613E+02  0.24888486716E+03 -0.11381218861E+04  0.11931910579E+04  0.25000000000E+03 0.  0.
    5000001    1    1    2    0    0 -0.62767793613E+02 -0.24888486716E+03 -0.46838241620E+03  0.58971650886E+03  0.25000000000E+03 0.  0.
<mgrwt>
<rscale>  0 0.77324208E+03</rscale>
<asrwt>0</asrwt>
<pdfrwt beam="1">  1        2 0.26072397E+00 0.77324208E+03</pdfrwt>
<pdfrwt beam="2">  1       -2 0.13569483E-01 0.77324208E+03</pdfrwt>
<totfact> 0.41563570E+02</totfact>
</mgrwt>
</event>
<event>
 4    1  0.1720876E-005  0.8650270E+03  0.7818608E-02  0.9470387E-01
         -2   -1    0    0    0  501 -0.00000000000E+00  0.00000000000E+00  0.25802950815E+03  0.25802950817E+03  0.25500000000E-02 0. -1.
          2   -1    0    0  501    0  0.00000000000E+00 -0.00000000000E+00 -0.72498657740E+03  0.72498657740E+03  0.25500000000E-02 0.  1.
   -5000001    1    1    2    0    0  0.26112304310E+03 -0.85225592849E+02 -0.48533724503E+03  0.61114718908E+03  0.25000000000E+03 0.  0.
    5000001    1    1    2    0    0 -0.26112304310E+03  0.85225592849E+02  0.18380175781E+02  0.37186889649E+03  0.25000000000E+03 0.  0.
<mgrwt>
<rscale>  0 0.86502701E+03</rscale>
<asrwt>0</asrwt>
<pdfrwt beam="1">  1        2 0.11153640E+00 0.86502701E+03</pdfrwt>
<pdfrwt beam="2">  1       -2 0.39696848E-01 0.86502701E+03</pdfrwt>
<totfact> 0.23605927E+02</totfact>
</mgrwt>
</event>
<event>
 4    1  0.1720876E-005  0.8375510E+03  0.7818608E-02  0.9507200E-01
          2   -1    0    0  501    0  0.00000000000E+00  0.00000000000E+00  0.32650812493E+04  0.32650812493E+04  0.25500000000E-02 0.  1.
         -2   -1    0    0    0  501 -0.00000000000E+00 -0.00000000000E+00 -0.53711654661E+02  0.53711654722E+02  0.25500000000E-02 0. -1.
   -5000001    1    1    2    0    0 -0.31467973117E+03 -0.80521802101E+02  0.19457635725E+04  0.19884674938E+04  0.25000000000E+03 0.  0.
    5000001    1    1    2    0    0  0.31467973117E+03  0.80521802101E+02  0.12656060222E+04  0.13303254103E+04  0.25000000000E+03 0.  0.
<mgrwt>
<rscale>  0 0.83755099E+03</rscale>
<asrwt>0</asrwt>
<pdfrwt beam="1">  1        2 0.50232039E+00 0.83755099E+03</pdfrwt>
<pdfrwt beam="2">  1       -2 0.82633283E-02 0.83755099E+03</pdfrwt>
<totfact> 0.11573624E+02</totfact>
</mgrwt>
</event>
<event>
 4    1  0.1720876E-005  0.7719283E+03  0.7818608E-02  0.9601563E-01
         -2   -1    0    0    0  501 -0.00000000000E+00  0.00000000000E+00  0.12114725470E+03  0.12114725473E+03  0.25500000000E-02 0. -1.
          2   -1    0    0  501    0  0.00000000000E+00 -0.00000000000E+00 -0.12296467796E+04  0.12296467796E+04  0.25500000000E-02 0.  1.
   -5000001    1    1    2    0    0  0.22995803284E+03 -0.16788871408E+03 -0.68285238664E+03  0.78093194269E+03  0.25000000000E+03 0.  0.
    5000001    1    1    2    0    0 -0.22995803284E+03  0.16788871408E+03 -0.42564713829E+03  0.56986209166E+03  0.25000000000E+03 0.  0.
<mgrwt>
<rscale>  0 0.77192832E+03</rscale>
<asrwt>0</asrwt>
<pdfrwt beam="1">  1        2 0.18917642E+00 0.77192832E+03</pdfrwt>
<pdfrwt beam="2">  1       -2 0.18638040E-01 0.77192832E+03</pdfrwt>
<totfact> 0.44221190E+02</totfact>
</mgrwt>
</event>
<event>
 4    1  0.1720876E-005  0.6145008E+03  0.7818608E-02  0.9875770E-01
         -2   -1    0    0    0  501 -0.00000000000E+00  0.00000000000E+00  0.79033148912E+02  0.79033148953E+02  0.25500000000E-02 0. -1.
          2   -1    0    0  501    0  0.00000000000E+00 -0.00000000000E+00 -0.11944711515E+04  0.11944711515E+04  0.25500000000E-02 0.  1.
   -5000001    1    1    2    0    0  0.11855183440E+03 -0.79932939527E+02 -0.77956488908E+03  0.83106271036E+03  0.25000000000E+03 0.  0.
    5000001    1    1    2    0    0 -0.11855183440E+03  0.79932939527E+02 -0.33587311346E+03  0.44244159005E+03  0.25000000000E+03 0.  0.
<mgrwt>
<rscale>  0 0.61450083E+03</rscale>
<asrwt>0</asrwt>
<pdfrwt beam="1">  1        2 0.18376478E+00 0.61450083E+03</pdfrwt>
<pdfrwt beam="2">  1       -2 0.12158947E-01 0.61450083E+03</pdfrwt>
<totfact> 0.96127949E+02</totfact>
</mgrwt>
</event>
<event>
 4    1  0.1720876E-005  0.5096291E+03  0.7818608E-02  0.1011296E+00
         -2   -1    0    0    0  501 -0.00000000000E+00  0.00000000000E+00  0.17641569513E+03  0.17641569515E+03  0.25500000000E-02 0. -1.
          2   -1    0    0  501    0  0.00000000000E+00 -0.00000000000E+00 -0.36805371287E+03  0.36805371288E+03  0.25500000000E-02 0.  1.
   -5000001    1    1    2    0    0 -0.13232725251E+02 -0.47085842933E+02 -0.10242820178E+03  0.27456095524E+03  0.25000000000E+03 0.  0.
    5000001    1    1    2    0    0  0.13232725251E+02  0.47085842933E+02 -0.89209815957E+02  0.26990845279E+03  0.25000000000E+03 0.  0.
<mgrwt>
<rscale>  0 0.50962909E+03</rscale>
<asrwt>0</asrwt>
<pdfrwt beam="1">  1        2 0.56623648E-01 0.50962909E+03</pdfrwt>
<pdfrwt beam="2">  1       -2 0.27140876E-01 0.50962909E+03</pdfrwt>
<totfact> 0.10788922E+03</totfact>
</mgrwt>
</event>
<event>
 4    1  0.1720876E-005  0.7535925E+03  0.7818608E-02  0.9629731E-01
         -2   -1    0    0    0  501 -0.00000000000E+00  0.00000000000E+00  0.14889615481E+03  0.14889615484E+03  0.25500000000E-02 0. -1.
          2   -1    0    0  501    0  0.00000000000E+00 -0.00000000000E+00 -0.95351961736E+03  0.95351961737E+03  0.25500000000E-02 0.  1.
   -5000001    1    1    2    0    0 -0.16225379583E+03 -0.21797305723E+03 -0.29248011880E+03  0.47104476203E+03  0.25000000000E+03 0.  0.
    5000001    1    1    2    0    0  0.16225379583E+03  0.21797305723E+03 -0.51214334375E+03  0.63137101018E+03  0.25000000000E+03 0.  0.
<mgrwt>
<rscale>  0 0.75359247E+03</rscale>
<asrwt>0</asrwt>
<pdfrwt beam="1">  1        2 0.14669532E+00 0.75359247E+03</pdfrwt>
<pdfrwt beam="2">  1       -2 0.22907101E-01 0.75359247E+03</pdfrwt>
<totfact> 0.45564930E+02</totfact>
</mgrwt>
</event>
<event>
 4    1  0.1720876E-005  0.7331859E+03  0.7818608E-02  0.9662105E-01
         -2   -1    0    0    0  501 -0.00000000000E+00  0.00000000000E+00  0.18092450944E+03  0.18092450945E+03  0.25500000000E-02 0. -1.
          2   -1    0    0  501    0  0.00000000000E+00 -0.00000000000E+00 -0.74279815750E+03  0.74279815750E+03  0.25500000000E-02 0.  1.
   -5000001    1    1    2    0    0 -0.12497679041E+03 -0.22267903988E+03 -0.38394838632E+03  0.52452027253E+03  0.25000000000E+03 0.  0.
    5000001    1    1    2    0    0  0.12497679041E+03  0.22267903988E+03 -0.17792526175E+03  0.39920239442E+03  0.25000000000E+03 0.  0.
<mgrwt>
<rscale>  0 0.73318590E+03</rscale>
<asrwt>0</asrwt>
<pdfrwt beam="1">  1        2 0.11427664E+00 0.73318590E+03</pdfrwt>
<pdfrwt beam="2">  1       -2 0.27834540E-01 0.73318590E+03</pdfrwt>
<totfact> 0.44985672E+02</totfact>
</mgrwt>
</event>
<event>
 4    1  0.1720876E-005  0.6468335E+03  0.7818608E-02  0.9812739E-01
          2   -1    0    0  501    0  0.00000000000E+00  0.00000000000E+00  0.67440654102E+03  0.67440654102E+03  0.25500000000E-02 0. -1.
         -2   -1    0    0    0  501 -0.00000000000E+00 -0.00000000000E+00 -0.15509692134E+03  0.15509692136E+03  0.25500000000E-02 0.  1.
   -5000001    1    1    2    0    0 -0.69280076746E+02  0.90283522540E+02  0.47859558255E+03  0.55181933195E+03  0.25000000000E+03 0.  0.
    5000001    1    1    2    0    0  0.69280076746E+02 -0.90283522540E+02  0.40714037134E+02  0.27768413044E+03  0.25000000000E+03 0.  0.
<mgrwt>
<rscale>  0 0.64683345E+03</rscale>
<asrwt>0</asrwt>
<pdfrwt beam="1">  1        2 0.10375485E+00 0.64683345E+03</pdfrwt>
<pdfrwt beam="2">  1       -2 0.23861065E-01 0.64683345E+03</pdfrwt>
<totfact> 0.67337314E+02</totfact>
</mgrwt>
</event>
<event>
 4    1  0.1720876E-005  0.9244814E+03  0.7818608E-02  0.9395485E-01
         -2   -1    0    0    0  501 -0.00000000000E+00  0.00000000000E+00  0.17285438231E+03  0.17285438233E+03  0.25500000000E-02 0. -1.
          2   -1    0    0  501    0  0.00000000000E+00 -0.00000000000E+00 -0.12361068061E+04  0.12361068061E+04  0.25500000000E-02 0.  1.
   -5000001    1    1    2    0    0 -0.11944051894E+02  0.32930784399E+03 -0.21713791193E+03  0.46715649336E+03  0.25000000000E+03 0.  0.
    5000001    1    1    2    0    0  0.11944051894E+02 -0.32930784399E+03 -0.84611451189E+03  0.94180469510E+03  0.25000000000E+03 0.  0.
<mgrwt>
<rscale>  0 0.92448143E+03</rscale>
<asrwt>0</asrwt>
<pdfrwt beam="1">  1        2 0.19017027E+00 0.92448143E+03</pdfrwt>
<pdfrwt beam="2">  1       -2 0.26592983E-01 0.92448143E+03</pdfrwt>
<totfact> 0.23108829E+02</totfact>
</mgrwt>
</event>
<event>
 4    1  0.1720876E-005  0.1046078E+04  0.7818608E-02  0.9259403E-01
          2   -1    0    0  501    0  0.00000000000E+00  0.00000000000E+00  0.24774992549E+04  0.24774992549E+04  0.25500000000E-02 0.  1.
         -2   -1    0    0    0  501 -0.00000000000E+00 -0.00000000000E+00 -0.11042166190E+03  0.11042166193E+03  0.25500000000E-02 0. -1.
   -5000001    1    1    2    0    0  0.43891368992E+03  0.34423239133E+02  0.15083628295E+04  0.15910652444E+04  0.25000000000E+03 0.  0.
    5000001    1    1    2    0    0 -0.43891368992E+03 -0.34423239133E+02  0.85871476356E+03  0.99685567248E+03  0.25000000000E+03 0.  0.
<mgrwt>
<rscale>  0 0.10460776E+04</rscale>
<asrwt>0</asrwt>
<pdfrwt beam="1">  1        2 0.38115373E+00 0.10460776E+04</pdfrwt>
<pdfrwt beam="2">  1       -2 0.16987948E-01 0.10460776E+04</pdfrwt>
<totfact> 0.10246413E+02</totfact>
</mgrwt>
</event>
<event>
 4    1  0.1720876E-005  0.1235512E+04  0.7818608E-02  0.9082329E-01
         -2   -1    0    0    0  501 -0.00000000000E+00  0.00000000000E+00  0.32318398637E+03  0.32318398638E+03  0.25500000000E-02 0. -1.
          2   -1    0    0  501    0  0.00000000000E+00 -0.00000000000E+00 -0.11808205037E+04  0.11808205037E+04  0.25500000000E-02 0.  1.
   -5000001    1    1    2    0    0  0.10688373238E+03  0.53677783166E+03 -0.59910162274E+03  0.84910383769E+03  0.25000000000E+03 0.  0.
    5000001    1    1    2    0    0 -0.10688373238E+03 -0.53677783166E+03 -0.25853489460E+03  0.65490065242E+03  0.25000000000E+03 0.  0.
<mgrwt>
<rscale>  0 0.12355117E+04</rscale>
<asrwt>0</asrwt>
<pdfrwt beam="1">  1        2 0.18166469E+00 0.12355117E+04</pdfrwt>
<pdfrwt beam="2">  1       -2 0.49720614E-01 0.12355117E+04</pdfrwt>
<totfact> 0.73271857E+01</totfact>
</mgrwt>
</event>
<event>
 4    1  0.1720876E-005  0.5790053E+03  0.7818608E-02  0.9949947E-01
          2   -1    0    0  501    0  0.00000000000E+00  0.00000000000E+00  0.29248010782E+03  0.29248010783E+03  0.25500000000E-02 0.  1.
         -2   -1    0    0    0  501 -0.00000000000E+00 -0.00000000000E+00 -0.28655548388E+03  0.28655548389E+03  0.25500000000E-02 0. -1.
   -5000001    1    1    2    0    0  0.11578413709E+03 -0.58875272170E+02 -0.63670859815E+02  0.28883601310E+03  0.25000000000E+03 0.  0.
    5000001    1    1    2    0    0 -0.11578413709E+03  0.58875272170E+02  0.69595483748E+02  0.29019957862E+03  0.25000000000E+03 0.  0.
<mgrwt>
<rscale>  0 0.57900528E+03</rscale>
<asrwt>0</asrwt>
<pdfrwt beam="1">  1        2 0.44996940E-01 0.57900528E+03</pdfrwt>
<pdfrwt beam="2">  1       -2 0.44085459E-01 0.57900528E+03</pdfrwt>
<totfact> 0.55532909E+02</totfact>
</mgrwt>
</event>
<event>
 4    1  0.1720876E-005  0.6512461E+03  0.7818608E-02  0.9804444E-01
         -2   -1    0    0    0  501 -0.00000000000E+00  0.00000000000E+00  0.99412385863E+02  0.99412385896E+02  0.25500000000E-02 0. -1.
          2   -1    0    0  501    0  0.00000000000E+00 -0.00000000000E+00 -0.10665709414E+04  0.10665709414E+04  0.25500000000E-02 0.  1.
   -5000001    1    1    2    0    0  0.20506084322E+03 -0.44319986478E+01 -0.55200795379E+03  0.63975180585E+03  0.25000000000E+03 0.  0.
    5000001    1    1    2    0    0 -0.20506084322E+03  0.44319986478E+01 -0.41515060171E+03  0.52623152141E+03  0.25000000000E+03 0.  0.
<mgrwt>
<rscale>  0 0.65124607E+03</rscale>
<asrwt>0</asrwt>
<pdfrwt beam="1">  1        2 0.16408783E+00 0.65124607E+03</pdfrwt>
<pdfrwt beam="2">  1       -2 0.15294214E-01 0.65124607E+03</pdfrwt>
<totfact> 0.78143128E+02</totfact>
</mgrwt>
</event>
<event>
 4    1  0.1720876E-005  0.1062243E+04  0.7818608E-02  0.9242794E-01
         -2   -1    0    0    0  501 -0.00000000000E+00  0.00000000000E+00  0.67026290185E+03  0.67026290185E+03  0.25500000000E-02 0. -1.
          2   -1    0    0  501    0  0.00000000000E+00 -0.00000000000E+00 -0.42086508144E+03  0.42086508145E+03  0.25500000000E-02 0.  1.
   -5000001    1    1    2    0    0  0.40419585338E+03  0.23302191768E+03  0.16967008745E+03  0.55584299994E+03  0.25000000000E+03 0.  0.
    5000001    1    1    2    0    0 -0.40419585338E+03 -0.23302191768E+03  0.79727732959E+02  0.53528498336E+03  0.25000000000E+03 0.  0.
<mgrwt>
<rscale>  0 0.10622434E+04</rscale>
<asrwt>0</asrwt>
<pdfrwt beam="1">  1        2 0.64748475E-01 0.10622434E+04</pdfrwt>
<pdfrwt beam="2">  1       -2 0.10311737E+00 0.10622434E+04</pdfrwt>
<totfact> 0.57350401E+01</totfact>
</mgrwt>
</event>
<event>
 4    1  0.1720876E-005  0.5898557E+03  0.7818608E-02  0.9926679E-01
         -2   -1    0    0    0  501 -0.00000000000E+00  0.00000000000E+00  0.57196531923E+02  0.57196531980E+02  0.25500000000E-02 0. -1.
          2   -1    0    0  501    0  0.00000000000E+00 -0.00000000000E+00 -0.15207644254E+04  0.15207644254E+04  0.25500000000E-02 0.  1.
   -5000001    1    1    2    0    0  0.50157719096E+02 -0.14815698254E+03 -0.74253890246E+03  0.79895576218E+03  0.25000000000E+03 0.  0.
    5000001    1    1    2    0    0 -0.50157719096E+02  0.14815698254E+03 -0.72102899103E+03  0.77900519521E+03  0.25000000000E+03 0.  0.
<mgrwt>
<rscale>  0 0.58985575E+03</rscale>
<asrwt>0</asrwt>
<pdfrwt beam="1">  1        2 0.23396373E+00 0.58985575E+03</pdfrwt>
<pdfrwt beam="2">  1       -2 0.87994676E-02 0.58985575E+03</pdfrwt>
<totfact> 0.10636468E+03</totfact>
</mgrwt>
</event>
<event>
 4    1  0.1720876E-005  0.6766310E+03  0.7818608E-02  0.9758052E-01
          2   -1    0    0  501    0  0.00000000000E+00  0.00000000000E+00  0.96458619483E+03  0.96458619483E+03  0.25500000000E-02 0.  1.
         -2   -1    0    0    0  501 -0.00000000000E+00 -0.00000000000E+00 -0.11865957430E+03  0.11865957433E+03  0.25500000000E-02 0. -1.
   -5000001    1    1    2    0    0 -0.26876962581E+01 -0.17832933102E+03  0.19571543691E+03  0.36416082472E+03  0.25000000000E+03 0.  0.
    5000001    1    1    2    0    0  0.26876962581E+01  0.17832933102E+03  0.65021118361E+03  0.71908494443E+03  0.25000000000E+03 0.  0.
<mgrwt>
<rscale>  0 0.67663103E+03</rscale>
<asrwt>0</asrwt>
<pdfrwt beam="1">  1        2 0.14839788E+00 0.67663103E+03</pdfrwt>
<pdfrwt beam="2">  1       -2 0.18255319E-01 0.67663103E+03</pdfrwt>
<totfact> 0.66924763E+02</totfact>
</mgrwt>
</event>
<event>
 4    1  0.1720876E-005  0.1154126E+04  0.7818608E-02  0.9153985E-01
          2   -1    0    0  501    0  0.00000000000E+00  0.00000000000E+00  0.39075344738E+03  0.39075344739E+03  0.25500000000E-02 0.  1.
         -2   -1    0    0    0  501 -0.00000000000E+00 -0.00000000000E+00 -0.85220427805E+03  0.85220427805E+03  0.25500000000E-02 0. -1.
   -5000001    1    1    2    0    0 -0.42646331364E+02 -0.50513890695E+03 -0.35594004014E+03  0.66796507174E+03  0.25000000000E+03 0.  0.
    5000001    1    1    2    0    0  0.42646331364E+02  0.50513890695E+03 -0.10551079052E+03  0.57499265370E+03  0.25000000000E+03 0.  0.
<mgrwt>
<rscale>  0 0.11541261E+04</rscale>
<asrwt>0</asrwt>
<pdfrwt beam="1">  1        2 0.60115915E-01 0.11541261E+04</pdfrwt>
<pdfrwt beam="2">  1       -2 0.13110835E+00 0.11541261E+04</pdfrwt>
<totfact> 0.34319691E+01</totfact>
</mgrwt>
</event>
<event>
 4    1  0.1720876E-005  0.9833612E+03  0.7818608E-02  0.9326985E-01
         -2   -1    0    0    0  501 -0.00000000000E+00  0.00000000000E+00  0.29096562263E+03  0.29096562264E+03  0.25500000000E-02 0. -1.
          2   -1    0    0  501    0  0.00000000000E+00 -0.00000000000E+00 -0.83085349194E+03  0.83085349195E+03  0.25500000000E-02 0.  1.
   -5000001    1    1    2    0    0 -0.18156802606E+03 -0.28798188044E+03  0.17187445162E+02  0.42272440173E+03  0.25000000000E+03 0.  0.
    5000001    1    1    2    0    0  0.18156802606E+03  0.28798188044E+03 -0.55707531448E+03  0.69909471286E+03  0.25000000000E+03 0.  0.
<mgrwt>
<rscale>  0 0.98336118E+03</rscale>
<asrwt>0</asrwt>
<pdfrwt beam="1">  1        2 0.12782361E+00 0.98336118E+03</pdfrwt>
<pdfrwt beam="2">  1       -2 0.44763942E-01 0.98336118E+03</pdfrwt>
<totfact> 0.15476348E+02</totfact>
</mgrwt>
</event>
<event>
 4    1  0.1720876E-005  0.7011435E+03  0.7818608E-02  0.9715279E-01
          2   -1    0    0  501    0  0.00000000000E+00  0.00000000000E+00  0.40364443689E+03  0.40364443690E+03  0.25500000000E-02 0.  1.
         -2   -1    0    0    0  501 -0.00000000000E+00 -0.00000000000E+00 -0.30447729667E+03  0.30447729668E+03  0.25500000000E-02 0. -1.
   -5000001    1    1    2    0    0  0.70788200589E+02 -0.23495258798E+03  0.63389995883E+02  0.35599435322E+03  0.25000000000E+03 0.  0.
    5000001    1    1    2    0    0 -0.70788200589E+02  0.23495258798E+03  0.35777144344E+02  0.35212738036E+03  0.25000000000E+03 0.  0.
<mgrwt>
<rscale>  0 0.70114354E+03</rscale>
<asrwt>0</asrwt>
<pdfrwt beam="1">  1        2 0.62099144E-01 0.70114354E+03</pdfrwt>
<pdfrwt beam="2">  1       -2 0.46842661E-01 0.70114354E+03</pdfrwt>
<totfact> 0.34305076E+02</totfact>
</mgrwt>
</event>
<event>
 4    1  0.1720876E-005  0.8332169E+03  0.7818608E-02  0.9513144E-01
         -2   -1    0    0    0  501 -0.00000000000E+00  0.00000000000E+00  0.22259112382E+03  0.22259112383E+03  0.25500000000E-02 0. -1.
          2   -1    0    0  501    0  0.00000000000E+00 -0.00000000000E+00 -0.77973729974E+03  0.77973729975E+03  0.25500000000E-02 0.  1.
   -5000001    1    1    2    0    0  0.23410718169E+03  0.15793366063E+03 -0.49144433543E+03  0.61948910282E+03  0.25000000000E+03 0.  0.
    5000001    1    1    2    0    0 -0.23410718169E+03 -0.15793366063E+03 -0.65701840491E+02  0.38283932077E+03  0.25000000000E+03 0.  0.
<mgrwt>
<rscale>  0 0.83321690E+03</rscale>
<asrwt>0</asrwt>
<pdfrwt beam="1">  1        2 0.11995958E+00 0.83321690E+03</pdfrwt>
<pdfrwt beam="2">  1       -2 0.34244789E-01 0.83321690E+03</pdfrwt>
<totfact> 0.28578478E+02</totfact>
</mgrwt>
</event>
<event>
 4    1  0.1720876E-005  0.8058207E+03  0.7818608E-02  0.9551630E-01
         -2   -1    0    0    0  501 -0.00000000000E+00  0.00000000000E+00  0.32838899481E+03  0.32838899482E+03  0.25500000000E-02 0. -1.
          2   -1    0    0  501    0  0.00000000000E+00 -0.00000000000E+00 -0.49434288947E+03  0.49434288948E+03  0.25500000000E-02 0.  1.
   -5000001    1    1    2    0    0 -0.20506567892E+03  0.23920620108E+03 -0.10725035066E+03  0.41626214940E+03  0.25000000000E+03 0.  0.
    5000001    1    1    2    0    0  0.20506567892E+03 -0.23920620108E+03 -0.58703543998E+02  0.40646973490E+03  0.25000000000E+03 0.  0.
<mgrwt>
<rscale>  0 0.80582074E+03</rscale>
<asrwt>0</asrwt>
<pdfrwt beam="1">  1        2 0.76052752E-01 0.80582074E+03</pdfrwt>
<pdfrwt beam="2">  1       -2 0.50521384E-01 0.80582074E+03</pdfrwt>
<totfact> 0.23278744E+02</totfact>
</mgrwt>
</event>
<event>
 4    1  0.1720876E-005  0.6398684E+03  0.7818608E-02  0.9825978E-01
         -2   -1    0    0    0  501 -0.00000000000E+00  0.00000000000E+00  0.57201133299E+03  0.57201133300E+03  0.25500000000E-02 0. -1.
          2   -1    0    0  501    0  0.00000000000E+00 -0.00000000000E+00 -0.17894382669E+03  0.17894382671E+03  0.25500000000E-02 0.  1.
   -5000001    1    1    2    0    0  0.16724117540E+03 -0.89210766606E+02  0.27010437467E+03  0.41398616504E+03  0.25000000000E+03 0.  0.
    5000001    1    1    2    0    0 -0.16724117540E+03  0.89210766606E+02  0.12296313163E+03  0.33696899467E+03  0.25000000000E+03 0.  0.
<mgrwt>
<rscale>  0 0.63986841E+03</rscale>
<asrwt>0</asrwt>
<pdfrwt beam="1">  1        2 0.27529819E-01 0.63986841E+03</pdfrwt>
<pdfrwt beam="2">  1       -2 0.88001745E-01 0.63986841E+03</pdfrwt>
<totfact> 0.22080630E+02</totfact>
</mgrwt>
</event>
<event>
 4    1  0.1720876E-005  0.1492240E+04  0.7818608E-02  0.8889630E-01
         -2   -1    0    0    0  501 -0.00000000000E+00  0.00000000000E+00  0.21562802482E+03  0.21562802483E+03  0.25500000000E-02 0. -1.
          2   -1    0    0  501    0  0.00000000000E+00 -0.00000000000E+00 -0.25817386490E+04  0.25817386490E+04  0.25500000000E-02 0.  1.
   -5000001    1    1    2    0    0 -0.58456771926E+03  0.38350121686E+03 -0.13208435731E+04  0.15152294699E+04  0.25000000000E+03 0.  0.
    5000001    1    1    2    0    0  0.58456771926E+03 -0.38350121686E+03 -0.10452670511E+04  0.12821372040E+04  0.25000000000E+03 0.  0.
<mgrwt>
<rscale>  0 0.14922402E+04</rscale>
<asrwt>0</asrwt>
<pdfrwt beam="1">  1        2 0.39719054E+00 0.14922402E+04</pdfrwt>
<pdfrwt beam="2">  1       -2 0.33173544E-01 0.14922402E+04</pdfrwt>
<totfact> 0.25676754E+01</totfact>
</mgrwt>
</event>
<event>
 4    1  0.1720876E-005  0.8898224E+03  0.7818608E-02  0.9438394E-01
          2   -1    0    0  501    0  0.00000000000E+00  0.00000000000E+00  0.43116063290E+03  0.43116063290E+03  0.25500000000E-02 0.  1.
         -2   -1    0    0    0  501 -0.00000000000E+00 -0.00000000000E+00 -0.45910026532E+03  0.45910026533E+03  0.25500000000E-02 0. -1.
   -5000001    1    1    2    0    0 -0.28917091305E+03 -0.12943531719E+02  0.21342750004E+03  0.43799389236E+03  0.25000000000E+03 0.  0.
    5000001    1    1    2    0    0  0.28917091305E+03  0.12943531719E+02 -0.24136713247E+03  0.45226700587E+03  0.25000000000E+03 0.  0.
<mgrwt>
<rscale>  0 0.88982237E+03</rscale>
<asrwt>0</asrwt>
<pdfrwt beam="1">  1        2 0.66332405E-01 0.88982237E+03</pdfrwt>
<pdfrwt beam="2">  1       -2 0.70630810E-01 0.88982237E+03</pdfrwt>
<totfact> 0.13371558E+02</totfact>
</mgrwt>
</event>
<event>
 4    1  0.1720876E-005  0.5981202E+03  0.7818608E-02  0.9909314E-01
          2   -1    0    0  501    0  0.00000000000E+00  0.00000000000E+00  0.79884459624E+02  0.79884459665E+02  0.25500000000E-02 0.  1.
         -2   -1    0    0    0  501 -0.00000000000E+00 -0.00000000000E+00 -0.11195788327E+04  0.11195788327E+04  0.25500000000E-02 0. -1.
   -5000001    1    1    2    0    0 -0.14216877501E+03  0.77697812068E+02 -0.46724483487E+03  0.55413594569E+03  0.25000000000E+03 0.  0.
    5000001    1    1    2    0    0  0.14216877501E+03 -0.77697812068E+02 -0.57244953824E+03  0.64532734671E+03  0.25000000000E+03 0.  0.
<mgrwt>
<rscale>  0 0.59812022E+03</rscale>
<asrwt>0</asrwt>
<pdfrwt beam="1">  1        2 0.12289918E-01 0.59812022E+03</pdfrwt>
<pdfrwt beam="2">  1       -2 0.17224289E+00 0.59812022E+03</pdfrwt>
<totfact> 0.10743241E+02</totfact>
</mgrwt>
</event>
<event>
 4    1  0.1720876E-005  0.6150479E+03  0.7818608E-02  0.9874669E-01
         -2   -1    0    0    0  501 -0.00000000000E+00  0.00000000000E+00  0.21493422173E+03  0.21493422174E+03  0.25500000000E-02 0. -1.
          2   -1    0    0  501    0  0.00000000000E+00 -0.00000000000E+00 -0.43999967356E+03  0.43999967357E+03  0.25500000000E-02 0.  1.
   -5000001    1    1    2    0    0  0.12880496716E+03  0.11841823725E+03 -0.15318419477E+03  0.34143666470E+03  0.25000000000E+03 0.  0.
    5000001    1    1    2    0    0 -0.12880496716E+03 -0.11841823725E+03 -0.71881257069E+02  0.31349723060E+03  0.25000000000E+03 0.  0.
<mgrwt>
<rscale>  0 0.61504792E+03</rscale>
<asrwt>0</asrwt>
<pdfrwt beam="1">  1        2 0.67692257E-01 0.61504792E+03</pdfrwt>
<pdfrwt beam="2">  1       -2 0.33066803E-01 0.61504792E+03</pdfrwt>
<totfact> 0.61310637E+02</totfact>
</mgrwt>
</event>
<event>
 4    1  0.1720876E-005  0.6501354E+03  0.7818608E-02  0.9806525E-01
         -2   -1    0    0    0  501 -0.00000000000E+00  0.00000000000E+00  0.11017750905E+03  0.11017750908E+03  0.25500000000E-02 0. -1.
          2   -1    0    0  501    0  0.00000000000E+00 -0.00000000000E+00 -0.95907975215E+03  0.95907975216E+03  0.25500000000E-02 0.  1.
   -5000001    1    1    2    0    0 -0.19227224334E+03  0.39943556262E+01 -0.29511231904E+03  0.43194426873E+03  0.25000000000E+03 0.  0.
    5000001    1    1    2    0    0  0.19227224334E+03 -0.39943556262E+01 -0.55378992406E+03  0.63731299251E+03  0.25000000000E+03 0.  0.
<mgrwt>
<rscale>  0 0.65013543E+03</rscale>
<asrwt>0</asrwt>
<pdfrwt beam="1">  1        2 0.14755073E+00 0.65013543E+03</pdfrwt>
<pdfrwt beam="2">  1       -2 0.16950387E-01 0.65013543E+03</pdfrwt>
<totfact> 0.76713843E+02</totfact>
</mgrwt>
</event>
<event>
 4    1  0.1720876E-005  0.5477652E+03  0.7818608E-02  0.1002013E+00
          2   -1    0    0  501    0  0.00000000000E+00  0.00000000000E+00  0.93244086978E+03  0.93244086978E+03  0.25500000000E-02 0.  1.
         -2   -1    0    0    0  501 -0.00000000000E+00 -0.00000000000E+00 -0.80446585960E+02  0.80446586000E+02  0.25500000000E-02 0. -1.
   -5000001    1    1    2    0    0  0.43456315182E+02  0.84881086272E+02  0.31788353242E+03  0.41550353827E+03  0.25000000000E+03 0.  0.
    5000001    1    1    2    0    0 -0.43456315182E+02 -0.84881086272E+02  0.53411075140E+03  0.59738391751E+03  0.25000000000E+03 0.  0.
<mgrwt>
<rscale>  0 0.54776522E+03</rscale>
<asrwt>0</asrwt>
<pdfrwt beam="1">  1        2 0.14345244E+00 0.54776522E+03</pdfrwt>
<pdfrwt beam="2">  1       -2 0.12376398E-01 0.54776522E+03</pdfrwt>
<totfact> 0.13570429E+03</totfact>
</mgrwt>
</event>
<event>
 4    1  0.1720876E-005  0.7164326E+03  0.7818608E-02  0.9689536E-01
         -2   -1    0    0    0  501 -0.00000000000E+00  0.00000000000E+00  0.21623093529E+03  0.21623093530E+03  0.25500000000E-02 0.  1.
          2   -1    0    0  501    0  0.00000000000E+00 -0.00000000000E+00 -0.59343453099E+03  0.59343453099E+03  0.25500000000E-02 0. -1.
   -5000001    1    1    2    0    0 -0.13443924241E+02  0.12594901228E+03 -0.44073845009E+03  0.52229711293E+03  0.25000000000E+03 0.  0.
    5000001    1    1    2    0    0  0.13443924241E+02 -0.12594901228E+03  0.63534854388E+02  0.28736835336E+03  0.25000000000E+03 0.  0.
<mgrwt>
<rscale>  0 0.71643256E+03</rscale>
<asrwt>0</asrwt>
<pdfrwt beam="1">  1        2 0.91297619E-01 0.71643256E+03</pdfrwt>
<pdfrwt beam="2">  1       -2 0.33266298E-01 0.71643256E+03</pdfrwt>
<totfact> 0.42699827E+02</totfact>
</mgrwt>
</event>
<event>
 4    1  0.1720876E-005  0.1013403E+04  0.7818608E-02  0.9293965E-01
          2   -1    0    0  501    0  0.00000000000E+00  0.00000000000E+00  0.11060418300E+04  0.11060418300E+04  0.25500000000E-02 0.  1.
         -2   -1    0    0    0  501 -0.00000000000E+00 -0.00000000000E+00 -0.23213096077E+03  0.23213096079E+03  0.25500000000E-02 0. -1.
   -5000001    1    1    2    0    0 -0.28936116761E+03  0.31520817145E+03  0.29745638531E+03  0.57798475570E+03  0.25000000000E+03 0.  0.
    5000001    1    1    2    0    0  0.28936116761E+03 -0.31520817145E+03  0.57645448397E+03  0.76018803513E+03  0.25000000000E+03 0.  0.
<mgrwt>
<rscale>  0 0.10134033E+04</rscale>
<asrwt>0</asrwt>
<pdfrwt beam="1">  1        2 0.17016028E+00 0.10134033E+04</pdfrwt>
<pdfrwt beam="2">  1       -2 0.35712456E-01 0.10134033E+04</pdfrwt>
<totfact> 0.15863740E+02</totfact>
</mgrwt>
</event>
<event>
 4    1  0.1720876E-005  0.6360673E+03  0.7818608E-02  0.9833280E-01
          2   -1    0    0  501    0  0.00000000000E+00  0.00000000000E+00  0.12061829502E+04  0.12061829502E+04  0.25500000000E-02 0.  1.
         -2   -1    0    0    0  501 -0.00000000000E+00 -0.00000000000E+00 -0.83855775290E+02  0.83855775329E+02  0.25500000000E-02 0. -1.
   -5000001    1    1    2    0    0 -0.34978338707E+02  0.18435157823E+03  0.68005559360E+03  0.74845480756E+03  0.25000000000E+03 0.  0.
    5000001    1    1    2    0    0  0.34978338707E+02 -0.18435157823E+03  0.44227158132E+03  0.54158391798E+03  0.25000000000E+03 0.  0.
<mgrwt>
<rscale>  0 0.63606731E+03</rscale>
<asrwt>0</asrwt>
<pdfrwt beam="1">  1        2 0.18556659E+00 0.63606731E+03</pdfrwt>
<pdfrwt beam="2">  1       -2 0.12900889E-01 0.63606731E+03</pdfrwt>
<totfact> 0.85711947E+02</totfact>
</mgrwt>
</event>
<event>
 4    1  0.1720876E-005  0.8700344E+03  0.7818608E-02  0.9463835E-01
         -2   -1    0    0    0  501 -0.00000000000E+00  0.00000000000E+00  0.94864935386E+02  0.94864935420E+02  0.25500000000E-02 0. -1.
          2   -1    0    0  501    0  0.00000000000E+00 -0.00000000000E+00 -0.19948359637E+04  0.19948359637E+04  0.25500000000E-02 0.  1.
   -5000001    1    1    2    0    0  0.17080202430E+03 -0.31161667437E+03 -0.10015948611E+04  0.10917740375E+04  0.25000000000E+03 0.  0.
    5000001    1    1    2    0    0 -0.17080202430E+03  0.31161667437E+03 -0.89837616719E+03  0.99792686156E+03  0.25000000000E+03 0.  0.
<mgrwt>
<rscale>  0 0.87003445E+03</rscale>
<asrwt>0</asrwt>
<pdfrwt beam="1">  1        2 0.30689781E+00 0.87003445E+03</pdfrwt>
<pdfrwt beam="2">  1       -2 0.14594607E-01 0.87003445E+03</pdfrwt>
<totfact> 0.25026664E+02</totfact>
</mgrwt>
</event>
<event>
 4    1  0.1720876E-005  0.6777531E+03  0.7818608E-02  0.9756052E-01
          2   -1    0    0  501    0  0.00000000000E+00  0.00000000000E+00  0.11690098654E+04  0.11690098654E+04  0.25500000000E-02 0.  1.
         -2   -1    0    0    0  501 -0.00000000000E+00 -0.00000000000E+00 -0.98234687730E+02  0.98234687763E+02  0.25500000000E-02 0. -1.
   -5000001    1    1    2    0    0 -0.20793429809E+03 -0.65062971822E+02  0.40493882936E+03  0.52339785837E+03  0.25000000000E+03 0.  0.
    5000001    1    1    2    0    0  0.20793429809E+03  0.65062971822E+02  0.66583634829E+03  0.74384669477E+03  0.25000000000E+03 0.  0.
<mgrwt>
<rscale>  0 0.67775311E+03</rscale>
<asrwt>0</asrwt>
<pdfrwt beam="1">  1        2 0.17984768E+00 0.67775311E+03</pdfrwt>
<pdfrwt beam="2">  1       -2 0.15113029E-01 0.67775311E+03</pdfrwt>
<totfact> 0.69050719E+02</totfact>
</mgrwt>
</event>
<event>
 4    1  0.1720876E-005  0.1221401E+04  0.7818608E-02  0.9094327E-01
          2   -1    0    0  501    0  0.00000000000E+00  0.00000000000E+00  0.14465828339E+04  0.14465828339E+04  0.25500000000E-02 0.  1.
         -2   -1    0    0    0  501 -0.00000000000E+00 -0.00000000000E+00 -0.25781817035E+03  0.25781817036E+03  0.25500000000E-02 0. -1.
   -5000001    1    1    2    0    0  0.42971142552E+03 -0.13031211148E+03  0.10547153110E+04  0.11732678905E+04  0.25000000000E+03 0.  0.
    5000001    1    1    2    0    0 -0.42971142552E+03  0.13031211148E+03  0.13404935256E+03  0.53113311377E+03  0.25000000000E+03 0.  0.
<mgrwt>
<rscale>  0 0.12214014E+04</rscale>
<asrwt>0</asrwt>
<pdfrwt beam="1">  1        2 0.22255120E+00 0.12214014E+04</pdfrwt>
<pdfrwt beam="2">  1       -2 0.39664334E-01 0.12214014E+04</pdfrwt>
<totfact> 0.80596648E+01</totfact>
</mgrwt>
</event>
<event>
 4    1  0.1720876E-005  0.7005729E+03  0.7818608E-02  0.9716253E-01
          2   -1    0    0  501    0  0.00000000000E+00  0.00000000000E+00  0.37020001484E+03  0.37020001485E+03  0.25500000000E-02 0.  1.
         -2   -1    0    0    0  501 -0.00000000000E+00 -0.00000000000E+00 -0.33144406379E+03  0.33144406380E+03  0.25500000000E-02 0. -1.
   -5000001    1    1    2    0    0 -0.89753472173E+02 -0.17568290303E+03  0.16547915476E+03  0.35889207130E+03  0.25000000000E+03 0.  0.
    5000001    1    1    2    0    0  0.89753472173E+02  0.17568290303E+03 -0.12672320371E+03  0.34275200735E+03  0.25000000000E+03 0.  0.
<mgrwt>
<rscale>  0 0.70057290E+03</rscale>
<asrwt>0</asrwt>
<pdfrwt beam="1">  1        2 0.56953849E-01 0.70057290E+03</pdfrwt>
<pdfrwt beam="2">  1       -2 0.50991394E-01 0.70057290E+03</pdfrwt>
<totfact> 0.31833340E+02</totfact>
</mgrwt>
</event>
<event>
 4    1  0.1720876E-005  0.6782948E+03  0.7818608E-02  0.9755088E-01
         -2   -1    0    0    0  501 -0.00000000000E+00  0.00000000000E+00  0.49023198684E+02  0.49023198751E+02  0.25500000000E-02 0. -1.
          2   -1    0    0  501    0  0.00000000000E+00 -0.00000000000E+00 -0.23462559115E+04  0.23462559115E+04  0.25500000000E-02 0.  1.
   -5000001    1    1    2    0    0  0.22890642309E+03 -0.80235385334E+01 -0.11756124237E+04  0.12235305875E+04  0.25000000000E+03 0.  0.
    5000001    1    1    2    0    0 -0.22890642309E+03  0.80235385334E+01 -0.11216202891E+04  0.11717485228E+04  0.25000000000E+03 0.  0.
<mgrwt>
<rscale>  0 0.67829483E+03</rscale>
<asrwt>0</asrwt>
<pdfrwt beam="1">  1        2 0.36096236E+00 0.67829483E+03</pdfrwt>
<pdfrwt beam="2">  1       -2 0.75420324E-02 0.67829483E+03</pdfrwt>
<totfact> 0.47945738E+02</totfact>
</mgrwt>
</event>
<event>
 4    1  0.1720876E-005  0.7918571E+03  0.7818608E-02  0.9571879E-01
         -2   -1    0    0    0  501 -0.00000000000E+00  0.00000000000E+00  0.49633794376E+03  0.49633794376E+03  0.25500000000E-02 0. -1.
          2   -1    0    0  501    0  0.00000000000E+00 -0.00000000000E+00 -0.31583201791E+03  0.31583201792E+03  0.25500000000E-02 0.  1.
   -5000001    1    1    2    0    0  0.66572650941E+02  0.22373743392E+03  0.29479037589E+03  0.45154371096E+03  0.25000000000E+03 0.  0.
    5000001    1    1    2    0    0 -0.66572650941E+02 -0.22373743392E+03 -0.11428445004E+03  0.36062625072E+03  0.25000000000E+03 0.  0.
<mgrwt>
<rscale>  0 0.79185709E+03</rscale>
<asrwt>0</asrwt>
<pdfrwt beam="1">  1        2 0.48589541E-01 0.79185709E+03</pdfrwt>
<pdfrwt beam="2">  1       -2 0.76359683E-01 0.79185709E+03</pdfrwt>
<totfact> 0.16030600E+02</totfact>
</mgrwt>
</event>
<event>
 4    1  0.1720876E-005  0.1401506E+04  0.7818608E-02  0.8952729E-01
         -2   -1    0    0    0  501 -0.00000000000E+00  0.00000000000E+00  0.30450575947E+03  0.30450575948E+03  0.25500000000E-02 0. -1.
          2   -1    0    0  501    0  0.00000000000E+00 -0.00000000000E+00 -0.16126277582E+04  0.16126277582E+04  0.25500000000E-02 0.  1.
   -5000001    1    1    2    0    0 -0.50029598222E+03 -0.33826848459E+03 -0.30845641061E+03  0.72274960722E+03  0.25000000000E+03 0.  0.
    5000001    1    1    2    0    0  0.50029598222E+03  0.33826848459E+03 -0.99966558813E+03  0.11943839105E+04  0.25000000000E+03 0.  0.
<mgrwt>
<rscale>  0 0.14015055E+04</rscale>
<asrwt>0</asrwt>
<pdfrwt beam="1">  1        2 0.24809657E+00 0.14015055E+04</pdfrwt>
<pdfrwt beam="2">  1       -2 0.46847041E-01 0.14015055E+04</pdfrwt>
<totfact> 0.46112135E+01</totfact>
</mgrwt>
</event>
<event>
 4    1  0.1720876E-005  0.7311030E+03  0.7818608E-02  0.9665472E-01
          2   -1    0    0  501    0  0.00000000000E+00  0.00000000000E+00  0.11229489511E+04  0.11229489511E+04  0.25500000000E-02 0.  1.
         -2   -1    0    0    0  501 -0.00000000000E+00 -0.00000000000E+00 -0.11899730853E+03  0.11899730856E+03  0.25500000000E-02 0. -1.
   -5000001    1    1    2    0    0 -0.22553718165E+03  0.90751785668E+02  0.31569561907E+03  0.47038987107E+03  0.25000000000E+03 0.  0.
    5000001    1    1    2    0    0  0.22553718165E+03 -0.90751785668E+02  0.68825602353E+03  0.77155638863E+03  0.25000000000E+03 0.  0.
<mgrwt>
<rscale>  0 0.73110301E+03</rscale>
<asrwt>0</asrwt>
<pdfrwt beam="1">  1        2 0.17276138E+00 0.73110301E+03</pdfrwt>
<pdfrwt beam="2">  1       -2 0.18307278E-01 0.73110301E+03</pdfrwt>
<totfact> 0.52910603E+02</totfact>
</mgrwt>
</event>
<event>
 4    1  0.1720876E-005  0.1582488E+04  0.7818608E-02  0.8831379E-01
          2   -1    0    0  501    0  0.00000000000E+00  0.00000000000E+00  0.86050732223E+03  0.86050732223E+03  0.25500000000E-02 0.  1.
         -2   -1    0    0    0  501 -0.00000000000E+00 -0.00000000000E+00 -0.72755571139E+03  0.72755571140E+03  0.25500000000E-02 0. -1.
   -5000001    1    1    2    0    0 -0.12691256104E+02  0.74995081421E+03  0.97886640661E+02  0.79666121164E+03  0.25000000000E+03 0.  0.
    5000001    1    1    2    0    0  0.12691256104E+02 -0.74995081421E+03  0.35064970173E+02  0.79140182199E+03  0.25000000000E+03 0.  0.
<mgrwt>
<rscale>  0 0.15824879E+04</rscale>
<asrwt>0</asrwt>
<pdfrwt beam="1">  1        2 0.13238574E+00 0.15824879E+04</pdfrwt>
<pdfrwt beam="2">  1       -2 0.11193165E+00 0.15824879E+04</pdfrwt>
<totfact> 0.18875413E+01</totfact>
</mgrwt>
</event>
<event>
 4    1  0.1720876E-005  0.8071400E+03  0.7818608E-02  0.9549739E-01
         -2   -1    0    0    0  501 -0.00000000000E+00  0.00000000000E+00  0.19729559726E+03  0.19729559728E+03  0.25500000000E-02 0. -1.
          2   -1    0    0  501    0  0.00000000000E+00 -0.00000000000E+00 -0.82550619433E+03  0.82550619434E+03  0.25500000000E-02 0.  1.
   -5000001    1    1    2    0    0 -0.81222809818E+02  0.29035986366E+03 -0.19083707757E+03  0.43568886311E+03  0.25000000000E+03 0.  0.
    5000001    1    1    2    0    0  0.81222809818E+02 -0.29035986366E+03 -0.43737351950E+03  0.58711292851E+03  0.25000000000E+03 0.  0.
<mgrwt>
<rscale>  0 0.80713998E+03</rscale>
<asrwt>0</asrwt>
<pdfrwt beam="1">  1        2 0.12700095E+00 0.80713998E+03</pdfrwt>
<pdfrwt beam="2">  1       -2 0.30353169E-01 0.80713998E+03</pdfrwt>
<totfact> 0.33270717E+02</totfact>
</mgrwt>
</event>
<event>
 4    1  0.1720876E-005  0.7867005E+03  0.7818608E-02  0.9579470E-01
          2   -1    0    0  501    0  0.00000000000E+00  0.00000000000E+00  0.10640691792E+04  0.10640691792E+04  0.25500000000E-02 0.  1.
         -2   -1    0    0    0  501 -0.00000000000E+00 -0.00000000000E+00 -0.14540823082E+03  0.14540823084E+03  0.25500000000E-02 0. -1.
   -5000001    1    1    2    0    0 -0.25974905822E+03 -0.15329351494E+03  0.40484595697E+03  0.56335488268E+03  0.25000000000E+03 0.  0.
    5000001    1    1    2    0    0  0.25974905822E+03  0.15329351494E+03  0.51381499143E+03  0.64612252738E+03  0.25000000000E+03 0.  0.
<mgrwt>
<rscale>  0 0.78670049E+03</rscale>
<asrwt>0</asrwt>
<pdfrwt beam="1">  1        2 0.16370295E+00 0.78670049E+03</pdfrwt>
<pdfrwt beam="2">  1       -2 0.22370497E-01 0.78670049E+03</pdfrwt>
<totfact> 0.40363326E+02</totfact>
</mgrwt>
</event>
<event>
 4    1  0.1720876E-005  0.6844681E+03  0.7818608E-02  0.9744169E-01
         -2   -1    0    0    0  501 -0.00000000000E+00  0.00000000000E+00  0.10249188462E+03  0.10249188465E+03  0.25500000000E-02 0. -1.
          2   -1    0    0  501    0  0.00000000000E+00 -0.00000000000E+00 -0.11427650308E+04  0.11427650308E+04  0.25500000000E-02 0.  1.
   -5000001    1    1    2    0    0 -0.18569552205E+03 -0.13440552596E+03 -0.43723390226E+03  0.55337253059E+03  0.25000000000E+03 0.  0.
    5000001    1    1    2    0    0  0.18569552205E+03  0.13440552596E+03 -0.60303924389E+03  0.69188438485E+03  0.25000000000E+03 0.  0.
<mgrwt>
<rscale>  0 0.68446809E+03</rscale>
<asrwt>0</asrwt>
<pdfrwt beam="1">  1        2 0.17581000E+00 0.68446809E+03</pdfrwt>
<pdfrwt beam="2">  1       -2 0.15767983E-01 0.68446809E+03</pdfrwt>
<totfact> 0.66609390E+02</totfact>
</mgrwt>
</event>
<event>
 4    1  0.1720876E-005  0.8152844E+03  0.7818608E-02  0.9538153E-01
          2   -1    0    0  501    0  0.00000000000E+00  0.00000000000E+00  0.25846213904E+04  0.25846213904E+04  0.25500000000E-02 0.  1.
         -2   -1    0    0    0  501 -0.00000000000E+00 -0.00000000000E+00 -0.64292646951E+02  0.64292647002E+02  0.25500000000E-02 0. -1.
   -5000001    1    1    2    0    0 -0.26171838971E+03  0.40110707529E+02  0.66489505000E+03  0.75808364438E+03  0.25000000000E+03 0.  0.
    5000001    1    1    2    0    0  0.26171838971E+03 -0.40110707529E+02  0.18554336934E+04  0.18908303930E+04  0.25000000000E+03 0.  0.
<mgrwt>
<rscale>  0 0.81528437E+03</rscale>
<asrwt>0</asrwt>
<pdfrwt beam="1">  1        2 0.39763408E+00 0.81528437E+03</pdfrwt>
<pdfrwt beam="2">  1       -2 0.98911759E-02 0.81528437E+03</pdfrwt>
<totfact> 0.22450020E+02</totfact>
</mgrwt>
</event>
<event>
 4    1  0.1720876E-005  0.6830164E+03  0.7818608E-02  0.9746725E-01
         -2   -1    0    0    0  501 -0.00000000000E+00  0.00000000000E+00  0.72263345827E+02  0.72263345872E+02  0.25500000000E-02 0. -1.
          2   -1    0    0  501    0  0.00000000000E+00 -0.00000000000E+00 -0.16139283023E+04  0.16139283023E+04  0.25500000000E-02 0.  1.
   -5000001    1    1    2    0    0 -0.98999459646E+02 -0.19390015723E+03 -0.97335507201E+03  0.10282598213E+04  0.25000000000E+03 0.  0.
    5000001    1    1    2    0    0  0.98999459646E+02  0.19390015723E+03 -0.56830988450E+03  0.65793182686E+03  0.25000000000E+03 0.  0.
<mgrwt>
<rscale>  0 0.68301642E+03</rscale>
<asrwt>0</asrwt>
<pdfrwt beam="1">  1        2 0.24829663E+00 0.68301642E+03</pdfrwt>
<pdfrwt beam="2">  1       -2 0.11117439E-01 0.68301642E+03</pdfrwt>
<totfact> 0.64382927E+02</totfact>
</mgrwt>
</event>
<event>
 4    1  0.1720876E-005  0.1260295E+04  0.7818608E-02  0.9061658E-01
          2   -1    0    0  501    0  0.00000000000E+00  0.00000000000E+00  0.18361248003E+04  0.18361248003E+04  0.25500000000E-02 0.  1.
         -2   -1    0    0    0  501 -0.00000000000E+00 -0.00000000000E+00 -0.21626315166E+03  0.21626315167E+03  0.25500000000E-02 0. -1.
   -5000001    1    1    2    0    0 -0.30924286979E+03  0.42640528822E+03  0.11991843602E+04  0.13334150711E+04  0.25000000000E+03 0.  0.
    5000001    1    1    2    0    0  0.30924286979E+03 -0.42640528822E+03  0.42067728853E+03  0.71897288087E+03  0.25000000000E+03 0.  0.
<mgrwt>
<rscale>  0 0.12602954E+04</rscale>
<asrwt>0</asrwt>
<pdfrwt beam="1">  1        2 0.28248074E+00 0.12602954E+04</pdfrwt>
<pdfrwt beam="2">  1       -2 0.33271254E-01 0.12602954E+04</pdfrwt>
<totfact> 0.68347293E+01</totfact>
</mgrwt>
</event>
<event>
 4    1  0.1720876E-005  0.6393575E+03  0.7818608E-02  0.9826957E-01
          2   -1    0    0  501    0  0.00000000000E+00  0.00000000000E+00  0.98536436883E+03  0.98536436884E+03  0.25500000000E-02 0.  1.
         -2   -1    0    0    0  501 -0.00000000000E+00 -0.00000000000E+00 -0.10371239455E+03  0.10371239458E+03  0.25500000000E-02 0. -1.
   -5000001    1    1    2    0    0 -0.16017211094E+03 -0.11724983638E+03  0.46992703959E+03  0.56809686831E+03  0.25000000000E+03 0.  0.
    5000001    1    1    2    0    0  0.16017211094E+03  0.11724983638E+03  0.41172493470E+03  0.52097989511E+03  0.25000000000E+03 0.  0.
<mgrwt>
<rscale>  0 0.63935748E+03</rscale>
<asrwt>0</asrwt>
<pdfrwt beam="1">  1        2 0.15159452E+00 0.63935748E+03</pdfrwt>
<pdfrwt beam="2">  1       -2 0.15955753E-01 0.63935748E+03</pdfrwt>
<totfact> 0.81820148E+02</totfact>
</mgrwt>
</event>
<event>
 4    1  0.1720876E-005  0.7717464E+03  0.7818608E-02  0.9601838E-01
          2   -1    0    0  501    0  0.00000000000E+00  0.00000000000E+00  0.44521034496E+03  0.44521034497E+03  0.25500000000E-02 0.  1.
         -2   -1    0    0    0  501 -0.00000000000E+00 -0.00000000000E+00 -0.33444446796E+03  0.33444446797E+03  0.25500000000E-02 0. -1.
   -5000001    1    1    2    0    0  0.16183426042E+03 -0.21957416237E+03 -0.55261043257E+02  0.37410817089E+03  0.25000000000E+03 0.  0.
    5000001    1    1    2    0    0 -0.16183426042E+03  0.21957416237E+03  0.16602692025E+03  0.40554664205E+03  0.25000000000E+03 0.  0.
<mgrwt>
<rscale>  0 0.77174643E+03</rscale>
<asrwt>0</asrwt>
<pdfrwt beam="1">  1        2 0.68493899E-01 0.77174643E+03</pdfrwt>
<pdfrwt beam="2">  1       -2 0.51452995E-01 0.77174643E+03</pdfrwt>
<totfact> 0.25325210E+02</totfact>
</mgrwt>
</event>
<event>
 4    1  0.1720876E-005  0.6202459E+03  0.7818608E-02  0.9864270E-01
         -2   -1    0    0    0  501 -0.00000000000E+00  0.00000000000E+00  0.16304096119E+03  0.16304096121E+03  0.25500000000E-02 0. -1.
          2   -1    0    0  501    0  0.00000000000E+00 -0.00000000000E+00 -0.58988998093E+03  0.58988998093E+03  0.25500000000E-02 0.  1.
   -5000001    1    1    2    0    0 -0.11800937110E+02  0.16212462037E+03 -0.31680471407E+03  0.43507342082E+03  0.25000000000E+03 0.  0.
    5000001    1    1    2    0    0  0.11800937110E+02 -0.16212462037E+03 -0.11004430567E+03  0.31785752132E+03  0.25000000000E+03 0.  0.
<mgrwt>
<rscale>  0 0.62024585E+03</rscale>
<asrwt>0</asrwt>
<pdfrwt beam="1">  1        2 0.90752304E-01 0.62024585E+03</pdfrwt>
<pdfrwt beam="2">  1       -2 0.25083225E-01 0.62024585E+03</pdfrwt>
<totfact> 0.72511287E+02</totfact>
</mgrwt>
</event>
<event>
 4    1  0.1720876E-005  0.1570600E+04  0.7818608E-02  0.8838816E-01
          2   -1    0    0  501    0  0.00000000000E+00  0.00000000000E+00  0.23517928676E+04  0.23517928676E+04  0.25500000000E-02 0.  1.
         -2   -1    0    0    0  501 -0.00000000000E+00 -0.00000000000E+00 -0.26222384799E+03  0.26222384800E+03  0.25500000000E-02 0. -1.
   -5000001    1    1    2    0    0  0.39872073555E+03 -0.53107644850E+03  0.48487294228E+03  0.85943131737E+03  0.25000000000E+03 0.  0.
    5000001    1    1    2    0    0 -0.39872073555E+03  0.53107644850E+03  0.16046960774E+04  0.17545853983E+04  0.25000000000E+03 0.  0.
<mgrwt>
<rscale>  0 0.15706001E+04</rscale>
<asrwt>0</asrwt>
<pdfrwt beam="1">  1        2 0.36181428E+00 0.15706001E+04</pdfrwt>
<pdfrwt beam="2">  1       -2 0.40342132E-01 0.15706001E+04</pdfrwt>
<totfact> 0.23714964E+01</totfact>
</mgrwt>
</event>
<event>
 4    1  0.1720876E-005  0.6004773E+03  0.7818608E-02  0.9904416E-01
         -2   -1    0    0    0  501 -0.00000000000E+00  0.00000000000E+00  0.22366359243E+03  0.22366359245E+03  0.25500000000E-02 0. -1.
          2   -1    0    0  501    0  0.00000000000E+00 -0.00000000000E+00 -0.40303048551E+03  0.40303048552E+03  0.25500000000E-02 0.  1.
   -5000001    1    1    2    0    0  0.72645721579E+02  0.12362888165E+03 -0.18562255845E+01  0.28820990062E+03  0.25000000000E+03 0.  0.
    5000001    1    1    2    0    0 -0.72645721579E+02 -0.12362888165E+03 -0.17751066750E+03  0.33848417735E+03  0.25000000000E+03 0.  0.
<mgrwt>
<rscale>  0 0.60047730E+03</rscale>
<asrwt>0</asrwt>
<pdfrwt beam="1">  1        2 0.62004690E-01 0.60047730E+03</pdfrwt>
<pdfrwt beam="2">  1       -2 0.34409783E-01 0.60047730E+03</pdfrwt>
<totfact> 0.62799095E+02</totfact>
</mgrwt>
</event>
<event>
 4    1  0.1720876E-005  0.7586489E+03  0.7818608E-02  0.9621879E-01
          2   -1    0    0  501    0  0.00000000000E+00  0.00000000000E+00  0.21501460842E+04  0.21501460842E+04  0.25500000000E-02 0.  1.
         -2   -1    0    0    0  501 -0.00000000000E+00 -0.00000000000E+00 -0.66919649842E+02  0.66919649891E+02  0.25500000000E-02 0. -1.
   -5000001    1    1    2    0    0  0.23264271016E+03 -0.13388171285E+02  0.15225670367E+04  0.15604525802E+04  0.25000000000E+03 0.  0.
    5000001    1    1    2    0    0 -0.23264271016E+03  0.13388171285E+02  0.56065939766E+03  0.65661315393E+03  0.25000000000E+03 0.  0.
<mgrwt>
<rscale>  0 0.75864886E+03</rscale>
<asrwt>0</asrwt>
<pdfrwt beam="1">  1        2 0.33079170E+00 0.75864886E+03</pdfrwt>
<pdfrwt beam="2">  1       -2 0.10295331E-01 0.75864886E+03</pdfrwt>
<totfact> 0.37022943E+02</totfact>
</mgrwt>
</event>
<event>
 4    1  0.1720876E-005  0.5592617E+03  0.7818608E-02  0.9993726E-01
         -2   -1    0    0    0  501 -0.00000000000E+00  0.00000000000E+00  0.84492544290E+02  0.84492544329E+02  0.25500000000E-02 0. -1.
          2   -1    0    0  501    0  0.00000000000E+00 -0.00000000000E+00 -0.92544758765E+03  0.92544758765E+03  0.25500000000E-02 0.  1.
   -5000001    1    1    2    0    0 -0.99778003203E+02 -0.21088734306E+02 -0.28909639620E+03  0.39557187834E+03  0.25000000000E+03 0.  0.
    5000001    1    1    2    0    0  0.99778003203E+02  0.21088734306E+02 -0.55185864716E+03  0.61436825364E+03  0.25000000000E+03 0.  0.
<mgrwt>
<rscale>  0 0.55926173E+03</rscale>
<asrwt>0</asrwt>
<pdfrwt beam="1">  1        2 0.14237655E+00 0.55926173E+03</pdfrwt>
<pdfrwt beam="2">  1       -2 0.12998854E-01 0.55926173E+03</pdfrwt>
<totfact> 0.12643194E+03</totfact>
</mgrwt>
</event>
<event>
 4    1  0.1720876E-005  0.7351142E+03  0.7818608E-02  0.9658998E-01
         -2   -1    0    0    0  501 -0.00000000000E+00  0.00000000000E+00  0.74737735473E+02  0.74737735517E+02  0.25500000000E-02 0. -1.
          2   -1    0    0  501    0  0.00000000000E+00 -0.00000000000E+00 -0.18076308388E+04  0.18076308388E+04  0.25500000000E-02 0.  1.
   -5000001    1    1    2    0    0 -0.82032023810E+02 -0.12693924291E+03 -0.14376226027E+04  0.14670042850E+04  0.25000000000E+03 0.  0.
    5000001    1    1    2    0    0  0.82032023810E+02  0.12693924291E+03 -0.29527050060E+03  0.41536428933E+03  0.25000000000E+03 0.  0.
<mgrwt>
<rscale>  0 0.73511424E+03</rscale>
<asrwt>0</asrwt>
<pdfrwt beam="1">  1        2 0.27809702E+00 0.73511424E+03</pdfrwt>
<pdfrwt beam="2">  1       -2 0.11498114E-01 0.73511424E+03</pdfrwt>
<totfact> 0.47592798E+02</totfact>
</mgrwt>
</event>
<event>
 4    1  0.1720876E-005  0.9373214E+03  0.7818608E-02  0.9380094E-01
         -2   -1    0    0    0  501 -0.00000000000E+00  0.00000000000E+00  0.11726849262E+04  0.11726849262E+04  0.25500000000E-02 0. -1.
          2   -1    0    0  501    0  0.00000000000E+00 -0.00000000000E+00 -0.18729912078E+03  0.18729912080E+03  0.25500000000E-02 0.  1.
   -5000001    1    1    2    0    0  0.29112538510E+03  0.18580700372E+03  0.77502619806E+03  0.88455855666E+03  0.25000000000E+03 0.  0.
    5000001    1    1    2    0    0 -0.29112538510E+03 -0.18580700372E+03  0.21035960739E+03  0.47542549038E+03  0.25000000000E+03 0.  0.
<mgrwt>
<rscale>  0 0.93732141E+03</rscale>
<asrwt>0</asrwt>
<pdfrwt beam="1">  1        2 0.28815250E-01 0.93732141E+03</pdfrwt>
<pdfrwt beam="2">  1       -2 0.18041306E+00 0.93732141E+03</pdfrwt>
<totfact> 0.33646958E+01</totfact>
</mgrwt>
</event>
<event>
 4    1  0.1720876E-005  0.8772760E+03  0.7818608E-02  0.9454442E-01
         -2   -1    0    0    0  501 -0.00000000000E+00  0.00000000000E+00  0.92464879364E+02  0.92464879399E+02  0.25500000000E-02 0. -1.
          2   -1    0    0  501    0  0.00000000000E+00 -0.00000000000E+00 -0.20808258048E+04  0.20808258048E+04  0.25500000000E-02 0.  1.
   -5000001    1    1    2    0    0  0.95578435655E+01 -0.30110450391E+03 -0.50402197648E+03  0.63819544610E+03  0.25000000000E+03 0.  0.
    5000001    1    1    2    0    0 -0.95578435655E+01  0.30110450391E+03 -0.14843389489E+04  0.15350952381E+04  0.25000000000E+03 0.  0.
<mgrwt>
<rscale>  0 0.87727603E+03</rscale>
<asrwt>0</asrwt>
<pdfrwt beam="1">  1        2 0.32012701E+00 0.87727603E+03</pdfrwt>
<pdfrwt beam="2">  1       -2 0.14225368E-01 0.87727603E+03</pdfrwt>
<totfact> 0.23428361E+02</totfact>
</mgrwt>
</event>
<event>
 4    1  0.1720876E-005  0.1298254E+04  0.7818608E-02  0.9030951E-01
         -2   -1    0    0    0  501 -0.00000000000E+00  0.00000000000E+00  0.22418849713E+03  0.22418849715E+03  0.25500000000E-02 0. -1.
          2   -1    0    0  501    0  0.00000000000E+00 -0.00000000000E+00 -0.18795154170E+04  0.18795154170E+04  0.25500000000E-02 0.  1.
   -5000001    1    1    2    0    0  0.55968592572E+02  0.59382113170E+03 -0.91802537715E+03  0.11229544127E+04  0.25000000000E+03 0.  0.
    5000001    1    1    2    0    0 -0.55968592572E+02 -0.59382113170E+03 -0.73730154274E+03  0.98074950152E+03  0.25000000000E+03 0.  0.
<mgrwt>
<rscale>  0 0.12982538E+04</rscale>
<asrwt>0</asrwt>
<pdfrwt beam="1">  1        2 0.28915621E+00 0.12982538E+04</pdfrwt>
<pdfrwt beam="2">  1       -2 0.34490539E-01 0.12982538E+04</pdfrwt>
<totfact> 0.60226044E+01</totfact>
</mgrwt>
</event>
<event>
 4    1  0.1720876E-005  0.1744114E+04  0.7818608E-02  0.8736597E-01
          2   -1    0    0  501    0  0.00000000000E+00  0.00000000000E+00  0.17979229798E+04  0.17979229798E+04  0.25500000000E-02 0.  1.
         -2   -1    0    0    0  501 -0.00000000000E+00 -0.00000000000E+00 -0.42297887519E+03  0.42297887519E+03  0.25500000000E-02 0. -1.
   -5000001    1    1    2    0    0  0.30668642405E+03 -0.76409377171E+03  0.86794759420E+03  0.12221820163E+04  0.25000000000E+03 0.  0.
    5000001    1    1    2    0    0 -0.30668642405E+03  0.76409377171E+03  0.50699651042E+03  0.99871983871E+03  0.25000000000E+03 0.  0.
<mgrwt>
<rscale>  0 0.17441140E+04</rscale>
<asrwt>0</asrwt>
<pdfrwt beam="1">  1        2 0.27660354E+00 0.17441140E+04</pdfrwt>
<pdfrwt beam="2">  1       -2 0.65073673E-01 0.17441140E+04</pdfrwt>
<totfact> 0.17865405E+01</totfact>
</mgrwt>
</event>
<event>
 4    1  0.1720876E-005  0.1395837E+04  0.7818608E-02  0.8956837E-01
         -2   -1    0    0    0  501 -0.00000000000E+00  0.00000000000E+00  0.51773373146E+03  0.51773373146E+03  0.25500000000E-02 0. -1.
          2   -1    0    0  501    0  0.00000000000E+00 -0.00000000000E+00 -0.94081250541E+03  0.94081250542E+03  0.25500000000E-02 0.  1.
   -5000001    1    1    2    0    0  0.42537760158E+03 -0.48256903089E+03 -0.10309141847E+03  0.69781574507E+03  0.25000000000E+03 0.  0.
    5000001    1    1    2    0    0 -0.42537760158E+03  0.48256903089E+03 -0.31998735548E+03  0.76073049181E+03  0.25000000000E+03 0.  0.
<mgrwt>
<rscale>  0 0.13958372E+04</rscale>
<asrwt>0</asrwt>
<pdfrwt beam="1">  1        2 0.14474039E+00 0.13958372E+04</pdfrwt>
<pdfrwt beam="2">  1       -2 0.79651343E-01 0.13958372E+04</pdfrwt>
<totfact> 0.37430191E+01</totfact>
</mgrwt>
</event>
<event>
 4    1  0.1720876E-005  0.8496972E+03  0.7818608E-02  0.9490743E-01
         -2   -1    0    0    0  501 -0.00000000000E+00  0.00000000000E+00  0.80926421875E+02  0.80926421915E+02  0.25500000000E-02 0. -1.
          2   -1    0    0  501    0  0.00000000000E+00 -0.00000000000E+00 -0.22303758581E+04  0.22303758581E+04  0.25500000000E-02 0.  1.
   -5000001    1    1    2    0    0 -0.25647776183E+03  0.19458301315E+03 -0.14006087537E+04  0.14587145959E+04  0.25000000000E+03 0.  0.
    5000001    1    1    2    0    0  0.25647776183E+03 -0.19458301315E+03 -0.74884068250E+03  0.85258768411E+03  0.25000000000E+03 0.  0.
<mgrwt>
<rscale>  0 0.84969721E+03</rscale>
<asrwt>0</asrwt>
<pdfrwt beam="1">  1        2 0.34313470E+00 0.84969721E+03</pdfrwt>
<pdfrwt beam="2">  1       -2 0.12450220E-01 0.84969721E+03</pdfrwt>
<totfact> 0.24269291E+02</totfact>
</mgrwt>
</event>
<event>
 4    1  0.1720876E-005  0.5865257E+03  0.7818608E-02  0.9933762E-01
         -2   -1    0    0    0  501 -0.00000000000E+00  0.00000000000E+00  0.50320759565E+02  0.50320759630E+02  0.25500000000E-02 0. -1.
          2   -1    0    0  501    0  0.00000000000E+00 -0.00000000000E+00 -0.17090979010E+04  0.17090979010E+04  0.25500000000E-02 0.  1.
   -5000001    1    1    2    0    0  0.13205222140E+03  0.65995579690E+02 -0.95343016773E+03  0.99665555256E+03  0.25000000000E+03 0.  0.
    5000001    1    1    2    0    0 -0.13205222140E+03 -0.65995579690E+02 -0.70534697368E+03  0.76276310805E+03  0.25000000000E+03 0.  0.
<mgrwt>
<rscale>  0 0.58652572E+03</rscale>
<asrwt>0</asrwt>
<pdfrwt beam="1">  1        2 0.26293809E+00 0.58652572E+03</pdfrwt>
<pdfrwt beam="2">  1       -2 0.77416566E-02 0.58652572E+03</pdfrwt>
<totfact> 0.10300801E+03</totfact>
</mgrwt>
</event>
<event>
 4    1  0.1720876E-005  0.6746051E+03  0.7818608E-02  0.9761674E-01
         -2   -1    0    0    0  501 -0.00000000000E+00  0.00000000000E+00  0.29862430089E+02  0.29862430198E+02  0.25500000000E-02 0. -1.
          2   -1    0    0  501    0  0.00000000000E+00 -0.00000000000E+00 -0.38099049731E+04  0.38099049731E+04  0.25500000000E-02 0.  1.
   -5000001    1    1    2    0    0 -0.33660637008E+02 -0.97232656328E+02 -0.74192932610E+03  0.78964951267E+03  0.25000000000E+03 0.  0.
    5000001    1    1    2    0    0  0.33660637008E+02  0.97232656328E+02 -0.30381132169E+04  0.30501178907E+04  0.25000000000E+03 0.  0.
<mgrwt>
<rscale>  0 0.67460513E+03</rscale>
<asrwt>0</asrwt>
<pdfrwt beam="1">  1        2 0.58613884E+00 0.67460513E+03</pdfrwt>
<pdfrwt beam="2">  1       -2 0.45942230E-02 0.67460513E+03</pdfrwt>
<totfact> 0.12546800E+02</totfact>
</mgrwt>
</event>
<event>
 4    1  0.1720876E-005  0.6383246E+03  0.7818608E-02  0.9828937E-01
         -2   -1    0    0    0  501 -0.00000000000E+00  0.00000000000E+00  0.64778002200E+02  0.64778002250E+02  0.25500000000E-02 0. -1.
          2   -1    0    0  501    0  0.00000000000E+00 -0.00000000000E+00 -0.15725182107E+04  0.15725182107E+04  0.25500000000E-02 0.  1.
   -5000001    1    1    2    0    0 -0.12557559771E+03 -0.12720088638E+03 -0.97474673613E+03  0.10220472082E+04  0.25000000000E+03 0.  0.
    5000001    1    1    2    0    0  0.12557559771E+03  0.12720088638E+03 -0.53299347239E+03  0.61524900475E+03  0.25000000000E+03 0.  0.
<mgrwt>
<rscale>  0 0.63832465E+03</rscale>
<asrwt>0</asrwt>
<pdfrwt beam="1">  1        2 0.24192585E+00 0.63832465E+03</pdfrwt>
<pdfrwt beam="2">  1       -2 0.99658476E-02 0.63832465E+03</pdfrwt>
<totfact> 0.81291441E+02</totfact>
</mgrwt>
</event>
<event>
 4    1  0.1720876E-005  0.7637910E+03  0.7818608E-02  0.9613959E-01
          2   -1    0    0  501    0  0.00000000000E+00  0.00000000000E+00  0.25588095641E+03  0.25588095642E+03  0.25500000000E-02 0.  1.
         -2   -1    0    0    0  501 -0.00000000000E+00 -0.00000000000E+00 -0.56996891224E+03  0.56996891224E+03  0.25500000000E-02 0. -1.
   -5000001    1    1    2    0    0 -0.31937143237E+02  0.28678677180E+03 -0.16656615958E+03  0.41654641892E+03  0.25000000000E+03 0.  0.
    5000001    1    1    2    0    0  0.31937143237E+02 -0.28678677180E+03 -0.14752179625E+03  0.40930344974E+03  0.25000000000E+03 0.  0.
<mgrwt>
<rscale>  0 0.76379105E+03</rscale>
<asrwt>0</asrwt>
<pdfrwt beam="1">  1        2 0.39366301E-01 0.76379105E+03</pdfrwt>
<pdfrwt beam="2">  1       -2 0.87687524E-01 0.76379105E+03</pdfrwt>
<totfact> 0.14837684E+02</totfact>
</mgrwt>
</event>
<event>
 4    1  0.1720876E-005  0.8937108E+03  0.7818608E-02  0.9433478E-01
         -2   -1    0    0    0  501 -0.00000000000E+00  0.00000000000E+00  0.83510331220E+02  0.83510331259E+02  0.25500000000E-02 0. -1.
          2   -1    0    0  501    0  0.00000000000E+00 -0.00000000000E+00 -0.23910783450E+04  0.23910783450E+04  0.25500000000E-02 0.  1.
   -5000001    1    1    2    0    0 -0.30770271120E+03 -0.21276251214E+01 -0.58300084706E+03  0.70503579551E+03  0.25000000000E+03 0.  0.
    5000001    1    1    2    0    0  0.30770271120E+03  0.21276251214E+01 -0.17245671667E+04  0.17695528808E+04  0.25000000000E+03 0.  0.
<mgrwt>
<rscale>  0 0.89371079E+03</rscale>
<asrwt>0</asrwt>
<pdfrwt beam="1">  1        2 0.36785815E+00 0.89371079E+03</pdfrwt>
<pdfrwt beam="2">  1       -2 0.12847745E-01 0.89371079E+03</pdfrwt>
<totfact> 0.18661881E+02</totfact>
</mgrwt>
</event>
<event>
 4    1  0.1720876E-005  0.5642381E+03  0.7818608E-02  0.9982511E-01
          2   -1    0    0  501    0  0.00000000000E+00  0.00000000000E+00  0.58742025397E+03  0.58742025397E+03  0.25500000000E-02 0.  1.
         -2   -1    0    0    0  501 -0.00000000000E+00 -0.00000000000E+00 -0.13549270345E+03  0.13549270347E+03  0.25500000000E-02 0. -1.
   -5000001    1    1    2    0    0 -0.11836700303E+03 -0.55489351851E+02  0.22447915939E+03  0.36052837416E+03  0.25000000000E+03 0.  0.
    5000001    1    1    2    0    0  0.11836700303E+03  0.55489351851E+02  0.22744839112E+03  0.36238458328E+03  0.25000000000E+03 0.  0.
<mgrwt>
<rscale>  0 0.56423810E+03</rscale>
<asrwt>0</asrwt>
<pdfrwt beam="1">  1        2 0.90372349E-01 0.56423810E+03</pdfrwt>
<pdfrwt beam="2">  1       -2 0.20845031E-01 0.56423810E+03</pdfrwt>
<totfact> 0.10128774E+03</totfact>
</mgrwt>
</event>
<event>
 4    1  0.1720876E-005  0.8519570E+03  0.7818608E-02  0.9487714E-01
         -2   -1    0    0    0  501 -0.00000000000E+00  0.00000000000E+00  0.16556175174E+03  0.16556175175E+03  0.25500000000E-02 0. -1.
          2   -1    0    0  501    0  0.00000000000E+00 -0.00000000000E+00 -0.10960120185E+04  0.10960120185E+04  0.25500000000E-02 0.  1.
   -5000001    1    1    2    0    0 -0.12290653052E+03 -0.29929032605E+03 -0.64215974170E+03  0.76128171420E+03  0.25000000000E+03 0.  0.
    5000001    1    1    2    0    0  0.12290653052E+03  0.29929032605E+03 -0.28829052505E+03  0.50029205604E+03  0.25000000000E+03 0.  0.
<mgrwt>
<rscale>  0 0.85195697E+03</rscale>
<asrwt>0</asrwt>
<pdfrwt beam="1">  1        2 0.16861723E+00 0.85195697E+03</pdfrwt>
<pdfrwt beam="2">  1       -2 0.25471039E-01 0.85195697E+03</pdfrwt>
<totfact> 0.30460958E+02</totfact>
</mgrwt>
</event>
<event>
 4    1  0.1720876E-005  0.9386906E+03  0.7818608E-02  0.9378468E-01
          2   -1    0    0  501    0  0.00000000000E+00  0.00000000000E+00  0.28233610333E+03  0.28233610334E+03  0.25500000000E-02 0.  1.
         -2   -1    0    0    0  501 -0.00000000000E+00 -0.00000000000E+00 -0.78022259037E+03  0.78022259038E+03  0.25500000000E-02 0. -1.
   -5000001    1    1    2    0    0  0.25092625294E+02  0.13224788740E+03  0.17409107261E+03  0.33305681967E+03  0.25000000000E+03 0.  0.
    5000001    1    1    2    0    0 -0.25092625294E+02 -0.13224788740E+03 -0.67197755965E+03  0.72950187405E+03  0.25000000000E+03 0.  0.
<mgrwt>
<rscale>  0 0.93869059E+03</rscale>
<asrwt>0</asrwt>
<pdfrwt beam="1">  1        2 0.43436324E-01 0.93869059E+03</pdfrwt>
<pdfrwt beam="2">  1       -2 0.12003424E+00 0.93869059E+03</pdfrwt>
<totfact> 0.62402391E+01</totfact>
</mgrwt>
</event>
<event>
 4    1  0.1720876E-005  0.8125470E+03  0.7818608E-02  0.9542031E-01
          2   -1    0    0  501    0  0.00000000000E+00  0.00000000000E+00  0.20384727326E+03  0.20384727328E+03  0.25500000000E-02 0.  1.
         -2   -1    0    0    0  501 -0.00000000000E+00 -0.00000000000E+00 -0.80971476175E+03  0.80971476176E+03  0.25500000000E-02 0. -1.
   -5000001    1    1    2    0    0  0.29214849282E+03 -0.71976722605E+02 -0.43973059671E+03  0.58855279129E+03  0.25000000000E+03 0.  0.
    5000001    1    1    2    0    0 -0.29214849282E+03  0.71976722605E+02 -0.16613689179E+03  0.42500924374E+03  0.25000000000E+03 0.  0.
<mgrwt>
<rscale>  0 0.81254697E+03</rscale>
<asrwt>0</asrwt>
<pdfrwt beam="1">  1        2 0.31361119E-01 0.81254697E+03</pdfrwt>
<pdfrwt beam="2">  1       -2 0.12457150E+00 0.81254697E+03</pdfrwt>
<totfact> 0.82416096E+01</totfact>
</mgrwt>
</event>
<event>
 4    1  0.1720876E-005  0.6751911E+03  0.7818608E-02  0.9760625E-01
          2   -1    0    0  501    0  0.00000000000E+00  0.00000000000E+00  0.17743624117E+04  0.17743624117E+04  0.25500000000E-02 0.  1.
         -2   -1    0    0    0  501 -0.00000000000E+00 -0.00000000000E+00 -0.64231954384E+02  0.64231954434E+02  0.25500000000E-02 0. -1.
   -5000001    1    1    2    0    0  0.49446534620E+02 -0.21434835127E+03  0.10062040919E+04  0.10598758654E+04  0.25000000000E+03 0.  0.
    5000001    1    1    2    0    0 -0.49446534620E+02  0.21434835127E+03  0.70392636544E+03  0.77871850077E+03  0.25000000000E+03 0.  0.
<mgrwt>
<rscale>  0 0.67519113E+03</rscale>
<asrwt>0</asrwt>
<pdfrwt beam="1">  1        2 0.27297884E+00 0.67519113E+03</pdfrwt>
<pdfrwt beam="2">  1       -2 0.98818388E-02 0.67519113E+03</pdfrwt>
<totfact> 0.63811455E+02</totfact>
</mgrwt>
</event>
<event>
 4    1  0.1720876E-005  0.6638756E+03  0.7818608E-02  0.9781085E-01
          2   -1    0    0  501    0  0.00000000000E+00  0.00000000000E+00  0.48552560716E+03  0.48552560717E+03  0.25500000000E-02 0.  1.
         -2   -1    0    0    0  501 -0.00000000000E+00 -0.00000000000E+00 -0.22693488351E+03  0.22693488352E+03  0.25500000000E-02 0. -1.
   -5000001    1    1    2    0    0  0.15800078647E+02  0.18035417370E+03 -0.17272632415E+01  0.30867499720E+03  0.25000000000E+03 0.  0.
    5000001    1    1    2    0    0 -0.15800078647E+02 -0.18035417370E+03  0.26031798690E+03  0.40378549350E+03  0.25000000000E+03 0.  0.
<mgrwt>
<rscale>  0 0.66387558E+03</rscale>
<asrwt>0</asrwt>
<pdfrwt beam="1">  1        2 0.74696247E-01 0.66387558E+03</pdfrwt>
<pdfrwt beam="2">  1       -2 0.34913059E-01 0.66387558E+03</pdfrwt>
<totfact> 0.49398319E+02</totfact>
</mgrwt>
</event>
<event>
 4    1  0.1720876E-005  0.7953688E+03  0.7818608E-02  0.9566745E-01
          2   -1    0    0  501    0  0.00000000000E+00  0.00000000000E+00  0.75342214531E+03  0.75342214531E+03  0.25500000000E-02 0.  1.
         -2   -1    0    0    0  501 -0.00000000000E+00 -0.00000000000E+00 -0.20991270681E+03  0.20991270683E+03  0.25500000000E-02 0. -1.
   -5000001    1    1    2    0    0 -0.56189100532E+02 -0.25897367823E+03  0.78616869182E+02  0.37269987008E+03  0.25000000000E+03 0.  0.
    5000001    1    1    2    0    0  0.56189100532E+02  0.25897367823E+03  0.46489256931E+03  0.59063498206E+03  0.25000000000E+03 0.  0.
<mgrwt>
<rscale>  0 0.79536880E+03</rscale>
<asrwt>0</asrwt>
<pdfrwt beam="1">  1        2 0.11591110E+00 0.79536880E+03</pdfrwt>
<pdfrwt beam="2">  1       -2 0.32294263E-01 0.79536880E+03</pdfrwt>
<totfact> 0.33442889E+02</totfact>
</mgrwt>
</event>
<event>
 4    1  0.1720876E-005  0.6396410E+03  0.7818608E-02  0.9826414E-01
          2   -1    0    0  501    0  0.00000000000E+00  0.00000000000E+00  0.90191994740E+03  0.90191994741E+03  0.25500000000E-02 0.  1.
         -2   -1    0    0    0  501 -0.00000000000E+00 -0.00000000000E+00 -0.11340824293E+03  0.11340824296E+03  0.25500000000E-02 0. -1.
   -5000001    1    1    2    0    0 -0.10460857929E+03  0.12086807998E+03  0.58362971064E+03  0.65473329438E+03  0.25000000000E+03 0.  0.
    5000001    1    1    2    0    0  0.10460857929E+03 -0.12086807998E+03  0.20488199383E+03  0.36059489599E+03  0.25000000000E+03 0.  0.
<mgrwt>
<rscale>  0 0.63964101E+03</rscale>
<asrwt>0</asrwt>
<pdfrwt beam="1">  1        2 0.13875692E+00 0.63964101E+03</pdfrwt>
<pdfrwt beam="2">  1       -2 0.17447422E-01 0.63964101E+03</pdfrwt>
<totfact> 0.79637993E+02</totfact>
</mgrwt>
</event>
<event>
 4    1  0.1720876E-005  0.7525296E+03  0.7818608E-02  0.9631390E-01
         -2   -1    0    0    0  501 -0.00000000000E+00  0.00000000000E+00  0.97089569116E+02  0.97089569149E+02  0.25500000000E-02 0. -1.
          2   -1    0    0  501    0  0.00000000000E+00 -0.00000000000E+00 -0.14581914920E+04  0.14581914920E+04  0.25500000000E-02 0.  1.
   -5000001    1    1    2    0    0  0.36617432748E+02  0.24110718310E+03 -0.39119535792E+03  0.52441140165E+03  0.25000000000E+03 0.  0.
    5000001    1    1    2    0    0 -0.36617432748E+02 -0.24110718310E+03 -0.96990656498E+03  0.10308696595E+04  0.25000000000E+03 0.  0.
<mgrwt>
<rscale>  0 0.75252956E+03</rscale>
<asrwt>0</asrwt>
<pdfrwt beam="1">  1        2 0.22433714E+00 0.75252956E+03</pdfrwt>
<pdfrwt beam="2">  1       -2 0.14936858E-01 0.75252956E+03</pdfrwt>
<totfact> 0.47849483E+02</totfact>
</mgrwt>
</event>
<event>
 4    1  0.1720876E-005  0.7970067E+03  0.7818608E-02  0.9564360E-01
          2   -1    0    0  501    0  0.00000000000E+00  0.00000000000E+00  0.63687766365E+03  0.63687766365E+03  0.25500000000E-02 0. -1.
         -2   -1    0    0    0  501 -0.00000000000E+00 -0.00000000000E+00 -0.24934917880E+03  0.24934917882E+03  0.25500000000E-02 0.  1.
   -5000001    1    1    2    0    0  0.11790986868E+03 -0.15634884499E+03  0.46145705584E+03  0.56016989641E+03  0.25000000000E+03 0.  0.
    5000001    1    1    2    0    0 -0.11790986868E+03  0.15634884499E+03 -0.73928571001E+02  0.32605694606E+03  0.25000000000E+03 0.  0.
<mgrwt>
<rscale>  0 0.79700671E+03</rscale>
<asrwt>0</asrwt>
<pdfrwt beam="1">  1        2 0.97981178E-01 0.79700671E+03</pdfrwt>
<pdfrwt beam="2">  1       -2 0.38361413E-01 0.79700671E+03</pdfrwt>
<totfact> 0.29762710E+02</totfact>
</mgrwt>
</event>
<event>
 4    1  0.1720876E-005  0.5768210E+03  0.7818608E-02  0.9954697E-01
         -2   -1    0    0    0  501 -0.00000000000E+00  0.00000000000E+00  0.32228183781E+02  0.32228183882E+02  0.25500000000E-02 0. -1.
          2   -1    0    0  501    0  0.00000000000E+00 -0.00000000000E+00 -0.25809895895E+04  0.25809895895E+04  0.25500000000E-02 0.  1.
   -5000001    1    1    2    0    0 -0.14233864950E+03 -0.17844147906E+02 -0.13201133514E+04  0.13512135158E+04  0.25000000000E+03 0.  0.
    5000001    1    1    2    0    0  0.14233864950E+03  0.17844147906E+02 -0.12286480544E+04  0.12620042576E+04  0.25000000000E+03 0.  0.
<mgrwt>
<rscale>  0 0.57682097E+03</rscale>
<asrwt>0</asrwt>
<pdfrwt beam="1">  1        2 0.39707516E+00 0.57682097E+03</pdfrwt>
<pdfrwt beam="2">  1       -2 0.49581842E-02 0.57682097E+03</pdfrwt>
<totfact> 0.68989425E+02</totfact>
</mgrwt>
</event>
<event>
 4    1  0.1720876E-005  0.8599580E+03  0.7818608E-02  0.9477068E-01
         -2   -1    0    0    0  501 -0.00000000000E+00  0.00000000000E+00  0.11707527461E+04  0.11707527461E+04  0.25500000000E-02 0. -1.
          2   -1    0    0  501    0  0.00000000000E+00 -0.00000000000E+00 -0.15791715168E+03  0.15791715170E+03  0.25500000000E-02 0.  1.
   -5000001    1    1    2    0    0  0.10530053419E+03  0.33294896885E+03  0.53877968800E+03  0.68900418763E+03  0.25000000000E+03 0.  0.
    5000001    1    1    2    0    0 -0.10530053419E+03 -0.33294896885E+03  0.47405590638E+03  0.63966571014E+03  0.25000000000E+03 0.  0.
<mgrwt>
<rscale>  0 0.85995800E+03</rscale>
<asrwt>0</asrwt>
<pdfrwt beam="1">  1        2 0.24294946E-01 0.85995800E+03</pdfrwt>
<pdfrwt beam="2">  1       -2 0.18011581E+00 0.85995800E+03</pdfrwt>
<totfact> 0.41301977E+01</totfact>
</mgrwt>
</event>
<event>
 4    1  0.1720876E-005  0.7426353E+03  0.7818608E-02  0.9646976E-01
          2   -1    0    0  501    0  0.00000000000E+00  0.00000000000E+00  0.26870653601E+03  0.26870653602E+03  0.25500000000E-02 0.  1.
         -2   -1    0    0    0  501 -0.00000000000E+00 -0.00000000000E+00 -0.51311291636E+03  0.51311291637E+03  0.25500000000E-02 0. -1.
   -5000001    1    1    2    0    0  0.48403860197E+01 -0.27424123449E+03 -0.13488496473E+03  0.39487420496E+03  0.25000000000E+03 0.  0.
    5000001    1    1    2    0    0 -0.48403860197E+01  0.27424123449E+03 -0.10952141563E+03  0.38694524744E+03  0.25000000000E+03 0.  0.
<mgrwt>
<rscale>  0 0.74263529E+03</rscale>
<asrwt>0</asrwt>
<pdfrwt beam="1">  1        2 0.41339467E-01 0.74263529E+03</pdfrwt>
<pdfrwt beam="2">  1       -2 0.78940448E-01 0.74263529E+03</pdfrwt>
<totfact> 0.17844486E+02</totfact>
</mgrwt>
</event>
<event>
 4    1  0.1720876E-005  0.6980993E+03  0.7818608E-02  0.9720488E-01
          2   -1    0    0  501    0  0.00000000000E+00  0.00000000000E+00  0.24830574637E+04  0.24830574637E+04  0.25500000000E-02 0.  1.
         -2   -1    0    0    0  501 -0.00000000000E+00 -0.00000000000E+00 -0.49066787525E+02  0.49066787591E+02  0.25500000000E-02 0. -1.
   -5000001    1    1    2    0    0 -0.69097261271E+01  0.19241742503E+03  0.67578761403E+03  0.74582914200E+03  0.25000000000E+03 0.  0.
    5000001    1    1    2    0    0  0.69097261271E+01 -0.19241742503E+03  0.17582030621E+04  0.17862951093E+04  0.25000000000E+03 0.  0.
<mgrwt>
<rscale>  0 0.69809929E+03</rscale>
<asrwt>0</asrwt>
<pdfrwt beam="1">  1        2 0.38200889E+00 0.69809929E+03</pdfrwt>
<pdfrwt beam="2">  1       -2 0.75487357E-02 0.69809929E+03</pdfrwt>
<totfact> 0.40062822E+02</totfact>
</mgrwt>
</event>
<event>
 4    1  0.1720876E-005  0.6425244E+03  0.7818608E-02  0.9820909E-01
         -2   -1    0    0    0  501 -0.00000000000E+00  0.00000000000E+00  0.10280393464E+03  0.10280393467E+03  0.25500000000E-02 0. -1.
          2   -1    0    0  501    0  0.00000000000E+00 -0.00000000000E+00 -0.10039440432E+04  0.10039440432E+04  0.25500000000E-02 0.  1.
   -5000001    1    1    2    0    0  0.91440673679E+02  0.15521450526E+03 -0.29405503561E+03  0.42593579729E+03  0.25000000000E+03 0.  0.
    5000001    1    1    2    0    0 -0.91440673679E+02 -0.15521450526E+03 -0.60708507298E+03  0.68081218062E+03  0.25000000000E+03 0.  0.
<mgrwt>
<rscale>  0 0.64252439E+03</rscale>
<asrwt>0</asrwt>
<pdfrwt beam="1">  1        2 0.15445292E+00 0.64252439E+03</pdfrwt>
<pdfrwt beam="2">  1       -2 0.15815991E-01 0.64252439E+03</pdfrwt>
<totfact> 0.80812743E+02</totfact>
</mgrwt>
</event>
<event>
 4    1  0.1720876E-005  0.5555312E+03  0.7818608E-02  0.1000222E+00
         -2   -1    0    0    0  501 -0.00000000000E+00  0.00000000000E+00  0.34701444728E+02  0.34701444822E+02  0.25500000000E-02 0. -1.
          2   -1    0    0  501    0  0.00000000000E+00 -0.00000000000E+00 -0.22233580447E+04  0.22233580447E+04  0.25500000000E-02 0.  1.
   -5000001    1    1    2    0    0  0.59617167691E+02  0.62009068403E+02 -0.74812770823E+03  0.79346984761E+03  0.25000000000E+03 0.  0.
    5000001    1    1    2    0    0 -0.59617167691E+02 -0.62009068403E+02 -0.14405288917E+04  0.14645896419E+04  0.25000000000E+03 0.  0.
<mgrwt>
<rscale>  0 0.55553123E+03</rscale>
<asrwt>0</asrwt>
<pdfrwt beam="1">  1        2 0.34205497E+00 0.55553123E+03</pdfrwt>
<pdfrwt beam="2">  1       -2 0.53386855E-02 0.55553123E+03</pdfrwt>
<totfact> 0.97437912E+02</totfact>
</mgrwt>
</event>
<event>
 4    1  0.1720876E-005  0.9734618E+03  0.7818608E-02  0.9338140E-01
          2   -1    0    0  501    0  0.00000000000E+00  0.00000000000E+00  0.14011684825E+04  0.14011684825E+04  0.25500000000E-02 0.  1.
         -2   -1    0    0    0  501 -0.00000000000E+00 -0.00000000000E+00 -0.16907814210E+03  0.16907814212E+03  0.25500000000E-02 0. -1.
   -5000001    1    1    2    0    0 -0.30614473058E+03 -0.28367818055E+03  0.59272230096E+03  0.76682307753E+03  0.25000000000E+03 0.  0.
    5000001    1    1    2    0    0  0.30614473058E+03  0.28367818055E+03  0.63936803947E+03  0.80342354713E+03  0.25000000000E+03 0.  0.
<mgrwt>
<rscale>  0 0.97346179E+03</rscale>
<asrwt>0</asrwt>
<pdfrwt beam="1">  1        2 0.21556438E+00 0.97346179E+03</pdfrwt>
<pdfrwt beam="2">  1       -2 0.26012022E-01 0.97346179E+03</pdfrwt>
<totfact> 0.19253325E+02</totfact>
</mgrwt>
</event>
<event>
 4    1  0.1720876E-005  0.6503480E+03  0.7818608E-02  0.9806126E-01
          2   -1    0    0  501    0  0.00000000000E+00  0.00000000000E+00  0.22776759287E+04  0.22776759287E+04  0.25500000000E-02 0.  1.
         -2   -1    0    0    0  501 -0.00000000000E+00 -0.00000000000E+00 -0.46423695511E+02  0.46423695581E+02  0.25500000000E-02 0. -1.
   -5000001    1    1    2    0    0 -0.19397495963E+03 -0.13508833356E+02  0.85230647417E+03  0.90924974537E+03  0.25000000000E+03 0.  0.
    5000001    1    1    2    0    0  0.19397495963E+03  0.13508833356E+02  0.13789457590E+04  0.14148498789E+04  0.25000000000E+03 0.  0.
<mgrwt>
<rscale>  0 0.65034801E+03</rscale>
<asrwt>0</asrwt>
<pdfrwt beam="1">  1        2 0.35041167E+00 0.65034801E+03</pdfrwt>
<pdfrwt beam="2">  1       -2 0.71421072E-02 0.65034801E+03</pdfrwt>
<totfact> 0.57192545E+02</totfact>
</mgrwt>
</event>
<event>
 4    1  0.1720876E-005  0.1022044E+04  0.7818608E-02  0.9284692E-01
         -2   -1    0    0    0  501 -0.00000000000E+00  0.00000000000E+00  0.62356862609E+03  0.62356862610E+03  0.25500000000E-02 0.  1.
          2   -1    0    0  501    0  0.00000000000E+00 -0.00000000000E+00 -0.41878866968E+03  0.41878866969E+03  0.25500000000E-02 0. -1.
   -5000001    1    1    2    0    0 -0.35131931078E+03  0.25182376480E+03  0.21319090405E+03  0.54294643218E+03  0.25000000000E+03 0.  0.
    5000001    1    1    2    0    0  0.35131931078E+03 -0.25182376480E+03 -0.84109476365E+01  0.49941086360E+03  0.25000000000E+03 0.  0.
<mgrwt>
<rscale>  0 0.10220440E+04</rscale>
<asrwt>0</asrwt>
<pdfrwt beam="1">  1        2 0.64429026E-01 0.10220440E+04</pdfrwt>
<pdfrwt beam="2">  1       -2 0.95933635E-01 0.10220440E+04</pdfrwt>
<totfact> 0.68599572E+01</totfact>
</mgrwt>
</event>
<event>
 4    1  0.1720876E-005  0.7257669E+03  0.7818608E-02  0.9674154E-01
         -2   -1    0    0    0  501 -0.00000000000E+00  0.00000000000E+00  0.12522432080E+03  0.12522432083E+03  0.25500000000E-02 0. -1.
          2   -1    0    0  501    0  0.00000000000E+00 -0.00000000000E+00 -0.10515880382E+04  0.10515880382E+04  0.25500000000E-02 0.  1.
   -5000001    1    1    2    0    0 -0.17167255013E+03 -0.44659334364E+02 -0.14827136002E+03  0.34051478208E+03  0.25000000000E+03 0.  0.
    5000001    1    1    2    0    0  0.17167255013E+03  0.44659334364E+02 -0.77809235741E+03  0.83629757699E+03  0.25000000000E+03 0.  0.
<mgrwt>
<rscale>  0 0.72576690E+03</rscale>
<asrwt>0</asrwt>
<pdfrwt beam="1">  1        2 0.16178277E+00 0.72576690E+03</pdfrwt>
<pdfrwt beam="2">  1       -2 0.19265281E-01 0.72576690E+03</pdfrwt>
<totfact> 0.53585057E+02</totfact>
</mgrwt>
</event>
<event>
 4    1  0.1720876E-005  0.9497528E+03  0.7818608E-02  0.9365440E-01
          2   -1    0    0  501    0  0.00000000000E+00  0.00000000000E+00  0.14843479583E+04  0.14843479583E+04  0.25500000000E-02 0.  1.
         -2   -1    0    0    0  501 -0.00000000000E+00 -0.00000000000E+00 -0.15192366643E+03  0.15192366645E+03  0.25500000000E-02 0. -1.
   -5000001    1    1    2    0    0 -0.13479678166E+03  0.37908142523E+03  0.60817815404E+03  0.77087843811E+03  0.25000000000E+03 0.  0.
    5000001    1    1    2    0    0  0.13479678166E+03 -0.37908142523E+03  0.72424613779E+03  0.86539318659E+03  0.25000000000E+03 0.  0.
<mgrwt>
<rscale>  0 0.94975278E+03</rscale>
<asrwt>0</asrwt>
<pdfrwt beam="1">  1        2 0.22836122E+00 0.94975278E+03</pdfrwt>
<pdfrwt beam="2">  1       -2 0.23372872E-01 0.94975278E+03</pdfrwt>
<totfact> 0.20989792E+02</totfact>
</mgrwt>
</event>
<event>
 4    1  0.1720876E-005  0.5755797E+03  0.7818608E-02  0.9957407E-01
          2   -1    0    0  501    0  0.00000000000E+00  0.00000000000E+00  0.81887819641E+02  0.81887819680E+02  0.25500000000E-02 0.  1.
         -2   -1    0    0    0  501 -0.00000000000E+00 -0.00000000000E+00 -0.10114200822E+04  0.10114200822E+04  0.25500000000E-02 0. -1.
   -5000001    1    1    2    0    0 -0.11701650602E+03 -0.98971691736E+01 -0.31124585408E+03  0.41613074667E+03  0.25000000000E+03 0.  0.
    5000001    1    1    2    0    0  0.11701650602E+03  0.98971691736E+01 -0.61828640847E+03  0.67717715521E+03  0.25000000000E+03 0.  0.
<mgrwt>
<rscale>  0 0.57557966E+03</rscale>
<asrwt>0</asrwt>
<pdfrwt beam="1">  1        2 0.12598127E-01 0.57557966E+03</pdfrwt>
<pdfrwt beam="2">  1       -2 0.15560308E+00 0.57557966E+03</pdfrwt>
<totfact> 0.13744971E+02</totfact>
</mgrwt>
</event>
<event>
 4    1  0.1720876E-005  0.5751832E+03  0.7818608E-02  0.9958274E-01
         -2   -1    0    0    0  501 -0.00000000000E+00  0.00000000000E+00  0.68448374358E+02  0.68448374406E+02  0.25500000000E-02 0. -1.
          2   -1    0    0  501    0  0.00000000000E+00 -0.00000000000E+00 -0.12083401982E+04  0.12083401982E+04  0.25500000000E-02 0.  1.
   -5000001    1    1    2    0    0  0.13518361665E+02 -0.13987158564E+03 -0.52222725948E+03  0.59579200827E+03  0.25000000000E+03 0.  0.
    5000001    1    1    2    0    0 -0.13518361665E+02  0.13987158564E+03 -0.61766456435E+03  0.68099656432E+03  0.25000000000E+03 0.  0.
<mgrwt>
<rscale>  0 0.57518318E+03</rscale>
<asrwt>0</asrwt>
<pdfrwt beam="1">  1        2 0.18589848E+00 0.57518318E+03</pdfrwt>
<pdfrwt beam="2">  1       -2 0.10530520E-01 0.57518318E+03</pdfrwt>
<totfact> 0.11956176E+03</totfact>
</mgrwt>
</event>
<event>
 4    1  0.1720876E-005  0.7693509E+03  0.7818608E-02  0.9605472E-01
          2   -1    0    0  501    0  0.00000000000E+00  0.00000000000E+00  0.51531704846E+03  0.51531704847E+03  0.25500000000E-02 0.  1.
         -2   -1    0    0    0  501 -0.00000000000E+00 -0.00000000000E+00 -0.28715367518E+03  0.28715367519E+03  0.25500000000E-02 0. -1.
   -5000001    1    1    2    0    0  0.82923561072E+02 -0.24244596081E+03 -0.32758081867E+02  0.35948498275E+03  0.25000000000E+03 0.  0.
    5000001    1    1    2    0    0 -0.82923561072E+02  0.24244596081E+03  0.26092145515E+03  0.44298574091E+03  0.25000000000E+03 0.  0.
<mgrwt>
<rscale>  0 0.76935085E+03</rscale>
<asrwt>0</asrwt>
<pdfrwt beam="1">  1        2 0.79279545E-01 0.76935085E+03</pdfrwt>
<pdfrwt beam="2">  1       -2 0.44177489E-01 0.76935085E+03</pdfrwt>
<totfact> 0.29097698E+02</totfact>
</mgrwt>
</event>
<event>
 4    1  0.1720876E-005  0.9537280E+03  0.7818608E-02  0.9360804E-01
         -2   -1    0    0    0  501 -0.00000000000E+00  0.00000000000E+00  0.17407697663E+03  0.17407697665E+03  0.25500000000E-02 0. -1.
          2   -1    0    0  501    0  0.00000000000E+00 -0.00000000000E+00 -0.13063144392E+04  0.13063144392E+04  0.25500000000E-02 0.  1.
   -5000001    1    1    2    0    0  0.33492679657E+03  0.22960366735E+03 -0.56249006468E+03  0.73742042011E+03  0.25000000000E+03 0.  0.
    5000001    1    1    2    0    0 -0.33492679657E+03 -0.22960366735E+03 -0.56974739793E+03  0.74297099578E+03  0.25000000000E+03 0.  0.
<mgrwt>
<rscale>  0 0.95372799E+03</rscale>
<asrwt>0</asrwt>
<pdfrwt beam="1">  1        2 0.20097145E+00 0.95372799E+03</pdfrwt>
<pdfrwt beam="2">  1       -2 0.26781074E-01 0.95372799E+03</pdfrwt>
<totfact> 0.20721677E+02</totfact>
</mgrwt>
</event>
<event>
 4    1  0.1720876E-005  0.8617088E+03  0.7818608E-02  0.9474755E-01
          2   -1    0    0  501    0  0.00000000000E+00  0.00000000000E+00  0.22008491520E+04  0.22008491520E+04  0.25500000000E-02 0.  1.
         -2   -1    0    0    0  501 -0.00000000000E+00 -0.00000000000E+00 -0.84347230064E+02  0.84347230102E+02  0.25500000000E-02 0. -1.
   -5000001    1    1    2    0    0  0.24690573757E+03 -0.22832416078E+03  0.13239897888E+04  0.13887200318E+04  0.25000000000E+03 0.  0.
    5000001    1    1    2    0    0 -0.24690573757E+03  0.22832416078E+03  0.79251213314E+03  0.89647635039E+03  0.25000000000E+03 0.  0.
<mgrwt>
<rscale>  0 0.86170884E+03</rscale>
<asrwt>0</asrwt>
<pdfrwt beam="1">  1        2 0.33859216E+00 0.86170884E+03</pdfrwt>
<pdfrwt beam="2">  1       -2 0.12976497E-01 0.86170884E+03</pdfrwt>
<totfact> 0.23497859E+02</totfact>
</mgrwt>
</event>
<event>
 4    1  0.1720876E-005  0.8378748E+03  0.7818608E-02  0.9506757E-01
          2   -1    0    0  501    0  0.00000000000E+00  0.00000000000E+00  0.23633083189E+04  0.23633083189E+04  0.25500000000E-02 0.  1.
         -2   -1    0    0    0  501 -0.00000000000E+00 -0.00000000000E+00 -0.74263927729E+02  0.74263927772E+02  0.25500000000E-02 0. -1.
   -5000001    1    1    2    0    0  0.62869207096E+02 -0.32398486018E+03  0.95847160395E+03  0.10440720964E+04  0.25000000000E+03 0.  0.
    5000001    1    1    2    0    0 -0.62869207096E+02  0.32398486018E+03  0.13305727873E+04  0.13935001504E+04  0.25000000000E+03 0.  0.
<mgrwt>
<rscale>  0 0.83787483E+03</rscale>
<asrwt>0</asrwt>
<pdfrwt beam="1">  1        2 0.36358590E+00 0.83787483E+03</pdfrwt>
<pdfrwt beam="2">  1       -2 0.11425219E-01 0.83787483E+03</pdfrwt>
<totfact> 0.23615086E+02</totfact>
</mgrwt>
</event>
<event>
 4    1  0.1720876E-005  0.8064268E+03  0.7818608E-02  0.9550761E-01
          2   -1    0    0  501    0  0.00000000000E+00  0.00000000000E+00  0.11275465831E+04  0.11275465831E+04  0.25500000000E-02 0.  1.
         -2   -1    0    0    0  501 -0.00000000000E+00 -0.00000000000E+00 -0.14419010672E+03  0.14419010674E+03  0.25500000000E-02 0. -1.
   -5000001    1    1    2    0    0  0.19354833548E+03  0.11270519220E+03  0.84401606009E+03  0.90830970941E+03  0.25000000000E+03 0.  0.
    5000001    1    1    2    0    0 -0.19354833548E+03 -0.11270519220E+03  0.13934041633E+03  0.36342698048E+03  0.25000000000E+03 0.  0.
<mgrwt>
<rscale>  0 0.80642684E+03</rscale>
<asrwt>0</asrwt>
<pdfrwt beam="1">  1        2 0.17346869E+00 0.80642684E+03</pdfrwt>
<pdfrwt beam="2">  1       -2 0.22183095E-01 0.80642684E+03</pdfrwt>
<totfact> 0.37419955E+02</totfact>
</mgrwt>
</event>
<event>
 4    1  0.1720876E-005  0.5837408E+03  0.7818608E-02  0.9939725E-01
         -2   -1    0    0    0  501 -0.00000000000E+00  0.00000000000E+00  0.54430207519E+02  0.54430207578E+02  0.25500000000E-02 0. -1.
          2   -1    0    0  501    0  0.00000000000E+00 -0.00000000000E+00 -0.15650927677E+04  0.15650927677E+04  0.25500000000E-02 0.  1.
   -5000001    1    1    2    0    0 -0.88733614780E+01  0.90106329879E+02 -0.42136099969E+03  0.49823988127E+03  0.25000000000E+03 0.  0.
    5000001    1    1    2    0    0  0.88733614780E+01 -0.90106329879E+02 -0.10893015605E+04  0.11212830941E+04  0.25000000000E+03 0.  0.
<mgrwt>
<rscale>  0 0.58374078E+03</rscale>
<asrwt>0</asrwt>
<pdfrwt beam="1">  1        2 0.24078347E+00 0.58374078E+03</pdfrwt>
<pdfrwt beam="2">  1       -2 0.83738793E-02 0.58374078E+03</pdfrwt>
<totfact> 0.10890502E+03</totfact>
</mgrwt>
</event>
<event>
 4    1  0.1720876E-005  0.1215669E+04  0.7818608E-02  0.9099251E-01
          2   -1    0    0  501    0  0.00000000000E+00  0.00000000000E+00  0.63250328195E+03  0.63250328195E+03  0.25500000000E-02 0.  1.
         -2   -1    0    0    0  501 -0.00000000000E+00 -0.00000000000E+00 -0.58412748759E+03  0.58412748760E+03  0.25500000000E-02 0. -1.
   -5000001    1    1    2    0    0  0.26386254969E+03  0.43443650322E+03 -0.19644981126E+03  0.59954236614E+03  0.25000000000E+03 0.  0.
    5000001    1    1    2    0    0 -0.26386254969E+03 -0.43443650322E+03  0.24482560562E+03  0.61708840341E+03  0.25000000000E+03 0.  0.
<mgrwt>
<rscale>  0 0.12156686E+04</rscale>
<asrwt>0</asrwt>
<pdfrwt beam="1">  1        2 0.97308197E-01 0.12156686E+04</pdfrwt>
<pdfrwt beam="2">  1       -2 0.89865768E-01 0.12156686E+04</pdfrwt>
<totfact> 0.48631871E+01</totfact>
</mgrwt>
</event>
<event>
 4    1  0.1720876E-005  0.1273187E+04  0.7818608E-02  0.9051103E-01
          2   -1    0    0  501    0  0.00000000000E+00  0.00000000000E+00  0.19442380654E+04  0.19442380654E+04  0.25500000000E-02 0.  1.
         -2   -1    0    0    0  501 -0.00000000000E+00 -0.00000000000E+00 -0.20843699480E+03  0.20843699482E+03  0.25500000000E-02 0. -1.
   -5000001    1    1    2    0    0 -0.45895938790E+03 -0.34871250916E+03  0.10412114229E+04  0.12160860829E+04  0.25000000000E+03 0.  0.
    5000001    1    1    2    0    0  0.45895938790E+03  0.34871250916E+03  0.69458964767E+03  0.93658897732E+03  0.25000000000E+03 0.  0.
<mgrwt>
<rscale>  0 0.12731868E+04</rscale>
<asrwt>0</asrwt>
<pdfrwt beam="1">  1        2 0.29911354E+00 0.12731868E+04</pdfrwt>
<pdfrwt beam="2">  1       -2 0.32067231E-01 0.12731868E+04</pdfrwt>
<totfact> 0.63800457E+01</totfact>
</mgrwt>
</event>
<event>
 4    1  0.1720876E-005  0.1033753E+04  0.7818608E-02  0.9272280E-01
         -2   -1    0    0    0  501 -0.00000000000E+00  0.00000000000E+00  0.15724942043E+03  0.15724942045E+03  0.25500000000E-02 0. -1.
          2   -1    0    0  501    0  0.00000000000E+00 -0.00000000000E+00 -0.16989665074E+04  0.16989665074E+04  0.25500000000E-02 0.  1.
   -5000001    1    1    2    0    0  0.37685887140E+03  0.24666293687E+03 -0.84696109508E+03  0.99131645298E+03  0.25000000000E+03 0.  0.
    5000001    1    1    2    0    0 -0.37685887140E+03 -0.24666293687E+03 -0.69475599192E+03  0.86489947490E+03  0.25000000000E+03 0.  0.
<mgrwt>
<rscale>  0 0.10337534E+04</rscale>
<asrwt>0</asrwt>
<pdfrwt beam="1">  1        2 0.26137945E+00 0.10337534E+04</pdfrwt>
<pdfrwt beam="2">  1       -2 0.24192220E-01 0.10337534E+04</pdfrwt>
<totfact> 0.14903561E+02</totfact>
</mgrwt>
</event>
<event>
 4    1  0.1720876E-005  0.9566387E+03  0.7818608E-02  0.9357424E-01
         -2   -1    0    0    0  501 -0.00000000000E+00  0.00000000000E+00  0.11044520348E+03  0.11044520351E+03  0.25500000000E-02 0. -1.
          2   -1    0    0  501    0  0.00000000000E+00 -0.00000000000E+00 -0.20715194602E+04  0.20715194602E+04  0.25500000000E-02 0.  1.
   -5000001    1    1    2    0    0 -0.36612912220E+03  0.82750187867E+02 -0.13439848163E+04  0.14176365240E+04  0.25000000000E+03 0.  0.
    5000001    1    1    2    0    0  0.36612912220E+03 -0.82750187867E+02 -0.61708944047E+03  0.76432813978E+03  0.25000000000E+03 0.  0.
<mgrwt>
<rscale>  0 0.95663867E+03</rscale>
<asrwt>0</asrwt>
<pdfrwt beam="1">  1        2 0.31869527E+00 0.95663867E+03</pdfrwt>
<pdfrwt beam="2">  1       -2 0.16991571E-01 0.95663867E+03</pdfrwt>
<totfact> 0.17410444E+02</totfact>
</mgrwt>
</event>
<event>
 4    1  0.1720876E-005  0.8395661E+03  0.7818608E-02  0.9504449E-01
          2   -1    0    0  501    0  0.00000000000E+00  0.00000000000E+00  0.12651913714E+04  0.12651913714E+04  0.25500000000E-02 0.  1.
         -2   -1    0    0    0  501 -0.00000000000E+00 -0.00000000000E+00 -0.13928155422E+03  0.13928155425E+03  0.25500000000E-02 0. -1.
   -5000001    1    1    2    0    0  0.16283899449E+03 -0.16152085136E+03  0.14940991543E+03  0.37071396842E+03  0.25000000000E+03 0.  0.
    5000001    1    1    2    0    0 -0.16283899449E+03  0.16152085136E+03  0.97649990173E+03  0.10337589572E+04  0.25000000000E+03 0.  0.
<mgrwt>
<rscale>  0 0.83956613E+03</rscale>
<asrwt>0</asrwt>
<pdfrwt beam="1">  1        2 0.19464483E+00 0.83956613E+03</pdfrwt>
<pdfrwt beam="2">  1       -2 0.21427931E-01 0.83956613E+03</pdfrwt>
<totfact> 0.32900327E+02</totfact>
</mgrwt>
</event>
<event>
 4    1  0.1720876E-005  0.7935647E+03  0.7818608E-02  0.9569379E-01
         -2   -1    0    0    0  501 -0.00000000000E+00  0.00000000000E+00  0.93424249577E+02  0.93424249612E+02  0.25500000000E-02 0. -1.
          2   -1    0    0  501    0  0.00000000000E+00 -0.00000000000E+00 -0.16851754127E+04  0.16851754127E+04  0.25500000000E-02 0.  1.
   -5000001    1    1    2    0    0 -0.26007464184E+03  0.12684566236E+03 -0.10331507500E+04  0.11016483620E+04  0.25000000000E+03 0.  0.
    5000001    1    1    2    0    0  0.26007464184E+03 -0.12684566236E+03 -0.55860041315E+03  0.67695130029E+03  0.25000000000E+03 0.  0.
<mgrwt>
<rscale>  0 0.79356474E+03</rscale>
<asrwt>0</asrwt>
<pdfrwt beam="1">  1        2 0.25925773E+00 0.79356474E+03</pdfrwt>
<pdfrwt beam="2">  1       -2 0.14372963E-01 0.79356474E+03</pdfrwt>
<totfact> 0.38142218E+02</totfact>
</mgrwt>
</event>
<event>
 4    1  0.1720876E-005  0.6313082E+03  0.7818608E-02  0.9842499E-01
         -2   -1    0    0    0  501 -0.00000000000E+00  0.00000000000E+00  0.16385596173E+03  0.16385596175E+03  0.25500000000E-02 0. -1.
          2   -1    0    0  501    0  0.00000000000E+00 -0.00000000000E+00 -0.60807986949E+03  0.60807986950E+03  0.25500000000E-02 0.  1.
   -5000001    1    1    2    0    0 -0.13787743906E+03 -0.59271601173E+02 -0.74293959723E+02  0.30090347847E+03  0.25000000000E+03 0.  0.
    5000001    1    1    2    0    0  0.13787743906E+03  0.59271601173E+02 -0.36992994804E+03  0.47103235278E+03  0.25000000000E+03 0.  0.
<mgrwt>
<rscale>  0 0.63130820E+03</rscale>
<asrwt>0</asrwt>
<pdfrwt beam="1">  1        2 0.93550748E-01 0.63130820E+03</pdfrwt>
<pdfrwt beam="2">  1       -2 0.25208610E-01 0.63130820E+03</pdfrwt>
<totfact> 0.69275793E+02</totfact>
</mgrwt>
</event>
<event>
 4    1  0.1720876E-005  0.5686930E+03  0.7818608E-02  0.9972575E-01
         -2   -1    0    0    0  501 -0.00000000000E+00  0.00000000000E+00  0.11570057255E+03  0.11570057258E+03  0.25500000000E-02 0. -1.
          2   -1    0    0  501    0  0.00000000000E+00 -0.00000000000E+00 -0.69881187077E+03  0.69881187077E+03  0.25500000000E-02 0.  1.
   -5000001    1    1    2    0    0 -0.98869063715E+02 -0.79733321611E+02 -0.22406567171E+03  0.35893999439E+03  0.25000000000E+03 0.  0.
    5000001    1    1    2    0    0  0.98869063715E+02  0.79733321611E+02 -0.35904562651E+03  0.45557244896E+03  0.25000000000E+03 0.  0.
<mgrwt>
<rscale>  0 0.56869301E+03</rscale>
<asrwt>0</asrwt>
<pdfrwt beam="1">  1        2 0.10750952E+00 0.56869301E+03</pdfrwt>
<pdfrwt beam="2">  1       -2 0.17800089E-01 0.56869301E+03</pdfrwt>
<totfact> 0.10776463E+03</totfact>
</mgrwt>
</event>
<event>
 4    1  0.1720876E-005  0.1243432E+04  0.7818608E-02  0.9075668E-01
          2   -1    0    0  501    0  0.00000000000E+00  0.00000000000E+00  0.25468732017E+04  0.25468732017E+04  0.25500000000E-02 0.  1.
         -2   -1    0    0    0  501 -0.00000000000E+00 -0.00000000000E+00 -0.15176670022E+03  0.15176670024E+03  0.25500000000E-02 0. -1.
   -5000001    1    1    2    0    0 -0.31309578230E+03  0.47327653316E+03  0.11002297237E+04  0.12629430275E+04  0.25000000000E+03 0.  0.
    5000001    1    1    2    0    0  0.31309578230E+03 -0.47327653316E+03  0.12948767778E+04  0.14356968745E+04  0.25000000000E+03 0.  0.
<mgrwt>
<rscale>  0 0.12434316E+04</rscale>
<asrwt>0</asrwt>
<pdfrwt beam="1">  1        2 0.39182661E+00 0.12434316E+04</pdfrwt>
<pdfrwt beam="2">  1       -2 0.23348725E-01 0.12434316E+04</pdfrwt>
<totfact> 0.52535010E+01</totfact>
</mgrwt>
</event>
<event>
 4    1  0.1720876E-005  0.9126863E+03  0.7818608E-02  0.9409860E-01
          2   -1    0    0  501    0  0.00000000000E+00  0.00000000000E+00  0.10761596649E+04  0.10761596649E+04  0.25500000000E-02 0.  1.
         -2   -1    0    0    0  501 -0.00000000000E+00 -0.00000000000E+00 -0.19351129356E+03  0.19351129358E+03  0.25500000000E-02 0. -1.
   -5000001    1    1    2    0    0  0.23605663010E+03 -0.29555691695E+03  0.51323967591E+03  0.68482960559E+03  0.25000000000E+03 0.  0.
    5000001    1    1    2    0    0 -0.23605663010E+03  0.29555691695E+03  0.36940869541E+03  0.58484135286E+03  0.25000000000E+03 0.  0.
<mgrwt>
<rscale>  0 0.91268625E+03</rscale>
<asrwt>0</asrwt>
<pdfrwt beam="1">  1        2 0.16556302E+00 0.91268625E+03</pdfrwt>
<pdfrwt beam="2">  1       -2 0.29770969E-01 0.91268625E+03</pdfrwt>
<totfact> 0.23462541E+02</totfact>
</mgrwt>
</event>
<event>
 4    1  0.1720876E-005  0.6670152E+03  0.7818608E-02  0.9775365E-01
         -2   -1    0    0    0  501 -0.00000000000E+00  0.00000000000E+00  0.43639420797E+02  0.43639420871E+02  0.25500000000E-02 0. -1.
          2   -1    0    0  501    0  0.00000000000E+00 -0.00000000000E+00 -0.25487809546E+04  0.25487809546E+04  0.25500000000E-02 0.  1.
   -5000001    1    1    2    0    0  0.55460821312E+01  0.22053634619E+03 -0.12827478155E+04  0.13253712677E+04  0.25000000000E+03 0.  0.
    5000001    1    1    2    0    0 -0.55460821312E+01 -0.22053634619E+03 -0.12223937183E+04  0.12670491078E+04  0.25000000000E+03 0.  0.
<mgrwt>
<rscale>  0 0.66701522E+03</rscale>
<asrwt>0</asrwt>
<pdfrwt beam="1">  1        2 0.39212003E+00 0.66701522E+03</pdfrwt>
<pdfrwt beam="2">  1       -2 0.67137591E-02 0.66701522E+03</pdfrwt>
<totfact> 0.44414281E+02</totfact>
</mgrwt>
</event>
<event>
 4    1  0.1720876E-005  0.7862803E+03  0.7818608E-02  0.9580091E-01
          2   -1    0    0  501    0  0.00000000000E+00  0.00000000000E+00  0.29223614711E+04  0.29223614711E+04  0.25500000000E-02 0.  1.
         -2   -1    0    0    0  501 -0.00000000000E+00 -0.00000000000E+00 -0.52888451317E+02  0.52888451379E+02  0.25500000000E-02 0. -1.
   -5000001    1    1    2    0    0  0.29671964832E+03 -0.63370533101E+02  0.14313555830E+04  0.14843642340E+04  0.25000000000E+03 0.  0.
    5000001    1    1    2    0    0 -0.29671964832E+03  0.63370533101E+02  0.14381174367E+04  0.14908856884E+04  0.25000000000E+03 0.  0.
<mgrwt>
<rscale>  0 0.78628029E+03</rscale>
<asrwt>0</asrwt>
<pdfrwt beam="1">  1        2 0.44959404E+00 0.78628029E+03</pdfrwt>
<pdfrwt beam="2">  1       -2 0.81366854E-02 0.78628029E+03</pdfrwt>
<totfact> 0.19536594E+02</totfact>
</mgrwt>
</event>
<event>
 4    1  0.1720876E-005  0.5926296E+03  0.7818608E-02  0.9920816E-01
         -2   -1    0    0    0  501 -0.00000000000E+00  0.00000000000E+00  0.50217630614E+02  0.50217630678E+02  0.25500000000E-02 0. -1.
          2   -1    0    0  501    0  0.00000000000E+00 -0.00000000000E+00 -0.17484389188E+04  0.17484389188E+04  0.25500000000E-02 0.  1.
   -5000001    1    1    2    0    0 -0.52515838578E+02 -0.14832240160E+03 -0.77825608081E+03  0.83243016250E+03  0.25000000000E+03 0.  0.
    5000001    1    1    2    0    0  0.52515838578E+02  0.14832240160E+03 -0.91996520736E+03  0.96622638697E+03  0.25000000000E+03 0.  0.
<mgrwt>
<rscale>  0 0.59262960E+03</rscale>
<asrwt>0</asrwt>
<pdfrwt beam="1">  1        2 0.26899056E+00 0.59262960E+03</pdfrwt>
<pdfrwt beam="2">  1       -2 0.77257907E-02 0.59262960E+03</pdfrwt>
<totfact> 0.98359355E+02</totfact>
</mgrwt>
</event>
<event>
 4    1  0.1720876E-005  0.6988926E+03  0.7818608E-02  0.9719128E-01
          2   -1    0    0  501    0  0.00000000000E+00  0.00000000000E+00  0.11599138453E+03  0.11599138456E+03  0.25500000000E-02 0.  1.
         -2   -1    0    0    0  501 -0.00000000000E+00 -0.00000000000E+00 -0.10527739502E+04  0.10527739502E+04  0.25500000000E-02 0. -1.
   -5000001    1    1    2    0    0  0.20149239443E+03 -0.98822236943E+02 -0.62920885189E+03  0.71328030873E+03  0.25000000000E+03 0.  0.
    5000001    1    1    2    0    0 -0.20149239443E+03  0.98822236943E+02 -0.30757371377E+03  0.45548502602E+03  0.25000000000E+03 0.  0.
<mgrwt>
<rscale>  0 0.69889258E+03</rscale>
<asrwt>0</asrwt>
<pdfrwt beam="1">  1        2 0.17844829E-01 0.69889258E+03</pdfrwt>
<pdfrwt beam="2">  1       -2 0.16196522E+00 0.69889258E+03</pdfrwt>
<totfact> 0.80394315E+01</totfact>
</mgrwt>
</event>
<event>
 4    1  0.1720876E-005  0.5495033E+03  0.7818608E-02  0.1001609E+00
         -2   -1    0    0    0  501 -0.00000000000E+00  0.00000000000E+00  0.31802742318E+02  0.31802742420E+02  0.25500000000E-02 0. -1.
          2   -1    0    0  501    0  0.00000000000E+00 -0.00000000000E+00 -0.23736468452E+04  0.23736468452E+04  0.25500000000E-02 0.  1.
   -5000001    1    1    2    0    0 -0.74945085798E+02 -0.81252970474E+02 -0.10494776101E+04  0.10844916161E+04  0.25000000000E+03 0.  0.
    5000001    1    1    2    0    0  0.74945085798E+02  0.81252970474E+02 -0.12923664927E+04  0.13209579715E+04  0.25000000000E+03 0.  0.
<mgrwt>
<rscale>  0 0.54950334E+03</rscale>
<asrwt>0</asrwt>
<pdfrwt beam="1">  1        2 0.36517630E+00 0.54950334E+03</pdfrwt>
<pdfrwt beam="2">  1       -2 0.48927315E-02 0.54950334E+03</pdfrwt>
<totfact> 0.92257326E+02</totfact>
</mgrwt>
</event>
<event>
 4    1  0.1720876E-005  0.7998260E+03  0.7818608E-02  0.9560269E-01
         -2   -1    0    0    0  501 -0.00000000000E+00  0.00000000000E+00  0.12030037740E+03  0.12030037743E+03  0.25500000000E-02 0. -1.
          2   -1    0    0  501    0  0.00000000000E+00 -0.00000000000E+00 -0.13294257615E+04  0.13294257615E+04  0.25500000000E-02 0.  1.
   -5000001    1    1    2    0    0  0.19662833797E+03  0.12593527071E+03 -0.98001925220E+03  0.10380077699E+04  0.25000000000E+03 0.  0.
    5000001    1    1    2    0    0 -0.19662833797E+03 -0.12593527071E+03 -0.22910613185E+03  0.41171836898E+03  0.25000000000E+03 0.  0.
<mgrwt>
<rscale>  0 0.79982603E+03</rscale>
<asrwt>0</asrwt>
<pdfrwt beam="1">  1        2 0.20452703E+00 0.79982603E+03</pdfrwt>
<pdfrwt beam="2">  1       -2 0.18507751E-01 0.79982603E+03</pdfrwt>
<totfact> 0.39118612E+02</totfact>
</mgrwt>
</event>
<event>
 4    1  0.1720876E-005  0.5790295E+03  0.7818608E-02  0.9949894E-01
         -2   -1    0    0    0  501 -0.00000000000E+00  0.00000000000E+00  0.52633106377E+02  0.52633106439E+02  0.25500000000E-02 0. -1.
          2   -1    0    0  501    0  0.00000000000E+00 -0.00000000000E+00 -0.15925107908E+04  0.15925107908E+04  0.25500000000E-02 0.  1.
   -5000001    1    1    2    0    0 -0.82161286118E+02  0.98445988331E+02 -0.57152761761E+03  0.63685626891E+03  0.25000000000E+03 0.  0.
    5000001    1    1    2    0    0  0.82161286118E+02 -0.98445988331E+02 -0.96835006680E+03  0.10082876283E+04  0.25000000000E+03 0.  0.
<mgrwt>
<rscale>  0 0.57902950E+03</rscale>
<asrwt>0</asrwt>
<pdfrwt beam="1">  1        2 0.24500162E+00 0.57902950E+03</pdfrwt>
<pdfrwt beam="2">  1       -2 0.80974022E-02 0.57902950E+03</pdfrwt>
<totfact> 0.11102475E+03</totfact>
</mgrwt>
</event>
<event>
 4    1  0.1720876E-005  0.9339987E+03  0.7818608E-02  0.9384052E-01
         -2   -1    0    0    0  501 -0.00000000000E+00  0.00000000000E+00  0.24035565431E+03  0.24035565432E+03  0.25500000000E-02 0. -1.
          2   -1    0    0  501    0  0.00000000000E+00 -0.00000000000E+00 -0.90735708474E+03  0.90735708474E+03  0.25500000000E-02 0.  1.
   -5000001    1    1    2    0    0  0.38592614033E+03  0.92189447772E+01 -0.43306084724E+03  0.63171644917E+03  0.25000000000E+03 0.  0.
    5000001    1    1    2    0    0 -0.38592614033E+03 -0.92189447772E+01 -0.23394058318E+03  0.51599628990E+03  0.25000000000E+03 0.  0.
<mgrwt>
<rscale>  0 0.93399873E+03</rscale>
<asrwt>0</asrwt>
<pdfrwt beam="1">  1        2 0.13959340E+00 0.93399873E+03</pdfrwt>
<pdfrwt beam="2">  1       -2 0.36977793E-01 0.93399873E+03</pdfrwt>
<totfact> 0.19985510E+02</totfact>
</mgrwt>
</event>
<event>
 4    1  0.1720876E-005  0.6957755E+03  0.7818608E-02  0.9724484E-01
          2   -1    0    0  501    0  0.00000000000E+00  0.00000000000E+00  0.19865856016E+04  0.19865856016E+04  0.25500000000E-02 0.  1.
         -2   -1    0    0    0  501 -0.00000000000E+00 -0.00000000000E+00 -0.60921555497E+02  0.60921555550E+02  0.25500000000E-02 0. -1.
   -5000001    1    1    2    0    0 -0.48181478923E+01 -0.17753958349E+03  0.14462205296E+04  0.14783765888E+04  0.25000000000E+03 0.  0.
    5000001    1    1    2    0    0  0.48181478923E+01  0.17753958349E+03  0.47944351655E+03  0.56913056834E+03  0.25000000000E+03 0.  0.
<mgrwt>
<rscale>  0 0.69577550E+03</rscale>
<asrwt>0</asrwt>
<pdfrwt beam="1">  1        2 0.30562856E+00 0.69577550E+03</pdfrwt>
<pdfrwt beam="2">  1       -2 0.93725467E-02 0.69577550E+03</pdfrwt>
<totfact> 0.53236129E+02</totfact>
</mgrwt>
</event>
<event>
 4    1  0.1720876E-005  0.1261291E+04  0.7818608E-02  0.9060838E-01
         -2   -1    0    0    0  501 -0.00000000000E+00  0.00000000000E+00  0.43041945717E+03  0.43041945718E+03  0.25500000000E-02 0. -1.
          2   -1    0    0  501    0  0.00000000000E+00 -0.00000000000E+00 -0.92401458836E+03  0.92401458837E+03  0.25500000000E-02 0.  1.
   -5000001    1    1    2    0    0  0.44062966126E+03  0.19506437537E+03  0.97854284495E+02  0.55161587170E+03  0.25000000000E+03 0.  0.
    5000001    1    1    2    0    0 -0.44062966126E+03 -0.19506437537E+03 -0.59144941569E+03  0.80281817384E+03  0.25000000000E+03 0.  0.
<mgrwt>
<rscale>  0 0.12612912E+04</rscale>
<asrwt>0</asrwt>
<pdfrwt beam="1">  1        2 0.14215609E+00 0.12612912E+04</pdfrwt>
<pdfrwt beam="2">  1       -2 0.66218378E-01 0.12612912E+04</pdfrwt>
<totfact> 0.58247776E+01</totfact>
</mgrwt>
</event>
<event>
 4    1  0.1720876E-005  0.7261581E+03  0.7818608E-02  0.9673515E-01
          2   -1    0    0  501    0  0.00000000000E+00  0.00000000000E+00  0.24633352933E+04  0.24633352933E+04  0.25500000000E-02 0.  1.
         -2   -1    0    0    0  501 -0.00000000000E+00 -0.00000000000E+00 -0.53515409555E+02  0.53515409616E+02  0.25500000000E-02 0. -1.
   -5000001    1    1    2    0    0  0.20809270555E+03 -0.15838084321E+03  0.13111371398E+04  0.13601351642E+04  0.25000000000E+03 0.  0.
    5000001    1    1    2    0    0 -0.20809270555E+03  0.15838084321E+03  0.10986827439E+04  0.11567155387E+04  0.25000000000E+03 0.  0.
<mgrwt>
<rscale>  0 0.72615810E+03</rscale>
<asrwt>0</asrwt>
<pdfrwt beam="1">  1        2 0.37897463E+00 0.72615810E+03</pdfrwt>
<pdfrwt beam="2">  1       -2 0.82331406E-02 0.72615810E+03</pdfrwt>
<totfact> 0.35688809E+02</totfact>
</mgrwt>
</event>
<event>
 4    1  0.1720876E-005  0.7214511E+03  0.7818608E-02  0.9681235E-01
          2   -1    0    0  501    0  0.00000000000E+00  0.00000000000E+00  0.14981983637E+04  0.14981983637E+04  0.25500000000E-02 0.  1.
         -2   -1    0    0    0  501 -0.00000000000E+00 -0.00000000000E+00 -0.86852937705E+02  0.86852937743E+02  0.25500000000E-02 0. -1.
   -5000001    1    1    2    0    0  0.18519626452E+03 -0.86342267176E+02  0.35229673436E+03  0.47787616862E+03  0.25000000000E+03 0.  0.
    5000001    1    1    2    0    0 -0.18519626452E+03  0.86342267176E+02  0.10590486917E+04  0.11071751329E+04  0.25000000000E+03 0.  0.
<mgrwt>
<rscale>  0 0.72145112E+03</rscale>
<asrwt>0</asrwt>
<pdfrwt beam="1">  1        2 0.23049203E+00 0.72145112E+03</pdfrwt>
<pdfrwt beam="2">  1       -2 0.13361992E-01 0.72145112E+03</pdfrwt>
<totfact> 0.54903301E+02</totfact>
</mgrwt>
</event>
<event>
 4    1  0.1720876E-005  0.5205530E+03  0.7818608E-02  0.1008549E+00
          2   -1    0    0  501    0  0.00000000000E+00  0.00000000000E+00  0.14852011751E+03  0.14852011753E+03  0.25500000000E-02 0.  1.
         -2   -1    0    0    0  501 -0.00000000000E+00 -0.00000000000E+00 -0.45612571305E+03  0.45612571306E+03  0.25500000000E-02 0. -1.
   -5000001    1    1    2    0    0  0.39695420331E+02  0.26195050698E+02 -0.21723143936E+03  0.33459140055E+03  0.25000000000E+03 0.  0.
    5000001    1    1    2    0    0 -0.39695420331E+02 -0.26195050698E+02 -0.90374156183E+02  0.27005443004E+03  0.25000000000E+03 0.  0.
<mgrwt>
<rscale>  0 0.52055295E+03</rscale>
<asrwt>0</asrwt>
<pdfrwt beam="1">  1        2 0.22849249E-01 0.52055295E+03</pdfrwt>
<pdfrwt beam="2">  1       -2 0.70173186E-01 0.52055295E+03</pdfrwt>
<totfact> 0.45374209E+02</totfact>
</mgrwt>
</event>
<event>
 4    1  0.1720876E-005  0.8701764E+03  0.7818608E-02  0.9463650E-01
         -2   -1    0    0    0  501 -0.00000000000E+00  0.00000000000E+00  0.67617323217E+03  0.67617323217E+03  0.25500000000E-02 0. -1.
          2   -1    0    0  501    0  0.00000000000E+00 -0.00000000000E+00 -0.27996043933E+03  0.27996043934E+03  0.25500000000E-02 0.  1.
   -5000001    1    1    2    0    0 -0.31145967461E+03 -0.14001979154E+03  0.30901848223E+03  0.52402776003E+03  0.25000000000E+03 0.  0.
    5000001    1    1    2    0    0  0.31145967461E+03  0.14001979154E+03  0.87194310614E+02  0.43210591147E+03  0.25000000000E+03 0.  0.
<mgrwt>
<rscale>  0 0.87017643E+03</rscale>
<asrwt>0</asrwt>
<pdfrwt beam="1">  1        2 0.43070837E-01 0.87017643E+03</pdfrwt>
<pdfrwt beam="2">  1       -2 0.10402665E+00 0.87017643E+03</pdfrwt>
<totfact> 0.89550899E+01</totfact>
</mgrwt>
</event>
<event>
 4    1  0.1720876E-005  0.6098282E+03  0.7818608E-02  0.9885223E-01
          2   -1    0    0  501    0  0.00000000000E+00  0.00000000000E+00  0.90684822934E+03  0.90684822935E+03  0.25500000000E-02 0.  1.
         -2   -1    0    0    0  501 -0.00000000000E+00 -0.00000000000E+00 -0.10252279461E+03  0.10252279464E+03  0.25500000000E-02 0. -1.
   -5000001    1    1    2    0    0  0.41858785667E+02  0.14936899720E+03  0.26965211405E+03  0.39909336987E+03  0.25000000000E+03 0.  0.
    5000001    1    1    2    0    0 -0.41858785667E+02 -0.14936899720E+03  0.53467332069E+03  0.61027765412E+03  0.25000000000E+03 0.  0.
<mgrwt>
<rscale>  0 0.60982822E+03</rscale>
<asrwt>0</asrwt>
<pdfrwt beam="1">  1        2 0.13951511E+00 0.60982822E+03</pdfrwt>
<pdfrwt beam="2">  1       -2 0.15772738E-01 0.60982822E+03</pdfrwt>
<totfact> 0.93950135E+02</totfact>
</mgrwt>
</event>
<event>
 4    1  0.1720876E-005  0.7920985E+03  0.7818608E-02  0.9571525E-01
         -2   -1    0    0    0  501 -0.00000000000E+00  0.00000000000E+00  0.44619725946E+02  0.44619726019E+02  0.25500000000E-02 0. -1.
          2   -1    0    0  501    0  0.00000000000E+00 -0.00000000000E+00 -0.35153732512E+04  0.35153732512E+04  0.25500000000E-02 0.  1.
   -5000001    1    1    2    0    0 -0.22846480376E+03  0.11623412059E+03 -0.24960892901E+04  0.25216399984E+04  0.25000000000E+03 0.  0.
    5000001    1    1    2    0    0  0.22846480376E+03 -0.11623412059E+03 -0.97466423515E+03  0.10383529788E+04  0.25000000000E+03 0.  0.
<mgrwt>
<rscale>  0 0.79209846E+03</rscale>
<asrwt>0</asrwt>
<pdfrwt beam="1">  1        2 0.54082643E+00 0.79209846E+03</pdfrwt>
<pdfrwt beam="2">  1       -2 0.68645760E-02 0.79209846E+03</pdfrwt>
<totfact> 0.10662187E+02</totfact>
</mgrwt>
</event>
<event>
 4    1  0.1720876E-005  0.7845303E+03  0.7818608E-02  0.9582683E-01
          2   -1    0    0  501    0  0.00000000000E+00  0.00000000000E+00  0.75879749341E+03  0.75879749341E+03  0.25500000000E-02 0. -1.
         -2   -1    0    0    0  501 -0.00000000000E+00 -0.00000000000E+00 -0.20278394823E+03  0.20278394825E+03  0.25500000000E-02 0.  1.
   -5000001    1    1    2    0    0 -0.12353415182E+03  0.14559827220E+03  0.56522473103E+03  0.64686825560E+03  0.25000000000E+03 0.  0.
    5000001    1    1    2    0    0  0.12353415182E+03 -0.14559827220E+03 -0.92111858505E+01  0.31471318606E+03  0.25000000000E+03 0.  0.
<mgrwt>
<rscale>  0 0.78453031E+03</rscale>
<asrwt>0</asrwt>
<pdfrwt beam="1">  1        2 0.11673808E+00 0.78453031E+03</pdfrwt>
<pdfrwt beam="2">  1       -2 0.31197530E-01 0.78453031E+03</pdfrwt>
<totfact> 0.35367269E+02</totfact>
</mgrwt>
</event>
<event>
 4    1  0.1720876E-005  0.7321989E+03  0.7818608E-02  0.9663699E-01
          2   -1    0    0  501    0  0.00000000000E+00  0.00000000000E+00  0.14992770667E+04  0.14992770667E+04  0.25500000000E-02 0.  1.
         -2   -1    0    0    0  501 -0.00000000000E+00 -0.00000000000E+00 -0.89395626211E+02  0.89395626247E+02  0.25500000000E-02 0. -1.
   -5000001    1    1    2    0    0  0.18565227859E+03 -0.17385118277E+03  0.88435783333E+03  0.95356162867E+03  0.25000000000E+03 0.  0.
    5000001    1    1    2    0    0 -0.18565227859E+03  0.17385118277E+03  0.52552360720E+03  0.63511106432E+03  0.25000000000E+03 0.  0.
<mgrwt>
<rscale>  0 0.73219891E+03</rscale>
<asrwt>0</asrwt>
<pdfrwt beam="1">  1        2 0.23065800E+00 0.73219891E+03</pdfrwt>
<pdfrwt beam="2">  1       -2 0.13753174E-01 0.73219891E+03</pdfrwt>
<totfact> 0.52212736E+02</totfact>
</mgrwt>
</event>
<event>
 4    1  0.1720876E-005  0.7194326E+03  0.7818608E-02  0.9684565E-01
          2   -1    0    0  501    0  0.00000000000E+00  0.00000000000E+00  0.14441468951E+04  0.14441468951E+04  0.25500000000E-02 0.  1.
         -2   -1    0    0    0  501 -0.00000000000E+00 -0.00000000000E+00 -0.89600180161E+02  0.89600180197E+02  0.25500000000E-02 0. -1.
   -5000001    1    1    2    0    0 -0.12702512861E+03 -0.19973651897E+03  0.45504794902E+03  0.57061256226E+03  0.25000000000E+03 0.  0.
    5000001    1    1    2    0    0  0.12702512861E+03  0.19973651897E+03  0.89949876595E+03  0.96313451306E+03  0.25000000000E+03 0.  0.
<mgrwt>
<rscale>  0 0.71943262E+03</rscale>
<asrwt>0</asrwt>
<pdfrwt beam="1">  1        2 0.22217644E+00 0.71943262E+03</pdfrwt>
<pdfrwt beam="2">  1       -2 0.13784644E-01 0.71943262E+03</pdfrwt>
<totfact> 0.55872257E+02</totfact>
</mgrwt>
</event>
<event>
 4    1  0.1720876E-005  0.6574590E+03  0.7818608E-02  0.9792883E-01
         -2   -1    0    0    0  501 -0.00000000000E+00  0.00000000000E+00  0.11598848589E+03  0.11598848592E+03  0.25500000000E-02 0. -1.
          2   -1    0    0  501    0  0.00000000000E+00 -0.00000000000E+00 -0.93167091929E+03  0.93167091930E+03  0.25500000000E-02 0.  1.
   -5000001    1    1    2    0    0 -0.40561783264E+01  0.14255999748E+03 -0.66091800273E+03  0.72086920574E+03  0.25000000000E+03 0.  0.
    5000001    1    1    2    0    0  0.40561783264E+01 -0.14255999748E+03 -0.15476443068E+03  0.32679019947E+03  0.25000000000E+03 0.  0.
<mgrwt>
<rscale>  0 0.65745905E+03</rscale>
<asrwt>0</asrwt>
<pdfrwt beam="1">  1        2 0.14333398E+00 0.65745905E+03</pdfrwt>
<pdfrwt beam="2">  1       -2 0.17844383E-01 0.65745905E+03</pdfrwt>
<totfact> 0.73176936E+02</totfact>
</mgrwt>
</event>
<event>
 4    1  0.1720876E-005  0.6317601E+03  0.7818608E-02  0.9841620E-01
         -2   -1    0    0    0  501 -0.00000000000E+00  0.00000000000E+00  0.20711427965E+03  0.20711427967E+03  0.25500000000E-02 0. -1.
          2   -1    0    0  501    0  0.00000000000E+00 -0.00000000000E+00 -0.48176396292E+03  0.48176396293E+03  0.25500000000E-02 0.  1.
   -5000001    1    1    2    0    0  0.65952472247E+02  0.17943356403E+03 -0.16686801593E+03  0.35621772448E+03  0.25000000000E+03 0.  0.
    5000001    1    1    2    0    0 -0.65952472247E+02 -0.17943356403E+03 -0.10778166734E+03  0.33266051811E+03  0.25000000000E+03 0.  0.
<mgrwt>
<rscale>  0 0.63176007E+03</rscale>
<asrwt>0</asrwt>
<pdfrwt beam="1">  1        2 0.74117533E-01 0.63176007E+03</pdfrwt>
<pdfrwt beam="2">  1       -2 0.31863735E-01 0.63176007E+03</pdfrwt>
<totfact> 0.59248919E+02</totfact>
</mgrwt>
</event>
<event>
 4    1  0.1720876E-005  0.8514007E+03  0.7818608E-02  0.9488459E-01
         -2   -1    0    0    0  501 -0.00000000000E+00  0.00000000000E+00  0.18154412960E+03  0.18154412962E+03  0.25500000000E-02 0. -1.
          2   -1    0    0  501    0  0.00000000000E+00 -0.00000000000E+00 -0.99821892641E+03  0.99821892642E+03  0.25500000000E-02 0.  1.
   -5000001    1    1    2    0    0 -0.64477890756E+02 -0.29517178096E+03 -0.17881283900E+03  0.43099629936E+03  0.25000000000E+03 0.  0.
    5000001    1    1    2    0    0  0.64477890756E+02  0.29517178096E+03 -0.63786195781E+03  0.74876675667E+03  0.25000000000E+03 0.  0.
<mgrwt>
<rscale>  0 0.85140070E+03</rscale>
<asrwt>0</asrwt>
<pdfrwt beam="1">  1        2 0.15357214E+00 0.85140070E+03</pdfrwt>
<pdfrwt beam="2">  1       -2 0.27929867E-01 0.85140070E+03</pdfrwt>
<totfact> 0.29653982E+02</totfact>
</mgrwt>
</event>
<event>
 4    1  0.1720876E-005  0.5947968E+03  0.7818608E-02  0.9916260E-01
         -2   -1    0    0    0  501 -0.00000000000E+00  0.00000000000E+00  0.19650331987E+03  0.19650331989E+03  0.25500000000E-02 0.  1.
          2   -1    0    0  501    0  0.00000000000E+00 -0.00000000000E+00 -0.45009829909E+03  0.45009829909E+03  0.25500000000E-02 0. -1.
   -5000001    1    1    2    0    0 -0.27471429275E+00 -0.15957455174E+03 -0.10293833020E+03  0.31394332746E+03  0.25000000000E+03 0.  0.
    5000001    1    1    2    0    0  0.27471429275E+00  0.15957455174E+03 -0.15065664901E+03  0.33265829153E+03  0.25000000000E+03 0.  0.
<mgrwt>
<rscale>  0 0.59479681E+03</rscale>
<asrwt>0</asrwt>
<pdfrwt beam="1">  1        2 0.69245892E-01 0.59479681E+03</pdfrwt>
<pdfrwt beam="2">  1       -2 0.30231280E-01 0.59479681E+03</pdfrwt>
<totfact> 0.70653285E+02</totfact>
</mgrwt>
</event>
<event>
 4    1  0.1720876E-005  0.9001588E+03  0.7818608E-02  0.9425383E-01
          2   -1    0    0  501    0  0.00000000000E+00  0.00000000000E+00  0.41696202638E+03  0.41696202639E+03  0.25500000000E-02 0.  1.
         -2   -1    0    0    0  501 -0.00000000000E+00 -0.00000000000E+00 -0.48582711816E+03  0.48582711817E+03  0.25500000000E-02 0. -1.
   -5000001    1    1    2    0    0 -0.21319106248E+03 -0.30735056043E+03 -0.21879440419E+02  0.45043701672E+03  0.25000000000E+03 0.  0.
    5000001    1    1    2    0    0  0.21319106248E+03  0.30735056043E+03 -0.46985651364E+02  0.45235212783E+03  0.25000000000E+03 0.  0.
<mgrwt>
<rscale>  0 0.90015879E+03</rscale>
<asrwt>0</asrwt>
<pdfrwt beam="1">  1        2 0.64148004E-01 0.90015879E+03</pdfrwt>
<pdfrwt beam="2">  1       -2 0.74742634E-01 0.90015879E+03</pdfrwt>
<totfact> 0.12255986E+02</totfact>
</mgrwt>
</event>
<event>
 4    1  0.1720876E-005  0.7281397E+03  0.7818608E-02  0.9670284E-01
         -2   -1    0    0    0  501 -0.00000000000E+00  0.00000000000E+00  0.77290736725E+03  0.77290736725E+03  0.25500000000E-02 0. -1.
          2   -1    0    0  501    0  0.00000000000E+00 -0.00000000000E+00 -0.17149127292E+03  0.17149127294E+03  0.25500000000E-02 0.  1.
   -5000001    1    1    2    0    0  0.64866613010E+02 -0.18098881187E+03  0.64802539212E+02  0.32196893731E+03  0.25000000000E+03 0.  0.
    5000001    1    1    2    0    0 -0.64866613010E+02  0.18098881187E+03  0.53661355511E+03  0.62242970288E+03  0.25000000000E+03 0.  0.
<mgrwt>
<rscale>  0 0.72813973E+03</rscale>
<asrwt>0</asrwt>
<pdfrwt beam="1">  1        2 0.26383273E-01 0.72813973E+03</pdfrwt>
<pdfrwt beam="2">  1       -2 0.11890882E+00 0.72813973E+03</pdfrwt>
<totfact> 0.11302127E+02</totfact>
</mgrwt>
</event>
<event>
 4    1  0.1720876E-005  0.6404898E+03  0.7818608E-02  0.9824790E-01
          2   -1    0    0  501    0  0.00000000000E+00  0.00000000000E+00  0.82634602355E+03  0.82634602355E+03  0.25500000000E-02 0.  1.
         -2   -1    0    0    0  501 -0.00000000000E+00 -0.00000000000E+00 -0.12410878169E+03  0.12410878171E+03  0.25500000000E-02 0. -1.
   -5000001    1    1    2    0    0  0.81573453530E+02  0.18197458251E+03  0.37629426988E+03  0.49382826422E+03  0.25000000000E+03 0.  0.
    5000001    1    1    2    0    0 -0.81573453530E+02 -0.18197458251E+03  0.32594297198E+03  0.45662654104E+03  0.25000000000E+03 0.  0.
<mgrwt>
<rscale>  0 0.64048981E+03</rscale>
<asrwt>0</asrwt>
<pdfrwt beam="1">  1        2 0.12713016E+00 0.64048981E+03</pdfrwt>
<pdfrwt beam="2">  1       -2 0.19093658E-01 0.64048981E+03</pdfrwt>
<totfact> 0.76789987E+02</totfact>
</mgrwt>
</event>
<event>
 4    1  0.1720876E-005  0.9568876E+03  0.7818608E-02  0.9357136E-01
         -2   -1    0    0    0  501 -0.00000000000E+00  0.00000000000E+00  0.12594202624E+03  0.12594202627E+03  0.25500000000E-02 0. -1.
          2   -1    0    0  501    0  0.00000000000E+00 -0.00000000000E+00 -0.18175701998E+04  0.18175701998E+04  0.25500000000E-02 0.  1.
   -5000001    1    1    2    0    0  0.32779755133E+03 -0.23667584832E+03 -0.73565214325E+03  0.87587143332E+03  0.25000000000E+03 0.  0.
    5000001    1    1    2    0    0 -0.32779755133E+03  0.23667584832E+03 -0.95597603035E+03  0.10676407928E+04  0.25000000000E+03 0.  0.
<mgrwt>
<rscale>  0 0.95688761E+03</rscale>
<asrwt>0</asrwt>
<pdfrwt beam="1">  1        2 0.27962616E+00 0.95688761E+03</pdfrwt>
<pdfrwt beam="2">  1       -2 0.19375698E-01 0.95688761E+03</pdfrwt>
<totfact> 0.19118174E+02</totfact>
</mgrwt>
</event>
<event>
 4    1  0.1720876E-005  0.9906821E+03  0.7818608E-02  0.9318824E-01
         -2   -1    0    0    0  501 -0.00000000000E+00  0.00000000000E+00  0.21732093956E+03  0.21732093958E+03  0.25500000000E-02 0. -1.
          2   -1    0    0  501    0  0.00000000000E+00 -0.00000000000E+00 -0.11290340499E+04  0.11290340499E+04  0.25500000000E-02 0.  1.
   -5000001    1    1    2    0    0  0.25233911695E+03  0.10339647921E+03 -0.90350172603E+03  0.97631000753E+03  0.25000000000E+03 0.  0.
    5000001    1    1    2    0    0 -0.25233911695E+03 -0.10339647921E+03 -0.82113843402E+01  0.37004498198E+03  0.25000000000E+03 0.  0.
<mgrwt>
<rscale>  0 0.99068207E+03</rscale>
<asrwt>0</asrwt>
<pdfrwt beam="1">  1        2 0.17369754E+00 0.99068207E+03</pdfrwt>
<pdfrwt beam="2">  1       -2 0.33433991E-01 0.99068207E+03</pdfrwt>
<totfact> 0.17435771E+02</totfact>
</mgrwt>
</event>
<event>
 4    1  0.1720876E-005  0.6476732E+03  0.7818608E-02  0.9811155E-01
         -2   -1    0    0    0  501 -0.00000000000E+00  0.00000000000E+00  0.37764978897E+02  0.37764978983E+02  0.25500000000E-02 0. -1.
          2   -1    0    0  501    0  0.00000000000E+00 -0.00000000000E+00 -0.27769155212E+04  0.27769155212E+04  0.25500000000E-02 0.  1.
   -5000001    1    1    2    0    0  0.31225942213E+02 -0.17406548074E+03 -0.91178944020E+03  0.96183877771E+03  0.25000000000E+03 0.  0.
    5000001    1    1    2    0    0 -0.31225942213E+02  0.17406548074E+03 -0.18273611021E+04  0.18528417225E+04  0.25000000000E+03 0.  0.
<mgrwt>
<rscale>  0 0.64767324E+03</rscale>
<asrwt>0</asrwt>
<pdfrwt beam="1">  1        2 0.42721761E+00 0.64767324E+03</pdfrwt>
<pdfrwt beam="2">  1       -2 0.58099989E-02 0.64767324E+03</pdfrwt>
<totfact> 0.41255611E+02</totfact>
</mgrwt>
</event>
<event>
 4    1  0.1720876E-005  0.5557288E+03  0.7818608E-02  0.1000177E+00
         -2   -1    0    0    0  501 -0.00000000000E+00  0.00000000000E+00  0.88294772141E+02  0.88294772177E+02  0.25500000000E-02 0. -1.
          2   -1    0    0  501    0  0.00000000000E+00 -0.00000000000E+00 -0.87444169247E+03  0.87444169247E+03  0.25500000000E-02 0.  1.
   -5000001    1    1    2    0    0 -0.79791857836E+02  0.26649561446E+02 -0.24173306216E+03  0.35778738525E+03  0.25000000000E+03 0.  0.
    5000001    1    1    2    0    0  0.79791857836E+02 -0.26649561446E+02 -0.54441385817E+03  0.60494907940E+03  0.25000000000E+03 0.  0.
<mgrwt>
<rscale>  0 0.55572882E+03</rscale>
<asrwt>0</asrwt>
<pdfrwt beam="1">  1        2 0.13452949E+00 0.55572882E+03</pdfrwt>
<pdfrwt beam="2">  1       -2 0.13583812E-01 0.55572882E+03</pdfrwt>
<totfact> 0.12708473E+03</totfact>
</mgrwt>
</event>
<event>
 4    1  0.1720876E-005  0.6071196E+03  0.7818608E-02  0.9890744E-01
         -2   -1    0    0    0  501 -0.00000000000E+00  0.00000000000E+00  0.18711028395E+03  0.18711028397E+03  0.25500000000E-02 0. -1.
          2   -1    0    0  501    0  0.00000000000E+00 -0.00000000000E+00 -0.49248249997E+03  0.49248249998E+03  0.25500000000E-02 0.  1.
   -5000001    1    1    2    0    0 -0.61201456359E+02  0.15966333932E+03 -0.13000561992E+03  0.32960500814E+03  0.25000000000E+03 0.  0.
    5000001    1    1    2    0    0  0.61201456359E+02 -0.15966333932E+03 -0.17536659611E+03  0.34998777581E+03  0.25000000000E+03 0.  0.
<mgrwt>
<rscale>  0 0.60711956E+03</rscale>
<asrwt>0</asrwt>
<pdfrwt beam="1">  1        2 0.75766538E-01 0.60711956E+03</pdfrwt>
<pdfrwt beam="2">  1       -2 0.28786198E-01 0.60711956E+03</pdfrwt>
<totfact> 0.69763796E+02</totfact>
</mgrwt>
</event>
<event>
 4    1  0.1720876E-005  0.6079426E+03  0.7818608E-02  0.9889063E-01
          2   -1    0    0  501    0  0.00000000000E+00  0.00000000000E+00  0.56674588161E+03  0.56674588161E+03  0.25500000000E-02 0.  1.
         -2   -1    0    0    0  501 -0.00000000000E+00 -0.00000000000E+00 -0.16303345742E+03  0.16303345744E+03  0.25500000000E-02 0. -1.
   -5000001    1    1    2    0    0  0.11736437836E+03 -0.11136565216E+03  0.27508933550E+03  0.40540208225E+03  0.25000000000E+03 0.  0.
    5000001    1    1    2    0    0 -0.11736437836E+03  0.11136565216E+03  0.12862308869E+03  0.32437725681E+03  0.25000000000E+03 0.  0.
<mgrwt>
<rscale>  0 0.60794256E+03</rscale>
<asrwt>0</asrwt>
<pdfrwt beam="1">  1        2 0.87191675E-01 0.60794256E+03</pdfrwt>
<pdfrwt beam="2">  1       -2 0.25082070E-01 0.60794256E+03</pdfrwt>
<totfact> 0.76069407E+02</totfact>
</mgrwt>
</event>
<event>
 4    1  0.1720876E-005  0.1319393E+04  0.7818608E-02  0.9014326E-01
         -2   -1    0    0    0  501 -0.00000000000E+00  0.00000000000E+00  0.30549091515E+03  0.30549091516E+03  0.25500000000E-02 0. -1.
          2   -1    0    0  501    0  0.00000000000E+00 -0.00000000000E+00 -0.14245906831E+04  0.14245906831E+04  0.25500000000E-02 0.  1.
   -5000001    1    1    2    0    0 -0.14104346729E+03 -0.10643492088E+03  0.20670572537E+03  0.36938991452E+03  0.25000000000E+03 0.  0.
    5000001    1    1    2    0    0  0.14104346729E+03  0.10643492088E+03 -0.13258054933E+04  0.13606916837E+04  0.25000000000E+03 0.  0.
<mgrwt>
<rscale>  0 0.13193931E+04</rscale>
<asrwt>0</asrwt>
<pdfrwt beam="1">  1        2 0.21916779E+00 0.13193931E+04</pdfrwt>
<pdfrwt beam="2">  1       -2 0.46998603E-01 0.13193931E+04</pdfrwt>
<totfact> 0.58828958E+01</totfact>
</mgrwt>
</event>
<event>
 4    1  0.1720876E-005  0.6632939E+03  0.7818608E-02  0.9782149E-01
         -2   -1    0    0    0  501 -0.00000000000E+00  0.00000000000E+00  0.14528550420E+03  0.14528550422E+03  0.25500000000E-02 0. -1.
          2   -1    0    0  501    0  0.00000000000E+00 -0.00000000000E+00 -0.75705909053E+03  0.75705909054E+03  0.25500000000E-02 0.  1.
   -5000001    1    1    2    0    0  0.19025816778E+03 -0.16250374981E+02 -0.16302889075E+03  0.35431718038E+03  0.25000000000E+03 0.  0.
    5000001    1    1    2    0    0 -0.19025816778E+03  0.16250374981E+02 -0.44874469558E+03  0.54802741437E+03  0.25000000000E+03 0.  0.
<mgrwt>
<rscale>  0 0.66329394E+03</rscale>
<asrwt>0</asrwt>
<pdfrwt beam="1">  1        2 0.11647063E+00 0.66329394E+03</pdfrwt>
<pdfrwt beam="2">  1       -2 0.22351616E-01 0.66329394E+03</pdfrwt>
<totfact> 0.65316180E+02</totfact>
</mgrwt>
</event>
<event>
 4    1  0.1720876E-005  0.9800530E+03  0.7818608E-02  0.9330697E-01
          2   -1    0    0  501    0  0.00000000000E+00  0.00000000000E+00  0.77401041213E+03  0.77401041214E+03  0.25500000000E-02 0.  1.
         -2   -1    0    0    0  501 -0.00000000000E+00 -0.00000000000E+00 -0.31023612330E+03  0.31023612331E+03  0.25500000000E-02 0. -1.
   -5000001    1    1    2    0    0 -0.72945982608E+02  0.34716284160E+03  0.48363824277E+03  0.64980697506E+03  0.25000000000E+03 0.  0.
    5000001    1    1    2    0    0  0.72945982608E+02 -0.34716284160E+03 -0.19863953936E+02  0.43443956039E+03  0.25000000000E+03 0.  0.
<mgrwt>
<rscale>  0 0.98005304E+03</rscale>
<asrwt>0</asrwt>
<pdfrwt beam="1">  1        2 0.11907852E+00 0.98005304E+03</pdfrwt>
<pdfrwt beam="2">  1       -2 0.47728635E-01 0.98005304E+03</pdfrwt>
<totfact> 0.14958041E+02</totfact>
</mgrwt>
</event>
<event>
 4    1  0.1720876E-005  0.6603113E+03  0.7818608E-02  0.9787621E-01
         -2   -1    0    0    0  501 -0.00000000000E+00  0.00000000000E+00  0.79399028226E+03  0.79399028227E+03  0.25500000000E-02 0. -1.
          2   -1    0    0  501    0  0.00000000000E+00 -0.00000000000E+00 -0.13728476280E+03  0.13728476282E+03  0.25500000000E-02 0.  1.
   -5000001    1    1    2    0    0 -0.31833959344E+02 -0.20502924222E+03  0.24548448833E+03  0.40720145523E+03  0.25000000000E+03 0.  0.
    5000001    1    1    2    0    0  0.31833959344E+02  0.20502924222E+03  0.41122103113E+03  0.52407358985E+03  0.25000000000E+03 0.  0.
<mgrwt>
<rscale>  0 0.66031134E+03</rscale>
<asrwt>0</asrwt>
<pdfrwt beam="1">  1        2 0.21120733E-01 0.66031134E+03</pdfrwt>
<pdfrwt beam="2">  1       -2 0.12215235E+00 0.66031134E+03</pdfrwt>
<totfact> 0.13706034E+02</totfact>
</mgrwt>
</event>
<event>
 4    1  0.1720876E-005  0.8235249E+03  0.7818608E-02  0.9526576E-01
          2   -1    0    0  501    0  0.00000000000E+00  0.00000000000E+00  0.23689907469E+04  0.23689907469E+04  0.25500000000E-02 0.  1.
         -2   -1    0    0    0  501 -0.00000000000E+00 -0.00000000000E+00 -0.71569854274E+02  0.71569854319E+02  0.25500000000E-02 0. -1.
   -5000001    1    1    2    0    0  0.17216101539E+03  0.27729152740E+03  0.10812405187E+04  0.11567675071E+04  0.25000000000E+03 0.  0.
    5000001    1    1    2    0    0 -0.17216101539E+03 -0.27729152740E+03  0.12161803740E+04  0.12837930941E+04  0.25000000000E+03 0.  0.
<mgrwt>
<rscale>  0 0.82352492E+03</rscale>
<asrwt>0</asrwt>
<pdfrwt beam="1">  1        2 0.36446008E+00 0.82352492E+03</pdfrwt>
<pdfrwt beam="2">  1       -2 0.11010748E-01 0.82352492E+03</pdfrwt>
<totfact> 0.24944111E+02</totfact>
</mgrwt>
</event>
<event>
 4    1  0.1720876E-005  0.9534932E+03  0.7818608E-02  0.9361077E-01
          2   -1    0    0  501    0  0.00000000000E+00  0.00000000000E+00  0.72689815247E+03  0.72689815248E+03  0.25500000000E-02 0.  1.
         -2   -1    0    0    0  501 -0.00000000000E+00 -0.00000000000E+00 -0.31268113282E+03  0.31268113283E+03  0.25500000000E-02 0. -1.
   -5000001    1    1    2    0    0  0.38116284070E+03 -0.10232917090E+03  0.31071981356E+03  0.56107323309E+03  0.25000000000E+03 0.  0.
    5000001    1    1    2    0    0 -0.38116284070E+03  0.10232917090E+03  0.10349720609E+03  0.47850605223E+03  0.25000000000E+03 0.  0.
<mgrwt>
<rscale>  0 0.95349324E+03</rscale>
<asrwt>0</asrwt>
<pdfrwt beam="1">  1        2 0.11183048E+00 0.95349324E+03</pdfrwt>
<pdfrwt beam="2">  1       -2 0.48104790E-01 0.95349324E+03</pdfrwt>
<totfact> 0.15996165E+02</totfact>
</mgrwt>
</event>
<event>
 4    1  0.1720876E-005  0.5665884E+03  0.7818608E-02  0.9977257E-01
         -2   -1    0    0    0  501 -0.00000000000E+00  0.00000000000E+00  0.10934289572E+03  0.10934289575E+03  0.25500000000E-02 0. -1.
          2   -1    0    0  501    0  0.00000000000E+00 -0.00000000000E+00 -0.73398090074E+03  0.73398090074E+03  0.25500000000E-02 0.  1.
   -5000001    1    1    2    0    0  0.63516233561E+02  0.11559989753E+03 -0.34047929696E+03  0.44251982994E+03  0.25000000000E+03 0.  0.
    5000001    1    1    2    0    0 -0.63516233561E+02 -0.11559989753E+03 -0.28415870806E+03  0.40080396655E+03  0.25000000000E+03 0.  0.
<mgrwt>
<rscale>  0 0.56658838E+03</rscale>
<asrwt>0</asrwt>
<pdfrwt beam="1">  1        2 0.11292014E+00 0.56658838E+03</pdfrwt>
<pdfrwt beam="2">  1       -2 0.16821984E-01 0.56658838E+03</pdfrwt>
<totfact> 0.11157744E+03</totfact>
</mgrwt>
</event>
<event>
 4    1  0.1720876E-005  0.6467460E+03  0.7818608E-02  0.9812904E-01
         -2   -1    0    0    0  501 -0.00000000000E+00  0.00000000000E+00  0.18037005143E+03  0.18037005144E+03  0.25500000000E-02 0. -1.
          2   -1    0    0  501    0  0.00000000000E+00 -0.00000000000E+00 -0.57975309273E+03  0.57975309274E+03  0.25500000000E-02 0.  1.
   -5000001    1    1    2    0    0 -0.17064290570E+03 -0.10743095454E+03 -0.15556384230E+03  0.35687605732E+03  0.25000000000E+03 0.  0.
    5000001    1    1    2    0    0  0.17064290570E+03  0.10743095454E+03 -0.24381919901E+03  0.40324708686E+03  0.25000000000E+03 0.  0.
<mgrwt>
<rscale>  0 0.64674599E+03</rscale>
<asrwt>0</asrwt>
<pdfrwt beam="1">  1        2 0.89192783E-01 0.64674599E+03</pdfrwt>
<pdfrwt beam="2">  1       -2 0.27749239E-01 0.64674599E+03</pdfrwt>
<totfact> 0.61601732E+02</totfact>
</mgrwt>
</event>
<event>
 4    1  0.1720876E-005  0.7772462E+03  0.7818608E-02  0.9593549E-01
         -2   -1    0    0    0  501 -0.00000000000E+00  0.00000000000E+00  0.19303056324E+03  0.19303056326E+03  0.25500000000E-02 0. -1.
          2   -1    0    0  501    0  0.00000000000E+00 -0.00000000000E+00 -0.78240417908E+03  0.78240417908E+03  0.25500000000E-02 0.  1.
   -5000001    1    1    2    0    0  0.12581205013E+03 -0.17728490536E+03 -0.54963574586E+03  0.64176168689E+03  0.25000000000E+03 0.  0.
    5000001    1    1    2    0    0 -0.12581205013E+03  0.17728490536E+03 -0.39737869975E+02  0.33367305545E+03  0.25000000000E+03 0.  0.
<mgrwt>
<rscale>  0 0.77724621E+03</rscale>
<asrwt>0</asrwt>
<pdfrwt beam="1">  1        2 0.12036987E+00 0.77724621E+03</pdfrwt>
<pdfrwt beam="2">  1       -2 0.29697010E-01 0.77724621E+03</pdfrwt>
<totfact> 0.37254145E+02</totfact>
</mgrwt>
</event>
<event>
 4    1  0.1720876E-005  0.1204540E+04  0.7818608E-02  0.9108892E-01
         -2   -1    0    0    0  501 -0.00000000000E+00  0.00000000000E+00  0.11802769677E+04  0.11802769677E+04  0.25500000000E-02 0. -1.
          2   -1    0    0  501    0  0.00000000000E+00 -0.00000000000E+00 -0.30732537340E+03  0.30732537341E+03  0.25500000000E-02 0.  1.
   -5000001    1    1    2    0    0 -0.15697607908E+03  0.43492989269E+03  0.79953859957E+03  0.95685290048E+03  0.25000000000E+03 0.  0.
    5000001    1    1    2    0    0  0.15697607908E+03 -0.43492989269E+03  0.73412994741E+02  0.53074944065E+03  0.25000000000E+03 0.  0.
<mgrwt>
<rscale>  0 0.12045398E+04</rscale>
<asrwt>0</asrwt>
<pdfrwt beam="1">  1        2 0.47280826E-01 0.12045398E+04</pdfrwt>
<pdfrwt beam="2">  1       -2 0.18158107E+00 0.12045398E+04</pdfrwt>
<totfact> 0.18622409E+01</totfact>
</mgrwt>
</event>
<event>
 4    1  0.1720876E-005  0.9300184E+03  0.7818608E-02  0.9388816E-01
          2   -1    0    0  501    0  0.00000000000E+00  0.00000000000E+00  0.31650580167E+03  0.31650580168E+03  0.25500000000E-02 0.  1.
         -2   -1    0    0    0  501 -0.00000000000E+00 -0.00000000000E+00 -0.68318985805E+03  0.68318985806E+03  0.25500000000E-02 0. -1.
   -5000001    1    1    2    0    0 -0.22018551220E+03  0.32392875039E+03 -0.16405151747E+03  0.49277215373E+03  0.25000000000E+03 0.  0.
    5000001    1    1    2    0    0  0.22018551220E+03 -0.32392875039E+03 -0.20263253892E+03  0.50692350600E+03  0.25000000000E+03 0.  0.
<mgrwt>
<rscale>  0 0.93001839E+03</rscale>
<asrwt>0</asrwt>
<pdfrwt beam="1">  1        2 0.48693200E-01 0.93001839E+03</pdfrwt>
<pdfrwt beam="2">  1       -2 0.10510613E+00 0.93001839E+03</pdfrwt>
<totfact> 0.75980331E+01</totfact>
</mgrwt>
</event>
<event>
 4    1  0.1720876E-005  0.7235472E+03  0.7818608E-02  0.9677790E-01
         -2   -1    0    0    0  501 -0.00000000000E+00  0.00000000000E+00  0.29295622984E+03  0.29295622985E+03  0.25500000000E-02 0. -1.
          2   -1    0    0  501    0  0.00000000000E+00 -0.00000000000E+00 -0.44675657299E+03  0.44675657300E+03  0.25500000000E-02 0.  1.
   -5000001    1    1    2    0    0  0.13430566171E+03 -0.12631608030E+03 -0.26647880485E+03  0.40927340048E+03  0.25000000000E+03 0.  0.
    5000001    1    1    2    0    0 -0.13430566171E+03  0.12631608030E+03  0.11267846169E+03  0.33043940237E+03  0.25000000000E+03 0.  0.
<mgrwt>
<rscale>  0 0.72354715E+03</rscale>
<asrwt>0</asrwt>
<pdfrwt beam="1">  1        2 0.68731780E-01 0.72354715E+03</pdfrwt>
<pdfrwt beam="2">  1       -2 0.45070189E-01 0.72354715E+03</pdfrwt>
<totfact> 0.33014058E+02</totfact>
</mgrwt>
</event>
<event>
 4    1  0.1720876E-005  0.8389578E+03  0.7818608E-02  0.9505278E-01
         -2   -1    0    0    0  501 -0.00000000000E+00  0.00000000000E+00  0.69931568032E+02  0.69931568078E+02  0.25500000000E-02 0. -1.
          2   -1    0    0  501    0  0.00000000000E+00 -0.00000000000E+00 -0.25162102564E+04  0.25162102564E+04  0.25500000000E-02 0.  1.
   -5000001    1    1    2    0    0  0.21462336299E+03  0.23855461587E+03 -0.90740528311E+03  0.99441230911E+03  0.25000000000E+03 0.  0.
    5000001    1    1    2    0    0 -0.21462336299E+03 -0.23855461587E+03 -0.15388734053E+04  0.15917295154E+04  0.25000000000E+03 0.  0.
<mgrwt>
<rscale>  0 0.83895776E+03</rscale>
<asrwt>0</asrwt>
<pdfrwt beam="1">  1        2 0.38710920E+00 0.83895776E+03</pdfrwt>
<pdfrwt beam="2">  1       -2 0.10758705E-01 0.83895776E+03</pdfrwt>
<totfact> 0.21364919E+02</totfact>
</mgrwt>
</event>
<event>
 4    1  0.1720876E-005  0.5391779E+03  0.7818608E-02  0.1004030E+00
          2   -1    0    0  501    0  0.00000000000E+00  0.00000000000E+00  0.26617541327E+04  0.26617541327E+04  0.25500000000E-02 0.  1.
         -2   -1    0    0    0  501 -0.00000000000E+00 -0.00000000000E+00 -0.27304628915E+02  0.27304629034E+02  0.25500000000E-02 0. -1.
   -5000001    1    1    2    0    0  0.95789874119E+02  0.29163065180E+02  0.13787176855E+04  0.14047735193E+04  0.25000000000E+03 0.  0.
    5000001    1    1    2    0    0 -0.95789874119E+02 -0.29163065180E+02  0.12557318183E+04  0.12842852424E+04  0.25000000000E+03 0.  0.
<mgrwt>
<rscale>  0 0.53917793E+03</rscale>
<asrwt>0</asrwt>
<pdfrwt beam="1">  1        2 0.40950067E+00 0.53917793E+03</pdfrwt>
<pdfrwt beam="2">  1       -2 0.42007118E-02 0.53917793E+03</pdfrwt>
<totfact> 0.80414066E+02</totfact>
</mgrwt>
</event>
<event>
 4    1  0.1720876E-005  0.6586931E+03  0.7818608E-02  0.9790603E-01
          2   -1    0    0  501    0  0.00000000000E+00  0.00000000000E+00  0.23140710185E+03  0.23140710187E+03  0.25500000000E-02 0.  1.
         -2   -1    0    0    0  501 -0.00000000000E+00 -0.00000000000E+00 -0.46873727211E+03  0.46873727211E+03  0.25500000000E-02 0. -1.
   -5000001    1    1    2    0    0  0.74092777184E+02 -0.61995335302E+02  0.84785237934E+02  0.28110798246E+03  0.25000000000E+03 0.  0.
    5000001    1    1    2    0    0 -0.74092777184E+02  0.61995335302E+02 -0.32211540819E+03  0.41903639152E+03  0.25000000000E+03 0.  0.
<mgrwt>
<rscale>  0 0.65869305E+03</rscale>
<asrwt>0</asrwt>
<pdfrwt beam="1">  1        2 0.35601093E-01 0.65869305E+03</pdfrwt>
<pdfrwt beam="2">  1       -2 0.72113426E-01 0.65869305E+03</pdfrwt>
<totfact> 0.25820339E+02</totfact>
</mgrwt>
</event>
<event>
 4    1  0.1720876E-005  0.6745699E+03  0.7818608E-02  0.9761737E-01
          2   -1    0    0  501    0  0.00000000000E+00  0.00000000000E+00  0.16417395089E+04  0.16417395089E+04  0.25500000000E-02 0.  1.
         -2   -1    0    0    0  501 -0.00000000000E+00 -0.00000000000E+00 -0.69293048072E+02  0.69293048119E+02  0.25500000000E-02 0. -1.
   -5000001    1    1    2    0    0 -0.75638199353E+02 -0.21329197941E+03  0.80352511996E+03  0.87141679126E+03  0.25000000000E+03 0.  0.
    5000001    1    1    2    0    0  0.75638199353E+02  0.21329197941E+03  0.76892134090E+03  0.83961576580E+03  0.25000000000E+03 0.  0.
<mgrwt>
<rscale>  0 0.67456989E+03</rscale>
<asrwt>0</asrwt>
<pdfrwt beam="1">  1        2 0.25257531E+00 0.67456989E+03</pdfrwt>
<pdfrwt beam="2">  1       -2 0.10660469E-01 0.67456989E+03</pdfrwt>
<totfact> 0.66616125E+02</totfact>
</mgrwt>
</event>
<event>
 4    1  0.1720876E-005  0.7433487E+03  0.7818608E-02  0.9645843E-01
         -2   -1    0    0    0  501 -0.00000000000E+00  0.00000000000E+00  0.68655975706E+02  0.68655975753E+02  0.25500000000E-02 0. -1.
          2   -1    0    0  501    0  0.00000000000E+00 -0.00000000000E+00 -0.20120875092E+04  0.20120875092E+04  0.25500000000E-02 0.  1.
   -5000001    1    1    2    0    0 -0.22257330516E+03  0.15989570393E+03 -0.10365400158E+04  0.11009181244E+04  0.25000000000E+03 0.  0.
    5000001    1    1    2    0    0  0.22257330516E+03 -0.15989570393E+03 -0.90689151771E+03  0.97982536056E+03  0.25000000000E+03 0.  0.
<mgrwt>
<rscale>  0 0.74334872E+03</rscale>
<asrwt>0</asrwt>
<pdfrwt beam="1">  1        2 0.30955188E+00 0.74334872E+03</pdfrwt>
<pdfrwt beam="2">  1       -2 0.10562459E-01 0.74334872E+03</pdfrwt>
<totfact> 0.42304381E+02</totfact>
</mgrwt>
</event>
<event>
 4    1  0.1720876E-005  0.1026993E+04  0.7818608E-02  0.9279425E-01
          2   -1    0    0  501    0  0.00000000000E+00  0.00000000000E+00  0.10067773552E+04  0.10067773552E+04  0.25500000000E-02 0.  1.
         -2   -1    0    0    0  501 -0.00000000000E+00 -0.00000000000E+00 -0.26190378079E+03  0.26190378080E+03  0.25500000000E-02 0. -1.
   -5000001    1    1    2    0    0 -0.34794283651E+03  0.14717952069E+03  0.67110391155E+03  0.80969530620E+03  0.25000000000E+03 0.  0.
    5000001    1    1    2    0    0  0.34794283651E+03 -0.14717952069E+03  0.73769662849E+02  0.45898582979E+03  0.25000000000E+03 0.  0.
<mgrwt>
<rscale>  0 0.10269933E+04</rscale>
<asrwt>0</asrwt>
<pdfrwt beam="1">  1        2 0.15488883E+00 0.10269933E+04</pdfrwt>
<pdfrwt beam="2">  1       -2 0.40292889E-01 0.10269933E+04</pdfrwt>
<totfact> 0.14482740E+02</totfact>
</mgrwt>
</event>
<event>
 4    1  0.1720876E-005  0.6792705E+03  0.7818608E-02  0.9753354E-01
          2   -1    0    0  501    0  0.00000000000E+00  0.00000000000E+00  0.21756815378E+04  0.21756815378E+04  0.25500000000E-02 0.  1.
         -2   -1    0    0    0  501 -0.00000000000E+00 -0.00000000000E+00 -0.53018833125E+02  0.53018833186E+02  0.25500000000E-02 0. -1.
   -5000001    1    1    2    0    0 -0.19641574602E+03  0.90534270315E+02  0.80556960507E+03  0.87075713491E+03  0.25000000000E+03 0.  0.
    5000001    1    1    2    0    0  0.19641574602E+03 -0.90534270315E+02  0.13170930997E+04  0.13579432361E+04  0.25000000000E+03 0.  0.
<mgrwt>
<rscale>  0 0.67927048E+03</rscale>
<asrwt>0</asrwt>
<pdfrwt beam="1">  1        2 0.33472022E+00 0.67927048E+03</pdfrwt>
<pdfrwt beam="2">  1       -2 0.81567439E-02 0.67927048E+03</pdfrwt>
<totfact> 0.52549505E+02</totfact>
</mgrwt>
</event>
<event>
 4    1  0.1720876E-005  0.1314135E+04  0.7818608E-02  0.9018431E-01
         -2   -1    0    0    0  501 -0.00000000000E+00  0.00000000000E+00  0.59089469700E+03  0.59089469700E+03  0.25500000000E-02 0. -1.
          2   -1    0    0  501    0  0.00000000000E+00 -0.00000000000E+00 -0.73065054624E+03  0.73065054624E+03  0.25500000000E-02 0.  1.
   -5000001    1    1    2    0    0 -0.56656446828E+03  0.21395740398E+03 -0.11980125233E+03  0.66605210569E+03  0.25000000000E+03 0.  0.
    5000001    1    1    2    0    0  0.56656446828E+03 -0.21395740398E+03 -0.19954596914E+02  0.65549313755E+03  0.25000000000E+03 0.  0.
<mgrwt>
<rscale>  0 0.13141347E+04</rscale>
<asrwt>0</asrwt>
<pdfrwt beam="1">  1        2 0.11240778E+00 0.13141347E+04</pdfrwt>
<pdfrwt beam="2">  1       -2 0.90906877E-01 0.13141347E+04</pdfrwt>
<totfact> 0.39235796E+01</totfact>
</mgrwt>
</event>
<event>
 4    1  0.1720876E-005  0.8063395E+03  0.7818608E-02  0.9550886E-01
          2   -1    0    0  501    0  0.00000000000E+00  0.00000000000E+00  0.94332022289E+03  0.94332022290E+03  0.25500000000E-02 0.  1.
         -2   -1    0    0    0  501 -0.00000000000E+00 -0.00000000000E+00 -0.17231246266E+03  0.17231246268E+03  0.25500000000E-02 0. -1.
   -5000001    1    1    2    0    0 -0.88055171956E+01  0.31380647131E+03  0.33202917480E+03  0.52086026100E+03  0.25000000000E+03 0.  0.
    5000001    1    1    2    0    0  0.88055171956E+01 -0.31380647131E+03  0.43897858543E+03  0.59477242458E+03  0.25000000000E+03 0.  0.
<mgrwt>
<rscale>  0 0.80633946E+03</rscale>
<asrwt>0</asrwt>
<pdfrwt beam="1">  1        2 0.14512619E+00 0.80633946E+03</pdfrwt>
<pdfrwt beam="2">  1       -2 0.26509610E-01 0.80633946E+03</pdfrwt>
<totfact> 0.35488356E+02</totfact>
</mgrwt>
</event>
<event>
 4    1  0.1720876E-005  0.8411385E+03  0.7818608E-02  0.9502308E-01
          2   -1    0    0  501    0  0.00000000000E+00  0.00000000000E+00  0.59919460304E+03  0.59919460304E+03  0.25500000000E-02 0.  1.
         -2   -1    0    0    0  501 -0.00000000000E+00 -0.00000000000E+00 -0.29519370921E+03  0.29519370922E+03  0.25500000000E-02 0. -1.
   -5000001    1    1    2    0    0 -0.27893742280E+03  0.16483421637E+02 -0.50588643470E+02  0.37833450791E+03  0.25000000000E+03 0.  0.
    5000001    1    1    2    0    0  0.27893742280E+03 -0.16483421637E+02  0.35458953730E+03  0.51605380435E+03  0.25000000000E+03 0.  0.
<mgrwt>
<rscale>  0 0.84113846E+03</rscale>
<asrwt>0</asrwt>
<pdfrwt beam="1">  1        2 0.92183784E-01 0.84113846E+03</pdfrwt>
<pdfrwt beam="2">  1       -2 0.45414417E-01 0.84113846E+03</pdfrwt>
<totfact> 0.22961279E+02</totfact>
</mgrwt>
</event>
<event>
 4    1  0.1720876E-005  0.7831695E+03  0.7818608E-02  0.9584703E-01
         -2   -1    0    0    0  501 -0.00000000000E+00  0.00000000000E+00  0.88643454234E+02  0.88643454270E+02  0.25500000000E-02 0. -1.
          2   -1    0    0  501    0  0.00000000000E+00 -0.00000000000E+00 -0.17298359714E+04  0.17298359714E+04  0.25500000000E-02 0.  1.
   -5000001    1    1    2    0    0 -0.30251948723E+02  0.29101877158E+03 -0.65265130527E+03  0.75766802234E+03  0.25000000000E+03 0.  0.
    5000001    1    1    2    0    0  0.30251948723E+02 -0.29101877158E+03 -0.98854121190E+03  0.10608114033E+04  0.25000000000E+03 0.  0.
<mgrwt>
<rscale>  0 0.78316955E+03</rscale>
<asrwt>0</asrwt>
<pdfrwt beam="1">  1        2 0.26612859E+00 0.78316955E+03</pdfrwt>
<pdfrwt beam="2">  1       -2 0.13637456E-01 0.78316955E+03</pdfrwt>
<totfact> 0.39406136E+02</totfact>
</mgrwt>
</event>
<event>
 4    1  0.1720876E-005  0.6803580E+03  0.7818608E-02  0.9751425E-01
         -2   -1    0    0    0  501 -0.00000000000E+00  0.00000000000E+00  0.10822201924E+03  0.10822201927E+03  0.25500000000E-02 0. -1.
          2   -1    0    0  501    0  0.00000000000E+00 -0.00000000000E+00 -0.10692993564E+04  0.10692993564E+04  0.25500000000E-02 0.  1.
   -5000001    1    1    2    0    0  0.21402456708E+03 -0.16650798841E+02 -0.62676269150E+03  0.70810679694E+03  0.25000000000E+03 0.  0.
    5000001    1    1    2    0    0 -0.21402456708E+03  0.16650798841E+02 -0.33431464562E+03  0.46941457870E+03  0.25000000000E+03 0.  0.
<mgrwt>
<rscale>  0 0.68035795E+03</rscale>
<asrwt>0</asrwt>
<pdfrwt beam="1">  1        2 0.16450759E+00 0.68035795E+03</pdfrwt>
<pdfrwt beam="2">  1       -2 0.16649542E-01 0.68035795E+03</pdfrwt>
<totfact> 0.67310653E+02</totfact>
</mgrwt>
</event>
<event>
 4    1  0.1720876E-005  0.1307128E+04  0.7818608E-02  0.9023932E-01
         -2   -1    0    0    0  501 -0.00000000000E+00  0.00000000000E+00  0.40221144467E+03  0.40221144468E+03  0.25500000000E-02 0. -1.
          2   -1    0    0  501    0  0.00000000000E+00 -0.00000000000E+00 -0.10619929935E+04  0.10619929935E+04  0.25500000000E-02 0.  1.
   -5000001    1    1    2    0    0  0.47862528108E+03  0.36759537809E+03 -0.30646839795E+03  0.72154791984E+03  0.25000000000E+03 0.  0.
    5000001    1    1    2    0    0 -0.47862528108E+03 -0.36759537809E+03 -0.35331315091E+03  0.74265651838E+03  0.25000000000E+03 0.  0.
<mgrwt>
<rscale>  0 0.13071277E+04</rscale>
<asrwt>0</asrwt>
<pdfrwt beam="1">  1        2 0.16338354E+00 0.13071277E+04</pdfrwt>
<pdfrwt beam="2">  1       -2 0.61878684E-01 0.13071277E+04</pdfrwt>
<totfact> 0.54679342E+01</totfact>
</mgrwt>
</event>
<event>
 4    1  0.1720876E-005  0.7806843E+03  0.7818608E-02  0.9588404E-01
         -2   -1    0    0    0  501 -0.00000000000E+00  0.00000000000E+00  0.18852984259E+03  0.18852984261E+03  0.25500000000E-02 0. -1.
          2   -1    0    0  501    0  0.00000000000E+00 -0.00000000000E+00 -0.80818502313E+03  0.80818502313E+03  0.25500000000E-02 0.  1.
   -5000001    1    1    2    0    0 -0.58907757384E+02 -0.27002237083E+03 -0.16156977652E+03  0.40618591472E+03  0.25000000000E+03 0.  0.
    5000001    1    1    2    0    0  0.58907757384E+02  0.27002237083E+03 -0.45808540402E+03  0.59052895103E+03  0.25000000000E+03 0.  0.
<mgrwt>
<rscale>  0 0.78068430E+03</rscale>
<asrwt>0</asrwt>
<pdfrwt beam="1">  1        2 0.12433616E+00 0.78068430E+03</pdfrwt>
<pdfrwt beam="2">  1       -2 0.29004592E-01 0.78068430E+03</pdfrwt>
<totfact> 0.37277197E+02</totfact>
</mgrwt>
</event>
<event>
 4    1  0.1720876E-005  0.9698979E+03  0.7818608E-02  0.9342191E-01
          2   -1    0    0  501    0  0.00000000000E+00  0.00000000000E+00  0.11131607741E+04  0.11131607741E+04  0.25500000000E-02 0.  1.
         -2   -1    0    0    0  501 -0.00000000000E+00 -0.00000000000E+00 -0.21126820547E+03  0.21126820548E+03  0.25500000000E-02 0. -1.
   -5000001    1    1    2    0    0  0.19984557017E+03 -0.24490981938E+02  0.94732776513E+03  0.10002339500E+04  0.25000000000E+03 0.  0.
    5000001    1    1    2    0    0 -0.19984557017E+03  0.24490981938E+02 -0.45435196533E+02  0.32419502957E+03  0.25000000000E+03 0.  0.
<mgrwt>
<rscale>  0 0.96989789E+03</rscale>
<asrwt>0</asrwt>
<pdfrwt beam="1">  1        2 0.17125550E+00 0.96989789E+03</pdfrwt>
<pdfrwt beam="2">  1       -2 0.32502801E-01 0.96989789E+03</pdfrwt>
<totfact> 0.18829710E+02</totfact>
</mgrwt>
</event>
<event>
 4    1  0.1720876E-005  0.8358885E+03  0.7818608E-02  0.9509475E-01
         -2   -1    0    0    0  501 -0.00000000000E+00  0.00000000000E+00  0.15598974327E+03  0.15598974329E+03  0.25500000000E-02 0. -1.
          2   -1    0    0  501    0  0.00000000000E+00 -0.00000000000E+00 -0.11198005109E+04  0.11198005109E+04  0.25500000000E-02 0.  1.
   -5000001    1    1    2    0    0  0.82069496140E+02  0.24608474031E+03 -0.80525929972E+03  0.88217664976E+03  0.25000000000E+03 0.  0.
    5000001    1    1    2    0    0 -0.82069496140E+02 -0.24608474031E+03 -0.15855146790E+03  0.39361360442E+03  0.25000000000E+03 0.  0.
<mgrwt>
<rscale>  0 0.83588850E+03</rscale>
<asrwt>0</asrwt>
<pdfrwt beam="1">  1        2 0.17227700E+00 0.83588850E+03</pdfrwt>
<pdfrwt beam="2">  1       -2 0.23998423E-01 0.83588850E+03</pdfrwt>
<totfact> 0.32823424E+02</totfact>
</mgrwt>
</event>
<event>
 4    1  0.1720876E-005  0.6748519E+03  0.7818608E-02  0.9761232E-01
          2   -1    0    0  501    0  0.00000000000E+00  0.00000000000E+00  0.16449399607E+04  0.16449399607E+04  0.25500000000E-02 0.  1.
         -2   -1    0    0    0  501 -0.00000000000E+00 -0.00000000000E+00 -0.69216068528E+02  0.69216068575E+02  0.25500000000E-02 0. -1.
   -5000001    1    1    2    0    0 -0.22122281782E+03  0.31961131494E+01  0.66325644411E+03  0.74253542738E+03  0.25000000000E+03 0.  0.
    5000001    1    1    2    0    0  0.22122281782E+03 -0.31961131494E+01  0.91246744810E+03  0.97162060193E+03  0.25000000000E+03 0.  0.
<mgrwt>
<rscale>  0 0.67485192E+03</rscale>
<asrwt>0</asrwt>
<pdfrwt beam="1">  1        2 0.25306768E+00 0.67485192E+03</pdfrwt>
<pdfrwt beam="2">  1       -2 0.10648626E-01 0.67485192E+03</pdfrwt>
<totfact> 0.66467554E+02</totfact>
</mgrwt>
</event>
<event>
 4    1  0.1720876E-005  0.1198447E+04  0.7818608E-02  0.9114217E-01
          2   -1    0    0  501    0  0.00000000000E+00  0.00000000000E+00  0.70217735645E+03  0.70217735646E+03  0.25500000000E-02 0.  1.
         -2   -1    0    0    0  501 -0.00000000000E+00 -0.00000000000E+00 -0.51136495840E+03  0.51136495841E+03  0.25500000000E-02 0. -1.
   -5000001    1    1    2    0    0 -0.49573869084E+03 -0.18607642795E+03  0.22423927508E+03  0.62702833997E+03  0.25000000000E+03 0.  0.
    5000001    1    1    2    0    0  0.49573869084E+03  0.18607642795E+03 -0.33426877029E+02  0.58651397489E+03  0.25000000000E+03 0.  0.
<mgrwt>
<rscale>  0 0.11984472E+04</rscale>
<asrwt>0</asrwt>
<pdfrwt beam="1">  1        2 0.10802729E+00 0.11984472E+04</pdfrwt>
<pdfrwt beam="2">  1       -2 0.78671532E-01 0.11984472E+04</pdfrwt>
<totfact> 0.57836429E+01</totfact>
</mgrwt>
</event>
<event>
 4    1  0.1720876E-005  0.8095635E+03  0.7818608E-02  0.9546277E-01
         -2   -1    0    0    0  501 -0.00000000000E+00  0.00000000000E+00  0.74449933090E+02  0.74449933134E+02  0.25500000000E-02 0. -1.
          2   -1    0    0  501    0  0.00000000000E+00 -0.00000000000E+00 -0.22007844375E+04  0.22007844375E+04  0.25500000000E-02 0.  1.
   -5000001    1    1    2    0    0  0.10751155665E+03  0.29964768951E+03 -0.10606827048E+04  0.11352952360E+04  0.25000000000E+03 0.  0.
    5000001    1    1    2    0    0 -0.10751155665E+03 -0.29964768951E+03 -0.10656517996E+04  0.11399391346E+04  0.25000000000E+03 0.  0.
<mgrwt>
<rscale>  0 0.80956347E+03</rscale>
<asrwt>0</asrwt>
<pdfrwt beam="1">  1        2 0.33858217E+00 0.80956347E+03</pdfrwt>
<pdfrwt beam="2">  1       -2 0.11453838E-01 0.80956347E+03</pdfrwt>
<totfact> 0.29029236E+02</totfact>
</mgrwt>
</event>
<event>
 4    1  0.1720876E-005  0.5842829E+03  0.7818608E-02  0.9938561E-01
          2   -1    0    0  501    0  0.00000000000E+00  0.00000000000E+00  0.10830711180E+03  0.10830711183E+03  0.25500000000E-02 0.  1.
         -2   -1    0    0    0  501 -0.00000000000E+00 -0.00000000000E+00 -0.78800583960E+03  0.78800583960E+03  0.25500000000E-02 0. -1.
   -5000001    1    1    2    0    0  0.13604335334E+03  0.61489018077E+02 -0.30361409543E+03  0.42067827645E+03  0.25000000000E+03 0.  0.
    5000001    1    1    2    0    0 -0.13604335334E+03 -0.61489018077E+02 -0.37608463237E+03  0.47563467498E+03  0.25000000000E+03 0.  0.
<mgrwt>
<rscale>  0 0.58428293E+03</rscale>
<asrwt>0</asrwt>
<pdfrwt beam="1">  1        2 0.16662633E-01 0.58428293E+03</pdfrwt>
<pdfrwt beam="2">  1       -2 0.12123166E+00 0.58428293E+03</pdfrwt>
<totfact> 0.18532231E+02</totfact>
</mgrwt>
</event>
<event>
 4    1  0.1720876E-005  0.1209997E+04  0.7818608E-02  0.9104151E-01
         -2   -1    0    0    0  501 -0.00000000000E+00  0.00000000000E+00  0.35850878148E+03  0.35850878149E+03  0.25500000000E-02 0. -1.
          2   -1    0    0  501    0  0.00000000000E+00 -0.00000000000E+00 -0.10209606252E+04  0.10209606252E+04  0.25500000000E-02 0.  1.
   -5000001    1    1    2    0    0 -0.45982769908E+03 -0.27404525977E+03 -0.47978860287E+03  0.76107780199E+03  0.25000000000E+03 0.  0.
    5000001    1    1    2    0    0  0.45982769908E+03  0.27404525977E+03 -0.18266324089E+03  0.61839160474E+03  0.25000000000E+03 0.  0.
<mgrwt>
<rscale>  0 0.12099973E+04</rscale>
<asrwt>0</asrwt>
<pdfrwt beam="1">  1        2 0.15707086E+00 0.12099973E+04</pdfrwt>
<pdfrwt beam="2">  1       -2 0.55155198E-01 0.12099973E+04</pdfrwt>
<totfact> 0.74431902E+01</totfact>
</mgrwt>
</event>
<event>
 4    1  0.1720876E-005  0.1907977E+04  0.7818608E-02  0.8650896E-01
         -2   -1    0    0    0  501 -0.00000000000E+00  0.00000000000E+00  0.24634410951E+03  0.24634410953E+03  0.25500000000E-02 0. -1.
          2   -1    0    0  501    0  0.00000000000E+00 -0.00000000000E+00 -0.36944022894E+04  0.36944022894E+04  0.25500000000E-02 0.  1.
   -5000001    1    1    2    0    0  0.81657938320E+03  0.42483503872E+03 -0.17602499068E+04  0.20020655417E+04  0.25000000000E+03 0.  0.
    5000001    1    1    2    0    0 -0.81657938320E+03 -0.42483503872E+03 -0.16878082732E+04  0.19386808572E+04  0.25000000000E+03 0.  0.
<mgrwt>
<rscale>  0 0.19079772E+04</rscale>
<asrwt>0</asrwt>
<pdfrwt beam="1">  1        2 0.56836954E+00 0.19079772E+04</pdfrwt>
<pdfrwt beam="2">  1       -2 0.37899096E-01 0.19079772E+04</pdfrwt>
<totfact> 0.36556925E+00</totfact>
</mgrwt>
</event>
<event>
 4    1  0.1720876E-005  0.1280187E+04  0.7818608E-02  0.9045426E-01
          2   -1    0    0  501    0  0.00000000000E+00  0.00000000000E+00  0.48714571542E+03  0.48714571543E+03  0.25500000000E-02 0. -1.
         -2   -1    0    0    0  501 -0.00000000000E+00 -0.00000000000E+00 -0.84106168337E+03  0.84106168338E+03  0.25500000000E-02 0.  1.
   -5000001    1    1    2    0    0 -0.82258243252E+02  0.35534802272E+03  0.30319868133E+03  0.53616049481E+03  0.25000000000E+03 0.  0.
    5000001    1    1    2    0    0  0.82258243252E+02 -0.35534802272E+03 -0.65711464928E+03  0.79204690400E+03  0.25000000000E+03 0.  0.
<mgrwt>
<rscale>  0 0.12801869E+04</rscale>
<asrwt>0</asrwt>
<pdfrwt beam="1">  1        2 0.74945495E-01 0.12801869E+04</pdfrwt>
<pdfrwt beam="2">  1       -2 0.12939411E+00 0.12801869E+04</pdfrwt>
<totfact> 0.27363854E+01</totfact>
</mgrwt>
</event>
<event>
 4    1  0.1720876E-005  0.7405927E+03  0.7818608E-02  0.9650226E-01
         -2   -1    0    0    0  501 -0.00000000000E+00  0.00000000000E+00  0.20121686121E+03  0.20121686123E+03  0.25500000000E-02 0. -1.
          2   -1    0    0  501    0  0.00000000000E+00 -0.00000000000E+00 -0.68145073026E+03  0.68145073027E+03  0.25500000000E-02 0.  1.
   -5000001    1    1    2    0    0 -0.26389093144E+03 -0.47563284889E+02 -0.17797319329E+03  0.40752318620E+03  0.25000000000E+03 0.  0.
    5000001    1    1    2    0    0  0.26389093144E+03  0.47563284889E+02 -0.30226067577E+03  0.47514440529E+03  0.25000000000E+03 0.  0.
<mgrwt>
<rscale>  0 0.74059267E+03</rscale>
<asrwt>0</asrwt>
<pdfrwt beam="1">  1        2 0.10483857E+00 0.74059267E+03</pdfrwt>
<pdfrwt beam="2">  1       -2 0.30956440E-01 0.74059267E+03</pdfrwt>
<totfact> 0.41218651E+02</totfact>
</mgrwt>
</event>
<event>
 4    1  0.1720876E-005  0.8011241E+03  0.7818608E-02  0.9558391E-01
          2   -1    0    0  501    0  0.00000000000E+00  0.00000000000E+00  0.46110709318E+03  0.46110709318E+03  0.25500000000E-02 0.  1.
         -2   -1    0    0    0  501 -0.00000000000E+00 -0.00000000000E+00 -0.34796678862E+03  0.34796678863E+03  0.25500000000E-02 0. -1.
   -5000001    1    1    2    0    0  0.27573920399E+03  0.12726639038E+03 -0.19818456446E+02  0.39385481329E+03  0.25000000000E+03 0.  0.
    5000001    1    1    2    0    0 -0.27573920399E+03 -0.12726639038E+03  0.13295876101E+03  0.41521906852E+03  0.25000000000E+03 0.  0.
<mgrwt>
<rscale>  0 0.80112410E+03</rscale>
<asrwt>0</asrwt>
<pdfrwt beam="1">  1        2 0.70939553E-01 0.80112410E+03</pdfrwt>
<pdfrwt beam="2">  1       -2 0.53533352E-01 0.80112410E+03</pdfrwt>
<totfact> 0.22401621E+02</totfact>
</mgrwt>
</event>
<event>
 4    1  0.1720876E-005  0.6966348E+03  0.7818608E-02  0.9723004E-01
          2   -1    0    0  501    0  0.00000000000E+00  0.00000000000E+00  0.58541172386E+03  0.58541172386E+03  0.25500000000E-02 0.  1.
         -2   -1    0    0    0  501 -0.00000000000E+00 -0.00000000000E+00 -0.20724734436E+03  0.20724734438E+03  0.25500000000E-02 0. -1.
   -5000001    1    1    2    0    0  0.10285903616E+03 -0.21095408534E+03  0.25869920286E+03  0.42954264631E+03  0.25000000000E+03 0.  0.
    5000001    1    1    2    0    0 -0.10285903616E+03  0.21095408534E+03  0.11946517663E+03  0.36311642192E+03  0.25000000000E+03 0.  0.
<mgrwt>
<rscale>  0 0.69663484E+03</rscale>
<asrwt>0</asrwt>
<pdfrwt beam="1">  1        2 0.90063340E-01 0.69663484E+03</pdfrwt>
<pdfrwt beam="2">  1       -2 0.31884207E-01 0.69663484E+03</pdfrwt>
<totfact> 0.47032247E+02</totfact>
</mgrwt>
</event>
<event>
 4    1  0.1720876E-005  0.7175981E+03  0.7818608E-02  0.9687602E-01
          2   -1    0    0  501    0  0.00000000000E+00  0.00000000000E+00  0.72048211530E+03  0.72048211530E+03  0.25500000000E-02 0.  1.
         -2   -1    0    0    0  501 -0.00000000000E+00 -0.00000000000E+00 -0.17868141967E+03  0.17868141969E+03  0.25500000000E-02 0. -1.
   -5000001    1    1    2    0    0  0.17449001247E+03 -0.14308016428E+03  0.42598163841E+03  0.54302767344E+03  0.25000000000E+03 0.  0.
    5000001    1    1    2    0    0 -0.17449001247E+03  0.14308016428E+03  0.11581905721E+03  0.35613586154E+03  0.25000000000E+03 0.  0.
<mgrwt>
<rscale>  0 0.71759812E+03</rscale>
<asrwt>0</asrwt>
<pdfrwt beam="1">  1        2 0.11084340E+00 0.71759812E+03</pdfrwt>
<pdfrwt beam="2">  1       -2 0.27489449E-01 0.71759812E+03</pdfrwt>
<totfact> 0.47882788E+02</totfact>
</mgrwt>
</event>
<event>
 4    1  0.1720876E-005  0.9176881E+03  0.7818608E-02  0.9403737E-01
          2   -1    0    0  501    0  0.00000000000E+00  0.00000000000E+00  0.33930036588E+04  0.33930036588E+04  0.25500000000E-02 0.  1.
         -2   -1    0    0    0  501 -0.00000000000E+00 -0.00000000000E+00 -0.62050590211E+02  0.62050590263E+02  0.25500000000E-02 0. -1.
   -5000001    1    1    2    0    0  0.10645378653E+03 -0.36761699036E+03  0.15166193753E+04  0.15840167265E+04  0.25000000000E+03 0.  0.
    5000001    1    1    2    0    0 -0.10645378653E+03  0.36761699036E+03  0.18143336934E+04  0.18710375226E+04  0.25000000000E+03 0.  0.
<mgrwt>
<rscale>  0 0.91768814E+03</rscale>
<asrwt>0</asrwt>
<pdfrwt beam="1">  1        2 0.52200065E+00 0.91768814E+03</pdfrwt>
<pdfrwt beam="2">  1       -2 0.95462430E-02 0.91768814E+03</pdfrwt>
<totfact> 0.74798084E+01</totfact>
</mgrwt>
</event>
<event>
 4    1  0.1720876E-005  0.7141175E+03  0.7818608E-02  0.9693389E-01
          2   -1    0    0  501    0  0.00000000000E+00  0.00000000000E+00  0.29825290992E+04  0.29825290992E+04  0.25500000000E-02 0.  1.
         -2   -1    0    0    0  501 -0.00000000000E+00 -0.00000000000E+00 -0.42745925938E+02  0.42745926014E+02  0.25500000000E-02 0. -1.
   -5000001    1    1    2    0    0  0.22895883437E+03 -0.97716470556E+02  0.12370711842E+04  0.12863964285E+04  0.25000000000E+03 0.  0.
    5000001    1    1    2    0    0 -0.22895883437E+03  0.97716470556E+02  0.17027119890E+04  0.17388785967E+04  0.25000000000E+03 0.  0.
<mgrwt>
<rscale>  0 0.71411755E+03</rscale>
<asrwt>0</asrwt>
<pdfrwt beam="1">  1        2 0.45885083E+00 0.71411755E+03</pdfrwt>
<pdfrwt beam="2">  1       -2 0.65762935E-02 0.71411755E+03</pdfrwt>
<totfact> 0.25404664E+02</totfact>
</mgrwt>
</event>
<event>
 4    1  0.1720876E-005  0.8353679E+03  0.7818608E-02  0.9510189E-01
         -2   -1    0    0    0  501 -0.00000000000E+00  0.00000000000E+00  0.10047255526E+03  0.10047255529E+03  0.25500000000E-02 0. -1.
          2   -1    0    0  501    0  0.00000000000E+00 -0.00000000000E+00 -0.17363934909E+04  0.17363934909E+04  0.25500000000E-02 0.  1.
   -5000001    1    1    2    0    0 -0.31978114049E+03  0.37743902801E+01 -0.10343640587E+04  0.11111630077E+04  0.25000000000E+03 0.  0.
    5000001    1    1    2    0    0  0.31978114049E+03 -0.37743902801E+01 -0.60155687697E+03  0.72570303849E+03  0.25000000000E+03 0.  0.
<mgrwt>
<rscale>  0 0.83536792E+03</rscale>
<asrwt>0</asrwt>
<pdfrwt beam="1">  1        2 0.26713744E+00 0.83536792E+03</pdfrwt>
<pdfrwt beam="2">  1       -2 0.15457318E-01 0.83536792E+03</pdfrwt>
<totfact> 0.31526402E+02</totfact>
</mgrwt>
</event>
<event>
 4    1  0.1720876E-005  0.5871608E+03  0.7818608E-02  0.9932407E-01
         -2   -1    0    0    0  501 -0.00000000000E+00  0.00000000000E+00  0.24477828977E+03  0.24477828978E+03  0.25500000000E-02 0. -1.
          2   -1    0    0  501    0  0.00000000000E+00 -0.00000000000E+00 -0.35211237613E+03  0.35211237614E+03  0.25500000000E-02 0.  1.
   -5000001    1    1    2    0    0  0.29745789365E+02 -0.13579680353E+03 -0.12082139609E+03  0.31052116447E+03  0.25000000000E+03 0.  0.
    5000001    1    1    2    0    0 -0.29745789365E+02  0.13579680353E+03  0.13487309727E+02  0.28636950144E+03  0.25000000000E+03 0.  0.
<mgrwt>
<rscale>  0 0.58716085E+03</rscale>
<asrwt>0</asrwt>
<pdfrwt beam="1">  1        2 0.54171135E-01 0.58716085E+03</pdfrwt>
<pdfrwt beam="2">  1       -2 0.37658198E-01 0.58716085E+03</pdfrwt>
<totfact> 0.61478790E+02</totfact>
</mgrwt>
</event>
<event>
 4    1  0.1720876E-005  0.9165521E+03  0.7818608E-02  0.9405124E-01
         -2   -1    0    0    0  501 -0.00000000000E+00  0.00000000000E+00  0.71793589755E+02  0.71793589801E+02  0.25500000000E-02 0. -1.
          2   -1    0    0  501    0  0.00000000000E+00 -0.00000000000E+00 -0.29252883309E+04  0.29252883309E+04  0.25500000000E-02 0.  1.
   -5000001    1    1    2    0    0  0.37007267439E+03  0.10206615069E+03 -0.14662132690E+04  0.15361160873E+04  0.25000000000E+03 0.  0.
    5000001    1    1    2    0    0 -0.37007267439E+03 -0.10206615069E+03 -0.13872814722E+04  0.14609658335E+04  0.25000000000E+03 0.  0.
<mgrwt>
<rscale>  0 0.91655213E+03</rscale>
<asrwt>0</asrwt>
<pdfrwt beam="1">  1        2 0.45004427E+00 0.91655213E+03</pdfrwt>
<pdfrwt beam="2">  1       -2 0.11045170E-01 0.91655213E+03</pdfrwt>
<totfact> 0.11681789E+02</totfact>
</mgrwt>
</event>
<event>
 4    1  0.1720876E-005  0.1340268E+04  0.7818608E-02  0.8998228E-01
         -2   -1    0    0    0  501 -0.00000000000E+00  0.00000000000E+00  0.22948503431E+03  0.22948503432E+03  0.25500000000E-02 0. -1.
          2   -1    0    0  501    0  0.00000000000E+00 -0.00000000000E+00 -0.19569003929E+04  0.19569003929E+04  0.25500000000E-02 0.  1.
   -5000001    1    1    2    0    0 -0.27592515114E+01  0.41836360352E+03 -0.11340730039E+03  0.50039677657E+03  0.25000000000E+03 0.  0.
    5000001    1    1    2    0    0  0.27592515114E+01 -0.41836360352E+03 -0.16140080582E+04  0.16859886506E+04  0.25000000000E+03 0.  0.
<mgrwt>
<rscale>  0 0.13402677E+04</rscale>
<asrwt>0</asrwt>
<pdfrwt beam="1">  1        2 0.30106159E+00 0.13402677E+04</pdfrwt>
<pdfrwt beam="2">  1       -2 0.35305391E-01 0.13402677E+04</pdfrwt>
<totfact> 0.52025507E+01</totfact>
</mgrwt>
</event>
<event>
 4    1  0.1720876E-005  0.6175578E+03  0.7818608E-02  0.9869634E-01
          2   -1    0    0  501    0  0.00000000000E+00  0.00000000000E+00  0.68104106528E+03  0.68104106528E+03  0.25500000000E-02 0.  1.
         -2   -1    0    0    0  501 -0.00000000000E+00 -0.00000000000E+00 -0.13999805465E+03  0.13999805468E+03  0.25500000000E-02 0. -1.
   -5000001    1    1    2    0    0 -0.14874567187E+03  0.14185933431E+02  0.13417283648E+03  0.32066940243E+03  0.25000000000E+03 0.  0.
    5000001    1    1    2    0    0  0.14874567187E+03 -0.14185933431E+02  0.40687017415E+03  0.50036971753E+03  0.25000000000E+03 0.  0.
<mgrwt>
<rscale>  0 0.61755785E+03</rscale>
<asrwt>0</asrwt>
<pdfrwt beam="1">  1        2 0.10477555E+00 0.61755785E+03</pdfrwt>
<pdfrwt beam="2">  1       -2 0.21538162E-01 0.61755785E+03</pdfrwt>
<totfact> 0.79832283E+02</totfact>
</mgrwt>
</event>
<event>
 4    1  0.1720876E-005  0.6875343E+03  0.7818608E-02  0.9738791E-01
          2   -1    0    0  501    0  0.00000000000E+00  0.00000000000E+00  0.18481681488E+04  0.18481681488E+04  0.25500000000E-02 0.  1.
         -2   -1    0    0    0  501 -0.00000000000E+00 -0.00000000000E+00 -0.63942157286E+02  0.63942157337E+02  0.25500000000E-02 0. -1.
   -5000001    1    1    2    0    0  0.44664237704E+02 -0.22310824845E+03  0.71835078768E+03  0.79391437751E+03  0.25000000000E+03 0.  0.
    5000001    1    1    2    0    0 -0.44664237704E+02  0.22310824845E+03  0.10658752038E+04  0.11181959286E+04  0.25000000000E+03 0.  0.
<mgrwt>
<rscale>  0 0.68753431E+03</rscale>
<asrwt>0</asrwt>
<pdfrwt beam="1">  1        2 0.28433357E+00 0.68753431E+03</pdfrwt>
<pdfrwt beam="2">  1       -2 0.98372546E-02 0.68753431E+03</pdfrwt>
<totfact> 0.58564023E+02</totfact>
</mgrwt>
</event>
<event>
 4    1  0.1720876E-005  0.7128090E+03  0.7818608E-02  0.9695574E-01
          2   -1    0    0  501    0  0.00000000000E+00  0.00000000000E+00  0.40388498915E+03  0.40388498915E+03  0.25500000000E-02 0.  1.
         -2   -1    0    0    0  501 -0.00000000000E+00 -0.00000000000E+00 -0.31450580201E+03  0.31450580202E+03  0.25500000000E-02 0. -1.
   -5000001    1    1    2    0    0 -0.13218402394E+03  0.20395946888E+03  0.11910607538E+03  0.36845398400E+03  0.25000000000E+03 0.  0.
    5000001    1    1    2    0    0  0.13218402394E+03 -0.20395946888E+03 -0.29726888247E+02  0.34993680718E+03  0.25000000000E+03 0.  0.
<mgrwt>
<rscale>  0 0.71280901E+03</rscale>
<asrwt>0</asrwt>
<pdfrwt beam="1">  1        2 0.62136152E-01 0.71280901E+03</pdfrwt>
<pdfrwt beam="2">  1       -2 0.48385508E-01 0.71280901E+03</pdfrwt>
<totfact> 0.32106135E+02</totfact>
</mgrwt>
</event>
<event>
 4    1  0.1720876E-005  0.7729618E+03  0.7818608E-02  0.9600000E-01
         -2   -1    0    0    0  501 -0.00000000000E+00  0.00000000000E+00  0.62453537111E+02  0.62453537163E+02  0.25500000000E-02 0. -1.
          2   -1    0    0  501    0  0.00000000000E+00 -0.00000000000E+00 -0.23916578394E+04  0.23916578394E+04  0.25500000000E-02 0.  1.
   -5000001    1    1    2    0    0  0.18093910612E+03  0.19801113333E+03 -0.15524152070E+04  0.15951301965E+04  0.25000000000E+03 0.  0.
    5000001    1    1    2    0    0 -0.18093910612E+03 -0.19801113333E+03 -0.77678909529E+03  0.85898118001E+03  0.25000000000E+03 0.  0.
<mgrwt>
<rscale>  0 0.77296181E+03</rscale>
<asrwt>0</asrwt>
<pdfrwt beam="1">  1        2 0.36794729E+00 0.77296181E+03</pdfrwt>
<pdfrwt beam="2">  1       -2 0.96082383E-02 0.77296181E+03</pdfrwt>
<totfact> 0.30397292E+02</totfact>
</mgrwt>
</event>
<event>
 4    1  0.1720876E-005  0.5620523E+03  0.7818608E-02  0.9987422E-01
          2   -1    0    0  501    0  0.00000000000E+00  0.00000000000E+00  0.10648750192E+04  0.10648750192E+04  0.25500000000E-02 0.  1.
         -2   -1    0    0    0  501 -0.00000000000E+00 -0.00000000000E+00 -0.74164296367E+02  0.74164296411E+02  0.25500000000E-02 0. -1.
   -5000001    1    1    2    0    0  0.11177618931E+02 -0.10201502342E+03  0.33911598885E+03  0.43362617317E+03  0.25000000000E+03 0.  0.
    5000001    1    1    2    0    0 -0.11177618931E+02  0.10201502342E+03  0.65159473395E+03  0.70541314240E+03  0.25000000000E+03 0.  0.
<mgrwt>
<rscale>  0 0.56205233E+03</rscale>
<asrwt>0</asrwt>
<pdfrwt beam="1">  1        2 0.16382692E+00 0.56205233E+03</pdfrwt>
<pdfrwt beam="2">  1       -2 0.11409892E-01 0.56205233E+03</pdfrwt>
<totfact> 0.12786402E+03</totfact>
</mgrwt>
</event>
<event>
 4    1  0.1720876E-005  0.7515983E+03  0.7818608E-02  0.9632846E-01
          2   -1    0    0  501    0  0.00000000000E+00  0.00000000000E+00  0.22429163469E+04  0.22429163469E+04  0.25500000000E-02 0.  1.
         -2   -1    0    0    0  501 -0.00000000000E+00 -0.00000000000E+00 -0.62964906058E+02  0.62964906110E+02  0.25500000000E-02 0. -1.
   -5000001    1    1    2    0    0  0.23533307331E+03 -0.84466884702E+02  0.14805694908E+04  0.15222031163E+04  0.25000000000E+03 0.  0.
    5000001    1    1    2    0    0 -0.23533307331E+03  0.84466884702E+02  0.69938195003E+03  0.78367813676E+03  0.25000000000E+03 0.  0.
<mgrwt>
<rscale>  0 0.75159834E+03</rscale>
<asrwt>0</asrwt>
<pdfrwt beam="1">  1        2 0.34506402E+00 0.75159834E+03</pdfrwt>
<pdfrwt beam="2">  1       -2 0.96869095E-02 0.75159834E+03</pdfrwt>
<totfact> 0.36362889E+02</totfact>
</mgrwt>
</event>
<event>
 4    1  0.1720876E-005  0.7387096E+03  0.7818608E-02  0.9653232E-01
         -2   -1    0    0    0  501 -0.00000000000E+00  0.00000000000E+00  0.47915278742E+03  0.47915278742E+03  0.25500000000E-02 0. -1.
          2   -1    0    0  501    0  0.00000000000E+00 -0.00000000000E+00 -0.28471702008E+03  0.28471702009E+03  0.25500000000E-02 0.  1.
   -5000001    1    1    2    0    0  0.25125862232E+03  0.78541194451E+02  0.26906846010E+02  0.36403790033E+03  0.25000000000E+03 0.  0.
    5000001    1    1    2    0    0 -0.25125862232E+03 -0.78541194451E+02  0.16752892133E+03  0.39983190718E+03  0.25000000000E+03 0.  0.
<mgrwt>
<rscale>  0 0.73870956E+03</rscale>
<asrwt>0</asrwt>
<pdfrwt beam="1">  1        2 0.43802619E-01 0.73870956E+03</pdfrwt>
<pdfrwt beam="2">  1       -2 0.73715813E-01 0.73870956E+03</pdfrwt>
<totfact> 0.19487889E+02</totfact>
</mgrwt>
</event>
<event>
 4    1  0.1720876E-005  0.8910246E+03  0.7818608E-02  0.9436871E-01
          2   -1    0    0  501    0  0.00000000000E+00  0.00000000000E+00  0.40999871660E+04  0.40999871660E+04  0.25500000000E-02 0.  1.
         -2   -1    0    0    0  501 -0.00000000000E+00 -0.00000000000E+00 -0.48410202343E+02  0.48410202410E+02  0.25500000000E-02 0. -1.
   -5000001    1    1    2    0    0 -0.81675349231E+02  0.23046628105E+03  0.33109440869E+04  0.33293597456E+04  0.25000000000E+03 0.  0.
    5000001    1    1    2    0    0  0.81675349231E+02 -0.23046628105E+03  0.74063287681E+03  0.81903762282E+03  0.25000000000E+03 0.  0.
<mgrwt>
<rscale>  0 0.89102460E+03</rscale>
<asrwt>0</asrwt>
<pdfrwt beam="1">  1        2 0.63076720E+00 0.89102460E+03</pdfrwt>
<pdfrwt beam="2">  1       -2 0.74477241E-02 0.89102460E+03</pdfrwt>
<totfact> 0.33782658E+01</totfact>
</mgrwt>
</event>
<event>
 4    1  0.1720876E-005  0.7175868E+03  0.7818608E-02  0.9687620E-01
         -2   -1    0    0    0  501 -0.00000000000E+00  0.00000000000E+00  0.27681799310E+04  0.27681799310E+04  0.25500000000E-02 0. -1.
          2   -1    0    0  501    0  0.00000000000E+00 -0.00000000000E+00 -0.46504453394E+02  0.46504453464E+02  0.25500000000E-02 0.  1.
   -5000001    1    1    2    0    0  0.14952386881E+03  0.20931204175E+03  0.13921623513E+04  0.14376317089E+04  0.25000000000E+03 0.  0.
    5000001    1    1    2    0    0 -0.14952386881E+03 -0.20931204175E+03  0.13295131264E+04  0.13770526756E+04  0.25000000000E+03 0.  0.
<mgrwt>
<rscale>  0 0.71758677E+03</rscale>
<asrwt>0</asrwt>
<pdfrwt beam="1">  1        2 0.71545294E-02 0.71758677E+03</pdfrwt>
<pdfrwt beam="2">  1       -2 0.42587395E+00 0.71758677E+03</pdfrwt>
<totfact> 0.55148238E+00</totfact>
</mgrwt>
</event>
<event>
 4    1  0.1720876E-005  0.1503236E+04  0.7818608E-02  0.8882304E-01
         -2   -1    0    0    0  501 -0.00000000000E+00  0.00000000000E+00  0.68198458003E+03  0.68198458004E+03  0.25500000000E-02 0. -1.
          2   -1    0    0  501    0  0.00000000000E+00 -0.00000000000E+00 -0.82836124907E+03  0.82836124907E+03  0.25500000000E-02 0.  1.
   -5000001    1    1    2    0    0 -0.17086479804E+03  0.52531818067E+03  0.37306960713E+03  0.71192338205E+03  0.25000000000E+03 0.  0.
    5000001    1    1    2    0    0  0.17086479804E+03 -0.52531818067E+03 -0.51944627616E+03  0.79842244706E+03  0.25000000000E+03 0.  0.
<mgrwt>
<rscale>  0 0.15032360E+04</rscale>
<asrwt>0</asrwt>
<pdfrwt beam="1">  1        2 0.12744019E+00 0.15032360E+04</pdfrwt>
<pdfrwt beam="2">  1       -2 0.10492071E+00 0.15032360E+04</pdfrwt>
<totfact> 0.23387202E+01</totfact>
</mgrwt>
</event>
<event>
 4    1  0.1720876E-005  0.8474223E+03  0.7818608E-02  0.9493803E-01
          2   -1    0    0  501    0  0.00000000000E+00  0.00000000000E+00  0.55868491007E+03  0.55868491008E+03  0.25500000000E-02 0.  1.
         -2   -1    0    0    0  501 -0.00000000000E+00 -0.00000000000E+00 -0.32134598029E+03  0.32134598030E+03  0.25500000000E-02 0. -1.
   -5000001    1    1    2    0    0 -0.28798603342E+03  0.62068969872E+01  0.31031517373E+03  0.49170111660E+03  0.25000000000E+03 0.  0.
    5000001    1    1    2    0    0  0.28798603342E+03 -0.62068969872E+01 -0.72976243948E+02  0.38832977377E+03  0.25000000000E+03 0.  0.
<mgrwt>
<rscale>  0 0.84742233E+03</rscale>
<asrwt>0</asrwt>
<pdfrwt beam="1">  1        2 0.85951524E-01 0.84742233E+03</pdfrwt>
<pdfrwt beam="2">  1       -2 0.49437844E-01 0.84742233E+03</pdfrwt>
<totfact> 0.21039134E+02</totfact>
</mgrwt>
</event>
<event>
 4    1  0.1720876E-005  0.5840456E+03  0.7818608E-02  0.9939071E-01
          2   -1    0    0  501    0  0.00000000000E+00  0.00000000000E+00  0.88085638976E+03  0.88085638976E+03  0.25500000000E-02 0.  1.
         -2   -1    0    0    0  501 -0.00000000000E+00 -0.00000000000E+00 -0.96811817388E+02  0.96811817422E+02  0.25500000000E-02 0. -1.
   -5000001    1    1    2    0    0 -0.12108610640E+03  0.63700147759E+02  0.28539027216E+03  0.40332017236E+03  0.25000000000E+03 0.  0.
    5000001    1    1    2    0    0  0.12108610640E+03 -0.63700147759E+02  0.49865430022E+03  0.57434803483E+03  0.25000000000E+03 0.  0.
<mgrwt>
<rscale>  0 0.58404557E+03</rscale>
<asrwt>0</asrwt>
<pdfrwt beam="1">  1        2 0.13551637E+00 0.58404557E+03</pdfrwt>
<pdfrwt beam="2">  1       -2 0.14894125E-01 0.58404557E+03</pdfrwt>
<totfact> 0.10779559E+03</totfact>
</mgrwt>
</event>
<event>
 4    1  0.1720876E-005  0.5504706E+03  0.7818608E-02  0.1001385E+00
         -2   -1    0    0    0  501 -0.00000000000E+00  0.00000000000E+00  0.12052154363E+03  0.12052154366E+03  0.25500000000E-02 0. -1.
          2   -1    0    0  501    0  0.00000000000E+00 -0.00000000000E+00 -0.62855547998E+03  0.62855547999E+03  0.25500000000E-02 0.  1.
   -5000001    1    1    2    0    0  0.74140664352E+02  0.84920166501E+02 -0.22221384733E+03  0.35296921499E+03  0.25000000000E+03 0.  0.
    5000001    1    1    2    0    0 -0.74140664352E+02 -0.84920166501E+02 -0.28582008902E+03  0.39610780866E+03  0.25000000000E+03 0.  0.
<mgrwt>
<rscale>  0 0.55047062E+03</rscale>
<asrwt>0</asrwt>
<pdfrwt beam="1">  1        2 0.96700842E-01 0.55047062E+03</pdfrwt>
<pdfrwt beam="2">  1       -2 0.18541776E-01 0.55047062E+03</pdfrwt>
<totfact> 0.11446221E+03</totfact>
</mgrwt>
</event>
<event>
 4    1  0.1720876E-005  0.5821287E+03  0.7818608E-02  0.9943193E-01
         -2   -1    0    0    0  501 -0.00000000000E+00  0.00000000000E+00  0.39182536849E+02  0.39182536932E+02  0.25500000000E-02 0. -1.
          2   -1    0    0  501    0  0.00000000000E+00 -0.00000000000E+00 -0.21621479533E+04  0.21621479533E+04  0.25500000000E-02 0.  1.
   -5000001    1    1    2    0    0 -0.11150916566E+03 -0.88972078656E+02 -0.12249264612E+04  0.12582905706E+04  0.25000000000E+03 0.  0.
    5000001    1    1    2    0    0  0.11150916566E+03  0.88972078656E+02 -0.89803895530E+03  0.94303991965E+03  0.25000000000E+03 0.  0.
<mgrwt>
<rscale>  0 0.58212865E+03</rscale>
<asrwt>0</asrwt>
<pdfrwt beam="1">  1        2 0.33263805E+00 0.58212865E+03</pdfrwt>
<pdfrwt beam="2">  1       -2 0.60280843E-02 0.58212865E+03</pdfrwt>
<totfact> 0.86900636E+02</totfact>
</mgrwt>
</event>
<event>
 4    1  0.1720876E-005  0.9688636E+03  0.7818608E-02  0.9343370E-01
         -2   -1    0    0    0  501 -0.00000000000E+00  0.00000000000E+00  0.13398174814E+03  0.13398174817E+03  0.25500000000E-02 0. -1.
          2   -1    0    0  501    0  0.00000000000E+00 -0.00000000000E+00 -0.17515384963E+04  0.17515384963E+04  0.25500000000E-02 0.  1.
   -5000001    1    1    2    0    0 -0.19979845479E+03  0.28699039471E+03 -0.12434695917E+04  0.13156745550E+04  0.25000000000E+03 0.  0.
    5000001    1    1    2    0    0  0.19979845479E+03 -0.28699039471E+03 -0.37408715649E+03  0.56984568950E+03  0.25000000000E+03 0.  0.
<mgrwt>
<rscale>  0 0.96886364E+03</rscale>
<asrwt>0</asrwt>
<pdfrwt beam="1">  1        2 0.26946744E+00 0.96886364E+03</pdfrwt>
<pdfrwt beam="2">  1       -2 0.20612578E-01 0.96886364E+03</pdfrwt>
<totfact> 0.18629199E+02</totfact>
</mgrwt>
</event>
<event>
 4    1  0.1720876E-005  0.7432197E+03  0.7818608E-02  0.9646048E-01
          2   -1    0    0  501    0  0.00000000000E+00  0.00000000000E+00  0.21047204743E+04  0.21047204743E+04  0.25500000000E-02 0.  1.
         -2   -1    0    0    0  501 -0.00000000000E+00 -0.00000000000E+00 -0.65611501152E+02  0.65611501201E+02  0.25500000000E-02 0. -1.
   -5000001    1    1    2    0    0  0.13406516857E+03  0.18718999766E+03  0.58074715288E+03  0.67288990201E+03  0.25000000000E+03 0.  0.
    5000001    1    1    2    0    0 -0.13406516857E+03 -0.18718999766E+03  0.14583618202E+04  0.14974420735E+04  0.25000000000E+03 0.  0.
<mgrwt>
<rscale>  0 0.74321967E+03</rscale>
<asrwt>0</asrwt>
<pdfrwt beam="1">  1        2 0.32380313E+00 0.74321967E+03</pdfrwt>
<pdfrwt beam="2">  1       -2 0.10094078E-01 0.74321967E+03</pdfrwt>
<totfact> 0.40540989E+02</totfact>
</mgrwt>
</event>
<event>
 4    1  0.1720876E-005  0.8968263E+03  0.7818608E-02  0.9429557E-01
         -2   -1    0    0    0  501 -0.00000000000E+00  0.00000000000E+00  0.11679218980E+03  0.11679218983E+03  0.25500000000E-02 0.  1.
          2   -1    0    0  501    0  0.00000000000E+00 -0.00000000000E+00 -0.17216422593E+04  0.17216422593E+04  0.25500000000E-02 0. -1.
   -5000001    1    1    2    0    0  0.31417797359E+03 -0.19953962878E+03 -0.78785650937E+03  0.90649971975E+03  0.25000000000E+03 0.  0.
    5000001    1    1    2    0    0 -0.31417797359E+03  0.19953962878E+03 -0.81699356010E+03  0.93193472936E+03  0.25000000000E+03 0.  0.
<mgrwt>
<rscale>  0 0.89682634E+03</rscale>
<asrwt>0</asrwt>
<pdfrwt beam="1">  1        2 0.26486802E+00 0.89682634E+03</pdfrwt>
<pdfrwt beam="2">  1       -2 0.17968030E-01 0.89682634E+03</pdfrwt>
<totfact> 0.24712035E+02</totfact>
</mgrwt>
</event>
<event>
 4    1  0.1720876E-005  0.5416734E+03  0.7818608E-02  0.1003440E+00
          2   -1    0    0  501    0  0.00000000000E+00  0.00000000000E+00  0.73870266570E+03  0.73870266571E+03  0.25500000000E-02 0.  1.
         -2   -1    0    0    0  501 -0.00000000000E+00 -0.00000000000E+00 -0.99299112066E+02  0.99299112098E+02  0.25500000000E-02 0. -1.
   -5000001    1    1    2    0    0  0.51671510845E+02 -0.71815465664E+02  0.40479171440E+03  0.48392534361E+03  0.25000000000E+03 0.  0.
    5000001    1    1    2    0    0 -0.51671510845E+02  0.71815465664E+02  0.23461183923E+03  0.35407643419E+03  0.25000000000E+03 0.  0.
<mgrwt>
<rscale>  0 0.54167340E+03</rscale>
<asrwt>0</asrwt>
<pdfrwt beam="1">  1        2 0.11364656E+00 0.54167340E+03</pdfrwt>
<pdfrwt beam="2">  1       -2 0.15276787E-01 0.54167340E+03</pdfrwt>
<totfact> 0.13033280E+03</totfact>
</mgrwt>
</event>
<event>
 4    1  0.1720876E-005  0.8160077E+03  0.7818608E-02  0.9537131E-01
         -2   -1    0    0    0  501 -0.00000000000E+00  0.00000000000E+00  0.51076357957E+02  0.51076358021E+02  0.25500000000E-02 0. -1.
          2   -1    0    0  501    0  0.00000000000E+00 -0.00000000000E+00 -0.32591820159E+04  0.32591820159E+04  0.25500000000E-02 0.  1.
   -5000001    1    1    2    0    0  0.11414295548E+02  0.18281158556E+03 -0.52757342203E+03  0.61186933049E+03  0.25000000000E+03 0.  0.
    5000001    1    1    2    0    0 -0.11414295548E+02 -0.18281158556E+03 -0.26805322359E+04  0.26983890434E+04  0.25000000000E+03 0.  0.
<mgrwt>
<rscale>  0 0.81600771E+03</rscale>
<asrwt>0</asrwt>
<pdfrwt beam="1">  1        2 0.50141245E+00 0.81600771E+03</pdfrwt>
<pdfrwt beam="2">  1       -2 0.78579038E-02 0.81600771E+03</pdfrwt>
<totfact> 0.12689704E+02</totfact>
</mgrwt>
</event>
<event>
 4    1  0.1720876E-005  0.1084428E+04  0.7818608E-02  0.9220504E-01
          2   -1    0    0  501    0  0.00000000000E+00  0.00000000000E+00  0.11353487990E+04  0.11353487990E+04  0.25500000000E-02 0.  1.
         -2   -1    0    0    0  501 -0.00000000000E+00 -0.00000000000E+00 -0.25894756823E+03  0.25894756824E+03  0.25500000000E-02 0. -1.
   -5000001    1    1    2    0    0 -0.48043089192E+03 -0.23010742133E+02  0.42232417776E+03  0.68716886374E+03  0.25000000000E+03 0.  0.
    5000001    1    1    2    0    0  0.48043089192E+03  0.23010742133E+02  0.45407705303E+03  0.70712750353E+03  0.25000000000E+03 0.  0.
<mgrwt>
<rscale>  0 0.10844276E+04</rscale>
<asrwt>0</asrwt>
<pdfrwt beam="1">  1        2 0.17466905E+00 0.10844276E+04</pdfrwt>
<pdfrwt beam="2">  1       -2 0.39838087E-01 0.10844276E+04</pdfrwt>
<totfact> 0.12267390E+02</totfact>
</mgrwt>
</event>
<event>
 4    1  0.1720876E-005  0.6317052E+03  0.7818608E-02  0.9841727E-01
         -2   -1    0    0    0  501 -0.00000000000E+00  0.00000000000E+00  0.12257025950E+03  0.12257025953E+03  0.25500000000E-02 0. -1.
          2   -1    0    0  501    0  0.00000000000E+00 -0.00000000000E+00 -0.81392398590E+03  0.81392398590E+03  0.25500000000E-02 0.  1.
   -5000001    1    1    2    0    0  0.77251933551E+02 -0.81792596225E+02 -0.11313444422E+03  0.29657594728E+03  0.25000000000E+03 0.  0.
    5000001    1    1    2    0    0 -0.77251933551E+02  0.81792596225E+02 -0.57821928218E+03  0.63991829816E+03  0.25000000000E+03 0.  0.
<mgrwt>
<rscale>  0 0.63170523E+03</rscale>
<asrwt>0</asrwt>
<pdfrwt beam="1">  1        2 0.12521907E+00 0.63170523E+03</pdfrwt>
<pdfrwt beam="2">  1       -2 0.18856963E-01 0.63170523E+03</pdfrwt>
<totfact> 0.80085487E+02</totfact>
</mgrwt>
</event>
<event>
 4    1  0.1720876E-005  0.6179898E+03  0.7818608E-02  0.9868770E-01
          2   -1    0    0  501    0  0.00000000000E+00  0.00000000000E+00  0.11430508250E+04  0.11430508250E+04  0.25500000000E-02 0.  1.
         -2   -1    0    0    0  501 -0.00000000000E+00 -0.00000000000E+00 -0.83528953795E+02  0.83528953834E+02  0.25500000000E-02 0. -1.
   -5000001    1    1    2    0    0 -0.28579495510E+01 -0.17936229543E+03  0.58585850617E+03  0.66174707415E+03  0.25000000000E+03 0.  0.
    5000001    1    1    2    0    0  0.28579495510E+01  0.17936229543E+03  0.47366336499E+03  0.56483270464E+03  0.25000000000E+03 0.  0.
<mgrwt>
<rscale>  0 0.61798977E+03</rscale>
<asrwt>0</asrwt>
<pdfrwt beam="1">  1        2 0.17585397E+00 0.61798977E+03</pdfrwt>
<pdfrwt beam="2">  1       -2 0.12850609E-01 0.61798977E+03</pdfrwt>
<totfact> 0.94094409E+02</totfact>
</mgrwt>
</event>
<event>
 4    1  0.1720876E-005  0.1206235E+04  0.7818608E-02  0.9107416E-01
         -2   -1    0    0    0  501 -0.00000000000E+00  0.00000000000E+00  0.31190210935E+03  0.31190210936E+03  0.25500000000E-02 0. -1.
          2   -1    0    0  501    0  0.00000000000E+00 -0.00000000000E+00 -0.11662337988E+04  0.11662337988E+04  0.25500000000E-02 0.  1.
   -5000001    1    1    2    0    0  0.33387752525E+03  0.14861044993E+03 -0.92897426805E+03  0.10291027443E+04  0.25000000000E+03 0.  0.
    5000001    1    1    2    0    0 -0.33387752525E+03 -0.14861044993E+03  0.74642578580E+02  0.44903316385E+03  0.25000000000E+03 0.  0.
<mgrwt>
<rscale>  0 0.12062351E+04</rscale>
<asrwt>0</asrwt>
<pdfrwt beam="1">  1        2 0.17942058E+00 0.12062351E+04</pdfrwt>
<pdfrwt beam="2">  1       -2 0.47984940E-01 0.12062351E+04</pdfrwt>
<totfact> 0.80524760E+01</totfact>
</mgrwt>
</event>
<event>
 4    1  0.1720876E-005  0.9009492E+03  0.7818608E-02  0.9424396E-01
         -2   -1    0    0    0  501 -0.00000000000E+00  0.00000000000E+00  0.10147189741E+03  0.10147189744E+03  0.25500000000E-02 0. -1.
          2   -1    0    0  501    0  0.00000000000E+00 -0.00000000000E+00 -0.19998380628E+04  0.19998380628E+04  0.25500000000E-02 0.  1.
   -5000001    1    1    2    0    0 -0.28939776586E+03  0.20996015787E+03 -0.68745224068E+03  0.81420201301E+03  0.25000000000E+03 0.  0.
    5000001    1    1    2    0    0  0.28939776586E+03 -0.20996015787E+03 -0.12109139247E+04  0.12871079472E+04  0.25000000000E+03 0.  0.
<mgrwt>
<rscale>  0 0.90094919E+03</rscale>
<asrwt>0</asrwt>
<pdfrwt beam="1">  1        2 0.30766737E+00 0.90094919E+03</pdfrwt>
<pdfrwt beam="2">  1       -2 0.15611063E-01 0.90094919E+03</pdfrwt>
<totfact> 0.22133793E+02</totfact>
</mgrwt>
</event>
<event>
 4    1  0.1720876E-005  0.6612394E+03  0.7818608E-02  0.9785915E-01
          2   -1    0    0  501    0  0.00000000000E+00  0.00000000000E+00  0.91979062378E+03  0.91979062379E+03  0.25500000000E-02 0.  1.
         -2   -1    0    0    0  501 -0.00000000000E+00 -0.00000000000E+00 -0.11884159908E+03  0.11884159911E+03  0.25500000000E-02 0. -1.
   -5000001    1    1    2    0    0  0.93507318395E+02 -0.17701680921E+03  0.27160890431E+03  0.41994043177E+03  0.25000000000E+03 0.  0.
    5000001    1    1    2    0    0 -0.93507318395E+02  0.17701680921E+03  0.52934012040E+03  0.61869179112E+03  0.25000000000E+03 0.  0.
<mgrwt>
<rscale>  0 0.66123941E+03</rscale>
<asrwt>0</asrwt>
<pdfrwt beam="1">  1        2 0.14150625E+00 0.66123941E+03</pdfrwt>
<pdfrwt beam="2">  1       -2 0.18283323E-01 0.66123941E+03</pdfrwt>
<totfact> 0.71445689E+02</totfact>
</mgrwt>
</event>
<event>
 4    1  0.1720876E-005  0.1309938E+04  0.7818608E-02  0.9021721E-01
         -2   -1    0    0    0  501 -0.00000000000E+00  0.00000000000E+00  0.16724455821E+03  0.16724455823E+03  0.25500000000E-02 0. -1.
          2   -1    0    0  501    0  0.00000000000E+00 -0.00000000000E+00 -0.25650110848E+04  0.25650110848E+04  0.25500000000E-02 0.  1.
   -5000001    1    1    2    0    0  0.34279811134E+03 -0.45996894586E+03 -0.16022676751E+04  0.17201289716E+04  0.25000000000E+03 0.  0.
    5000001    1    1    2    0    0 -0.34279811134E+03  0.45996894586E+03 -0.79549885150E+03  0.10121266714E+04  0.25000000000E+03 0.  0.
<mgrwt>
<rscale>  0 0.13099376E+04</rscale>
<asrwt>0</asrwt>
<pdfrwt beam="1">  1        2 0.39461706E+00 0.13099376E+04</pdfrwt>
<pdfrwt beam="2">  1       -2 0.25729934E-01 0.13099376E+04</pdfrwt>
<totfact> 0.42773162E+01</totfact>
</mgrwt>
</event>
<event>
 4    1  0.1720876E-005  0.6443290E+03  0.7818608E-02  0.9817479E-01
         -2   -1    0    0    0  501 -0.00000000000E+00  0.00000000000E+00  0.10166909757E+04  0.10166909757E+04  0.25500000000E-02 0. -1.
          2   -1    0    0  501    0  0.00000000000E+00 -0.00000000000E+00 -0.10208603972E+03  0.10208603975E+03  0.25500000000E-02 0.  1.
   -5000001    1    1    2    0    0 -0.16590692469E+03  0.62514179615E+02  0.28491551198E+03  0.41846144300E+03  0.25000000000E+03 0.  0.
    5000001    1    1    2    0    0  0.16590692469E+03 -0.62514179615E+02  0.62968942400E+03  0.70031557245E+03  0.25000000000E+03 0.  0.
<mgrwt>
<rscale>  0 0.64432897E+03</rscale>
<asrwt>0</asrwt>
<pdfrwt beam="1">  1        2 0.15705544E-01 0.64432897E+03</pdfrwt>
<pdfrwt beam="2">  1       -2 0.15641400E+00 0.64432897E+03</pdfrwt>
<totfact> 0.10322435E+02</totfact>
</mgrwt>
</event>
<event>
 4    1  0.1720876E-005  0.6209623E+03  0.7818608E-02  0.9862846E-01
         -2   -1    0    0    0  501 -0.00000000000E+00  0.00000000000E+00  0.49226832361E+02  0.49226832428E+02  0.25500000000E-02 0. -1.
          2   -1    0    0  501    0  0.00000000000E+00 -0.00000000000E+00 -0.19582518719E+04  0.19582518719E+04  0.25500000000E-02 0.  1.
   -5000001    1    1    2    0    0  0.13363892122E+02  0.15348565055E+03 -0.12804073139E+04  0.13136511440E+04  0.25000000000E+03 0.  0.
    5000001    1    1    2    0    0 -0.13363892122E+02 -0.15348565055E+03 -0.62861772560E+03  0.69382756033E+03  0.25000000000E+03 0.  0.
<mgrwt>
<rscale>  0 0.62096227E+03</rscale>
<asrwt>0</asrwt>
<pdfrwt beam="1">  1        2 0.30126946E+00 0.62096227E+03</pdfrwt>
<pdfrwt beam="2">  1       -2 0.75733604E-02 0.62096227E+03</pdfrwt>
<totfact> 0.78028889E+02</totfact>
</mgrwt>
</event>
<event>
 4    1  0.1720876E-005  0.8606932E+03  0.7818608E-02  0.9476096E-01
         -2   -1    0    0    0  501 -0.00000000000E+00  0.00000000000E+00  0.75378263200E+02  0.75378263243E+02  0.25500000000E-02 0. -1.
          2   -1    0    0  501    0  0.00000000000E+00 -0.00000000000E+00 -0.24569180675E+04  0.24569180675E+04  0.25500000000E-02 0.  1.
   -5000001    1    1    2    0    0  0.34335471466E+03 -0.69060068041E+02 -0.11730036142E+04  0.12494395672E+04  0.25000000000E+03 0.  0.
    5000001    1    1    2    0    0 -0.34335471466E+03  0.69060068041E+02 -0.12085361901E+04  0.12828567636E+04  0.25000000000E+03 0.  0.
<mgrwt>
<rscale>  0 0.86069325E+03</rscale>
<asrwt>0</asrwt>
<pdfrwt beam="1">  1        2 0.37798733E+00 0.86069325E+03</pdfrwt>
<pdfrwt beam="2">  1       -2 0.11596658E-01 0.86069325E+03</pdfrwt>
<totfact> 0.20365544E+02</totfact>
</mgrwt>
</event>
<event>
 4    1  0.1720876E-005  0.5862642E+03  0.7818608E-02  0.9934320E-01
         -2   -1    0    0    0  501 -0.00000000000E+00  0.00000000000E+00  0.67083109604E+02  0.67083109652E+02  0.25500000000E-02 0. -1.
          2   -1    0    0  501    0  0.00000000000E+00 -0.00000000000E+00 -0.12808951407E+04  0.12808951407E+04  0.25500000000E-02 0.  1.
   -5000001    1    1    2    0    0  0.44839209584E+02  0.10448451112E+03 -0.37131397826E+03  0.46184590312E+03  0.25000000000E+03 0.  0.
    5000001    1    1    2    0    0 -0.44839209584E+02 -0.10448451112E+03 -0.84249805285E+03  0.88613234725E+03  0.25000000000E+03 0.  0.
<mgrwt>
<rscale>  0 0.58626420E+03</rscale>
<asrwt>0</asrwt>
<pdfrwt beam="1">  1        2 0.19706077E+00 0.58626420E+03</pdfrwt>
<pdfrwt beam="2">  1       -2 0.10320479E-01 0.58626420E+03</pdfrwt>
<totfact> 0.11210511E+03</totfact>
</mgrwt>
</event>
<event>
 4    1  0.1720876E-005  0.6278294E+03  0.7818608E-02  0.9849294E-01
         -2   -1    0    0    0  501 -0.00000000000E+00  0.00000000000E+00  0.14913252575E+03  0.14913252577E+03  0.25500000000E-02 0. -1.
          2   -1    0    0  501    0  0.00000000000E+00 -0.00000000000E+00 -0.66077087239E+03  0.66077087240E+03  0.25500000000E-02 0.  1.
   -5000001    1    1    2    0    0  0.10981164300E+03 -0.11425252022E+03 -0.39068612005E+03  0.49015087444E+03  0.25000000000E+03 0.  0.
    5000001    1    1    2    0    0 -0.10981164300E+03  0.11425252022E+03 -0.12095222659E+03  0.31975252373E+03  0.25000000000E+03 0.  0.
<mgrwt>
<rscale>  0 0.62782937E+03</rscale>
<asrwt>0</asrwt>
<pdfrwt beam="1">  1        2 0.10165706E+00 0.62782937E+03</pdfrwt>
<pdfrwt beam="2">  1       -2 0.22943466E-01 0.62782937E+03</pdfrwt>
<totfact> 0.74092635E+02</totfact>
</mgrwt>
</event>
<event>
 4    1  0.1720876E-005  0.1242813E+04  0.7818608E-02  0.9076186E-01
         -2   -1    0    0    0  501 -0.00000000000E+00  0.00000000000E+00  0.11906641013E+03  0.11906641016E+03  0.25500000000E-02 0. -1.
          2   -1    0    0  501    0  0.00000000000E+00 -0.00000000000E+00 -0.32431139902E+04  0.32431139902E+04  0.25500000000E-02 0.  1.
   -5000001    1    1    2    0    0 -0.45906120778E+03 -0.13371439089E+03 -0.23959811358E+04  0.24559809311E+04  0.25000000000E+03 0.  0.
    5000001    1    1    2    0    0  0.45906120778E+03  0.13371439089E+03 -0.72806644426E+03  0.90619946926E+03  0.25000000000E+03 0.  0.
<mgrwt>
<rscale>  0 0.12428128E+04</rscale>
<asrwt>0</asrwt>
<pdfrwt beam="1">  1        2 0.49894055E+00 0.12428128E+04</pdfrwt>
<pdfrwt beam="2">  1       -2 0.18317912E-01 0.12428128E+04</pdfrwt>
<totfact> 0.30330492E+01</totfact>
</mgrwt>
</event>
<event>
 4    1  0.1720876E-005  0.5488063E+03  0.7818608E-02  0.1001771E+00
          2   -1    0    0  501    0  0.00000000000E+00  0.00000000000E+00  0.24432649505E+04  0.24432649505E+04  0.25500000000E-02 0.  1.
         -2   -1    0    0    0  501 -0.00000000000E+00 -0.00000000000E+00 -0.30818224854E+02  0.30818224959E+02  0.25500000000E-02 0. -1.
   -5000001    1    1    2    0    0 -0.40333293224E+02  0.10568813536E+03  0.12036248128E+04  0.12345077750E+04  0.25000000000E+03 0.  0.
    5000001    1    1    2    0    0  0.40333293224E+02 -0.10568813536E+03  0.12088219128E+04  0.12395754005E+04  0.25000000000E+03 0.  0.
<mgrwt>
<rscale>  0 0.54880630E+03</rscale>
<asrwt>0</asrwt>
<pdfrwt beam="1">  1        2 0.37588699E+00 0.54880630E+03</pdfrwt>
<pdfrwt beam="2">  1       -2 0.47412645E-02 0.54880630E+03</pdfrwt>
<totfact> 0.88602795E+02</totfact>
</mgrwt>
</event>
<event>
 4    1  0.1720876E-005  0.6906853E+03  0.7818608E-02  0.9733296E-01
          2   -1    0    0  501    0  0.00000000000E+00  0.00000000000E+00  0.31362513852E+03  0.31362513853E+03  0.25500000000E-02 0.  1.
         -2   -1    0    0    0  501 -0.00000000000E+00 -0.00000000000E+00 -0.38026776078E+03  0.38026776078E+03  0.25500000000E-02 0. -1.
   -5000001    1    1    2    0    0  0.16704586670E+02  0.22429059383E+03 -0.11227519160E+03  0.35452931098E+03  0.25000000000E+03 0.  0.
    5000001    1    1    2    0    0 -0.16704586670E+02 -0.22429059383E+03  0.45632569337E+02  0.33936358833E+03  0.25000000000E+03 0.  0.
<mgrwt>
<rscale>  0 0.69068525E+03</rscale>
<asrwt>0</asrwt>
<pdfrwt beam="1">  1        2 0.48250021E-01 0.69068525E+03</pdfrwt>
<pdfrwt beam="2">  1       -2 0.58502732E-01 0.69068525E+03</pdfrwt>
<totfact> 0.28821367E+02</totfact>
</mgrwt>
</event>
<event>
 4    1  0.1720876E-005  0.9445306E+03  0.7818608E-02  0.9371566E-01
          2   -1    0    0  501    0  0.00000000000E+00  0.00000000000E+00  0.85995379435E+03  0.85995379435E+03  0.25500000000E-02 0. -1.
         -2   -1    0    0    0  501 -0.00000000000E+00 -0.00000000000E+00 -0.25935641028E+03  0.25935641030E+03  0.25500000000E-02 0.  1.
   -5000001    1    1    2    0    0 -0.10701699492E+03  0.27977222490E+03 -0.15041882711E+02  0.39045024429E+03  0.25000000000E+03 0.  0.
    5000001    1    1    2    0    0  0.10701699492E+03 -0.27977222490E+03  0.61563926678E+03  0.72885996037E+03  0.25000000000E+03 0.  0.
<mgrwt>
<rscale>  0 0.94453063E+03</rscale>
<asrwt>0</asrwt>
<pdfrwt beam="1">  1        2 0.13230058E+00 0.94453063E+03</pdfrwt>
<pdfrwt beam="2">  1       -2 0.39900986E-01 0.94453063E+03</pdfrwt>
<totfact> 0.18568454E+02</totfact>
</mgrwt>
</event>
<event>
 4    1  0.1720876E-005  0.6049706E+03  0.7818608E-02  0.9895147E-01
         -2   -1    0    0    0  501 -0.00000000000E+00  0.00000000000E+00  0.12492238490E+03  0.12492238493E+03  0.25500000000E-02 0. -1.
          2   -1    0    0  501    0  0.00000000000E+00 -0.00000000000E+00 -0.73243360471E+03  0.73243360471E+03  0.25500000000E-02 0.  1.
   -5000001    1    1    2    0    0 -0.52930193161E+02  0.15596019436E+03 -0.24243605392E+03  0.38522776096E+03  0.25000000000E+03 0.  0.
    5000001    1    1    2    0    0  0.52930193161E+02 -0.15596019436E+03 -0.36507516589E+03  0.47212822869E+03  0.25000000000E+03 0.  0.
<mgrwt>
<rscale>  0 0.60497059E+03</rscale>
<asrwt>0</asrwt>
<pdfrwt beam="1">  1        2 0.11268209E+00 0.60497059E+03</pdfrwt>
<pdfrwt beam="2">  1       -2 0.19218829E-01 0.60497059E+03</pdfrwt>
<totfact> 0.88926022E+02</totfact>
</mgrwt>
</event>
<event>
 4    1  0.1720876E-005  0.1320830E+04  0.7818608E-02  0.9013208E-01
          2   -1    0    0  501    0  0.00000000000E+00  0.00000000000E+00  0.11838367238E+04  0.11838367238E+04  0.25500000000E-02 0.  1.
         -2   -1    0    0    0  501 -0.00000000000E+00 -0.00000000000E+00 -0.36841904663E+03  0.36841904663E+03  0.25500000000E-02 0. -1.
   -5000001    1    1    2    0    0 -0.59597292535E+03  0.23718708177E+02  0.56494896708E+03  0.85872791981E+03  0.25000000000E+03 0.  0.
    5000001    1    1    2    0    0  0.59597292535E+03 -0.23718708177E+02  0.25046871011E+03  0.69352785064E+03  0.25000000000E+03 0.  0.
<mgrwt>
<rscale>  0 0.13208300E+04</rscale>
<asrwt>0</asrwt>
<pdfrwt beam="1">  1        2 0.18212873E+00 0.13208300E+04</pdfrwt>
<pdfrwt beam="2">  1       -2 0.56679854E-01 0.13208300E+04</pdfrwt>
<totfact> 0.55345669E+01</totfact>
</mgrwt>
</event>
<event>
 4    1  0.1720876E-005  0.5605629E+03  0.7818608E-02  0.9990782E-01
         -2   -1    0    0    0  501 -0.00000000000E+00  0.00000000000E+00  0.17996657023E+03  0.17996657025E+03  0.25500000000E-02 0. -1.
          2   -1    0    0  501    0  0.00000000000E+00 -0.00000000000E+00 -0.43651272168E+03  0.43651272169E+03  0.25500000000E-02 0.  1.
   -5000001    1    1    2    0    0  0.10381598076E+03  0.88155395897E+01 -0.20759417485E+03  0.34124890188E+03  0.25000000000E+03 0.  0.
    5000001    1    1    2    0    0 -0.10381598076E+03 -0.88155395897E+01 -0.48951976597E+02  0.27523039006E+03  0.25000000000E+03 0.  0.
<mgrwt>
<rscale>  0 0.56056292E+03</rscale>
<asrwt>0</asrwt>
<pdfrwt beam="1">  1        2 0.67155803E-01 0.56056292E+03</pdfrwt>
<pdfrwt beam="2">  1       -2 0.27687165E-01 0.56056292E+03</pdfrwt>
<totfact> 0.85995268E+02</totfact>
</mgrwt>
</event>
<event>
 4    1  0.1720876E-005  0.6688633E+03  0.7818608E-02  0.9772013E-01
          2   -1    0    0  501    0  0.00000000000E+00  0.00000000000E+00  0.13108077357E+04  0.13108077357E+04  0.25500000000E-02 0.  1.
         -2   -1    0    0    0  501 -0.00000000000E+00 -0.00000000000E+00 -0.85324887501E+02  0.85324887539E+02  0.25500000000E-02 0. -1.
   -5000001    1    1    2    0    0  0.21001079574E+03  0.39326230315E+02  0.73959555146E+03  0.80941501497E+03  0.25000000000E+03 0.  0.
    5000001    1    1    2    0    0 -0.21001079574E+03 -0.39326230315E+02  0.48588729669E+03  0.58671760823E+03  0.25000000000E+03 0.  0.
<mgrwt>
<rscale>  0 0.66886328E+03</rscale>
<asrwt>0</asrwt>
<pdfrwt beam="1">  1        2 0.20166272E+00 0.66886328E+03</pdfrwt>
<pdfrwt beam="2">  1       -2 0.13126906E-01 0.66886328E+03</pdfrwt>
<totfact> 0.72317254E+02</totfact>
</mgrwt>
</event>
<event>
 4    1  0.1720876E-005  0.6001431E+03  0.7818608E-02  0.9905109E-01
          2   -1    0    0  501    0  0.00000000000E+00  0.00000000000E+00  0.19380203735E+04  0.19380203735E+04  0.25500000000E-02 0.  1.
         -2   -1    0    0    0  501 -0.00000000000E+00 -0.00000000000E+00 -0.46461297276E+02  0.46461297346E+02  0.25500000000E-02 0. -1.
   -5000001    1    1    2    0    0 -0.28623893828E+02 -0.15122652343E+03  0.11510642866E+04  0.11879132042E+04  0.25000000000E+03 0.  0.
    5000001    1    1    2    0    0  0.28623893828E+02  0.15122652343E+03  0.74049478957E+03  0.79656846665E+03  0.25000000000E+03 0.  0.
<mgrwt>
<rscale>  0 0.60014312E+03</rscale>
<asrwt>0</asrwt>
<pdfrwt beam="1">  1        2 0.29815697E+00 0.60014312E+03</pdfrwt>
<pdfrwt beam="2">  1       -2 0.71478922E-02 0.60014312E+03</pdfrwt>
<totfact> 0.87826996E+02</totfact>
</mgrwt>
</event>
<event>
 4    1  0.1720876E-005  0.7055625E+03  0.7818608E-02  0.9707767E-01
          2   -1    0    0  501    0  0.00000000000E+00  0.00000000000E+00  0.19972279807E+04  0.19972279807E+04  0.25500000000E-02 0.  1.
         -2   -1    0    0    0  501 -0.00000000000E+00 -0.00000000000E+00 -0.62313667685E+02  0.62313667737E+02  0.25500000000E-02 0. -1.
   -5000001    1    1    2    0    0 -0.16505525348E+03  0.75634599440E+02  0.14644670008E+04  0.14967055240E+04  0.25000000000E+03 0.  0.
    5000001    1    1    2    0    0  0.16505525348E+03 -0.75634599440E+02  0.47044731225E+03  0.56283612441E+03  0.25000000000E+03 0.  0.
<mgrwt>
<rscale>  0 0.70556247E+03</rscale>
<asrwt>0</asrwt>
<pdfrwt beam="1">  1        2 0.30726578E+00 0.70556247E+03</pdfrwt>
<pdfrwt beam="2">  1       -2 0.95867200E-02 0.70556247E+03</pdfrwt>
<totfact> 0.50607424E+02</totfact>
</mgrwt>
</event>
<event>
 4    1  0.1720876E-005  0.8920047E+03  0.7818608E-02  0.9435631E-01
          2   -1    0    0  501    0  0.00000000000E+00  0.00000000000E+00  0.82139785029E+03  0.82139785030E+03  0.25500000000E-02 0.  1.
         -2   -1    0    0    0  501 -0.00000000000E+00 -0.00000000000E+00 -0.24217023385E+03  0.24217023386E+03  0.25500000000E-02 0. -1.
   -5000001    1    1    2    0    0 -0.27498319619E+03 -0.16966695754E+03  0.50295666828E+03  0.64797225622E+03  0.25000000000E+03 0.  0.
    5000001    1    1    2    0    0  0.27498319619E+03  0.16966695754E+03  0.76270948159E+02  0.41559582793E+03  0.25000000000E+03 0.  0.
<mgrwt>
<rscale>  0 0.89200473E+03</rscale>
<asrwt>0</asrwt>
<pdfrwt beam="1">  1        2 0.12636890E+00 0.89200473E+03</pdfrwt>
<pdfrwt beam="2">  1       -2 0.37256958E-01 0.89200473E+03</pdfrwt>
<totfact> 0.22633860E+02</totfact>
</mgrwt>
</event>
<event>
 4    1  0.1720876E-005  0.9600197E+03  0.7818608E-02  0.9353515E-01
          2   -1    0    0  501    0  0.00000000000E+00  0.00000000000E+00  0.12108222379E+04  0.12108222379E+04  0.25500000000E-02 0.  1.
         -2   -1    0    0    0  501 -0.00000000000E+00 -0.00000000000E+00 -0.19029171545E+03  0.19029171547E+03  0.25500000000E-02 0. -1.
   -5000001    1    1    2    0    0 -0.31898878259E+03 -0.65957681065E+02  0.14743310379E+03  0.43628061979E+03  0.25000000000E+03 0.  0.
    5000001    1    1    2    0    0  0.31898878259E+03  0.65957681065E+02  0.87309741868E+03  0.96483333359E+03  0.25000000000E+03 0.  0.
<mgrwt>
<rscale>  0 0.96001967E+03</rscale>
<asrwt>0</asrwt>
<pdfrwt beam="1">  1        2 0.18628033E+00 0.96001967E+03</pdfrwt>
<pdfrwt beam="2">  1       -2 0.29275650E-01 0.96001967E+03</pdfrwt>
<totfact> 0.20002396E+02</totfact>
</mgrwt>
</event>
<event>
 4    1  0.1720876E-005  0.7854920E+03  0.7818608E-02  0.9581258E-01
          2   -1    0    0  501    0  0.00000000000E+00  0.00000000000E+00  0.71731738158E+03  0.71731738159E+03  0.25500000000E-02 0.  1.
         -2   -1    0    0    0  501 -0.00000000000E+00 -0.00000000000E+00 -0.21503648000E+03  0.21503648002E+03  0.25500000000E-02 0. -1.
   -5000001    1    1    2    0    0  0.29311837130E+03  0.42975894541E+02  0.17621937258E+03  0.42581518805E+03  0.25000000000E+03 0.  0.
    5000001    1    1    2    0    0 -0.29311837130E+03 -0.42975894541E+02  0.32606152900E+03  0.50653867355E+03  0.25000000000E+03 0.  0.
<mgrwt>
<rscale>  0 0.78549196E+03</rscale>
<asrwt>0</asrwt>
<pdfrwt beam="1">  1        2 0.11035652E+00 0.78549196E+03</pdfrwt>
<pdfrwt beam="2">  1       -2 0.33082535E-01 0.78549196E+03</pdfrwt>
<totfact> 0.34052923E+02</totfact>
</mgrwt>
</event>
<event>
 4    1  0.1720876E-005  0.6230182E+03  0.7818608E-02  0.9858769E-01
          2   -1    0    0  501    0  0.00000000000E+00  0.00000000000E+00  0.15550697884E+04  0.15550697884E+04  0.25500000000E-02 0.  1.
         -2   -1    0    0    0  501 -0.00000000000E+00 -0.00000000000E+00 -0.62401009919E+02  0.62401009971E+02  0.25500000000E-02 0. -1.
   -5000001    1    1    2    0    0 -0.11155943459E+02 -0.16564611683E+03  0.52951273824E+03  0.60864343507E+03  0.25000000000E+03 0.  0.
    5000001    1    1    2    0    0  0.11155943459E+02  0.16564611683E+03  0.96315604021E+03  0.10088273633E+04  0.25000000000E+03 0.  0.
<mgrwt>
<rscale>  0 0.62301822E+03</rscale>
<asrwt>0</asrwt>
<pdfrwt beam="1">  1        2 0.23924148E+00 0.62301822E+03</pdfrwt>
<pdfrwt beam="2">  1       -2 0.96001562E-02 0.62301822E+03</pdfrwt>
<totfact> 0.88365677E+02</totfact>
</mgrwt>
</event>
<event>
 4    1  0.1720876E-005  0.7449417E+03  0.7818608E-02  0.9643320E-01
          2   -1    0    0  501    0  0.00000000000E+00  0.00000000000E+00  0.15636000204E+04  0.15636000204E+04  0.25500000000E-02 0.  1.
         -2   -1    0    0    0  501 -0.00000000000E+00 -0.00000000000E+00 -0.88727641294E+02  0.88727641330E+02  0.25500000000E-02 0. -1.
   -5000001    1    1    2    0    0  0.12514629397E+02  0.23977339962E+03  0.43504136750E+03  0.55624535103E+03  0.25000000000E+03 0.  0.
    5000001    1    1    2    0    0 -0.12514629397E+02 -0.23977339962E+03  0.10398310116E+04  0.10960823107E+04  0.25000000000E+03 0.  0.
<mgrwt>
<rscale>  0 0.74494172E+03</rscale>
<asrwt>0</asrwt>
<pdfrwt beam="1">  1        2 0.24055385E+00 0.74494172E+03</pdfrwt>
<pdfrwt beam="2">  1       -2 0.13650406E-01 0.74494172E+03</pdfrwt>
<totfact> 0.48668878E+02</totfact>
</mgrwt>
</event>
<event>
 4    1  0.1720876E-005  0.6112150E+03  0.7818608E-02  0.9882408E-01
         -2   -1    0    0    0  501 -0.00000000000E+00  0.00000000000E+00  0.31267742820E+02  0.31267742924E+02  0.25500000000E-02 0. -1.
          2   -1    0    0  501    0  0.00000000000E+00 -0.00000000000E+00 -0.29869745845E+04  0.29869745845E+04  0.25500000000E-02 0.  1.
   -5000001    1    1    2    0    0 -0.63315516549E+02  0.14070667726E+03 -0.18936149353E+04  0.19162684433E+04  0.25000000000E+03 0.  0.
    5000001    1    1    2    0    0  0.63315516549E+02 -0.14070667726E+03 -0.10620919064E+04  0.11019738841E+04  0.25000000000E+03 0.  0.
<mgrwt>
<rscale>  0 0.61121503E+03</rscale>
<asrwt>0</asrwt>
<pdfrwt beam="1">  1        2 0.45953433E+00 0.61121503E+03</pdfrwt>
<pdfrwt beam="2">  1       -2 0.48104243E-02 0.61121503E+03</pdfrwt>
<totfact> 0.41651184E+02</totfact>
</mgrwt>
</event>
<event>
 4    1  0.1720876E-005  0.5675436E+03  0.7818608E-02  0.9975129E-01
          2   -1    0    0  501    0  0.00000000000E+00  0.00000000000E+00  0.82807365705E+03  0.82807365706E+03  0.25500000000E-02 0.  1.
         -2   -1    0    0    0  501 -0.00000000000E+00 -0.00000000000E+00 -0.97245504578E+02  0.97245504611E+02  0.25500000000E-02 0. -1.
   -5000001    1    1    2    0    0 -0.10912281826E+03  0.30315632379E+01  0.49285055101E+03  0.56331043437E+03  0.25000000000E+03 0.  0.
    5000001    1    1    2    0    0  0.10912281826E+03 -0.30315632379E+01  0.23797760147E+03  0.36200872730E+03  0.25000000000E+03 0.  0.
<mgrwt>
<rscale>  0 0.56754362E+03</rscale>
<asrwt>0</asrwt>
<pdfrwt beam="1">  1        2 0.12739595E+00 0.56754362E+03</pdfrwt>
<pdfrwt beam="2">  1       -2 0.14960847E-01 0.56754362E+03</pdfrwt>
<totfact> 0.11632821E+03</totfact>
</mgrwt>
</event>
<event>
 4    1  0.1720876E-005  0.1193485E+04  0.7818608E-02  0.9118579E-01
         -2   -1    0    0    0  501 -0.00000000000E+00  0.00000000000E+00  0.24376965211E+03  0.24376965212E+03  0.25500000000E-02 0. -1.
          2   -1    0    0  501    0  0.00000000000E+00 -0.00000000000E+00 -0.14608111084E+04  0.14608111084E+04  0.25500000000E-02 0.  1.
   -5000001    1    1    2    0    0  0.18107817573E+03 -0.50997258463E+03 -0.56966652627E+03  0.82454914586E+03  0.25000000000E+03 0.  0.
    5000001    1    1    2    0    0 -0.18107817573E+03  0.50997258463E+03 -0.64737493005E+03  0.88003161469E+03  0.25000000000E+03 0.  0.
<mgrwt>
<rscale>  0 0.11934847E+04</rscale>
<asrwt>0</asrwt>
<pdfrwt beam="1">  1        2 0.22474017E+00 0.11934847E+04</pdfrwt>
<pdfrwt beam="2">  1       -2 0.37503024E-01 0.11934847E+04</pdfrwt>
<totfact> 0.88386745E+01</totfact>
</mgrwt>
</event>
<event>
 4    1  0.1720876E-005  0.8231892E+03  0.7818608E-02  0.9527045E-01
          2   -1    0    0  501    0  0.00000000000E+00  0.00000000000E+00  0.46065408114E+03  0.46065408114E+03  0.25500000000E-02 0.  1.
         -2   -1    0    0    0  501 -0.00000000000E+00 -0.00000000000E+00 -0.36775994227E+03  0.36775994228E+03  0.25500000000E-02 0. -1.
   -5000001    1    1    2    0    0  0.19712681729E+03  0.24817095260E+03 -0.34451681800E+02  0.40513543685E+03  0.25000000000E+03 0.  0.
    5000001    1    1    2    0    0 -0.19712681729E+03 -0.24817095260E+03  0.12734582066E+03  0.42327858657E+03  0.25000000000E+03 0.  0.
<mgrwt>
<rscale>  0 0.82318921E+03</rscale>
<asrwt>0</asrwt>
<pdfrwt beam="1">  1        2 0.70869859E-01 0.82318921E+03</pdfrwt>
<pdfrwt beam="2">  1       -2 0.56578453E-01 0.82318921E+03</pdfrwt>
<totfact> 0.19976196E+02</totfact>
</mgrwt>
</event>
<event>
 4    1  0.1720876E-005  0.8765964E+03  0.7818608E-02  0.9455319E-01
         -2   -1    0    0    0  501 -0.00000000000E+00  0.00000000000E+00  0.11336458611E+03  0.11336458614E+03  0.25500000000E-02 0. -1.
          2   -1    0    0  501    0  0.00000000000E+00 -0.00000000000E+00 -0.16945797155E+04  0.16945797155E+04  0.25500000000E-02 0.  1.
   -5000001    1    1    2    0    0 -0.31487923781E+03  0.14309588575E+03 -0.58456840403E+03  0.72377177750E+03  0.25000000000E+03 0.  0.
    5000001    1    1    2    0    0  0.31487923781E+03 -0.14309588575E+03 -0.99664672535E+03  0.10841725241E+04  0.25000000000E+03 0.  0.
<mgrwt>
<rscale>  0 0.87659644E+03</rscale>
<asrwt>0</asrwt>
<pdfrwt beam="1">  1        2 0.26070455E+00 0.87659644E+03</pdfrwt>
<pdfrwt beam="2">  1       -2 0.17440707E-01 0.87659644E+03</pdfrwt>
<totfact> 0.26959649E+02</totfact>
</mgrwt>
</event>
<event>
 4    1  0.1720876E-005  0.7608470E+03  0.7818608E-02  0.9618485E-01
         -2   -1    0    0    0  501 -0.00000000000E+00  0.00000000000E+00  0.82503049759E+02  0.82503049799E+02  0.25500000000E-02 0. -1.
          2   -1    0    0  501    0  0.00000000000E+00 -0.00000000000E+00 -0.17541417572E+04  0.17541417572E+04  0.25500000000E-02 0.  1.
   -5000001    1    1    2    0    0 -0.28272155555E+03 -0.47770294225E+02 -0.84288432053E+03  0.92475264627E+03  0.25000000000E+03 0.  0.
    5000001    1    1    2    0    0  0.28272155555E+03  0.47770294225E+02 -0.82875438691E+03  0.91189216073E+03  0.25000000000E+03 0.  0.
<mgrwt>
<rscale>  0 0.76084701E+03</rscale>
<asrwt>0</asrwt>
<pdfrwt beam="1">  1        2 0.26986793E+00 0.76084701E+03</pdfrwt>
<pdfrwt beam="2">  1       -2 0.12692778E-01 0.76084701E+03</pdfrwt>
<totfact> 0.43147322E+02</totfact>
</mgrwt>
</event>
<event>
 4    1  0.1720876E-005  0.5623170E+03  0.7818608E-02  0.9986826E-01
          2   -1    0    0  501    0  0.00000000000E+00  0.00000000000E+00  0.31044124237E+04  0.31044124237E+04  0.25500000000E-02 0.  1.
         -2   -1    0    0    0  501 -0.00000000000E+00 -0.00000000000E+00 -0.25463784513E+02  0.25463784641E+02  0.25500000000E-02 0. -1.
   -5000001    1    1    2    0    0 -0.13804898556E+02 -0.12760952492E+03  0.15877813281E+04  0.16124590885E+04  0.25000000000E+03 0.  0.
    5000001    1    1    2    0    0  0.13804898556E+02  0.12760952492E+03  0.14911673111E+04  0.15174171199E+04  0.25000000000E+03 0.  0.
<mgrwt>
<rscale>  0 0.56231695E+03</rscale>
<asrwt>0</asrwt>
<pdfrwt beam="1">  1        2 0.47760222E+00 0.56231695E+03</pdfrwt>
<pdfrwt beam="2">  1       -2 0.39175028E-02 0.56231695E+03</pdfrwt>
<totfact> 0.48703690E+02</totfact>
</mgrwt>
</event>
<event>
 4    1  0.1720876E-005  0.5653832E+03  0.7818608E-02  0.9979947E-01
         -2   -1    0    0    0  501 -0.00000000000E+00  0.00000000000E+00  0.38613299653E+02  0.38613299738E+02  0.25500000000E-02 0. -1.
          2   -1    0    0  501    0  0.00000000000E+00 -0.00000000000E+00 -0.20696120817E+04  0.20696120817E+04  0.25500000000E-02 0.  1.
   -5000001    1    1    2    0    0 -0.39979451231E+02 -0.12513881557E+03 -0.10621430131E+04  0.10990477060E+04  0.25000000000E+03 0.  0.
    5000001    1    1    2    0    0  0.39979451231E+02  0.12513881557E+03 -0.96885576896E+03  0.10091776755E+04  0.25000000000E+03 0.  0.
<mgrwt>
<rscale>  0 0.56538324E+03</rscale>
<asrwt>0</asrwt>
<pdfrwt beam="1">  1        2 0.31840177E+00 0.56538324E+03</pdfrwt>
<pdfrwt beam="2">  1       -2 0.59405093E-02 0.56538324E+03</pdfrwt>
<totfact> 0.99951382E+02</totfact>
</mgrwt>
</event>
<event>
 4    1  0.1720876E-005  0.7373575E+03  0.7818608E-02  0.9655396E-01
         -2   -1    0    0    0  501 -0.00000000000E+00  0.00000000000E+00  0.45169660955E+03  0.45169660956E+03  0.25500000000E-02 0. -1.
          2   -1    0    0  501    0  0.00000000000E+00 -0.00000000000E+00 -0.30091880739E+03  0.30091880741E+03  0.25500000000E-02 0.  1.
   -5000001    1    1    2    0    0  0.21503625099E+03  0.42759288336E+02 -0.87138782924E+02  0.34374716503E+03  0.25000000000E+03 0.  0.
    5000001    1    1    2    0    0 -0.21503625099E+03 -0.42759288336E+02  0.23791658508E+03  0.40886825193E+03  0.25000000000E+03 0.  0.
<mgrwt>
<rscale>  0 0.73735746E+03</rscale>
<asrwt>0</asrwt>
<pdfrwt beam="1">  1        2 0.46295201E-01 0.73735746E+03</pdfrwt>
<pdfrwt beam="2">  1       -2 0.69491786E-01 0.73735746E+03</pdfrwt>
<totfact> 0.20857946E+02</totfact>
</mgrwt>
</event>
<event>
 4    1  0.1720876E-005  0.5765256E+03  0.7818608E-02  0.9955341E-01
         -2   -1    0    0    0  501 -0.00000000000E+00  0.00000000000E+00  0.49064423506E+03  0.49064423507E+03  0.25500000000E-02 0. -1.
          2   -1    0    0  501    0  0.00000000000E+00 -0.00000000000E+00 -0.16935989015E+03  0.16935989017E+03  0.25500000000E-02 0.  1.
   -5000001    1    1    2    0    0 -0.41169946851E+02  0.12621842292E+03  0.98259741012E+02  0.29963483027E+03  0.25000000000E+03 0.  0.
    5000001    1    1    2    0    0  0.41169946851E+02 -0.12621842292E+03  0.22302460390E+03  0.36036929497E+03  0.25000000000E+03 0.  0.
<mgrwt>
<rscale>  0 0.57652564E+03</rscale>
<asrwt>0</asrwt>
<pdfrwt beam="1">  1        2 0.26055368E-01 0.57652564E+03</pdfrwt>
<pdfrwt beam="2">  1       -2 0.75483729E-01 0.57652564E+03</pdfrwt>
<totfact> 0.33246734E+02</totfact>
</mgrwt>
</event>
<event>
 4    1  0.1720876E-005  0.1049916E+04  0.7818608E-02  0.9255431E-01
         -2   -1    0    0    0  501 -0.00000000000E+00  0.00000000000E+00  0.12428364435E+03  0.12428364438E+03  0.25500000000E-02 0. -1.
          2   -1    0    0  501    0  0.00000000000E+00 -0.00000000000E+00 -0.22173532646E+04  0.22173532646E+04  0.25500000000E-02 0.  1.
   -5000001    1    1    2    0    0 -0.33719940136E+03 -0.30583961742E+03 -0.87610302128E+03  0.10184781842E+04  0.25000000000E+03 0.  0.
    5000001    1    1    2    0    0  0.33719940136E+03  0.30583961742E+03 -0.12169665990E+04  0.13231587247E+04  0.25000000000E+03 0.  0.
<mgrwt>
<rscale>  0 0.10499157E+04</rscale>
<asrwt>0</asrwt>
<pdfrwt beam="1">  1        2 0.34113124E+00 0.10499157E+04</pdfrwt>
<pdfrwt beam="2">  1       -2 0.19120562E-01 0.10499157E+04</pdfrwt>
<totfact> 0.11693100E+02</totfact>
</mgrwt>
</event>
<event>
 4    1  0.1720876E-005  0.8517504E+03  0.7818608E-02  0.9487991E-01
          2   -1    0    0  501    0  0.00000000000E+00  0.00000000000E+00  0.68992713195E+03  0.68992713195E+03  0.25500000000E-02 0.  1.
         -2   -1    0    0    0  501 -0.00000000000E+00 -0.00000000000E+00 -0.26288239509E+03  0.26288239510E+03  0.25500000000E-02 0. -1.
   -5000001    1    1    2    0    0 -0.31612642367E+03  0.13334951460E+03  0.17555931186E+03  0.45938990060E+03  0.25000000000E+03 0.  0.
    5000001    1    1    2    0    0  0.31612642367E+03 -0.13334951460E+03  0.25148542499E+03  0.49341962646E+03  0.25000000000E+03 0.  0.
<mgrwt>
<rscale>  0 0.85175043E+03</rscale>
<asrwt>0</asrwt>
<pdfrwt beam="1">  1        2 0.10614263E+00 0.85175043E+03</pdfrwt>
<pdfrwt beam="2">  1       -2 0.40443446E-01 0.85175043E+03</pdfrwt>
<totfact> 0.24255882E+02</totfact>
</mgrwt>
</event>
<event>
 4    1  0.1720876E-005  0.7493242E+03  0.7818608E-02  0.9636411E-01
         -2   -1    0    0    0  501 -0.00000000000E+00  0.00000000000E+00  0.42703122949E+02  0.42703123025E+02  0.25500000000E-02 0. -1.
          2   -1    0    0  501    0  0.00000000000E+00 -0.00000000000E+00 -0.32871526957E+04  0.32871526957E+04  0.25500000000E-02 0.  1.
   -5000001    1    1    2    0    0 -0.14842463943E+03  0.22927381299E+03 -0.13679031737E+04  0.14171292981E+04  0.25000000000E+03 0.  0.
    5000001    1    1    2    0    0  0.14842463943E+03 -0.22927381299E+03 -0.18765463990E+04  0.19127265206E+04  0.25000000000E+03 0.  0.
<mgrwt>
<rscale>  0 0.74932419E+03</rscale>
<asrwt>0</asrwt>
<pdfrwt beam="1">  1        2 0.50571560E+00 0.74932419E+03</pdfrwt>
<pdfrwt beam="2">  1       -2 0.65697138E-02 0.74932419E+03</pdfrwt>
<totfact> 0.16313087E+02</totfact>
</mgrwt>
</event>
<event>
 4    1  0.1720876E-005  0.8755018E+03  0.7818608E-02  0.9456734E-01
          2   -1    0    0  501    0  0.00000000000E+00  0.00000000000E+00  0.88049002911E+03  0.88049002911E+03  0.25500000000E-02 0.  1.
         -2   -1    0    0    0  501 -0.00000000000E+00 -0.00000000000E+00 -0.21763547397E+03  0.21763547398E+03  0.25500000000E-02 0. -1.
   -5000001    1    1    2    0    0  0.30039958889E+03  0.14220182443E+03  0.16006935847E+03  0.44562705415E+03  0.25000000000E+03 0.  0.
    5000001    1    1    2    0    0 -0.30039958889E+03 -0.14220182443E+03  0.50278519667E+03  0.65249844894E+03  0.25000000000E+03 0.  0.
<mgrwt>
<rscale>  0 0.87550183E+03</rscale>
<asrwt>0</asrwt>
<pdfrwt beam="1">  1        2 0.13546000E+00 0.87550183E+03</pdfrwt>
<pdfrwt beam="2">  1       -2 0.33482381E-01 0.87550183E+03</pdfrwt>
<totfact> 0.25266539E+02</totfact>
</mgrwt>
</event>
<event>
 4    1  0.1720876E-005  0.1093082E+04  0.7818608E-02  0.9211961E-01
         -2   -1    0    0    0  501 -0.00000000000E+00  0.00000000000E+00  0.34583088159E+03  0.34583088160E+03  0.25500000000E-02 0. -1.
          2   -1    0    0  501    0  0.00000000000E+00 -0.00000000000E+00 -0.86373774117E+03  0.86373774118E+03  0.25500000000E-02 0.  1.
   -5000001    1    1    2    0    0  0.86372675130E+02  0.45017249895E+03 -0.43769624483E+03  0.68131748881E+03  0.25000000000E+03 0.  0.
    5000001    1    1    2    0    0 -0.86372675130E+02 -0.45017249895E+03 -0.80210614757E+02  0.52825113397E+03  0.25000000000E+03 0.  0.
<mgrwt>
<rscale>  0 0.10930822E+04</rscale>
<asrwt>0</asrwt>
<pdfrwt beam="1">  1        2 0.13288273E+00 0.10930822E+04</pdfrwt>
<pdfrwt beam="2">  1       -2 0.53204751E-01 0.10930822E+04</pdfrwt>
<totfact> 0.10271754E+02</totfact>
</mgrwt>
</event>
<event>
 4    1  0.1720876E-005  0.9758640E+03  0.7818608E-02  0.9335420E-01
          2   -1    0    0  501    0  0.00000000000E+00  0.00000000000E+00  0.80551755634E+03  0.80551755635E+03  0.25500000000E-02 0.  1.
         -2   -1    0    0    0  501 -0.00000000000E+00 -0.00000000000E+00 -0.29555856483E+03  0.29555856484E+03  0.25500000000E-02 0. -1.
   -5000001    1    1    2    0    0 -0.22989616537E+03 -0.29900722324E+03  0.49020451235E+02  0.45514895478E+03  0.25000000000E+03 0.  0.
    5000001    1    1    2    0    0  0.22989616537E+03  0.29900722324E+03  0.46093854028E+03  0.64592716641E+03  0.25000000000E+03 0.  0.
<mgrwt>
<rscale>  0 0.97586395E+03</rscale>
<asrwt>0</asrwt>
<pdfrwt beam="1">  1        2 0.12392578E+00 0.97586395E+03</pdfrwt>
<pdfrwt beam="2">  1       -2 0.45470549E-01 0.97586395E+03</pdfrwt>
<totfact> 0.15643431E+02</totfact>
</mgrwt>
</event>
<event>
 4    1  0.1720876E-005  0.6294827E+03  0.7818608E-02  0.9846059E-01
          2   -1    0    0  501    0  0.00000000000E+00  0.00000000000E+00  0.46339563693E+03  0.46339563694E+03  0.25500000000E-02 0.  1.
         -2   -1    0    0    0  501 -0.00000000000E+00 -0.00000000000E+00 -0.21377435597E+03  0.21377435598E+03  0.25500000000E-02 0. -1.
   -5000001    1    1    2    0    0  0.93721019030E+02 -0.13526256431E+03  0.22956585789E+03  0.37720030994E+03  0.25000000000E+03 0.  0.
    5000001    1    1    2    0    0 -0.93721019030E+02  0.13526256431E+03  0.20055423080E+02  0.29996968298E+03  0.25000000000E+03 0.  0.
<mgrwt>
<rscale>  0 0.62948266E+03</rscale>
<asrwt>0</asrwt>
<pdfrwt beam="1">  1        2 0.71291637E-01 0.62948266E+03</pdfrwt>
<pdfrwt beam="2">  1       -2 0.32888362E-01 0.62948266E+03</pdfrwt>
<totfact> 0.58380135E+02</totfact>
</mgrwt>
</event>
<event>
 4    1  0.1720876E-005  0.7245888E+03  0.7818608E-02  0.9676082E-01
         -2   -1    0    0    0  501 -0.00000000000E+00  0.00000000000E+00  0.94915543464E+02  0.94915543498E+02  0.25500000000E-02 0. -1.
          2   -1    0    0  501    0  0.00000000000E+00 -0.00000000000E+00 -0.13828844626E+04  0.13828844627E+04  0.25500000000E-02 0.  1.
   -5000001    1    1    2    0    0 -0.53142035315E+01  0.26215223693E+03 -0.63933624837E+03  0.73484887872E+03  0.25000000000E+03 0.  0.
    5000001    1    1    2    0    0  0.53142035315E+01 -0.26215223693E+03 -0.64863267082E+03  0.74295112743E+03  0.25000000000E+03 0.  0.
<mgrwt>
<rscale>  0 0.72458879E+03</rscale>
<asrwt>0</asrwt>
<pdfrwt beam="1">  1        2 0.21275144E+00 0.72458879E+03</pdfrwt>
<pdfrwt beam="2">  1       -2 0.14602392E-01 0.72458879E+03</pdfrwt>
<totfact> 0.54893912E+02</totfact>
</mgrwt>
</event>
<event>
 4    1  0.1720876E-005  0.8762700E+03  0.7818608E-02  0.9455741E-01
          2   -1    0    0  501    0  0.00000000000E+00  0.00000000000E+00  0.60594108503E+03  0.60594108504E+03  0.25500000000E-02 0.  1.
         -2   -1    0    0    0  501 -0.00000000000E+00 -0.00000000000E+00 -0.31680021115E+03  0.31680021116E+03  0.25500000000E-02 0. -1.
   -5000001    1    1    2    0    0 -0.57186278334E+02 -0.35406395292E+03  0.11421986489E+03  0.45186030001E+03  0.25000000000E+03 0.  0.
    5000001    1    1    2    0    0  0.57186278334E+02  0.35406395292E+03  0.17492100899E+03  0.47088099619E+03  0.25000000000E+03 0.  0.
<mgrwt>
<rscale>  0 0.87626997E+03</rscale>
<asrwt>0</asrwt>
<pdfrwt beam="1">  1        2 0.93221704E-01 0.87626997E+03</pdfrwt>
<pdfrwt beam="2">  1       -2 0.48738495E-01 0.87626997E+03</pdfrwt>
<totfact> 0.19619524E+02</totfact>
</mgrwt>
</event>
<event>
 4    1  0.1720876E-005  0.7828523E+03  0.7818608E-02  0.9585175E-01
         -2   -1    0    0    0  501 -0.00000000000E+00  0.00000000000E+00  0.72633282101E+03  0.72633282101E+03  0.25500000000E-02 0. -1.
          2   -1    0    0  501    0  0.00000000000E+00 -0.00000000000E+00 -0.21094248117E+03  0.21094248119E+03  0.25500000000E-02 0.  1.
   -5000001    1    1    2    0    0  0.25482331675E+03 -0.13269988268E+03  0.36591464198E+03  0.52814553566E+03  0.25000000000E+03 0.  0.
    5000001    1    1    2    0    0 -0.25482331675E+03  0.13269988268E+03  0.14947569786E+03  0.40912976654E+03  0.25000000000E+03 0.  0.
<mgrwt>
<rscale>  0 0.78285234E+03</rscale>
<asrwt>0</asrwt>
<pdfrwt beam="1">  1        2 0.32452690E-01 0.78285234E+03</pdfrwt>
<pdfrwt beam="2">  1       -2 0.11174351E+00 0.78285234E+03</pdfrwt>
<totfact> 0.10379766E+02</totfact>
</mgrwt>
</event>
<event>
 4    1  0.1720876E-005  0.8834503E+03  0.7818608E-02  0.9446509E-01
          2   -1    0    0  501    0  0.00000000000E+00  0.00000000000E+00  0.70173350095E+03  0.70173350096E+03  0.25500000000E-02 0.  1.
         -2   -1    0    0    0  501 -0.00000000000E+00 -0.00000000000E+00 -0.27805588087E+03  0.27805588088E+03  0.25500000000E-02 0. -1.
   -5000001    1    1    2    0    0 -0.10266814850E+03 -0.29871485483E+03  0.10829098782E+02  0.40297466743E+03  0.25000000000E+03 0.  0.
    5000001    1    1    2    0    0  0.10266814850E+03  0.29871485483E+03  0.41284852130E+03  0.57681471441E+03  0.25000000000E+03 0.  0.
<mgrwt>
<rscale>  0 0.88345034E+03</rscale>
<asrwt>0</asrwt>
<pdfrwt beam="1">  1        2 0.10795900E+00 0.88345034E+03</pdfrwt>
<pdfrwt beam="2">  1       -2 0.42777828E-01 0.88345034E+03</pdfrwt>
<totfact> 0.21230443E+02</totfact>
</mgrwt>
</event>
<event>
 4    1  0.1720876E-005  0.6043150E+03  0.7818608E-02  0.9896494E-01
          2   -1    0    0  501    0  0.00000000000E+00  0.00000000000E+00  0.90197403909E+03  0.90197403909E+03  0.25500000000E-02 0.  1.
         -2   -1    0    0    0  501 -0.00000000000E+00 -0.00000000000E+00 -0.10122149960E+03  0.10122149964E+03  0.25500000000E-02 0. -1.
   -5000001    1    1    2    0    0 -0.13896557376E+03 -0.40672947054E+02  0.25345028559E+03  0.38432117633E+03  0.25000000000E+03 0.  0.
    5000001    1    1    2    0    0  0.13896557376E+03  0.40672947054E+02  0.54730225389E+03  0.61887436239E+03  0.25000000000E+03 0.  0.
<mgrwt>
<rscale>  0 0.60431503E+03</rscale>
<asrwt>0</asrwt>
<pdfrwt beam="1">  1        2 0.13876524E+00 0.60431503E+03</pdfrwt>
<pdfrwt beam="2">  1       -2 0.15572538E-01 0.60431503E+03</pdfrwt>
<totfact> 0.96738225E+02</totfact>
</mgrwt>
</event>
<event>
 4    1  0.1720876E-005  0.8008254E+03  0.7818608E-02  0.9558823E-01
          2   -1    0    0  501    0  0.00000000000E+00  0.00000000000E+00  0.14745721486E+04  0.14745721486E+04  0.25500000000E-02 0.  1.
         -2   -1    0    0    0  501 -0.00000000000E+00 -0.00000000000E+00 -0.10873006762E+03  0.10873006765E+03  0.25500000000E-02 0. -1.
   -5000001    1    1    2    0    0  0.17788933394E+03  0.23824212391E+03  0.49096622012E+03  0.62606050349E+03  0.25000000000E+03 0.  0.
    5000001    1    1    2    0    0 -0.17788933394E+03 -0.23824212391E+03  0.87487586082E+03  0.95724171273E+03  0.25000000000E+03 0.  0.
<mgrwt>
<rscale>  0 0.80082540E+03</rscale>
<asrwt>0</asrwt>
<pdfrwt beam="1">  1        2 0.22685724E+00 0.80082540E+03</pdfrwt>
<pdfrwt beam="2">  1       -2 0.16727704E-01 0.80082540E+03</pdfrwt>
<totfact> 0.38532789E+02</totfact>
</mgrwt>
</event>
<event>
 4    1  0.1720876E-005  0.9157235E+03  0.7818608E-02  0.9406137E-01
         -2   -1    0    0    0  501 -0.00000000000E+00  0.00000000000E+00  0.89790269599E+02  0.89790269635E+02  0.25500000000E-02 0. -1.
          2   -1    0    0  501    0  0.00000000000E+00 -0.00000000000E+00 -0.23347449612E+04  0.23347449612E+04  0.25500000000E-02 0.  1.
   -5000001    1    1    2    0    0  0.12604536205E+03  0.32196550587E+03 -0.15622472499E+04  0.16194646307E+04  0.25000000000E+03 0.  0.
    5000001    1    1    2    0    0 -0.12604536205E+03 -0.32196550587E+03 -0.68270744175E+03  0.80507060019E+03  0.25000000000E+03 0.  0.
<mgrwt>
<rscale>  0 0.91572349E+03</rscale>
<asrwt>0</asrwt>
<pdfrwt beam="1">  1        2 0.35919149E+00 0.91572349E+03</pdfrwt>
<pdfrwt beam="2">  1       -2 0.13813889E-01 0.91572349E+03</pdfrwt>
<totfact> 0.17742980E+02</totfact>
</mgrwt>
</event>
<event>
 4    1  0.1720876E-005  0.8833055E+03  0.7818608E-02  0.9446694E-01
          2   -1    0    0  501    0  0.00000000000E+00  0.00000000000E+00  0.29717141207E+03  0.29717141208E+03  0.25500000000E-02 0.  1.
         -2   -1    0    0    0  501 -0.00000000000E+00 -0.00000000000E+00 -0.65637918909E+03  0.65637918910E+03  0.25500000000E-02 0. -1.
   -5000001    1    1    2    0    0 -0.96747390642E+02  0.33880945335E+03 -0.27857479820E+03  0.51405818879E+03  0.25000000000E+03 0.  0.
    5000001    1    1    2    0    0  0.96747390642E+02 -0.33880945335E+03 -0.80632978817E+02  0.43949241239E+03  0.25000000000E+03 0.  0.
<mgrwt>
<rscale>  0 0.88330545E+03</rscale>
<asrwt>0</asrwt>
<pdfrwt beam="1">  1        2 0.45718679E-01 0.88330545E+03</pdfrwt>
<pdfrwt beam="2">  1       -2 0.10098141E+00 0.88330545E+03</pdfrwt>
<totfact> 0.89910067E+01</totfact>
</mgrwt>
</event>
<event>
 4    1  0.1720876E-005  0.8828893E+03  0.7818608E-02  0.9447227E-01
          2   -1    0    0  501    0  0.00000000000E+00  0.00000000000E+00  0.93130975715E+03  0.93130975716E+03  0.25500000000E-02 0.  1.
         -2   -1    0    0    0  501 -0.00000000000E+00 -0.00000000000E+00 -0.20924655910E+03  0.20924655911E+03  0.25500000000E-02 0. -1.
   -5000001    1    1    2    0    0 -0.26815790658E+03 -0.24588067977E+03  0.35751963166E+03  0.56805480243E+03  0.25000000000E+03 0.  0.
    5000001    1    1    2    0    0  0.26815790658E+03  0.24588067977E+03  0.36454356639E+03  0.57250151383E+03  0.25000000000E+03 0.  0.
<mgrwt>
<rscale>  0 0.88288926E+03</rscale>
<asrwt>0</asrwt>
<pdfrwt beam="1">  1        2 0.14327842E+00 0.88288926E+03</pdfrwt>
<pdfrwt beam="2">  1       -2 0.32191779E-01 0.88288926E+03</pdfrwt>
<totfact> 0.25141054E+02</totfact>
</mgrwt>
</event>
<event>
 4    1  0.1720876E-005  0.8496249E+03  0.7818608E-02  0.9490841E-01
         -2   -1    0    0    0  501 -0.00000000000E+00  0.00000000000E+00  0.19204931962E+03  0.19204931964E+03  0.25500000000E-02 0. -1.
          2   -1    0    0  501    0  0.00000000000E+00 -0.00000000000E+00 -0.93968374024E+03  0.93968374025E+03  0.25500000000E-02 0.  1.
   -5000001    1    1    2    0    0 -0.46356343903E+02 -0.12466895963E+03 -0.79562220690E+03  0.84451521965E+03  0.25000000000E+03 0.  0.
    5000001    1    1    2    0    0  0.46356343903E+02  0.12466895963E+03  0.47987786280E+02  0.28721784023E+03  0.25000000000E+03 0.  0.
<mgrwt>
<rscale>  0 0.84962491E+03</rscale>
<asrwt>0</asrwt>
<pdfrwt beam="1">  1        2 0.14456673E+00 0.84962491E+03</pdfrwt>
<pdfrwt beam="2">  1       -2 0.29546050E-01 0.84962491E+03</pdfrwt>
<totfact> 0.29179579E+02</totfact>
</mgrwt>
</event>
<event>
 4    1  0.1720876E-005  0.5379062E+03  0.7818608E-02  0.1004333E+00
         -2   -1    0    0    0  501 -0.00000000000E+00  0.00000000000E+00  0.71685004157E+02  0.71685004203E+02  0.25500000000E-02 0. -1.
          2   -1    0    0  501    0  0.00000000000E+00 -0.00000000000E+00 -0.10090781234E+04  0.10090781234E+04  0.25500000000E-02 0.  1.
   -5000001    1    1    2    0    0 -0.39424166802E+02  0.80724392890E+02 -0.38428424786E+03  0.46716707470E+03  0.25000000000E+03 0.  0.
    5000001    1    1    2    0    0  0.39424166802E+02 -0.80724392890E+02 -0.55310887141E+03  0.61359605293E+03  0.25000000000E+03 0.  0.
<mgrwt>
<rscale>  0 0.53790620E+03</rscale>
<asrwt>0</asrwt>
<pdfrwt beam="1">  1        2 0.15524278E+00 0.53790620E+03</pdfrwt>
<pdfrwt beam="2">  1       -2 0.11028463E-01 0.53790620E+03</pdfrwt>
<totfact> 0.14646554E+03</totfact>
</mgrwt>
</event>
<event>
 4    1  0.1720876E-005  0.7269277E+03  0.7818608E-02  0.9672259E-01
          2   -1    0    0  501    0  0.00000000000E+00  0.00000000000E+00  0.12445376559E+04  0.12445376559E+04  0.25500000000E-02 0.  1.
         -2   -1    0    0    0  501 -0.00000000000E+00 -0.00000000000E+00 -0.10614861972E+03  0.10614861975E+03  0.25500000000E-02 0. -1.
   -5000001    1    1    2    0    0  0.26364148669E+03  0.49121828090E+01  0.58528499318E+03  0.68890455528E+03  0.25000000000E+03 0.  0.
    5000001    1    1    2    0    0 -0.26364148669E+03 -0.49121828090E+01  0.55310404304E+03  0.66178172042E+03  0.25000000000E+03 0.  0.
<mgrwt>
<rscale>  0 0.72692766E+03</rscale>
<asrwt>0</asrwt>
<pdfrwt beam="1">  1        2 0.19146733E+00 0.72692766E+03</pdfrwt>
<pdfrwt beam="2">  1       -2 0.16330557E-01 0.72692766E+03</pdfrwt>
<totfact> 0.54522782E+02</totfact>
</mgrwt>
</event>
<event>
 4    1  0.1720876E-005  0.5534470E+03  0.7818608E-02  0.1000699E+00
         -2   -1    0    0    0  501 -0.00000000000E+00  0.00000000000E+00  0.31871138728E+02  0.31871138830E+02  0.25500000000E-02 0. -1.
          2   -1    0    0  501    0  0.00000000000E+00 -0.00000000000E+00 -0.24026719074E+04  0.24026719074E+04  0.25500000000E-02 0.  1.
   -5000001    1    1    2    0    0  0.89391884272E+02  0.54957197679E+02 -0.14289203183E+04  0.14544155110E+04  0.25000000000E+03 0.  0.
    5000001    1    1    2    0    0 -0.89391884272E+02 -0.54957197679E+02 -0.94188045036E+03  0.98012753524E+03  0.25000000000E+03 0.  0.
<mgrwt>
<rscale>  0 0.55344698E+03</rscale>
<asrwt>0</asrwt>
<pdfrwt beam="1">  1        2 0.36964169E+00 0.55344698E+03</pdfrwt>
<pdfrwt beam="2">  1       -2 0.49032540E-02 0.55344698E+03</pdfrwt>
<totfact> 0.88576180E+02</totfact>
</mgrwt>
</event>
<event>
 4    1  0.1720876E-005  0.8284573E+03  0.7818608E-02  0.9519716E-01
         -2   -1    0    0    0  501 -0.00000000000E+00  0.00000000000E+00  0.24102748247E+03  0.24102748248E+03  0.25500000000E-02 0. -1.
          2   -1    0    0  501    0  0.00000000000E+00 -0.00000000000E+00 -0.71189130041E+03  0.71189130042E+03  0.25500000000E-02 0.  1.
   -5000001    1    1    2    0    0 -0.30950493834E+03  0.99746608123E+02 -0.16893019181E+03  0.44359903336E+03  0.25000000000E+03 0.  0.
    5000001    1    1    2    0    0  0.30950493834E+03 -0.99746608123E+02 -0.30193362613E+03  0.50931974955E+03  0.25000000000E+03 0.  0.
<mgrwt>
<rscale>  0 0.82845728E+03</rscale>
<asrwt>0</asrwt>
<pdfrwt beam="1">  1        2 0.10952174E+00 0.82845728E+03</pdfrwt>
<pdfrwt beam="2">  1       -2 0.37081151E-01 0.82845728E+03</pdfrwt>
<totfact> 0.27616238E+02</totfact>
</mgrwt>
</event>
<event>
 4    1  0.1720876E-005  0.5577173E+03  0.7818608E-02  0.9997233E-01
         -2   -1    0    0    0  501 -0.00000000000E+00  0.00000000000E+00  0.11939006775E+03  0.11939006778E+03  0.25500000000E-02 0. -1.
          2   -1    0    0  501    0  0.00000000000E+00 -0.00000000000E+00 -0.65132842134E+03  0.65132842134E+03  0.25500000000E-02 0.  1.
   -5000001    1    1    2    0    0 -0.30093664692E+02  0.11981586837E+03 -0.26710318811E+03  0.38614192218E+03  0.25000000000E+03 0.  0.
    5000001    1    1    2    0    0  0.30093664692E+02 -0.11981586837E+03 -0.26483516548E+03  0.38457656694E+03  0.25000000000E+03 0.  0.
<mgrwt>
<rscale>  0 0.55771729E+03</rscale>
<asrwt>0</asrwt>
<pdfrwt beam="1">  1        2 0.10020437E+00 0.55771729E+03</pdfrwt>
<pdfrwt beam="2">  1       -2 0.18367703E-01 0.55771729E+03</pdfrwt>
<totfact> 0.11140042E+03</totfact>
</mgrwt>
</event>
<event>
 4    1  0.1720876E-005  0.1034205E+04  0.7818608E-02  0.9271805E-01
         -2   -1    0    0    0  501 -0.00000000000E+00  0.00000000000E+00  0.91283317188E+02  0.91283317223E+02  0.25500000000E-02 0. -1.
          2   -1    0    0  501    0  0.00000000000E+00 -0.00000000000E+00 -0.29292884692E+04  0.29292884692E+04  0.25500000000E-02 0.  1.
   -5000001    1    1    2    0    0  0.31345616854E+03  0.90247248695E+02 -0.23356267714E+04  0.23715083282E+04  0.25000000000E+03 0.  0.
    5000001    1    1    2    0    0 -0.31345616854E+03 -0.90247248695E+02 -0.50237838065E+03  0.64906345825E+03  0.25000000000E+03 0.  0.
<mgrwt>
<rscale>  0 0.10342053E+04</rscale>
<asrwt>0</asrwt>
<pdfrwt beam="1">  1        2 0.45065969E+00 0.10342053E+04</pdfrwt>
<pdfrwt beam="2">  1       -2 0.14043589E-01 0.10342053E+04</pdfrwt>
<totfact> 0.76930850E+01</totfact>
</mgrwt>
</event>
<event>
 4    1  0.1720876E-005  0.6972641E+03  0.7818608E-02  0.9721922E-01
          2   -1    0    0  501    0  0.00000000000E+00  0.00000000000E+00  0.15837925847E+04  0.15837925847E+04  0.25500000000E-02 0.  1.
         -2   -1    0    0    0  501 -0.00000000000E+00 -0.00000000000E+00 -0.76742557838E+02  0.76742557880E+02  0.25500000000E-02 0. -1.
   -5000001    1    1    2    0    0 -0.33525615829E+02 -0.23879779252E+03  0.82480877366E+03  0.89496249404E+03  0.25000000000E+03 0.  0.
    5000001    1    1    2    0    0  0.33525615829E+02  0.23879779252E+03  0.68224125321E+03  0.76557264855E+03  0.25000000000E+03 0.  0.
<mgrwt>
<rscale>  0 0.69726406E+03</rscale>
<asrwt>0</asrwt>
<pdfrwt beam="1">  1        2 0.24366039E+00 0.69726406E+03</pdfrwt>
<pdfrwt beam="2">  1       -2 0.11806548E-01 0.69726406E+03</pdfrwt>
<totfact> 0.60537770E+02</totfact>
</mgrwt>
</event>
<event>
 4    1  0.1720876E-005  0.8639348E+03  0.7818608E-02  0.9471823E-01
          2   -1    0    0  501    0  0.00000000000E+00  0.00000000000E+00  0.23142643615E+04  0.23142643615E+04  0.25500000000E-02 0.  1.
         -2   -1    0    0    0  501 -0.00000000000E+00 -0.00000000000E+00 -0.80628578553E+02  0.80628578593E+02  0.25500000000E-02 0. -1.
   -5000001    1    1    2    0    0  0.33204940937E+03 -0.11123888929E+03  0.12229179948E+04  0.12964024540E+04  0.25000000000E+03 0.  0.
    5000001    1    1    2    0    0 -0.33204940937E+03  0.11123888929E+03  0.10107177882E+04  0.10984904861E+04  0.25000000000E+03 0.  0.
<mgrwt>
<rscale>  0 0.86393483E+03</rscale>
<asrwt>0</asrwt>
<pdfrwt beam="1">  1        2 0.35604068E+00 0.86393483E+03</pdfrwt>
<pdfrwt beam="2">  1       -2 0.12404396E-01 0.86393483E+03</pdfrwt>
<totfact> 0.21904009E+02</totfact>
</mgrwt>
</event>
<event>
 4    1  0.1720876E-005  0.1230245E+04  0.7818608E-02  0.9086787E-01
         -2   -1    0    0    0  501 -0.00000000000E+00  0.00000000000E+00  0.89070455224E+02  0.89070455261E+02  0.25500000000E-02 0. -1.
          2   -1    0    0  501    0  0.00000000000E+00 -0.00000000000E+00 -0.42480489660E+04  0.42480489660E+04  0.25500000000E-02 0.  1.
   -5000001    1    1    2    0    0  0.44326202950E+03  0.33370298962E+03 -0.23955349204E+04  0.24716242569E+04  0.25000000000E+03 0.  0.
    5000001    1    1    2    0    0 -0.44326202950E+03 -0.33370298962E+03 -0.17634435903E+04  0.18654951644E+04  0.25000000000E+03 0.  0.
<mgrwt>
<rscale>  0 0.12302449E+04</rscale>
<asrwt>0</asrwt>
<pdfrwt beam="1">  1        2 0.65354584E+00 0.12302449E+04</pdfrwt>
<pdfrwt beam="2">  1       -2 0.13703150E-01 0.12302449E+04</pdfrwt>
<totfact> 0.89000733E+00</totfact>
</mgrwt>
</event>
<event>
 4    1  0.1720876E-005  0.1317635E+04  0.7818608E-02  0.9015696E-01
         -2   -1    0    0    0  501 -0.00000000000E+00  0.00000000000E+00  0.87038247936E+03  0.87038247936E+03  0.25500000000E-02 0. -1.
          2   -1    0    0  501    0  0.00000000000E+00 -0.00000000000E+00 -0.49867797174E+03  0.49867797175E+03  0.25500000000E-02 0.  1.
   -5000001    1    1    2    0    0 -0.68893154891E+01  0.52578658408E+03 -0.13446791068E+03  0.59756222577E+03  0.25000000000E+03 0.  0.
    5000001    1    1    2    0    0  0.68893154891E+01 -0.52578658408E+03  0.50617241829E+03  0.77149822534E+03  0.25000000000E+03 0.  0.
<mgrwt>
<rscale>  0 0.13176351E+04</rscale>
<asrwt>0</asrwt>
<pdfrwt beam="1">  1        2 0.76719688E-01 0.13176351E+04</pdfrwt>
<pdfrwt beam="2">  1       -2 0.13390500E+00 0.13176351E+04</pdfrwt>
<totfact> 0.24343570E+01</totfact>
</mgrwt>
</event>
<event>
 4    1  0.1720876E-005  0.1018362E+04  0.7818608E-02  0.9288632E-01
         -2   -1    0    0    0  501 -0.00000000000E+00  0.00000000000E+00  0.59193163993E+03  0.59193163994E+03  0.25500000000E-02 0. -1.
          2   -1    0    0  501    0  0.00000000000E+00 -0.00000000000E+00 -0.43799877550E+03  0.43799877551E+03  0.25500000000E-02 0.  1.
   -5000001    1    1    2    0    0  0.16968476741E+03 -0.14985735847E+03  0.46276429813E+03  0.57262635619E+03  0.25000000000E+03 0.  0.
    5000001    1    1    2    0    0 -0.16968476741E+03  0.14985735847E+03 -0.30883143370E+03  0.45730405926E+03  0.25000000000E+03 0.  0.
<mgrwt>
<rscale>  0 0.10183621E+04</rscale>
<asrwt>0</asrwt>
<pdfrwt beam="1">  1        2 0.67384427E-01 0.10183621E+04</pdfrwt>
<pdfrwt beam="2">  1       -2 0.91066407E-01 0.10183621E+04</pdfrwt>
<totfact> 0.73617484E+01</totfact>
</mgrwt>
</event>
<event>
 4    1  0.1720876E-005  0.6181597E+03  0.7818608E-02  0.9868430E-01
          2   -1    0    0  501    0  0.00000000000E+00  0.00000000000E+00  0.20598212741E+04  0.20598212741E+04  0.25500000000E-02 0. -1.
         -2   -1    0    0    0  501 -0.00000000000E+00 -0.00000000000E+00 -0.46377988340E+02  0.46377988410E+02  0.25500000000E-02 0.  1.
   -5000001    1    1    2    0    0 -0.16217029892E+03 -0.33068255989E+02  0.12625495147E+04  0.12976609698E+04  0.25000000000E+03 0.  0.
    5000001    1    1    2    0    0  0.16217029892E+03  0.33068255989E+02  0.75089377107E+03  0.80853829275E+03  0.25000000000E+03 0.  0.
<mgrwt>
<rscale>  0 0.61815974E+03</rscale>
<asrwt>0</asrwt>
<pdfrwt beam="1">  1        2 0.31689552E+00 0.61815974E+03</pdfrwt>
<pdfrwt beam="2">  1       -2 0.71350765E-02 0.61815974E+03</pdfrwt>
<totfact> 0.75562726E+02</totfact>
</mgrwt>
</event>
<event>
 4    1  0.1720876E-005  0.6857937E+03  0.7818608E-02  0.9741840E-01
         -2   -1    0    0    0  501 -0.00000000000E+00  0.00000000000E+00  0.14875193748E+03  0.14875193750E+03  0.25500000000E-02 0. -1.
          2   -1    0    0  501    0  0.00000000000E+00 -0.00000000000E+00 -0.79043172288E+03  0.79043172289E+03  0.25500000000E-02 0.  1.
   -5000001    1    1    2    0    0  0.92509039255E+02 -0.20756564962E+03 -0.24055459955E+03  0.41473839539E+03  0.25000000000E+03 0.  0.
    5000001    1    1    2    0    0 -0.92509039255E+02  0.20756564962E+03 -0.40112518586E+03  0.52444526500E+03  0.25000000000E+03 0.  0.
<mgrwt>
<rscale>  0 0.68579370E+03</rscale>
<asrwt>0</asrwt>
<pdfrwt beam="1">  1        2 0.12160488E+00 0.68579370E+03</pdfrwt>
<pdfrwt beam="2">  1       -2 0.22884914E-01 0.68579370E+03</pdfrwt>
<totfact> 0.59174543E+02</totfact>
</mgrwt>
</event>
<event>
 4    1  0.1720876E-005  0.5152908E+03  0.7818608E-02  0.1009863E+00
          2   -1    0    0  501    0  0.00000000000E+00  0.00000000000E+00  0.11271057876E+04  0.11271057876E+04  0.25500000000E-02 0.  1.
         -2   -1    0    0    0  501 -0.00000000000E+00 -0.00000000000E+00 -0.58895218770E+02  0.58895218826E+02  0.25500000000E-02 0. -1.
   -5000001    1    1    2    0    0 -0.85510518119E+01 -0.60248883006E+02  0.50338983747E+03  0.56533563204E+03  0.25000000000E+03 0.  0.
    5000001    1    1    2    0    0  0.85510518119E+01  0.60248883006E+02  0.56482073140E+03  0.62066537442E+03  0.25000000000E+03 0.  0.
<mgrwt>
<rscale>  0 0.51529076E+03</rscale>
<asrwt>0</asrwt>
<pdfrwt beam="1">  1        2 0.17340088E+00 0.51529076E+03</pdfrwt>
<pdfrwt beam="2">  1       -2 0.90608032E-02 0.51529076E+03</pdfrwt>
<totfact> 0.17049786E+03</totfact>
</mgrwt>
</event>
<event>
 4    1  0.1720876E-005  0.7271230E+03  0.7818608E-02  0.9671940E-01
          2   -1    0    0  501    0  0.00000000000E+00  0.00000000000E+00  0.20613441854E+04  0.20613441854E+04  0.25500000000E-02 0. -1.
         -2   -1    0    0    0  501 -0.00000000000E+00 -0.00000000000E+00 -0.64121734903E+02  0.64121734953E+02  0.25500000000E-02 0.  1.
   -5000001    1    1    2    0    0  0.41593778792E+02 -0.21957700779E+03  0.58799010223E+03  0.67688733561E+03  0.25000000000E+03 0.  0.
    5000001    1    1    2    0    0 -0.41593778792E+02  0.21957700779E+03  0.14092323483E+04  0.14485785847E+04  0.25000000000E+03 0.  0.
<mgrwt>
<rscale>  0 0.72712300E+03</rscale>
<asrwt>0</asrwt>
<pdfrwt beam="1">  1        2 0.31712985E+00 0.72712300E+03</pdfrwt>
<pdfrwt beam="2">  1       -2 0.98648832E-02 0.72712300E+03</pdfrwt>
<totfact> 0.44502449E+02</totfact>
</mgrwt>
</event>
<event>
 4    1  0.1720876E-005  0.5580747E+03  0.7818608E-02  0.9996420E-01
          2   -1    0    0  501    0  0.00000000000E+00  0.00000000000E+00  0.27127610675E+03  0.27127610676E+03  0.25500000000E-02 0.  1.
         -2   -1    0    0    0  501 -0.00000000000E+00 -0.00000000000E+00 -0.28702065321E+03  0.28702065322E+03  0.25500000000E-02 0. -1.
   -5000001    1    1    2    0    0  0.91546061307E+02  0.77038251929E+02 -0.40231267742E+02  0.28006093713E+03  0.25000000000E+03 0.  0.
    5000001    1    1    2    0    0 -0.91546061307E+02 -0.77038251929E+02  0.24486721285E+02  0.27823582286E+03  0.25000000000E+03 0.  0.
<mgrwt>
<rscale>  0 0.55807471E+03</rscale>
<asrwt>0</asrwt>
<pdfrwt beam="1">  1        2 0.41734786E-01 0.55807471E+03</pdfrwt>
<pdfrwt beam="2">  1       -2 0.44157024E-01 0.55807471E+03</pdfrwt>
<totfact> 0.60163079E+02</totfact>
</mgrwt>
</event>
<event>
 4    1  0.1720876E-005  0.6493953E+03  0.7818608E-02  0.9807915E-01
          2   -1    0    0  501    0  0.00000000000E+00  0.00000000000E+00  0.19517400674E+04  0.19517400674E+04  0.25500000000E-02 0.  1.
         -2   -1    0    0    0  501 -0.00000000000E+00 -0.00000000000E+00 -0.54017727113E+02  0.54017727174E+02  0.25500000000E-02 0. -1.
   -5000001    1    1    2    0    0  0.98326183984E+02 -0.17734096361E+03  0.10802908322E+04  0.11272294079E+04  0.25000000000E+03 0.  0.
    5000001    1    1    2    0    0 -0.98326183984E+02  0.17734096361E+03  0.81743150801E+03  0.87852838664E+03  0.25000000000E+03 0.  0.
<mgrwt>
<rscale>  0 0.64939530E+03</rscale>
<asrwt>0</asrwt>
<pdfrwt beam="1">  1        2 0.30026764E+00 0.64939530E+03</pdfrwt>
<pdfrwt beam="2">  1       -2 0.83104213E-02 0.64939530E+03</pdfrwt>
<totfact> 0.67703675E+02</totfact>
</mgrwt>
</event>
<event>
 4    1  0.1720876E-005  0.6473095E+03  0.7818608E-02  0.9811841E-01
          2   -1    0    0  501    0  0.00000000000E+00  0.00000000000E+00  0.97732209790E+03  0.97732209790E+03  0.25500000000E-02 0.  1.
         -2   -1    0    0    0  501 -0.00000000000E+00 -0.00000000000E+00 -0.10718308464E+03  0.10718308467E+03  0.25500000000E-02 0. -1.
   -5000001    1    1    2    0    0 -0.57061479346E+02  0.19675853598E+03  0.40691158279E+03  0.51966043732E+03  0.25000000000E+03 0.  0.
    5000001    1    1    2    0    0  0.57061479346E+02 -0.19675853598E+03  0.46322743047E+03  0.56484474526E+03  0.25000000000E+03 0.  0.
<mgrwt>
<rscale>  0 0.64730950E+03</rscale>
<asrwt>0</asrwt>
<pdfrwt beam="1">  1        2 0.15035724E+00 0.64730950E+03</pdfrwt>
<pdfrwt beam="2">  1       -2 0.16489706E-01 0.64730950E+03</pdfrwt>
<totfact> 0.78267281E+02</totfact>
</mgrwt>
</event>
<event>
 4    1  0.1720876E-005  0.5182735E+03  0.7818608E-02  0.1009116E+00
          2   -1    0    0  501    0  0.00000000000E+00  0.00000000000E+00  0.95960719744E+02  0.95960719778E+02  0.25500000000E-02 0.  1.
         -2   -1    0    0    0  501 -0.00000000000E+00 -0.00000000000E+00 -0.69978482656E+03  0.69978482656E+03  0.25500000000E-02 0. -1.
   -5000001    1    1    2    0    0 -0.17772571524E+02 -0.55253880792E+02 -0.24691637807E+03  0.35614119869E+03  0.25000000000E+03 0.  0.
    5000001    1    1    2    0    0  0.17772571524E+02  0.55253880792E+02 -0.35690772874E+03  0.43960434765E+03  0.25000000000E+03 0.  0.
<mgrwt>
<rscale>  0 0.51827350E+03</rscale>
<asrwt>0</asrwt>
<pdfrwt beam="1">  1        2 0.14763188E-01 0.51827350E+03</pdfrwt>
<pdfrwt beam="2">  1       -2 0.10765920E+00 0.51827350E+03</pdfrwt>
<totfact> 0.28654929E+02</totfact>
</mgrwt>
</event>
<event>
 4    1  0.1720876E-005  0.5565238E+03  0.7818608E-02  0.9999951E-01
          2   -1    0    0  501    0  0.00000000000E+00  0.00000000000E+00  0.10383772647E+04  0.10383772647E+04  0.25500000000E-02 0.  1.
         -2   -1    0    0    0  501 -0.00000000000E+00 -0.00000000000E+00 -0.74567972453E+02  0.74567972497E+02  0.25500000000E-02 0. -1.
   -5000001    1    1    2    0    0  0.53219519777E+02  0.97601355776E+02  0.38049710492E+03  0.46865380484E+03  0.25000000000E+03 0.  0.
    5000001    1    1    2    0    0 -0.53219519777E+02 -0.97601355776E+02  0.58331218732E+03  0.64429143236E+03  0.25000000000E+03 0.  0.
<mgrwt>
<rscale>  0 0.55652381E+03</rscale>
<asrwt>0</asrwt>
<pdfrwt beam="1">  1        2 0.15975033E+00 0.55652381E+03</pdfrwt>
<pdfrwt beam="2">  1       -2 0.11471997E-01 0.55652381E+03</pdfrwt>
<totfact> 0.13161224E+03</totfact>
</mgrwt>
</event>
<event>
 4    1  0.1720876E-005  0.7128588E+03  0.7818608E-02  0.9695491E-01
         -2   -1    0    0    0  501 -0.00000000000E+00  0.00000000000E+00  0.21567969136E+03  0.21567969137E+03  0.25500000000E-02 0. -1.
          2   -1    0    0  501    0  0.00000000000E+00 -0.00000000000E+00 -0.58903057913E+03  0.58903057913E+03  0.25500000000E-02 0.  1.
   -5000001    1    1    2    0    0  0.21630790160E+03 -0.10797857842E+03 -0.98556822909E+02  0.36147189245E+03  0.25000000000E+03 0.  0.
    5000001    1    1    2    0    0 -0.21630790160E+03  0.10797857842E+03 -0.27479406486E+03  0.44323837805E+03  0.25000000000E+03 0.  0.
<mgrwt>
<rscale>  0 0.71285885E+03</rscale>
<asrwt>0</asrwt>
<pdfrwt beam="1">  1        2 0.90620089E-01 0.71285885E+03</pdfrwt>
<pdfrwt beam="2">  1       -2 0.33181491E-01 0.71285885E+03</pdfrwt>
<totfact> 0.43295971E+02</totfact>
</mgrwt>
</event>
<event>
 4    1  0.1720876E-005  0.1109037E+04  0.7818608E-02  0.9196428E-01
         -2   -1    0    0    0  501 -0.00000000000E+00  0.00000000000E+00  0.17910329889E+03  0.17910329890E+03  0.25500000000E-02 0. -1.
          2   -1    0    0  501    0  0.00000000000E+00 -0.00000000000E+00 -0.17168343681E+04  0.17168343681E+04  0.25500000000E-02 0.  1.
   -5000001    1    1    2    0    0  0.37790722236E+03 -0.28115467183E+03 -0.10288547757E+04  0.11588373344E+04  0.25000000000E+03 0.  0.
    5000001    1    1    2    0    0 -0.37790722236E+03  0.28115467183E+03 -0.50887629357E+03  0.73710033262E+03  0.25000000000E+03 0.  0.
<mgrwt>
<rscale>  0 0.11090369E+04</rscale>
<asrwt>0</asrwt>
<pdfrwt beam="1">  1        2 0.26412835E+00 0.11090369E+04</pdfrwt>
<pdfrwt beam="2">  1       -2 0.27554355E-01 0.11090369E+04</pdfrwt>
<totfact> 0.11436346E+02</totfact>
</mgrwt>
</event>
<event>
 4    1  0.1720876E-005  0.6029635E+03  0.7818608E-02  0.9899277E-01
         -2   -1    0    0    0  501 -0.00000000000E+00  0.00000000000E+00  0.55530633499E+02  0.55530633558E+02  0.25500000000E-02 0. -1.
          2   -1    0    0  501    0  0.00000000000E+00 -0.00000000000E+00 -0.16367764343E+04  0.16367764343E+04  0.25500000000E-02 0.  1.
   -5000001    1    1    2    0    0 -0.42482160231E+00 -0.16711082609E+03 -0.73009916708E+03  0.78960179992E+03  0.25000000000E+03 0.  0.
    5000001    1    1    2    0    0  0.42482160231E+00  0.16711082609E+03 -0.85114663372E+03  0.90270526794E+03  0.25000000000E+03 0.  0.
<mgrwt>
<rscale>  0 0.60296346E+03</rscale>
<asrwt>0</asrwt>
<pdfrwt beam="1">  1        2 0.25181172E+00 0.60296346E+03</pdfrwt>
<pdfrwt beam="2">  1       -2 0.85431756E-02 0.60296346E+03</pdfrwt>
<totfact> 0.96281057E+02</totfact>
</mgrwt>
</event>
<event>
 4    1  0.1720876E-005  0.7073203E+03  0.7818608E-02  0.9704795E-01
          2   -1    0    0  501    0  0.00000000000E+00  0.00000000000E+00  0.66502313596E+03  0.66502313596E+03  0.25500000000E-02 0. -1.
         -2   -1    0    0    0  501 -0.00000000000E+00 -0.00000000000E+00 -0.18807692265E+03  0.18807692267E+03  0.25500000000E-02 0.  1.
   -5000001    1    1    2    0    0 -0.17988158217E+03  0.17291051862E+03  0.26005099527E+03  0.43861366964E+03  0.25000000000E+03 0.  0.
    5000001    1    1    2    0    0  0.17988158217E+03 -0.17291051862E+03  0.21689521804E+03  0.41448638899E+03  0.25000000000E+03 0.  0.
<mgrwt>
<rscale>  0 0.70732031E+03</rscale>
<asrwt>0</asrwt>
<pdfrwt beam="1">  1        2 0.10231125E+00 0.70732031E+03</pdfrwt>
<pdfrwt beam="2">  1       -2 0.28934911E-01 0.70732031E+03</pdfrwt>
<totfact> 0.48210163E+02</totfact>
</mgrwt>
</event>
<event>
 4    1  0.1720876E-005  0.5335022E+03  0.7818608E-02  0.1005386E+00
         -2   -1    0    0    0  501 -0.00000000000E+00  0.00000000000E+00  0.94598533966E+02  0.94598534000E+02  0.25500000000E-02 0. -1.
          2   -1    0    0  501    0  0.00000000000E+00 -0.00000000000E+00 -0.75219094690E+03  0.75219094691E+03  0.25500000000E-02 0.  1.
   -5000001    1    1    2    0    0  0.77326042062E+02  0.48372374395E+02 -0.35793199316E+03  0.44602075637E+03  0.25000000000E+03 0.  0.
    5000001    1    1    2    0    0 -0.77326042062E+02 -0.48372374395E+02 -0.29966041977E+03  0.40076872453E+03  0.25000000000E+03 0.  0.
<mgrwt>
<rscale>  0 0.53350224E+03</rscale>
<asrwt>0</asrwt>
<pdfrwt beam="1">  1        2 0.11572168E+00 0.53350224E+03</pdfrwt>
<pdfrwt beam="2">  1       -2 0.14553621E-01 0.53350224E+03</pdfrwt>
<totfact> 0.13817905E+03</totfact>
</mgrwt>
</event>
<event>
 4    1  0.1720876E-005  0.9174072E+03  0.7818608E-02  0.9404079E-01
          2   -1    0    0  501    0  0.00000000000E+00  0.00000000000E+00  0.69342382275E+03  0.69342382275E+03  0.25500000000E-02 0.  1.
         -2   -1    0    0    0  501 -0.00000000000E+00 -0.00000000000E+00 -0.30343491254E+03  0.30343491255E+03  0.25500000000E-02 0. -1.
   -5000001    1    1    2    0    0 -0.33392609966E+03 -0.18016200468E+03  0.26323467561E+03  0.52512615857E+03  0.25000000000E+03 0.  0.
    5000001    1    1    2    0    0  0.33392609966E+03  0.18016200468E+03  0.12675423460E+03  0.47173257674E+03  0.25000000000E+03 0.  0.
<mgrwt>
<rscale>  0 0.91740721E+03</rscale>
<asrwt>0</asrwt>
<pdfrwt beam="1">  1        2 0.10668059E+00 0.91740721E+03</pdfrwt>
<pdfrwt beam="2">  1       -2 0.46682294E-01 0.91740721E+03</pdfrwt>
<totfact> 0.18078808E+02</totfact>
</mgrwt>
</event>
<event>
 4    1  0.1720876E-005  0.7838557E+03  0.7818608E-02  0.9583684E-01
          2   -1    0    0  501    0  0.00000000000E+00  0.00000000000E+00  0.48729918801E+03  0.48729918801E+03  0.25500000000E-02 0.  1.
         -2   -1    0    0    0  501 -0.00000000000E+00 -0.00000000000E+00 -0.31522199911E+03  0.31522199912E+03  0.25500000000E-02 0. -1.
   -5000001    1    1    2    0    0 -0.13048565163E+03  0.25552705970E+03  0.18200887940E+03  0.42183861334E+03  0.25000000000E+03 0.  0.
    5000001    1    1    2    0    0  0.13048565163E+03 -0.25552705970E+03 -0.99316905089E+01  0.38068257380E+03  0.25000000000E+03 0.  0.
<mgrwt>
<rscale>  0 0.78385566E+03</rscale>
<asrwt>0</asrwt>
<pdfrwt beam="1">  1        2 0.74969106E-01 0.78385566E+03</pdfrwt>
<pdfrwt beam="2">  1       -2 0.48495692E-01 0.78385566E+03</pdfrwt>
<totfact> 0.25742051E+02</totfact>
</mgrwt>
</event>
<event>
 4    1  0.1720876E-005  0.6204016E+03  0.7818608E-02  0.9863961E-01
         -2   -1    0    0    0  501 -0.00000000000E+00  0.00000000000E+00  0.10899617761E+03  0.10899617764E+03  0.25500000000E-02 0. -1.
          2   -1    0    0  501    0  0.00000000000E+00 -0.00000000000E+00 -0.88282477001E+03  0.88282477001E+03  0.25500000000E-02 0.  1.
   -5000001    1    1    2    0    0 -0.14830172421E+03 -0.80853602900E+02 -0.27170068348E+03  0.40601966443E+03  0.25000000000E+03 0.  0.
    5000001    1    1    2    0    0  0.14830172421E+03  0.80853602900E+02 -0.50212790892E+03  0.58580128322E+03  0.25000000000E+03 0.  0.
<mgrwt>
<rscale>  0 0.62040156E+03</rscale>
<asrwt>0</asrwt>
<pdfrwt beam="1">  1        2 0.13581919E+00 0.62040156E+03</pdfrwt>
<pdfrwt beam="2">  1       -2 0.16768643E-01 0.62040156E+03</pdfrwt>
<totfact> 0.87834911E+02</totfact>
</mgrwt>
</event>
