<event>
 4    1  0.1545327E-005  0.5010312E+03  0.7818608E-02  0.1013510E+00
         -1   -1    0    0    0  501 -0.00000000000E+00  0.00000000000E+00  0.11297721421E+03  0.11297721433E+03  0.50400000000E-02 0. -1.
          1   -1    0    0  501    0  0.00000000000E+00 -0.00000000000E+00 -0.55549313182E+03  0.55549313184E+03  0.50400000000E-02 0.  1.
    5000001    1    1    2    0    0 -0.13755265781E+03  0.89482193134E+02 -0.25067887052E+03  0.35371131263E+03  0.18800000000E+03 0.  0.
   -5000001    1    1    2    0    0  0.13755265781E+03 -0.89482193134E+02 -0.19183704708E+03  0.31475903354E+03  0.18800000000E+03 0.  0.
<mgrwt>
<rscale>  0 0.50103120E+03</rscale>
<asrwt>0</asrwt>
<pdfrwt beam="1">  1        1 0.79356160E-01 0.50103120E+03</pdfrwt>
<pdfrwt beam="2">  1       -1 0.16139602E-01 0.50103120E+03</pdfrwt>
<totfact> 0.12405912E+03</totfact>
</mgrwt>
</event>
<event>
 4    1  0.1545327E-005  0.4840399E+03  0.7818608E-02  0.1018031E+00
          1   -1    0    0  501    0  0.00000000000E+00  0.00000000000E+00  0.28739542609E+03  0.28739542613E+03  0.50400000000E-02 0.  1.
         -1   -1    0    0    0  501 -0.00000000000E+00 -0.00000000000E+00 -0.20380855254E+03  0.20380855260E+03  0.50400000000E-02 0. -1.
    5000001    1    1    2    0    0 -0.89925088708E+02  0.11024425199E+03 -0.13690544991E+02  0.23616042788E+03  0.18800000000E+03 0.  0.
   -5000001    1    1    2    0    0  0.89925088708E+02 -0.11024425199E+03  0.97277418540E+02  0.25504355086E+03  0.18800000000E+03 0.  0.
<mgrwt>
<rscale>  0 0.48403986E+03</rscale>
<asrwt>0</asrwt>
<pdfrwt beam="1">  1        1 0.41056489E-01 0.48403986E+03</pdfrwt>
<pdfrwt beam="2">  1       -1 0.29115508E-01 0.48403986E+03</pdfrwt>
<totfact> 0.10984941E+03</totfact>
</mgrwt>
</event>
<event>
 4    1  0.1545327E-005  0.8773717E+03  0.7818608E-02  0.9454319E-01
          1   -1    0    0  501    0  0.00000000000E+00  0.00000000000E+00  0.40280961355E+04  0.40280961355E+04  0.50400000000E-02 0. -1.
         -1   -1    0    0    0  501 -0.00000000000E+00 -0.00000000000E+00 -0.47775736367E+02  0.47775736632E+02  0.50400000000E-02 0.  1.
    5000001    1    1    2    0    0 -0.22356177274E+03 -0.31101036912E+03  0.24637769978E+04  0.25004496417E+04  0.18800000000E+03 0.  0.
   -5000001    1    1    2    0    0  0.22356177274E+03  0.31101036912E+03  0.15165434014E+04  0.15754222304E+04  0.18800000000E+03 0.  0.
<mgrwt>
<rscale>  0 0.87737166E+03</rscale>
<asrwt>0</asrwt>
<pdfrwt beam="1">  1        1 0.57544229E+00 0.87737166E+03</pdfrwt>
<pdfrwt beam="2">  1       -1 0.68251054E-02 0.87737166E+03</pdfrwt>
<totfact> 0.19558432E+01</totfact>
</mgrwt>
</event>
<event>
 4    1  0.1545327E-005  0.6290999E+03  0.7818608E-02  0.9846807E-01
          1   -1    0    0  501    0  0.00000000000E+00  0.00000000000E+00  0.67885917537E+03  0.67885917539E+03  0.50400000000E-02 0.  1.
         -1   -1    0    0    0  501 -0.00000000000E+00 -0.00000000000E+00 -0.14574697330E+03  0.14574697338E+03  0.50400000000E-02 0. -1.
    5000001    1    1    2    0    0  0.14749749978E+03 -0.19570812691E+03  0.18856259522E+03  0.36187986362E+03  0.18800000000E+03 0.  0.
   -5000001    1    1    2    0    0 -0.14749749978E+03  0.19570812691E+03  0.34454960685E+03  0.46272628514E+03  0.18800000000E+03 0.  0.
<mgrwt>
<rscale>  0 0.62909990E+03</rscale>
<asrwt>0</asrwt>
<pdfrwt beam="1">  1        1 0.96979882E-01 0.62909990E+03</pdfrwt>
<pdfrwt beam="2">  1       -1 0.20820996E-01 0.62909990E+03</pdfrwt>
<totfact> 0.61403854E+02</totfact>
</mgrwt>
</event>
<event>
 4    1  0.1545327E-005  0.6852646E+03  0.7818608E-02  0.9742769E-01
         -1   -1    0    0    0  501 -0.00000000000E+00  0.00000000000E+00  0.11559496394E+04  0.11559496394E+04  0.50400000000E-02 0. -1.
          1   -1    0    0  501    0  0.00000000000E+00 -0.00000000000E+00 -0.10155884267E+03  0.10155884279E+03  0.50400000000E-02 0.  1.
    5000001    1    1    2    0    0 -0.24072752310E+03  0.26778093769E+02  0.80782372649E+03  0.86405438473E+03  0.18800000000E+03 0.  0.
   -5000001    1    1    2    0    0  0.24072752310E+03 -0.26778093769E+02  0.24656707019E+03  0.39345409743E+03  0.18800000000E+03 0.  0.
<mgrwt>
<rscale>  0 0.68526464E+03</rscale>
<asrwt>0</asrwt>
<pdfrwt beam="1">  1        1 0.14508406E-01 0.68526464E+03</pdfrwt>
<pdfrwt beam="2">  1       -1 0.16513566E+00 0.68526464E+03</pdfrwt>
<totfact> 0.11019798E+02</totfact>
</mgrwt>
</event>
<event>
 4    1  0.1545327E-005  0.4947878E+03  0.7818608E-02  0.1015148E+00
         -1   -1    0    0    0  501 -0.00000000000E+00  0.00000000000E+00  0.23588664284E+02  0.23588664823E+02  0.50400000000E-02 0. -1.
          1   -1    0    0  501    0  0.00000000000E+00 -0.00000000000E+00 -0.25946248772E+04  0.25946248772E+04  0.50400000000E-02 0.  1.
    5000001    1    1    2    0    0  0.78284963203E+02 -0.13601997952E+03 -0.10999525914E+04  0.11268849425E+04  0.18800000000E+03 0.  0.
   -5000001    1    1    2    0    0 -0.78284963203E+02  0.13601997952E+03 -0.14710836215E+04  0.14913285995E+04  0.18800000000E+03 0.  0.
<mgrwt>
<rscale>  0 0.49478778E+03</rscale>
<asrwt>0</asrwt>
<pdfrwt beam="1">  1        1 0.37066052E+00 0.49478778E+03</pdfrwt>
<pdfrwt beam="2">  1       -1 0.33698109E-02 0.49478778E+03</pdfrwt>
<totfact> 0.56302926E+02</totfact>
</mgrwt>
</event>
<event>
 4    1  0.1545327E-005  0.5557392E+03  0.7818608E-02  0.1000174E+00
          1   -1    0    0  501    0  0.00000000000E+00  0.00000000000E+00  0.16893055803E+03  0.16893055811E+03  0.50400000000E-02 0. -1.
         -1   -1    0    0    0  501 -0.00000000000E+00 -0.00000000000E+00 -0.45706063160E+03  0.45706063162E+03  0.50400000000E-02 0.  1.
    5000001    1    1    2    0    0  0.15323367024E+03 -0.10693411936E+03 -0.23798403799E+03  0.35622446002E+03  0.18800000000E+03 0.  0.
   -5000001    1    1    2    0    0 -0.15323367024E+03  0.10693411936E+03 -0.50146035570E+02  0.26976672971E+03  0.18800000000E+03 0.  0.
<mgrwt>
<rscale>  0 0.55573917E+03</rscale>
<asrwt>0</asrwt>
<pdfrwt beam="1">  1        1 0.24132937E-01 0.55573917E+03</pdfrwt>
<pdfrwt beam="2">  1       -1 0.65294376E-01 0.55573917E+03</pdfrwt>
<totfact> 0.49192058E+02</totfact>
</mgrwt>
</event>
<event>
 4    1  0.1545327E-005  0.8854864E+03  0.7818608E-02  0.9443908E-01
          1   -1    0    0  501    0  0.00000000000E+00  0.00000000000E+00  0.63489485324E+03  0.63489485326E+03  0.50400000000E-02 0.  1.
         -1   -1    0    0    0  501 -0.00000000000E+00 -0.00000000000E+00 -0.30874647091E+03  0.30874647095E+03  0.50400000000E-02 0. -1.
    5000001    1    1    2    0    0  0.14041307879E+03 -0.33844200073E+03  0.33628738791E+03  0.53168790453E+03  0.18800000000E+03 0.  0.
   -5000001    1    1    2    0    0 -0.14041307879E+03  0.33844200073E+03 -0.10139005586E+02  0.41195341968E+03  0.18800000000E+03 0.  0.
<mgrwt>
<rscale>  0 0.88548641E+03</rscale>
<asrwt>0</asrwt>
<pdfrwt beam="1">  1        1 0.90699263E-01 0.88548641E+03</pdfrwt>
<pdfrwt beam="2">  1       -1 0.44106640E-01 0.88548641E+03</pdfrwt>
<totfact> 0.17989531E+02</totfact>
</mgrwt>
</event>
<event>
 4    1  0.1545327E-005  0.5690060E+03  0.7818608E-02  0.9971881E-01
         -1   -1    0    0    0  501 -0.00000000000E+00  0.00000000000E+00  0.25221954061E+03  0.25221954066E+03  0.50400000000E-02 0.  1.
          1   -1    0    0  501    0  0.00000000000E+00 -0.00000000000E+00 -0.32091866300E+03  0.32091866304E+03  0.50400000000E-02 0. -1.
    5000001    1    1    2    0    0  0.80203711812E+02 -0.18532683972E+03  0.35575653679E+02  0.27818752676E+03  0.18800000000E+03 0.  0.
   -5000001    1    1    2    0    0 -0.80203711812E+02  0.18532683972E+03 -0.10427477607E+03  0.29495067695E+03  0.18800000000E+03 0.  0.
<mgrwt>
<rscale>  0 0.56900600E+03</rscale>
<asrwt>0</asrwt>
<pdfrwt beam="1">  1        1 0.45845523E-01 0.56900600E+03</pdfrwt>
<pdfrwt beam="2">  1       -1 0.36031363E-01 0.56900600E+03</pdfrwt>
<totfact> 0.65633734E+02</totfact>
</mgrwt>
</event>
<event>
 4    1  0.1545327E-005  0.1210649E+04  0.7818608E-02  0.9103587E-01
         -1   -1    0    0    0  501 -0.00000000000E+00  0.00000000000E+00  0.82904451798E+03  0.82904451800E+03  0.50400000000E-02 0. -1.
          1   -1    0    0  501    0  0.00000000000E+00 -0.00000000000E+00 -0.44197562385E+03  0.44197562388E+03  0.50400000000E-02 0.  1.
    5000001    1    1    2    0    0  0.48578231782E+03  0.19115387258E+03 -0.60501311361E+02  0.55814753604E+03  0.18800000000E+03 0.  0.
   -5000001    1    1    2    0    0 -0.48578231782E+03 -0.19115387258E+03  0.44757020549E+03  0.71287260584E+03  0.18800000000E+03 0.  0.
<mgrwt>
<rscale>  0 0.12106485E+04</rscale>
<asrwt>0</asrwt>
<pdfrwt beam="1">  1        1 0.63139375E-01 0.12106485E+04</pdfrwt>
<pdfrwt beam="2">  1       -1 0.11843493E+00 0.12106485E+04</pdfrwt>
<totfact> 0.36707188E+01</totfact>
</mgrwt>
</event>
<event>
 4    1  0.1545327E-005  0.5271340E+03  0.7818608E-02  0.1006930E+00
         -1   -1    0    0    0  501 -0.00000000000E+00  0.00000000000E+00  0.50645208394E+02  0.50645208644E+02  0.50400000000E-02 0.  1.
          1   -1    0    0  501    0  0.00000000000E+00 -0.00000000000E+00 -0.13716512193E+04  0.13716512193E+04  0.50400000000E-02 0. -1.
    5000001    1    1    2    0    0 -0.54649833148E+02 -0.16037360780E+03 -0.85909378590E+03  0.89559613181E+03  0.18800000000E+03 0.  0.
   -5000001    1    1    2    0    0  0.54649833148E+02  0.16037360780E+03 -0.46191222497E+03  0.52670029611E+03  0.18800000000E+03 0.  0.
<mgrwt>
<rscale>  0 0.52713399E+03</rscale>
<asrwt>0</asrwt>
<pdfrwt beam="1">  1        1 0.19595015E+00 0.52713399E+03</pdfrwt>
<pdfrwt beam="2">  1       -1 0.72350306E-02 0.52713399E+03</pdfrwt>
<totfact> 0.10115916E+03</totfact>
</mgrwt>
</event>
<event>
 4    1  0.1545327E-005  0.6331340E+03  0.7818608E-02  0.9838952E-01
         -1   -1    0    0    0  501 -0.00000000000E+00  0.00000000000E+00  0.53310861074E+03  0.53310861077E+03  0.50400000000E-02 0. -1.
          1   -1    0    0  501    0  0.00000000000E+00 -0.00000000000E+00 -0.18798167881E+03  0.18798167888E+03  0.50400000000E-02 0.  1.
    5000001    1    1    2    0    0  0.19767353201E+03  0.16348506042E+02 -0.94096109438E+01  0.27344951944E+03  0.18800000000E+03 0.  0.
   -5000001    1    1    2    0    0 -0.19767353201E+03 -0.16348506042E+02  0.35453654288E+03  0.44764077020E+03  0.18800000000E+03 0.  0.
<mgrwt>
<rscale>  0 0.63313396E+03</rscale>
<asrwt>0</asrwt>
<pdfrwt beam="1">  1        1 0.26854525E-01 0.63313396E+03</pdfrwt>
<pdfrwt beam="2">  1       -1 0.76158374E-01 0.63313396E+03</pdfrwt>
<totfact> 0.31193993E+02</totfact>
</mgrwt>
</event>
<event>
 4    1  0.1545327E-005  0.5846196E+03  0.7818608E-02  0.9937840E-01
          1   -1    0    0  501    0  0.00000000000E+00  0.00000000000E+00  0.66947970213E+02  0.66947970402E+02  0.50400000000E-02 0. -1.
         -1   -1    0    0    0  501 -0.00000000000E+00 -0.00000000000E+00 -0.12762897934E+04  0.12762897934E+04  0.50400000000E-02 0.  1.
    5000001    1    1    2    0    0 -0.31968009346E+02  0.20834717421E+03 -0.43165314518E+03  0.51584778410E+03  0.18800000000E+03 0.  0.
   -5000001    1    1    2    0    0  0.31968009346E+02 -0.20834717421E+03 -0.77768867802E+03  0.82738997972E+03  0.18800000000E+03 0.  0.
<mgrwt>
<rscale>  0 0.58461957E+03</rscale>
<asrwt>0</asrwt>
<pdfrwt beam="1">  1        1 0.95639965E-02 0.58461957E+03</pdfrwt>
<pdfrwt beam="2">  1       -1 0.18232710E+00 0.58461957E+03</pdfrwt>
<totfact> 0.14703907E+02</totfact>
</mgrwt>
</event>
<event>
 4    1  0.1545327E-005  0.4610570E+03  0.7818608E-02  0.1024475E+00
         -1   -1    0    0    0  501 -0.00000000000E+00  0.00000000000E+00  0.80349427449E+03  0.80349427450E+03  0.50400000000E-02 0. -1.
          1   -1    0    0  501    0  0.00000000000E+00 -0.00000000000E+00 -0.66140356034E+02  0.66140356226E+02  0.50400000000E-02 0.  1.
    5000001    1    1    2    0    0  0.14929003075E+02  0.11002879429E+03  0.50817986376E+03  0.55310033867E+03  0.18800000000E+03 0.  0.
   -5000001    1    1    2    0    0 -0.14929003075E+02 -0.11002879429E+03  0.22917405470E+03  0.31653429206E+03  0.18800000000E+03 0.  0.
<mgrwt>
<rscale>  0 0.46105704E+03</rscale>
<asrwt>0</asrwt>
<pdfrwt beam="1">  1        1 0.94486230E-02 0.46105704E+03</pdfrwt>
<pdfrwt beam="2">  1       -1 0.11478489E+00 0.46105704E+03</pdfrwt>
<totfact> 0.50865613E+02</totfact>
</mgrwt>
</event>
<event>
 4    1  0.1545327E-005  0.6458590E+03  0.7818608E-02  0.9814581E-01
         -1   -1    0    0    0  501 -0.00000000000E+00  0.00000000000E+00  0.13978221838E+03  0.13978221847E+03  0.50400000000E-02 0.  1.
          1   -1    0    0  501    0  0.00000000000E+00 -0.00000000000E+00 -0.74604249905E+03  0.74604249907E+03  0.50400000000E-02 0. -1.
    5000001    1    1    2    0    0  0.20918870064E+03 -0.14280699544E+03 -0.39801216136E+03  0.50784981147E+03  0.18800000000E+03 0.  0.
   -5000001    1    1    2    0    0 -0.20918870064E+03  0.14280699544E+03 -0.20824811932E+03  0.37797490607E+03  0.18800000000E+03 0.  0.
<mgrwt>
<rscale>  0 0.64585904E+03</rscale>
<asrwt>0</asrwt>
<pdfrwt beam="1">  1        1 0.10657750E+00 0.64585904E+03</pdfrwt>
<pdfrwt beam="2">  1       -1 0.19968889E-01 0.64585904E+03</pdfrwt>
<totfact> 0.57240256E+02</totfact>
</mgrwt>
</event>
<event>
 4    1  0.1545327E-005  0.4103178E+03  0.7818608E-02  0.1040264E+00
         -1   -1    0    0    0  501 -0.00000000000E+00  0.00000000000E+00  0.40279789917E+03  0.40279789920E+03  0.50400000000E-02 0.  1.
          1   -1    0    0  501    0  0.00000000000E+00 -0.00000000000E+00 -0.10449450004E+03  0.10449450016E+03  0.50400000000E-02 0. -1.
    5000001    1    1    2    0    0  0.66338422535E+02 -0.47983210118E+02  0.15725801776E+03  0.25841296196E+03  0.18800000000E+03 0.  0.
   -5000001    1    1    2    0    0 -0.66338422535E+02  0.47983210118E+02  0.14104538137E+03  0.24887943741E+03  0.18800000000E+03 0.  0.
<mgrwt>
<rscale>  0 0.41031776E+03</rscale>
<asrwt>0</asrwt>
<pdfrwt beam="1">  1        1 0.14927786E-01 0.41031776E+03</pdfrwt>
<pdfrwt beam="2">  1       -1 0.57542557E-01 0.41031776E+03</pdfrwt>
<totfact> 0.11873277E+03</totfact>
</mgrwt>
</event>
<event>
 4    1  0.1545327E-005  0.4338626E+03  0.7818608E-02  0.1032647E+00
          1   -1    0    0  501    0  0.00000000000E+00  0.00000000000E+00  0.31910087793E+02  0.31910088191E+02  0.50400000000E-02 0. -1.
         -1   -1    0    0    0  501 -0.00000000000E+00 -0.00000000000E+00 -0.14747431827E+04  0.14747431827E+04  0.50400000000E-02 0.  1.
    5000001    1    1    2    0    0 -0.65234994959E+02 -0.76169773701E+02 -0.58002609490E+03  0.61792532701E+03  0.18800000000E+03 0.  0.
   -5000001    1    1    2    0    0  0.65234994959E+02  0.76169773701E+02 -0.86280699998E+03  0.88872794386E+03  0.18800000000E+03 0.  0.
<mgrwt>
<rscale>  0 0.43386258E+03</rscale>
<asrwt>0</asrwt>
<pdfrwt beam="1">  1        1 0.45585849E-02 0.43386258E+03</pdfrwt>
<pdfrwt beam="2">  1       -1 0.21067755E+00 0.43386258E+03</pdfrwt>
<totfact> 0.26691097E+02</totfact>
</mgrwt>
</event>
<event>
 4    1  0.1545327E-005  0.4275449E+03  0.7818608E-02  0.1034638E+00
         -1   -1    0    0    0  501 -0.00000000000E+00  0.00000000000E+00  0.45961204721E+03  0.45961204724E+03  0.50400000000E-02 0. -1.
          1   -1    0    0  501    0  0.00000000000E+00 -0.00000000000E+00 -0.99428751603E+02  0.99428751731E+02  0.50400000000E-02 0.  1.
    5000001    1    1    2    0    0  0.83114084436E+02  0.28704053534E+02  0.11312745904E+03  0.23637617416E+03  0.18800000000E+03 0.  0.
   -5000001    1    1    2    0    0 -0.83114084436E+02 -0.28704053534E+02  0.24705583657E+03  0.32266462481E+03  0.18800000000E+03 0.  0.
<mgrwt>
<rscale>  0 0.42754486E+03</rscale>
<asrwt>0</asrwt>
<pdfrwt beam="1">  1        1 0.14204107E-01 0.42754486E+03</pdfrwt>
<pdfrwt beam="2">  1       -1 0.65658865E-01 0.42754486E+03</pdfrwt>
<totfact> 0.98000009E+02</totfact>
</mgrwt>
</event>
<event>
 4    1  0.1545327E-005  0.5196215E+03  0.7818608E-02  0.1008781E+00
         -1   -1    0    0    0  501 -0.00000000000E+00  0.00000000000E+00  0.13883458360E+04  0.13883458360E+04  0.50400000000E-02 0. -1.
          1   -1    0    0  501    0  0.00000000000E+00 -0.00000000000E+00 -0.48620177918E+02  0.48620178179E+02  0.50400000000E-02 0.  1.
    5000001    1    1    2    0    0 -0.65018207366E+02 -0.14951508866E+03  0.87635378002E+03  0.91100059099E+03  0.18800000000E+03 0.  0.
   -5000001    1    1    2    0    0  0.65018207366E+02  0.14951508866E+03  0.46337187808E+03  0.52596542322E+03  0.18800000000E+03 0.  0.
<mgrwt>
<rscale>  0 0.51962148E+03</rscale>
<asrwt>0</asrwt>
<pdfrwt beam="1">  1        1 0.69457388E-02 0.51962148E+03</pdfrwt>
<pdfrwt beam="2">  1       -1 0.19833515E+00 0.51962148E+03</pdfrwt>
<totfact> 0.17814789E+02</totfact>
</mgrwt>
</event>
<event>
 4    1  0.1545327E-005  0.5976728E+03  0.7818608E-02  0.9910246E-01
         -1   -1    0    0    0  501 -0.00000000000E+00  0.00000000000E+00  0.94159687879E+03  0.94159687881E+03  0.50400000000E-02 0. -1.
          1   -1    0    0  501    0  0.00000000000E+00 -0.00000000000E+00 -0.94842268921E+02  0.94842269055E+02  0.50400000000E-02 0.  1.
    5000001    1    1    2    0    0 -0.11365781394E+03 -0.36748700713E+02  0.77896219844E+02  0.23596691874E+03  0.18800000000E+03 0.  0.
   -5000001    1    1    2    0    0  0.11365781394E+03  0.36748700713E+02  0.76885839003E+03  0.80047222912E+03  0.18800000000E+03 0.  0.
<mgrwt>
<rscale>  0 0.59767277E+03</rscale>
<asrwt>0</asrwt>
<pdfrwt beam="1">  1        1 0.13548896E-01 0.59767277E+03</pdfrwt>
<pdfrwt beam="2">  1       -1 0.13451383E+00 0.59767277E+03</pdfrwt>
<totfact> 0.21005090E+02</totfact>
</mgrwt>
</event>
<event>
 4    1  0.1545327E-005  0.5447244E+03  0.7818608E-02  0.1002722E+00
          1   -1    0    0  501    0  0.00000000000E+00  0.00000000000E+00  0.10483590089E+04  0.10483590089E+04  0.50400000000E-02 0. -1.
         -1   -1    0    0    0  501 -0.00000000000E+00 -0.00000000000E+00 -0.70759304546E+02  0.70759304726E+02  0.50400000000E-02 0.  1.
    5000001    1    1    2    0    0 -0.19362033028E+03 -0.17265806979E+01  0.41344427164E+03  0.49373270008E+03  0.18800000000E+03 0.  0.
   -5000001    1    1    2    0    0  0.19362033028E+03  0.17265806979E+01  0.56415543267E+03  0.62538561351E+03  0.18800000000E+03 0.  0.
<mgrwt>
<rscale>  0 0.54472435E+03</rscale>
<asrwt>0</asrwt>
<pdfrwt beam="1">  1        1 0.14976557E+00 0.54472435E+03</pdfrwt>
<pdfrwt beam="2">  1       -1 0.10108473E-01 0.54472435E+03</pdfrwt>
<totfact> 0.99712905E+02</totfact>
</mgrwt>
</event>
<event>
 4    1  0.1545327E-005  0.6865637E+03  0.7818608E-02  0.9740490E-01
          1   -1    0    0  501    0  0.00000000000E+00  0.00000000000E+00  0.28246594314E+03  0.28246594319E+03  0.50400000000E-02 0. -1.
         -1   -1    0    0    0  501 -0.00000000000E+00 -0.00000000000E+00 -0.41719158042E+03  0.41719158045E+03  0.50400000000E-02 0.  1.
    5000001    1    1    2    0    0 -0.25331483051E+03 -0.49884556075E+02  0.60900777307E+02  0.32513039995E+03  0.18800000000E+03 0.  0.
   -5000001    1    1    2    0    0  0.25331483051E+03  0.49884556075E+02 -0.19562641458E+03  0.37452712368E+03  0.18800000000E+03 0.  0.
<mgrwt>
<rscale>  0 0.68656366E+03</rscale>
<asrwt>0</asrwt>
<pdfrwt beam="1">  1        1 0.40352277E-01 0.68656366E+03</pdfrwt>
<pdfrwt beam="2">  1       -1 0.59598797E-01 0.68656366E+03</pdfrwt>
<totfact> 0.30191061E+02</totfact>
</mgrwt>
</event>
<event>
 4    1  0.1545327E-005  0.1107036E+04  0.7818608E-02  0.9198361E-01
         -1   -1    0    0    0  501 -0.00000000000E+00  0.00000000000E+00  0.20278662003E+03  0.20278662009E+03  0.50400000000E-02 0.  1.
          1   -1    0    0  501    0  0.00000000000E+00 -0.00000000000E+00 -0.15108601636E+04  0.15108601636E+04  0.50400000000E-02 0. -1.
    5000001    1    1    2    0    0  0.10656218352E+03  0.34238465659E+03 -0.12382872842E+04  0.13027978163E+04  0.18800000000E+03 0.  0.
   -5000001    1    1    2    0    0 -0.10656218352E+03 -0.34238465659E+03 -0.69786259436E+02  0.41084896742E+03  0.18800000000E+03 0.  0.
<mgrwt>
<rscale>  0 0.11070361E+04</rscale>
<asrwt>0</asrwt>
<pdfrwt beam="1">  1        1 0.21583716E+00 0.11070361E+04</pdfrwt>
<pdfrwt beam="2">  1       -1 0.28969518E-01 0.11070361E+04</pdfrwt>
<totfact> 0.82563079E+01</totfact>
</mgrwt>
</event>
<event>
 4    1  0.1545327E-005  0.5393424E+03  0.7818608E-02  0.1003991E+00
          1   -1    0    0  501    0  0.00000000000E+00  0.00000000000E+00  0.14889043213E+03  0.14889043222E+03  0.50400000000E-02 0.  1.
         -1   -1    0    0    0  501 -0.00000000000E+00 -0.00000000000E+00 -0.48842994233E+03  0.48842994235E+03  0.50400000000E-02 0. -1.
    5000001    1    1    2    0    0  0.18605131895E+03  0.46705488361E+02 -0.19827817543E+03  0.33384836494E+03  0.18800000000E+03 0.  0.
   -5000001    1    1    2    0    0 -0.18605131895E+03 -0.46705488361E+02 -0.14126133477E+03  0.30347200962E+03  0.18800000000E+03 0.  0.
<mgrwt>
<rscale>  0 0.53934236E+03</rscale>
<asrwt>0</asrwt>
<pdfrwt beam="1">  1        1 0.21270062E-01 0.53934236E+03</pdfrwt>
<pdfrwt beam="2">  1       -1 0.69775705E-01 0.53934236E+03</pdfrwt>
<totfact> 0.50775480E+02</totfact>
</mgrwt>
</event>
<event>
 4    1  0.1545327E-005  0.5661212E+03  0.7818608E-02  0.9978299E-01
         -1   -1    0    0    0  501 -0.00000000000E+00  0.00000000000E+00  0.39196401834E+03  0.39196401838E+03  0.50400000000E-02 0. -1.
          1   -1    0    0  501    0  0.00000000000E+00 -0.00000000000E+00 -0.20441493095E+03  0.20441493101E+03  0.50400000000E-02 0.  1.
    5000001    1    1    2    0    0  0.61063079980E+02 -0.17116284524E+03  0.20798437747E+03  0.33410615169E+03  0.18800000000E+03 0.  0.
   -5000001    1    1    2    0    0 -0.61063079980E+02  0.17116284524E+03 -0.20435290071E+02  0.26227279769E+03  0.18800000000E+03 0.  0.
<mgrwt>
<rscale>  0 0.56612118E+03</rscale>
<asrwt>0</asrwt>
<pdfrwt beam="1">  1        1 0.29202133E-01 0.56612118E+03</pdfrwt>
<pdfrwt beam="2">  1       -1 0.55994860E-01 0.56612118E+03</pdfrwt>
<totfact> 0.51921538E+02</totfact>
</mgrwt>
</event>
<event>
 4    1  0.1545327E-005  0.6404508E+03  0.7818608E-02  0.9824864E-01
         -1   -1    0    0    0  501 -0.00000000000E+00  0.00000000000E+00  0.17196081734E+03  0.17196081742E+03  0.50400000000E-02 0. -1.
          1   -1    0    0  501    0  0.00000000000E+00 -0.00000000000E+00 -0.59632372846E+03  0.59632372849E+03  0.50400000000E-02 0.  1.
    5000001    1    1    2    0    0 -0.21598153800E+03  0.58360322141E+02 -0.55100938093E+02  0.29737865649E+03  0.18800000000E+03 0.  0.
   -5000001    1    1    2    0    0  0.21598153800E+03 -0.58360322141E+02 -0.36926197303E+03  0.47090588941E+03  0.18800000000E+03 0.  0.
<mgrwt>
<rscale>  0 0.64045083E+03</rscale>
<asrwt>0</asrwt>
<pdfrwt beam="1">  1        1 0.85189103E-01 0.64045083E+03</pdfrwt>
<pdfrwt beam="2">  1       -1 0.24565831E-01 0.64045083E+03</pdfrwt>
<totfact> 0.55915303E+02</totfact>
</mgrwt>
</event>
<event>
 4    1  0.1545327E-005  0.6412739E+03  0.7818608E-02  0.9823292E-01
         -1   -1    0    0    0  501 -0.00000000000E+00  0.00000000000E+00  0.45275206582E+02  0.45275206863E+02  0.50400000000E-02 0. -1.
          1   -1    0    0  501    0  0.00000000000E+00 -0.00000000000E+00 -0.22707362767E+04  0.22707362767E+04  0.50400000000E-02 0.  1.
    5000001    1    1    2    0    0 -0.13211831396E+03  0.22242908172E+03 -0.11961970194E+04  0.12382088897E+04  0.18800000000E+03 0.  0.
   -5000001    1    1    2    0    0  0.13211831396E+03 -0.22242908172E+03 -0.10292640507E+04  0.10778025938E+04  0.18800000000E+03 0.  0.
<mgrwt>
<rscale>  0 0.64127390E+03</rscale>
<asrwt>0</asrwt>
<pdfrwt beam="1">  1        1 0.32439082E+00 0.64127390E+03</pdfrwt>
<pdfrwt beam="2">  1       -1 0.64678881E-02 0.64127390E+03</pdfrwt>
<totfact> 0.32689540E+02</totfact>
</mgrwt>
</event>
<event>
 4    1  0.1545327E-005  0.4203862E+03  0.7818608E-02  0.1036941E+00
          1   -1    0    0  501    0  0.00000000000E+00  0.00000000000E+00  0.11021345649E+03  0.11021345661E+03  0.50400000000E-02 0.  1.
         -1   -1    0    0    0  501 -0.00000000000E+00 -0.00000000000E+00 -0.40086891885E+03  0.40086891889E+03  0.50400000000E-02 0. -1.
    5000001    1    1    2    0    0  0.25920863439E+02  0.68549167064E+02 -0.21690474596E+03  0.29624744436E+03  0.18800000000E+03 0.  0.
   -5000001    1    1    2    0    0 -0.25920863439E+02 -0.68549167064E+02 -0.73750716403E+02  0.21483493114E+03  0.18800000000E+03 0.  0.
<mgrwt>
<rscale>  0 0.42038625E+03</rscale>
<asrwt>0</asrwt>
<pdfrwt beam="1">  1        1 0.15744780E-01 0.42038625E+03</pdfrwt>
<pdfrwt beam="2">  1       -1 0.57266988E-01 0.42038625E+03</pdfrwt>
<totfact> 0.11166093E+03</totfact>
</mgrwt>
</event>
<event>
 4    1  0.1545327E-005  0.4382777E+03  0.7818608E-02  0.1031277E+00
          1   -1    0    0  501    0  0.00000000000E+00  0.00000000000E+00  0.69813068633E+03  0.69813068635E+03  0.50400000000E-02 0.  1.
         -1   -1    0    0    0  501 -0.00000000000E+00 -0.00000000000E+00 -0.68786327141E+02  0.68786327326E+02  0.50400000000E-02 0. -1.
    5000001    1    1    2    0    0  0.97386818513E+02  0.53834323714E+02  0.28459122079E+03  0.35877359125E+03  0.18800000000E+03 0.  0.
   -5000001    1    1    2    0    0 -0.97386818513E+02 -0.53834323714E+02  0.34475313840E+03  0.40814342242E+03  0.18800000000E+03 0.  0.
<mgrwt>
<rscale>  0 0.43827775E+03</rscale>
<asrwt>0</asrwt>
<pdfrwt beam="1">  1        1 0.99732957E-01 0.43827775E+03</pdfrwt>
<pdfrwt beam="2">  1       -1 0.98266180E-02 0.43827775E+03</pdfrwt>
<totfact> 0.19819117E+03</totfact>
</mgrwt>
</event>
<event>
 4    1  0.1545327E-005  0.4950835E+03  0.7818608E-02  0.1015070E+00
          1   -1    0    0  501    0  0.00000000000E+00  0.00000000000E+00  0.16332335461E+04  0.16332335461E+04  0.50400000000E-02 0.  1.
         -1   -1    0    0    0  501 -0.00000000000E+00 -0.00000000000E+00 -0.37518776473E+02  0.37518776811E+02  0.50400000000E-02 0. -1.
    5000001    1    1    2    0    0  0.60688635575E+02 -0.14746466048E+03  0.72209673015E+03  0.76301810219E+03  0.18800000000E+03 0.  0.
   -5000001    1    1    2    0    0 -0.60688635575E+02  0.14746466048E+03  0.87361803949E+03  0.90773422074E+03  0.18800000000E+03 0.  0.
<mgrwt>
<rscale>  0 0.49508353E+03</rscale>
<asrwt>0</asrwt>
<pdfrwt beam="1">  1        1 0.23331908E+00 0.49508353E+03</pdfrwt>
<pdfrwt beam="2">  1       -1 0.53598251E-02 0.49508353E+03</pdfrwt>
<totfact> 0.10934539E+03</totfact>
</mgrwt>
</event>
<event>
 4    1  0.1545327E-005  0.4750588E+03  0.7818608E-02  0.1020502E+00
          1   -1    0    0  501    0  0.00000000000E+00  0.00000000000E+00  0.18078713422E+04  0.18078713423E+04  0.50400000000E-02 0.  1.
         -1   -1    0    0    0  501 -0.00000000000E+00 -0.00000000000E+00 -0.31208092084E+02  0.31208092491E+02  0.50400000000E-02 0. -1.
    5000001    1    1    2    0    0 -0.37795155689E+02  0.14007738955E+03  0.86856659894E+03  0.90044549288E+03  0.18800000000E+03 0.  0.
   -5000001    1    1    2    0    0  0.37795155689E+02 -0.14007738955E+03  0.90809665122E+03  0.93863394186E+03  0.18800000000E+03 0.  0.
<mgrwt>
<rscale>  0 0.47505880E+03</rscale>
<asrwt>0</asrwt>
<pdfrwt beam="1">  1        1 0.25826735E+00 0.47505880E+03</pdfrwt>
<pdfrwt beam="2">  1       -1 0.44582986E-02 0.47505880E+03</pdfrwt>
<totfact> 0.11279718E+03</totfact>
</mgrwt>
</event>
<event>
 4    1  0.1545327E-005  0.6611100E+03  0.7818608E-02  0.9786152E-01
         -1   -1    0    0    0  501 -0.00000000000E+00  0.00000000000E+00  0.25686805624E+03  0.25686805629E+03  0.50400000000E-02 0. -1.
          1   -1    0    0  501    0  0.00000000000E+00 -0.00000000000E+00 -0.42538032247E+03  0.42538032250E+03  0.50400000000E-02 0.  1.
    5000001    1    1    2    0    0  0.86155413973E+01 -0.24784431396E+03 -0.19927187326E+03  0.36953255741E+03  0.18800000000E+03 0.  0.
   -5000001    1    1    2    0    0 -0.86155413973E+01  0.24784431396E+03  0.30759607030E+02  0.31271582138E+03  0.18800000000E+03 0.  0.
<mgrwt>
<rscale>  0 0.66111003E+03</rscale>
<asrwt>0</asrwt>
<pdfrwt beam="1">  1        1 0.60768617E-01 0.66111003E+03</pdfrwt>
<pdfrwt beam="2">  1       -1 0.36695437E-01 0.66111003E+03</pdfrwt>
<totfact> 0.43926193E+02</totfact>
</mgrwt>
</event>
<event>
 4    1  0.1545327E-005  0.4356951E+03  0.7818608E-02  0.1032076E+00
         -1   -1    0    0    0  501 -0.00000000000E+00  0.00000000000E+00  0.53888990401E+02  0.53888990637E+02  0.50400000000E-02 0. -1.
          1   -1    0    0  501    0  0.00000000000E+00 -0.00000000000E+00 -0.88065410576E+03  0.88065410578E+03  0.50400000000E-02 0.  1.
    5000001    1    1    2    0    0  0.98402944571E+02  0.45700684829E+02 -0.45304197106E+03  0.50235716341E+03  0.18800000000E+03 0.  0.
   -5000001    1    1    2    0    0 -0.98402944571E+02 -0.45700684829E+02 -0.37372314431E+03  0.43218593300E+03  0.18800000000E+03 0.  0.
<mgrwt>
<rscale>  0 0.43569513E+03</rscale>
<asrwt>0</asrwt>
<pdfrwt beam="1">  1        1 0.12580772E+00 0.43569513E+03</pdfrwt>
<pdfrwt beam="2">  1       -1 0.76984278E-02 0.43569513E+03</pdfrwt>
<totfact> 0.20393042E+03</totfact>
</mgrwt>
</event>
<event>
 4    1  0.1545327E-005  0.5460330E+03  0.7818608E-02  0.1002416E+00
         -1   -1    0    0    0  501 -0.00000000000E+00  0.00000000000E+00  0.94775707360E+02  0.94775707494E+02  0.50400000000E-02 0.  1.
          1   -1    0    0  501    0  0.00000000000E+00 -0.00000000000E+00 -0.78646756202E+03  0.78646756204E+03  0.50400000000E-02 0. -1.
    5000001    1    1    2    0    0 -0.74581825934E+02 -0.17927756142E+03 -0.28352496110E+03  0.39170562461E+03  0.18800000000E+03 0.  0.
   -5000001    1    1    2    0    0  0.74581825934E+02  0.17927756142E+03 -0.40816689357E+03  0.48953764492E+03  0.18800000000E+03 0.  0.
<mgrwt>
<rscale>  0 0.54603304E+03</rscale>
<asrwt>0</asrwt>
<pdfrwt beam="1">  1        1 0.11235251E+00 0.54603304E+03</pdfrwt>
<pdfrwt beam="2">  1       -1 0.13539387E-01 0.54603304E+03</pdfrwt>
<totfact> 0.99900316E+02</totfact>
</mgrwt>
</event>
<event>
 4    1  0.1545327E-005  0.4843818E+03  0.7818608E-02  0.1017938E+00
         -1   -1    0    0    0  501 -0.00000000000E+00  0.00000000000E+00  0.89745472678E+03  0.89745472679E+03  0.50400000000E-02 0. -1.
          1   -1    0    0  501    0  0.00000000000E+00 -0.00000000000E+00 -0.65358639458E+02  0.65358639653E+02  0.50400000000E-02 0.  1.
    5000001    1    1    2    0    0 -0.12297076256E+03 -0.33927549676E+02  0.24927484384E+03  0.33727560666E+03  0.18800000000E+03 0.  0.
   -5000001    1    1    2    0    0  0.12297076256E+03  0.33927549676E+02  0.58282124348E+03  0.62553775979E+03  0.18800000000E+03 0.  0.
<mgrwt>
<rscale>  0 0.48438175E+03</rscale>
<asrwt>0</asrwt>
<pdfrwt beam="1">  1        1 0.93369482E-02 0.48438175E+03</pdfrwt>
<pdfrwt beam="2">  1       -1 0.12820782E+00 0.48438175E+03</pdfrwt>
<totfact> 0.39518293E+02</totfact>
</mgrwt>
</event>
<event>
 4    1  0.1545327E-005  0.7382316E+03  0.7818608E-02  0.9653996E-01
         -1   -1    0    0    0  501 -0.00000000000E+00  0.00000000000E+00  0.10072426144E+03  0.10072426157E+03  0.50400000000E-02 0. -1.
          1   -1    0    0  501    0  0.00000000000E+00 -0.00000000000E+00 -0.13526680039E+04  0.13526680039E+04  0.50400000000E-02 0.  1.
    5000001    1    1    2    0    0  0.10751319094E+03  0.21374709634E+03 -0.21462322965E+03  0.37236277757E+03  0.18800000000E+03 0.  0.
   -5000001    1    1    2    0    0 -0.10751319094E+03 -0.21374709634E+03 -0.10373205128E+04  0.10810294879E+04  0.18800000000E+03 0.  0.
<mgrwt>
<rscale>  0 0.73823163E+03</rscale>
<asrwt>0</asrwt>
<pdfrwt beam="1">  1        1 0.19323828E+00 0.73823163E+03</pdfrwt>
<pdfrwt beam="2">  1       -1 0.14389181E-01 0.73823163E+03</pdfrwt>
<totfact> 0.34722794E+02</totfact>
</mgrwt>
</event>
<event>
 4    1  0.1545327E-005  0.6816356E+03  0.7818608E-02  0.9749164E-01
         -1   -1    0    0    0  501 -0.00000000000E+00  0.00000000000E+00  0.16000026250E+04  0.16000026250E+04  0.50400000000E-02 0. -1.
          1   -1    0    0  501    0  0.00000000000E+00 -0.00000000000E+00 -0.72597862540E+02  0.72597862715E+02  0.50400000000E-02 0.  1.
    5000001    1    1    2    0    0  0.20903468706E+03 -0.18983513285E+03  0.84433862069E+03  0.90993658265E+03  0.18800000000E+03 0.  0.
   -5000001    1    1    2    0    0 -0.20903468706E+03  0.18983513285E+03  0.68306614174E+03  0.76266390504E+03  0.18800000000E+03 0.  0.
<mgrwt>
<rscale>  0 0.68163559E+03</rscale>
<asrwt>0</asrwt>
<pdfrwt beam="1">  1        1 0.10371125E-01 0.68163559E+03</pdfrwt>
<pdfrwt beam="2">  1       -1 0.22857177E+00 0.68163559E+03</pdfrwt>
<totfact> 0.63559743E+01</totfact>
</mgrwt>
</event>
<event>
 4    1  0.1545327E-005  0.4869521E+03  0.7818608E-02  0.1017242E+00
          1   -1    0    0  501    0  0.00000000000E+00  0.00000000000E+00  0.80632987219E+03  0.80632987221E+03  0.50400000000E-02 0.  1.
         -1   -1    0    0    0  501 -0.00000000000E+00 -0.00000000000E+00 -0.73519021719E+02  0.73519021892E+02  0.50400000000E-02 0. -1.
    5000001    1    1    2    0    0  0.12456521746E+03  0.85267209854E+02  0.30514303803E+03  0.38890006960E+03  0.18800000000E+03 0.  0.
   -5000001    1    1    2    0    0 -0.12456521746E+03 -0.85267209854E+02  0.42766781244E+03  0.49094882449E+03  0.18800000000E+03 0.  0.
<mgrwt>
<rscale>  0 0.48695209E+03</rscale>
<asrwt>0</asrwt>
<pdfrwt beam="1">  1        1 0.11518998E+00 0.48695209E+03</pdfrwt>
<pdfrwt beam="2">  1       -1 0.10502718E-01 0.48695209E+03</pdfrwt>
<totfact> 0.14410191E+03</totfact>
</mgrwt>
</event>
<event>
 4    1  0.1545327E-005  0.4738412E+03  0.7818608E-02  0.1020842E+00
          1   -1    0    0  501    0  0.00000000000E+00  0.00000000000E+00  0.25539413619E+03  0.25539413624E+03  0.50400000000E-02 0.  1.
         -1   -1    0    0    0  501 -0.00000000000E+00 -0.00000000000E+00 -0.21978331810E+03  0.21978331815E+03  0.50400000000E-02 0. -1.
    5000001    1    1    2    0    0 -0.60019313971E+02 -0.12977859836E+03 -0.75538023647E+00  0.23619774182E+03  0.18800000000E+03 0.  0.
   -5000001    1    1    2    0    0  0.60019313971E+02  0.12977859836E+03  0.36366198335E+02  0.23897971258E+03  0.18800000000E+03 0.  0.
<mgrwt>
<rscale>  0 0.47384120E+03</rscale>
<asrwt>0</asrwt>
<pdfrwt beam="1">  1        1 0.36484877E-01 0.47384120E+03</pdfrwt>
<pdfrwt beam="2">  1       -1 0.31397617E-01 0.47384120E+03</pdfrwt>
<totfact> 0.11212172E+03</totfact>
</mgrwt>
</event>
<event>
 4    1  0.1545327E-005  0.9329454E+03  0.7818608E-02  0.9385310E-01
         -1   -1    0    0    0  501 -0.00000000000E+00  0.00000000000E+00  0.53560650681E+02  0.53560650918E+02  0.50400000000E-02 0. -1.
          1   -1    0    0  501    0  0.00000000000E+00 -0.00000000000E+00 -0.40626236667E+04  0.40626236667E+04  0.50400000000E-02 0.  1.
    5000001    1    1    2    0    0  0.31717910035E+03 -0.26016389710E+03 -0.25259158911E+04  0.25659078168E+04  0.18800000000E+03 0.  0.
   -5000001    1    1    2    0    0 -0.31717910035E+03  0.26016389710E+03 -0.14831471249E+04  0.15502765008E+04  0.18800000000E+03 0.  0.
<mgrwt>
<rscale>  0 0.93294537E+03</rscale>
<asrwt>0</asrwt>
<pdfrwt beam="1">  1        1 0.58037461E+00 0.93294537E+03</pdfrwt>
<pdfrwt beam="2">  1       -1 0.76515241E-02 0.93294537E+03</pdfrwt>
<totfact> 0.15290344E+01</totfact>
</mgrwt>
</event>
<event>
 4    1  0.1545327E-005  0.8044930E+03  0.7818608E-02  0.9553536E-01
          1   -1    0    0  501    0  0.00000000000E+00  0.00000000000E+00  0.84056264380E+03  0.84056264381E+03  0.50400000000E-02 0.  1.
         -1   -1    0    0    0  501 -0.00000000000E+00 -0.00000000000E+00 -0.19249278179E+03  0.19249278186E+03  0.50400000000E-02 0. -1.
    5000001    1    1    2    0    0 -0.32221524945E+03  0.69180349141E+02  0.49559501907E+03  0.62415303461E+03  0.18800000000E+03 0.  0.
   -5000001    1    1    2    0    0  0.32221524945E+03 -0.69180349141E+02  0.15247484293E+03  0.40890239106E+03  0.18800000000E+03 0.  0.
<mgrwt>
<rscale>  0 0.80449299E+03</rscale>
<asrwt>0</asrwt>
<pdfrwt beam="1">  1        1 0.12008038E+00 0.80449299E+03</pdfrwt>
<pdfrwt beam="2">  1       -1 0.27498969E-01 0.80449299E+03</pdfrwt>
<totfact> 0.27541316E+02</totfact>
</mgrwt>
</event>
<event>
 4    1  0.1545327E-005  0.1538836E+04  0.7818608E-02  0.8859030E-01
          1   -1    0    0  501    0  0.00000000000E+00  0.00000000000E+00  0.94508623445E+03  0.94508623446E+03  0.50400000000E-02 0. -1.
         -1   -1    0    0    0  501 -0.00000000000E+00 -0.00000000000E+00 -0.62640251624E+03  0.62640251626E+03  0.50400000000E-02 0.  1.
    5000001    1    1    2    0    0  0.10038112007E+03  0.72468358183E+03  0.98885420519E+01  0.75543659317E+03  0.18800000000E+03 0.  0.
   -5000001    1    1    2    0    0 -0.10038112007E+03 -0.72468358183E+03  0.30879517615E+03  0.81605215756E+03  0.18800000000E+03 0.  0.
<mgrwt>
<rscale>  0 0.15388364E+04</rscale>
<asrwt>0</asrwt>
<pdfrwt beam="1">  1        1 0.13501232E+00 0.15388364E+04</pdfrwt>
<pdfrwt beam="2">  1       -1 0.89486074E-01 0.15388364E+04</pdfrwt>
<totfact> 0.22469069E+01</totfact>
</mgrwt>
</event>
<event>
 4    1  0.1545327E-005  0.6422085E+03  0.7818608E-02  0.9821510E-01
          1   -1    0    0  501    0  0.00000000000E+00  0.00000000000E+00  0.29273380706E+04  0.29273380706E+04  0.50400000000E-02 0. -1.
         -1   -1    0    0    0  501 -0.00000000000E+00 -0.00000000000E+00 -0.35222421783E+02  0.35222422144E+02  0.50400000000E-02 0.  1.
    5000001    1    1    2    0    0  0.46001177732E+02 -0.22880661744E+03  0.19779715994E+04  0.20005459816E+04  0.18800000000E+03 0.  0.
   -5000001    1    1    2    0    0 -0.46001177732E+02  0.22880661744E+03  0.91414404940E+03  0.96201451112E+03  0.18800000000E+03 0.  0.
<mgrwt>
<rscale>  0 0.64220849E+03</rscale>
<asrwt>0</asrwt>
<pdfrwt beam="1">  1        1 0.41819129E+00 0.64220849E+03</pdfrwt>
<pdfrwt beam="2">  1       -1 0.50317729E-02 0.64220849E+03</pdfrwt>
<totfact> 0.18586900E+02</totfact>
</mgrwt>
</event>
<event>
 4    1  0.1545327E-005  0.5154046E+03  0.7818608E-02  0.1009835E+00
          1   -1    0    0  501    0  0.00000000000E+00  0.00000000000E+00  0.11938249575E+04  0.11938249576E+04  0.50400000000E-02 0.  1.
         -1   -1    0    0    0  501 -0.00000000000E+00 -0.00000000000E+00 -0.55628312737E+02  0.55628312965E+02  0.50400000000E-02 0. -1.
    5000001    1    1    2    0    0  0.12837491602E+03 -0.11251974113E+03  0.46271801978E+03  0.52781888659E+03  0.18800000000E+03 0.  0.
   -5000001    1    1    2    0    0 -0.12837491602E+03  0.11251974113E+03  0.67547862502E+03  0.72163438393E+03  0.18800000000E+03 0.  0.
<mgrwt>
<rscale>  0 0.51540457E+03</rscale>
<asrwt>0</asrwt>
<pdfrwt beam="1">  1        1 0.17054641E+00 0.51540457E+03</pdfrwt>
<pdfrwt beam="2">  1       -1 0.79469025E-02 0.51540457E+03</pdfrwt>
<totfact> 0.11497264E+03</totfact>
</mgrwt>
</event>
<event>
 4    1  0.1545327E-005  0.5556149E+03  0.7818608E-02  0.1000203E+00
         -1   -1    0    0    0  501 -0.00000000000E+00  0.00000000000E+00  0.64493775814E+02  0.64493776010E+02  0.50400000000E-02 0. -1.
          1   -1    0    0  501    0  0.00000000000E+00 -0.00000000000E+00 -0.11966576744E+04  0.11966576744E+04  0.50400000000E-02 0.  1.
    5000001    1    1    2    0    0  0.97343142184E+01  0.19288477932E+03 -0.71891548693E+03  0.76777781442E+03  0.18800000000E+03 0.  0.
   -5000001    1    1    2    0    0 -0.97343142184E+01 -0.19288477932E+03 -0.41324841168E+03  0.49337363603E+03  0.18800000000E+03 0.  0.
<mgrwt>
<rscale>  0 0.55561487E+03</rscale>
<asrwt>0</asrwt>
<pdfrwt beam="1">  1        1 0.17095108E+00 0.55561487E+03</pdfrwt>
<pdfrwt beam="2">  1       -1 0.92133973E-02 0.55561487E+03</pdfrwt>
<totfact> 0.90751157E+02</totfact>
</mgrwt>
</event>
<event>
 4    1  0.1545327E-005  0.5701529E+03  0.7818608E-02  0.9969340E-01
         -1   -1    0    0    0  501 -0.00000000000E+00  0.00000000000E+00  0.10866266865E+03  0.10866266877E+03  0.50400000000E-02 0.  1.
          1   -1    0    0  501    0  0.00000000000E+00 -0.00000000000E+00 -0.74789803569E+03  0.74789803571E+03  0.50400000000E-02 0. -1.
    5000001    1    1    2    0    0  0.19691387818E+03 -0.81081062657E+02 -0.28358098129E+03  0.40138682974E+03  0.18800000000E+03 0.  0.
   -5000001    1    1    2    0    0 -0.19691387818E+03  0.81081062657E+02 -0.35565438574E+03  0.45517387473E+03  0.18800000000E+03 0.  0.
<mgrwt>
<rscale>  0 0.57015295E+03</rscale>
<asrwt>0</asrwt>
<pdfrwt beam="1">  1        1 0.10684257E+00 0.57015295E+03</pdfrwt>
<pdfrwt beam="2">  1       -1 0.15523239E-01 0.57015295E+03</pdfrwt>
<totfact> 0.86395233E+02</totfact>
</mgrwt>
</event>
<event>
 4    1  0.1545327E-005  0.4458975E+03  0.7818608E-02  0.1028953E+00
          1   -1    0    0  501    0  0.00000000000E+00  0.00000000000E+00  0.58518228333E+03  0.58518228335E+03  0.50400000000E-02 0. -1.
         -1   -1    0    0    0  501 -0.00000000000E+00 -0.00000000000E+00 -0.84941300013E+02  0.84941300163E+02  0.50400000000E-02 0.  1.
    5000001    1    1    2    0    0 -0.75548049292E+02  0.79331288991E+02  0.32314769579E+03  0.38957591617E+03  0.18800000000E+03 0.  0.
   -5000001    1    1    2    0    0  0.75548049292E+02 -0.79331288991E+02  0.17709328752E+03  0.28054766734E+03  0.18800000000E+03 0.  0.
<mgrwt>
<rscale>  0 0.44589749E+03</rscale>
<asrwt>0</asrwt>
<pdfrwt beam="1">  1        1 0.83597469E-01 0.44589749E+03</pdfrwt>
<pdfrwt beam="2">  1       -1 0.12134471E-01 0.44589749E+03</pdfrwt>
<totfact> 0.18241037E+03</totfact>
</mgrwt>
</event>
<event>
 4    1  0.1545327E-005  0.4896270E+03  0.7818608E-02  0.1016522E+00
          1   -1    0    0  501    0  0.00000000000E+00  0.00000000000E+00  0.18281093647E+03  0.18281093654E+03  0.50400000000E-02 0. -1.
         -1   -1    0    0    0  501 -0.00000000000E+00 -0.00000000000E+00 -0.32784501365E+03  0.32784501369E+03  0.50400000000E-02 0.  1.
    5000001    1    1    2    0    0  0.13473035075E+03  0.21095739826E+02  0.82179593221E+01  0.23239800453E+03  0.18800000000E+03 0.  0.
   -5000001    1    1    2    0    0 -0.13473035075E+03 -0.21095739826E+02 -0.15325203650E+03  0.27825794570E+03  0.18800000000E+03 0.  0.
<mgrwt>
<rscale>  0 0.48962702E+03</rscale>
<asrwt>0</asrwt>
<pdfrwt beam="1">  1        1 0.26115848E-01 0.48962702E+03</pdfrwt>
<pdfrwt beam="2">  1       -1 0.46835001E-01 0.48962702E+03</pdfrwt>
<totfact> 0.84164002E+02</totfact>
</mgrwt>
</event>
<event>
 4    1  0.1545327E-005  0.4432771E+03  0.7818608E-02  0.1029746E+00
          1   -1    0    0  501    0  0.00000000000E+00  0.00000000000E+00  0.70191665675E+03  0.70191665677E+03  0.50400000000E-02 0.  1.
         -1   -1    0    0    0  501 -0.00000000000E+00 -0.00000000000E+00 -0.69985012319E+02  0.69985012500E+02  0.50400000000E-02 0. -1.
    5000001    1    1    2    0    0  0.17110620047E+02 -0.71695828566E+02  0.47505512884E+03  0.51619225158E+03  0.18800000000E+03 0.  0.
   -5000001    1    1    2    0    0 -0.17110620047E+02  0.71695828566E+02  0.15687651559E+03  0.25570941769E+03  0.18800000000E+03 0.  0.
<mgrwt>
<rscale>  0 0.44327710E+03</rscale>
<asrwt>0</asrwt>
<pdfrwt beam="1">  1        1 0.10027381E+00 0.44327710E+03</pdfrwt>
<pdfrwt beam="2">  1       -1 0.99978583E-02 0.44327710E+03</pdfrwt>
<totfact> 0.19140465E+03</totfact>
</mgrwt>
</event>
<event>
 4    1  0.1545327E-005  0.5861136E+03  0.7818608E-02  0.9934642E-01
         -1   -1    0    0    0  501 -0.00000000000E+00  0.00000000000E+00  0.34029860760E+03  0.34029860763E+03  0.50400000000E-02 0. -1.
          1   -1    0    0  501    0  0.00000000000E+00 -0.00000000000E+00 -0.25237334582E+03  0.25237334587E+03  0.50400000000E-02 0.  1.
    5000001    1    1    2    0    0 -0.16579850843E+03 -0.21621812435E+02 -0.10799075714E+03  0.27379308209E+03  0.18800000000E+03 0.  0.
   -5000001    1    1    2    0    0  0.16579850843E+03  0.21621812435E+02  0.19591601891E+03  0.31887887142E+03  0.18800000000E+03 0.  0.
<mgrwt>
<rscale>  0 0.58611363E+03</rscale>
<asrwt>0</asrwt>
<pdfrwt beam="1">  1        1 0.36053335E-01 0.58611363E+03</pdfrwt>
<pdfrwt beam="2">  1       -1 0.48614087E-01 0.58611363E+03</pdfrwt>
<totfact> 0.51744028E+02</totfact>
</mgrwt>
</event>
<event>
 4    1  0.1545327E-005  0.1419244E+04  0.7818608E-02  0.8940005E-01
          1   -1    0    0  501    0  0.00000000000E+00  0.00000000000E+00  0.80402584125E+03  0.80402584127E+03  0.50400000000E-02 0.  1.
         -1   -1    0    0    0  501 -0.00000000000E+00 -0.00000000000E+00 -0.62630281726E+03  0.62630281728E+03  0.50400000000E-02 0. -1.
    5000001    1    1    2    0    0  0.54602995160E+03  0.37893684646E+03 -0.75129358813E+02  0.69478792607E+03  0.18800000000E+03 0.  0.
   -5000001    1    1    2    0    0 -0.54602995160E+03 -0.37893684646E+03  0.25285238280E+03  0.73554073248E+03  0.18800000000E+03 0.  0.
<mgrwt>
<rscale>  0 0.14192444E+04</rscale>
<asrwt>0</asrwt>
<pdfrwt beam="1">  1        1 0.11486083E+00 0.14192444E+04</pdfrwt>
<pdfrwt beam="2">  1       -1 0.89471832E-01 0.14192444E+04</pdfrwt>
<totfact> 0.29467243E+01</totfact>
</mgrwt>
</event>
<event>
 4    1  0.1545327E-005  0.6836561E+03  0.7818608E-02  0.9745598E-01
         -1   -1    0    0    0  501 -0.00000000000E+00  0.00000000000E+00  0.40332360806E+03  0.40332360809E+03  0.50400000000E-02 0.  1.
          1   -1    0    0  501    0  0.00000000000E+00 -0.00000000000E+00 -0.28970882509E+03  0.28970882514E+03  0.50400000000E-02 0. -1.
    5000001    1    1    2    0    0  0.12433008343E+03 -0.16340742586E+03  0.25787707413E+03  0.37947930357E+03  0.18800000000E+03 0.  0.
   -5000001    1    1    2    0    0 -0.12433008343E+03  0.16340742586E+03 -0.14426229116E+03  0.31355312967E+03  0.18800000000E+03 0.  0.
<mgrwt>
<rscale>  0 0.68365608E+03</rscale>
<asrwt>0</asrwt>
<pdfrwt beam="1">  1        1 0.41386975E-01 0.68365608E+03</pdfrwt>
<pdfrwt beam="2">  1       -1 0.57617658E-01 0.68365608E+03</pdfrwt>
<totfact> 0.31221914E+02</totfact>
</mgrwt>
</event>
<event>
 4    1  0.1545327E-005  0.5289059E+03  0.7818608E-02  0.1006498E+00
          1   -1    0    0  501    0  0.00000000000E+00  0.00000000000E+00  0.12046199514E+04  0.12046199515E+04  0.50400000000E-02 0.  1.
         -1   -1    0    0    0  501 -0.00000000000E+00 -0.00000000000E+00 -0.58055965933E+02  0.58055966152E+02  0.50400000000E-02 0. -1.
    5000001    1    1    2    0    0 -0.76285542151E+02  0.15412600321E+03  0.40418403458E+03  0.47778974729E+03  0.18800000000E+03 0.  0.
   -5000001    1    1    2    0    0  0.76285542151E+02 -0.15412600321E+03  0.74237995094E+03  0.78488617032E+03  0.18800000000E+03 0.  0.
<mgrwt>
<rscale>  0 0.52890595E+03</rscale>
<asrwt>0</asrwt>
<pdfrwt beam="1">  1        1 0.17208856E+00 0.52890595E+03</pdfrwt>
<pdfrwt beam="2">  1       -1 0.82937099E-02 0.52890595E+03</pdfrwt>
<totfact> 0.10572770E+03</totfact>
</mgrwt>
</event>
<event>
 4    1  0.1545327E-005  0.7079367E+03  0.7818608E-02  0.9703755E-01
          1   -1    0    0  501    0  0.00000000000E+00  0.00000000000E+00  0.66902943645E+03  0.66902943647E+03  0.50400000000E-02 0.  1.
         -1   -1    0    0    0  501 -0.00000000000E+00 -0.00000000000E+00 -0.18727667441E+03  0.18727667447E+03  0.50400000000E-02 0. -1.
    5000001    1    1    2    0    0  0.27879977011E+03  0.45484100414E+02  0.11900561390E+03  0.35958928146E+03  0.18800000000E+03 0.  0.
   -5000001    1    1    2    0    0 -0.27879977011E+03 -0.45484100414E+02  0.36274714814E+03  0.49671682948E+03  0.18800000000E+03 0.  0.
<mgrwt>
<rscale>  0 0.70793674E+03</rscale>
<asrwt>0</asrwt>
<pdfrwt beam="1">  1        1 0.95575634E-01 0.70793674E+03</pdfrwt>
<pdfrwt beam="2">  1       -1 0.26753811E-01 0.70793674E+03</pdfrwt>
<totfact> 0.40937987E+02</totfact>
</mgrwt>
</event>
<event>
 4    1  0.1545327E-005  0.8761795E+03  0.7818608E-02  0.9455858E-01
         -1   -1    0    0    0  501 -0.00000000000E+00  0.00000000000E+00  0.79377415871E+02  0.79377416031E+02  0.50400000000E-02 0. -1.
          1   -1    0    0  501    0  0.00000000000E+00 -0.00000000000E+00 -0.24178491824E+04  0.24178491824E+04  0.50400000000E-02 0.  1.
    5000001    1    1    2    0    0 -0.32443038457E+03  0.17890049668E+03 -0.15653750034E+04  0.16195688819E+04  0.18800000000E+03 0.  0.
   -5000001    1    1    2    0    0  0.32443038457E+03 -0.17890049668E+03 -0.77309676318E+03  0.87765771653E+03  0.18800000000E+03 0.  0.
<mgrwt>
<rscale>  0 0.87617948E+03</rscale>
<asrwt>0</asrwt>
<pdfrwt beam="1">  1        1 0.34540698E+00 0.87617948E+03</pdfrwt>
<pdfrwt beam="2">  1       -1 0.11339632E-01 0.87617948E+03</pdfrwt>
<totfact> 0.10730145E+02</totfact>
</mgrwt>
</event>
<event>
 4    1  0.1545327E-005  0.4818629E+03  0.7818608E-02  0.1018624E+00
         -1   -1    0    0    0  501 -0.00000000000E+00  0.00000000000E+00  0.16513288927E+02  0.16513289696E+02  0.50400000000E-02 0. -1.
          1   -1    0    0  501    0  0.00000000000E+00 -0.00000000000E+00 -0.35152279134E+04  0.35152279134E+04  0.50400000000E-02 0.  1.
    5000001    1    1    2    0    0 -0.26257951110E+02  0.14703367204E+03 -0.18951348611E+04  0.19102849322E+04  0.18800000000E+03 0.  0.
   -5000001    1    1    2    0    0  0.26257951110E+02 -0.14703367204E+03 -0.16035797634E+04  0.16214562709E+04  0.18800000000E+03 0.  0.
<mgrwt>
<rscale>  0 0.48186295E+03</rscale>
<asrwt>0</asrwt>
<pdfrwt beam="1">  1        1 0.50217494E+00 0.48186295E+03</pdfrwt>
<pdfrwt beam="2">  1       -1 0.23590436E-02 0.48186295E+03</pdfrwt>
<totfact> 0.24283168E+02</totfact>
</mgrwt>
</event>
<event>
 4    1  0.1545327E-005  0.6052896E+03  0.7818608E-02  0.9894492E-01
         -1   -1    0    0    0  501 -0.00000000000E+00  0.00000000000E+00  0.11545254757E+03  0.11545254768E+03  0.50400000000E-02 0.  1.
          1   -1    0    0  501    0  0.00000000000E+00 -0.00000000000E+00 -0.79334661623E+03  0.79334661624E+03  0.50400000000E-02 0. -1.
    5000001    1    1    2    0    0  0.15310732474E+03 -0.18106774134E+03 -0.34607022749E+03  0.45971293455E+03  0.18800000000E+03 0.  0.
   -5000001    1    1    2    0    0 -0.15310732474E+03  0.18106774134E+03 -0.33182384117E+03  0.44908622937E+03  0.18800000000E+03 0.  0.
<mgrwt>
<rscale>  0 0.60528964E+03</rscale>
<asrwt>0</asrwt>
<pdfrwt beam="1">  1        1 0.11333523E+00 0.60528964E+03</pdfrwt>
<pdfrwt beam="2">  1       -1 0.16493221E-01 0.60528964E+03</pdfrwt>
<totfact> 0.71533911E+02</totfact>
</mgrwt>
</event>
<event>
 4    1  0.1545327E-005  0.5413111E+03  0.7818608E-02  0.1003525E+00
          1   -1    0    0  501    0  0.00000000000E+00  0.00000000000E+00  0.91296470829E+03  0.91296470830E+03  0.50400000000E-02 0.  1.
         -1   -1    0    0    0  501 -0.00000000000E+00 -0.00000000000E+00 -0.80237954389E+02  0.80237954547E+02  0.50400000000E-02 0. -1.
    5000001    1    1    2    0    0  0.14086962401E+03 -0.56464568278E+02  0.19256233554E+03  0.30896076047E+03  0.18800000000E+03 0.  0.
   -5000001    1    1    2    0    0 -0.14086962401E+03  0.56464568278E+02  0.64016441836E+03  0.68424190238E+03  0.18800000000E+03 0.  0.
<mgrwt>
<rscale>  0 0.54131108E+03</rscale>
<asrwt>0</asrwt>
<pdfrwt beam="1">  1        1 0.13042352E+00 0.54131108E+03</pdfrwt>
<pdfrwt beam="2">  1       -1 0.11462566E-01 0.54131108E+03</pdfrwt>
<totfact> 0.10311590E+03</totfact>
</mgrwt>
</event>
<event>
 4    1  0.1545327E-005  0.5462371E+03  0.7818608E-02  0.1002369E+00
          1   -1    0    0  501    0  0.00000000000E+00  0.00000000000E+00  0.44235184355E+03  0.44235184358E+03  0.50400000000E-02 0.  1.
         -1   -1    0    0    0  501 -0.00000000000E+00 -0.00000000000E+00 -0.16862991985E+03  0.16862991993E+03  0.50400000000E-02 0. -1.
    5000001    1    1    2    0    0  0.19700245307E+03  0.14727986140E+02  0.15355950315E+03  0.31297188548E+03  0.18800000000E+03 0.  0.
   -5000001    1    1    2    0    0 -0.19700245307E+03 -0.14727986140E+02  0.12016242055E+03  0.29800987803E+03  0.18800000000E+03 0.  0.
<mgrwt>
<rscale>  0 0.54623715E+03</rscale>
<asrwt>0</asrwt>
<pdfrwt beam="1">  1        1 0.63193122E-01 0.54623715E+03</pdfrwt>
<pdfrwt beam="2">  1       -1 0.24089988E-01 0.54623715E+03</pdfrwt>
<totfact> 0.86806880E+02</totfact>
</mgrwt>
</event>
<event>
 4    1  0.1545327E-005  0.1231494E+04  0.7818608E-02  0.9085728E-01
         -1   -1    0    0    0  501 -0.00000000000E+00  0.00000000000E+00  0.20129463844E+04  0.20129463844E+04  0.50400000000E-02 0. -1.
          1   -1    0    0  501    0  0.00000000000E+00 -0.00000000000E+00 -0.18835303449E+03  0.18835303455E+03  0.50400000000E-02 0.  1.
    5000001    1    1    2    0    0  0.28742084937E+03  0.50202638905E+03  0.10833684344E+04  0.12424461375E+04  0.18800000000E+03 0.  0.
   -5000001    1    1    2    0    0 -0.28742084937E+03 -0.50202638905E+03  0.74122491545E+03  0.95885328140E+03  0.18800000000E+03 0.  0.
<mgrwt>
<rscale>  0 0.12314943E+04</rscale>
<asrwt>0</asrwt>
<pdfrwt beam="1">  1        1 0.26907579E-01 0.12314943E+04</pdfrwt>
<pdfrwt beam="2">  1       -1 0.28756375E+00 0.12314943E+04</pdfrwt>
<totfact> 0.70025630E+00</totfact>
</mgrwt>
</event>
<event>
 4    1  0.1545327E-005  0.7207141E+03  0.7818608E-02  0.9682450E-01
          1   -1    0    0  501    0  0.00000000000E+00  0.00000000000E+00  0.14257353625E+04  0.14257353625E+04  0.50400000000E-02 0. -1.
         -1   -1    0    0    0  501 -0.00000000000E+00 -0.00000000000E+00 -0.91080856856E+02  0.91080856996E+02  0.50400000000E-02 0.  1.
    5000001    1    1    2    0    0 -0.14707661111E+03 -0.26758128460E+03  0.74268038185E+03  0.82471172114E+03  0.18800000000E+03 0.  0.
   -5000001    1    1    2    0    0  0.14707661111E+03  0.26758128460E+03  0.59197412374E+03  0.69210449831E+03  0.18800000000E+03 0.  0.
<mgrwt>
<rscale>  0 0.72071409E+03</rscale>
<asrwt>0</asrwt>
<pdfrwt beam="1">  1        1 0.20367648E+00 0.72071409E+03</pdfrwt>
<pdfrwt beam="2">  1       -1 0.13011551E-01 0.72071409E+03</pdfrwt>
<totfact> 0.36609864E+02</totfact>
</mgrwt>
</event>
<event>
 4    1  0.1545327E-005  0.5725407E+03  0.7818608E-02  0.9964072E-01
         -1   -1    0    0    0  501 -0.00000000000E+00  0.00000000000E+00  0.58760305417E+02  0.58760305633E+02  0.50400000000E-02 0. -1.
          1   -1    0    0  501    0  0.00000000000E+00 -0.00000000000E+00 -0.13946611539E+04  0.13946611539E+04  0.50400000000E-02 0.  1.
    5000001    1    1    2    0    0 -0.16463225786E+03 -0.13656871093E+03 -0.59385605377E+03  0.65860747471E+03  0.18800000000E+03 0.  0.
   -5000001    1    1    2    0    0  0.16463225786E+03  0.13656871093E+03 -0.74204479466E+03  0.79481398479E+03  0.18800000000E+03 0.  0.
<mgrwt>
<rscale>  0 0.57254071E+03</rscale>
<asrwt>0</asrwt>
<pdfrwt beam="1">  1        1 0.19923729E+00 0.57254071E+03</pdfrwt>
<pdfrwt beam="2">  1       -1 0.83943302E-02 0.57254071E+03</pdfrwt>
<totfact> 0.77411572E+02</totfact>
</mgrwt>
</event>
<event>
 4    1  0.1545327E-005  0.6484218E+03  0.7818608E-02  0.9809745E-01
         -1   -1    0    0    0  501 -0.00000000000E+00  0.00000000000E+00  0.10684429926E+03  0.10684429938E+03  0.50400000000E-02 0.  1.
          1   -1    0    0  501    0  0.00000000000E+00 -0.00000000000E+00 -0.98379339107E+03  0.98379339108E+03  0.50400000000E-02 0. -1.
    5000001    1    1    2    0    0  0.15403960728E+03 -0.23993061719E+02 -0.79832874571E+02  0.25694582208E+03  0.18800000000E+03 0.  0.
   -5000001    1    1    2    0    0 -0.15403960728E+03  0.23993061719E+02 -0.79711621724E+03  0.83369186838E+03  0.18800000000E+03 0.  0.
<mgrwt>
<rscale>  0 0.64842182E+03</rscale>
<asrwt>0</asrwt>
<pdfrwt beam="1">  1        1 0.14054191E+00 0.64842182E+03</pdfrwt>
<pdfrwt beam="2">  1       -1 0.15263472E-01 0.64842182E+03</pdfrwt>
<totfact> 0.57344445E+02</totfact>
</mgrwt>
</event>
<event>
 4    1  0.1545327E-005  0.5707207E+03  0.7818608E-02  0.9968085E-01
          1   -1    0    0  501    0  0.00000000000E+00  0.00000000000E+00  0.13579065047E+03  0.13579065057E+03  0.50400000000E-02 0.  1.
         -1   -1    0    0    0  501 -0.00000000000E+00 -0.00000000000E+00 -0.59967702385E+03  0.59967702387E+03  0.50400000000E-02 0. -1.
    5000001    1    1    2    0    0  0.15174755646E+03 -0.16568227883E+02 -0.42646202623E+03  0.49042398685E+03  0.18800000000E+03 0.  0.
   -5000001    1    1    2    0    0 -0.15174755646E+03  0.16568227883E+02 -0.37424347152E+02  0.24504368759E+03  0.18800000000E+03 0.  0.
<mgrwt>
<rscale>  0 0.57072071E+03</rscale>
<asrwt>0</asrwt>
<pdfrwt beam="1">  1        1 0.19398665E-01 0.57072071E+03</pdfrwt>
<pdfrwt beam="2">  1       -1 0.85668145E-01 0.57072071E+03</pdfrwt>
<totfact> 0.37295110E+02</totfact>
</mgrwt>
</event>
<event>
 4    1  0.1545327E-005  0.6603347E+03  0.7818608E-02  0.9787578E-01
          1   -1    0    0  501    0  0.00000000000E+00  0.00000000000E+00  0.43119674305E+03  0.43119674308E+03  0.50400000000E-02 0.  1.
         -1   -1    0    0    0  501 -0.00000000000E+00 -0.00000000000E+00 -0.25280913646E+03  0.25280913651E+03  0.50400000000E-02 0. -1.
    5000001    1    1    2    0    0 -0.19640741058E+03  0.18726944968E+03  0.93913285975E+02  0.34323377310E+03  0.18800000000E+03 0.  0.
   -5000001    1    1    2    0    0  0.19640741058E+03 -0.18726944968E+03  0.84474320614E+02  0.34077210648E+03  0.18800000000E+03 0.  0.
<mgrwt>
<rscale>  0 0.66033469E+03</rscale>
<asrwt>0</asrwt>
<pdfrwt beam="1">  1        1 0.61599535E-01 0.66033469E+03</pdfrwt>
<pdfrwt beam="2">  1       -1 0.36115591E-01 0.66033469E+03</pdfrwt>
<totfact> 0.44392162E+02</totfact>
</mgrwt>
</event>
<event>
 4    1  0.1545327E-005  0.5286838E+03  0.7818608E-02  0.1006552E+00
          1   -1    0    0  501    0  0.00000000000E+00  0.00000000000E+00  0.56814090012E+03  0.56814090014E+03  0.50400000000E-02 0.  1.
         -1   -1    0    0    0  501 -0.00000000000E+00 -0.00000000000E+00 -0.12299173176E+03  0.12299173186E+03  0.50400000000E-02 0. -1.
    5000001    1    1    2    0    0  0.11649403386E+03 -0.14181278752E+03  0.18444111086E+03  0.32100506227E+03  0.18800000000E+03 0.  0.
   -5000001    1    1    2    0    0 -0.11649403386E+03  0.14181278752E+03  0.26070805751E+03  0.37012756974E+03  0.18800000000E+03 0.  0.
<mgrwt>
<rscale>  0 0.52868377E+03</rscale>
<asrwt>0</asrwt>
<pdfrwt beam="1">  1        1 0.81162985E-01 0.52868377E+03</pdfrwt>
<pdfrwt beam="2">  1       -1 0.17570248E-01 0.52868377E+03</pdfrwt>
<totfact> 0.10472414E+03</totfact>
</mgrwt>
</event>
<event>
 4    1  0.1545327E-005  0.8393819E+03  0.7818608E-02  0.9504700E-01
         -1   -1    0    0    0  501 -0.00000000000E+00  0.00000000000E+00  0.14333274008E+04  0.14333274008E+04  0.50400000000E-02 0. -1.
          1   -1    0    0  501    0  0.00000000000E+00 -0.00000000000E+00 -0.12288922200E+03  0.12288922210E+03  0.50400000000E-02 0.  1.
    5000001    1    1    2    0    0  0.14463470236E+03  0.33228612418E+03  0.83557484679E+03  0.92997988690E+03  0.18800000000E+03 0.  0.
   -5000001    1    1    2    0    0 -0.14463470236E+03 -0.33228612418E+03  0.47486333203E+03  0.62623673603E+03  0.18800000000E+03 0.  0.
<mgrwt>
<rscale>  0 0.83938189E+03</rscale>
<asrwt>0</asrwt>
<pdfrwt beam="1">  1        1 0.17555605E-01 0.83938189E+03</pdfrwt>
<pdfrwt beam="2">  1       -1 0.20476104E+00 0.83938189E+03</pdfrwt>
<totfact> 0.44307922E+01</totfact>
</mgrwt>
</event>
<event>
 4    1  0.1545327E-005  0.8814528E+03  0.7818608E-02  0.9449068E-01
         -1   -1    0    0    0  501 -0.00000000000E+00  0.00000000000E+00  0.53963040900E+03  0.53963040902E+03  0.50400000000E-02 0.  1.
          1   -1    0    0  501    0  0.00000000000E+00 -0.00000000000E+00 -0.35994959359E+03  0.35994959362E+03  0.50400000000E-02 0. -1.
    5000001    1    1    2    0    0  0.27185892938E+01  0.32625322397E+03 -0.14388280977E+03  0.40310646215E+03  0.18800000000E+03 0.  0.
   -5000001    1    1    2    0    0 -0.27185892938E+01 -0.32625322397E+03  0.32356362518E+03  0.49647354050E+03  0.18800000000E+03 0.  0.
<mgrwt>
<rscale>  0 0.88145277E+03</rscale>
<asrwt>0</asrwt>
<pdfrwt beam="1">  1        1 0.51421371E-01 0.88145277E+03</pdfrwt>
<pdfrwt beam="2">  1       -1 0.77090058E-01 0.88145277E+03</pdfrwt>
<totfact> 0.12953978E+02</totfact>
</mgrwt>
</event>
<event>
 4    1  0.1545327E-005  0.6419786E+03  0.7818608E-02  0.9821948E-01
         -1   -1    0    0    0  501 -0.00000000000E+00  0.00000000000E+00  0.22416583183E+03  0.22416583189E+03  0.50400000000E-02 0. -1.
          1   -1    0    0  501    0  0.00000000000E+00 -0.00000000000E+00 -0.45963348935E+03  0.45963348938E+03  0.50400000000E-02 0.  1.
    5000001    1    1    2    0    0 -0.10071865235E+03  0.22714178126E+03 -0.19991217279E+03  0.37019793699E+03  0.18800000000E+03 0.  0.
   -5000001    1    1    2    0    0  0.10071865235E+03 -0.22714178126E+03 -0.35555484731E+02  0.31360138427E+03  0.18800000000E+03 0.  0.
<mgrwt>
<rscale>  0 0.64197858E+03</rscale>
<asrwt>0</asrwt>
<pdfrwt beam="1">  1        1 0.65661927E-01 0.64197858E+03</pdfrwt>
<pdfrwt beam="2">  1       -1 0.32023690E-01 0.64197858E+03</pdfrwt>
<totfact> 0.50480000E+02</totfact>
</mgrwt>
</event>
<event>
 4    1  0.1545327E-005  0.8006881E+03  0.7818608E-02  0.9559022E-01
         -1   -1    0    0    0  501 -0.00000000000E+00  0.00000000000E+00  0.45841470340E+03  0.45841470343E+03  0.50400000000E-02 0.  1.
          1   -1    0    0  501    0  0.00000000000E+00 -0.00000000000E+00 -0.34962961377E+03  0.34962961380E+03  0.50400000000E-02 0. -1.
    5000001    1    1    2    0    0 -0.85871063355E+02 -0.33431059387E+03  0.13120982390E+03  0.41436388668E+03  0.18800000000E+03 0.  0.
   -5000001    1    1    2    0    0  0.85871063355E+02  0.33431059387E+03 -0.22424734269E+02  0.39368043056E+03  0.18800000000E+03 0.  0.
<mgrwt>
<rscale>  0 0.80068809E+03</rscale>
<asrwt>0</asrwt>
<pdfrwt beam="1">  1        1 0.49947088E-01 0.80068809E+03</pdfrwt>
<pdfrwt beam="2">  1       -1 0.65487815E-01 0.80068809E+03</pdfrwt>
<totfact> 0.18897003E+02</totfact>
</mgrwt>
</event>
<event>
 4    1  0.1545327E-005  0.1153589E+04  0.7818608E-02  0.9154479E-01
         -1   -1    0    0    0  501 -0.00000000000E+00  0.00000000000E+00  0.30197008002E+03  0.30197008006E+03  0.50400000000E-02 0. -1.
          1   -1    0    0  501    0  0.00000000000E+00 -0.00000000000E+00 -0.11017377915E+04  0.11017377915E+04  0.50400000000E-02 0.  1.
    5000001    1    1    2    0    0 -0.50110681625E+03  0.99034444139E+02 -0.16762777860E+03  0.56952518345E+03  0.18800000000E+03 0.  0.
   -5000001    1    1    2    0    0  0.50110681625E+03 -0.99034444139E+02 -0.63213993286E+03  0.83418268811E+03  0.18800000000E+03 0.  0.
<mgrwt>
<rscale>  0 0.11535889E+04</rscale>
<asrwt>0</asrwt>
<pdfrwt beam="1">  1        1 0.15739111E+00 0.11535889E+04</pdfrwt>
<pdfrwt beam="2">  1       -1 0.43138583E-01 0.11535889E+04</pdfrwt>
<totfact> 0.76375316E+01</totfact>
</mgrwt>
</event>
<event>
 4    1  0.1545327E-005  0.6419153E+03  0.7818608E-02  0.9822069E-01
         -1   -1    0    0    0  501 -0.00000000000E+00  0.00000000000E+00  0.10157753547E+03  0.10157753560E+03  0.50400000000E-02 0. -1.
          1   -1    0    0  501    0  0.00000000000E+00 -0.00000000000E+00 -0.10141398034E+04  0.10141398034E+04  0.50400000000E-02 0.  1.
    5000001    1    1    2    0    0 -0.65052243174E+02 -0.21700942728E+03 -0.23406885699E+03  0.37610785113E+03  0.18800000000E+03 0.  0.
   -5000001    1    1    2    0    0  0.65052243174E+02  0.21700942728E+03 -0.67849341090E+03  0.73960948784E+03  0.18800000000E+03 0.  0.
<mgrwt>
<rscale>  0 0.64191533E+03</rscale>
<asrwt>0</asrwt>
<pdfrwt beam="1">  1        1 0.14487711E+00 0.64191533E+03</pdfrwt>
<pdfrwt beam="2">  1       -1 0.14511077E-01 0.64191533E+03</pdfrwt>
<totfact> 0.59113557E+02</totfact>
</mgrwt>
</event>
<event>
 4    1  0.1545327E-005  0.4495507E+03  0.7818608E-02  0.1027856E+00
         -1   -1    0    0    0  501 -0.00000000000E+00  0.00000000000E+00  0.34803009112E+02  0.34803009477E+02  0.50400000000E-02 0.  1.
          1   -1    0    0  501    0  0.00000000000E+00 -0.00000000000E+00 -0.14517121868E+04  0.14517121868E+04  0.50400000000E-02 0. -1.
    5000001    1    1    2    0    0 -0.69185321869E+02 -0.75957631343E+02 -0.93330277206E+03  0.95757727357E+03  0.18800000000E+03 0.  0.
   -5000001    1    1    2    0    0  0.69185321869E+02  0.75957631343E+02 -0.48360640561E+03  0.52893792270E+03  0.18800000000E+03 0.  0.
<mgrwt>
<rscale>  0 0.44955068E+03</rscale>
<asrwt>0</asrwt>
<pdfrwt beam="1">  1        1 0.20738742E+00 0.44955068E+03</pdfrwt>
<pdfrwt beam="2">  1       -1 0.49718594E-02 0.44955068E+03</pdfrwt>
<totfact> 0.16001205E+03</totfact>
</mgrwt>
</event>
<event>
 4    1  0.1545327E-005  0.7684576E+03  0.7818608E-02  0.9606830E-01
          1   -1    0    0  501    0  0.00000000000E+00  0.00000000000E+00  0.27637128804E+04  0.27637128804E+04  0.50400000000E-02 0.  1.
         -1   -1    0    0    0  501 -0.00000000000E+00 -0.00000000000E+00 -0.53417907036E+02  0.53417907274E+02  0.50400000000E-02 0. -1.
    5000001    1    1    2    0    0 -0.31702975838E+03 -0.10849817875E+03  0.13655393983E+04  0.14185632065E+04  0.18800000000E+03 0.  0.
   -5000001    1    1    2    0    0  0.31702975838E+03  0.10849817875E+03  0.13447555750E+04  0.13985675812E+04  0.18800000000E+03 0.  0.
<mgrwt>
<rscale>  0 0.76845757E+03</rscale>
<asrwt>0</asrwt>
<pdfrwt beam="1">  1        1 0.39481622E+00 0.76845757E+03</pdfrwt>
<pdfrwt beam="2">  1       -1 0.76311278E-02 0.76845757E+03</pdfrwt>
<totfact> 0.12260514E+02</totfact>
</mgrwt>
</event>
<event>
 4    1  0.1545327E-005  0.4472450E+03  0.7818608E-02  0.1028547E+00
          1   -1    0    0  501    0  0.00000000000E+00  0.00000000000E+00  0.19014370944E+04  0.19014370945E+04  0.50400000000E-02 0. -1.
         -1   -1    0    0    0  501 -0.00000000000E+00 -0.00000000000E+00 -0.26299592658E+02  0.26299593141E+02  0.50400000000E-02 0.  1.
    5000001    1    1    2    0    0 -0.10338441002E+03  0.13092448382E+02  0.67175283706E+03  0.70530533993E+03  0.18800000000E+03 0.  0.
   -5000001    1    1    2    0    0  0.10338441002E+03 -0.13092448382E+02  0.12033846647E+04  0.12224313477E+04  0.18800000000E+03 0.  0.
<mgrwt>
<rscale>  0 0.44724500E+03</rscale>
<asrwt>0</asrwt>
<pdfrwt beam="1">  1        1 0.27163395E+00 0.44724500E+03</pdfrwt>
<pdfrwt beam="2">  1       -1 0.37570837E-02 0.44724500E+03</pdfrwt>
<totfact> 0.12810443E+03</totfact>
</mgrwt>
</event>
<event>
 4    1  0.1545327E-005  0.5742115E+03  0.7818608E-02  0.9960402E-01
         -1   -1    0    0    0  501 -0.00000000000E+00  0.00000000000E+00  0.86868638194E+02  0.86868638340E+02  0.50400000000E-02 0. -1.
          1   -1    0    0  501    0  0.00000000000E+00 -0.00000000000E+00 -0.94890071445E+03  0.94890071447E+03  0.50400000000E-02 0.  1.
    5000001    1    1    2    0    0  0.17144818561E+03 -0.12537446801E+03 -0.51112792481E+03  0.58455880209E+03  0.18800000000E+03 0.  0.
   -5000001    1    1    2    0    0 -0.17144818561E+03  0.12537446801E+03 -0.35090415145E+03  0.45121055072E+03  0.18800000000E+03 0.  0.
<mgrwt>
<rscale>  0 0.57421150E+03</rscale>
<asrwt>0</asrwt>
<pdfrwt beam="1">  1        1 0.13555724E+00 0.57421150E+03</pdfrwt>
<pdfrwt beam="2">  1       -1 0.12409806E-01 0.57421150E+03</pdfrwt>
<totfact> 0.85232536E+02</totfact>
</mgrwt>
</event>
<event>
 4    1  0.1545327E-005  0.6089058E+03  0.7818608E-02  0.9887100E-01
          1   -1    0    0  501    0  0.00000000000E+00  0.00000000000E+00  0.14227495870E+03  0.14227495879E+03  0.50400000000E-02 0.  1.
         -1   -1    0    0    0  501 -0.00000000000E+00 -0.00000000000E+00 -0.65149593819E+03  0.65149593821E+03  0.50400000000E-02 0. -1.
    5000001    1    1    2    0    0 -0.16519202840E+03  0.10740463462E+03 -0.77189339342E+02  0.28306599212E+03  0.18800000000E+03 0.  0.
   -5000001    1    1    2    0    0  0.16519202840E+03 -0.10740463462E+03 -0.43203164015E+03  0.51070490489E+03  0.18800000000E+03 0.  0.
<mgrwt>
<rscale>  0 0.60890577E+03</rscale>
<asrwt>0</asrwt>
<pdfrwt beam="1">  1        1 0.20324994E-01 0.60890577E+03</pdfrwt>
<pdfrwt beam="2">  1       -1 0.93070847E-01 0.60890577E+03</pdfrwt>
<totfact> 0.29226179E+02</totfact>
</mgrwt>
</event>
<event>
 4    1  0.1545327E-005  0.7063989E+03  0.7818608E-02  0.9706351E-01
         -1   -1    0    0    0  501 -0.00000000000E+00  0.00000000000E+00  0.40384927236E+02  0.40384927551E+02  0.50400000000E-02 0. -1.
          1   -1    0    0  501    0  0.00000000000E+00 -0.00000000000E+00 -0.30890204129E+04  0.30890204129E+04  0.50400000000E-02 0.  1.
    5000001    1    1    2    0    0  0.25714092986E+03  0.14072114434E+03 -0.17857288859E+04  0.18193667998E+04  0.18800000000E+03 0.  0.
   -5000001    1    1    2    0    0 -0.25714092986E+03 -0.14072114434E+03 -0.12629065997E+04  0.13100385406E+04  0.18800000000E+03 0.  0.
<mgrwt>
<rscale>  0 0.70639894E+03</rscale>
<asrwt>0</asrwt>
<pdfrwt beam="1">  1        1 0.44128848E+00 0.70639894E+03</pdfrwt>
<pdfrwt beam="2">  1       -1 0.57692773E-02 0.70639894E+03</pdfrwt>
<totfact> 0.11746132E+02</totfact>
</mgrwt>
</event>
<event>
 4    1  0.1545327E-005  0.6388813E+03  0.7818608E-02  0.9827869E-01
          1   -1    0    0  501    0  0.00000000000E+00  0.00000000000E+00  0.54664127510E+03  0.54664127513E+03  0.50400000000E-02 0.  1.
         -1   -1    0    0    0  501 -0.00000000000E+00 -0.00000000000E+00 -0.18667149373E+03  0.18667149380E+03  0.50400000000E-02 0. -1.
    5000001    1    1    2    0    0  0.20863699982E+03  0.75973787698E+02  0.28592049702E+02  0.29234041701E+03  0.18800000000E+03 0.  0.
   -5000001    1    1    2    0    0 -0.20863699982E+03 -0.75973787698E+02  0.33137773167E+03  0.44097235192E+03  0.18800000000E+03 0.  0.
<mgrwt>
<rscale>  0 0.63888135E+03</rscale>
<asrwt>0</asrwt>
<pdfrwt beam="1">  1        1 0.78091611E-01 0.63888135E+03</pdfrwt>
<pdfrwt beam="2">  1       -1 0.26667356E-01 0.63888135E+03</pdfrwt>
<totfact> 0.54850759E+02</totfact>
</mgrwt>
</event>
<event>
 4    1  0.1545327E-005  0.4421046E+03  0.7818608E-02  0.1030103E+00
          1   -1    0    0  501    0  0.00000000000E+00  0.00000000000E+00  0.88616577759E+03  0.88616577761E+03  0.50400000000E-02 0.  1.
         -1   -1    0    0    0  501 -0.00000000000E+00 -0.00000000000E+00 -0.55141069022E+02  0.55141069252E+02  0.50400000000E-02 0. -1.
    5000001    1    1    2    0    0  0.19391885410E+02 -0.11464723575E+03  0.41616700680E+03  0.47123137781E+03  0.18800000000E+03 0.  0.
   -5000001    1    1    2    0    0 -0.19391885410E+02  0.11464723575E+03  0.41485770177E+03  0.47007546905E+03  0.18800000000E+03 0.  0.
<mgrwt>
<rscale>  0 0.44210464E+03</rscale>
<asrwt>0</asrwt>
<pdfrwt beam="1">  1        1 0.12659511E+00 0.44210464E+03</pdfrwt>
<pdfrwt beam="2">  1       -1 0.78772959E-02 0.44210464E+03</pdfrwt>
<totfact> 0.19488026E+03</totfact>
</mgrwt>
</event>
<event>
 4    1  0.1545327E-005  0.5274044E+03  0.7818608E-02  0.1006864E+00
         -1   -1    0    0    0  501 -0.00000000000E+00  0.00000000000E+00  0.60884738158E+03  0.60884738160E+03  0.50400000000E-02 0. -1.
          1   -1    0    0  501    0  0.00000000000E+00 -0.00000000000E+00 -0.11421391357E+03  0.11421391368E+03  0.50400000000E-02 0.  1.
    5000001    1    1    2    0    0  0.13618031565E+03  0.11250905429E+03  0.17233176855E+03  0.31023475647E+03  0.18800000000E+03 0.  0.
   -5000001    1    1    2    0    0 -0.13618031565E+03 -0.11250905429E+03  0.32230169947E+03  0.41282653882E+03  0.18800000000E+03 0.  0.
<mgrwt>
<rscale>  0 0.52740437E+03</rscale>
<asrwt>0</asrwt>
<pdfrwt beam="1">  1        1 0.16316273E-01 0.52740437E+03</pdfrwt>
<pdfrwt beam="2">  1       -1 0.86978197E-01 0.52740437E+03</pdfrwt>
<totfact> 0.45455480E+02</totfact>
</mgrwt>
</event>
<event>
 4    1  0.1545327E-005  0.5051204E+03  0.7818608E-02  0.1012451E+00
          1   -1    0    0  501    0  0.00000000000E+00  0.00000000000E+00  0.46992963961E+03  0.46992963963E+03  0.50400000000E-02 0.  1.
         -1   -1    0    0    0  501 -0.00000000000E+00 -0.00000000000E+00 -0.13573662828E+03  0.13573662837E+03  0.50400000000E-02 0. -1.
    5000001    1    1    2    0    0 -0.56442078847E+01  0.51549321727E+02  0.35951923222E+03  0.40900766250E+03  0.18800000000E+03 0.  0.
   -5000001    1    1    2    0    0  0.56442078847E+01 -0.51549321727E+02 -0.25326220889E+02  0.19665860550E+03  0.18800000000E+03 0.  0.
<mgrwt>
<rscale>  0 0.50512044E+03</rscale>
<asrwt>0</asrwt>
<pdfrwt beam="1">  1        1 0.67132805E-01 0.50512044E+03</pdfrwt>
<pdfrwt beam="2">  1       -1 0.19390947E-01 0.50512044E+03</pdfrwt>
<totfact> 0.11510086E+03</totfact>
</mgrwt>
</event>
<event>
 4    1  0.1545327E-005  0.4937498E+03  0.7818608E-02  0.1015423E+00
          1   -1    0    0  501    0  0.00000000000E+00  0.00000000000E+00  0.62763719185E+03  0.62763719188E+03  0.50400000000E-02 0.  1.
         -1   -1    0    0    0  501 -0.00000000000E+00 -0.00000000000E+00 -0.97105808756E+02  0.97105808887E+02  0.50400000000E-02 0. -1.
    5000001    1    1    2    0    0  0.13346830172E+03  0.33494670089E+02  0.38512169736E+03  0.45010932258E+03  0.18800000000E+03 0.  0.
   -5000001    1    1    2    0    0 -0.13346830172E+03 -0.33494670089E+02  0.14540968573E+03  0.27463367819E+03  0.18800000000E+03 0.  0.
<mgrwt>
<rscale>  0 0.49374980E+03</rscale>
<asrwt>0</asrwt>
<pdfrwt beam="1">  1        1 0.89662456E-01 0.49374980E+03</pdfrwt>
<pdfrwt beam="2">  1       -1 0.13872258E-01 0.49374980E+03</pdfrwt>
<totfact> 0.13368835E+03</totfact>
</mgrwt>
</event>
<event>
 4    1  0.1545327E-005  0.4510319E+03  0.7818608E-02  0.1027415E+00
          1   -1    0    0  501    0  0.00000000000E+00  0.00000000000E+00  0.10355715201E+03  0.10355715213E+03  0.50400000000E-02 0.  1.
         -1   -1    0    0    0  501 -0.00000000000E+00 -0.00000000000E+00 -0.49110505357E+03  0.49110505360E+03  0.50400000000E-02 0. -1.
    5000001    1    1    2    0    0  0.10259480686E+03 -0.70550700458E+02 -0.19801456048E+03  0.30009475486E+03  0.18800000000E+03 0.  0.
   -5000001    1    1    2    0    0 -0.10259480686E+03  0.70550700458E+02 -0.18953334108E+03  0.29456745087E+03  0.18800000000E+03 0.  0.
<mgrwt>
<rscale>  0 0.45103189E+03</rscale>
<asrwt>0</asrwt>
<pdfrwt beam="1">  1        1 0.14793879E-01 0.45103189E+03</pdfrwt>
<pdfrwt beam="2">  1       -1 0.70157863E-01 0.45103189E+03</pdfrwt>
<totfact> 0.81259992E+02</totfact>
</mgrwt>
</event>
<event>
 4    1  0.1545327E-005  0.5602420E+03  0.7818608E-02  0.9991507E-01
          1   -1    0    0  501    0  0.00000000000E+00  0.00000000000E+00  0.41105207444E+03  0.41105207447E+03  0.50400000000E-02 0.  1.
         -1   -1    0    0    0  501 -0.00000000000E+00 -0.00000000000E+00 -0.19089500157E+03  0.19089500164E+03  0.50400000000E-02 0. -1.
    5000001    1    1    2    0    0  0.12896863408E+03 -0.13276230675E+03  0.89151980456E+01  0.26397389914E+03  0.18800000000E+03 0.  0.
   -5000001    1    1    2    0    0 -0.12896863408E+03  0.13276230675E+03  0.21124187482E+03  0.33797317697E+03  0.18800000000E+03 0.  0.
<mgrwt>
<rscale>  0 0.56024204E+03</rscale>
<asrwt>0</asrwt>
<pdfrwt beam="1">  1        1 0.58721725E-01 0.56024204E+03</pdfrwt>
<pdfrwt beam="2">  1       -1 0.27270714E-01 0.56024204E+03</pdfrwt>
<totfact> 0.77411376E+02</totfact>
</mgrwt>
</event>
<event>
 4    1  0.1545327E-005  0.6444297E+03  0.7818608E-02  0.9817288E-01
          1   -1    0    0  501    0  0.00000000000E+00  0.00000000000E+00  0.19668879321E+04  0.19668879321E+04  0.50400000000E-02 0.  1.
         -1   -1    0    0    0  501 -0.00000000000E+00 -0.00000000000E+00 -0.52785109376E+02  0.52785109617E+02  0.50400000000E-02 0. -1.
    5000001    1    1    2    0    0  0.25560797530E+03 -0.28414345748E+02  0.80558958643E+03  0.86629174869E+03  0.18800000000E+03 0.  0.
   -5000001    1    1    2    0    0 -0.25560797530E+03  0.28414345748E+02  0.11085132363E+04  0.11533812930E+04  0.18800000000E+03 0.  0.
<mgrwt>
<rscale>  0 0.64442965E+03</rscale>
<asrwt>0</asrwt>
<pdfrwt beam="1">  1        1 0.28098401E+00 0.64442965E+03</pdfrwt>
<pdfrwt beam="2">  1       -1 0.75407295E-02 0.64442965E+03</pdfrwt>
<totfact> 0.39698525E+02</totfact>
</mgrwt>
</event>
<event>
 4    1  0.1545327E-005  0.1096103E+04  0.7818608E-02  0.9208998E-01
          1   -1    0    0  501    0  0.00000000000E+00  0.00000000000E+00  0.40531497648E+04  0.40531497648E+04  0.50400000000E-02 0.  1.
         -1   -1    0    0    0  501 -0.00000000000E+00 -0.00000000000E+00 -0.74105480099E+02  0.74105480270E+02  0.50400000000E-02 0. -1.
    5000001    1    1    2    0    0 -0.16292080232E+03 -0.33470056128E+03  0.33284817258E+04  0.33545047701E+04  0.18800000000E+03 0.  0.
   -5000001    1    1    2    0    0  0.16292080232E+03  0.33470056128E+03  0.65056255890E+03  0.77275047498E+03  0.18800000000E+03 0.  0.
<mgrwt>
<rscale>  0 0.10961033E+04</rscale>
<asrwt>0</asrwt>
<pdfrwt beam="1">  1        1 0.57902144E+00 0.10961033E+04</pdfrwt>
<pdfrwt beam="2">  1       -1 0.10586496E-01 0.10961033E+04</pdfrwt>
<totfact> 0.91118945E+00</totfact>
</mgrwt>
</event>
<event>
 4    1  0.1545327E-005  0.5079982E+03  0.7818608E-02  0.1011712E+00
         -1   -1    0    0    0  501 -0.00000000000E+00  0.00000000000E+00  0.20379198029E+03  0.20379198035E+03  0.50400000000E-02 0.  1.
          1   -1    0    0  501    0  0.00000000000E+00 -0.00000000000E+00 -0.31657548331E+03  0.31657548335E+03  0.50400000000E-02 0. -1.
    5000001    1    1    2    0    0  0.62902301006E+02  0.14921711212E+03 -0.76385921099E+00  0.24812704307E+03  0.18800000000E+03 0.  0.
   -5000001    1    1    2    0    0 -0.62902301006E+02 -0.14921711212E+03 -0.11201964381E+03  0.27224042063E+03  0.18800000000E+03 0.  0.
<mgrwt>
<rscale>  0 0.50799821E+03</rscale>
<asrwt>0</asrwt>
<pdfrwt beam="1">  1        1 0.45225069E-01 0.50799821E+03</pdfrwt>
<pdfrwt beam="2">  1       -1 0.29113140E-01 0.50799821E+03</pdfrwt>
<totfact> 0.97062854E+02</totfact>
</mgrwt>
</event>
<event>
 4    1  0.1545327E-005  0.1506921E+04  0.7818608E-02  0.8879863E-01
          1   -1    0    0  501    0  0.00000000000E+00  0.00000000000E+00  0.13132974553E+04  0.13132974554E+04  0.50400000000E-02 0. -1.
         -1   -1    0    0    0  501 -0.00000000000E+00 -0.00000000000E+00 -0.43227295999E+03  0.43227296002E+03  0.50400000000E-02 0.  1.
    5000001    1    1    2    0    0 -0.44643029922E+03  0.90072579067E+02  0.11008290059E+04  0.12060603558E+04  0.18800000000E+03 0.  0.
   -5000001    1    1    2    0    0  0.44643029922E+03 -0.90072579067E+02 -0.21980451052E+03  0.53951005960E+03  0.18800000000E+03 0.  0.
<mgrwt>
<rscale>  0 0.15069213E+04</rscale>
<asrwt>0</asrwt>
<pdfrwt beam="1">  1        1 0.18761392E+00 0.15069213E+04</pdfrwt>
<pdfrwt beam="2">  1       -1 0.61753280E-01 0.15069213E+04</pdfrwt>
<totfact> 0.26648511E+01</totfact>
</mgrwt>
</event>
<event>
 4    1  0.1545327E-005  0.5541612E+03  0.7818608E-02  0.1000535E+00
         -1   -1    0    0    0  501 -0.00000000000E+00  0.00000000000E+00  0.47727211011E+02  0.47727211277E+02  0.50400000000E-02 0. -1.
          1   -1    0    0  501    0  0.00000000000E+00 -0.00000000000E+00 -0.16085930231E+04  0.16085930231E+04  0.50400000000E-02 0.  1.
    5000001    1    1    2    0    0 -0.12128737152E+03 -0.60589113310E+00 -0.29187553269E+03  0.36775850796E+03  0.18800000000E+03 0.  0.
   -5000001    1    1    2    0    0  0.12128737152E+03  0.60589113310E+00 -0.12689902794E+04  0.12885617264E+04  0.18800000000E+03 0.  0.
<mgrwt>
<rscale>  0 0.55416120E+03</rscale>
<asrwt>0</asrwt>
<pdfrwt beam="1">  1        1 0.22979897E+00 0.55416120E+03</pdfrwt>
<pdfrwt beam="2">  1       -1 0.68181740E-02 0.55416120E+03</pdfrwt>
<totfact> 0.78071275E+02</totfact>
</mgrwt>
</event>
<event>
 4    1  0.1545327E-005  0.4511480E+03  0.7818608E-02  0.1027380E+00
         -1   -1    0    0    0  501 -0.00000000000E+00  0.00000000000E+00  0.82522424085E+02  0.82522424239E+02  0.50400000000E-02 0. -1.
          1   -1    0    0  501    0  0.00000000000E+00 -0.00000000000E+00 -0.61660353709E+03  0.61660353711E+03  0.50400000000E-02 0.  1.
    5000001    1    1    2    0    0 -0.11952642147E+03  0.26582802964E+02 -0.30326442959E+03  0.37723537095E+03  0.18800000000E+03 0.  0.
   -5000001    1    1    2    0    0  0.11952642147E+03 -0.26582802964E+02 -0.23081668341E+03  0.32189059040E+03  0.18800000000E+03 0.  0.
<mgrwt>
<rscale>  0 0.45114795E+03</rscale>
<asrwt>0</asrwt>
<pdfrwt beam="1">  1        1 0.88086216E-01 0.45114795E+03</pdfrwt>
<pdfrwt beam="2">  1       -1 0.11788918E-01 0.45114795E+03</pdfrwt>
<totfact> 0.17758551E+03</totfact>
</mgrwt>
</event>
<event>
 4    1  0.1545327E-005  0.6407636E+03  0.7818608E-02  0.9824267E-01
          1   -1    0    0  501    0  0.00000000000E+00  0.00000000000E+00  0.12836762212E+03  0.12836762222E+03  0.50400000000E-02 0.  1.
         -1   -1    0    0    0  501 -0.00000000000E+00 -0.00000000000E+00 -0.79961352834E+03  0.79961352836E+03  0.50400000000E-02 0. -1.
    5000001    1    1    2    0    0  0.50795289798E+02  0.25231959478E+03 -0.28857962704E+03  0.42996225476E+03  0.18800000000E+03 0.  0.
   -5000001    1    1    2    0    0 -0.50795289798E+02 -0.25231959478E+03 -0.38266627918E+03  0.49801889582E+03  0.18800000000E+03 0.  0.
<mgrwt>
<rscale>  0 0.64076357E+03</rscale>
<asrwt>0</asrwt>
<pdfrwt beam="1">  1        1 0.18338232E-01 0.64076357E+03</pdfrwt>
<pdfrwt beam="2">  1       -1 0.11423050E+00 0.64076357E+03</pdfrwt>
<totfact> 0.20892471E+02</totfact>
</mgrwt>
</event>
<event>
 4    1  0.1545327E-005  0.4849073E+03  0.7818608E-02  0.1017795E+00
         -1   -1    0    0    0  501 -0.00000000000E+00  0.00000000000E+00  0.98984616695E+02  0.98984616824E+02  0.50400000000E-02 0. -1.
          1   -1    0    0  501    0  0.00000000000E+00 -0.00000000000E+00 -0.59386779416E+03  0.59386779418E+03  0.50400000000E-02 0.  1.
    5000001    1    1    2    0    0 -0.14315342895E+03 -0.11487591830E+02 -0.32324941180E+03  0.40057340303E+03  0.18800000000E+03 0.  0.
   -5000001    1    1    2    0    0  0.14315342895E+03  0.11487591830E+02 -0.17163376567E+03  0.29227900798E+03  0.18800000000E+03 0.  0.
<mgrwt>
<rscale>  0 0.48490731E+03</rscale>
<asrwt>0</asrwt>
<pdfrwt beam="1">  1        1 0.84838254E-01 0.48490731E+03</pdfrwt>
<pdfrwt beam="2">  1       -1 0.14140660E-01 0.48490731E+03</pdfrwt>
<totfact> 0.14006460E+03</totfact>
</mgrwt>
</event>
<event>
 4    1  0.1545327E-005  0.4594661E+03  0.7818608E-02  0.1024936E+00
         -1   -1    0    0    0  501 -0.00000000000E+00  0.00000000000E+00  0.79395296523E+03  0.79395296524E+03  0.50400000000E-02 0.  1.
          1   -1    0    0  501    0  0.00000000000E+00 -0.00000000000E+00 -0.66474044643E+02  0.66474044834E+02  0.50400000000E-02 0. -1.
    5000001    1    1    2    0    0  0.92751047483E+02  0.92450454967E+02  0.33221286991E+03  0.40355821682E+03  0.18800000000E+03 0.  0.
   -5000001    1    1    2    0    0 -0.92751047483E+02 -0.92450454967E+02  0.39526605068E+03  0.45686879326E+03  0.18800000000E+03 0.  0.
<mgrwt>
<rscale>  0 0.45946606E+03</rscale>
<asrwt>0</asrwt>
<pdfrwt beam="1">  1        1 0.94962923E-02 0.45946606E+03</pdfrwt>
<pdfrwt beam="2">  1       -1 0.11342185E+00 0.45946606E+03</pdfrwt>
<totfact> 0.51962926E+02</totfact>
</mgrwt>
</event>
<event>
 4    1  0.1545327E-005  0.4554637E+03  0.7818608E-02  0.1026105E+00
         -1   -1    0    0    0  501 -0.00000000000E+00  0.00000000000E+00  0.90946461065E+02  0.90946461205E+02  0.50400000000E-02 0. -1.
          1   -1    0    0  501    0  0.00000000000E+00 -0.00000000000E+00 -0.57024545988E+03  0.57024545991E+03  0.50400000000E-02 0.  1.
    5000001    1    1    2    0    0 -0.89755054699E+02 -0.64392276100E+02 -0.14428475507E+03  0.26146591673E+03  0.18800000000E+03 0.  0.
   -5000001    1    1    2    0    0  0.89755054699E+02  0.64392276100E+02 -0.33501424375E+03  0.39972600438E+03  0.18800000000E+03 0.  0.
<mgrwt>
<rscale>  0 0.45546375E+03</rscale>
<asrwt>0</asrwt>
<pdfrwt beam="1">  1        1 0.81463636E-01 0.45546375E+03</pdfrwt>
<pdfrwt beam="2">  1       -1 0.12992352E-01 0.45546375E+03</pdfrwt>
<totfact> 0.16958911E+03</totfact>
</mgrwt>
</event>
<event>
 4    1  0.1545327E-005  0.4938139E+03  0.7818608E-02  0.1015406E+00
          1   -1    0    0  501    0  0.00000000000E+00  0.00000000000E+00  0.63715307960E+03  0.63715307962E+03  0.50400000000E-02 0.  1.
         -1   -1    0    0    0  501 -0.00000000000E+00 -0.00000000000E+00 -0.95680374263E+02  0.95680374396E+02  0.50400000000E-02 0. -1.
    5000001    1    1    2    0    0 -0.79570706728E+02 -0.12552060943E+03  0.35893460124E+03  0.43158425450E+03  0.18800000000E+03 0.  0.
   -5000001    1    1    2    0    0  0.79570706728E+02  0.12552060943E+03  0.18253810409E+03  0.30124919951E+03  0.18800000000E+03 0.  0.
<mgrwt>
<rscale>  0 0.49381391E+03</rscale>
<asrwt>0</asrwt>
<pdfrwt beam="1">  1        1 0.91021871E-01 0.49381391E+03</pdfrwt>
<pdfrwt beam="2">  1       -1 0.13668625E-01 0.49381391E+03</pdfrwt>
<totfact> 0.13401737E+03</totfact>
</mgrwt>
</event>
<event>
 4    1  0.1545327E-005  0.4430687E+03  0.7818608E-02  0.1029809E+00
          1   -1    0    0  501    0  0.00000000000E+00  0.00000000000E+00  0.10129092773E+04  0.10129092774E+04  0.50400000000E-02 0.  1.
         -1   -1    0    0    0  501 -0.00000000000E+00 -0.00000000000E+00 -0.48451978298E+02  0.48451978560E+02  0.50400000000E-02 0. -1.
    5000001    1    1    2    0    0 -0.80371245418E+02 -0.27881373644E+02  0.28915028667E+03  0.35523062419E+03  0.18800000000E+03 0.  0.
   -5000001    1    1    2    0    0  0.80371245418E+02  0.27881373644E+02  0.67530701238E+03  0.70613063172E+03  0.18800000000E+03 0.  0.
<mgrwt>
<rscale>  0 0.44306866E+03</rscale>
<asrwt>0</asrwt>
<pdfrwt beam="1">  1        1 0.14470133E+00 0.44306866E+03</pdfrwt>
<pdfrwt beam="2">  1       -1 0.69217108E-02 0.44306866E+03</pdfrwt>
<totfact> 0.19106021E+03</totfact>
</mgrwt>
</event>
<event>
 4    1  0.1545327E-005  0.6269352E+03  0.7818608E-02  0.9851048E-01
         -1   -1    0    0    0  501 -0.00000000000E+00  0.00000000000E+00  0.34353448397E+02  0.34353448767E+02  0.50400000000E-02 0. -1.
          1   -1    0    0  501    0  0.00000000000E+00 -0.00000000000E+00 -0.28603222220E+04  0.28603222220E+04  0.50400000000E-02 0.  1.
    5000001    1    1    2    0    0  0.20381023655E+03 -0.12490850664E+03 -0.10620423466E+04  0.11047256191E+04  0.18800000000E+03 0.  0.
   -5000001    1    1    2    0    0 -0.20381023655E+03  0.12490850664E+03 -0.17639264270E+04  0.17899500516E+04  0.18800000000E+03 0.  0.
<mgrwt>
<rscale>  0 0.62693519E+03</rscale>
<asrwt>0</asrwt>
<pdfrwt beam="1">  1        1 0.40861731E+00 0.62693519E+03</pdfrwt>
<pdfrwt beam="2">  1       -1 0.49076373E-02 0.62693519E+03</pdfrwt>
<totfact> 0.21354790E+02</totfact>
</mgrwt>
</event>
<event>
 4    1  0.1545327E-005  0.6315101E+03  0.7818608E-02  0.9842106E-01
          1   -1    0    0  501    0  0.00000000000E+00  0.00000000000E+00  0.10098864338E+04  0.10098864338E+04  0.50400000000E-02 0. -1.
         -1   -1    0    0    0  501 -0.00000000000E+00 -0.00000000000E+00 -0.98725220867E+02  0.98725220996E+02  0.50400000000E-02 0.  1.
    5000001    1    1    2    0    0  0.10761786986E+03  0.19266947297E+03  0.67522169135E+03  0.73482750643E+03  0.18800000000E+03 0.  0.
   -5000001    1    1    2    0    0 -0.10761786986E+03 -0.19266947297E+03  0.23593952155E+03  0.37378414835E+03  0.18800000000E+03 0.  0.
<mgrwt>
<rscale>  0 0.63151013E+03</rscale>
<asrwt>0</asrwt>
<pdfrwt beam="1">  1        1 0.14426949E+00 0.63151013E+03</pdfrwt>
<pdfrwt beam="2">  1       -1 0.14103603E-01 0.63151013E+03</pdfrwt>
<totfact> 0.62371593E+02</totfact>
</mgrwt>
</event>
<event>
 4    1  0.1545327E-005  0.8767278E+03  0.7818608E-02  0.9455150E-01
          1   -1    0    0  501    0  0.00000000000E+00  0.00000000000E+00  0.26801832533E+03  0.26801832538E+03  0.50400000000E-02 0. -1.
         -1   -1    0    0    0  501 -0.00000000000E+00 -0.00000000000E+00 -0.71697679859E+03  0.71697679861E+03  0.50400000000E-02 0.  1.
    5000001    1    1    2    0    0 -0.38139414896E+03 -0.48527093449E+02 -0.33107794570E+03  0.54108500422E+03  0.18800000000E+03 0.  0.
   -5000001    1    1    2    0    0  0.38139414896E+03  0.48527093449E+02 -0.11788052755E+03  0.44391011977E+03  0.18800000000E+03 0.  0.
<mgrwt>
<rscale>  0 0.87672783E+03</rscale>
<asrwt>0</asrwt>
<pdfrwt beam="1">  1        1 0.38288333E-01 0.87672783E+03</pdfrwt>
<pdfrwt beam="2">  1       -1 0.10242526E+00 0.87672783E+03</pdfrwt>
<totfact> 0.10178946E+02</totfact>
</mgrwt>
</event>
<event>
 4    1  0.1545327E-005  0.4217587E+03  0.7818608E-02  0.1036495E+00
         -1   -1    0    0    0  501 -0.00000000000E+00  0.00000000000E+00  0.42514462978E+02  0.42514463277E+02  0.50400000000E-02 0.  1.
          1   -1    0    0  501    0  0.00000000000E+00 -0.00000000000E+00 -0.10459991931E+04  0.10459991931E+04  0.50400000000E-02 0. -1.
    5000001    1    1    2    0    0 -0.28384068960E+02  0.88548037183E+02 -0.44521647310E+03  0.49214643977E+03  0.18800000000E+03 0.  0.
   -5000001    1    1    2    0    0  0.28384068960E+02 -0.88548037183E+02 -0.55826825704E+03  0.59636721663E+03  0.18800000000E+03 0.  0.
<mgrwt>
<rscale>  0 0.42175867E+03</rscale>
<asrwt>0</asrwt>
<pdfrwt beam="1">  1        1 0.14942844E+00 0.42175867E+03</pdfrwt>
<pdfrwt beam="2">  1       -1 0.60734954E-02 0.42175867E+03</pdfrwt>
<totfact> 0.22098831E+03</totfact>
</mgrwt>
</event>
<event>
 4    1  0.1545327E-005  0.7741810E+03  0.7818608E-02  0.9598160E-01
          1   -1    0    0  501    0  0.00000000000E+00  0.00000000000E+00  0.20320975697E+03  0.20320975703E+03  0.50400000000E-02 0.  1.
         -1   -1    0    0    0  501 -0.00000000000E+00 -0.00000000000E+00 -0.73736146495E+03  0.73736146497E+03  0.50400000000E-02 0. -1.
    5000001    1    1    2    0    0  0.45792406455E+02  0.30737437677E+03 -0.10444340736E+03  0.37792641787E+03  0.18800000000E+03 0.  0.
   -5000001    1    1    2    0    0 -0.45792406455E+02 -0.30737437677E+03 -0.42970830062E+03  0.56264480412E+03  0.18800000000E+03 0.  0.
<mgrwt>
<rscale>  0 0.77418097E+03</rscale>
<asrwt>0</asrwt>
<pdfrwt beam="1">  1        1 0.29029966E-01 0.77418097E+03</pdfrwt>
<pdfrwt beam="2">  1       -1 0.10533735E+00 0.77418097E+03</pdfrwt>
<totfact> 0.13737530E+02</totfact>
</mgrwt>
</event>
<event>
 4    1  0.1545327E-005  0.5311627E+03  0.7818608E-02  0.1005951E+00
          1   -1    0    0  501    0  0.00000000000E+00  0.00000000000E+00  0.15076667277E+04  0.15076667277E+04  0.50400000000E-02 0.  1.
         -1   -1    0    0    0  501 -0.00000000000E+00 -0.00000000000E+00 -0.46783180420E+02  0.46783180691E+02  0.50400000000E-02 0. -1.
    5000001    1    1    2    0    0 -0.15669472227E+03 -0.64994832801E+02  0.96477933043E+03  0.99745712726E+03  0.18800000000E+03 0.  0.
   -5000001    1    1    2    0    0  0.15669472227E+03  0.64994832801E+02  0.49610421687E+03  0.55699278117E+03  0.18800000000E+03 0.  0.
<mgrwt>
<rscale>  0 0.53116267E+03</rscale>
<asrwt>0</asrwt>
<pdfrwt beam="1">  1        1 0.21538097E+00 0.53116267E+03</pdfrwt>
<pdfrwt beam="2">  1       -1 0.66833114E-02 0.53116267E+03</pdfrwt>
<totfact> 0.93410498E+02</totfact>
</mgrwt>
</event>
<event>
 4    1  0.1545327E-005  0.1189540E+04  0.7818608E-02  0.9122061E-01
          1   -1    0    0  501    0  0.00000000000E+00  0.00000000000E+00  0.64051957596E+03  0.64051957598E+03  0.50400000000E-02 0. -1.
         -1   -1    0    0    0  501 -0.00000000000E+00 -0.00000000000E+00 -0.55228856288E+03  0.55228856291E+03  0.50400000000E-02 0.  1.
    5000001    1    1    2    0    0 -0.23346270772E+02  0.26410735578E+03  0.54359010878E+03  0.63334978496E+03  0.18800000000E+03 0.  0.
   -5000001    1    1    2    0    0  0.23346270772E+02 -0.26410735578E+03 -0.45535909571E+03  0.55945835393E+03  0.18800000000E+03 0.  0.
<mgrwt>
<rscale>  0 0.11895405E+04</rscale>
<asrwt>0</asrwt>
<pdfrwt beam="1">  1        1 0.91502796E-01 0.11895405E+04</pdfrwt>
<pdfrwt beam="2">  1       -1 0.78898367E-01 0.11895405E+04</pdfrwt>
<totfact> 0.55287350E+01</totfact>
</mgrwt>
</event>
<event>
 4    1  0.1545327E-005  0.5239996E+03  0.7818608E-02  0.1007698E+00
          1   -1    0    0  501    0  0.00000000000E+00  0.00000000000E+00  0.16441632557E+04  0.16441632557E+04  0.50400000000E-02 0.  1.
         -1   -1    0    0    0  501 -0.00000000000E+00 -0.00000000000E+00 -0.41750048513E+02  0.41750048817E+02  0.50400000000E-02 0. -1.
    5000001    1    1    2    0    0  0.69313953196E+01  0.17164630617E+03  0.99926321752E+03  0.10312038967E+04  0.18800000000E+03 0.  0.
   -5000001    1    1    2    0    0 -0.69313953196E+01 -0.17164630617E+03  0.60314998962E+03  0.65470940779E+03  0.18800000000E+03 0.  0.
<mgrwt>
<rscale>  0 0.52399960E+03</rscale>
<asrwt>0</asrwt>
<pdfrwt beam="1">  1        1 0.23488048E+00 0.52399960E+03</pdfrwt>
<pdfrwt beam="2">  1       -1 0.59642923E-02 0.52399960E+03</pdfrwt>
<totfact> 0.91263970E+02</totfact>
</mgrwt>
</event>
<event>
 4    1  0.1545327E-005  0.6170060E+03  0.7818608E-02  0.9870739E-01
          1   -1    0    0  501    0  0.00000000000E+00  0.00000000000E+00  0.78937902460E+03  0.78937902462E+03  0.50400000000E-02 0.  1.
         -1   -1    0    0    0  501 -0.00000000000E+00 -0.00000000000E+00 -0.12056830105E+03  0.12056830115E+03  0.50400000000E-02 0. -1.
    5000001    1    1    2    0    0  0.21805913023E+03  0.27649462385E+02  0.49266645363E+03  0.57129546784E+03  0.18800000000E+03 0.  0.
   -5000001    1    1    2    0    0 -0.21805913023E+03 -0.27649462385E+02  0.17614426992E+03  0.33865185793E+03  0.18800000000E+03 0.  0.
<mgrwt>
<rscale>  0 0.61700596E+03</rscale>
<asrwt>0</asrwt>
<pdfrwt beam="1">  1        1 0.11276843E+00 0.61700596E+03</pdfrwt>
<pdfrwt beam="2">  1       -1 0.17224043E-01 0.61700596E+03</pdfrwt>
<totfact> 0.67128197E+02</totfact>
</mgrwt>
</event>
<event>
 4    1  0.1545327E-005  0.5821513E+03  0.7818608E-02  0.9943144E-01
          1   -1    0    0  501    0  0.00000000000E+00  0.00000000000E+00  0.18713754217E+04  0.18713754217E+04  0.50400000000E-02 0.  1.
         -1   -1    0    0    0  501 -0.00000000000E+00 -0.00000000000E+00 -0.45274203473E+02  0.45274203753E+02  0.50400000000E-02 0. -1.
    5000001    1    1    2    0    0 -0.20292426169E+02 -0.21554847557E+03  0.10779350341E+04  0.11154195917E+04  0.18800000000E+03 0.  0.
   -5000001    1    1    2    0    0  0.20292426169E+02  0.21554847557E+03  0.74816618417E+03  0.80123003377E+03  0.18800000000E+03 0.  0.
<mgrwt>
<rscale>  0 0.58215129E+03</rscale>
<asrwt>0</asrwt>
<pdfrwt beam="1">  1        1 0.26733925E+00 0.58215129E+03</pdfrwt>
<pdfrwt beam="2">  1       -1 0.64677457E-02 0.58215129E+03</pdfrwt>
<totfact> 0.57962378E+02</totfact>
</mgrwt>
</event>
<event>
 4    1  0.1545327E-005  0.6024619E+03  0.7818608E-02  0.9900312E-01
          1   -1    0    0  501    0  0.00000000000E+00  0.00000000000E+00  0.19980539894E+04  0.19980539894E+04  0.50400000000E-02 0.  1.
         -1   -1    0    0    0  501 -0.00000000000E+00 -0.00000000000E+00 -0.45414227085E+02  0.45414227365E+02  0.50400000000E-02 0. -1.
    5000001    1    1    2    0    0 -0.18377334801E+03 -0.14501088199E+03  0.10590756806E+04  0.11008115627E+04  0.18800000000E+03 0.  0.
   -5000001    1    1    2    0    0  0.18377334801E+03  0.14501088199E+03  0.89356408172E+03  0.94265665408E+03  0.18800000000E+03 0.  0.
<mgrwt>
<rscale>  0 0.60246188E+03</rscale>
<asrwt>0</asrwt>
<pdfrwt beam="1">  1        1 0.28543636E+00 0.60246188E+03</pdfrwt>
<pdfrwt beam="2">  1       -1 0.64877451E-02 0.60246188E+03</pdfrwt>
<totfact> 0.48098191E+02</totfact>
</mgrwt>
</event>
<event>
 4    1  0.1545327E-005  0.9089643E+03  0.7818608E-02  0.9414444E-01
         -1   -1    0    0    0  501 -0.00000000000E+00  0.00000000000E+00  0.22085533013E+03  0.22085533018E+03  0.50400000000E-02 0. -1.
          1   -1    0    0  501    0  0.00000000000E+00 -0.00000000000E+00 -0.93524589036E+03  0.93524589037E+03  0.50400000000E-02 0.  1.
    5000001    1    1    2    0    0  0.39719005358E+03  0.10504344021E+03 -0.41971188820E+03  0.61668154837E+03  0.18800000000E+03 0.  0.
   -5000001    1    1    2    0    0 -0.39719005358E+03 -0.10504344021E+03 -0.29467867203E+03  0.53941967219E+03  0.18800000000E+03 0.  0.
<mgrwt>
<rscale>  0 0.90896433E+03</rscale>
<asrwt>0</asrwt>
<pdfrwt beam="1">  1        1 0.13360655E+00 0.90896433E+03</pdfrwt>
<pdfrwt beam="2">  1       -1 0.31550762E-01 0.90896433E+03</pdfrwt>
<totfact> 0.18130750E+02</totfact>
</mgrwt>
</event>
<event>
 4    1  0.1545327E-005  0.4678342E+03  0.7818608E-02  0.1022533E+00
         -1   -1    0    0    0  501 -0.00000000000E+00  0.00000000000E+00  0.14098905757E+03  0.14098905766E+03  0.50400000000E-02 0. -1.
          1   -1    0    0  501    0  0.00000000000E+00 -0.00000000000E+00 -0.38809535570E+03  0.38809535574E+03  0.50400000000E-02 0.  1.
    5000001    1    1    2    0    0  0.13887887168E+03 -0.35989050559E+01 -0.13320949431E+03  0.26905215571E+03  0.18800000000E+03 0.  0.
   -5000001    1    1    2    0    0 -0.13887887168E+03  0.35989050559E+01 -0.11389680383E+03  0.26003225769E+03  0.18800000000E+03 0.  0.
<mgrwt>
<rscale>  0 0.46783415E+03</rscale>
<asrwt>0</asrwt>
<pdfrwt beam="1">  1        1 0.55442193E-01 0.46783415E+03</pdfrwt>
<pdfrwt beam="2">  1       -1 0.20141294E-01 0.46783415E+03</pdfrwt>
<totfact> 0.13887386E+03</totfact>
</mgrwt>
</event>
<event>
 4    1  0.1545327E-005  0.7237882E+03  0.7818608E-02  0.9677394E-01
          1   -1    0    0  501    0  0.00000000000E+00  0.00000000000E+00  0.69891420187E+02  0.69891420369E+02  0.50400000000E-02 0.  1.
         -1   -1    0    0    0  501 -0.00000000000E+00 -0.00000000000E+00 -0.18738683773E+04  0.18738683773E+04  0.50400000000E-02 0. -1.
    5000001    1    1    2    0    0  0.12388887521E+03 -0.23438418537E+03 -0.47449922879E+03  0.57513295669E+03  0.18800000000E+03 0.  0.
   -5000001    1    1    2    0    0 -0.12388887521E+03  0.23438418537E+03 -0.13294777283E+04  0.13686268410E+04  0.18800000000E+03 0.  0.
<mgrwt>
<rscale>  0 0.72378815E+03</rscale>
<asrwt>0</asrwt>
<pdfrwt beam="1">  1        1 0.99844898E-02 0.72378815E+03</pdfrwt>
<pdfrwt beam="2">  1       -1 0.26769545E+00 0.72378815E+03</pdfrwt>
<totfact> 0.37303874E+01</totfact>
</mgrwt>
</event>
<event>
 4    1  0.1545327E-005  0.5488245E+03  0.7818608E-02  0.1001766E+00
          1   -1    0    0  501    0  0.00000000000E+00  0.00000000000E+00  0.40476386932E+03  0.40476386935E+03  0.50400000000E-02 0. -1.
         -1   -1    0    0    0  501 -0.00000000000E+00 -0.00000000000E+00 -0.18603953948E+03  0.18603953955E+03  0.50400000000E-02 0.  1.
    5000001    1    1    2    0    0  0.17855685180E+03 -0.63292608492E+02  0.17803489426E+03  0.32082538427E+03  0.18800000000E+03 0.  0.
   -5000001    1    1    2    0    0 -0.17855685180E+03  0.63292608492E+02  0.40689435569E+02  0.26997802463E+03  0.18800000000E+03 0.  0.
<mgrwt>
<rscale>  0 0.54882450E+03</rscale>
<asrwt>0</asrwt>
<pdfrwt beam="1">  1        1 0.57823410E-01 0.54882450E+03</pdfrwt>
<pdfrwt beam="2">  1       -1 0.26577077E-01 0.54882450E+03</pdfrwt>
<totfact> 0.82555410E+02</totfact>
</mgrwt>
</event>
<event>
 4    1  0.1545327E-005  0.4620840E+03  0.7818608E-02  0.1024179E+00
         -1   -1    0    0    0  501 -0.00000000000E+00  0.00000000000E+00  0.47967231212E+02  0.47967231477E+02  0.50400000000E-02 0. -1.
          1   -1    0    0  501    0  0.00000000000E+00 -0.00000000000E+00 -0.11128515149E+04  0.11128515149E+04  0.50400000000E-02 0.  1.
    5000001    1    1    2    0    0  0.12644124375E+03  0.53466519443E+01 -0.41952353234E+03  0.47682278573E+03  0.18800000000E+03 0.  0.
   -5000001    1    1    2    0    0 -0.12644124375E+03 -0.53466519443E+01 -0.64536075132E+03  0.68399596062E+03  0.18800000000E+03 0.  0.
<mgrwt>
<rscale>  0 0.46208400E+03</rscale>
<asrwt>0</asrwt>
<pdfrwt beam="1">  1        1 0.15897877E+00 0.46208400E+03</pdfrwt>
<pdfrwt beam="2">  1       -1 0.68524623E-02 0.46208400E+03</pdfrwt>
<totfact> 0.16465438E+03</totfact>
</mgrwt>
</event>
<event>
 4    1  0.1545327E-005  0.7366680E+03  0.7818608E-02  0.9656501E-01
          1   -1    0    0  501    0  0.00000000000E+00  0.00000000000E+00  0.83468942583E+03  0.83468942584E+03  0.50400000000E-02 0.  1.
         -1   -1    0    0    0  501 -0.00000000000E+00 -0.00000000000E+00 -0.16253940389E+03  0.16253940397E+03  0.50400000000E-02 0. -1.
    5000001    1    1    2    0    0 -0.15194778953E+03  0.27181633711E+03  0.41446907844E+03  0.55145341494E+03  0.18800000000E+03 0.  0.
   -5000001    1    1    2    0    0  0.15194778953E+03 -0.27181633711E+03  0.25768094349E+03  0.44577541487E+03  0.18800000000E+03 0.  0.
<mgrwt>
<rscale>  0 0.73666796E+03</rscale>
<asrwt>0</asrwt>
<pdfrwt beam="1">  1        1 0.11924135E+00 0.73666796E+03</pdfrwt>
<pdfrwt beam="2">  1       -1 0.23219915E-01 0.73666796E+03</pdfrwt>
<totfact> 0.37288988E+02</totfact>
</mgrwt>
</event>
<event>
 4    1  0.1545327E-005  0.4171955E+03  0.7818608E-02  0.1037983E+00
          1   -1    0    0  501    0  0.00000000000E+00  0.00000000000E+00  0.99652695141E+03  0.99652695143E+03  0.50400000000E-02 0.  1.
         -1   -1    0    0    0  501 -0.00000000000E+00 -0.00000000000E+00 -0.43664671294E+02  0.43664671585E+02  0.50400000000E-02 0. -1.
    5000001    1    1    2    0    0  0.62190643040E+02  0.43534565900E+02  0.35413030159E+03  0.40806274641E+03  0.18800000000E+03 0.  0.
   -5000001    1    1    2    0    0 -0.62190643040E+02 -0.43534565900E+02  0.59873197853E+03  0.63212887660E+03  0.18800000000E+03 0.  0.
<mgrwt>
<rscale>  0 0.41719550E+03</rscale>
<asrwt>0</asrwt>
<pdfrwt beam="1">  1        1 0.14236100E+00 0.41719550E+03</pdfrwt>
<pdfrwt beam="2">  1       -1 0.62378097E-02 0.41719550E+03</pdfrwt>
<totfact> 0.23037571E+03</totfact>
</mgrwt>
</event>
<event>
 4    1  0.1545327E-005  0.1212071E+04  0.7818608E-02  0.9102356E-01
          1   -1    0    0  501    0  0.00000000000E+00  0.00000000000E+00  0.82666890004E+03  0.82666890006E+03  0.50400000000E-02 0.  1.
         -1   -1    0    0    0  501 -0.00000000000E+00 -0.00000000000E+00 -0.44428799665E+03  0.44428799668E+03  0.50400000000E-02 0. -1.
    5000001    1    1    2    0    0 -0.45494081588E+03  0.31650174535E+03  0.35629003686E+03  0.68515041497E+03  0.18800000000E+03 0.  0.
   -5000001    1    1    2    0    0  0.45494081588E+03 -0.31650174535E+03  0.26090866528E+02  0.58580648177E+03  0.18800000000E+03 0.  0.
<mgrwt>
<rscale>  0 0.12120711E+04</rscale>
<asrwt>0</asrwt>
<pdfrwt beam="1">  1        1 0.11809556E+00 0.12120711E+04</pdfrwt>
<pdfrwt beam="2">  1       -1 0.63469714E-01 0.12120711E+04</pdfrwt>
<totfact> 0.58873548E+01</totfact>
</mgrwt>
</event>
<event>
 4    1  0.1545327E-005  0.4443944E+03  0.7818608E-02  0.1029407E+00
          1   -1    0    0  501    0  0.00000000000E+00  0.00000000000E+00  0.30316753317E+03  0.30316753321E+03  0.50400000000E-02 0.  1.
         -1   -1    0    0    0  501 -0.00000000000E+00 -0.00000000000E+00 -0.16285254865E+03  0.16285254873E+03  0.50400000000E-02 0. -1.
    5000001    1    1    2    0    0 -0.10024045891E+03  0.23261091966E+01  0.40497376454E+01  0.21310551556E+03  0.18800000000E+03 0.  0.
   -5000001    1    1    2    0    0  0.10024045891E+03 -0.23261091966E+01  0.13626524687E+03  0.25291456639E+03  0.18800000000E+03 0.  0.
<mgrwt>
<rscale>  0 0.44439444E+03</rscale>
<asrwt>0</asrwt>
<pdfrwt beam="1">  1        1 0.43309647E-01 0.44439444E+03</pdfrwt>
<pdfrwt beam="2">  1       -1 0.23264650E-01 0.44439444E+03</pdfrwt>
<totfact> 0.15004373E+03</totfact>
</mgrwt>
</event>
<event>
 4    1  0.1545327E-005  0.5060952E+03  0.7818608E-02  0.1012200E+00
          1   -1    0    0  501    0  0.00000000000E+00  0.00000000000E+00  0.13979567566E+03  0.13979567575E+03  0.50400000000E-02 0.  1.
         -1   -1    0    0    0  501 -0.00000000000E+00 -0.00000000000E+00 -0.45804771640E+03  0.45804771643E+03  0.50400000000E-02 0. -1.
    5000001    1    1    2    0    0 -0.11477850819E+02 -0.11708555759E+03 -0.30307012556E+03  0.37554795947E+03  0.18800000000E+03 0.  0.
   -5000001    1    1    2    0    0  0.11477850819E+02  0.11708555759E+03 -0.15181915191E+02  0.22229543271E+03  0.18800000000E+03 0.  0.
<mgrwt>
<rscale>  0 0.50609521E+03</rscale>
<asrwt>0</asrwt>
<pdfrwt beam="1">  1        1 0.19970811E-01 0.50609521E+03</pdfrwt>
<pdfrwt beam="2">  1       -1 0.65435387E-01 0.50609521E+03</pdfrwt>
<totfact> 0.62804251E+02</totfact>
</mgrwt>
</event>
<event>
 4    1  0.1545327E-005  0.8529740E+03  0.7818608E-02  0.9486354E-01
         -1   -1    0    0    0  501 -0.00000000000E+00  0.00000000000E+00  0.23672430226E+04  0.23672430226E+04  0.50400000000E-02 0. -1.
          1   -1    0    0  501    0  0.00000000000E+00 -0.00000000000E+00 -0.76836707263E+02  0.76836707428E+02  0.50400000000E-02 0.  1.
    5000001    1    1    2    0    0 -0.15874153224E+03  0.32806120684E+03  0.14808804687E+04  0.15366112040E+04  0.18800000000E+03 0.  0.
   -5000001    1    1    2    0    0  0.15874153224E+03 -0.32806120684E+03  0.80952584666E+03  0.90746852612E+03  0.18800000000E+03 0.  0.
<mgrwt>
<rscale>  0 0.85297400E+03</rscale>
<asrwt>0</asrwt>
<pdfrwt beam="1">  1        1 0.10976672E-01 0.85297400E+03</pdfrwt>
<pdfrwt beam="2">  1       -1 0.33817760E+00 0.85297400E+03</pdfrwt>
<totfact> 0.11405269E+01</totfact>
</mgrwt>
</event>
<event>
 4    1  0.1545327E-005  0.1078717E+04  0.7818608E-02  0.9226187E-01
          1   -1    0    0  501    0  0.00000000000E+00  0.00000000000E+00  0.10723985993E+04  0.10723985993E+04  0.50400000000E-02 0.  1.
         -1   -1    0    0    0  501 -0.00000000000E+00 -0.00000000000E+00 -0.27126829204E+03  0.27126829209E+03  0.50400000000E-02 0. -1.
    5000001    1    1    2    0    0 -0.44958976908E+03  0.23027262003E+03  0.42570364999E+03  0.68682169274E+03  0.18800000000E+03 0.  0.
   -5000001    1    1    2    0    0  0.44958976908E+03 -0.23027262003E+03  0.37542665722E+03  0.65684519862E+03  0.18800000000E+03 0.  0.
<mgrwt>
<rscale>  0 0.10787173E+04</rscale>
<asrwt>0</asrwt>
<pdfrwt beam="1">  1        1 0.15319980E+00 0.10787173E+04</pdfrwt>
<pdfrwt beam="2">  1       -1 0.38752613E-01 0.10787173E+04</pdfrwt>
<totfact> 0.98110010E+01</totfact>
</mgrwt>
</event>
<event>
 4    1  0.1545327E-005  0.7743700E+03  0.7818608E-02  0.9597875E-01
         -1   -1    0    0    0  501 -0.00000000000E+00  0.00000000000E+00  0.19004848339E+03  0.19004848345E+03  0.50400000000E-02 0.  1.
          1   -1    0    0  501    0  0.00000000000E+00 -0.00000000000E+00 -0.78881040328E+03  0.78881040330E+03  0.50400000000E-02 0. -1.
    5000001    1    1    2    0    0 -0.27452181431E+03 -0.72524659571E+02 -0.53227959966E+03  0.63189209917E+03  0.18800000000E+03 0.  0.
   -5000001    1    1    2    0    0  0.27452181431E+03  0.72524659571E+02 -0.66482320234E+02  0.34696678758E+03  0.18800000000E+03 0.  0.
<mgrwt>
<rscale>  0 0.77436999E+03</rscale>
<asrwt>0</asrwt>
<pdfrwt beam="1">  1        1 0.11268720E+00 0.77436999E+03</pdfrwt>
<pdfrwt beam="2">  1       -1 0.27149784E-01 0.77436999E+03</pdfrwt>
<totfact> 0.31130821E+02</totfact>
</mgrwt>
</event>
<event>
 4    1  0.1545327E-005  0.5035589E+03  0.7818608E-02  0.1012854E+00
         -1   -1    0    0    0  501 -0.00000000000E+00  0.00000000000E+00  0.67390393527E+03  0.67390393529E+03  0.50400000000E-02 0.  1.
          1   -1    0    0  501    0  0.00000000000E+00 -0.00000000000E+00 -0.94068130311E+02  0.94068130446E+02  0.50400000000E-02 0. -1.
    5000001    1    1    2    0    0 -0.12346132871E+02 -0.16651703466E+03  0.27011913274E+03  0.36903752614E+03  0.18800000000E+03 0.  0.
   -5000001    1    1    2    0    0  0.12346132871E+02  0.16651703466E+03  0.30971667222E+03  0.39893453959E+03  0.18800000000E+03 0.  0.
<mgrwt>
<rscale>  0 0.50355887E+03</rscale>
<asrwt>0</asrwt>
<pdfrwt beam="1">  1        1 0.13438304E-01 0.50355887E+03</pdfrwt>
<pdfrwt beam="2">  1       -1 0.96271992E-01 0.50355887E+03</pdfrwt>
<totfact> 0.47195532E+02</totfact>
</mgrwt>
</event>
<event>
 4    1  0.1545327E-005  0.4993184E+03  0.7818608E-02  0.1013957E+00
         -1   -1    0    0    0  501 -0.00000000000E+00  0.00000000000E+00  0.46255517811E+02  0.46255518085E+02  0.50400000000E-02 0. -1.
          1   -1    0    0  501    0  0.00000000000E+00 -0.00000000000E+00 -0.13475090359E+04  0.13475090359E+04  0.50400000000E-02 0.  1.
    5000001    1    1    2    0    0  0.66419566742E+02 -0.62944444194E+02 -0.10314384450E+04  0.10524176109E+04  0.18800000000E+03 0.  0.
   -5000001    1    1    2    0    0 -0.66419566742E+02  0.62944444194E+02 -0.26981507312E+03  0.34134694313E+03  0.18800000000E+03 0.  0.
<mgrwt>
<rscale>  0 0.49931845E+03</rscale>
<asrwt>0</asrwt>
<pdfrwt beam="1">  1        1 0.19250127E+00 0.49931845E+03</pdfrwt>
<pdfrwt beam="2">  1       -1 0.66079319E-02 0.49931845E+03</pdfrwt>
<totfact> 0.12079087E+03</totfact>
</mgrwt>
</event>
<event>
 4    1  0.1545327E-005  0.5498761E+03  0.7818608E-02  0.1001523E+00
          1   -1    0    0  501    0  0.00000000000E+00  0.00000000000E+00  0.34184485760E+03  0.34184485764E+03  0.50400000000E-02 0. -1.
         -1   -1    0    0    0  501 -0.00000000000E+00 -0.00000000000E+00 -0.22112643367E+03  0.22112643373E+03  0.50400000000E-02 0.  1.
    5000001    1    1    2    0    0  0.53041519960E+02 -0.18396113721E+03  0.12171836677E+03  0.29464294265E+03  0.18800000000E+03 0.  0.
   -5000001    1    1    2    0    0 -0.53041519960E+02  0.18396113721E+03 -0.99994284000E+00  0.26832834872E+03  0.18800000000E+03 0.  0.
<mgrwt>
<rscale>  0 0.54987611E+03</rscale>
<asrwt>0</asrwt>
<pdfrwt beam="1">  1        1 0.48834979E-01 0.54987611E+03</pdfrwt>
<pdfrwt beam="2">  1       -1 0.31589491E-01 0.54987611E+03</pdfrwt>
<totfact> 0.76297919E+02</totfact>
</mgrwt>
</event>
<event>
 4    1  0.1545327E-005  0.7178451E+03  0.7818608E-02  0.9687192E-01
          1   -1    0    0  501    0  0.00000000000E+00  0.00000000000E+00  0.36638856753E+03  0.36638856756E+03  0.50400000000E-02 0. -1.
         -1   -1    0    0    0  501 -0.00000000000E+00 -0.00000000000E+00 -0.35160871802E+03  0.35160871805E+03  0.50400000000E-02 0.  1.
    5000001    1    1    2    0    0  0.24016249988E+03 -0.11338826265E+02  0.19630774366E+03  0.36288748332E+03  0.18800000000E+03 0.  0.
   -5000001    1    1    2    0    0 -0.24016249988E+03  0.11338826265E+02 -0.18152789415E+03  0.35510980229E+03  0.18800000000E+03 0.  0.
<mgrwt>
<rscale>  0 0.71784515E+03</rscale>
<asrwt>0</asrwt>
<pdfrwt beam="1">  1        1 0.52341224E-01 0.71784515E+03</pdfrwt>
<pdfrwt beam="2">  1       -1 0.50229817E-01 0.71784515E+03</pdfrwt>
<totfact> 0.29932960E+02</totfact>
</mgrwt>
</event>
<event>
 4    1  0.1545327E-005  0.5996374E+03  0.7818608E-02  0.9906159E-01
         -1   -1    0    0    0  501 -0.00000000000E+00  0.00000000000E+00  0.95163517439E+02  0.95163517573E+02  0.50400000000E-02 0. -1.
          1   -1    0    0  501    0  0.00000000000E+00 -0.00000000000E+00 -0.94459769404E+03  0.94459769406E+03  0.50400000000E-02 0.  1.
    5000001    1    1    2    0    0 -0.13684455820E+03 -0.53875741514E+02 -0.73932022047E+03  0.77689601430E+03  0.18800000000E+03 0.  0.
   -5000001    1    1    2    0    0  0.13684455820E+03  0.53875741514E+02 -0.11011395613E+03  0.26286519733E+03  0.18800000000E+03 0.  0.
<mgrwt>
<rscale>  0 0.59963735E+03</rscale>
<asrwt>0</asrwt>
<pdfrwt beam="1">  1        1 0.13494252E+00 0.59963735E+03</pdfrwt>
<pdfrwt beam="2">  1       -1 0.13594789E-01 0.59963735E+03</pdfrwt>
<totfact> 0.74142140E+02</totfact>
</mgrwt>
</event>
<event>
 4    1  0.1545327E-005  0.6594367E+03  0.7818608E-02  0.9789231E-01
         -1   -1    0    0    0  501 -0.00000000000E+00  0.00000000000E+00  0.38976779316E+03  0.38976779320E+03  0.50400000000E-02 0.  1.
          1   -1    0    0  501    0  0.00000000000E+00 -0.00000000000E+00 -0.27892042495E+03  0.27892042500E+03  0.50400000000E-02 0. -1.
    5000001    1    1    2    0    0  0.21204278305E+03  0.16474479977E+03  0.91520960269E+02  0.34032789639E+03  0.18800000000E+03 0.  0.
   -5000001    1    1    2    0    0 -0.21204278305E+03 -0.16474479977E+03  0.19326407945E+02  0.32836032181E+03  0.18800000000E+03 0.  0.
<mgrwt>
<rscale>  0 0.65943672E+03</rscale>
<asrwt>0</asrwt>
<pdfrwt beam="1">  1        1 0.39845775E-01 0.65943672E+03</pdfrwt>
<pdfrwt beam="2">  1       -1 0.55681114E-01 0.65943672E+03</pdfrwt>
<totfact> 0.35065070E+02</totfact>
</mgrwt>
</event>
<event>
 4    1  0.1545327E-005  0.7444195E+03  0.7818608E-02  0.9644146E-01
          1   -1    0    0  501    0  0.00000000000E+00  0.00000000000E+00  0.45926820640E+03  0.45926820643E+03  0.50400000000E-02 0. -1.
         -1   -1    0    0    0  501 -0.00000000000E+00 -0.00000000000E+00 -0.30165402732E+03  0.30165402736E+03  0.50400000000E-02 0.  1.
    5000001    1    1    2    0    0 -0.11078000484E+03 -0.28013532382E+03  0.19285149104E+03  0.40408378676E+03  0.18800000000E+03 0.  0.
   -5000001    1    1    2    0    0  0.11078000484E+03  0.28013532382E+03 -0.35237311955E+02  0.35683844703E+03  0.18800000000E+03 0.  0.
<mgrwt>
<rscale>  0 0.74441952E+03</rscale>
<asrwt>0</asrwt>
<pdfrwt beam="1">  1        1 0.65609744E-01 0.74441952E+03</pdfrwt>
<pdfrwt beam="2">  1       -1 0.43093433E-01 0.74441952E+03</pdfrwt>
<totfact> 0.29551767E+02</totfact>
</mgrwt>
</event>
<event>
 4    1  0.1545327E-005  0.4600222E+03  0.7818608E-02  0.1024775E+00
          1   -1    0    0  501    0  0.00000000000E+00  0.00000000000E+00  0.15379685334E+04  0.15379685334E+04  0.50400000000E-02 0.  1.
         -1   -1    0    0    0  501 -0.00000000000E+00 -0.00000000000E+00 -0.34399335921E+02  0.34399336290E+02  0.50400000000E-02 0. -1.
    5000001    1    1    2    0    0  0.68724437009E+02  0.10991045537E+03  0.84587288035E+03  0.87615540069E+03  0.18800000000E+03 0.  0.
   -5000001    1    1    2    0    0 -0.68724437009E+02 -0.10991045537E+03  0.65769631713E+03  0.69621246902E+03  0.18800000000E+03 0.  0.
<mgrwt>
<rscale>  0 0.46002216E+03</rscale>
<asrwt>0</asrwt>
<pdfrwt beam="1">  1        1 0.21970969E+00 0.46002216E+03</pdfrwt>
<pdfrwt beam="2">  1       -1 0.49141931E-02 0.46002216E+03</pdfrwt>
<totfact> 0.14349082E+03</totfact>
</mgrwt>
</event>
<event>
 4    1  0.1545327E-005  0.5204680E+03  0.7818608E-02  0.1008570E+00
          1   -1    0    0  501    0  0.00000000000E+00  0.00000000000E+00  0.29046303534E+04  0.29046303534E+04  0.50400000000E-02 0. -1.
         -1   -1    0    0    0  501 -0.00000000000E+00 -0.00000000000E+00 -0.23315091667E+02  0.23315092212E+02  0.50400000000E-02 0.  1.
    5000001    1    1    2    0    0  0.46070644065E+02  0.15908719475E+03  0.18363132028E+04  0.18533271213E+04  0.18800000000E+03 0.  0.
   -5000001    1    1    2    0    0 -0.46070644065E+02 -0.15908719475E+03  0.10450020589E+04  0.10746183243E+04  0.18800000000E+03 0.  0.
<mgrwt>
<rscale>  0 0.52046796E+03</rscale>
<asrwt>0</asrwt>
<pdfrwt beam="1">  1        1 0.41494681E+00 0.52046796E+03</pdfrwt>
<pdfrwt beam="2">  1       -1 0.33307305E-02 0.52046796E+03</pdfrwt>
<totfact> 0.36435360E+02</totfact>
</mgrwt>
</event>
<event>
 4    1  0.1545327E-005  0.7642576E+03  0.7818608E-02  0.9613244E-01
         -1   -1    0    0    0  501 -0.00000000000E+00  0.00000000000E+00  0.13925815853E+03  0.13925815863E+03  0.50400000000E-02 0.  1.
          1   -1    0    0  501    0  0.00000000000E+00 -0.00000000000E+00 -0.10485734561E+04  0.10485734561E+04  0.50400000000E-02 0. -1.
    5000001    1    1    2    0    0 -0.23577359447E+03 -0.23267929331E+03 -0.40676399207E+03  0.55725199563E+03  0.18800000000E+03 0.  0.
   -5000001    1    1    2    0    0  0.23577359447E+03  0.23267929331E+03 -0.50255130549E+03  0.63057961911E+03  0.18800000000E+03 0.  0.
<mgrwt>
<rscale>  0 0.76425757E+03</rscale>
<asrwt>0</asrwt>
<pdfrwt beam="1">  1        1 0.14979620E+00 0.76425757E+03</pdfrwt>
<pdfrwt beam="2">  1       -1 0.19894023E-01 0.76425757E+03</pdfrwt>
<totfact> 0.33053239E+02</totfact>
</mgrwt>
</event>
<event>
 4    1  0.1545327E-005  0.4500320E+03  0.7818608E-02  0.1027713E+00
         -1   -1    0    0    0  501 -0.00000000000E+00  0.00000000000E+00  0.33106197231E+02  0.33106197615E+02  0.50400000000E-02 0. -1.
          1   -1    0    0  501    0  0.00000000000E+00 -0.00000000000E+00 -0.15293872482E+04  0.15293872482E+04  0.50400000000E-02 0.  1.
    5000001    1    1    2    0    0  0.68876016112E+02  0.10013451956E+03 -0.66916821332E+03  0.70562095018E+03  0.18800000000E+03 0.  0.
   -5000001    1    1    2    0    0 -0.68876016112E+02 -0.10013451956E+03 -0.82711283768E+03  0.85687249569E+03  0.18800000000E+03 0.  0.
<mgrwt>
<rscale>  0 0.45003198E+03</rscale>
<asrwt>0</asrwt>
<pdfrwt beam="1">  1        1 0.21848385E+00 0.45003198E+03</pdfrwt>
<pdfrwt beam="2">  1       -1 0.47294577E-02 0.45003198E+03</pdfrwt>
<totfact> 0.15405002E+03</totfact>
</mgrwt>
</event>
<event>
 4    1  0.1545327E-005  0.4074048E+03  0.7818608E-02  0.1041245E+00
         -1   -1    0    0    0  501 -0.00000000000E+00  0.00000000000E+00  0.21717011773E+03  0.21717011779E+03  0.50400000000E-02 0. -1.
          1   -1    0    0  501    0  0.00000000000E+00 -0.00000000000E+00 -0.19106984956E+03  0.19106984963E+03  0.50400000000E-02 0.  1.
    5000001    1    1    2    0    0  0.40457066872E+02 -0.67125781377E+02  0.10212905057E+02  0.20393858932E+03  0.18800000000E+03 0.  0.
   -5000001    1    1    2    0    0 -0.40457066872E+02  0.67125781377E+02  0.15887363107E+02  0.20430137810E+03  0.18800000000E+03 0.  0.
<mgrwt>
<rscale>  0 0.40740477E+03</rscale>
<asrwt>0</asrwt>
<pdfrwt beam="1">  1        1 0.27295693E-01 0.40740477E+03</pdfrwt>
<pdfrwt beam="2">  1       -1 0.31024303E-01 0.40740477E+03</pdfrwt>
<totfact> 0.16581436E+03</totfact>
</mgrwt>
</event>
<event>
 4    1  0.1545327E-005  0.4466344E+03  0.7818608E-02  0.1028730E+00
          1   -1    0    0  501    0  0.00000000000E+00  0.00000000000E+00  0.13263534103E+04  0.13263534103E+04  0.50400000000E-02 0.  1.
         -1   -1    0    0    0  501 -0.00000000000E+00 -0.00000000000E+00 -0.37599767950E+02  0.37599768288E+02  0.50400000000E-02 0. -1.
    5000001    1    1    2    0    0 -0.43274668417E+02 -0.10464217457E+03  0.77043446509E+03  0.80108423192E+03  0.18800000000E+03 0.  0.
   -5000001    1    1    2    0    0  0.43274668417E+02  0.10464217457E+03  0.51831917727E+03  0.56286894669E+03  0.18800000000E+03 0.  0.
<mgrwt>
<rscale>  0 0.44663444E+03</rscale>
<asrwt>0</asrwt>
<pdfrwt beam="1">  1        1 0.18947909E+00 0.44663444E+03</pdfrwt>
<pdfrwt beam="2">  1       -1 0.53713945E-02 0.44663444E+03</pdfrwt>
<totfact> 0.17152648E+03</totfact>
</mgrwt>
</event>
<event>
 4    1  0.1545327E-005  0.9882169E+03  0.7818608E-02  0.9321564E-01
          1   -1    0    0  501    0  0.00000000000E+00  0.00000000000E+00  0.18238703264E+04  0.18238703264E+04  0.50400000000E-02 0. -1.
         -1   -1    0    0    0  501 -0.00000000000E+00 -0.00000000000E+00 -0.13385993452E+03  0.13385993462E+03  0.50400000000E-02 0.  1.
    5000001    1    1    2    0    0 -0.42245825758E+03  0.53761886407E+02  0.11731575745E+04  0.12621426284E+04  0.18800000000E+03 0.  0.
   -5000001    1    1    2    0    0  0.42245825758E+03 -0.53761886407E+02  0.51685281735E+03  0.69558763260E+03  0.18800000000E+03 0.  0.
<mgrwt>
<rscale>  0 0.98821690E+03</rscale>
<asrwt>0</asrwt>
<pdfrwt beam="1">  1        1 0.26055287E+00 0.98821690E+03</pdfrwt>
<pdfrwt beam="2">  1       -1 0.19122850E-01 0.98821690E+03</pdfrwt>
<totfact> 0.10663634E+02</totfact>
</mgrwt>
</event>
<event>
 4    1  0.1545327E-005  0.5883771E+03  0.7818608E-02  0.9929818E-01
         -1   -1    0    0    0  501 -0.00000000000E+00  0.00000000000E+00  0.59490022624E+02  0.59490022838E+02  0.50400000000E-02 0.  1.
          1   -1    0    0  501    0  0.00000000000E+00 -0.00000000000E+00 -0.14548137903E+04  0.14548137903E+04  0.50400000000E-02 0. -1.
    5000001    1    1    2    0    0 -0.49854862526E+02 -0.20175311461E+03 -0.46727542068E+03  0.54486708961E+03  0.18800000000E+03 0.  0.
   -5000001    1    1    2    0    0  0.49854862526E+02  0.20175311461E+03 -0.92804834704E+03  0.96943672357E+03  0.18800000000E+03 0.  0.
<mgrwt>
<rscale>  0 0.58837711E+03</rscale>
<asrwt>0</asrwt>
<pdfrwt beam="1">  1        1 0.20783052E+00 0.58837711E+03</pdfrwt>
<pdfrwt beam="2">  1       -1 0.84985756E-02 0.58837711E+03</pdfrwt>
<totfact> 0.69355221E+02</totfact>
</mgrwt>
</event>
<event>
 4    1  0.1545327E-005  0.4756813E+03  0.7818608E-02  0.1020329E+00
          1   -1    0    0  501    0  0.00000000000E+00  0.00000000000E+00  0.36262794354E+03  0.36262794358E+03  0.50400000000E-02 0. -1.
         -1   -1    0    0    0  501 -0.00000000000E+00 -0.00000000000E+00 -0.15599510351E+03  0.15599510359E+03  0.50400000000E-02 0.  1.
    5000001    1    1    2    0    0  0.70865673279E+02  0.12477261677E+03  0.13076955838E+03  0.27024956419E+03  0.18800000000E+03 0.  0.
   -5000001    1    1    2    0    0 -0.70865673279E+02 -0.12477261677E+03  0.75863281653E+02  0.24837348298E+03  0.18800000000E+03 0.  0.
<mgrwt>
<rscale>  0 0.47568134E+03</rscale>
<asrwt>0</asrwt>
<pdfrwt beam="1">  1        1 0.51803992E-01 0.47568134E+03</pdfrwt>
<pdfrwt beam="2">  1       -1 0.22285015E-01 0.47568134E+03</pdfrwt>
<totfact> 0.12818739E+03</totfact>
</mgrwt>
</event>
<event>
 4    1  0.1545327E-005  0.7379335E+03  0.7818608E-02  0.9654473E-01
         -1   -1    0    0    0  501 -0.00000000000E+00  0.00000000000E+00  0.43923247896E+02  0.43923248185E+02  0.50400000000E-02 0. -1.
          1   -1    0    0  501    0  0.00000000000E+00 -0.00000000000E+00 -0.30994166478E+04  0.30994166478E+04  0.50400000000E-02 0.  1.
    5000001    1    1    2    0    0 -0.15694731186E+03 -0.26280217037E+03 -0.11689482557E+04  0.12228987954E+04  0.18800000000E+03 0.  0.
   -5000001    1    1    2    0    0  0.15694731186E+03  0.26280217037E+03 -0.18865451442E+04  0.19204411005E+04  0.18800000000E+03 0.  0.
<mgrwt>
<rscale>  0 0.73793346E+03</rscale>
<asrwt>0</asrwt>
<pdfrwt beam="1">  1        1 0.44277367E+00 0.73793346E+03</pdfrwt>
<pdfrwt beam="2">  1       -1 0.62747517E-02 0.73793346E+03</pdfrwt>
<totfact> 0.10120165E+02</totfact>
</mgrwt>
</event>
<event>
 4    1  0.1545327E-005  0.6163199E+03  0.7818608E-02  0.9872114E-01
          1   -1    0    0  501    0  0.00000000000E+00  0.00000000000E+00  0.93528665036E+02  0.93528665172E+02  0.50400000000E-02 0.  1.
         -1   -1    0    0    0  501 -0.00000000000E+00 -0.00000000000E+00 -0.10153308560E+04  0.10153308560E+04  0.50400000000E-02 0. -1.
    5000001    1    1    2    0    0 -0.35583673517E+01 -0.22129782323E+03 -0.27537655441E+03  0.40020199308E+03  0.18800000000E+03 0.  0.
   -5000001    1    1    2    0    0  0.35583673517E+01  0.22129782323E+03 -0.64642563655E+03  0.70865752810E+03  0.18800000000E+03 0.  0.
<mgrwt>
<rscale>  0 0.61631985E+03</rscale>
<asrwt>0</asrwt>
<pdfrwt beam="1">  1        1 0.13361238E-01 0.61631985E+03</pdfrwt>
<pdfrwt beam="2">  1       -1 0.14504726E+00 0.61631985E+03</pdfrwt>
<totfact> 0.17594563E+02</totfact>
</mgrwt>
</event>
<event>
 4    1  0.1545327E-005  0.7362316E+03  0.7818608E-02  0.9657202E-01
         -1   -1    0    0    0  501 -0.00000000000E+00  0.00000000000E+00  0.39202712745E+03  0.39202712748E+03  0.50400000000E-02 0.  1.
          1   -1    0    0  501    0  0.00000000000E+00 -0.00000000000E+00 -0.34566290915E+03  0.34566290919E+03  0.50400000000E-02 0. -1.
    5000001    1    1    2    0    0 -0.28497681354E+03 -0.13571811438E+03  0.46337335164E+02  0.37030033683E+03  0.18800000000E+03 0.  0.
   -5000001    1    1    2    0    0  0.28497681354E+03  0.13571811438E+03  0.26883135834E-01  0.36738969984E+03  0.18800000000E+03 0.  0.
<mgrwt>
<rscale>  0 0.73623159E+03</rscale>
<asrwt>0</asrwt>
<pdfrwt beam="1">  1        1 0.49380416E-01 0.73623159E+03</pdfrwt>
<pdfrwt beam="2">  1       -1 0.56003875E-01 0.73623159E+03</pdfrwt>
<totfact> 0.26197930E+02</totfact>
</mgrwt>
</event>
<event>
 4    1  0.1545327E-005  0.6678361E+03  0.7818608E-02  0.9773875E-01
          1   -1    0    0  501    0  0.00000000000E+00  0.00000000000E+00  0.15585985650E+03  0.15585985658E+03  0.50400000000E-02 0.  1.
         -1   -1    0    0    0  501 -0.00000000000E+00 -0.00000000000E+00 -0.71539445814E+03  0.71539445816E+03  0.50400000000E-02 0. -1.
    5000001    1    1    2    0    0  0.65941829817E+00 -0.26554346620E+03 -0.37777262904E+03  0.49856787554E+03  0.18800000000E+03 0.  0.
   -5000001    1    1    2    0    0 -0.65941829817E+00  0.26554346620E+03 -0.18176197261E+03  0.37268643920E+03  0.18800000000E+03 0.  0.
<mgrwt>
<rscale>  0 0.66783614E+03</rscale>
<asrwt>0</asrwt>
<pdfrwt beam="1">  1        1 0.22265694E-01 0.66783614E+03</pdfrwt>
<pdfrwt beam="2">  1       -1 0.10219921E+00 0.66783614E+03</pdfrwt>
<totfact> 0.20944676E+02</totfact>
</mgrwt>
</event>
<event>
 4    1  0.1545327E-005  0.4549113E+03  0.7818608E-02  0.1026267E+00
         -1   -1    0    0    0  501 -0.00000000000E+00  0.00000000000E+00  0.10935109894E+04  0.10935109894E+04  0.50400000000E-02 0.  1.
          1   -1    0    0  501    0  0.00000000000E+00 -0.00000000000E+00 -0.47311888102E+02  0.47311888371E+02  0.50400000000E-02 0. -1.
    5000001    1    1    2    0    0 -0.12324796915E+03 -0.73175897464E+01  0.60808597943E+03  0.64834880073E+03  0.18800000000E+03 0.  0.
   -5000001    1    1    2    0    0  0.12324796915E+03  0.73175897464E+01  0.43811312184E+03  0.49247407703E+03  0.18800000000E+03 0.  0.
<mgrwt>
<rscale>  0 0.45491129E+03</rscale>
<asrwt>0</asrwt>
<pdfrwt beam="1">  1        1 0.67588413E-02 0.45491129E+03</pdfrwt>
<pdfrwt beam="2">  1       -1 0.15621585E+00 0.45491129E+03</pdfrwt>
<totfact> 0.37063514E+02</totfact>
</mgrwt>
</event>
<event>
 4    1  0.1545327E-005  0.5482000E+03  0.7818608E-02  0.1001911E+00
          1   -1    0    0  501    0  0.00000000000E+00  0.00000000000E+00  0.79283322433E+03  0.79283322435E+03  0.50400000000E-02 0. -1.
         -1   -1    0    0    0  501 -0.00000000000E+00 -0.00000000000E+00 -0.94762442603E+02  0.94762442737E+02  0.50400000000E-02 0.  1.
    5000001    1    1    2    0    0 -0.38970857394E+02  0.12546619869E+03  0.59204376589E+03  0.63491756588E+03  0.18800000000E+03 0.  0.
   -5000001    1    1    2    0    0  0.38970857394E+02 -0.12546619869E+03  0.10602701584E+03  0.25267810120E+03  0.18800000000E+03 0.  0.
<mgrwt>
<rscale>  0 0.54820001E+03</rscale>
<asrwt>0</asrwt>
<pdfrwt beam="1">  1        1 0.11326189E+00 0.54820001E+03</pdfrwt>
<pdfrwt beam="2">  1       -1 0.13537492E-01 0.54820001E+03</pdfrwt>
<totfact> 0.98698867E+02</totfact>
</mgrwt>
</event>
<event>
 4    1  0.1545327E-005  0.5668909E+03  0.7818608E-02  0.9976582E-01
          1   -1    0    0  501    0  0.00000000000E+00  0.00000000000E+00  0.11292215934E+04  0.11292215935E+04  0.50400000000E-02 0.  1.
         -1   -1    0    0    0  501 -0.00000000000E+00 -0.00000000000E+00 -0.71147524041E+02  0.71147524219E+02  0.50400000000E-02 0. -1.
    5000001    1    1    2    0    0  0.20245395696E+03 -0.14510611889E+02  0.65955161007E+03  0.71522757839E+03  0.18800000000E+03 0.  0.
   -5000001    1    1    2    0    0 -0.20245395696E+03  0.14510611889E+02  0.39852245933E+03  0.48514153928E+03  0.18800000000E+03 0.  0.
<mgrwt>
<rscale>  0 0.56689089E+03</rscale>
<asrwt>0</asrwt>
<pdfrwt beam="1">  1        1 0.16131737E+00 0.56689089E+03</pdfrwt>
<pdfrwt beam="2">  1       -1 0.10163932E-01 0.56689089E+03</pdfrwt>
<totfact> 0.86550532E+02</totfact>
</mgrwt>
</event>
<event>
 4    1  0.1545327E-005  0.6888060E+03  0.7818608E-02  0.9736569E-01
         -1   -1    0    0    0  501 -0.00000000000E+00  0.00000000000E+00  0.14514423071E+04  0.14514423071E+04  0.50400000000E-02 0. -1.
          1   -1    0    0  501    0  0.00000000000E+00 -0.00000000000E+00 -0.81721079331E+02  0.81721079487E+02  0.50400000000E-02 0.  1.
    5000001    1    1    2    0    0 -0.14367980897E+03  0.19461509979E+03  0.33468688445E+03  0.45373806893E+03  0.18800000000E+03 0.  0.
   -5000001    1    1    2    0    0  0.14367980897E+03 -0.19461509979E+03  0.10350343433E+04  0.10794253177E+04  0.18800000000E+03 0.  0.
<mgrwt>
<rscale>  0 0.68880602E+03</rscale>
<asrwt>0</asrwt>
<pdfrwt beam="1">  1        1 0.11674440E-01 0.68880602E+03</pdfrwt>
<pdfrwt beam="2">  1       -1 0.20734889E+00 0.68880602E+03</pdfrwt>
<totfact> 0.74708223E+01</totfact>
</mgrwt>
</event>
<event>
 4    1  0.1545327E-005  0.5538876E+03  0.7818608E-02  0.1000598E+00
          1   -1    0    0  501    0  0.00000000000E+00  0.00000000000E+00  0.12151136051E+03  0.12151136062E+03  0.50400000000E-02 0.  1.
         -1   -1    0    0    0  501 -0.00000000000E+00 -0.00000000000E+00 -0.63119918385E+03  0.63119918387E+03  0.50400000000E-02 0. -1.
    5000001    1    1    2    0    0  0.20293303149E+03 -0.92361390981E+01 -0.24218660428E+03  0.36778454675E+03  0.18800000000E+03 0.  0.
   -5000001    1    1    2    0    0 -0.20293303149E+03  0.92361390981E+01 -0.26750121906E+03  0.38492599774E+03  0.18800000000E+03 0.  0.
<mgrwt>
<rscale>  0 0.55388761E+03</rscale>
<asrwt>0</asrwt>
<pdfrwt beam="1">  1        1 0.17358766E-01 0.55388761E+03</pdfrwt>
<pdfrwt beam="2">  1       -1 0.90171310E-01 0.55388761E+03</pdfrwt>
<totfact> 0.38677933E+02</totfact>
</mgrwt>
</event>
<event>
 4    1  0.1545327E-005  0.7180967E+03  0.7818608E-02  0.9686775E-01
          1   -1    0    0  501    0  0.00000000000E+00  0.00000000000E+00  0.52762577535E+03  0.52762577538E+03  0.50400000000E-02 0. -1.
         -1   -1    0    0    0  501 -0.00000000000E+00 -0.00000000000E+00 -0.24433171900E+03  0.24433171906E+03  0.50400000000E-02 0.  1.
    5000001    1    1    2    0    0 -0.11851360489E+03 -0.27656989024E+03  0.82420850256E+02  0.36424384043E+03  0.18800000000E+03 0.  0.
   -5000001    1    1    2    0    0  0.11851360489E+03  0.27656989024E+03  0.20087320609E+03  0.40771365400E+03  0.18800000000E+03 0.  0.
<mgrwt>
<rscale>  0 0.71809669E+03</rscale>
<asrwt>0</asrwt>
<pdfrwt beam="1">  1        1 0.75375110E-01 0.71809669E+03</pdfrwt>
<pdfrwt beam="2">  1       -1 0.34904531E-01 0.71809669E+03</pdfrwt>
<totfact> 0.35908825E+02</totfact>
</mgrwt>
</event>
<event>
 4    1  0.1545327E-005  0.1209171E+04  0.7818608E-02  0.9104867E-01
         -1   -1    0    0    0  501 -0.00000000000E+00  0.00000000000E+00  0.12483063810E+04  0.12483063810E+04  0.50400000000E-02 0. -1.
          1   -1    0    0  501    0  0.00000000000E+00 -0.00000000000E+00 -0.29281573933E+03  0.29281573937E+03  0.50400000000E-02 0.  1.
    5000001    1    1    2    0    0 -0.44483479427E+03  0.57144764335E+02  0.93557622040E+03  0.10544147109E+04  0.18800000000E+03 0.  0.
   -5000001    1    1    2    0    0  0.44483479427E+03 -0.57144764335E+02  0.19914421232E+02  0.48670740949E+03  0.18800000000E+03 0.  0.
<mgrwt>
<rscale>  0 0.12091712E+04</rscale>
<asrwt>0</asrwt>
<pdfrwt beam="1">  1        1 0.41830820E-01 0.12091712E+04</pdfrwt>
<pdfrwt beam="2">  1       -1 0.17832948E+00 0.12091712E+04</pdfrwt>
<totfact> 0.21110150E+01</totfact>
</mgrwt>
</event>
<event>
 4    1  0.1545327E-005  0.5570442E+03  0.7818608E-02  0.9998765E-01
         -1   -1    0    0    0  501 -0.00000000000E+00  0.00000000000E+00  0.39358263801E+03  0.39358263804E+03  0.50400000000E-02 0. -1.
          1   -1    0    0  501    0  0.00000000000E+00 -0.00000000000E+00 -0.19709851941E+03  0.19709851947E+03  0.50400000000E-02 0.  1.
    5000001    1    1    2    0    0  0.45070561468E+02  0.16215492908E+03 -0.26797846708E+02  0.25374731747E+03  0.18800000000E+03 0.  0.
   -5000001    1    1    2    0    0 -0.45070561468E+02 -0.16215492908E+03  0.22328196531E+03  0.33693384005E+03  0.18800000000E+03 0.  0.
<mgrwt>
<rscale>  0 0.55704418E+03</rscale>
<asrwt>0</asrwt>
<pdfrwt beam="1">  1        1 0.28156931E-01 0.55704418E+03</pdfrwt>
<pdfrwt beam="2">  1       -1 0.56226092E-01 0.55704418E+03</pdfrwt>
<totfact> 0.54005546E+02</totfact>
</mgrwt>
</event>
<event>
 4    1  0.1545327E-005  0.4613035E+03  0.7818608E-02  0.1024404E+00
         -1   -1    0    0    0  501 -0.00000000000E+00  0.00000000000E+00  0.99557413960E+03  0.99557413962E+03  0.50400000000E-02 0. -1.
          1   -1    0    0  501    0  0.00000000000E+00 -0.00000000000E+00 -0.53436736283E+02  0.53436736520E+02  0.50400000000E-02 0.  1.
    5000001    1    1    2    0    0 -0.25749172946E+02  0.12839931456E+03  0.53152623244E+03  0.57880354151E+03  0.18800000000E+03 0.  0.
   -5000001    1    1    2    0    0  0.25749172946E+02 -0.12839931456E+03  0.41061117088E+03  0.47020733463E+03  0.18800000000E+03 0.  0.
<mgrwt>
<rscale>  0 0.46130351E+03</rscale>
<asrwt>0</asrwt>
<pdfrwt beam="1">  1        1 0.76338199E-02 0.46130351E+03</pdfrwt>
<pdfrwt beam="2">  1       -1 0.14222487E+00 0.46130351E+03</pdfrwt>
<totfact> 0.40128099E+02</totfact>
</mgrwt>
</event>
<event>
 4    1  0.1545327E-005  0.6456635E+03  0.7818608E-02  0.9814951E-01
          1   -1    0    0  501    0  0.00000000000E+00  0.00000000000E+00  0.30529030271E+03  0.30529030275E+03  0.50400000000E-02 0.  1.
         -1   -1    0    0    0  501 -0.00000000000E+00 -0.00000000000E+00 -0.34138106983E+03  0.34138106986E+03  0.50400000000E-02 0. -1.
    5000001    1    1    2    0    0  0.23680279701E+03 -0.80148637954E+02 -0.98025919424E+02  0.32779940469E+03  0.18800000000E+03 0.  0.
   -5000001    1    1    2    0    0 -0.23680279701E+03  0.80148637954E+02  0.61935152310E+02  0.31887196793E+03  0.18800000000E+03 0.  0.
<mgrwt>
<rscale>  0 0.64566347E+03</rscale>
<asrwt>0</asrwt>
<pdfrwt beam="1">  1        1 0.43612900E-01 0.64566347E+03</pdfrwt>
<pdfrwt beam="2">  1       -1 0.48768724E-01 0.64566347E+03</pdfrwt>
<totfact> 0.40190300E+02</totfact>
</mgrwt>
</event>
<event>
 4    1  0.1545327E-005  0.5847311E+03  0.7818608E-02  0.9937601E-01
         -1   -1    0    0    0  501 -0.00000000000E+00  0.00000000000E+00  0.16850385946E+03  0.16850385953E+03  0.50400000000E-02 0. -1.
          1   -1    0    0  501    0  0.00000000000E+00 -0.00000000000E+00 -0.50727388982E+03  0.50727388984E+03  0.50400000000E-02 0.  1.
    5000001    1    1    2    0    0  0.15923439756E+03  0.75328040774E+02 -0.32912236310E+03  0.41796583232E+03  0.18800000000E+03 0.  0.
   -5000001    1    1    2    0    0 -0.15923439756E+03 -0.75328040774E+02 -0.96476672647E+01  0.25781191706E+03  0.18800000000E+03 0.  0.
<mgrwt>
<rscale>  0 0.58473108E+03</rscale>
<asrwt>0</asrwt>
<pdfrwt beam="1">  1        1 0.72467698E-01 0.58473108E+03</pdfrwt>
<pdfrwt beam="2">  1       -1 0.24071980E-01 0.58473108E+03</pdfrwt>
<totfact> 0.72369194E+02</totfact>
</mgrwt>
</event>
<event>
 4    1  0.1545327E-005  0.8969762E+03  0.7818608E-02  0.9429369E-01
          1   -1    0    0  501    0  0.00000000000E+00  0.00000000000E+00  0.68821172293E+03  0.68821172295E+03  0.50400000000E-02 0.  1.
         -1   -1    0    0    0  501 -0.00000000000E+00 -0.00000000000E+00 -0.29226697678E+03  0.29226697682E+03  0.50400000000E-02 0. -1.
    5000001    1    1    2    0    0  0.20661510948E+03 -0.12482286532E+03  0.55641202157E+03  0.63498731399E+03  0.18800000000E+03 0.  0.
   -5000001    1    1    2    0    0 -0.20661510948E+03  0.12482286532E+03 -0.16046727542E+03  0.34549138579E+03  0.18800000000E+03 0.  0.
<mgrwt>
<rscale>  0 0.89697616E+03</rscale>
<asrwt>0</asrwt>
<pdfrwt beam="1">  1        1 0.98315961E-01 0.89697616E+03</pdfrwt>
<pdfrwt beam="2">  1       -1 0.41752425E-01 0.89697616E+03</pdfrwt>
<totfact> 0.17694449E+02</totfact>
</mgrwt>
</event>
<event>
 4    1  0.1545327E-005  0.4988930E+03  0.7818608E-02  0.1014068E+00
          1   -1    0    0  501    0  0.00000000000E+00  0.00000000000E+00  0.11762745296E+04  0.11762745296E+04  0.50400000000E-02 0.  1.
         -1   -1    0    0    0  501 -0.00000000000E+00 -0.00000000000E+00 -0.52898848429E+02  0.52898848669E+02  0.50400000000E-02 0. -1.
    5000001    1    1    2    0    0 -0.12406343278E+03 -0.88393456192E+02  0.71103627310E+03  0.75108036861E+03  0.18800000000E+03 0.  0.
   -5000001    1    1    2    0    0  0.12406343278E+03  0.88393456192E+02  0.41233940811E+03  0.47809300971E+03  0.18800000000E+03 0.  0.
<mgrwt>
<rscale>  0 0.49889305E+03</rscale>
<asrwt>0</asrwt>
<pdfrwt beam="1">  1        1 0.16803920E+00 0.49889305E+03</pdfrwt>
<pdfrwt beam="2">  1       -1 0.75569793E-02 0.49889305E+03</pdfrwt>
<totfact> 0.12785059E+03</totfact>
</mgrwt>
</event>
<event>
 4    1  0.1545327E-005  0.4513428E+03  0.7818608E-02  0.1027322E+00
         -1   -1    0    0    0  501 -0.00000000000E+00  0.00000000000E+00  0.30897661830E+02  0.30897662241E+02  0.50400000000E-02 0. -1.
          1   -1    0    0  501    0  0.00000000000E+00 -0.00000000000E+00 -0.16482664196E+04  0.16482664196E+04  0.50400000000E-02 0.  1.
    5000001    1    1    2    0    0 -0.58890257591E+02  0.11006490500E+03 -0.80455319266E+03  0.83560288748E+03  0.18800000000E+03 0.  0.
   -5000001    1    1    2    0    0  0.58890257591E+02 -0.11006490500E+03 -0.81281556508E+03  0.84356119434E+03  0.18800000000E+03 0.  0.
<mgrwt>
<rscale>  0 0.45134279E+03</rscale>
<asrwt>0</asrwt>
<pdfrwt beam="1">  1        1 0.23546658E+00 0.45134279E+03</pdfrwt>
<pdfrwt beam="2">  1       -1 0.44139527E-02 0.45134279E+03</pdfrwt>
<totfact> 0.14400720E+03</totfact>
</mgrwt>
</event>
<event>
 4    1  0.1545327E-005  0.1006557E+04  0.7818608E-02  0.9301382E-01
         -1   -1    0    0    0  501 -0.00000000000E+00  0.00000000000E+00  0.21057548429E+03  0.21057548435E+03  0.50400000000E-02 0. -1.
          1   -1    0    0  501    0  0.00000000000E+00 -0.00000000000E+00 -0.12028429167E+04  0.12028429167E+04  0.50400000000E-02 0.  1.
    5000001    1    1    2    0    0  0.41527406478E+03  0.51482434962E+02 -0.20548496094E+03  0.50266396246E+03  0.18800000000E+03 0.  0.
   -5000001    1    1    2    0    0 -0.41527406478E+03 -0.51482434962E+02 -0.78678247144E+03  0.91075443856E+03  0.18800000000E+03 0.  0.
<mgrwt>
<rscale>  0 0.10065570E+04</rscale>
<asrwt>0</asrwt>
<pdfrwt beam="1">  1        1 0.17183470E+00 0.10065570E+04</pdfrwt>
<pdfrwt beam="2">  1       -1 0.30082213E-01 0.10065570E+04</pdfrwt>
<totfact> 0.12508813E+02</totfact>
</mgrwt>
</event>
<event>
 4    1  0.1545327E-005  0.6596841E+03  0.7818608E-02  0.9788776E-01
         -1   -1    0    0    0  501 -0.00000000000E+00  0.00000000000E+00  0.17640942328E+03  0.17640942335E+03  0.50400000000E-02 0. -1.
          1   -1    0    0  501    0  0.00000000000E+00 -0.00000000000E+00 -0.61672310317E+03  0.61672310319E+03  0.50400000000E-02 0.  1.
    5000001    1    1    2    0    0  0.12459871056E+02 -0.16767165209E+03 -0.47571869230E+03  0.53844340976E+03  0.18800000000E+03 0.  0.
   -5000001    1    1    2    0    0 -0.12459871056E+02  0.16767165209E+03  0.35405012414E+02  0.25468911678E+03  0.18800000000E+03 0.  0.
<mgrwt>
<rscale>  0 0.65968407E+03</rscale>
<asrwt>0</asrwt>
<pdfrwt beam="1">  1        1 0.88103299E-01 0.65968407E+03</pdfrwt>
<pdfrwt beam="2">  1       -1 0.25201347E-01 0.65968407E+03</pdfrwt>
<totfact> 0.51033765E+02</totfact>
</mgrwt>
</event>
<event>
 4    1  0.1545327E-005  0.4081850E+03  0.7818608E-02  0.1040982E+00
         -1   -1    0    0    0  501 -0.00000000000E+00  0.00000000000E+00  0.81625360710E+03  0.81625360712E+03  0.50400000000E-02 0. -1.
          1   -1    0    0  501    0  0.00000000000E+00 -0.00000000000E+00 -0.51030406240E+02  0.51030406489E+02  0.50400000000E-02 0.  1.
    5000001    1    1    2    0    0  0.27770627466E+02  0.50368085557E+02  0.49901905461E+03  0.53635078881E+03  0.18800000000E+03 0.  0.
   -5000001    1    1    2    0    0 -0.27770627466E+02 -0.50368085557E+02  0.26620414625E+03  0.33093322480E+03  0.18800000000E+03 0.  0.
<mgrwt>
<rscale>  0 0.40818502E+03</rscale>
<asrwt>0</asrwt>
<pdfrwt beam="1">  1        1 0.72900584E-02 0.40818502E+03</pdfrwt>
<pdfrwt beam="2">  1       -1 0.11660765E+00 0.40818502E+03</pdfrwt>
<totfact> 0.70076749E+02</totfact>
</mgrwt>
</event>
<event>
 4    1  0.1545327E-005  0.4231982E+03  0.7818608E-02  0.1036030E+00
         -1   -1    0    0    0  501 -0.00000000000E+00  0.00000000000E+00  0.17176655608E+03  0.17176655615E+03  0.50400000000E-02 0. -1.
          1   -1    0    0  501    0  0.00000000000E+00 -0.00000000000E+00 -0.26066876503E+03  0.26066876508E+03  0.50400000000E-02 0.  1.
    5000001    1    1    2    0    0  0.57382783358E+01 -0.92445320412E+02 -0.74261686568E+02  0.22234626868E+03  0.18800000000E+03 0.  0.
   -5000001    1    1    2    0    0 -0.57382783358E+01  0.92445320412E+02 -0.14640522385E+02  0.21008905255E+03  0.18800000000E+03 0.  0.
<mgrwt>
<rscale>  0 0.42319819E+03</rscale>
<asrwt>0</asrwt>
<pdfrwt beam="1">  1        1 0.37238395E-01 0.42319819E+03</pdfrwt>
<pdfrwt beam="2">  1       -1 0.24538079E-01 0.42319819E+03</pdfrwt>
<totfact> 0.16629794E+03</totfact>
</mgrwt>
</event>
<event>
 4    1  0.1545327E-005  0.9236770E+03  0.7818608E-02  0.9396459E-01
          1   -1    0    0  501    0  0.00000000000E+00  0.00000000000E+00  0.15375553532E+04  0.15375553532E+04  0.50400000000E-02 0.  1.
         -1   -1    0    0    0  501 -0.00000000000E+00 -0.00000000000E+00 -0.13872332046E+03  0.13872332056E+03  0.50400000000E-02 0. -1.
    5000001    1    1    2    0    0 -0.10938216496E+03  0.36795029461E+03  0.38196328976E+03  0.57322930145E+03  0.18800000000E+03 0.  0.
   -5000001    1    1    2    0    0  0.10938216496E+03 -0.36795029461E+03  0.10168687430E+04  0.11030493723E+04  0.18800000000E+03 0.  0.
<mgrwt>
<rscale>  0 0.92367697E+03</rscale>
<asrwt>0</asrwt>
<pdfrwt beam="1">  1        1 0.21965076E+00 0.92367697E+03</pdfrwt>
<pdfrwt beam="2">  1       -1 0.19817618E-01 0.92367697E+03</pdfrwt>
<totfact> 0.15351527E+02</totfact>
</mgrwt>
</event>
<event>
 4    1  0.1545327E-005  0.4897636E+03  0.7818608E-02  0.1016486E+00
          1   -1    0    0  501    0  0.00000000000E+00  0.00000000000E+00  0.31882835818E+03  0.31882835822E+03  0.50400000000E-02 0.  1.
         -1   -1    0    0    0  501 -0.00000000000E+00 -0.00000000000E+00 -0.18808581042E+03  0.18808581049E+03  0.50400000000E-02 0. -1.
    5000001    1    1    2    0    0  0.15672504165E+03  0.29151063407E+01  0.57918163310E+02  0.25153478918E+03  0.18800000000E+03 0.  0.
   -5000001    1    1    2    0    0 -0.15672504165E+03 -0.29151063407E+01  0.72824384448E+02  0.25537937954E+03  0.18800000000E+03 0.  0.
<mgrwt>
<rscale>  0 0.48976358E+03</rscale>
<asrwt>0</asrwt>
<pdfrwt beam="1">  1        1 0.45546908E-01 0.48976358E+03</pdfrwt>
<pdfrwt beam="2">  1       -1 0.26869402E-01 0.48976358E+03</pdfrwt>
<totfact> 0.11035746E+03</totfact>
</mgrwt>
</event>
<event>
 4    1  0.1545327E-005  0.5003859E+03  0.7818608E-02  0.1013678E+00
          1   -1    0    0  501    0  0.00000000000E+00  0.00000000000E+00  0.15199810890E+04  0.15199810890E+04  0.50400000000E-02 0.  1.
         -1   -1    0    0    0  501 -0.00000000000E+00 -0.00000000000E+00 -0.41182429076E+02  0.41182429385E+02  0.50400000000E-02 0. -1.
    5000001    1    1    2    0    0 -0.28433736104E+02 -0.12937260879E+03  0.43201581700E+03  0.48941538124E+03  0.18800000000E+03 0.  0.
   -5000001    1    1    2    0    0  0.28433736104E+02  0.12937260879E+03  0.10467828429E+04  0.10717481371E+04  0.18800000000E+03 0.  0.
<mgrwt>
<rscale>  0 0.50038591E+03</rscale>
<asrwt>0</asrwt>
<pdfrwt beam="1">  1        1 0.21714017E+00 0.50038591E+03</pdfrwt>
<pdfrwt beam="2">  1       -1 0.58832039E-02 0.50038591E+03</pdfrwt>
<totfact> 0.11175996E+03</totfact>
</mgrwt>
</event>
<event>
 4    1  0.1545327E-005  0.5616355E+03  0.7818608E-02  0.9988361E-01
          1   -1    0    0  501    0  0.00000000000E+00  0.00000000000E+00  0.13904960534E+03  0.13904960543E+03  0.50400000000E-02 0.  1.
         -1   -1    0    0    0  501 -0.00000000000E+00 -0.00000000000E+00 -0.56712582781E+03  0.56712582784E+03  0.50400000000E-02 0. -1.
    5000001    1    1    2    0    0  0.20086396886E+03 -0.48205192245E+02 -0.25057825005E+03  0.37523796975E+03  0.18800000000E+03 0.  0.
   -5000001    1    1    2    0    0 -0.20086396886E+03  0.48205192245E+02 -0.17749797242E+03  0.33093746352E+03  0.18800000000E+03 0.  0.
<mgrwt>
<rscale>  0 0.56163555E+03</rscale>
<asrwt>0</asrwt>
<pdfrwt beam="1">  1        1 0.19864230E-01 0.56163555E+03</pdfrwt>
<pdfrwt beam="2">  1       -1 0.81017974E-01 0.56163555E+03</pdfrwt>
<totfact> 0.40733372E+02</totfact>
</mgrwt>
</event>
<event>
 4    1  0.1545327E-005  0.5882660E+03  0.7818608E-02  0.9930054E-01
          1   -1    0    0  501    0  0.00000000000E+00  0.00000000000E+00  0.50231010295E+03  0.50231010298E+03  0.50400000000E-02 0.  1.
         -1   -1    0    0    0  501 -0.00000000000E+00 -0.00000000000E+00 -0.17223271510E+03  0.17223271518E+03  0.50400000000E-02 0. -1.
    5000001    1    1    2    0    0 -0.65215734982E+02 -0.16548848580E+03  0.47899361063E+01  0.25885608841E+03  0.18800000000E+03 0.  0.
   -5000001    1    1    2    0    0  0.65215734982E+02  0.16548848580E+03  0.32528745175E+03  0.41568672974E+03  0.18800000000E+03 0.  0.
<mgrwt>
<rscale>  0 0.58826604E+03</rscale>
<asrwt>0</asrwt>
<pdfrwt beam="1">  1        1 0.71758588E-01 0.58826604E+03</pdfrwt>
<pdfrwt beam="2">  1       -1 0.24604673E-01 0.58826604E+03</pdfrwt>
<totfact> 0.70664629E+02</totfact>
</mgrwt>
</event>
<event>
 4    1  0.1545327E-005  0.4695268E+03  0.7818608E-02  0.1022054E+00
          1   -1    0    0  501    0  0.00000000000E+00  0.00000000000E+00  0.19698816473E+03  0.19698816480E+03  0.50400000000E-02 0.  1.
         -1   -1    0    0    0  501 -0.00000000000E+00 -0.00000000000E+00 -0.27978258066E+03  0.27978258071E+03  0.50400000000E-02 0. -1.
    5000001    1    1    2    0    0 -0.64389050846E+01  0.89859371004E+02  0.68220559083E+02  0.21934951729E+03  0.18800000000E+03 0.  0.
   -5000001    1    1    2    0    0  0.64389050846E+01 -0.89859371004E+02 -0.15101497501E+03  0.25742122821E+03  0.18800000000E+03 0.  0.
<mgrwt>
<rscale>  0 0.46952681E+03</rscale>
<asrwt>0</asrwt>
<pdfrwt beam="1">  1        1 0.28141167E-01 0.46952681E+03</pdfrwt>
<pdfrwt beam="2">  1       -1 0.39968940E-01 0.46952681E+03</pdfrwt>
<totfact> 0.10210277E+03</totfact>
</mgrwt>
</event>
<event>
 4    1  0.1545327E-005  0.8318488E+03  0.7818608E-02  0.9515028E-01
         -1   -1    0    0    0  501 -0.00000000000E+00  0.00000000000E+00  0.16519656582E+03  0.16519656589E+03  0.50400000000E-02 0. -1.
          1   -1    0    0  501    0  0.00000000000E+00 -0.00000000000E+00 -0.10471955879E+04  0.10471955879E+04  0.50400000000E-02 0.  1.
    5000001    1    1    2    0    0  0.49032792430E+02 -0.26107342059E+03 -0.63502717808E+02  0.33157222568E+03  0.18800000000E+03 0.  0.
   -5000001    1    1    2    0    0 -0.49032792430E+02  0.26107342059E+03 -0.81849630426E+03  0.88081992812E+03  0.18800000000E+03 0.  0.
<mgrwt>
<rscale>  0 0.83184882E+03</rscale>
<asrwt>0</asrwt>
<pdfrwt beam="1">  1        1 0.14959937E+00 0.83184882E+03</pdfrwt>
<pdfrwt beam="2">  1       -1 0.23599510E-01 0.83184882E+03</pdfrwt>
<totfact> 0.24773020E+02</totfact>
</mgrwt>
</event>
<event>
 4    1  0.1545327E-005  0.4485879E+03  0.7818608E-02  0.1028144E+00
         -1   -1    0    0    0  501 -0.00000000000E+00  0.00000000000E+00  0.13659429612E+03  0.13659429621E+03  0.50400000000E-02 0. -1.
          1   -1    0    0  501    0  0.00000000000E+00 -0.00000000000E+00 -0.36830076763E+03  0.36830076766E+03  0.50400000000E-02 0.  1.
    5000001    1    1    2    0    0  0.12173215693E+03  0.70007768881E+01 -0.12688421487E+03  0.25750986950E+03  0.18800000000E+03 0.  0.
   -5000001    1    1    2    0    0 -0.12173215693E+03 -0.70007768881E+01 -0.10482225664E+03  0.24738519437E+03  0.18800000000E+03 0.  0.
<mgrwt>
<rscale>  0 0.44858794E+03</rscale>
<asrwt>0</asrwt>
<pdfrwt beam="1">  1        1 0.52614395E-01 0.44858794E+03</pdfrwt>
<pdfrwt beam="2">  1       -1 0.19513471E-01 0.44858794E+03</pdfrwt>
<totfact> 0.15651554E+03</totfact>
</mgrwt>
</event>
<event>
 4    1  0.1545327E-005  0.1644273E+04  0.7818608E-02  0.8793802E-01
          1   -1    0    0  501    0  0.00000000000E+00  0.00000000000E+00  0.18977952909E+04  0.18977952909E+04  0.50400000000E-02 0.  1.
         -1   -1    0    0    0  501 -0.00000000000E+00 -0.00000000000E+00 -0.35615453871E+03  0.35615453875E+03  0.50400000000E-02 0. -1.
    5000001    1    1    2    0    0 -0.12499579881E+03  0.68350882107E+03  0.22636351841E+03  0.75458114253E+03  0.18800000000E+03 0.  0.
   -5000001    1    1    2    0    0  0.12499579881E+03 -0.68350882107E+03  0.13152772338E+04  0.14993686871E+04  0.18800000000E+03 0.  0.
<mgrwt>
<rscale>  0 0.16442730E+04</rscale>
<asrwt>0</asrwt>
<pdfrwt beam="1">  1        1 0.27111361E+00 0.16442730E+04</pdfrwt>
<pdfrwt beam="2">  1       -1 0.50879221E-01 0.16442730E+04</pdfrwt>
<totfact> 0.16079980E+01</totfact>
</mgrwt>
</event>
<event>
 4    1  0.1545327E-005  0.6098758E+03  0.7818608E-02  0.9885126E-01
          1   -1    0    0  501    0  0.00000000000E+00  0.00000000000E+00  0.16262014448E+03  0.16262014455E+03  0.50400000000E-02 0. -1.
         -1   -1    0    0    0  501 -0.00000000000E+00 -0.00000000000E+00 -0.57180562016E+03  0.57180562018E+03  0.50400000000E-02 0.  1.
    5000001    1    1    2    0    0 -0.14060384338E+03 -0.11913744926E+03 -0.38990187172E+03  0.47045790689E+03  0.18800000000E+03 0.  0.
   -5000001    1    1    2    0    0  0.14060384338E+03  0.11913744926E+03 -0.19283603964E+02  0.26396785784E+03  0.18800000000E+03 0.  0.
<mgrwt>
<rscale>  0 0.60987577E+03</rscale>
<asrwt>0</asrwt>
<pdfrwt beam="1">  1        1 0.23231450E-01 0.60987577E+03</pdfrwt>
<pdfrwt beam="2">  1       -1 0.81686516E-01 0.60987577E+03</pdfrwt>
<totfact> 0.32541945E+02</totfact>
</mgrwt>
</event>
<event>
 4    1  0.1545327E-005  0.6378873E+03  0.7818608E-02  0.9829777E-01
         -1   -1    0    0    0  501 -0.00000000000E+00  0.00000000000E+00  0.21369935931E+03  0.21369935937E+03  0.50400000000E-02 0. -1.
          1   -1    0    0  501    0  0.00000000000E+00 -0.00000000000E+00 -0.47601948811E+03  0.47601948814E+03  0.50400000000E-02 0.  1.
    5000001    1    1    2    0    0  0.51881891874E+02 -0.23822268936E+03 -0.22123113052E+03  0.37911606869E+03  0.18800000000E+03 0.  0.
   -5000001    1    1    2    0    0 -0.51881891874E+02  0.23822268936E+03 -0.41088998283E+02  0.31060277882E+03  0.18800000000E+03 0.  0.
<mgrwt>
<rscale>  0 0.63788732E+03</rscale>
<asrwt>0</asrwt>
<pdfrwt beam="1">  1        1 0.68002784E-01 0.63788732E+03</pdfrwt>
<pdfrwt beam="2">  1       -1 0.30528480E-01 0.63788732E+03</pdfrwt>
<totfact> 0.52378423E+02</totfact>
</mgrwt>
</event>
<event>
 4    1  0.1545327E-005  0.4575004E+03  0.7818608E-02  0.1025509E+00
          1   -1    0    0  501    0  0.00000000000E+00  0.00000000000E+00  0.67339784096E+03  0.67339784098E+03  0.50400000000E-02 0.  1.
         -1   -1    0    0    0  501 -0.00000000000E+00 -0.00000000000E+00 -0.77705391256E+02  0.77705391419E+02  0.50400000000E-02 0. -1.
    5000001    1    1    2    0    0 -0.56178148243E+02  0.10675365451E+03  0.37878181614E+03  0.43974082291E+03  0.18800000000E+03 0.  0.
   -5000001    1    1    2    0    0  0.56178148243E+02 -0.10675365451E+03  0.21691063356E+03  0.31136240949E+03  0.18800000000E+03 0.  0.
<mgrwt>
<rscale>  0 0.45750035E+03</rscale>
<asrwt>0</asrwt>
<pdfrwt beam="1">  1        1 0.96199692E-01 0.45750035E+03</pdfrwt>
<pdfrwt beam="2">  1       -1 0.11100770E-01 0.45750035E+03</pdfrwt>
<totfact> 0.17240070E+03</totfact>
</mgrwt>
</event>
<event>
 4    1  0.1545327E-005  0.6123306E+03  0.7818608E-02  0.9880149E-01
         -1   -1    0    0    0  501 -0.00000000000E+00  0.00000000000E+00  0.58802645045E+03  0.58802645047E+03  0.50400000000E-02 0. -1.
          1   -1    0    0  501    0  0.00000000000E+00 -0.00000000000E+00 -0.15940982747E+03  0.15940982755E+03  0.50400000000E-02 0.  1.
    5000001    1    1    2    0    0 -0.18816482148E+03 -0.81124700653E+02  0.57961415868E+02  0.28406116037E+03  0.18800000000E+03 0.  0.
   -5000001    1    1    2    0    0  0.18816482148E+03  0.81124700653E+02  0.37065520711E+03  0.46337511765E+03  0.18800000000E+03 0.  0.
<mgrwt>
<rscale>  0 0.61233061E+03</rscale>
<asrwt>0</asrwt>
<pdfrwt beam="1">  1        1 0.22772833E-01 0.61233061E+03</pdfrwt>
<pdfrwt beam="2">  1       -1 0.84003778E-01 0.61233061E+03</pdfrwt>
<totfact> 0.31463189E+02</totfact>
</mgrwt>
</event>
<event>
 4    1  0.1545327E-005  0.4971573E+03  0.7818608E-02  0.1014524E+00
         -1   -1    0    0    0  501 -0.00000000000E+00  0.00000000000E+00  0.58003342024E+02  0.58003342243E+02  0.50400000000E-02 0. -1.
          1   -1    0    0  501    0  0.00000000000E+00 -0.00000000000E+00 -0.10653067240E+04  0.10653067240E+04  0.50400000000E-02 0.  1.
    5000001    1    1    2    0    0 -0.90767000352E+01 -0.12411516260E+03 -0.74019944139E+03  0.77377398063E+03  0.18800000000E+03 0.  0.
   -5000001    1    1    2    0    0  0.90767000352E+01  0.12411516260E+03 -0.26710394056E+03  0.34953608559E+03  0.18800000000E+03 0.  0.
<mgrwt>
<rscale>  0 0.49715732E+03</rscale>
<asrwt>0</asrwt>
<pdfrwt beam="1">  1        1 0.15218666E+00 0.49715732E+03</pdfrwt>
<pdfrwt beam="2">  1       -1 0.82861924E-02 0.49715732E+03</pdfrwt>
<totfact> 0.13250529E+03</totfact>
</mgrwt>
</event>
<event>
 4    1  0.1545327E-005  0.5927004E+03  0.7818608E-02  0.9920667E-01
          1   -1    0    0  501    0  0.00000000000E+00  0.00000000000E+00  0.12416211137E+03  0.12416211148E+03  0.50400000000E-02 0.  1.
         -1   -1    0    0    0  501 -0.00000000000E+00 -0.00000000000E+00 -0.70732884759E+03  0.70732884761E+03  0.50400000000E-02 0. -1.
    5000001    1    1    2    0    0  0.21180253855E+03  0.66044729004E+02 -0.21151776837E+03  0.35959141801E+03  0.18800000000E+03 0.  0.
   -5000001    1    1    2    0    0 -0.21180253855E+03 -0.66044729004E+02 -0.37164896784E+03  0.47189954108E+03  0.18800000000E+03 0.  0.
<mgrwt>
<rscale>  0 0.59270041E+03</rscale>
<asrwt>0</asrwt>
<pdfrwt beam="1">  1        1 0.17737445E-01 0.59270041E+03</pdfrwt>
<pdfrwt beam="2">  1       -1 0.10104698E+00 0.59270041E+03</pdfrwt>
<totfact> 0.29116017E+02</totfact>
</mgrwt>
</event>
<event>
 4    1  0.1545327E-005  0.4661233E+03  0.7818608E-02  0.1023020E+00
         -1   -1    0    0    0  501 -0.00000000000E+00  0.00000000000E+00  0.18346202079E+03  0.18346202086E+03  0.50400000000E-02 0. -1.
          1   -1    0    0  501    0  0.00000000000E+00 -0.00000000000E+00 -0.29607067932E+03  0.29607067937E+03  0.50400000000E-02 0.  1.
    5000001    1    1    2    0    0  0.11225914558E+03  0.70944496163E+02 -0.93942166724E+02  0.24860484305E+03  0.18800000000E+03 0.  0.
   -5000001    1    1    2    0    0 -0.11225914558E+03 -0.70944496163E+02 -0.18666491812E+02  0.23092785717E+03  0.18800000000E+03 0.  0.
<mgrwt>
<rscale>  0 0.46612327E+03</rscale>
<asrwt>0</asrwt>
<pdfrwt beam="1">  1        1 0.42295811E-01 0.46612327E+03</pdfrwt>
<pdfrwt beam="2">  1       -1 0.26208860E-01 0.46612327E+03</pdfrwt>
<totfact> 0.12655839E+03</totfact>
</mgrwt>
</event>
<event>
 4    1  0.1545327E-005  0.4987709E+03  0.7818608E-02  0.1014100E+00
          1   -1    0    0  501    0  0.00000000000E+00  0.00000000000E+00  0.13865173013E+04  0.13865173013E+04  0.50400000000E-02 0.  1.
         -1   -1    0    0    0  501 -0.00000000000E+00 -0.00000000000E+00 -0.44855625927E+02  0.44855626210E+02  0.50400000000E-02 0. -1.
    5000001    1    1    2    0    0 -0.68431280280E+02  0.14870364269E+03  0.64984238269E+03  0.69601345950E+03  0.18800000000E+03 0.  0.
   -5000001    1    1    2    0    0  0.68431280280E+02 -0.14870364269E+03  0.69181929270E+03  0.73535946804E+03  0.18800000000E+03 0.  0.
<mgrwt>
<rscale>  0 0.49877090E+03</rscale>
<asrwt>0</asrwt>
<pdfrwt beam="1">  1        1 0.19807390E+00 0.49877090E+03</pdfrwt>
<pdfrwt beam="2">  1       -1 0.64079465E-02 0.49877090E+03</pdfrwt>
<totfact> 0.11943058E+03</totfact>
</mgrwt>
</event>
<event>
 4    1  0.1545327E-005  0.4239739E+03  0.7818608E-02  0.1035781E+00
          1   -1    0    0  501    0  0.00000000000E+00  0.00000000000E+00  0.21238781489E+03  0.21238781495E+03  0.50400000000E-02 0.  1.
         -1   -1    0    0    0  501 -0.00000000000E+00 -0.00000000000E+00 -0.21158681072E+03  0.21158681078E+03  0.50400000000E-02 0. -1.
    5000001    1    1    2    0    0  0.12294224626E+02  0.89300222443E+02  0.38725271748E+02  0.21205971885E+03  0.18800000000E+03 0.  0.
   -5000001    1    1    2    0    0 -0.12294224626E+02 -0.89300222443E+02 -0.37924267575E+02  0.21191490688E+03  0.18800000000E+03 0.  0.
<mgrwt>
<rscale>  0 0.42397387E+03</rscale>
<asrwt>0</asrwt>
<pdfrwt beam="1">  1        1 0.30341116E-01 0.42397387E+03</pdfrwt>
<pdfrwt beam="2">  1       -1 0.30226687E-01 0.42397387E+03</pdfrwt>
<totfact> 0.15150405E+03</totfact>
</mgrwt>
</event>
<event>
 4    1  0.1545327E-005  0.1236906E+04  0.7818608E-02  0.9081152E-01
          1   -1    0    0  501    0  0.00000000000E+00  0.00000000000E+00  0.18062619118E+04  0.18062619118E+04  0.50400000000E-02 0.  1.
         -1   -1    0    0    0  501 -0.00000000000E+00 -0.00000000000E+00 -0.21175455826E+03  0.21175455832E+03  0.50400000000E-02 0. -1.
    5000001    1    1    2    0    0 -0.48542474255E+03  0.33139731752E+03  0.73040521813E+03  0.95618886493E+03  0.18800000000E+03 0.  0.
   -5000001    1    1    2    0    0  0.48542474255E+03 -0.33139731752E+03  0.86410213541E+03  0.10618276052E+04  0.18800000000E+03 0.  0.
<mgrwt>
<rscale>  0 0.12369061E+04</rscale>
<asrwt>0</asrwt>
<pdfrwt beam="1">  1        1 0.25803740E+00 0.12369061E+04</pdfrwt>
<pdfrwt beam="2">  1       -1 0.30250653E-01 0.12369061E+04</pdfrwt>
<totfact> 0.49054075E+01</totfact>
</mgrwt>
</event>
<event>
 4    1  0.1545327E-005  0.4499525E+03  0.7818608E-02  0.1027736E+00
          1   -1    0    0  501    0  0.00000000000E+00  0.00000000000E+00  0.21730318652E+04  0.21730318652E+04  0.50400000000E-02 0. -1.
         -1   -1    0    0    0  501 -0.00000000000E+00 -0.00000000000E+00 -0.23292027099E+02  0.23292027644E+02  0.50400000000E-02 0.  1.
    5000001    1    1    2    0    0  0.21503603234E+02 -0.78515777345E+02  0.15286721356E+04  0.15423390128E+04  0.18800000000E+03 0.  0.
   -5000001    1    1    2    0    0 -0.21503603234E+02  0.78515777345E+02  0.62106770250E+03  0.65398488005E+03  0.18800000000E+03 0.  0.
<mgrwt>
<rscale>  0 0.44995252E+03</rscale>
<asrwt>0</asrwt>
<pdfrwt beam="1">  1        1 0.31043308E+00 0.44995252E+03</pdfrwt>
<pdfrwt beam="2">  1       -1 0.33274330E-02 0.44995252E+03</pdfrwt>
<totfact> 0.10481642E+03</totfact>
</mgrwt>
</event>
<event>
 4    1  0.1545327E-005  0.6789704E+03  0.7818608E-02  0.9753887E-01
          1   -1    0    0  501    0  0.00000000000E+00  0.00000000000E+00  0.37777705839E+03  0.37777705843E+03  0.50400000000E-02 0.  1.
         -1   -1    0    0    0  501 -0.00000000000E+00 -0.00000000000E+00 -0.30507459868E+03  0.30507459873E+03  0.50400000000E-02 0. -1.
    5000001    1    1    2    0    0 -0.18865475483E+03 -0.17830765738E+03  0.14889241733E+03  0.35340796417E+03  0.18800000000E+03 0.  0.
   -5000001    1    1    2    0    0  0.18865475483E+03  0.17830765738E+03 -0.76189957625E+02  0.32944369298E+03  0.18800000000E+03 0.  0.
<mgrwt>
<rscale>  0 0.67897035E+03</rscale>
<asrwt>0</asrwt>
<pdfrwt beam="1">  1        1 0.53968151E-01 0.67897035E+03</pdfrwt>
<pdfrwt beam="2">  1       -1 0.43582086E-01 0.67897035E+03</pdfrwt>
<totfact> 0.37543135E+02</totfact>
</mgrwt>
</event>
<event>
 4    1  0.1545327E-005  0.7140712E+03  0.7818608E-02  0.9693467E-01
         -1   -1    0    0    0  501 -0.00000000000E+00  0.00000000000E+00  0.13039633499E+03  0.13039633509E+03  0.50400000000E-02 0. -1.
          1   -1    0    0  501    0  0.00000000000E+00 -0.00000000000E+00 -0.97759216798E+03  0.97759216799E+03  0.50400000000E-02 0.  1.
    5000001    1    1    2    0    0 -0.28222522845E+03  0.11010593302E+03 -0.39431980929E+03  0.53160747555E+03  0.18800000000E+03 0.  0.
   -5000001    1    1    2    0    0  0.28222522845E+03 -0.11010593302E+03 -0.45287602370E+03  0.57638102753E+03  0.18800000000E+03 0.  0.
<mgrwt>
<rscale>  0 0.71407125E+03</rscale>
<asrwt>0</asrwt>
<pdfrwt beam="1">  1        1 0.13965602E+00 0.71407125E+03</pdfrwt>
<pdfrwt beam="2">  1       -1 0.18628048E-01 0.71407125E+03</pdfrwt>
<totfact> 0.41703096E+02</totfact>
</mgrwt>
</event>
<event>
 4    1  0.1545327E-005  0.7342555E+03  0.7818608E-02  0.9660380E-01
          1   -1    0    0  501    0  0.00000000000E+00  0.00000000000E+00  0.51260293352E+03  0.51260293355E+03  0.50400000000E-02 0.  1.
         -1   -1    0    0    0  501 -0.00000000000E+00 -0.00000000000E+00 -0.26293796996E+03  0.26293797001E+03  0.50400000000E-02 0. -1.
    5000001    1    1    2    0    0 -0.18735214261E+02  0.16770724806E+03  0.40619780951E+03  0.47834860694E+03  0.18800000000E+03 0.  0.
   -5000001    1    1    2    0    0  0.18735214261E+02 -0.16770724806E+03 -0.15653284595E+03  0.29719229662E+03  0.18800000000E+03 0.  0.
<mgrwt>
<rscale>  0 0.73425547E+03</rscale>
<asrwt>0</asrwt>
<pdfrwt beam="1">  1        1 0.73228990E-01 0.73425547E+03</pdfrwt>
<pdfrwt beam="2">  1       -1 0.37562568E-01 0.73425547E+03</pdfrwt>
<totfact> 0.32736524E+02</totfact>
</mgrwt>
</event>
<event>
 4    1  0.1545327E-005  0.6397683E+03  0.7818608E-02  0.9826170E-01
         -1   -1    0    0    0  501 -0.00000000000E+00  0.00000000000E+00  0.40383877765E+02  0.40383878080E+02  0.50400000000E-02 0. -1.
          1   -1    0    0  501    0  0.00000000000E+00 -0.00000000000E+00 -0.25338298472E+04  0.25338298472E+04  0.50400000000E-02 0.  1.
    5000001    1    1    2    0    0 -0.51276489907E+02  0.24600662034E+03 -0.99760188183E+03  0.10458021086E+04  0.18800000000E+03 0.  0.
   -5000001    1    1    2    0    0  0.51276489907E+02 -0.24600662034E+03 -0.14958440876E+04  0.15284116167E+04  0.18800000000E+03 0.  0.
<mgrwt>
<rscale>  0 0.63976832E+03</rscale>
<asrwt>0</asrwt>
<pdfrwt beam="1">  1        1 0.36197559E+00 0.63976832E+03</pdfrwt>
<pdfrwt beam="2">  1       -1 0.57691270E-02 0.63976832E+03</pdfrwt>
<totfact> 0.26758280E+02</totfact>
</mgrwt>
</event>
<event>
 4    1  0.1545327E-005  0.6833983E+03  0.7818608E-02  0.9746052E-01
          1   -1    0    0  501    0  0.00000000000E+00  0.00000000000E+00  0.13444520108E+04  0.13444520108E+04  0.50400000000E-02 0.  1.
         -1   -1    0    0    0  501 -0.00000000000E+00 -0.00000000000E+00 -0.86844541756E+02  0.86844541902E+02  0.50400000000E-02 0. -1.
    5000001    1    1    2    0    0 -0.76351004983E+02 -0.22393600166E+03  0.29476793605E+03  0.42214801306E+03  0.18800000000E+03 0.  0.
   -5000001    1    1    2    0    0  0.76351004983E+02  0.22393600166E+03  0.96283953296E+03  0.10091485396E+04  0.18800000000E+03 0.  0.
<mgrwt>
<rscale>  0 0.68339833E+03</rscale>
<asrwt>0</asrwt>
<pdfrwt beam="1">  1        1 0.19206457E+00 0.68339833E+03</pdfrwt>
<pdfrwt beam="2">  1       -1 0.12406364E-01 0.68339833E+03</pdfrwt>
<totfact> 0.44786468E+02</totfact>
</mgrwt>
</event>
<event>
 4    1  0.1545327E-005  0.6899295E+03  0.7818608E-02  0.9734611E-01
          1   -1    0    0  501    0  0.00000000000E+00  0.00000000000E+00  0.52618678332E+03  0.52618678334E+03  0.50400000000E-02 0. -1.
         -1   -1    0    0    0  501 -0.00000000000E+00 -0.00000000000E+00 -0.22615672233E+03  0.22615672239E+03  0.50400000000E-02 0.  1.
    5000001    1    1    2    0    0  0.15186603622E+03  0.19458407510E+03  0.31442010628E+03  0.44173550737E+03  0.18800000000E+03 0.  0.
   -5000001    1    1    2    0    0 -0.15186603622E+03 -0.19458407510E+03 -0.14390045292E+02  0.31060799836E+03  0.18800000000E+03 0.  0.
<mgrwt>
<rscale>  0 0.68992950E+03</rscale>
<asrwt>0</asrwt>
<pdfrwt beam="1">  1        1 0.75169540E-01 0.68992950E+03</pdfrwt>
<pdfrwt beam="2">  1       -1 0.32308104E-01 0.68992950E+03</pdfrwt>
<totfact> 0.41362325E+02</totfact>
</mgrwt>
</event>
<event>
 4    1  0.1545327E-005  0.8527586E+03  0.7818608E-02  0.9486642E-01
          1   -1    0    0  501    0  0.00000000000E+00  0.00000000000E+00  0.22510798715E+03  0.22510798721E+03  0.50400000000E-02 0.  1.
         -1   -1    0    0    0  501 -0.00000000000E+00 -0.00000000000E+00 -0.80760938323E+03  0.80760938324E+03  0.50400000000E-02 0. -1.
    5000001    1    1    2    0    0 -0.11537713871E+03 -0.33141555512E+03 -0.10636636421E+03  0.41207518458E+03  0.18800000000E+03 0.  0.
   -5000001    1    1    2    0    0  0.11537713871E+03  0.33141555512E+03 -0.47613503186E+03  0.62064218587E+03  0.18800000000E+03 0.  0.
<mgrwt>
<rscale>  0 0.85275864E+03</rscale>
<asrwt>0</asrwt>
<pdfrwt beam="1">  1        1 0.32158284E-01 0.85275864E+03</pdfrwt>
<pdfrwt beam="2">  1       -1 0.11537277E+00 0.85275864E+03</pdfrwt>
<totfact> 0.96604797E+01</totfact>
</mgrwt>
</event>
<event>
 4    1  0.1545327E-005  0.5267350E+03  0.7818608E-02  0.1007027E+00
          1   -1    0    0  501    0  0.00000000000E+00  0.00000000000E+00  0.13515863068E+04  0.13515863068E+04  0.50400000000E-02 0. -1.
         -1   -1    0    0    0  501 -0.00000000000E+00 -0.00000000000E+00 -0.51319274403E+02  0.51319274650E+02  0.50400000000E-02 0.  1.
    5000001    1    1    2    0    0  0.10921554701E+03  0.74146589025E+02  0.99321282213E+03  0.10194319312E+04  0.18800000000E+03 0.  0.
   -5000001    1    1    2    0    0 -0.10921554701E+03 -0.74146589025E+02  0.30705421024E+03  0.38347365021E+03  0.18800000000E+03 0.  0.
<mgrwt>
<rscale>  0 0.52673496E+03</rscale>
<asrwt>0</asrwt>
<pdfrwt beam="1">  1        1 0.19308375E+00 0.52673496E+03</pdfrwt>
<pdfrwt beam="2">  1       -1 0.73313252E-02 0.52673496E+03</pdfrwt>
<totfact> 0.10215458E+03</totfact>
</mgrwt>
</event>
<event>
 4    1  0.1545327E-005  0.5806719E+03  0.7818608E-02  0.9946337E-01
         -1   -1    0    0    0  501 -0.00000000000E+00  0.00000000000E+00  0.69776456997E+03  0.69776456999E+03  0.50400000000E-02 0. -1.
          1   -1    0    0  501    0  0.00000000000E+00 -0.00000000000E+00 -0.12080716701E+03  0.12080716712E+03  0.50400000000E-02 0.  1.
    5000001    1    1    2    0    0  0.21331894880E+03  0.47418530670E+01  0.37096109018E+03  0.46742228180E+03  0.18800000000E+03 0.  0.
   -5000001    1    1    2    0    0 -0.21331894880E+03 -0.47418530670E+01  0.20599631278E+03  0.35114945531E+03  0.18800000000E+03 0.  0.
<mgrwt>
<rscale>  0 0.58067189E+03</rscale>
<asrwt>0</asrwt>
<pdfrwt beam="1">  1        1 0.17258166E-01 0.58067189E+03</pdfrwt>
<pdfrwt beam="2">  1       -1 0.99680657E-01 0.58067189E+03</pdfrwt>
<totfact> 0.31158572E+02</totfact>
</mgrwt>
</event>
<event>
 4    1  0.1545327E-005  0.5511965E+03  0.7818608E-02  0.1001217E+00
          1   -1    0    0  501    0  0.00000000000E+00  0.00000000000E+00  0.25243080407E+03  0.25243080412E+03  0.50400000000E-02 0.  1.
         -1   -1    0    0    0  501 -0.00000000000E+00 -0.00000000000E+00 -0.30089194919E+03  0.30089194923E+03  0.50400000000E-02 0. -1.
    5000001    1    1    2    0    0 -0.27543600292E+02 -0.10014506764E+03 -0.19758927320E+03  0.29184448834E+03  0.18800000000E+03 0.  0.
   -5000001    1    1    2    0    0  0.27543600292E+02  0.10014506764E+03  0.14912812808E+03  0.26147826501E+03  0.18800000000E+03 0.  0.
<mgrwt>
<rscale>  0 0.55119650E+03</rscale>
<asrwt>0</asrwt>
<pdfrwt beam="1">  1        1 0.36061543E-01 0.55119650E+03</pdfrwt>
<pdfrwt beam="2">  1       -1 0.42984564E-01 0.55119650E+03</pdfrwt>
<totfact> 0.65013185E+02</totfact>
</mgrwt>
</event>
<event>
 4    1  0.1545327E-005  0.6298522E+03  0.7818608E-02  0.9845337E-01
          1   -1    0    0  501    0  0.00000000000E+00  0.00000000000E+00  0.14772366658E+03  0.14772366667E+03  0.50400000000E-02 0.  1.
         -1   -1    0    0    0  501 -0.00000000000E+00 -0.00000000000E+00 -0.67137820330E+03  0.67137820332E+03  0.50400000000E-02 0. -1.
    5000001    1    1    2    0    0 -0.24618154397E+01 -0.25230933284E+03 -0.27870279404E+03  0.42033951442E+03  0.18800000000E+03 0.  0.
   -5000001    1    1    2    0    0  0.24618154397E+01  0.25230933284E+03 -0.24495174267E+03  0.39876235556E+03  0.18800000000E+03 0.  0.
<mgrwt>
<rscale>  0 0.62985220E+03</rscale>
<asrwt>0</asrwt>
<pdfrwt beam="1">  1        1 0.21103381E-01 0.62985220E+03</pdfrwt>
<pdfrwt beam="2">  1       -1 0.95911170E-01 0.62985220E+03</pdfrwt>
<totfact> 0.25993349E+02</totfact>
</mgrwt>
</event>
<event>
 4    1  0.1545327E-005  0.9883814E+03  0.7818608E-02  0.9321380E-01
          1   -1    0    0  501    0  0.00000000000E+00  0.00000000000E+00  0.11723439014E+04  0.11723439014E+04  0.50400000000E-02 0.  1.
         -1   -1    0    0    0  501 -0.00000000000E+00 -0.00000000000E+00 -0.20832149027E+03  0.20832149033E+03  0.50400000000E-02 0. -1.
    5000001    1    1    2    0    0  0.14288657029E+03 -0.43225257441E+03  0.42576003571E+03  0.65105642464E+03  0.18800000000E+03 0.  0.
   -5000001    1    1    2    0    0 -0.14288657029E+03  0.43225257441E+03  0.53826237537E+03  0.72960896705E+03  0.18800000000E+03 0.  0.
<mgrwt>
<rscale>  0 0.98838136E+03</rscale>
<asrwt>0</asrwt>
<pdfrwt beam="1">  1        1 0.16747770E+00 0.98838136E+03</pdfrwt>
<pdfrwt beam="2">  1       -1 0.29760213E-01 0.98838136E+03</pdfrwt>
<totfact> 0.13401304E+02</totfact>
</mgrwt>
</event>
<event>
 4    1  0.1545327E-005  0.6699274E+03  0.7818608E-02  0.9770089E-01
          1   -1    0    0  501    0  0.00000000000E+00  0.00000000000E+00  0.28447291698E+04  0.28447291698E+04  0.50400000000E-02 0. -1.
         -1   -1    0    0    0  501 -0.00000000000E+00 -0.00000000000E+00 -0.39441604088E+02  0.39441604410E+02  0.50400000000E-02 0.  1.
    5000001    1    1    2    0    0  0.22602958829E+03  0.11801703237E+03  0.18710859801E+04  0.18977155054E+04  0.18800000000E+03 0.  0.
   -5000001    1    1    2    0    0 -0.22602958829E+03 -0.11801703237E+03  0.93420158568E+03  0.98645526883E+03  0.18800000000E+03 0.  0.
<mgrwt>
<rscale>  0 0.66992741E+03</rscale>
<asrwt>0</asrwt>
<pdfrwt beam="1">  1        1 0.40638998E+00 0.66992741E+03</pdfrwt>
<pdfrwt beam="2">  1       -1 0.56345135E-02 0.66992741E+03</pdfrwt>
<totfact> 0.17598043E+02</totfact>
</mgrwt>
</event>
<event>
 4    1  0.1545327E-005  0.4443808E+03  0.7818608E-02  0.1029411E+00
         -1   -1    0    0    0  501 -0.00000000000E+00  0.00000000000E+00  0.12957061034E+03  0.12957061044E+03  0.50400000000E-02 0. -1.
          1   -1    0    0  501    0  0.00000000000E+00 -0.00000000000E+00 -0.38101680815E+03  0.38101680819E+03  0.50400000000E-02 0.  1.
    5000001    1    1    2    0    0  0.10149298810E+03  0.38873438099E+02 -0.17976955094E+03  0.28190967041E+03  0.18800000000E+03 0.  0.
   -5000001    1    1    2    0    0 -0.10149298810E+03 -0.38873438099E+02 -0.71676646876E+02  0.22867774822E+03  0.18800000000E+03 0.  0.
<mgrwt>
<rscale>  0 0.44438083E+03</rscale>
<asrwt>0</asrwt>
<pdfrwt beam="1">  1        1 0.54430972E-01 0.44438083E+03</pdfrwt>
<pdfrwt beam="2">  1       -1 0.18510087E-01 0.44438083E+03</pdfrwt>
<totfact> 0.16335109E+03</totfact>
</mgrwt>
</event>
<event>
 4    1  0.1545327E-005  0.5186500E+03  0.7818608E-02  0.1009022E+00
         -1   -1    0    0    0  501 -0.00000000000E+00  0.00000000000E+00  0.18466258307E+02  0.18466258995E+02  0.50400000000E-02 0. -1.
          1   -1    0    0  501    0  0.00000000000E+00 -0.00000000000E+00 -0.36417473853E+04  0.36417473853E+04  0.50400000000E-02 0.  1.
    5000001    1    1    2    0    0 -0.70575474747E+02  0.13504103734E+03 -0.11538256407E+04  0.11789294248E+04  0.18800000000E+03 0.  0.
   -5000001    1    1    2    0    0  0.70575474747E+02 -0.13504103734E+03 -0.24694554863E+04  0.24812842195E+04  0.18800000000E+03 0.  0.
<mgrwt>
<rscale>  0 0.51864998E+03</rscale>
<asrwt>0</asrwt>
<pdfrwt beam="1">  1        1 0.52024917E+00 0.51864998E+03</pdfrwt>
<pdfrwt beam="2">  1       -1 0.26380393E-02 0.51864998E+03</pdfrwt>
<totfact> 0.16717272E+02</totfact>
</mgrwt>
</event>
<event>
 4    1  0.1545327E-005  0.6649540E+03  0.7818608E-02  0.9779117E-01
          1   -1    0    0  501    0  0.00000000000E+00  0.00000000000E+00  0.25650095293E+03  0.25650095298E+03  0.50400000000E-02 0.  1.
         -1   -1    0    0    0  501 -0.00000000000E+00 -0.00000000000E+00 -0.43095732143E+03  0.43095732146E+03  0.50400000000E-02 0. -1.
    5000001    1    1    2    0    0 -0.16694021339E+03 -0.17773779269E+03 -0.21692178192E+03  0.37664149701E+03  0.18800000000E+03 0.  0.
   -5000001    1    1    2    0    0  0.16694021339E+03  0.17773779269E+03  0.42465413417E+02  0.31081677743E+03  0.18800000000E+03 0.  0.
<mgrwt>
<rscale>  0 0.66495402E+03</rscale>
<asrwt>0</asrwt>
<pdfrwt beam="1">  1        1 0.36642993E-01 0.66495402E+03</pdfrwt>
<pdfrwt beam="2">  1       -1 0.61565331E-01 0.66495402E+03</pdfrwt>
<totfact> 0.32097061E+02</totfact>
</mgrwt>
</event>
<event>
 4    1  0.1545327E-005  0.6328784E+03  0.7818608E-02  0.9839448E-01
         -1   -1    0    0    0  501 -0.00000000000E+00  0.00000000000E+00  0.11676955338E+03  0.11676955349E+03  0.50400000000E-02 0. -1.
          1   -1    0    0  501    0  0.00000000000E+00 -0.00000000000E+00 -0.85753329462E+03  0.85753329464E+03  0.50400000000E-02 0.  1.
    5000001    1    1    2    0    0 -0.83301515041E+02  0.13067688385E+03 -0.68124294221E+03  0.72349950704E+03  0.18800000000E+03 0.  0.
   -5000001    1    1    2    0    0  0.83301515041E+02 -0.13067688385E+03 -0.59520799032E+02  0.25080334108E+03  0.18800000000E+03 0.  0.
<mgrwt>
<rscale>  0 0.63287844E+03</rscale>
<asrwt>0</asrwt>
<pdfrwt beam="1">  1        1 0.12250475E+00 0.63287844E+03</pdfrwt>
<pdfrwt beam="2">  1       -1 0.16681365E-01 0.63287844E+03</pdfrwt>
<totfact> 0.62155028E+02</totfact>
</mgrwt>
</event>
<event>
 4    1  0.1545327E-005  0.6980330E+03  0.7818608E-02  0.9720602E-01
         -1   -1    0    0    0  501 -0.00000000000E+00  0.00000000000E+00  0.25136848876E+04  0.25136848876E+04  0.50400000000E-02 0. -1.
          1   -1    0    0  501    0  0.00000000000E+00 -0.00000000000E+00 -0.48459734166E+02  0.48459734428E+02  0.50400000000E-02 0.  1.
    5000001    1    1    2    0    0 -0.73187645393E+00  0.29402225112E+03  0.12485622361E+04  0.12964186350E+04  0.18800000000E+03 0.  0.
   -5000001    1    1    2    0    0  0.73187645393E+00 -0.29402225112E+03  0.12166629174E+04  0.12657259870E+04  0.18800000000E+03 0.  0.
<mgrwt>
<rscale>  0 0.69803296E+03</rscale>
<asrwt>0</asrwt>
<pdfrwt beam="1">  1        1 0.69228197E-02 0.69803296E+03</pdfrwt>
<pdfrwt beam="2">  1       -1 0.35909781E+00 0.69803296E+03</pdfrwt>
<totfact> 0.16071580E+01</totfact>
</mgrwt>
</event>
<event>
 4    1  0.1545327E-005  0.8148137E+03  0.7818608E-02  0.9538819E-01
         -1   -1    0    0    0  501 -0.00000000000E+00  0.00000000000E+00  0.96314258878E+03  0.96314258879E+03  0.50400000000E-02 0.  1.
          1   -1    0    0  501    0  0.00000000000E+00 -0.00000000000E+00 -0.17233205246E+03  0.17233205254E+03  0.50400000000E-02 0. -1.
    5000001    1    1    2    0    0  0.83765504477E+02 -0.34989400209E+03  0.34725518433E+03  0.53420280370E+03  0.18800000000E+03 0.  0.
   -5000001    1    1    2    0    0 -0.83765504477E+02  0.34989400209E+03  0.44355535199E+03  0.60127183762E+03  0.18800000000E+03 0.  0.
<mgrwt>
<rscale>  0 0.81481369E+03</rscale>
<asrwt>0</asrwt>
<pdfrwt beam="1">  1        1 0.24618865E-01 0.81481369E+03</pdfrwt>
<pdfrwt beam="2">  1       -1 0.13759180E+00 0.81481369E+03</pdfrwt>
<totfact> 0.88494207E+01</totfact>
</mgrwt>
</event>
<event>
 4    1  0.1545327E-005  0.4979224E+03  0.7818608E-02  0.1014323E+00
         -1   -1    0    0    0  501 -0.00000000000E+00  0.00000000000E+00  0.63498710274E+02  0.63498710474E+02  0.50400000000E-02 0.  1.
          1   -1    0    0  501    0  0.00000000000E+00 -0.00000000000E+00 -0.97610924815E+03  0.97610924816E+03  0.50400000000E-02 0. -1.
    5000001    1    1    2    0    0 -0.12841161427E+03  0.99583363519E+02 -0.42455218739E+03  0.49192982100E+03  0.18800000000E+03 0.  0.
   -5000001    1    1    2    0    0  0.12841161427E+03 -0.99583363519E+02 -0.48805835048E+03  0.54767813764E+03  0.18800000000E+03 0.  0.
<mgrwt>
<rscale>  0 0.49792240E+03</rscale>
<asrwt>0</asrwt>
<pdfrwt beam="1">  1        1 0.13944417E+00 0.49792240E+03</pdfrwt>
<pdfrwt beam="2">  1       -1 0.90712449E-02 0.49792240E+03</pdfrwt>
<totfact> 0.13362789E+03</totfact>
</mgrwt>
</event>
<event>
 4    1  0.1545327E-005  0.5925466E+03  0.7818608E-02  0.9920991E-01
         -1   -1    0    0    0  501 -0.00000000000E+00  0.00000000000E+00  0.14950433684E+03  0.14950433693E+03  0.50400000000E-02 0. -1.
          1   -1    0    0  501    0  0.00000000000E+00 -0.00000000000E+00 -0.58712595109E+03  0.58712595111E+03  0.50400000000E-02 0.  1.
    5000001    1    1    2    0    0 -0.74262902858E+02  0.20224296483E+03 -0.31523933018E+03  0.42560196293E+03  0.18800000000E+03 0.  0.
   -5000001    1    1    2    0    0  0.74262902858E+02 -0.20224296483E+03 -0.12238228407E+03  0.31102832511E+03  0.18800000000E+03 0.  0.
<mgrwt>
<rscale>  0 0.59254663E+03</rscale>
<asrwt>0</asrwt>
<pdfrwt beam="1">  1        1 0.83875135E-01 0.59254663E+03</pdfrwt>
<pdfrwt beam="2">  1       -1 0.21357763E-01 0.59254663E+03</pdfrwt>
<totfact> 0.72405628E+02</totfact>
</mgrwt>
</event>
<event>
 4    1  0.1545327E-005  0.8091869E+03  0.7818608E-02  0.9546814E-01
         -1   -1    0    0    0  501 -0.00000000000E+00  0.00000000000E+00  0.91234722064E+03  0.91234722065E+03  0.50400000000E-02 0. -1.
          1   -1    0    0  501    0  0.00000000000E+00 -0.00000000000E+00 -0.17942275240E+03  0.17942275247E+03  0.50400000000E-02 0.  1.
    5000001    1    1    2    0    0 -0.34331072458E+03 -0.10061951899E+03  0.39224990329E+03  0.56319670440E+03  0.18800000000E+03 0.  0.
   -5000001    1    1    2    0    0  0.34331072458E+03  0.10061951899E+03  0.34067456494E+03  0.52857326872E+03  0.18800000000E+03 0.  0.
<mgrwt>
<rscale>  0 0.80918687E+03</rscale>
<asrwt>0</asrwt>
<pdfrwt beam="1">  1        1 0.25631822E-01 0.80918687E+03</pdfrwt>
<pdfrwt beam="2">  1       -1 0.13033532E+00 0.80918687E+03</pdfrwt>
<totfact> 0.96403443E+01</totfact>
</mgrwt>
</event>
<event>
 4    1  0.1545327E-005  0.4621607E+03  0.7818608E-02  0.1024156E+00
         -1   -1    0    0    0  501 -0.00000000000E+00  0.00000000000E+00  0.48035193901E+02  0.48035194165E+02  0.50400000000E-02 0. -1.
          1   -1    0    0  501    0  0.00000000000E+00 -0.00000000000E+00 -0.11116457341E+04  0.11116457341E+04  0.50400000000E-02 0.  1.
    5000001    1    1    2    0    0 -0.70114560266E+02  0.92087821158E+02 -0.36055130709E+03  0.42277353679E+03  0.18800000000E+03 0.  0.
   -5000001    1    1    2    0    0  0.70114560266E+02 -0.92087821158E+02 -0.70305923312E+03  0.73690739150E+03  0.18800000000E+03 0.  0.
<mgrwt>
<rscale>  0 0.46216066E+03</rscale>
<asrwt>0</asrwt>
<pdfrwt beam="1">  1        1 0.15880652E+00 0.46216066E+03</pdfrwt>
<pdfrwt beam="2">  1       -1 0.68621713E-02 0.46216066E+03</pdfrwt>
<totfact> 0.16461506E+03</totfact>
</mgrwt>
</event>
<event>
 4    1  0.1545327E-005  0.5340861E+03  0.7818608E-02  0.1005246E+00
          1   -1    0    0  501    0  0.00000000000E+00  0.00000000000E+00  0.18150441970E+03  0.18150441977E+03  0.50400000000E-02 0.  1.
         -1   -1    0    0    0  501 -0.00000000000E+00 -0.00000000000E+00 -0.39289399704E+03  0.39289399707E+03  0.50400000000E-02 0. -1.
    5000001    1    1    2    0    0  0.80349291012E+02  0.17129563506E+03 -0.11970881303E+03  0.29235663678E+03  0.18800000000E+03 0.  0.
   -5000001    1    1    2    0    0 -0.80349291012E+02 -0.17129563506E+03 -0.91680764307E+02  0.28204178006E+03  0.18800000000E+03 0.  0.
<mgrwt>
<rscale>  0 0.53408612E+03</rscale>
<asrwt>0</asrwt>
<pdfrwt beam="1">  1        1 0.25929203E-01 0.53408612E+03</pdfrwt>
<pdfrwt beam="2">  1       -1 0.56127714E-01 0.53408612E+03</pdfrwt>
<totfact> 0.60319024E+02</totfact>
</mgrwt>
</event>
<event>
 4    1  0.1545327E-005  0.6078137E+03  0.7818608E-02  0.9889327E-01
         -1   -1    0    0    0  501 -0.00000000000E+00  0.00000000000E+00  0.14090476396E+03  0.14090476405E+03  0.50400000000E-02 0. -1.
          1   -1    0    0  501    0  0.00000000000E+00 -0.00000000000E+00 -0.65547364885E+03  0.65547364887E+03  0.50400000000E-02 0.  1.
    5000001    1    1    2    0    0  0.14165001679E+03 -0.19220033906E+03 -0.26135719143E+03  0.40082075683E+03  0.18800000000E+03 0.  0.
   -5000001    1    1    2    0    0 -0.14165001679E+03  0.19220033906E+03 -0.25321169345E+03  0.39555765609E+03  0.18800000000E+03 0.  0.
<mgrwt>
<rscale>  0 0.60781366E+03</rscale>
<asrwt>0</asrwt>
<pdfrwt beam="1">  1        1 0.93639091E-01 0.60781366E+03</pdfrwt>
<pdfrwt beam="2">  1       -1 0.20129252E-01 0.60781366E+03</pdfrwt>
<totfact> 0.68367859E+02</totfact>
</mgrwt>
</event>
<event>
 4    1  0.1545327E-005  0.5654372E+03  0.7818608E-02  0.9979827E-01
         -1   -1    0    0    0  501 -0.00000000000E+00  0.00000000000E+00  0.22427895739E+03  0.22427895744E+03  0.50400000000E-02 0.  1.
          1   -1    0    0  501    0  0.00000000000E+00 -0.00000000000E+00 -0.35638567918E+03  0.35638567922E+03  0.50400000000E-02 0. -1.
    5000001    1    1    2    0    0 -0.16356104421E+03 -0.72257017754E+02  0.49276528129E+02  0.26409367282E+03  0.18800000000E+03 0.  0.
   -5000001    1    1    2    0    0  0.16356104421E+03  0.72257017754E+02 -0.18138324993E+03  0.31657096385E+03  0.18800000000E+03 0.  0.
<mgrwt>
<rscale>  0 0.56543721E+03</rscale>
<asrwt>0</asrwt>
<pdfrwt beam="1">  1        1 0.50912240E-01 0.56543721E+03</pdfrwt>
<pdfrwt beam="2">  1       -1 0.32039851E-01 0.56543721E+03</pdfrwt>
<totfact> 0.70517487E+02</totfact>
</mgrwt>
</event>
<event>
 4    1  0.1545327E-005  0.1095394E+04  0.7818608E-02  0.9209693E-01
          1   -1    0    0  501    0  0.00000000000E+00  0.00000000000E+00  0.91526680816E+03  0.91526680818E+03  0.50400000000E-02 0.  1.
         -1   -1    0    0    0  501 -0.00000000000E+00 -0.00000000000E+00 -0.32774249072E+03  0.32774249076E+03  0.50400000000E-02 0. -1.
    5000001    1    1    2    0    0  0.37198838398E+03  0.34275574704E+03  0.18748796922E+03  0.57127278821E+03  0.18800000000E+03 0.  0.
   -5000001    1    1    2    0    0 -0.37198838398E+03 -0.34275574704E+03  0.40003634822E+03  0.67173651072E+03  0.18800000000E+03 0.  0.
<mgrwt>
<rscale>  0 0.10953937E+04</rscale>
<asrwt>0</asrwt>
<pdfrwt beam="1">  1        1 0.13075240E+00 0.10953937E+04</pdfrwt>
<pdfrwt beam="2">  1       -1 0.46820355E-01 0.10953937E+04</pdfrwt>
<totfact> 0.90770377E+01</totfact>
</mgrwt>
</event>
<event>
 4    1  0.1545327E-005  0.6539802E+03  0.7818608E-02  0.9799339E-01
         -1   -1    0    0    0  501 -0.00000000000E+00  0.00000000000E+00  0.53104746511E+02  0.53104746750E+02  0.50400000000E-02 0. -1.
          1   -1    0    0  501    0  0.00000000000E+00 -0.00000000000E+00 -0.20134268949E+04  0.20134268949E+04  0.50400000000E-02 0.  1.
    5000001    1    1    2    0    0  0.21418018878E+03  0.14893166809E+03 -0.11677643399E+04  0.12112272077E+04  0.18800000000E+03 0.  0.
   -5000001    1    1    2    0    0 -0.21418018878E+03 -0.14893166809E+03 -0.79255780850E+03  0.85530443401E+03  0.18800000000E+03 0.  0.
<mgrwt>
<rscale>  0 0.65398020E+03</rscale>
<asrwt>0</asrwt>
<pdfrwt beam="1">  1        1 0.28763237E+00 0.65398020E+03</pdfrwt>
<pdfrwt beam="2">  1       -1 0.75863936E-02 0.65398020E+03</pdfrwt>
<totfact> 0.36777174E+02</totfact>
</mgrwt>
</event>
<event>
 4    1  0.1545327E-005  0.5241012E+03  0.7818608E-02  0.1007673E+00
          1   -1    0    0  501    0  0.00000000000E+00  0.00000000000E+00  0.53355074921E+03  0.53355074923E+03  0.50400000000E-02 0.  1.
         -1   -1    0    0    0  501 -0.00000000000E+00 -0.00000000000E+00 -0.12870475679E+03  0.12870475689E+03  0.50400000000E-02 0. -1.
    5000001    1    1    2    0    0 -0.16066606709E+03 -0.86022186628E+02  0.18898372282E+03  0.32291213851E+03  0.18800000000E+03 0.  0.
   -5000001    1    1    2    0    0  0.16066606709E+03  0.86022186628E+02  0.21586226960E+03  0.33934336761E+03  0.18800000000E+03 0.  0.
<mgrwt>
<rscale>  0 0.52410121E+03</rscale>
<asrwt>0</asrwt>
<pdfrwt beam="1">  1        1 0.76221536E-01 0.52410121E+03</pdfrwt>
<pdfrwt beam="2">  1       -1 0.18386394E-01 0.52410121E+03</pdfrwt>
<totfact> 0.10593857E+03</totfact>
</mgrwt>
</event>
<event>
 4    1  0.1545327E-005  0.6204940E+03  0.7818608E-02  0.9863777E-01
         -1   -1    0    0    0  501 -0.00000000000E+00  0.00000000000E+00  0.66162795514E+02  0.66162795706E+02  0.50400000000E-02 0. -1.
          1   -1    0    0  501    0  0.00000000000E+00 -0.00000000000E+00 -0.14547935713E+04  0.14547935713E+04  0.50400000000E-02 0.  1.
    5000001    1    1    2    0    0 -0.12219102986E+03  0.91812456770E+02 -0.21933187209E+03  0.32681897912E+03  0.18800000000E+03 0.  0.
   -5000001    1    1    2    0    0  0.12219102986E+03 -0.91812456770E+02 -0.11692989037E+04  0.11941373879E+04  0.18800000000E+03 0.  0.
<mgrwt>
<rscale>  0 0.62049403E+03</rscale>
<asrwt>0</asrwt>
<pdfrwt beam="1">  1        1 0.20782763E+00 0.62049403E+03</pdfrwt>
<pdfrwt beam="2">  1       -1 0.94518288E-02 0.62049403E+03</pdfrwt>
<totfact> 0.58608237E+02</totfact>
</mgrwt>
</event>
<event>
 4    1  0.1545327E-005  0.5260772E+03  0.7818608E-02  0.1007188E+00
         -1   -1    0    0    0  501 -0.00000000000E+00  0.00000000000E+00  0.28355451700E+03  0.28355451705E+03  0.50400000000E-02 0. -1.
          1   -1    0    0  501    0  0.00000000000E+00 -0.00000000000E+00 -0.24400702158E+03  0.24400702163E+03  0.50400000000E-02 0.  1.
    5000001    1    1    2    0    0  0.14831599424E+03  0.10791930149E+03  0.55533486315E+01  0.26271476826E+03  0.18800000000E+03 0.  0.
   -5000001    1    1    2    0    0 -0.14831599424E+03 -0.10791930149E+03  0.33994146794E+02  0.26484677041E+03  0.18800000000E+03 0.  0.
<mgrwt>
<rscale>  0 0.52607715E+03</rscale>
<asrwt>0</asrwt>
<pdfrwt beam="1">  1        1 0.34858146E-01 0.52607715E+03</pdfrwt>
<pdfrwt beam="2">  1       -1 0.40507788E-01 0.52607715E+03</pdfrwt>
<totfact> 0.75680582E+02</totfact>
</mgrwt>
</event>
<event>
 4    1  0.1545327E-005  0.1201776E+04  0.7818608E-02  0.9111303E-01
          1   -1    0    0  501    0  0.00000000000E+00  0.00000000000E+00  0.14585415245E+04  0.14585415245E+04  0.50400000000E-02 0.  1.
         -1   -1    0    0    0  501 -0.00000000000E+00 -0.00000000000E+00 -0.24755308679E+03  0.24755308684E+03  0.50400000000E-02 0. -1.
    5000001    1    1    2    0    0  0.25990945991E+02  0.27133576301E+03 -0.10634639586E+03  0.34778180153E+03  0.18800000000E+03 0.  0.
   -5000001    1    1    2    0    0 -0.25990945991E+02 -0.27133576301E+03  0.13173348336E+04  0.13583128099E+04  0.18800000000E+03 0.  0.
<mgrwt>
<rscale>  0 0.12017761E+04</rscale>
<asrwt>0</asrwt>
<pdfrwt beam="1">  1        1 0.20836308E+00 0.12017761E+04</pdfrwt>
<pdfrwt beam="2">  1       -1 0.35364726E-01 0.12017761E+04</pdfrwt>
<totfact> 0.62356475E+01</totfact>
</mgrwt>
</event>
<event>
 4    1  0.1545327E-005  0.2310919E+04  0.7818608E-02  0.8473628E-01
          1   -1    0    0  501    0  0.00000000000E+00  0.00000000000E+00  0.87180201508E+03  0.87180201509E+03  0.50400000000E-02 0. -1.
         -1   -1    0    0    0  501 -0.00000000000E+00 -0.00000000000E+00 -0.15314100354E+04  0.15314100354E+04  0.50400000000E-02 0.  1.
    5000001    1    1    2    0    0  0.10139045765E+04  0.37402423385E+03  0.47803362387E+02  0.10979643797E+04  0.18800000000E+03 0.  0.
   -5000001    1    1    2    0    0 -0.10139045765E+04 -0.37402423385E+03 -0.70741138271E+03  0.13052476708E+04  0.18800000000E+03 0.  0.
<mgrwt>
<rscale>  0 0.23109187E+04</rscale>
<asrwt>0</asrwt>
<pdfrwt beam="1">  1        1 0.12454314E+00 0.23109187E+04</pdfrwt>
<pdfrwt beam="2">  1       -1 0.21877286E+00 0.23109187E+04</pdfrwt>
<totfact> 0.22087584E+00</totfact>
</mgrwt>
</event>
<event>
 4    1  0.1545327E-005  0.5894854E+03  0.7818608E-02  0.9927464E-01
         -1   -1    0    0    0  501 -0.00000000000E+00  0.00000000000E+00  0.20230818094E+03  0.20230818100E+03  0.50400000000E-02 0.  1.
          1   -1    0    0  501    0  0.00000000000E+00 -0.00000000000E+00 -0.42941051347E+03  0.42941051350E+03  0.50400000000E-02 0. -1.
    5000001    1    1    2    0    0  0.18982172117E+03 -0.11908007984E+03 -0.15244032051E+03  0.32983996507E+03  0.18800000000E+03 0.  0.
   -5000001    1    1    2    0    0 -0.18982172117E+03  0.11908007984E+03 -0.74662012018E+02  0.30187872942E+03  0.18800000000E+03 0.  0.
<mgrwt>
<rscale>  0 0.58948540E+03</rscale>
<asrwt>0</asrwt>
<pdfrwt beam="1">  1        1 0.61344359E-01 0.58948540E+03</pdfrwt>
<pdfrwt beam="2">  1       -1 0.28901169E-01 0.58948540E+03</pdfrwt>
<totfact> 0.66116935E+02</totfact>
</mgrwt>
</event>
<event>
 4    1  0.1545327E-005  0.5305624E+03  0.7818608E-02  0.1006096E+00
         -1   -1    0    0    0  501 -0.00000000000E+00  0.00000000000E+00  0.18798763819E+03  0.18798763826E+03  0.50400000000E-02 0. -1.
          1   -1    0    0  501    0  0.00000000000E+00 -0.00000000000E+00 -0.37435505283E+03  0.37435505287E+03  0.50400000000E-02 0.  1.
    5000001    1    1    2    0    0 -0.17684768151E+03 -0.10376833940E+02 -0.15719443362E+03  0.30238530238E+03  0.18800000000E+03 0.  0.
   -5000001    1    1    2    0    0  0.17684768151E+03  0.10376833940E+02 -0.29172981024E+02  0.25995738874E+03  0.18800000000E+03 0.  0.
<mgrwt>
<rscale>  0 0.53056243E+03</rscale>
<asrwt>0</asrwt>
<pdfrwt beam="1">  1        1 0.53479293E-01 0.53056243E+03</pdfrwt>
<pdfrwt beam="2">  1       -1 0.26855377E-01 0.53056243E+03</pdfrwt>
<totfact> 0.89794025E+02</totfact>
</mgrwt>
</event>
<event>
 4    1  0.1545327E-005  0.6338746E+03  0.7818608E-02  0.9837517E-01
         -1   -1    0    0    0  501 -0.00000000000E+00  0.00000000000E+00  0.10978749345E+03  0.10978749357E+03  0.50400000000E-02 0. -1.
          1   -1    0    0  501    0  0.00000000000E+00 -0.00000000000E+00 -0.91494254081E+03  0.91494254082E+03  0.50400000000E-02 0.  1.
    5000001    1    1    2    0    0  0.10965662560E+02  0.24957515741E+03 -0.31861873048E+03  0.44639657297E+03  0.18800000000E+03 0.  0.
   -5000001    1    1    2    0    0 -0.10965662560E+02 -0.24957515741E+03 -0.48653631688E+03  0.57833346142E+03  0.18800000000E+03 0.  0.
<mgrwt>
<rscale>  0 0.63387459E+03</rscale>
<asrwt>0</asrwt>
<pdfrwt beam="1">  1        1 0.13070607E+00 0.63387459E+03</pdfrwt>
<pdfrwt beam="2">  1       -1 0.15683928E-01 0.63387459E+03</pdfrwt>
<totfact> 0.61928382E+02</totfact>
</mgrwt>
</event>
<event>
 4    1  0.1545327E-005  0.8483628E+03  0.7818608E-02  0.9492537E-01
         -1   -1    0    0    0  501 -0.00000000000E+00  0.00000000000E+00  0.12481291949E+03  0.12481291959E+03  0.50400000000E-02 0.  1.
          1   -1    0    0  501    0  0.00000000000E+00 -0.00000000000E+00 -0.14415963401E+04  0.14415963401E+04  0.50400000000E-02 0. -1.
    5000001    1    1    2    0    0 -0.18343444209E+03  0.61158578524E+02 -0.12629184645E+04  0.12913928970E+04  0.18800000000E+03 0.  0.
   -5000001    1    1    2    0    0  0.18343444209E+03 -0.61158578524E+02 -0.53864956068E+02  0.27501636272E+03  0.18800000000E+03 0.  0.
<mgrwt>
<rscale>  0 0.84836277E+03</rscale>
<asrwt>0</asrwt>
<pdfrwt beam="1">  1        1 0.20594232E+00 0.84836277E+03</pdfrwt>
<pdfrwt beam="2">  1       -1 0.17830418E-01 0.84836277E+03</pdfrwt>
<totfact> 0.21224194E+02</totfact>
</mgrwt>
</event>
<event>
 4    1  0.1545327E-005  0.5610343E+03  0.7818608E-02  0.9989717E-01
          1   -1    0    0  501    0  0.00000000000E+00  0.00000000000E+00  0.23471244621E+03  0.23471244626E+03  0.50400000000E-02 0.  1.
         -1   -1    0    0    0  501 -0.00000000000E+00 -0.00000000000E+00 -0.33526075978E+03  0.33526075982E+03  0.50400000000E-02 0. -1.
    5000001    1    1    2    0    0 -0.18314148643E+03  0.23057308269E+02 -0.14810712069E+03  0.30224520297E+03  0.18800000000E+03 0.  0.
   -5000001    1    1    2    0    0  0.18314148643E+03 -0.23057308269E+02  0.47558807120E+02  0.26772800311E+03  0.18800000000E+03 0.  0.
<mgrwt>
<rscale>  0 0.56103431E+03</rscale>
<asrwt>0</asrwt>
<pdfrwt beam="1">  1        1 0.33530350E-01 0.56103431E+03</pdfrwt>
<pdfrwt beam="2">  1       -1 0.47894394E-01 0.56103431E+03</pdfrwt>
<totfact> 0.58443255E+02</totfact>
</mgrwt>
</event>
<event>
 4    1  0.1545327E-005  0.6484687E+03  0.7818608E-02  0.9809657E-01
          1   -1    0    0  501    0  0.00000000000E+00  0.00000000000E+00  0.62600818958E+03  0.62600818960E+03  0.50400000000E-02 0.  1.
         -1   -1    0    0    0  501 -0.00000000000E+00 -0.00000000000E+00 -0.16793376862E+03  0.16793376870E+03  0.50400000000E-02 0. -1.
    5000001    1    1    2    0    0 -0.16045811553E+03  0.20538098295E+03  0.17629472638E+03  0.36654056467E+03  0.18800000000E+03 0.  0.
   -5000001    1    1    2    0    0  0.16045811553E+03 -0.20538098295E+03  0.28177969458E+03  0.42740139363E+03  0.18800000000E+03 0.  0.
<mgrwt>
<rscale>  0 0.64846870E+03</rscale>
<asrwt>0</asrwt>
<pdfrwt beam="1">  1        1 0.89429743E-01 0.64846870E+03</pdfrwt>
<pdfrwt beam="2">  1       -1 0.23990538E-01 0.64846870E+03</pdfrwt>
<totfact> 0.54338357E+02</totfact>
</mgrwt>
</event>
<event>
 4    1  0.1545327E-005  0.5309524E+03  0.7818608E-02  0.1006001E+00
         -1   -1    0    0    0  501 -0.00000000000E+00  0.00000000000E+00  0.70509916655E+02  0.70509916835E+02  0.50400000000E-02 0. -1.
          1   -1    0    0  501    0  0.00000000000E+00 -0.00000000000E+00 -0.99954186346E+03  0.99954186347E+03  0.50400000000E-02 0.  1.
    5000001    1    1    2    0    0 -0.94941309528E+01  0.18714555591E+03 -0.47353246388E+03  0.54285411665E+03  0.18800000000E+03 0.  0.
   -5000001    1    1    2    0    0  0.94941309528E+01 -0.18714555591E+03 -0.45549948292E+03  0.52719766365E+03  0.18800000000E+03 0.  0.
<mgrwt>
<rscale>  0 0.53095240E+03</rscale>
<asrwt>0</asrwt>
<pdfrwt beam="1">  1        1 0.14279169E+00 0.53095240E+03</pdfrwt>
<pdfrwt beam="2">  1       -1 0.10072846E-01 0.53095240E+03</pdfrwt>
<totfact> 0.10886948E+03</totfact>
</mgrwt>
</event>
<event>
 4    1  0.1545327E-005  0.5907325E+03  0.7818608E-02  0.9924822E-01
         -1   -1    0    0    0  501 -0.00000000000E+00  0.00000000000E+00  0.96976159867E+03  0.96976159869E+03  0.50400000000E-02 0. -1.
          1   -1    0    0  501    0  0.00000000000E+00 -0.00000000000E+00 -0.89961520322E+02  0.89961520463E+02  0.50400000000E-02 0.  1.
    5000001    1    1    2    0    0 -0.14491173428E+03 -0.15744092390E+02  0.75396273041E+03  0.79060172402E+03  0.18800000000E+03 0.  0.
   -5000001    1    1    2    0    0  0.14491173428E+03  0.15744092390E+02  0.12583734794E+03  0.26912139513E+03  0.18800000000E+03 0.  0.
<mgrwt>
<rscale>  0 0.59073252E+03</rscale>
<asrwt>0</asrwt>
<pdfrwt beam="1">  1        1 0.12851646E-01 0.59073252E+03</pdfrwt>
<pdfrwt beam="2">  1       -1 0.13853737E+00 0.59073252E+03</pdfrwt>
<totfact> 0.20929505E+02</totfact>
</mgrwt>
</event>
<event>
 4    1  0.1545327E-005  0.6243116E+03  0.7818608E-02  0.9856213E-01
          1   -1    0    0  501    0  0.00000000000E+00  0.00000000000E+00  0.26455171292E+03  0.26455171297E+03  0.50400000000E-02 0.  1.
         -1   -1    0    0    0  501 -0.00000000000E+00 -0.00000000000E+00 -0.36832585080E+03  0.36832585084E+03  0.50400000000E-02 0. -1.
    5000001    1    1    2    0    0  0.11065452242E+03 -0.12162341068E+03  0.13792670452E+03  0.28531465644E+03  0.18800000000E+03 0.  0.
   -5000001    1    1    2    0    0 -0.11065452242E+03  0.12162341068E+03 -0.24170084241E+03  0.34756290737E+03  0.18800000000E+03 0.  0.
<mgrwt>
<rscale>  0 0.62431157E+03</rscale>
<asrwt>0</asrwt>
<pdfrwt beam="1">  1        1 0.37793102E-01 0.62431157E+03</pdfrwt>
<pdfrwt beam="2">  1       -1 0.52617978E-01 0.62431157E+03</pdfrwt>
<totfact> 0.41889684E+02</totfact>
</mgrwt>
</event>
<event>
 4    1  0.1545327E-005  0.7260316E+03  0.7818608E-02  0.9673722E-01
          1   -1    0    0  501    0  0.00000000000E+00  0.00000000000E+00  0.10249393442E+04  0.10249393442E+04  0.50400000000E-02 0. -1.
         -1   -1    0    0    0  501 -0.00000000000E+00 -0.00000000000E+00 -0.12857391952E+03  0.12857391962E+03  0.50400000000E-02 0.  1.
    5000001    1    1    2    0    0  0.43576651378E+01 -0.30968117450E+03  0.48423988382E+03  0.60477573047E+03  0.18800000000E+03 0.  0.
   -5000001    1    1    2    0    0 -0.43576651378E+01  0.30968117450E+03  0.41212554081E+03  0.54873753332E+03  0.18800000000E+03 0.  0.
<mgrwt>
<rscale>  0 0.72603159E+03</rscale>
<asrwt>0</asrwt>
<pdfrwt beam="1">  1        1 0.14641991E+00 0.72603159E+03</pdfrwt>
<pdfrwt beam="2">  1       -1 0.18367703E-01 0.72603159E+03</pdfrwt>
<totfact> 0.39340823E+02</totfact>
</mgrwt>
</event>
<event>
 4    1  0.1545327E-005  0.7383154E+03  0.7818608E-02  0.9653862E-01
         -1   -1    0    0    0  501 -0.00000000000E+00  0.00000000000E+00  0.11308455840E+04  0.11308455840E+04  0.50400000000E-02 0. -1.
          1   -1    0    0  501    0  0.00000000000E+00 -0.00000000000E+00 -0.12050931308E+03  0.12050931319E+03  0.50400000000E-02 0.  1.
    5000001    1    1    2    0    0  0.23330686200E+02  0.30174031052E+03  0.66898397319E+03  0.75794135149E+03  0.18800000000E+03 0.  0.
   -5000001    1    1    2    0    0 -0.23330686200E+02 -0.30174031052E+03  0.34135229771E+03  0.49341354568E+03  0.18800000000E+03 0.  0.
<mgrwt>
<rscale>  0 0.73831545E+03</rscale>
<asrwt>0</asrwt>
<pdfrwt beam="1">  1        1 0.17215617E-01 0.73831545E+03</pdfrwt>
<pdfrwt beam="2">  1       -1 0.16154936E+00 0.73831545E+03</pdfrwt>
<totfact> 0.92828560E+01</totfact>
</mgrwt>
</event>
<event>
 4    1  0.1545327E-005  0.5682910E+03  0.7818608E-02  0.9973468E-01
         -1   -1    0    0    0  501 -0.00000000000E+00  0.00000000000E+00  0.15853399872E+03  0.15853399880E+03  0.50400000000E-02 0. -1.
          1   -1    0    0  501    0  0.00000000000E+00 -0.00000000000E+00 -0.50928297974E+03  0.50928297976E+03  0.50400000000E-02 0.  1.
    5000001    1    1    2    0    0  0.68204932595E+01  0.18500180156E+03 -0.29930764960E+03  0.39900031932E+03  0.18800000000E+03 0.  0.
   -5000001    1    1    2    0    0 -0.68204932595E+01 -0.18500180156E+03 -0.51441331412E+02  0.26881665924E+03  0.18800000000E+03 0.  0.
<mgrwt>
<rscale>  0 0.56829101E+03</rscale>
<asrwt>0</asrwt>
<pdfrwt beam="1">  1        1 0.72754711E-01 0.56829101E+03</pdfrwt>
<pdfrwt beam="2">  1       -1 0.22647714E-01 0.56829101E+03</pdfrwt>
<totfact> 0.79791614E+02</totfact>
</mgrwt>
</event>
<event>
 4    1  0.1545327E-005  0.6749468E+03  0.7818608E-02  0.9761062E-01
         -1   -1    0    0    0  501 -0.00000000000E+00  0.00000000000E+00  0.56187467784E+03  0.56187467787E+03  0.50400000000E-02 0. -1.
          1   -1    0    0  501    0  0.00000000000E+00 -0.00000000000E+00 -0.20269341702E+03  0.20269341708E+03  0.50400000000E-02 0.  1.
    5000001    1    1    2    0    0 -0.21282823126E+02 -0.25952555547E+03  0.62207739043E+02  0.32713953491E+03  0.18800000000E+03 0.  0.
   -5000001    1    1    2    0    0  0.21282823126E+02  0.25952555547E+03  0.29697352178E+03  0.43742856004E+03  0.18800000000E+03 0.  0.
<mgrwt>
<rscale>  0 0.67494681E+03</rscale>
<asrwt>0</asrwt>
<pdfrwt beam="1">  1        1 0.28956202E-01 0.67494681E+03</pdfrwt>
<pdfrwt beam="2">  1       -1 0.80267812E-01 0.67494681E+03</pdfrwt>
<totfact> 0.25287214E+02</totfact>
</mgrwt>
</event>
<event>
 4    1  0.1545327E-005  0.4982117E+03  0.7818608E-02  0.1014247E+00
         -1   -1    0    0    0  501 -0.00000000000E+00  0.00000000000E+00  0.12233866989E+03  0.12233866999E+03  0.50400000000E-02 0.  1.
          1   -1    0    0  501    0  0.00000000000E+00 -0.00000000000E+00 -0.50722896839E+03  0.50722896842E+03  0.50400000000E-02 0. -1.
    5000001    1    1    2    0    0  0.14018581758E+03  0.97907293434E+01 -0.87009098470E+02  0.25032479911E+03  0.18800000000E+03 0.  0.
   -5000001    1    1    2    0    0 -0.14018581758E+03 -0.97907293434E+01 -0.29788120003E+03  0.37924283931E+03  0.18800000000E+03 0.  0.
<mgrwt>
<rscale>  0 0.49821167E+03</rscale>
<asrwt>0</asrwt>
<pdfrwt beam="1">  1        1 0.72461280E-01 0.49821167E+03</pdfrwt>
<pdfrwt beam="2">  1       -1 0.17476953E-01 0.49821167E+03</pdfrwt>
<totfact> 0.12326843E+03</totfact>
</mgrwt>
</event>
<event>
 4    1  0.1545327E-005  0.8829834E+03  0.7818608E-02  0.9447107E-01
          1   -1    0    0  501    0  0.00000000000E+00  0.00000000000E+00  0.14983479647E+04  0.14983479647E+04  0.50400000000E-02 0. -1.
         -1   -1    0    0    0  501 -0.00000000000E+00 -0.00000000000E+00 -0.13008655078E+03  0.13008655088E+03  0.50400000000E-02 0.  1.
    5000001    1    1    2    0    0 -0.28863536489E+03 -0.27269710998E+03  0.60380915622E+03  0.74672858844E+03  0.18800000000E+03 0.  0.
   -5000001    1    1    2    0    0  0.28863536489E+03  0.27269710998E+03  0.76445225768E+03  0.88170592712E+03  0.18800000000E+03 0.  0.
<mgrwt>
<rscale>  0 0.88298339E+03</rscale>
<asrwt>0</asrwt>
<pdfrwt beam="1">  1        1 0.21404971E+00 0.88298339E+03</pdfrwt>
<pdfrwt beam="2">  1       -1 0.18583793E-01 0.88298339E+03</pdfrwt>
<totfact> 0.18161941E+02</totfact>
</mgrwt>
</event>
<event>
 4    1  0.1545327E-005  0.5859870E+03  0.7818608E-02  0.9934913E-01
          1   -1    0    0  501    0  0.00000000000E+00  0.00000000000E+00  0.15740716704E+03  0.15740716712E+03  0.50400000000E-02 0.  1.
         -1   -1    0    0    0  501 -0.00000000000E+00 -0.00000000000E+00 -0.54537019076E+03  0.54537019078E+03  0.50400000000E-02 0. -1.
    5000001    1    1    2    0    0 -0.18523070245E+03 -0.11911001597E+03 -0.24766390007E+03  0.38102364288E+03  0.18800000000E+03 0.  0.
   -5000001    1    1    2    0    0  0.18523070245E+03  0.11911001597E+03 -0.14029912365E+03  0.32175371503E+03  0.18800000000E+03 0.  0.
<mgrwt>
<rscale>  0 0.58598695E+03</rscale>
<asrwt>0</asrwt>
<pdfrwt beam="1">  1        1 0.22486738E-01 0.58598695E+03</pdfrwt>
<pdfrwt beam="2">  1       -1 0.77910026E-01 0.58598695E+03</pdfrwt>
<totfact> 0.37557479E+02</totfact>
</mgrwt>
</event>
<event>
 4    1  0.1545327E-005  0.6001049E+03  0.7818608E-02  0.9905188E-01
         -1   -1    0    0    0  501 -0.00000000000E+00  0.00000000000E+00  0.84085997386E+02  0.84085997537E+02  0.50400000000E-02 0. -1.
          1   -1    0    0  501    0  0.00000000000E+00 -0.00000000000E+00 -0.10707071394E+04  0.10707071394E+04  0.50400000000E-02 0.  1.
    5000001    1    1    2    0    0 -0.22793249732E+03  0.37647790182E+02 -0.42347878660E+03  0.51773435480E+03  0.18800000000E+03 0.  0.
   -5000001    1    1    2    0    0  0.22793249732E+03 -0.37647790182E+02 -0.56314235537E+03  0.63705878210E+03  0.18800000000E+03 0.  0.
<mgrwt>
<rscale>  0 0.60010492E+03</rscale>
<asrwt>0</asrwt>
<pdfrwt beam="1">  1        1 0.15295816E+00 0.60010492E+03</pdfrwt>
<pdfrwt beam="2">  1       -1 0.12012286E-01 0.60010492E+03</pdfrwt>
<totfact> 0.72966527E+02</totfact>
</mgrwt>
</event>
<event>
 4    1  0.1545327E-005  0.9763480E+03  0.7818608E-02  0.9334873E-01
          1   -1    0    0  501    0  0.00000000000E+00  0.00000000000E+00  0.39573909355E+03  0.39573909358E+03  0.50400000000E-02 0.  1.
         -1   -1    0    0    0  501 -0.00000000000E+00 -0.00000000000E+00 -0.60219938357E+03  0.60219938359E+03  0.50400000000E-02 0. -1.
    5000001    1    1    2    0    0 -0.47577745653E+02  0.11544813888E+03  0.33921389834E+03  0.40743340987E+03  0.18800000000E+03 0.  0.
   -5000001    1    1    2    0    0  0.47577745653E+02 -0.11544813888E+03 -0.54567418837E+03  0.59050506730E+03  0.18800000000E+03 0.  0.
<mgrwt>
<rscale>  0 0.97634797E+03</rscale>
<asrwt>0</asrwt>
<pdfrwt beam="1">  1        1 0.56534156E-01 0.97634797E+03</pdfrwt>
<pdfrwt beam="2">  1       -1 0.86028484E-01 0.97634797E+03</pdfrwt>
<totfact> 0.89974716E+01</totfact>
</mgrwt>
</event>
<event>
 4    1  0.1545327E-005  0.6042048E+03  0.7818608E-02  0.9896721E-01
         -1   -1    0    0    0  501 -0.00000000000E+00  0.00000000000E+00  0.48542963492E+02  0.48542963753E+02  0.50400000000E-02 0. -1.
          1   -1    0    0  501    0  0.00000000000E+00 -0.00000000000E+00 -0.18801045693E+04  0.18801045693E+04  0.50400000000E-02 0.  1.
    5000001    1    1    2    0    0 -0.14108824022E+03  0.18977826421E+03 -0.91447778328E+03  0.96308633944E+03  0.18800000000E+03 0.  0.
   -5000001    1    1    2    0    0  0.14108824022E+03 -0.18977826421E+03 -0.91708382254E+03  0.96556119363E+03  0.18800000000E+03 0.  0.
<mgrwt>
<rscale>  0 0.60420476E+03</rscale>
<asrwt>0</asrwt>
<pdfrwt beam="1">  1        1 0.26858632E+00 0.60420476E+03</pdfrwt>
<pdfrwt beam="2">  1       -1 0.69347103E-02 0.60420476E+03</pdfrwt>
<totfact> 0.51317959E+02</totfact>
</mgrwt>
</event>
<event>
 4    1  0.1545327E-005  0.5882063E+03  0.7818608E-02  0.9930181E-01
         -1   -1    0    0    0  501 -0.00000000000E+00  0.00000000000E+00  0.15961364661E+03  0.15961364669E+03  0.50400000000E-02 0. -1.
          1   -1    0    0  501    0  0.00000000000E+00 -0.00000000000E+00 -0.54191265391E+03  0.54191265394E+03  0.50400000000E-02 0.  1.
    5000001    1    1    2    0    0  0.48080290570E+02 -0.21822739205E+03 -0.14953040773E+03  0.32808269052E+03  0.18800000000E+03 0.  0.
   -5000001    1    1    2    0    0 -0.48080290570E+02  0.21822739205E+03 -0.23276859957E+03  0.37344361010E+03  0.18800000000E+03 0.  0.
<mgrwt>
<rscale>  0 0.58820627E+03</rscale>
<asrwt>0</asrwt>
<pdfrwt beam="1">  1        1 0.77416092E-01 0.58820627E+03</pdfrwt>
<pdfrwt beam="2">  1       -1 0.22801950E-01 0.58820627E+03</pdfrwt>
<totfact> 0.72481607E+02</totfact>
</mgrwt>
</event>
<event>
 4    1  0.1545327E-005  0.5050329E+03  0.7818608E-02  0.1012474E+00
         -1   -1    0    0    0  501 -0.00000000000E+00  0.00000000000E+00  0.52246550393E+03  0.52246550396E+03  0.50400000000E-02 0.  1.
          1   -1    0    0  501    0  0.00000000000E+00 -0.00000000000E+00 -0.12204550753E+03  0.12204550764E+03  0.50400000000E-02 0. -1.
    5000001    1    1    2    0    0  0.47701993800E+02  0.28564654201E+02  0.40331514410E+03  0.44844010207E+03  0.18800000000E+03 0.  0.
   -5000001    1    1    2    0    0 -0.47701993800E+02 -0.28564654201E+02 -0.28951477034E+01  0.19607090953E+03  0.18800000000E+03 0.  0.
<mgrwt>
<rscale>  0 0.50503294E+03</rscale>
<asrwt>0</asrwt>
<pdfrwt beam="1">  1        1 0.17435072E-01 0.50503294E+03</pdfrwt>
<pdfrwt beam="2">  1       -1 0.74637930E-01 0.50503294E+03</pdfrwt>
<totfact> 0.57521196E+02</totfact>
</mgrwt>
</event>
<event>
 4    1  0.1545327E-005  0.6202451E+03  0.7818608E-02  0.9864272E-01
         -1   -1    0    0    0  501 -0.00000000000E+00  0.00000000000E+00  0.10601457364E+03  0.10601457376E+03  0.50400000000E-02 0. -1.
          1   -1    0    0  501    0  0.00000000000E+00 -0.00000000000E+00 -0.90719600137E+03  0.90719600138E+03  0.50400000000E-02 0.  1.
    5000001    1    1    2    0    0 -0.12071233603E+03 -0.16664118818E+02 -0.50295464532E+02  0.22961444789E+03  0.18800000000E+03 0.  0.
   -5000001    1    1    2    0    0  0.12071233603E+03  0.16664118818E+02 -0.75088596320E+03  0.78359612726E+03  0.18800000000E+03 0.  0.
<mgrwt>
<rscale>  0 0.62024510E+03</rscale>
<asrwt>0</asrwt>
<pdfrwt beam="1">  1        1 0.12959942E+00 0.62024510E+03</pdfrwt>
<pdfrwt beam="2">  1       -1 0.15144940E-01 0.62024510E+03</pdfrwt>
<totfact> 0.66493343E+02</totfact>
</mgrwt>
</event>
<event>
 4    1  0.1545327E-005  0.5631767E+03  0.7818608E-02  0.9984892E-01
          1   -1    0    0  501    0  0.00000000000E+00  0.00000000000E+00  0.37062941946E+02  0.37062942288E+02  0.50400000000E-02 0.  1.
         -1   -1    0    0    0  501 -0.00000000000E+00 -0.00000000000E+00 -0.21393873671E+04  0.21393873671E+04  0.50400000000E-02 0. -1.
    5000001    1    1    2    0    0  0.43237021135E+02  0.20138116793E+03 -0.90028572286E+03  0.94248724001E+03  0.18800000000E+03 0.  0.
   -5000001    1    1    2    0    0 -0.43237021135E+02 -0.20138116793E+03 -0.12020387023E+04  0.12339630694E+04  0.18800000000E+03 0.  0.
<mgrwt>
<rscale>  0 0.56317667E+03</rscale>
<asrwt>0</asrwt>
<pdfrwt beam="1">  1        1 0.52947074E-02 0.56317667E+03</pdfrwt>
<pdfrwt beam="2">  1       -1 0.30562669E+00 0.56317667E+03</pdfrwt>
<totfact> 0.52687962E+01</totfact>
</mgrwt>
</event>
<event>
 4    1  0.1545327E-005  0.4891594E+03  0.7818608E-02  0.1016648E+00
          1   -1    0    0  501    0  0.00000000000E+00  0.00000000000E+00  0.10607081652E+03  0.10607081664E+03  0.50400000000E-02 0.  1.
         -1   -1    0    0    0  501 -0.00000000000E+00 -0.00000000000E+00 -0.56395552911E+03  0.56395552913E+03  0.50400000000E-02 0. -1.
    5000001    1    1    2    0    0 -0.28964534056E+02 -0.15182539502E+03 -0.19580320310E+03  0.31236643409E+03  0.18800000000E+03 0.  0.
   -5000001    1    1    2    0    0  0.28964534056E+02  0.15182539502E+03 -0.26208150949E+03  0.35765991168E+03  0.18800000000E+03 0.  0.
<mgrwt>
<rscale>  0 0.48915937E+03</rscale>
<asrwt>0</asrwt>
<pdfrwt beam="1">  1        1 0.15152974E-01 0.48915937E+03</pdfrwt>
<pdfrwt beam="2">  1       -1 0.80565074E-01 0.48915937E+03</pdfrwt>
<totfact> 0.59121392E+02</totfact>
</mgrwt>
</event>
<event>
 4    1  0.1545327E-005  0.4816190E+03  0.7818608E-02  0.1018691E+00
          1   -1    0    0  501    0  0.00000000000E+00  0.00000000000E+00  0.10147925387E+04  0.10147925387E+04  0.50400000000E-02 0.  1.
         -1   -1    0    0    0  501 -0.00000000000E+00 -0.00000000000E+00 -0.57143917159E+02  0.57143917381E+02  0.50400000000E-02 0. -1.
    5000001    1    1    2    0    0 -0.11274627474E+03 -0.74115766655E+02  0.62713555789E+03  0.66846681092E+03  0.18800000000E+03 0.  0.
   -5000001    1    1    2    0    0  0.11274627474E+03  0.74115766655E+02  0.33051306367E+03  0.40346964519E+03  0.18800000000E+03 0.  0.
<mgrwt>
<rscale>  0 0.48161902E+03</rscale>
<asrwt>0</asrwt>
<pdfrwt beam="1">  1        1 0.14497035E+00 0.48161902E+03</pdfrwt>
<pdfrwt beam="2">  1       -1 0.81634174E-02 0.48161902E+03</pdfrwt>
<totfact> 0.14752627E+03</totfact>
</mgrwt>
</event>
<event>
 4    1  0.1545327E-005  0.6709939E+03  0.7818608E-02  0.9768164E-01
          1   -1    0    0  501    0  0.00000000000E+00  0.00000000000E+00  0.22693821793E+04  0.22693821793E+04  0.50400000000E-02 0.  1.
         -1   -1    0    0    0  501 -0.00000000000E+00 -0.00000000000E+00 -0.49598611148E+02  0.49598611404E+02  0.50400000000E-02 0. -1.
    5000001    1    1    2    0    0  0.67440405323E+02  0.18102259616E+03  0.18002073967E+04  0.18202769184E+04  0.18800000000E+03 0.  0.
   -5000001    1    1    2    0    0 -0.67440405323E+02 -0.18102259616E+03  0.41957617147E+03  0.49870387231E+03  0.18800000000E+03 0.  0.
<mgrwt>
<rscale>  0 0.67099390E+03</rscale>
<asrwt>0</asrwt>
<pdfrwt beam="1">  1        1 0.32419744E+00 0.67099390E+03</pdfrwt>
<pdfrwt beam="2">  1       -1 0.70855162E-02 0.67099390E+03</pdfrwt>
<totfact> 0.28362925E+02</totfact>
</mgrwt>
</event>
<event>
 4    1  0.1545327E-005  0.6521749E+03  0.7818608E-02  0.9802707E-01
         -1   -1    0    0    0  501 -0.00000000000E+00  0.00000000000E+00  0.10932448461E+03  0.10932448473E+03  0.50400000000E-02 0. -1.
          1   -1    0    0  501    0  0.00000000000E+00 -0.00000000000E+00 -0.97263689236E+03  0.97263689237E+03  0.50400000000E-02 0.  1.
    5000001    1    1    2    0    0  0.11335344837E+03  0.22453857356E+03 -0.28586702966E+03  0.42465342801E+03  0.18800000000E+03 0.  0.
   -5000001    1    1    2    0    0 -0.11335344837E+03 -0.22453857356E+03 -0.57744537809E+03  0.65730794910E+03  0.18800000000E+03 0.  0.
<mgrwt>
<rscale>  0 0.65217491E+03</rscale>
<asrwt>0</asrwt>
<pdfrwt beam="1">  1        1 0.13894812E+00 0.65217491E+03</pdfrwt>
<pdfrwt beam="2">  1       -1 0.15617784E-01 0.65217491E+03</pdfrwt>
<totfact> 0.56309812E+02</totfact>
</mgrwt>
</event>
<event>
 4    1  0.1545327E-005  0.4929204E+03  0.7818608E-02  0.1015643E+00
         -1   -1    0    0    0  501 -0.00000000000E+00  0.00000000000E+00  0.25077937812E+03  0.25077937817E+03  0.50400000000E-02 0. -1.
          1   -1    0    0  501    0  0.00000000000E+00 -0.00000000000E+00 -0.24221537219E+03  0.24221537224E+03  0.50400000000E-02 0.  1.
    5000001    1    1    2    0    0 -0.69477956193E+02 -0.13541773916E+03 -0.42984731078E+02  0.24567628616E+03  0.18800000000E+03 0.  0.
   -5000001    1    1    2    0    0  0.69477956193E+02  0.13541773916E+03  0.51548737011E+02  0.24731846426E+03  0.18800000000E+03 0.  0.
<mgrwt>
<rscale>  0 0.49292036E+03</rscale>
<asrwt>0</asrwt>
<pdfrwt beam="1">  1        1 0.34602196E-01 0.49292036E+03</pdfrwt>
<pdfrwt beam="2">  1       -1 0.35825626E-01 0.49292036E+03</pdfrwt>
<totfact> 0.95209042E+02</totfact>
</mgrwt>
</event>
<event>
 4    1  0.1545327E-005  0.5759852E+03  0.7818608E-02  0.9956521E-01
         -1   -1    0    0    0  501 -0.00000000000E+00  0.00000000000E+00  0.31088364761E+03  0.31088364765E+03  0.50400000000E-02 0. -1.
          1   -1    0    0  501    0  0.00000000000E+00 -0.00000000000E+00 -0.26678708367E+03  0.26678708372E+03  0.50400000000E-02 0.  1.
    5000001    1    1    2    0    0  0.18648979822E+03  0.42023673243E+02  0.12748111248E+03  0.29688359334E+03  0.18800000000E+03 0.  0.
   -5000001    1    1    2    0    0 -0.18648979822E+03 -0.42023673243E+02 -0.83384548535E+02  0.28078713804E+03  0.18800000000E+03 0.  0.
<mgrwt>
<rscale>  0 0.57598521E+03</rscale>
<asrwt>0</asrwt>
<pdfrwt beam="1">  1        1 0.38112440E-01 0.57598521E+03</pdfrwt>
<pdfrwt beam="2">  1       -1 0.44411950E-01 0.57598521E+03</pdfrwt>
<totfact> 0.57001488E+02</totfact>
</mgrwt>
</event>
<event>
 4    1  0.1545327E-005  0.5561245E+03  0.7818608E-02  0.1000086E+00
          1   -1    0    0  501    0  0.00000000000E+00  0.00000000000E+00  0.10516103863E+04  0.10516103863E+04  0.50400000000E-02 0.  1.
         -1   -1    0    0    0  501 -0.00000000000E+00 -0.00000000000E+00 -0.73524003069E+02  0.73524003242E+02  0.50400000000E-02 0. -1.
    5000001    1    1    2    0    0  0.66188416685E+02  0.16646464354E+03  0.69017541654E+03  0.73741269968E+03  0.18800000000E+03 0.  0.
   -5000001    1    1    2    0    0 -0.66188416685E+02 -0.16646464354E+03  0.28791096665E+03  0.38772168984E+03  0.18800000000E+03 0.  0.
<mgrwt>
<rscale>  0 0.55612447E+03</rscale>
<asrwt>0</asrwt>
<pdfrwt beam="1">  1        1 0.15023006E+00 0.55612447E+03</pdfrwt>
<pdfrwt beam="2">  1       -1 0.10503428E-01 0.55612447E+03</pdfrwt>
<totfact> 0.93326578E+02</totfact>
</mgrwt>
</event>
<event>
 4    1  0.1545327E-005  0.6085960E+03  0.7818608E-02  0.9887731E-01
          1   -1    0    0  501    0  0.00000000000E+00  0.00000000000E+00  0.48020038397E+04  0.48020038397E+04  0.50400000000E-02 0.  1.
         -1   -1    0    0    0  501 -0.00000000000E+00 -0.00000000000E+00 -0.19283046844E+02  0.19283047502E+02  0.50400000000E-02 0. -1.
    5000001    1    1    2    0    0 -0.16283683236E+03  0.15923343022E+03  0.18101790247E+04  0.18341110165E+04  0.18800000000E+03 0.  0.
   -5000001    1    1    2    0    0  0.16283683236E+03 -0.15923343022E+03  0.29725417681E+04  0.29871758707E+04  0.18800000000E+03 0.  0.
<mgrwt>
<rscale>  0 0.60859598E+03</rscale>
<asrwt>0</asrwt>
<pdfrwt beam="1">  1        1 0.68600032E+00 0.60859598E+03</pdfrwt>
<pdfrwt beam="2">  1       -1 0.27547220E-02 0.60859598E+03</pdfrwt>
<totfact> 0.18759287E+01</totfact>
</mgrwt>
</event>
<event>
 4    1  0.1545327E-005  0.6348914E+03  0.7818608E-02  0.9835550E-01
          1   -1    0    0  501    0  0.00000000000E+00  0.00000000000E+00  0.13889108509E+04  0.13889108509E+04  0.50400000000E-02 0. -1.
         -1   -1    0    0    0  501 -0.00000000000E+00 -0.00000000000E+00 -0.72554532011E+02  0.72554532186E+02  0.50400000000E-02 0.  1.
    5000001    1    1    2    0    0 -0.41740748557E+02  0.23456394725E+03  0.44389925653E+03  0.53772956529E+03  0.18800000000E+03 0.  0.
   -5000001    1    1    2    0    0  0.41740748557E+02 -0.23456394725E+03  0.87245706239E+03  0.92373581784E+03  0.18800000000E+03 0.  0.
<mgrwt>
<rscale>  0 0.63489141E+03</rscale>
<asrwt>0</asrwt>
<pdfrwt beam="1">  1        1 0.19841585E+00 0.63489141E+03</pdfrwt>
<pdfrwt beam="2">  1       -1 0.10364933E-01 0.63489141E+03</pdfrwt>
<totfact> 0.55884103E+02</totfact>
</mgrwt>
</event>
<event>
 4    1  0.1545327E-005  0.4301559E+03  0.7818608E-02  0.1033811E+00
          1   -1    0    0  501    0  0.00000000000E+00  0.00000000000E+00  0.24622182070E+03  0.24622182076E+03  0.50400000000E-02 0. -1.
         -1   -1    0    0    0  501 -0.00000000000E+00 -0.00000000000E+00 -0.18787334957E+03  0.18787334964E+03  0.50400000000E-02 0.  1.
    5000001    1    1    2    0    0  0.70412415203E+02 -0.57419287567E+02 -0.22869702788E+02  0.21005215092E+03  0.18800000000E+03 0.  0.
   -5000001    1    1    2    0    0 -0.70412415203E+02  0.57419287567E+02  0.81218173923E+02  0.22404301947E+03  0.18800000000E+03 0.  0.
<mgrwt>
<rscale>  0 0.43015587E+03</rscale>
<asrwt>0</asrwt>
<pdfrwt beam="1">  1        1 0.35174546E-01 0.43015587E+03</pdfrwt>
<pdfrwt beam="2">  1       -1 0.26839050E-01 0.43015587E+03</pdfrwt>
<totfact> 0.15373620E+03</totfact>
</mgrwt>
</event>
<event>
 4    1  0.1545327E-005  0.8100321E+03  0.7818608E-02  0.9545609E-01
         -1   -1    0    0    0  501 -0.00000000000E+00  0.00000000000E+00  0.37929283201E+03  0.37929283204E+03  0.50400000000E-02 0. -1.
          1   -1    0    0  501    0  0.00000000000E+00 -0.00000000000E+00 -0.43248377921E+03  0.43248377924E+03  0.50400000000E-02 0.  1.
    5000001    1    1    2    0    0  0.31202889741E+03 -0.66680421236E+02 -0.19091715523E+03  0.41665533905E+03  0.18800000000E+03 0.  0.
   -5000001    1    1    2    0    0 -0.31202889741E+03  0.66680421236E+02  0.13772620802E+03  0.39512127224E+03  0.18800000000E+03 0.  0.
<mgrwt>
<rscale>  0 0.81003209E+03</rscale>
<asrwt>0</asrwt>
<pdfrwt beam="1">  1        1 0.61783397E-01 0.81003209E+03</pdfrwt>
<pdfrwt beam="2">  1       -1 0.54184690E-01 0.81003209E+03</pdfrwt>
<totfact> 0.20741960E+02</totfact>
</mgrwt>
</event>
<event>
 4    1  0.1545327E-005  0.4389886E+03  0.7818608E-02  0.1031058E+00
          1   -1    0    0  501    0  0.00000000000E+00  0.00000000000E+00  0.11200739378E+04  0.11200739378E+04  0.50400000000E-02 0.  1.
         -1   -1    0    0    0  501 -0.00000000000E+00 -0.00000000000E+00 -0.43013014442E+02  0.43013014737E+02  0.50400000000E-02 0. -1.
    5000001    1    1    2    0    0  0.13802037360E+02 -0.11049340152E+03  0.48330515827E+03  0.53040283185E+03  0.18800000000E+03 0.  0.
   -5000001    1    1    2    0    0 -0.13802037360E+02  0.11049340152E+03  0.59375576505E+03  0.63268412067E+03  0.18800000000E+03 0.  0.
<mgrwt>
<rscale>  0 0.43898864E+03</rscale>
<asrwt>0</asrwt>
<pdfrwt beam="1">  1        1 0.16001057E+00 0.43898864E+03</pdfrwt>
<pdfrwt beam="2">  1       -1 0.61447159E-02 0.43898864E+03</pdfrwt>
<totfact> 0.19245273E+03</totfact>
</mgrwt>
</event>
<event>
 4    1  0.1545327E-005  0.5952262E+03  0.7818608E-02  0.9915360E-01
          1   -1    0    0  501    0  0.00000000000E+00  0.00000000000E+00  0.14854453095E+03  0.14854453103E+03  0.50400000000E-02 0. -1.
         -1   -1    0    0    0  501 -0.00000000000E+00 -0.00000000000E+00 -0.59627608916E+03  0.59627608918E+03  0.50400000000E-02 0.  1.
    5000001    1    1    2    0    0 -0.20585673192E+03  0.72221882548E+02 -0.31781142158E+03  0.42888354373E+03  0.18800000000E+03 0.  0.
   -5000001    1    1    2    0    0  0.20585673192E+03 -0.72221882548E+02 -0.12992013662E+03  0.31593707648E+03  0.18800000000E+03 0.  0.
<mgrwt>
<rscale>  0 0.59522618E+03</rscale>
<asrwt>0</asrwt>
<pdfrwt beam="1">  1        1 0.21220648E-01 0.59522618E+03</pdfrwt>
<pdfrwt beam="2">  1       -1 0.85182297E-01 0.59522618E+03</pdfrwt>
<totfact> 0.33518899E+02</totfact>
</mgrwt>
</event>
<event>
 4    1  0.1545327E-005  0.4976869E+03  0.7818608E-02  0.1014384E+00
         -1   -1    0    0    0  501 -0.00000000000E+00  0.00000000000E+00  0.20863835290E+03  0.20863835296E+03  0.50400000000E-02 0. -1.
          1   -1    0    0  501    0  0.00000000000E+00 -0.00000000000E+00 -0.29679619682E+03  0.29679619686E+03  0.50400000000E-02 0.  1.
    5000001    1    1    2    0    0 -0.34200937990E+02  0.12122911843E+03 -0.14919315720E+03  0.27105128937E+03  0.18800000000E+03 0.  0.
   -5000001    1    1    2    0    0  0.34200937990E+02 -0.12122911843E+03  0.61035313273E+02  0.23438326045E+03  0.18800000000E+03 0.  0.
<mgrwt>
<rscale>  0 0.49768693E+03</rscale>
<asrwt>0</asrwt>
<pdfrwt beam="1">  1        1 0.42399456E-01 0.49768693E+03</pdfrwt>
<pdfrwt beam="2">  1       -1 0.29805479E-01 0.49768693E+03</pdfrwt>
<totfact> 0.10124638E+03</totfact>
</mgrwt>
</event>
<event>
 4    1  0.1545327E-005  0.6478057E+03  0.7818608E-02  0.9810905E-01
         -1   -1    0    0    0  501 -0.00000000000E+00  0.00000000000E+00  0.15887001821E+03  0.15887001829E+03  0.50400000000E-02 0. -1.
          1   -1    0    0  501    0  0.00000000000E+00 -0.00000000000E+00 -0.66037045880E+03  0.66037045882E+03  0.50400000000E-02 0.  1.
    5000001    1    1    2    0    0 -0.21111182522E+03  0.15808389151E+03 -0.24668221800E+03  0.40712999912E+03  0.18800000000E+03 0.  0.
   -5000001    1    1    2    0    0  0.21111182522E+03 -0.15808389151E+03 -0.25481822259E+03  0.41211047799E+03  0.18800000000E+03 0.  0.
<mgrwt>
<rscale>  0 0.64780573E+03</rscale>
<asrwt>0</asrwt>
<pdfrwt beam="1">  1        1 0.94338635E-01 0.64780573E+03</pdfrwt>
<pdfrwt beam="2">  1       -1 0.22695717E-01 0.64780573E+03</pdfrwt>
<totfact> 0.55282045E+02</totfact>
</mgrwt>
</event>
<event>
 4    1  0.1545327E-005  0.9830038E+03  0.7818608E-02  0.9327385E-01
          1   -1    0    0  501    0  0.00000000000E+00  0.00000000000E+00  0.66762210769E+03  0.66762210770E+03  0.50400000000E-02 0.  1.
         -1   -1    0    0    0  501 -0.00000000000E+00 -0.00000000000E+00 -0.36184258483E+03  0.36184258487E+03  0.50400000000E-02 0. -1.
    5000001    1    1    2    0    0  0.44629812616E+03 -0.72466522873E+02  0.10849891516E+03  0.50154703562E+03  0.18800000000E+03 0.  0.
   -5000001    1    1    2    0    0 -0.44629812616E+03  0.72466522873E+02  0.19728060769E+03  0.52791765695E+03  0.18800000000E+03 0.  0.
<mgrwt>
<rscale>  0 0.98300378E+03</rscale>
<asrwt>0</asrwt>
<pdfrwt beam="1">  1        1 0.95374586E-01 0.98300378E+03</pdfrwt>
<pdfrwt beam="2">  1       -1 0.51691798E-01 0.98300378E+03</pdfrwt>
<totfact> 0.12341665E+02</totfact>
</mgrwt>
</event>
<event>
 4    1  0.1545327E-005  0.4879359E+03  0.7818608E-02  0.1016977E+00
         -1   -1    0    0    0  501 -0.00000000000E+00  0.00000000000E+00  0.86355893228E+02  0.86355893375E+02  0.50400000000E-02 0. -1.
          1   -1    0    0  501    0  0.00000000000E+00 -0.00000000000E+00 -0.68924501162E+03  0.68924501164E+03  0.50400000000E-02 0.  1.
    5000001    1    1    2    0    0  0.58256209674E+02  0.14151653614E+03 -0.34514005111E+03  0.42176577724E+03  0.18800000000E+03 0.  0.
   -5000001    1    1    2    0    0 -0.58256209674E+02 -0.14151653614E+03 -0.25774906728E+03  0.35383512778E+03  0.18800000000E+03 0.  0.
<mgrwt>
<rscale>  0 0.48793593E+03</rscale>
<asrwt>0</asrwt>
<pdfrwt beam="1">  1        1 0.98463570E-01 0.48793593E+03</pdfrwt>
<pdfrwt beam="2">  1       -1 0.12336557E-01 0.48793593E+03</pdfrwt>
<totfact> 0.14106266E+03</totfact>
</mgrwt>
</event>
<event>
 4    1  0.1545327E-005  0.6704978E+03  0.7818608E-02  0.9769059E-01
          1   -1    0    0  501    0  0.00000000000E+00  0.00000000000E+00  0.20891527038E+03  0.20891527044E+03  0.50400000000E-02 0. -1.
         -1   -1    0    0    0  501 -0.00000000000E+00 -0.00000000000E+00 -0.53797798790E+03  0.53797798792E+03  0.50400000000E-02 0.  1.
    5000001    1    1    2    0    0  0.15689801362E+03 -0.15451623322E+03  0.23706323904E+02  0.29051375664E+03  0.18800000000E+03 0.  0.
   -5000001    1    1    2    0    0 -0.15689801362E+03  0.15451623322E+03 -0.35276904142E+03  0.45637950172E+03  0.18800000000E+03 0.  0.
<mgrwt>
<rscale>  0 0.67049778E+03</rscale>
<asrwt>0</asrwt>
<pdfrwt beam="1">  1        1 0.29845039E-01 0.67049778E+03</pdfrwt>
<pdfrwt beam="2">  1       -1 0.76853998E-01 0.67049778E+03</pdfrwt>
<totfact> 0.26650517E+02</totfact>
</mgrwt>
</event>
<event>
 4    1  0.1545327E-005  0.4466998E+03  0.7818608E-02  0.1028711E+00
         -1   -1    0    0    0  501 -0.00000000000E+00  0.00000000000E+00  0.40820567759E+03  0.40820567762E+03  0.50400000000E-02 0. -1.
          1   -1    0    0  501    0  0.00000000000E+00 -0.00000000000E+00 -0.12220596007E+03  0.12220596018E+03  0.50400000000E-02 0.  1.
    5000001    1    1    2    0    0 -0.55742102263E+02  0.94390636365E+02  0.83340884589E+02  0.23303750179E+03  0.18800000000E+03 0.  0.
   -5000001    1    1    2    0    0  0.55742102263E+02 -0.94390636365E+02  0.20265883292E+03  0.29737413600E+03  0.18800000000E+03 0.  0.
<mgrwt>
<rscale>  0 0.44669975E+03</rscale>
<asrwt>0</asrwt>
<pdfrwt beam="1">  1        1 0.17457994E-01 0.44669975E+03</pdfrwt>
<pdfrwt beam="2">  1       -1 0.58315097E-01 0.44669975E+03</pdfrwt>
<totfact> 0.94057912E+02</totfact>
</mgrwt>
</event>
<event>
 4    1  0.1545327E-005  0.8209610E+03  0.7818608E-02  0.9530163E-01
         -1   -1    0    0    0  501 -0.00000000000E+00  0.00000000000E+00  0.25490283887E+03  0.25490283892E+03  0.50400000000E-02 0.  1.
          1   -1    0    0  501    0  0.00000000000E+00 -0.00000000000E+00 -0.66101354199E+03  0.66101354201E+03  0.50400000000E-02 0. -1.
    5000001    1    1    2    0    0  0.11324434028E+03 -0.33546332660E+03 -0.10458385741E+03  0.41429664170E+03  0.18800000000E+03 0.  0.
   -5000001    1    1    2    0    0 -0.11324434028E+03  0.33546332660E+03 -0.30152684572E+03  0.50161973923E+03  0.18800000000E+03 0.  0.
<mgrwt>
<rscale>  0 0.82096097E+03</rscale>
<asrwt>0</asrwt>
<pdfrwt beam="1">  1        1 0.94430506E-01 0.82096097E+03</pdfrwt>
<pdfrwt beam="2">  1       -1 0.36414691E-01 0.82096097E+03</pdfrwt>
<totfact> 0.24146180E+02</totfact>
</mgrwt>
</event>
<event>
 4    1  0.1545327E-005  0.5242664E+03  0.7818608E-02  0.1007632E+00
         -1   -1    0    0    0  501 -0.00000000000E+00  0.00000000000E+00  0.29035573507E+03  0.29035573511E+03  0.50400000000E-02 0. -1.
          1   -1    0    0  501    0  0.00000000000E+00 -0.00000000000E+00 -0.23665385995E+03  0.23665386000E+03  0.50400000000E-02 0.  1.
    5000001    1    1    2    0    0 -0.17222991700E+03 -0.60871401606E+02  0.25690060109E+02  0.26338650503E+03  0.18800000000E+03 0.  0.
   -5000001    1    1    2    0    0  0.17222991700E+03  0.60871401606E+02  0.28011815010E+02  0.26362309008E+03  0.18800000000E+03 0.  0.
<mgrwt>
<rscale>  0 0.52426637E+03</rscale>
<asrwt>0</asrwt>
<pdfrwt beam="1">  1        1 0.33807694E-01 0.52426637E+03</pdfrwt>
<pdfrwt beam="2">  1       -1 0.41479391E-01 0.52426637E+03</pdfrwt>
<totfact> 0.75402526E+02</totfact>
</mgrwt>
</event>
<event>
 4    1  0.1545327E-005  0.1171827E+04  0.7818608E-02  0.9137880E-01
          1   -1    0    0  501    0  0.00000000000E+00  0.00000000000E+00  0.10536530388E+04  0.10536530388E+04  0.50400000000E-02 0. -1.
         -1   -1    0    0    0  501 -0.00000000000E+00 -0.00000000000E+00 -0.32581381890E+03  0.32581381894E+03  0.50400000000E-02 0.  1.
    5000001    1    1    2    0    0  0.45730612326E+03 -0.24980681766E+03  0.13926876950E+03  0.57120235178E+03  0.18800000000E+03 0.  0.
   -5000001    1    1    2    0    0 -0.45730612326E+03  0.24980681766E+03  0.58857045036E+03  0.80826450594E+03  0.18800000000E+03 0.  0.
<mgrwt>
<rscale>  0 0.11718272E+04</rscale>
<asrwt>0</asrwt>
<pdfrwt beam="1">  1        1 0.15052186E+00 0.11718272E+04</pdfrwt>
<pdfrwt beam="2">  1       -1 0.46544831E-01 0.11718272E+04</pdfrwt>
<totfact> 0.71748489E+01</totfact>
</mgrwt>
</event>
<event>
 4    1  0.1545327E-005  0.4751170E+03  0.7818608E-02  0.1020486E+00
          1   -1    0    0  501    0  0.00000000000E+00  0.00000000000E+00  0.16647714846E+03  0.16647714853E+03  0.50400000000E-02 0. -1.
         -1   -1    0    0    0  501 -0.00000000000E+00 -0.00000000000E+00 -0.33898973178E+03  0.33898973182E+03  0.50400000000E-02 0.  1.
    5000001    1    1    2    0    0 -0.13168646521E+03 -0.50895063899E+02 -0.12246587376E+03  0.26509153680E+03  0.18800000000E+03 0.  0.
   -5000001    1    1    2    0    0  0.13168646521E+03  0.50895063899E+02 -0.50046709564E+02  0.24037534355E+03  0.18800000000E+03 0.  0.
<mgrwt>
<rscale>  0 0.47511701E+03</rscale>
<asrwt>0</asrwt>
<pdfrwt beam="1">  1        1 0.23782450E-01 0.47511701E+03</pdfrwt>
<pdfrwt beam="2">  1       -1 0.48427104E-01 0.47511701E+03</pdfrwt>
<totfact> 0.89297721E+02</totfact>
</mgrwt>
</event>
<event>
 4    1  0.1545327E-005  0.4213100E+03  0.7818608E-02  0.1036641E+00
          1   -1    0    0  501    0  0.00000000000E+00  0.00000000000E+00  0.69530608782E+03  0.69530608784E+03  0.50400000000E-02 0.  1.
         -1   -1    0    0    0  501 -0.00000000000E+00 -0.00000000000E+00 -0.63821575774E+02  0.63821575973E+02  0.50400000000E-02 0. -1.
    5000001    1    1    2    0    0  0.70938811937E+02  0.22357823556E+02  0.42232976132E+03  0.46822923297E+03  0.18800000000E+03 0.  0.
   -5000001    1    1    2    0    0 -0.70938811937E+02 -0.22357823556E+02  0.20915475073E+03  0.29089843084E+03  0.18800000000E+03 0.  0.
<mgrwt>
<rscale>  0 0.42131001E+03</rscale>
<asrwt>0</asrwt>
<pdfrwt beam="1">  1        1 0.99329439E-01 0.42131001E+03</pdfrwt>
<pdfrwt beam="2">  1       -1 0.91173681E-02 0.42131001E+03</pdfrwt>
<totfact> 0.22403395E+03</totfact>
</mgrwt>
</event>
<event>
 4    1  0.1545327E-005  0.4366848E+03  0.7818608E-02  0.1031769E+00
          1   -1    0    0  501    0  0.00000000000E+00  0.00000000000E+00  0.17616297823E+04  0.17616297823E+04  0.50400000000E-02 0. -1.
         -1   -1    0    0    0  501 -0.00000000000E+00 -0.00000000000E+00 -0.27062102121E+02  0.27062102590E+02  0.50400000000E-02 0.  1.
    5000001    1    1    2    0    0 -0.81089612382E+02 -0.30294268571E+01  0.11777406830E+04  0.11954086410E+04  0.18800000000E+03 0.  0.
   -5000001    1    1    2    0    0  0.81089612382E+02  0.30294268571E+01  0.55682699719E+03  0.59328324387E+03  0.18800000000E+03 0.  0.
<mgrwt>
<rscale>  0 0.43668481E+03</rscale>
<asrwt>0</asrwt>
<pdfrwt beam="1">  1        1 0.25166141E+00 0.43668481E+03</pdfrwt>
<pdfrwt beam="2">  1       -1 0.38660145E-02 0.43668481E+03</pdfrwt>
<totfact> 0.14967646E+03</totfact>
</mgrwt>
</event>
<event>
 4    1  0.1545327E-005  0.5907810E+03  0.7818608E-02  0.9924719E-01
          1   -1    0    0  501    0  0.00000000000E+00  0.00000000000E+00  0.55710774575E+03  0.55710774577E+03  0.50400000000E-02 0.  1.
         -1   -1    0    0    0  501 -0.00000000000E+00 -0.00000000000E+00 -0.15662241350E+03  0.15662241358E+03  0.50400000000E-02 0. -1.
    5000001    1    1    2    0    0 -0.29320006180E+02  0.22512927591E+03  0.17704481957E+03  0.34384839940E+03  0.18800000000E+03 0.  0.
   -5000001    1    1    2    0    0  0.29320006180E+02 -0.22512927591E+03  0.22344051267E+03  0.36988175994E+03  0.18800000000E+03 0.  0.
<mgrwt>
<rscale>  0 0.59078104E+03</rscale>
<asrwt>0</asrwt>
<pdfrwt beam="1">  1        1 0.79586821E-01 0.59078104E+03</pdfrwt>
<pdfrwt beam="2">  1       -1 0.22374631E-01 0.59078104E+03</pdfrwt>
<totfact> 0.72032641E+02</totfact>
</mgrwt>
</event>
<event>
 4    1  0.1545327E-005  0.5734381E+03  0.7818608E-02  0.9962099E-01
         -1   -1    0    0    0  501 -0.00000000000E+00  0.00000000000E+00  0.64679959381E+02  0.64679959578E+02  0.50400000000E-02 0. -1.
          1   -1    0    0  501    0  0.00000000000E+00 -0.00000000000E+00 -0.12709936758E+04  0.12709936758E+04  0.50400000000E-02 0.  1.
    5000001    1    1    2    0    0  0.18735608980E+02 -0.97280724425E+02 -0.15482092776E+03  0.26292219773E+03  0.18800000000E+03 0.  0.
   -5000001    1    1    2    0    0 -0.18735608980E+02  0.97280724425E+02 -0.10514927887E+04  0.10727514377E+04  0.18800000000E+03 0.  0.
<mgrwt>
<rscale>  0 0.57343812E+03</rscale>
<asrwt>0</asrwt>
<pdfrwt beam="1">  1        1 0.18157051E+00 0.57343812E+03</pdfrwt>
<pdfrwt beam="2">  1       -1 0.92399950E-02 0.57343812E+03</pdfrwt>
<totfact> 0.80400421E+02</totfact>
</mgrwt>
</event>
<event>
 4    1  0.1545327E-005  0.5061687E+03  0.7818608E-02  0.1012181E+00
          1   -1    0    0  501    0  0.00000000000E+00  0.00000000000E+00  0.49361862932E+03  0.49361862935E+03  0.50400000000E-02 0.  1.
         -1   -1    0    0    0  501 -0.00000000000E+00 -0.00000000000E+00 -0.12975948446E+03  0.12975948456E+03  0.50400000000E-02 0. -1.
    5000001    1    1    2    0    0 -0.15603277922E+03  0.65374845117E+02  0.19345638199E+03  0.31841713254E+03  0.18800000000E+03 0.  0.
   -5000001    1    1    2    0    0  0.15603277922E+03 -0.65374845117E+02  0.17040276286E+03  0.30496098137E+03  0.18800000000E+03 0.  0.
<mgrwt>
<rscale>  0 0.50616874E+03</rscale>
<asrwt>0</asrwt>
<pdfrwt beam="1">  1        1 0.70516949E-01 0.50616874E+03</pdfrwt>
<pdfrwt beam="2">  1       -1 0.18537069E-01 0.50616874E+03</pdfrwt>
<totfact> 0.11609246E+03</totfact>
</mgrwt>
</event>
<event>
 4    1  0.1545327E-005  0.4751314E+03  0.7818608E-02  0.1020482E+00
          1   -1    0    0  501    0  0.00000000000E+00  0.00000000000E+00  0.54483419128E+02  0.54483419361E+02  0.50400000000E-02 0.  1.
         -1   -1    0    0    0  501 -0.00000000000E+00 -0.00000000000E+00 -0.10358650568E+04  0.10358650568E+04  0.50400000000E-02 0. -1.
    5000001    1    1    2    0    0 -0.47817530081E+02 -0.13711609886E+03 -0.49637230268E+03  0.55028792792E+03  0.18800000000E+03 0.  0.
   -5000001    1    1    2    0    0  0.47817530081E+02  0.13711609886E+03 -0.48500933500E+03  0.54006054826E+03  0.18800000000E+03 0.  0.
<mgrwt>
<rscale>  0 0.47513144E+03</rscale>
<asrwt>0</asrwt>
<pdfrwt beam="1">  1        1 0.77833463E-02 0.47513144E+03</pdfrwt>
<pdfrwt beam="2">  1       -1 0.14798071E+00 0.47513144E+03</pdfrwt>
<totfact> 0.35195662E+02</totfact>
</mgrwt>
</event>
<event>
 4    1  0.1545327E-005  0.5004363E+03  0.7818608E-02  0.1013665E+00
          1   -1    0    0  501    0  0.00000000000E+00  0.00000000000E+00  0.89286361399E+02  0.89286361541E+02  0.50400000000E-02 0.  1.
         -1   -1    0    0    0  501 -0.00000000000E+00 -0.00000000000E+00 -0.70121713197E+03  0.70121713199E+03  0.50400000000E-02 0. -1.
    5000001    1    1    2    0    0  0.10321336219E+03  0.97324247075E+02 -0.17248799559E+03  0.29192655896E+03  0.18800000000E+03 0.  0.
   -5000001    1    1    2    0    0 -0.10321336219E+03 -0.97324247075E+02 -0.43944277498E+03  0.49857693457E+03  0.18800000000E+03 0.  0.
<mgrwt>
<rscale>  0 0.50043631E+03</rscale>
<asrwt>0</asrwt>
<pdfrwt beam="1">  1        1 0.12755195E-01 0.50043631E+03</pdfrwt>
<pdfrwt beam="2">  1       -1 0.10017387E+00 0.50043631E+03</pdfrwt>
<totfact> 0.46316239E+02</totfact>
</mgrwt>
</event>
<event>
 4    1  0.1545327E-005  0.6942885E+03  0.7818608E-02  0.9727050E-01
          1   -1    0    0  501    0  0.00000000000E+00  0.00000000000E+00  0.30558886458E+03  0.30558886462E+03  0.50400000000E-02 0.  1.
         -1   -1    0    0    0  501 -0.00000000000E+00 -0.00000000000E+00 -0.39435053923E+03  0.39435053927E+03  0.50400000000E-02 0. -1.
    5000001    1    1    2    0    0  0.16980270191E+03  0.21753931065E+03 -0.14006818665E+03  0.36210413718E+03  0.18800000000E+03 0.  0.
   -5000001    1    1    2    0    0 -0.16980270191E+03 -0.21753931065E+03  0.51306511997E+02  0.33783526670E+03  0.18800000000E+03 0.  0.
<mgrwt>
<rscale>  0 0.69428851E+03</rscale>
<asrwt>0</asrwt>
<pdfrwt beam="1">  1        1 0.43655552E-01 0.69428851E+03</pdfrwt>
<pdfrwt beam="2">  1       -1 0.56335792E-01 0.69428851E+03</pdfrwt>
<totfact> 0.30433456E+02</totfact>
</mgrwt>
</event>
<event>
 4    1  0.1545327E-005  0.5690812E+03  0.7818608E-02  0.9971714E-01
         -1   -1    0    0    0  501 -0.00000000000E+00  0.00000000000E+00  0.18921700980E+03  0.18921700986E+03  0.50400000000E-02 0. -1.
          1   -1    0    0  501    0  0.00000000000E+00 -0.00000000000E+00 -0.42788621324E+03  0.42788621327E+03  0.50400000000E-02 0.  1.
    5000001    1    1    2    0    0 -0.13171631221E+03 -0.16503903074E+03 -0.15417495953E+03  0.32202637581E+03  0.18800000000E+03 0.  0.
   -5000001    1    1    2    0    0  0.13171631221E+03  0.16503903074E+03 -0.84494243912E+02  0.29507684732E+03  0.18800000000E+03 0.  0.
<mgrwt>
<rscale>  0 0.56908119E+03</rscale>
<asrwt>0</asrwt>
<pdfrwt beam="1">  1        1 0.61126602E-01 0.56908119E+03</pdfrwt>
<pdfrwt beam="2">  1       -1 0.27031001E-01 0.56908119E+03</pdfrwt>
<totfact> 0.74549865E+02</totfact>
</mgrwt>
</event>
<event>
 4    1  0.1545327E-005  0.6483571E+03  0.7818608E-02  0.9809867E-01
          1   -1    0    0  501    0  0.00000000000E+00  0.00000000000E+00  0.18084136204E+04  0.18084136204E+04  0.50400000000E-02 0.  1.
         -1   -1    0    0    0  501 -0.00000000000E+00 -0.00000000000E+00 -0.58112658524E+02  0.58112658742E+02  0.50400000000E-02 0. -1.
    5000001    1    1    2    0    0  0.24194612886E+03 -0.71642163636E+02  0.65072538226E+03  0.72281259812E+03  0.18800000000E+03 0.  0.
   -5000001    1    1    2    0    0 -0.24194612886E+03  0.71642163636E+02  0.10995755796E+04  0.11437136810E+04  0.18800000000E+03 0.  0.
<mgrwt>
<rscale>  0 0.64835707E+03</rscale>
<asrwt>0</asrwt>
<pdfrwt beam="1">  1        1 0.25834476E+00 0.64835707E+03</pdfrwt>
<pdfrwt beam="2">  1       -1 0.83018096E-02 0.64835707E+03</pdfrwt>
<totfact> 0.42842698E+02</totfact>
</mgrwt>
</event>
<event>
 4    1  0.1545327E-005  0.7366608E+03  0.7818608E-02  0.9656513E-01
          1   -1    0    0  501    0  0.00000000000E+00  0.00000000000E+00  0.33332302263E+03  0.33332302267E+03  0.50400000000E-02 0.  1.
         -1   -1    0    0    0  501 -0.00000000000E+00 -0.00000000000E+00 -0.40701446045E+03  0.40701446048E+03  0.50400000000E-02 0. -1.
    5000001    1    1    2    0    0 -0.20927208157E+03  0.20492270113E+03 -0.15800934578E+03  0.38222908173E+03  0.18800000000E+03 0.  0.
   -5000001    1    1    2    0    0  0.20927208157E+03 -0.20492270113E+03  0.84317907955E+02  0.35810840142E+03  0.18800000000E+03 0.  0.
<mgrwt>
<rscale>  0 0.73666082E+03</rscale>
<asrwt>0</asrwt>
<pdfrwt beam="1">  1        1 0.47617575E-01 0.73666082E+03</pdfrwt>
<pdfrwt beam="2">  1       -1 0.58144922E-01 0.73666082E+03</pdfrwt>
<totfact> 0.25530457E+02</totfact>
</mgrwt>
</event>
<event>
 4    1  0.1545327E-005  0.8218203E+03  0.7818608E-02  0.9528959E-01
          1   -1    0    0  501    0  0.00000000000E+00  0.00000000000E+00  0.20307782421E+03  0.20307782428E+03  0.50400000000E-02 0. -1.
         -1   -1    0    0    0  501 -0.00000000000E+00 -0.00000000000E+00 -0.83144056484E+03  0.83144056486E+03  0.50400000000E-02 0.  1.
    5000001    1    1    2    0    0 -0.34874886368E+03  0.10893109202E+03 -0.30993333039E+03  0.51467895043E+03  0.18800000000E+03 0.  0.
   -5000001    1    1    2    0    0  0.34874886368E+03 -0.10893109202E+03 -0.31842941024E+03  0.51983943871E+03  0.18800000000E+03 0.  0.
<mgrwt>
<rscale>  0 0.82182027E+03</rscale>
<asrwt>0</asrwt>
<pdfrwt beam="1">  1        1 0.29011118E-01 0.82182027E+03</pdfrwt>
<pdfrwt beam="2">  1       -1 0.11877722E+00 0.82182027E+03</pdfrwt>
<totfact> 0.10315025E+02</totfact>
</mgrwt>
</event>
<event>
 4    1  0.1545327E-005  0.4882979E+03  0.7818608E-02  0.1016879E+00
         -1   -1    0    0    0  501 -0.00000000000E+00  0.00000000000E+00  0.42296386783E+03  0.42296386786E+03  0.50400000000E-02 0. -1.
          1   -1    0    0  501    0  0.00000000000E+00 -0.00000000000E+00 -0.14093100122E+03  0.14093100131E+03  0.50400000000E-02 0.  1.
    5000001    1    1    2    0    0 -0.13445473882E+03  0.78377376737E+02  0.13338839291E+03  0.27813225871E+03  0.18800000000E+03 0.  0.
   -5000001    1    1    2    0    0  0.13445473882E+03 -0.78377376737E+02  0.14864447370E+03  0.28576261046E+03  0.18800000000E+03 0.  0.
<mgrwt>
<rscale>  0 0.48829795E+03</rscale>
<asrwt>0</asrwt>
<pdfrwt beam="1">  1        1 0.20133000E-01 0.48829795E+03</pdfrwt>
<pdfrwt beam="2">  1       -1 0.60423410E-01 0.48829795E+03</pdfrwt>
<totfact> 0.72751926E+02</totfact>
</mgrwt>
</event>
<event>
 4    1  0.1545327E-005  0.5959227E+03  0.7818608E-02  0.9913901E-01
         -1   -1    0    0    0  501 -0.00000000000E+00  0.00000000000E+00  0.13846994778E+03  0.13846994787E+03  0.50400000000E-02 0. -1.
          1   -1    0    0  501    0  0.00000000000E+00 -0.00000000000E+00 -0.64115701794E+03  0.64115701796E+03  0.50400000000E-02 0.  1.
    5000001    1    1    2    0    0  0.13825627193E+03 -0.18447096255E+03 -0.22896311408E+03  0.37538305817E+03  0.18800000000E+03 0.  0.
   -5000001    1    1    2    0    0 -0.13825627193E+03  0.18447096255E+03 -0.27372395608E+03  0.40424390767E+03  0.18800000000E+03 0.  0.
<mgrwt>
<rscale>  0 0.59592274E+03</rscale>
<asrwt>0</asrwt>
<pdfrwt beam="1">  1        1 0.91593858E-01 0.59592274E+03</pdfrwt>
<pdfrwt beam="2">  1       -1 0.19781422E-01 0.59592274E+03</pdfrwt>
<totfact> 0.72654621E+02</totfact>
</mgrwt>
</event>
<event>
 4    1  0.1545327E-005  0.5555158E+03  0.7818608E-02  0.1000225E+00
         -1   -1    0    0    0  501 -0.00000000000E+00  0.00000000000E+00  0.65896183495E+03  0.65896183497E+03  0.50400000000E-02 0.  1.
          1   -1    0    0  501    0  0.00000000000E+00 -0.00000000000E+00 -0.11707728137E+03  0.11707728148E+03  0.50400000000E-02 0. -1.
    5000001    1    1    2    0    0 -0.19897818772E+03 -0.55735018758E+01  0.20568601125E+03  0.34245308925E+03  0.18800000000E+03 0.  0.
   -5000001    1    1    2    0    0  0.19897818772E+03  0.55735018758E+01  0.33619854233E+03  0.43358602719E+03  0.18800000000E+03 0.  0.
<mgrwt>
<rscale>  0 0.55551583E+03</rscale>
<asrwt>0</asrwt>
<pdfrwt beam="1">  1        1 0.16725326E-01 0.55551583E+03</pdfrwt>
<pdfrwt beam="2">  1       -1 0.94137404E-01 0.55551583E+03</pdfrwt>
<totfact> 0.36960113E+02</totfact>
</mgrwt>
</event>
<event>
 4    1  0.1545327E-005  0.4437877E+03  0.7818608E-02  0.1029591E+00
          1   -1    0    0  501    0  0.00000000000E+00  0.00000000000E+00  0.68249179582E+02  0.68249179768E+02  0.50400000000E-02 0.  1.
         -1   -1    0    0    0  501 -0.00000000000E+00 -0.00000000000E+00 -0.72142810585E+03  0.72142810587E+03  0.50400000000E-02 0. -1.
    5000001    1    1    2    0    0  0.11104557050E+03  0.73181975240E+01 -0.39569361085E+03  0.45199790753E+03  0.18800000000E+03 0.  0.
   -5000001    1    1    2    0    0 -0.11104557050E+03 -0.73181975240E+01 -0.25748531542E+03  0.33767937811E+03  0.18800000000E+03 0.  0.
<mgrwt>
<rscale>  0 0.44378768E+03</rscale>
<asrwt>0</asrwt>
<pdfrwt beam="1">  1        1 0.97498832E-02 0.44378768E+03</pdfrwt>
<pdfrwt beam="2">  1       -1 0.10306115E+00 0.44378768E+03</pdfrwt>
<totfact> 0.62604527E+02</totfact>
</mgrwt>
</event>
<event>
 4    1  0.1545327E-005  0.5639580E+03  0.7818608E-02  0.9983139E-01
         -1   -1    0    0    0  501 -0.00000000000E+00  0.00000000000E+00  0.32804786622E+03  0.32804786626E+03  0.50400000000E-02 0.  1.
          1   -1    0    0  501    0  0.00000000000E+00 -0.00000000000E+00 -0.24237974092E+03  0.24237974097E+03  0.50400000000E-02 0. -1.
    5000001    1    1    2    0    0 -0.15777290099E+03 -0.28484891398E+02  0.18027696215E+03  0.30585529324E+03  0.18800000000E+03 0.  0.
   -5000001    1    1    2    0    0  0.15777290099E+03  0.28484891398E+02 -0.94608836844E+02  0.26457231399E+03  0.18800000000E+03 0.  0.
<mgrwt>
<rscale>  0 0.56395800E+03</rscale>
<asrwt>0</asrwt>
<pdfrwt beam="1">  1        1 0.34625677E-01 0.56395800E+03</pdfrwt>
<pdfrwt beam="2">  1       -1 0.46863981E-01 0.56395800E+03</pdfrwt>
<totfact> 0.58392366E+02</totfact>
</mgrwt>
</event>
<event>
 4    1  0.1545327E-005  0.5129632E+03  0.7818608E-02  0.1010450E+00
         -1   -1    0    0    0  501 -0.00000000000E+00  0.00000000000E+00  0.12866787817E+03  0.12866787827E+03  0.50400000000E-02 0. -1.
          1   -1    0    0  501    0  0.00000000000E+00 -0.00000000000E+00 -0.51126048334E+03  0.51126048337E+03  0.50400000000E-02 0.  1.
    5000001    1    1    2    0    0 -0.35042208701E+02 -0.16904102331E+03 -0.15983576679E+03  0.30115493736E+03  0.18800000000E+03 0.  0.
   -5000001    1    1    2    0    0  0.35042208701E+02  0.16904102331E+03 -0.22275683838E+03  0.33877342428E+03  0.18800000000E+03 0.  0.
<mgrwt>
<rscale>  0 0.51296316E+03</rscale>
<asrwt>0</asrwt>
<pdfrwt beam="1">  1        1 0.73037210E-01 0.51296316E+03</pdfrwt>
<pdfrwt beam="2">  1       -1 0.18381126E-01 0.51296316E+03</pdfrwt>
<totfact> 0.11229225E+03</totfact>
</mgrwt>
</event>
<event>
 4    1  0.1545327E-005  0.5364500E+03  0.7818608E-02  0.1004680E+00
          1   -1    0    0  501    0  0.00000000000E+00  0.00000000000E+00  0.13567859099E+03  0.13567859109E+03  0.50400000000E-02 0.  1.
         -1   -1    0    0    0  501 -0.00000000000E+00 -0.00000000000E+00 -0.53025785956E+03  0.53025785958E+03  0.50400000000E-02 0. -1.
    5000001    1    1    2    0    0  0.94759458351E+02 -0.10220911307E+03 -0.35997431295E+03  0.42936180981E+03  0.18800000000E+03 0.  0.
   -5000001    1    1    2    0    0 -0.94759458351E+02  0.10220911307E+03 -0.34604955615E+02  0.23657464085E+03  0.18800000000E+03 0.  0.
<mgrwt>
<rscale>  0 0.53644996E+03</rscale>
<asrwt>0</asrwt>
<pdfrwt beam="1">  1        1 0.19382656E-01 0.53644996E+03</pdfrwt>
<pdfrwt beam="2">  1       -1 0.75751122E-01 0.53644996E+03</pdfrwt>
<totfact> 0.48469543E+02</totfact>
</mgrwt>
</event>
<event>
 4    1  0.1545327E-005  0.6580266E+03  0.7818608E-02  0.9791833E-01
          1   -1    0    0  501    0  0.00000000000E+00  0.00000000000E+00  0.33293173424E+03  0.33293173428E+03  0.50400000000E-02 0.  1.
         -1   -1    0    0    0  501 -0.00000000000E+00 -0.00000000000E+00 -0.32514094188E+03  0.32514094192E+03  0.50400000000E-02 0. -1.
    5000001    1    1    2    0    0 -0.26335258196E+03 -0.42009079289E+02  0.46164095236E+02  0.32953674887E+03  0.18800000000E+03 0.  0.
   -5000001    1    1    2    0    0  0.26335258196E+03  0.42009079289E+02 -0.38373302871E+02  0.32853592732E+03  0.18800000000E+03 0.  0.
<mgrwt>
<rscale>  0 0.65802656E+03</rscale>
<asrwt>0</asrwt>
<pdfrwt beam="1">  1        1 0.47561676E-01 0.65802656E+03</pdfrwt>
<pdfrwt beam="2">  1       -1 0.46448706E-01 0.65802656E+03</pdfrwt>
<totfact> 0.39347096E+02</totfact>
</mgrwt>
</event>
<event>
 4    1  0.1545327E-005  0.5515607E+03  0.7818608E-02  0.1001133E+00
          1   -1    0    0  501    0  0.00000000000E+00  0.00000000000E+00  0.39000143625E+03  0.39000143628E+03  0.50400000000E-02 0. -1.
         -1   -1    0    0    0  501 -0.00000000000E+00 -0.00000000000E+00 -0.19501159606E+03  0.19501159612E+03  0.50400000000E-02 0.  1.
    5000001    1    1    2    0    0  0.27100732553E+02 -0.18690948473E+03  0.22187273665E+02  0.26740583446E+03  0.18800000000E+03 0.  0.
   -5000001    1    1    2    0    0 -0.27100732553E+02  0.18690948473E+03  0.17280256653E+03  0.31760719795E+03  0.18800000000E+03 0.  0.
<mgrwt>
<rscale>  0 0.55156070E+03</rscale>
<asrwt>0</asrwt>
<pdfrwt beam="1">  1        1 0.55714490E-01 0.55156070E+03</pdfrwt>
<pdfrwt beam="2">  1       -1 0.27858800E-01 0.55156070E+03</pdfrwt>
<totfact> 0.79940910E+02</totfact>
</mgrwt>
</event>
<event>
 4    1  0.1545327E-005  0.4396058E+03  0.7818608E-02  0.1030868E+00
         -1   -1    0    0    0  501 -0.00000000000E+00  0.00000000000E+00  0.76004686013E+02  0.76004686181E+02  0.50400000000E-02 0.  1.
          1   -1    0    0  501    0  0.00000000000E+00 -0.00000000000E+00 -0.63566225055E+03  0.63566225057E+03  0.50400000000E-02 0. -1.
    5000001    1    1    2    0    0 -0.65209926814E+02 -0.74539368901E+02 -0.37084439028E+03  0.42740848597E+03  0.18800000000E+03 0.  0.
   -5000001    1    1    2    0    0  0.65209926814E+02  0.74539368901E+02 -0.18881317426E+03  0.28425845079E+03  0.18800000000E+03 0.  0.
<mgrwt>
<rscale>  0 0.43960578E+03</rscale>
<asrwt>0</asrwt>
<pdfrwt beam="1">  1        1 0.90808890E-01 0.43960578E+03</pdfrwt>
<pdfrwt beam="2">  1       -1 0.10857813E-01 0.43960578E+03</pdfrwt>
<totfact> 0.19372810E+03</totfact>
</mgrwt>
</event>
<event>
 4    1  0.1545327E-005  0.8074712E+03  0.7818608E-02  0.9549265E-01
         -1   -1    0    0    0  501 -0.00000000000E+00  0.00000000000E+00  0.15681420271E+03  0.15681420279E+03  0.50400000000E-02 0. -1.
          1   -1    0    0  501    0  0.00000000000E+00 -0.00000000000E+00 -0.10394620737E+04  0.10394620737E+04  0.50400000000E-02 0.  1.
    5000001    1    1    2    0    0 -0.19735818755E+03 -0.24390964248E+03 -0.18809303566E+03  0.41129692189E+03  0.18800000000E+03 0.  0.
   -5000001    1    1    2    0    0  0.19735818755E+03  0.24390964248E+03 -0.69455483536E+03  0.78497935464E+03  0.18800000000E+03 0.  0.
<mgrwt>
<rscale>  0 0.80747115E+03</rscale>
<asrwt>0</asrwt>
<pdfrwt beam="1">  1        1 0.14849458E+00 0.80747115E+03</pdfrwt>
<pdfrwt beam="2">  1       -1 0.22402029E-01 0.80747115E+03</pdfrwt>
<totfact> 0.27444964E+02</totfact>
</mgrwt>
</event>
<event>
 4    1  0.1545327E-005  0.6381885E+03  0.7818608E-02  0.9829198E-01
         -1   -1    0    0    0  501 -0.00000000000E+00  0.00000000000E+00  0.13158928127E+03  0.13158928137E+03  0.50400000000E-02 0. -1.
          1   -1    0    0  501    0  0.00000000000E+00 -0.00000000000E+00 -0.77378001342E+03  0.77378001344E+03  0.50400000000E-02 0.  1.
    5000001    1    1    2    0    0 -0.68459594588E+02 -0.21095693850E+03 -0.13456728119E+03  0.32037774448E+03  0.18800000000E+03 0.  0.
   -5000001    1    1    2    0    0  0.68459594588E+02  0.21095693850E+03 -0.50762345096E+03  0.58499155033E+03  0.18800000000E+03 0.  0.
<mgrwt>
<rscale>  0 0.63818855E+03</rscale>
<asrwt>0</asrwt>
<pdfrwt beam="1">  1        1 0.11054000E+00 0.63818855E+03</pdfrwt>
<pdfrwt beam="2">  1       -1 0.18798469E-01 0.63818855E+03</pdfrwt>
<totfact> 0.59888335E+02</totfact>
</mgrwt>
</event>
<event>
 4    1  0.1545327E-005  0.6444398E+03  0.7818608E-02  0.9817269E-01
         -1   -1    0    0    0  501 -0.00000000000E+00  0.00000000000E+00  0.97359618623E+03  0.97359618624E+03  0.50400000000E-02 0.  1.
          1   -1    0    0  501    0  0.00000000000E+00 -0.00000000000E+00 -0.10664142004E+03  0.10664142016E+03  0.50400000000E-02 0. -1.
    5000001    1    1    2    0    0  0.22271590443E+03  0.12831220698E+03  0.35109754189E+03  0.47400409330E+03  0.18800000000E+03 0.  0.
   -5000001    1    1    2    0    0 -0.22271590443E+03 -0.12831220698E+03  0.51585722430E+03  0.60623351310E+03  0.18800000000E+03 0.  0.
<mgrwt>
<rscale>  0 0.64443985E+03</rscale>
<asrwt>0</asrwt>
<pdfrwt beam="1">  1        1 0.15234488E-01 0.64443985E+03</pdfrwt>
<pdfrwt beam="2">  1       -1 0.13908517E+00 0.64443985E+03</pdfrwt>
<totfact> 0.16425955E+02</totfact>
</mgrwt>
</event>
<event>
 4    1  0.1545327E-005  0.4326043E+03  0.7818608E-02  0.1033040E+00
          1   -1    0    0  501    0  0.00000000000E+00  0.00000000000E+00  0.28151287135E+04  0.28151287135E+04  0.50400000000E-02 0.  1.
         -1   -1    0    0    0  501 -0.00000000000E+00 -0.00000000000E+00 -0.16619710521E+02  0.16619711285E+02  0.50400000000E-02 0. -1.
    5000001    1    1    2    0    0 -0.51644147908E+02  0.93255529103E+02  0.14574031887E+04  0.14733403429E+04  0.18800000000E+03 0.  0.
   -5000001    1    1    2    0    0  0.51644147908E+02 -0.93255529103E+02  0.13411058143E+04  0.13584080819E+04  0.18800000000E+03 0.  0.
<mgrwt>
<rscale>  0 0.43260432E+03</rscale>
<asrwt>0</asrwt>
<pdfrwt beam="1">  1        1 0.40216118E+00 0.43260432E+03</pdfrwt>
<pdfrwt beam="2">  1       -1 0.23742448E-02 0.43260432E+03</pdfrwt>
<totfact> 0.69537717E+02</totfact>
</mgrwt>
</event>
<event>
 4    1  0.1545327E-005  0.4295130E+03  0.7818608E-02  0.1034014E+00
          1   -1    0    0  501    0  0.00000000000E+00  0.00000000000E+00  0.20672531904E+02  0.20672532519E+02  0.50400000000E-02 0.  1.
         -1   -1    0    0    0  501 -0.00000000000E+00 -0.00000000000E+00 -0.22309972444E+04  0.22309972444E+04  0.50400000000E-02 0. -1.
    5000001    1    1    2    0    0  0.22360122249E+02 -0.89564934636E+02 -0.85624543910E+03  0.88148857314E+03  0.18800000000E+03 0.  0.
   -5000001    1    1    2    0    0 -0.22360122249E+02  0.89564934636E+02 -0.13540792734E+04  0.13701812038E+04  0.18800000000E+03 0.  0.
<mgrwt>
<rscale>  0 0.42951304E+03</rscale>
<asrwt>0</asrwt>
<pdfrwt beam="1">  1        1 0.29532203E-02 0.42951304E+03</pdfrwt>
<pdfrwt beam="2">  1       -1 0.31871374E+00 0.42951304E+03</pdfrwt>
<totfact> 0.10094810E+02</totfact>
</mgrwt>
</event>
<event>
 4    1  0.1545327E-005  0.5621983E+03  0.7818608E-02  0.9987093E-01
          1   -1    0    0  501    0  0.00000000000E+00  0.00000000000E+00  0.47917874950E+03  0.47917874953E+03  0.50400000000E-02 0.  1.
         -1   -1    0    0    0  501 -0.00000000000E+00 -0.00000000000E+00 -0.16490029812E+03  0.16490029820E+03  0.50400000000E-02 0. -1.
    5000001    1    1    2    0    0 -0.13357627933E+03 -0.53027624912E+02 -0.16674893263E+02  0.23722690292E+03  0.18800000000E+03 0.  0.
   -5000001    1    1    2    0    0  0.13357627933E+03  0.53027624912E+02  0.33095334464E+03  0.40685214481E+03  0.18800000000E+03 0.  0.
<mgrwt>
<rscale>  0 0.56219825E+03</rscale>
<asrwt>0</asrwt>
<pdfrwt beam="1">  1        1 0.68454108E-01 0.56219825E+03</pdfrwt>
<pdfrwt beam="2">  1       -1 0.23557185E-01 0.56219825E+03</pdfrwt>
<totfact> 0.81052212E+02</totfact>
</mgrwt>
</event>
<event>
 4    1  0.1545327E-005  0.4606845E+03  0.7818608E-02  0.1024583E+00
          1   -1    0    0  501    0  0.00000000000E+00  0.00000000000E+00  0.17947183676E+04  0.17947183676E+04  0.50400000000E-02 0.  1.
         -1   -1    0    0    0  501 -0.00000000000E+00 -0.00000000000E+00 -0.29563157869E+02  0.29563158299E+02  0.50400000000E-02 0. -1.
    5000001    1    1    2    0    0  0.11668339009E+03 -0.58544117460E+02  0.98516333909E+03  0.10114016175E+04  0.18800000000E+03 0.  0.
   -5000001    1    1    2    0    0 -0.11668339009E+03  0.58544117460E+02  0.77999187066E+03  0.81287990842E+03  0.18800000000E+03 0.  0.
<mgrwt>
<rscale>  0 0.46068446E+03</rscale>
<asrwt>0</asrwt>
<pdfrwt beam="1">  1        1 0.25638835E+00 0.46068446E+03</pdfrwt>
<pdfrwt beam="2">  1       -1 0.42233080E-02 0.46068446E+03</pdfrwt>
<totfact> 0.12483457E+03</totfact>
</mgrwt>
</event>
<event>
 4    1  0.1545327E-005  0.1269361E+04  0.7818608E-02  0.9054221E-01
         -1   -1    0    0    0  501 -0.00000000000E+00  0.00000000000E+00  0.31519258307E+03  0.31519258311E+03  0.50400000000E-02 0. -1.
          1   -1    0    0  501    0  0.00000000000E+00 -0.00000000000E+00 -0.12780099004E+04  0.12780099004E+04  0.50400000000E-02 0.  1.
    5000001    1    1    2    0    0 -0.56196805199E+03 -0.64617484871E+01 -0.19622963777E+03  0.62425949443E+03  0.18800000000E+03 0.  0.
   -5000001    1    1    2    0    0  0.56196805199E+03  0.64617484871E+01 -0.76658767957E+03  0.96894298910E+03  0.18800000000E+03 0.  0.
<mgrwt>
<rscale>  0 0.12693608E+04</rscale>
<asrwt>0</asrwt>
<pdfrwt beam="1">  1        1 0.18257284E+00 0.12693608E+04</pdfrwt>
<pdfrwt beam="2">  1       -1 0.45027512E-01 0.12693608E+04</pdfrwt>
<totfact> 0.52673320E+01</totfact>
</mgrwt>
</event>
<event>
 4    1  0.1545327E-005  0.5776134E+03  0.7818608E-02  0.9952971E-01
          1   -1    0    0  501    0  0.00000000000E+00  0.00000000000E+00  0.27627974800E+03  0.27627974804E+03  0.50400000000E-02 0. -1.
         -1   -1    0    0    0  501 -0.00000000000E+00 -0.00000000000E+00 -0.30190162199E+03  0.30190162203E+03  0.50400000000E-02 0.  1.
    5000001    1    1    2    0    0 -0.18973866817E+03  0.10758236804E+03  0.93597923398E+01  0.28810819812E+03  0.18800000000E+03 0.  0.
   -5000001    1    1    2    0    0  0.18973866817E+03 -0.10758236804E+03 -0.34981666336E+02  0.29007317196E+03  0.18800000000E+03 0.  0.
<mgrwt>
<rscale>  0 0.57761338E+03</rscale>
<asrwt>0</asrwt>
<pdfrwt beam="1">  1        1 0.39468536E-01 0.57761338E+03</pdfrwt>
<pdfrwt beam="2">  1       -1 0.43128803E-01 0.57761338E+03</pdfrwt>
<totfact> 0.57510785E+02</totfact>
</mgrwt>
</event>
<event>
 4    1  0.1545327E-005  0.5613434E+03  0.7818608E-02  0.9989020E-01
         -1   -1    0    0    0  501 -0.00000000000E+00  0.00000000000E+00  0.11074705295E+04  0.11074705295E+04  0.50400000000E-02 0. -1.
          1   -1    0    0  501    0  0.00000000000E+00 -0.00000000000E+00 -0.71132004437E+02  0.71132004615E+02  0.50400000000E-02 0.  1.
    5000001    1    1    2    0    0 -0.13030682378E+03 -0.15478549907E+03  0.62302751859E+03  0.68150253702E+03  0.18800000000E+03 0.  0.
   -5000001    1    1    2    0    0  0.13030682378E+03  0.15478549907E+03  0.41331100645E+03  0.49709999708E+03  0.18800000000E+03 0.  0.
<mgrwt>
<rscale>  0 0.56134338E+03</rscale>
<asrwt>0</asrwt>
<pdfrwt beam="1">  1        1 0.10161715E-01 0.56134338E+03</pdfrwt>
<pdfrwt beam="2">  1       -1 0.15821007E+00 0.56134338E+03</pdfrwt>
<totfact> 0.20288368E+02</totfact>
</mgrwt>
</event>
<event>
 4    1  0.1545327E-005  0.6456946E+03  0.7818608E-02  0.9814892E-01
         -1   -1    0    0    0  501 -0.00000000000E+00  0.00000000000E+00  0.29594402301E+03  0.29594402305E+03  0.50400000000E-02 0. -1.
          1   -1    0    0  501    0  0.00000000000E+00 -0.00000000000E+00 -0.35219624927E+03  0.35219624930E+03  0.50400000000E-02 0.  1.
    5000001    1    1    2    0    0 -0.19651020962E+03 -0.17366835519E+03 -0.38625887711E+02  0.32498141375E+03  0.18800000000E+03 0.  0.
   -5000001    1    1    2    0    0  0.19651020962E+03  0.17366835519E+03 -0.17626338551E+02  0.32315885860E+03  0.18800000000E+03 0.  0.
<mgrwt>
<rscale>  0 0.64569459E+03</rscale>
<asrwt>0</asrwt>
<pdfrwt beam="1">  1        1 0.50313750E-01 0.64569459E+03</pdfrwt>
<pdfrwt beam="2">  1       -1 0.42277718E-01 0.64569459E+03</pdfrwt>
<totfact> 0.43537378E+02</totfact>
</mgrwt>
</event>
<event>
 4    1  0.1545327E-005  0.6046734E+03  0.7818608E-02  0.9895757E-01
          1   -1    0    0  501    0  0.00000000000E+00  0.00000000000E+00  0.50790951799E+03  0.50790951801E+03  0.50400000000E-02 0.  1.
         -1   -1    0    0    0  501 -0.00000000000E+00 -0.00000000000E+00 -0.17996805182E+03  0.17996805189E+03  0.50400000000E-02 0. -1.
    5000001    1    1    2    0    0  0.14624596878E+03  0.89445874287E+02  0.34976948746E+03  0.43251721604E+03  0.18800000000E+03 0.  0.
   -5000001    1    1    2    0    0 -0.14624596878E+03 -0.89445874287E+02 -0.21828021296E+02  0.25536035386E+03  0.18800000000E+03 0.  0.
<mgrwt>
<rscale>  0 0.60467342E+03</rscale>
<asrwt>0</asrwt>
<pdfrwt beam="1">  1        1 0.72558504E-01 0.60467342E+03</pdfrwt>
<pdfrwt beam="2">  1       -1 0.25709721E-01 0.60467342E+03</pdfrwt>
<totfact> 0.64587428E+02</totfact>
</mgrwt>
</event>
<event>
 4    1  0.1545327E-005  0.8863746E+03  0.7818608E-02  0.9442776E-01
          1   -1    0    0  501    0  0.00000000000E+00  0.00000000000E+00  0.53713273023E+03  0.53713273026E+03  0.50400000000E-02 0.  1.
         -1   -1    0    0    0  501 -0.00000000000E+00 -0.00000000000E+00 -0.36567310583E+03  0.36567310587E+03  0.50400000000E-02 0. -1.
    5000001    1    1    2    0    0 -0.12853658204E+03  0.27217637956E+03 -0.18465183203E+03  0.40005241355E+03  0.18800000000E+03 0.  0.
   -5000001    1    1    2    0    0  0.12853658204E+03 -0.27217637956E+03  0.35611145643E+03  0.50275342258E+03  0.18800000000E+03 0.  0.
<mgrwt>
<rscale>  0 0.88637462E+03</rscale>
<asrwt>0</asrwt>
<pdfrwt beam="1">  1        1 0.76733248E-01 0.88637462E+03</pdfrwt>
<pdfrwt beam="2">  1       -1 0.52239015E-01 0.88637462E+03</pdfrwt>
<totfact> 0.16543830E+02</totfact>
</mgrwt>
</event>
<event>
 4    1  0.1545327E-005  0.6500450E+03  0.7818608E-02  0.9806695E-01
          1   -1    0    0  501    0  0.00000000000E+00  0.00000000000E+00  0.20848573904E+03  0.20848573910E+03  0.50400000000E-02 0.  1.
         -1   -1    0    0    0  501 -0.00000000000E+00 -0.00000000000E+00 -0.50669954029E+03  0.50669954032E+03  0.50400000000E-02 0. -1.
    5000001    1    1    2    0    0  0.24819219353E+03 -0.86675151614E+02 -0.11125457767E+03  0.34180919807E+03  0.18800000000E+03 0.  0.
   -5000001    1    1    2    0    0 -0.24819219353E+03  0.86675151614E+02 -0.18695922359E+03  0.37337608134E+03  0.18800000000E+03 0.  0.
<mgrwt>
<rscale>  0 0.65004501E+03</rscale>
<asrwt>0</asrwt>
<pdfrwt beam="1">  1        1 0.29783677E-01 0.65004501E+03</pdfrwt>
<pdfrwt beam="2">  1       -1 0.72385648E-01 0.65004501E+03</pdfrwt>
<totfact> 0.30282361E+02</totfact>
</mgrwt>
</event>
<event>
 4    1  0.1545327E-005  0.1119852E+04  0.7818608E-02  0.9186056E-01
         -1   -1    0    0    0  501 -0.00000000000E+00  0.00000000000E+00  0.30853791228E+04  0.30853791228E+04  0.50400000000E-02 0.  1.
          1   -1    0    0  501    0  0.00000000000E+00 -0.00000000000E+00 -0.10161376330E+03  0.10161376343E+03  0.50400000000E-02 0. -1.
    5000001    1    1    2    0    0 -0.37968514145E+03 -0.36144336147E+03  0.13266515717E+04  0.14388017594E+04  0.18800000000E+03 0.  0.
   -5000001    1    1    2    0    0  0.37968514145E+03  0.36144336147E+03  0.16571137878E+04  0.17481911268E+04  0.18800000000E+03 0.  0.
<mgrwt>
<rscale>  0 0.11198517E+04</rscale>
<asrwt>0</asrwt>
<pdfrwt beam="1">  1        1 0.14516252E-01 0.11198517E+04</pdfrwt>
<pdfrwt beam="2">  1       -1 0.44076845E+00 0.11198517E+04</pdfrwt>
<totfact> 0.15369677E+00</totfact>
</mgrwt>
</event>
<event>
 4    1  0.1545327E-005  0.1181489E+04  0.7818608E-02  0.9129215E-01
          1   -1    0    0  501    0  0.00000000000E+00  0.00000000000E+00  0.66539964910E+03  0.66539964911E+03  0.50400000000E-02 0.  1.
         -1   -1    0    0    0  501 -0.00000000000E+00 -0.00000000000E+00 -0.52446515607E+03  0.52446515610E+03  0.50400000000E-02 0. -1.
    5000001    1    1    2    0    0  0.46290096388E+03  0.29029464009E+03 -0.53231253336E+02  0.58028083439E+03  0.18800000000E+03 0.  0.
   -5000001    1    1    2    0    0 -0.46290096388E+03 -0.29029464009E+03  0.19416574636E+03  0.60958397082E+03  0.18800000000E+03 0.  0.
<mgrwt>
<rscale>  0 0.11814888E+04</rscale>
<asrwt>0</asrwt>
<pdfrwt beam="1">  1        1 0.95057092E-01 0.11814888E+04</pdfrwt>
<pdfrwt beam="2">  1       -1 0.74923594E-01 0.11814888E+04</pdfrwt>
<totfact> 0.58363605E+01</totfact>
</mgrwt>
</event>
<event>
 4    1  0.1545327E-005  0.5875895E+03  0.7818608E-02  0.9931494E-01
          1   -1    0    0  501    0  0.00000000000E+00  0.00000000000E+00  0.81877077940E+03  0.81877077942E+03  0.50400000000E-02 0. -1.
         -1   -1    0    0    0  501 -0.00000000000E+00 -0.00000000000E+00 -0.10542064237E+03  0.10542064249E+03  0.50400000000E-02 0.  1.
    5000001    1    1    2    0    0 -0.17724767380E+03  0.76576966343E+02  0.17264078421E+03  0.32004626230E+03  0.18800000000E+03 0.  0.
   -5000001    1    1    2    0    0  0.17724767380E+03 -0.76576966343E+02  0.54070935282E+03  0.60414515961E+03  0.18800000000E+03 0.  0.
<mgrwt>
<rscale>  0 0.58758945E+03</rscale>
<asrwt>0</asrwt>
<pdfrwt beam="1">  1        1 0.11696725E+00 0.58758945E+03</pdfrwt>
<pdfrwt beam="2">  1       -1 0.15060092E-01 0.58758945E+03</pdfrwt>
<totfact> 0.79032255E+02</totfact>
</mgrwt>
</event>
<event>
 4    1  0.1545327E-005  0.3955503E+03  0.7818608E-02  0.1045331E+00
          1   -1    0    0  501    0  0.00000000000E+00  0.00000000000E+00  0.53303579264E+03  0.53303579266E+03  0.50400000000E-02 0. -1.
         -1   -1    0    0    0  501 -0.00000000000E+00 -0.00000000000E+00 -0.73381584523E+02  0.73381584696E+02  0.50400000000E-02 0.  1.
    5000001    1    1    2    0    0  0.34488579278E+02 -0.20262214559E+02  0.30126012118E+03  0.35735371839E+03  0.18800000000E+03 0.  0.
   -5000001    1    1    2    0    0 -0.34488579278E+02  0.20262214559E+02  0.15839408694E+03  0.24906365897E+03  0.18800000000E+03 0.  0.
<mgrwt>
<rscale>  0 0.39555031E+03</rscale>
<asrwt>0</asrwt>
<pdfrwt beam="1">  1        1 0.76147968E-01 0.39555031E+03</pdfrwt>
<pdfrwt beam="2">  1       -1 0.10483084E-01 0.39555031E+03</pdfrwt>
<totfact> 0.26051689E+03</totfact>
</mgrwt>
</event>
<event>
 4    1  0.1545327E-005  0.3991299E+03  0.7818608E-02  0.1044081E+00
         -1   -1    0    0    0  501 -0.00000000000E+00  0.00000000000E+00  0.14327652329E+03  0.14327652337E+03  0.50400000000E-02 0. -1.
          1   -1    0    0  501    0  0.00000000000E+00 -0.00000000000E+00 -0.27796721972E+03  0.27796721977E+03  0.50400000000E-02 0.  1.
    5000001    1    1    2    0    0 -0.23514194203E+02 -0.44084128339E+02 -0.20313473864E+02  0.19558365198E+03  0.18800000000E+03 0.  0.
   -5000001    1    1    2    0    0  0.23514194203E+02  0.44084128339E+02 -0.11437722257E+03  0.22566009116E+03  0.18800000000E+03 0.  0.
<mgrwt>
<rscale>  0 0.39912994E+03</rscale>
<asrwt>0</asrwt>
<pdfrwt beam="1">  1        1 0.39709603E-01 0.39912994E+03</pdfrwt>
<pdfrwt beam="2">  1       -1 0.20468075E-01 0.39912994E+03</pdfrwt>
<totfact> 0.20704381E+03</totfact>
</mgrwt>
</event>
<event>
 4    1  0.1545327E-005  0.6654309E+03  0.7818608E-02  0.9778247E-01
          1   -1    0    0  501    0  0.00000000000E+00  0.00000000000E+00  0.55890593082E+03  0.55890593084E+03  0.50400000000E-02 0.  1.
         -1   -1    0    0    0  501 -0.00000000000E+00 -0.00000000000E+00 -0.19806478452E+03  0.19806478459E+03  0.50400000000E-02 0. -1.
    5000001    1    1    2    0    0  0.88977359829E+02  0.25412547934E+03  0.11959698993E+03  0.34949130148E+03  0.18800000000E+03 0.  0.
   -5000001    1    1    2    0    0 -0.88977359829E+02 -0.25412547934E+03  0.24124415636E+03  0.40747941394E+03  0.18800000000E+03 0.  0.
<mgrwt>
<rscale>  0 0.66543094E+03</rscale>
<asrwt>0</asrwt>
<pdfrwt beam="1">  1        1 0.79843705E-01 0.66543094E+03</pdfrwt>
<pdfrwt beam="2">  1       -1 0.28294969E-01 0.66543094E+03</pdfrwt>
<totfact> 0.48009657E+02</totfact>
</mgrwt>
</event>
<event>
 4    1  0.1545327E-005  0.5620789E+03  0.7818608E-02  0.9987362E-01
          1   -1    0    0  501    0  0.00000000000E+00  0.00000000000E+00  0.13257467085E+04  0.13257467085E+04  0.50400000000E-02 0.  1.
         -1   -1    0    0    0  501 -0.00000000000E+00 -0.00000000000E+00 -0.59576375360E+02  0.59576375573E+02  0.50400000000E-02 0. -1.
    5000001    1    1    2    0    0  0.16734998831E+02  0.18844860286E+03  0.85140076242E+03  0.89219963817E+03  0.18800000000E+03 0.  0.
   -5000001    1    1    2    0    0 -0.16734998831E+02 -0.18844860286E+03  0.41476957069E+03  0.49312344588E+03  0.18800000000E+03 0.  0.
<mgrwt>
<rscale>  0 0.56207894E+03</rscale>
<asrwt>0</asrwt>
<pdfrwt beam="1">  1        1 0.18939239E+00 0.56207894E+03</pdfrwt>
<pdfrwt beam="2">  1       -1 0.85109105E-02 0.56207894E+03</pdfrwt>
<totfact> 0.84118989E+02</totfact>
</mgrwt>
</event>
<event>
 4    1  0.1545327E-005  0.6073262E+03  0.7818608E-02  0.9890322E-01
         -1   -1    0    0    0  501 -0.00000000000E+00  0.00000000000E+00  0.45236745592E+03  0.45236745595E+03  0.50400000000E-02 0. -1.
          1   -1    0    0  501    0  0.00000000000E+00 -0.00000000000E+00 -0.20384155150E+03  0.20384155156E+03  0.50400000000E-02 0.  1.
    5000001    1    1    2    0    0 -0.20068891509E+03 -0.56951686290E+01  0.26330133214E+03  0.38076248121E+03  0.18800000000E+03 0.  0.
   -5000001    1    1    2    0    0  0.20068891509E+03  0.56951686290E+01 -0.14775427723E+02  0.27544652630E+03  0.18800000000E+03 0.  0.
<mgrwt>
<rscale>  0 0.60732622E+03</rscale>
<asrwt>0</asrwt>
<pdfrwt beam="1">  1        1 0.29120221E-01 0.60732622E+03</pdfrwt>
<pdfrwt beam="2">  1       -1 0.64623923E-01 0.60732622E+03</pdfrwt>
<totfact> 0.39294117E+02</totfact>
</mgrwt>
</event>
<event>
 4    1  0.1545327E-005  0.7318275E+03  0.7818608E-02  0.9664300E-01
          1   -1    0    0  501    0  0.00000000000E+00  0.00000000000E+00  0.36150381054E+04  0.36150381054E+04  0.50400000000E-02 0.  1.
         -1   -1    0    0    0  501 -0.00000000000E+00 -0.00000000000E+00 -0.37037746079E+02  0.37037746421E+02  0.50400000000E-02 0. -1.
    5000001    1    1    2    0    0 -0.31011939517E+03  0.13873915367E+02  0.20221269838E+04  0.20544361911E+04  0.18800000000E+03 0.  0.
   -5000001    1    1    2    0    0  0.31011939517E+03 -0.13873915367E+02  0.15558733755E+04  0.15976396607E+04  0.18800000000E+03 0.  0.
<mgrwt>
<rscale>  0 0.73182748E+03</rscale>
<asrwt>0</asrwt>
<pdfrwt beam="1">  1        1 0.51643422E+00 0.73182748E+03</pdfrwt>
<pdfrwt beam="2">  1       -1 0.52911045E-02 0.73182748E+03</pdfrwt>
<totfact> 0.59004245E+01</totfact>
</mgrwt>
</event>
<event>
 4    1  0.1545327E-005  0.5057185E+03  0.7818608E-02  0.1012297E+00
          1   -1    0    0  501    0  0.00000000000E+00  0.00000000000E+00  0.21657583531E+03  0.21657583536E+03  0.50400000000E-02 0. -1.
         -1   -1    0    0    0  501 -0.00000000000E+00 -0.00000000000E+00 -0.29522130077E+03  0.29522130082E+03  0.50400000000E-02 0.  1.
    5000001    1    1    2    0    0  0.15988641761E+03  0.38301101211E+02  0.68929701556E+00  0.24975010715E+03  0.18800000000E+03 0.  0.
   -5000001    1    1    2    0    0 -0.15988641761E+03 -0.38301101211E+02 -0.79334762484E+02  0.26204702904E+03  0.18800000000E+03 0.  0.
<mgrwt>
<rscale>  0 0.50571850E+03</rscale>
<asrwt>0</asrwt>
<pdfrwt beam="1">  1        1 0.30939405E-01 0.50571850E+03</pdfrwt>
<pdfrwt beam="2">  1       -1 0.42174471E-01 0.50571850E+03</pdfrwt>
<totfact> 0.81998208E+02</totfact>
</mgrwt>
</event>
<event>
 4    1  0.1545327E-005  0.4975763E+03  0.7818608E-02  0.1014413E+00
          1   -1    0    0  501    0  0.00000000000E+00  0.00000000000E+00  0.55254491527E+03  0.55254491530E+03  0.50400000000E-02 0. -1.
         -1   -1    0    0    0  501 -0.00000000000E+00 -0.00000000000E+00 -0.11201901253E+03  0.11201901264E+03  0.50400000000E-02 0.  1.
    5000001    1    1    2    0    0  0.10237798086E+03  0.88719261936E+01  0.38916025194E+03  0.44424054715E+03  0.18800000000E+03 0.  0.
   -5000001    1    1    2    0    0 -0.10237798086E+03 -0.88719261936E+01  0.51365650807E+02  0.22032338079E+03  0.18800000000E+03 0.  0.
<mgrwt>
<rscale>  0 0.49757627E+03</rscale>
<asrwt>0</asrwt>
<pdfrwt beam="1">  1        1 0.78934988E-01 0.49757627E+03</pdfrwt>
<pdfrwt beam="2">  1       -1 0.16002716E-01 0.49757627E+03</pdfrwt>
<totfact> 0.12670433E+03</totfact>
</mgrwt>
</event>
<event>
 4    1  0.1545327E-005  0.4210051E+03  0.7818608E-02  0.1036740E+00
         -1   -1    0    0    0  501 -0.00000000000E+00  0.00000000000E+00  0.41510064705E+02  0.41510065011E+02  0.50400000000E-02 0. -1.
          1   -1    0    0  501    0  0.00000000000E+00 -0.00000000000E+00 -0.10674837812E+04  0.10674837812E+04  0.50400000000E-02 0.  1.
    5000001    1    1    2    0    0  0.42130844191E+02 -0.79946945373E+02 -0.58752928467E+03  0.62345904633E+03  0.18800000000E+03 0.  0.
   -5000001    1    1    2    0    0 -0.42130844191E+02  0.79946945373E+02 -0.43844443182E+03  0.48553479989E+03  0.18800000000E+03 0.  0.
<mgrwt>
<rscale>  0 0.42100509E+03</rscale>
<asrwt>0</asrwt>
<pdfrwt beam="1">  1        1 0.15249767E+00 0.42100509E+03</pdfrwt>
<pdfrwt beam="2">  1       -1 0.59300099E-02 0.42100509E+03</pdfrwt>
<totfact> 0.22126883E+03</totfact>
</mgrwt>
</event>
<event>
 4    1  0.1545327E-005  0.3930522E+03  0.7818608E-02  0.1046212E+00
          1   -1    0    0  501    0  0.00000000000E+00  0.00000000000E+00  0.69667239717E+03  0.69667239718E+03  0.50400000000E-02 0. -1.
         -1   -1    0    0    0  501 -0.00000000000E+00 -0.00000000000E+00 -0.55438541354E+02  0.55438541583E+02  0.50400000000E-02 0.  1.
    5000001    1    1    2    0    0  0.15346188229E+02 -0.51574626880E+02  0.28316607702E+03  0.34412566717E+03  0.18800000000E+03 0.  0.
   -5000001    1    1    2    0    0 -0.15346188229E+02  0.51574626880E+02  0.35806777879E+03  0.40798527159E+03  0.18800000000E+03 0.  0.
<mgrwt>
<rscale>  0 0.39305217E+03</rscale>
<asrwt>0</asrwt>
<pdfrwt beam="1">  1        1 0.99524631E-01 0.39305217E+03</pdfrwt>
<pdfrwt beam="2">  1       -1 0.79197914E-02 0.39305217E+03</pdfrwt>
<totfact> 0.27770045E+03</totfact>
</mgrwt>
</event>
<event>
 4    1  0.1545327E-005  0.5245727E+03  0.7818608E-02  0.1007557E+00
          1   -1    0    0  501    0  0.00000000000E+00  0.00000000000E+00  0.22835027600E+04  0.22835027600E+04  0.50400000000E-02 0.  1.
         -1   -1    0    0    0  501 -0.00000000000E+00 -0.00000000000E+00 -0.30126581304E+02  0.30126581726E+02  0.50400000000E-02 0. -1.
    5000001    1    1    2    0    0 -0.15671479610E+02  0.18114381522E+03  0.10394253176E+04  0.10718244576E+04  0.18800000000E+03 0.  0.
   -5000001    1    1    2    0    0  0.15671479610E+02 -0.18114381522E+03  0.12139508611E+04  0.12418048841E+04  0.18800000000E+03 0.  0.
<mgrwt>
<rscale>  0 0.52457271E+03</rscale>
<asrwt>0</asrwt>
<pdfrwt beam="1">  1        1 0.32621476E+00 0.52457271E+03</pdfrwt>
<pdfrwt beam="2">  1       -1 0.43037963E-02 0.52457271E+03</pdfrwt>
<totfact> 0.60482040E+02</totfact>
</mgrwt>
</event>
<event>
 4    1  0.1545327E-005  0.4284044E+03  0.7818608E-02  0.1034365E+00
         -1   -1    0    0    0  501 -0.00000000000E+00  0.00000000000E+00  0.63378673229E+02  0.63378673430E+02  0.50400000000E-02 0.  1.
          1   -1    0    0  501    0  0.00000000000E+00 -0.00000000000E+00 -0.72394340075E+03  0.72394340077E+03  0.50400000000E-02 0. -1.
    5000001    1    1    2    0    0  0.55835844259E+02 -0.32905709784E+02 -0.18397046672E+03  0.27090507538E+03  0.18800000000E+03 0.  0.
   -5000001    1    1    2    0    0 -0.55835844259E+02  0.32905709784E+02 -0.47659426080E+03  0.51641699882E+03  0.18800000000E+03 0.  0.
<mgrwt>
<rscale>  0 0.42840435E+03</rscale>
<asrwt>0</asrwt>
<pdfrwt beam="1">  1        1 0.10342048E+00 0.42840435E+03</pdfrwt>
<pdfrwt beam="2">  1       -1 0.90540966E-02 0.42840435E+03</pdfrwt>
<totfact> 0.21358530E+03</totfact>
</mgrwt>
</event>
<event>
 4    1  0.1545327E-005  0.7425766E+03  0.7818608E-02  0.9647069E-01
         -1   -1    0    0    0  501 -0.00000000000E+00  0.00000000000E+00  0.36229226511E+03  0.36229226515E+03  0.50400000000E-02 0. -1.
          1   -1    0    0  501    0  0.00000000000E+00 -0.00000000000E+00 -0.38050774551E+03  0.38050774554E+03  0.50400000000E-02 0.  1.
    5000001    1    1    2    0    0 -0.12720540416E+02 -0.25366789934E+03 -0.20410687969E+03  0.37618191562E+03  0.18800000000E+03 0.  0.
   -5000001    1    1    2    0    0  0.12720540416E+02  0.25366789934E+03  0.18589139929E+03  0.36661809507E+03  0.18800000000E+03 0.  0.
<mgrwt>
<rscale>  0 0.74257663E+03</rscale>
<asrwt>0</asrwt>
<pdfrwt beam="1">  1        1 0.54358249E-01 0.74257663E+03</pdfrwt>
<pdfrwt beam="2">  1       -1 0.51756038E-01 0.74257663E+03</pdfrwt>
<totfact> 0.26888510E+02</totfact>
</mgrwt>
</event>
<event>
 4    1  0.1545327E-005  0.4953507E+03  0.7818608E-02  0.1015000E+00
          1   -1    0    0  501    0  0.00000000000E+00  0.00000000000E+00  0.88312057560E+03  0.88312057561E+03  0.50400000000E-02 0.  1.
         -1   -1    0    0    0  501 -0.00000000000E+00 -0.00000000000E+00 -0.69461726638E+02  0.69461726821E+02  0.50400000000E-02 0. -1.
    5000001    1    1    2    0    0 -0.16018982201E+03 -0.18036987980E+02  0.41375455248E+03  0.48220632691E+03  0.18800000000E+03 0.  0.
   -5000001    1    1    2    0    0  0.16018982201E+03  0.18036987980E+02  0.39990429648E+03  0.47037597552E+03  0.18800000000E+03 0.  0.
<mgrwt>
<rscale>  0 0.49535070E+03</rscale>
<asrwt>0</asrwt>
<pdfrwt beam="1">  1        1 0.12616007E+00 0.49535070E+03</pdfrwt>
<pdfrwt beam="2">  1       -1 0.99231045E-02 0.49535070E+03</pdfrwt>
<totfact> 0.13669225E+03</totfact>
</mgrwt>
</event>
<event>
 4    1  0.1545327E-005  0.5311859E+03  0.7818608E-02  0.1005945E+00
          1   -1    0    0  501    0  0.00000000000E+00  0.00000000000E+00  0.25570311526E+04  0.25570311526E+04  0.50400000000E-02 0. -1.
         -1   -1    0    0    0  501 -0.00000000000E+00 -0.00000000000E+00 -0.27586531589E+02  0.27586532050E+02  0.50400000000E-02 0.  1.
    5000001    1    1    2    0    0 -0.13674501391E+03  0.12787744098E+03  0.12063774229E+04  0.12352094256E+04  0.18800000000E+03 0.  0.
   -5000001    1    1    2    0    0  0.13674501391E+03 -0.12787744098E+03  0.13230671981E+04  0.13494082590E+04  0.18800000000E+03 0.  0.
<mgrwt>
<rscale>  0 0.53118592E+03</rscale>
<asrwt>0</asrwt>
<pdfrwt beam="1">  1        1 0.36529021E+00 0.53118592E+03</pdfrwt>
<pdfrwt beam="2">  1       -1 0.39409326E-02 0.53118592E+03</pdfrwt>
<totfact> 0.46768214E+02</totfact>
</mgrwt>
</event>
<event>
 4    1  0.1545327E-005  0.1424741E+04  0.7818608E-02  0.8936102E-01
          1   -1    0    0  501    0  0.00000000000E+00  0.00000000000E+00  0.17896929054E+04  0.17896929054E+04  0.50400000000E-02 0.  1.
         -1   -1    0    0    0  501 -0.00000000000E+00 -0.00000000000E+00 -0.28355235133E+03  0.28355235138E+03  0.50400000000E-02 0. -1.
    5000001    1    1    2    0    0  0.52114184212E+02 -0.48729521702E+03  0.52233672565E+02  0.52748921626E+03  0.18800000000E+03 0.  0.
   -5000001    1    1    2    0    0 -0.52114184212E+02  0.48729521702E+03  0.14539068815E+04  0.15457560406E+04  0.18800000000E+03 0.  0.
<mgrwt>
<rscale>  0 0.14247409E+04</rscale>
<asrwt>0</asrwt>
<pdfrwt beam="1">  1        1 0.25567043E+00 0.14247409E+04</pdfrwt>
<pdfrwt beam="2">  1       -1 0.40507477E-01 0.14247409E+04</pdfrwt>
<totfact> 0.29348947E+01</totfact>
</mgrwt>
</event>
<event>
 4    1  0.1545327E-005  0.8219347E+03  0.7818608E-02  0.9528799E-01
         -1   -1    0    0    0  501 -0.00000000000E+00  0.00000000000E+00  0.29554665175E+03  0.29554665179E+03  0.50400000000E-02 0. -1.
          1   -1    0    0  501    0  0.00000000000E+00 -0.00000000000E+00 -0.57146358965E+03  0.57146358968E+03  0.50400000000E-02 0.  1.
    5000001    1    1    2    0    0  0.21868660881E+03 -0.28175081536E+03 -0.53949183682E+02  0.40677004468E+03  0.18800000000E+03 0.  0.
   -5000001    1    1    2    0    0 -0.21868660881E+03  0.28175081536E+03 -0.22196775422E+03  0.46024019679E+03  0.18800000000E+03 0.  0.
<mgrwt>
<rscale>  0 0.82193467E+03</rscale>
<asrwt>0</asrwt>
<pdfrwt beam="1">  1        1 0.81637655E-01 0.82193467E+03</pdfrwt>
<pdfrwt beam="2">  1       -1 0.42220950E-01 0.82193467E+03</pdfrwt>
<totfact> 0.22703118E+02</totfact>
</mgrwt>
</event>
<event>
 4    1  0.1545327E-005  0.5169175E+03  0.7818608E-02  0.1009455E+00
         -1   -1    0    0    0  501 -0.00000000000E+00  0.00000000000E+00  0.59549504104E+03  0.59549504106E+03  0.50400000000E-02 0. -1.
          1   -1    0    0  501    0  0.00000000000E+00 -0.00000000000E+00 -0.11217712415E+03  0.11217712426E+03  0.50400000000E-02 0.  1.
    5000001    1    1    2    0    0 -0.14998109448E+03  0.82715502260E+02  0.30470450587E+03  0.39689421627E+03  0.18800000000E+03 0.  0.
   -5000001    1    1    2    0    0  0.14998109448E+03 -0.82715502260E+02  0.17861341102E+03  0.31077794905E+03  0.18800000000E+03 0.  0.
<mgrwt>
<rscale>  0 0.51691748E+03</rscale>
<asrwt>0</asrwt>
<pdfrwt beam="1">  1        1 0.16025303E-01 0.51691748E+03</pdfrwt>
<pdfrwt beam="2">  1       -1 0.85070721E-01 0.51691748E+03</pdfrwt>
<totfact> 0.48846904E+02</totfact>
</mgrwt>
</event>
<event>
 4    1  0.1545327E-005  0.4990830E+03  0.7818608E-02  0.1014019E+00
         -1   -1    0    0    0  501 -0.00000000000E+00  0.00000000000E+00  0.11603027645E+03  0.11603027656E+03  0.50400000000E-02 0.  1.
          1   -1    0    0  501    0  0.00000000000E+00 -0.00000000000E+00 -0.53667848007E+03  0.53667848009E+03  0.50400000000E-02 0. -1.
    5000001    1    1    2    0    0  0.90417451793E+02  0.73352815190E+02 -0.59097338937E+02  0.22889396356E+03  0.18800000000E+03 0.  0.
   -5000001    1    1    2    0    0 -0.90417451793E+02 -0.73352815190E+02 -0.36155086468E+03  0.42381479309E+03  0.18800000000E+03 0.  0.
<mgrwt>
<rscale>  0 0.49908297E+03</rscale>
<asrwt>0</asrwt>
<pdfrwt beam="1">  1        1 0.76668353E-01 0.49908297E+03</pdfrwt>
<pdfrwt beam="2">  1       -1 0.16575754E-01 0.49908297E+03</pdfrwt>
<totfact> 0.12451324E+03</totfact>
</mgrwt>
</event>
<event>
 4    1  0.1545327E-005  0.5050144E+03  0.7818608E-02  0.1012478E+00
          1   -1    0    0  501    0  0.00000000000E+00  0.00000000000E+00  0.15448039066E+04  0.15448039066E+04  0.50400000000E-02 0. -1.
         -1   -1    0    0    0  501 -0.00000000000E+00 -0.00000000000E+00 -0.41273780753E+02  0.41273781061E+02  0.50400000000E-02 0.  1.
    5000001    1    1    2    0    0 -0.99584173795E+02 -0.60829887230E+02  0.11338247285E+04  0.11552141783E+04  0.18800000000E+03 0.  0.
   -5000001    1    1    2    0    0  0.99584173795E+02  0.60829887230E+02  0.36970539732E+03  0.43086350931E+03  0.18800000000E+03 0.  0.
<mgrwt>
<rscale>  0 0.50501445E+03</rscale>
<asrwt>0</asrwt>
<pdfrwt beam="1">  1        1 0.22068626E+00 0.50501445E+03</pdfrwt>
<pdfrwt beam="2">  1       -1 0.58962546E-02 0.50501445E+03</pdfrwt>
<totfact> 0.10739099E+03</totfact>
</mgrwt>
</event>
<event>
 4    1  0.1545327E-005  0.4545333E+03  0.7818608E-02  0.1026379E+00
          1   -1    0    0  501    0  0.00000000000E+00  0.00000000000E+00  0.71267900019E+03  0.71267900021E+03  0.50400000000E-02 0.  1.
         -1   -1    0    0    0  501 -0.00000000000E+00 -0.00000000000E+00 -0.72473200322E+02  0.72473200497E+02  0.50400000000E-02 0. -1.
    5000001    1    1    2    0    0 -0.89817304754E+02 -0.60030770912E+02  0.20249772322E+03  0.29668193339E+03  0.18800000000E+03 0.  0.
   -5000001    1    1    2    0    0  0.89817304754E+02  0.60030770912E+02  0.43770807665E+03  0.48847026732E+03  0.18800000000E+03 0.  0.
<mgrwt>
<rscale>  0 0.45453329E+03</rscale>
<asrwt>0</asrwt>
<pdfrwt beam="1">  1        1 0.10181130E+00 0.45453329E+03</pdfrwt>
<pdfrwt beam="2">  1       -1 0.10353313E-01 0.45453329E+03</pdfrwt>
<totfact> 0.17724089E+03</totfact>
</mgrwt>
</event>
<event>
 4    1  0.1545327E-005  0.4009112E+03  0.7818608E-02  0.1043465E+00
         -1   -1    0    0    0  501 -0.00000000000E+00  0.00000000000E+00  0.16619262203E+02  0.16619262967E+02  0.50400000000E-02 0. -1.
          1   -1    0    0  501    0  0.00000000000E+00 -0.00000000000E+00 -0.24178231678E+04  0.24178231678E+04  0.50400000000E-02 0.  1.
    5000001    1    1    2    0    0  0.56400686503E+02 -0.39969891964E+02 -0.11536414716E+04  0.11709019065E+04  0.18800000000E+03 0.  0.
   -5000001    1    1    2    0    0 -0.56400686503E+02  0.39969891964E+02 -0.12475624340E+04  0.12635405243E+04  0.18800000000E+03 0.  0.
<mgrwt>
<rscale>  0 0.40091115E+03</rscale>
<asrwt>0</asrwt>
<pdfrwt beam="1">  1        1 0.34540308E+00 0.40091115E+03</pdfrwt>
<pdfrwt beam="2">  1       -1 0.23741819E-02 0.40091115E+03</pdfrwt>
<totfact> 0.12317543E+03</totfact>
</mgrwt>
</event>
<event>
 4    1  0.1545327E-005  0.7234576E+03  0.7818608E-02  0.9677937E-01
         -1   -1    0    0    0  501 -0.00000000000E+00  0.00000000000E+00  0.19920811475E+03  0.19920811481E+03  0.50400000000E-02 0. -1.
          1   -1    0    0  501    0  0.00000000000E+00 -0.00000000000E+00 -0.65683934515E+03  0.65683934517E+03  0.50400000000E-02 0.  1.
    5000001    1    1    2    0    0 -0.23522513050E+03  0.17650272302E+03 -0.11643802784E+03  0.36794821318E+03  0.18800000000E+03 0.  0.
   -5000001    1    1    2    0    0  0.23522513050E+03 -0.17650272302E+03 -0.34119320256E+03  0.48809924680E+03  0.18800000000E+03 0.  0.
<mgrwt>
<rscale>  0 0.72345761E+03</rscale>
<asrwt>0</asrwt>
<pdfrwt beam="1">  1        1 0.93834191E-01 0.72345761E+03</pdfrwt>
<pdfrwt beam="2">  1       -1 0.28458303E-01 0.72345761E+03</pdfrwt>
<totfact> 0.37774148E+02</totfact>
</mgrwt>
</event>
<event>
 4    1  0.1545327E-005  0.5026781E+03  0.7818608E-02  0.1013082E+00
         -1   -1    0    0    0  501 -0.00000000000E+00  0.00000000000E+00  0.26037685243E+03  0.26037685248E+03  0.50400000000E-02 0. -1.
          1   -1    0    0  501    0  0.00000000000E+00 -0.00000000000E+00 -0.24261498274E+03  0.24261498279E+03  0.50400000000E-02 0.  1.
    5000001    1    1    2    0    0  0.91519768433E+02  0.13788655504E+03  0.29840498451E+02  0.25223605100E+03  0.18800000000E+03 0.  0.
   -5000001    1    1    2    0    0 -0.91519768433E+02 -0.13788655504E+03 -0.12078628755E+02  0.25075578427E+03  0.18800000000E+03 0.  0.
<mgrwt>
<rscale>  0 0.50267813E+03</rscale>
<asrwt>0</asrwt>
<pdfrwt beam="1">  1        1 0.34659283E-01 0.50267813E+03</pdfrwt>
<pdfrwt beam="2">  1       -1 0.37196693E-01 0.50267813E+03</pdfrwt>
<totfact> 0.88871221E+02</totfact>
</mgrwt>
</event>
<event>
 4    1  0.1545327E-005  0.7829169E+03  0.7818608E-02  0.9585079E-01
         -1   -1    0    0    0  501 -0.00000000000E+00  0.00000000000E+00  0.14321531455E+03  0.14321531464E+03  0.50400000000E-02 0. -1.
          1   -1    0    0  501    0  0.00000000000E+00 -0.00000000000E+00 -0.10699952218E+04  0.10699952218E+04  0.50400000000E-02 0.  1.
    5000001    1    1    2    0    0 -0.11053678025E+03 -0.26730128712E+03 -0.75007637961E+03  0.82560700890E+03  0.18800000000E+03 0.  0.
   -5000001    1    1    2    0    0  0.11053678025E+03  0.26730128712E+03 -0.17670352762E+03  0.38760352754E+03  0.18800000000E+03 0.  0.
<mgrwt>
<rscale>  0 0.78291686E+03</rscale>
<asrwt>0</asrwt>
<pdfrwt beam="1">  1        1 0.15285645E+00 0.78291686E+03</pdfrwt>
<pdfrwt beam="2">  1       -1 0.20459331E-01 0.78291686E+03</pdfrwt>
<totfact> 0.30405467E+02</totfact>
</mgrwt>
</event>
<event>
 4    1  0.1545327E-005  0.7951767E+03  0.7818608E-02  0.9567025E-01
         -1   -1    0    0    0  501 -0.00000000000E+00  0.00000000000E+00  0.21973305249E+03  0.21973305255E+03  0.50400000000E-02 0. -1.
          1   -1    0    0  501    0  0.00000000000E+00 -0.00000000000E+00 -0.71940238296E+03  0.71940238298E+03  0.50400000000E-02 0.  1.
    5000001    1    1    2    0    0 -0.31669420972E+03 -0.12210931725E+03 -0.14737256273E+03  0.41505250279E+03  0.18800000000E+03 0.  0.
   -5000001    1    1    2    0    0  0.31669420972E+03  0.12210931725E+03 -0.35229676773E+03  0.52408293273E+03  0.18800000000E+03 0.  0.
<mgrwt>
<rscale>  0 0.79517666E+03</rscale>
<asrwt>0</asrwt>
<pdfrwt beam="1">  1        1 0.10277177E+00 0.79517666E+03</pdfrwt>
<pdfrwt beam="2">  1       -1 0.31390436E-01 0.79517666E+03</pdfrwt>
<totfact> 0.27779817E+02</totfact>
</mgrwt>
</event>
<event>
 4    1  0.1545327E-005  0.1261838E+04  0.7818608E-02  0.9060388E-01
         -1   -1    0    0    0  501 -0.00000000000E+00  0.00000000000E+00  0.40488778546E+03  0.40488778549E+03  0.50400000000E-02 0.  1.
          1   -1    0    0  501    0  0.00000000000E+00 -0.00000000000E+00 -0.98313301402E+03  0.98313301404E+03  0.50400000000E-02 0. -1.
    5000001    1    1    2    0    0  0.44823134000E+03  0.28440780801E+03  0.23779234755E+02  0.56365644450E+03  0.18800000000E+03 0.  0.
   -5000001    1    1    2    0    0 -0.44823134000E+03 -0.28440780801E+03 -0.60202446332E+03  0.82436435503E+03  0.18800000000E+03 0.  0.
<mgrwt>
<rscale>  0 0.12618376E+04</rscale>
<asrwt>0</asrwt>
<pdfrwt beam="1">  1        1 0.14044757E+00 0.12618376E+04</pdfrwt>
<pdfrwt beam="2">  1       -1 0.57841112E-01 0.12618376E+04</pdfrwt>
<totfact> 0.53049939E+01</totfact>
</mgrwt>
</event>
<event>
 4    1  0.1545327E-005  0.4947242E+03  0.7818608E-02  0.1015165E+00
         -1   -1    0    0    0  501 -0.00000000000E+00  0.00000000000E+00  0.33985418698E+02  0.33985419071E+02  0.50400000000E-02 0.  1.
          1   -1    0    0  501    0  0.00000000000E+00 -0.00000000000E+00 -0.18004194914E+04  0.18004194914E+04  0.50400000000E-02 0. -1.
    5000001    1    1    2    0    0 -0.11140275037E+03  0.11518207850E+03 -0.83536792858E+03  0.87112631696E+03  0.18800000000E+03 0.  0.
   -5000001    1    1    2    0    0  0.11140275037E+03 -0.11518207850E+03 -0.93106614408E+03  0.96327859348E+03  0.18800000000E+03 0.  0.
<mgrwt>
<rscale>  0 0.49472421E+03</rscale>
<asrwt>0</asrwt>
<pdfrwt beam="1">  1        1 0.25720272E+00 0.49472421E+03</pdfrwt>
<pdfrwt beam="2">  1       -1 0.48550610E-02 0.49472421E+03</pdfrwt>
<totfact> 0.10005098E+03</totfact>
</mgrwt>
</event>
<event>
 4    1  0.1545327E-005  0.6186510E+03  0.7818608E-02  0.9867449E-01
          1   -1    0    0  501    0  0.00000000000E+00  0.00000000000E+00  0.80204455670E+02  0.80204455828E+02  0.50400000000E-02 0. -1.
         -1   -1    0    0    0  501 -0.00000000000E+00 -0.00000000000E+00 -0.11929795882E+04  0.11929795882E+04  0.50400000000E-02 0.  1.
    5000001    1    1    2    0    0 -0.12919933662E+03  0.20401416732E+03 -0.46379974557E+03  0.55566937386E+03  0.18800000000E+03 0.  0.
   -5000001    1    1    2    0    0  0.12919933662E+03 -0.20401416732E+03 -0.64897538696E+03  0.71751467019E+03  0.18800000000E+03 0.  0.
<mgrwt>
<rscale>  0 0.61865104E+03</rscale>
<asrwt>0</asrwt>
<pdfrwt beam="1">  1        1 0.11457780E-01 0.61865104E+03</pdfrwt>
<pdfrwt beam="2">  1       -1 0.17042564E+00 0.61865104E+03</pdfrwt>
<totfact> 0.13938991E+02</totfact>
</mgrwt>
</event>
<event>
 4    1  0.1545327E-005  0.4893349E+03  0.7818608E-02  0.1016601E+00
         -1   -1    0    0    0  501 -0.00000000000E+00  0.00000000000E+00  0.59187128258E+02  0.59187128472E+02  0.50400000000E-02 0. -1.
          1   -1    0    0  501    0  0.00000000000E+00 -0.00000000000E+00 -0.10114050141E+04  0.10114050141E+04  0.50400000000E-02 0.  1.
    5000001    1    1    2    0    0 -0.83092805820E+02  0.11005019199E+03 -0.31381371145E+03  0.39094565432E+03  0.18800000000E+03 0.  0.
   -5000001    1    1    2    0    0  0.83092805820E+02 -0.11005019199E+03 -0.63840417442E+03  0.67964648830E+03  0.18800000000E+03 0.  0.
<mgrwt>
<rscale>  0 0.48933489E+03</rscale>
<asrwt>0</asrwt>
<pdfrwt beam="1">  1        1 0.14448642E+00 0.48933489E+03</pdfrwt>
<pdfrwt beam="2">  1       -1 0.84553046E-02 0.48933489E+03</pdfrwt>
<totfact> 0.14046525E+03</totfact>
</mgrwt>
</event>
<event>
 4    1  0.1545327E-005  0.8585577E+03  0.7818608E-02  0.9478923E-01
          1   -1    0    0  501    0  0.00000000000E+00  0.00000000000E+00  0.34335419851E+03  0.34335419855E+03  0.50400000000E-02 0.  1.
         -1   -1    0    0    0  501 -0.00000000000E+00 -0.00000000000E+00 -0.53670619343E+03  0.53670619346E+03  0.50400000000E-02 0. -1.
    5000001    1    1    2    0    0  0.36299559879E+03  0.12984161810E+03 -0.11477245408E+03  0.44400604359E+03  0.18800000000E+03 0.  0.
   -5000001    1    1    2    0    0 -0.36299559879E+03 -0.12984161810E+03 -0.78579540836E+02  0.43605434841E+03  0.18800000000E+03 0.  0.
<mgrwt>
<rscale>  0 0.85855769E+03</rscale>
<asrwt>0</asrwt>
<pdfrwt beam="1">  1        1 0.49050600E-01 0.85855769E+03</pdfrwt>
<pdfrwt beam="2">  1       -1 0.76672313E-01 0.85855769E+03</pdfrwt>
<totfact> 0.13952316E+02</totfact>
</mgrwt>
</event>
<event>
 4    1  0.1545327E-005  0.1037056E+04  0.7818608E-02  0.9268811E-01
         -1   -1    0    0    0  501 -0.00000000000E+00  0.00000000000E+00  0.13110955700E+03  0.13110955710E+03  0.50400000000E-02 0. -1.
          1   -1    0    0  501    0  0.00000000000E+00 -0.00000000000E+00 -0.20507366295E+04  0.20507366295E+04  0.50400000000E-02 0.  1.
    5000001    1    1    2    0    0  0.42556978123E+03 -0.93277329120E+02 -0.51992103634E+03  0.70389784973E+03  0.18800000000E+03 0.  0.
   -5000001    1    1    2    0    0 -0.42556978123E+03  0.93277329120E+02 -0.13997060362E+04  0.14779483369E+04  0.18800000000E+03 0.  0.
<mgrwt>
<rscale>  0 0.10370558E+04</rscale>
<asrwt>0</asrwt>
<pdfrwt beam="1">  1        1 0.29296236E+00 0.10370558E+04</pdfrwt>
<pdfrwt beam="2">  1       -1 0.18729938E-01 0.10370558E+04</pdfrwt>
<totfact> 0.79262336E+01</totfact>
</mgrwt>
</event>
<event>
 4    1  0.1545327E-005  0.5509555E+03  0.7818608E-02  0.1001273E+00
          1   -1    0    0  501    0  0.00000000000E+00  0.00000000000E+00  0.27808069779E+03  0.27808069783E+03  0.50400000000E-02 0.  1.
         -1   -1    0    0    0  501 -0.00000000000E+00 -0.00000000000E+00 -0.27289911895E+03  0.27289911900E+03  0.50400000000E-02 0. -1.
    5000001    1    1    2    0    0 -0.58194309398E+02 -0.18236811528E+03  0.65037688589E+02  0.27607717771E+03  0.18800000000E+03 0.  0.
   -5000001    1    1    2    0    0  0.58194309398E+02  0.18236811528E+03 -0.59856109754E+02  0.27490263912E+03  0.18800000000E+03 0.  0.
<mgrwt>
<rscale>  0 0.55095545E+03</rscale>
<asrwt>0</asrwt>
<pdfrwt beam="1">  1        1 0.39725814E-01 0.55095545E+03</pdfrwt>
<pdfrwt beam="2">  1       -1 0.38985588E-01 0.55095545E+03</pdfrwt>
<totfact> 0.68548544E+02</totfact>
</mgrwt>
</event>
<event>
 4    1  0.1545327E-005  0.5346281E+03  0.7818608E-02  0.1005116E+00
          1   -1    0    0  501    0  0.00000000000E+00  0.00000000000E+00  0.27551881527E+03  0.27551881531E+03  0.50400000000E-02 0. -1.
         -1   -1    0    0    0  501 -0.00000000000E+00 -0.00000000000E+00 -0.25935363332E+03  0.25935363337E+03  0.50400000000E-02 0.  1.
    5000001    1    1    2    0    0  0.10392648209E+03  0.15507787539E+03  0.43636765501E+02  0.26851076034E+03  0.18800000000E+03 0.  0.
   -5000001    1    1    2    0    0 -0.10392648209E+03 -0.15507787539E+03 -0.27471583557E+02  0.26636168834E+03  0.18800000000E+03 0.  0.
<mgrwt>
<rscale>  0 0.53462812E+03</rscale>
<asrwt>0</asrwt>
<pdfrwt beam="1">  1        1 0.39359831E-01 0.53462812E+03</pdfrwt>
<pdfrwt beam="2">  1       -1 0.37050519E-01 0.53462812E+03</pdfrwt>
<totfact> 0.76007233E+02</totfact>
</mgrwt>
</event>
<event>
 4    1  0.1545327E-005  0.1066037E+04  0.7818608E-02  0.9238941E-01
         -1   -1    0    0    0  501 -0.00000000000E+00  0.00000000000E+00  0.66196257104E+03  0.66196257106E+03  0.50400000000E-02 0.  1.
          1   -1    0    0  501    0  0.00000000000E+00 -0.00000000000E+00 -0.42919167070E+03  0.42919167073E+03  0.50400000000E-02 0. -1.
    5000001    1    1    2    0    0  0.45223501970E+03  0.20726384268E+03  0.15314837391E+03  0.55341958581E+03  0.18800000000E+03 0.  0.
   -5000001    1    1    2    0    0 -0.45223501970E+03 -0.20726384268E+03  0.79622526433E+02  0.53773465598E+03  0.18800000000E+03 0.  0.
<mgrwt>
<rscale>  0 0.10660372E+04</rscale>
<asrwt>0</asrwt>
<pdfrwt beam="1">  1        1 0.61313096E-01 0.10660372E+04</pdfrwt>
<pdfrwt beam="2">  1       -1 0.94566081E-01 0.10660372E+04</pdfrwt>
<totfact> 0.65204879E+01</totfact>
</mgrwt>
</event>
<event>
 4    1  0.1545327E-005  0.1582304E+04  0.7818608E-02  0.8831493E-01
          1   -1    0    0  501    0  0.00000000000E+00  0.00000000000E+00  0.13414043145E+04  0.13414043145E+04  0.50400000000E-02 0.  1.
         -1   -1    0    0    0  501 -0.00000000000E+00 -0.00000000000E+00 -0.46661683315E+03  0.46661683318E+03  0.50400000000E-02 0. -1.
    5000001    1    1    2    0    0 -0.75214063401E+03  0.67083928403E+02  0.27434247589E+03  0.82512034326E+03  0.18800000000E+03 0.  0.
   -5000001    1    1    2    0    0  0.75214063401E+03 -0.67083928403E+02  0.60044500547E+03  0.98290080444E+03  0.18800000000E+03 0.  0.
<mgrwt>
<rscale>  0 0.15823044E+04</rscale>
<asrwt>0</asrwt>
<pdfrwt beam="1">  1        1 0.19162919E+00 0.15823044E+04</pdfrwt>
<pdfrwt beam="2">  1       -1 0.66659548E-01 0.15823044E+04</pdfrwt>
<totfact> 0.21745114E+01</totfact>
</mgrwt>
</event>
<event>
 4    1  0.1545327E-005  0.6416957E+03  0.7818608E-02  0.9822488E-01
          1   -1    0    0  501    0  0.00000000000E+00  0.00000000000E+00  0.80586906958E+03  0.80586906960E+03  0.50400000000E-02 0.  1.
         -1   -1    0    0    0  501 -0.00000000000E+00 -0.00000000000E+00 -0.12774203446E+03  0.12774203455E+03  0.50400000000E-02 0. -1.
    5000001    1    1    2    0    0 -0.74588708394E+02  0.12613976275E+03  0.65152993383E+03  0.69376506819E+03  0.18800000000E+03 0.  0.
   -5000001    1    1    2    0    0  0.74588708394E+02 -0.12613976275E+03  0.26597101293E+02  0.23984603596E+03  0.18800000000E+03 0.  0.
<mgrwt>
<rscale>  0 0.64169574E+03</rscale>
<asrwt>0</asrwt>
<pdfrwt beam="1">  1        1 0.11512415E+00 0.64169574E+03</pdfrwt>
<pdfrwt beam="2">  1       -1 0.18248862E-01 0.64169574E+03</pdfrwt>
<totfact> 0.59092407E+02</totfact>
</mgrwt>
</event>
<event>
 4    1  0.1545327E-005  0.4203662E+03  0.7818608E-02  0.1036947E+00
          1   -1    0    0  501    0  0.00000000000E+00  0.00000000000E+00  0.82458446690E+03  0.82458446691E+03  0.50400000000E-02 0. -1.
         -1   -1    0    0    0  501 -0.00000000000E+00 -0.00000000000E+00 -0.53574772864E+02  0.53574773101E+02  0.50400000000E-02 0.  1.
    5000001    1    1    2    0    0  0.20014448917E+02  0.83321198151E+02  0.46614062825E+03  0.50987653950E+03  0.18800000000E+03 0.  0.
   -5000001    1    1    2    0    0 -0.20014448917E+02 -0.83321198151E+02  0.30486906579E+03  0.36828270052E+03  0.18800000000E+03 0.  0.
<mgrwt>
<rscale>  0 0.42036615E+03</rscale>
<asrwt>0</asrwt>
<pdfrwt beam="1">  1        1 0.11779778E+00 0.42036615E+03</pdfrwt>
<pdfrwt beam="2">  1       -1 0.76535390E-02 0.42036615E+03</pdfrwt>
<totfact> 0.22799186E+03</totfact>
</mgrwt>
</event>
<event>
 4    1  0.1545327E-005  0.1080605E+04  0.7818608E-02  0.9224304E-01
          1   -1    0    0  501    0  0.00000000000E+00  0.00000000000E+00  0.11463202070E+04  0.11463202070E+04  0.50400000000E-02 0.  1.
         -1   -1    0    0    0  501 -0.00000000000E+00 -0.00000000000E+00 -0.25466427093E+03  0.25466427098E+03  0.50400000000E-02 0. -1.
    5000001    1    1    2    0    0  0.37667001577E+03  0.22419386101E+03  0.77493927426E+03  0.90995498069E+03  0.18800000000E+03 0.  0.
   -5000001    1    1    2    0    0 -0.37667001577E+03 -0.22419386101E+03  0.11671666185E+03  0.49102949733E+03  0.18800000000E+03 0.  0.
<mgrwt>
<rscale>  0 0.10806050E+04</rscale>
<asrwt>0</asrwt>
<pdfrwt beam="1">  1        1 0.16376003E+00 0.10806050E+04</pdfrwt>
<pdfrwt beam="2">  1       -1 0.36380610E-01 0.10806050E+04</pdfrwt>
<totfact> 0.97331516E+01</totfact>
</mgrwt>
</event>
<event>
 4    1  0.1545327E-005  0.5390765E+03  0.7818608E-02  0.1004054E+00
          1   -1    0    0  501    0  0.00000000000E+00  0.00000000000E+00  0.34340838045E+03  0.34340838049E+03  0.50400000000E-02 0.  1.
         -1   -1    0    0    0  501 -0.00000000000E+00 -0.00000000000E+00 -0.21155819141E+03  0.21155819147E+03  0.50400000000E-02 0. -1.
    5000001    1    1    2    0    0 -0.12383640206E+03 -0.13905491467E+03  0.13078420412E+02  0.26492785593E+03  0.18800000000E+03 0.  0.
   -5000001    1    1    2    0    0  0.12383640206E+03  0.13905491467E+03  0.11877176863E+03  0.29003871602E+03  0.18800000000E+03 0.  0.
<mgrwt>
<rscale>  0 0.53907645E+03</rscale>
<asrwt>0</asrwt>
<pdfrwt beam="1">  1        1 0.49058340E-01 0.53907645E+03</pdfrwt>
<pdfrwt beam="2">  1       -1 0.30222599E-01 0.53907645E+03</pdfrwt>
<totfact> 0.81925182E+02</totfact>
</mgrwt>
</event>
<event>
 4    1  0.1545327E-005  0.4668939E+03  0.7818608E-02  0.1022801E+00
         -1   -1    0    0    0  501 -0.00000000000E+00  0.00000000000E+00  0.25678729994E+02  0.25678730489E+02  0.50400000000E-02 0. -1.
          1   -1    0    0  501    0  0.00000000000E+00 -0.00000000000E+00 -0.21222805460E+04  0.21222805460E+04  0.50400000000E-02 0.  1.
    5000001    1    1    2    0    0  0.11969678584E+03  0.57159251634E+02 -0.12299472377E+04  0.12512828250E+04  0.18800000000E+03 0.  0.
   -5000001    1    1    2    0    0 -0.11969678584E+03 -0.57159251634E+02 -0.86665457832E+03  0.89667645152E+03  0.18800000000E+03 0.  0.
<mgrwt>
<rscale>  0 0.46689386E+03</rscale>
<asrwt>0</asrwt>
<pdfrwt beam="1">  1        1 0.30318282E+00 0.46689386E+03</pdfrwt>
<pdfrwt beam="2">  1       -1 0.36683914E-02 0.46689386E+03</pdfrwt>
<totfact> 0.97127369E+02</totfact>
</mgrwt>
</event>
<event>
 4    1  0.1545327E-005  0.4807624E+03  0.7818608E-02  0.1018926E+00
          1   -1    0    0  501    0  0.00000000000E+00  0.00000000000E+00  0.69825637723E+02  0.69825637905E+02  0.50400000000E-02 0.  1.
         -1   -1    0    0    0  501 -0.00000000000E+00 -0.00000000000E+00 -0.82753446112E+03  0.82753446114E+03  0.50400000000E-02 0. -1.
    5000001    1    1    2    0    0 -0.66106942185E+02  0.12326270449E+03 -0.47894144121E+03  0.53319107854E+03  0.18800000000E+03 0.  0.
   -5000001    1    1    2    0    0  0.66106942185E+02 -0.12326270449E+03 -0.27876738219E+03  0.36416902051E+03  0.18800000000E+03 0.  0.
<mgrwt>
<rscale>  0 0.48076240E+03</rscale>
<asrwt>0</asrwt>
<pdfrwt beam="1">  1        1 0.99750916E-02 0.48076240E+03</pdfrwt>
<pdfrwt beam="2">  1       -1 0.11821920E+00 0.48076240E+03</pdfrwt>
<totfact> 0.44008847E+02</totfact>
</mgrwt>
</event>
<event>
 4    1  0.1545327E-005  0.7084017E+03  0.7818608E-02  0.9702971E-01
         -1   -1    0    0    0  501 -0.00000000000E+00  0.00000000000E+00  0.14494114216E+03  0.14494114224E+03  0.50400000000E-02 0.  1.
          1   -1    0    0  501    0  0.00000000000E+00 -0.00000000000E+00 -0.86558049965E+03  0.86558049966E+03  0.50400000000E-02 0. -1.
    5000001    1    1    2    0    0  0.19007976610E+03 -0.20741890139E+03 -0.50966693404E+03  0.61176572460E+03  0.18800000000E+03 0.  0.
   -5000001    1    1    2    0    0 -0.19007976610E+03  0.20741890139E+03 -0.21097242345E+03  0.39875591731E+03  0.18800000000E+03 0.  0.
<mgrwt>
<rscale>  0 0.70840166E+03</rscale>
<asrwt>0</asrwt>
<pdfrwt beam="1">  1        1 0.12365435E+00 0.70840166E+03</pdfrwt>
<pdfrwt beam="2">  1       -1 0.20705878E-01 0.70840166E+03</pdfrwt>
<totfact> 0.42728613E+02</totfact>
</mgrwt>
</event>
<event>
 4    1  0.1545327E-005  0.5500213E+03  0.7818608E-02  0.1001489E+00
          1   -1    0    0  501    0  0.00000000000E+00  0.00000000000E+00  0.37686908254E+03  0.37686908257E+03  0.50400000000E-02 0.  1.
         -1   -1    0    0    0  501 -0.00000000000E+00 -0.00000000000E+00 -0.20068205075E+03  0.20068205081E+03  0.50400000000E-02 0. -1.
    5000001    1    1    2    0    0  0.13030861419E+03 -0.14668760644E+03  0.13251049865E+03  0.30232535631E+03  0.18800000000E+03 0.  0.
   -5000001    1    1    2    0    0 -0.13030861419E+03  0.14668760644E+03  0.43676533142E+02  0.27522577707E+03  0.18800000000E+03 0.  0.
<mgrwt>
<rscale>  0 0.55002131E+03</rscale>
<asrwt>0</asrwt>
<pdfrwt beam="1">  1        1 0.53838440E-01 0.55002131E+03</pdfrwt>
<pdfrwt beam="2">  1       -1 0.28668865E-01 0.55002131E+03</pdfrwt>
<totfact> 0.79563939E+02</totfact>
</mgrwt>
</event>
<event>
 4    1  0.1545327E-005  0.5271893E+03  0.7818608E-02  0.1006916E+00
          1   -1    0    0  501    0  0.00000000000E+00  0.00000000000E+00  0.55387485132E+03  0.55387485134E+03  0.50400000000E-02 0.  1.
         -1   -1    0    0    0  501 -0.00000000000E+00 -0.00000000000E+00 -0.12544738407E+03  0.12544738418E+03  0.50400000000E-02 0. -1.
    5000001    1    1    2    0    0 -0.66868640168E+02 -0.15490321792E+03  0.11717012156E+03  0.27845872108E+03  0.18800000000E+03 0.  0.
   -5000001    1    1    2    0    0  0.66868640168E+02  0.15490321792E+03  0.31125734568E+03  0.40086351443E+03  0.18800000000E+03 0.  0.
<mgrwt>
<rscale>  0 0.52718934E+03</rscale>
<asrwt>0</asrwt>
<pdfrwt beam="1">  1        1 0.79124978E-01 0.52718934E+03</pdfrwt>
<pdfrwt beam="2">  1       -1 0.17921055E-01 0.52718934E+03</pdfrwt>
<totfact> 0.10499343E+03</totfact>
</mgrwt>
</event>
<event>
 4    1  0.1545327E-005  0.5368843E+03  0.7818608E-02  0.1004576E+00
         -1   -1    0    0    0  501 -0.00000000000E+00  0.00000000000E+00  0.65143797139E+02  0.65143797334E+02  0.50400000000E-02 0. -1.
          1   -1    0    0  501    0  0.00000000000E+00 -0.00000000000E+00 -0.11061866645E+04  0.11061866645E+04  0.50400000000E-02 0.  1.
    5000001    1    1    2    0    0  0.14148210949E+03 -0.12922177121E+03 -0.52340454672E+03  0.58822765405E+03  0.18800000000E+03 0.  0.
   -5000001    1    1    2    0    0 -0.14148210949E+03  0.12922177121E+03 -0.51763832061E+03  0.58310280777E+03  0.18800000000E+03 0.  0.
<mgrwt>
<rscale>  0 0.53688434E+03</rscale>
<asrwt>0</asrwt>
<pdfrwt beam="1">  1        1 0.15802665E+00 0.53688434E+03</pdfrwt>
<pdfrwt beam="2">  1       -1 0.93062574E-02 0.53688434E+03</pdfrwt>
<totfact> 0.10329253E+03</totfact>
</mgrwt>
</event>
<event>
 4    1  0.1545327E-005  0.4571793E+03  0.7818608E-02  0.1025602E+00
         -1   -1    0    0    0  501 -0.00000000000E+00  0.00000000000E+00  0.92734477044E+02  0.92734477181E+02  0.50400000000E-02 0. -1.
          1   -1    0    0  501    0  0.00000000000E+00 -0.00000000000E+00 -0.56347131393E+03  0.56347131395E+03  0.50400000000E-02 0.  1.
    5000001    1    1    2    0    0  0.30237877213E+02  0.91017061816E+02 -0.10933004727E+03  0.23768780784E+03  0.18800000000E+03 0.  0.
   -5000001    1    1    2    0    0 -0.30237877213E+02 -0.91017061816E+02 -0.36140678961E+03  0.41851798329E+03  0.18800000000E+03 0.  0.
<mgrwt>
<rscale>  0 0.45717925E+03</rscale>
<asrwt>0</asrwt>
<pdfrwt beam="1">  1        1 0.80495900E-01 0.45717925E+03</pdfrwt>
<pdfrwt beam="2">  1       -1 0.13247783E-01 0.45717925E+03</pdfrwt>
<totfact> 0.16712116E+03</totfact>
</mgrwt>
</event>
<event>
 4    1  0.1545327E-005  0.5043630E+03  0.7818608E-02  0.1012646E+00
         -1   -1    0    0    0  501 -0.00000000000E+00  0.00000000000E+00  0.29647299235E+02  0.29647299663E+02  0.50400000000E-02 0. -1.
          1   -1    0    0  501    0  0.00000000000E+00 -0.00000000000E+00 -0.21450692781E+04  0.21450692781E+04  0.50400000000E-02 0.  1.
    5000001    1    1    2    0    0 -0.73948780290E+02  0.79994022207E+02 -0.50579876784E+03  0.55049419547E+03  0.18800000000E+03 0.  0.
   -5000001    1    1    2    0    0  0.73948780290E+02 -0.79994022207E+02 -0.16096232110E+04  0.16242223823E+04  0.18800000000E+03 0.  0.
<mgrwt>
<rscale>  0 0.50436301E+03</rscale>
<asrwt>0</asrwt>
<pdfrwt beam="1">  1        1 0.30643837E+00 0.50436301E+03</pdfrwt>
<pdfrwt beam="2">  1       -1 0.42353298E-02 0.50436301E+03</pdfrwt>
<totfact> 0.75504537E+02</totfact>
</mgrwt>
</event>
<event>
 4    1  0.1545327E-005  0.4260821E+03  0.7818608E-02  0.1035105E+00
          1   -1    0    0  501    0  0.00000000000E+00  0.00000000000E+00  0.45677417406E+02  0.45677417684E+02  0.50400000000E-02 0.  1.
         -1   -1    0    0    0  501 -0.00000000000E+00 -0.00000000000E+00 -0.99363058987E+03  0.99363058988E+03  0.50400000000E-02 0. -1.
    5000001    1    1    2    0    0 -0.75044494873E+02 -0.60358438051E+00 -0.31198519648E+03  0.37190160439E+03  0.18800000000E+03 0.  0.
   -5000001    1    1    2    0    0  0.75044494873E+02  0.60358438051E+00 -0.63596797598E+03  0.66740640317E+03  0.18800000000E+03 0.  0.
<mgrwt>
<rscale>  0 0.42608205E+03</rscale>
<asrwt>0</asrwt>
<pdfrwt beam="1">  1        1 0.65253459E-02 0.42608205E+03</pdfrwt>
<pdfrwt beam="2">  1       -1 0.14194721E+00 0.42608205E+03</pdfrwt>
<totfact> 0.50186330E+02</totfact>
</mgrwt>
</event>
<event>
 4    1  0.1545327E-005  0.8713931E+03  0.7818608E-02  0.9462065E-01
         -1   -1    0    0    0  501 -0.00000000000E+00  0.00000000000E+00  0.10682606878E+04  0.10682606878E+04  0.50400000000E-02 0. -1.
          1   -1    0    0  501    0  0.00000000000E+00 -0.00000000000E+00 -0.17770147841E+03  0.17770147848E+03  0.50400000000E-02 0.  1.
    5000001    1    1    2    0    0 -0.29834766397E+03 -0.88979192746E+02  0.10223793586E+03  0.37778991631E+03  0.18800000000E+03 0.  0.
   -5000001    1    1    2    0    0  0.29834766397E+03  0.88979192746E+02  0.78832127355E+03  0.86817225000E+03  0.18800000000E+03 0.  0.
<mgrwt>
<rscale>  0 0.87139315E+03</rscale>
<asrwt>0</asrwt>
<pdfrwt beam="1">  1        1 0.25385926E-01 0.87139315E+03</pdfrwt>
<pdfrwt beam="2">  1       -1 0.15260867E+00 0.87139315E+03</pdfrwt>
<totfact> 0.64389142E+01</totfact>
</mgrwt>
</event>
<event>
 4    1  0.1545327E-005  0.8731696E+03  0.7818608E-02  0.9459756E-01
          1   -1    0    0  501    0  0.00000000000E+00  0.00000000000E+00  0.16848007658E+04  0.16848007658E+04  0.50400000000E-02 0.  1.
         -1   -1    0    0    0  501 -0.00000000000E+00 -0.00000000000E+00 -0.11313284771E+03  0.11313284782E+03  0.50400000000E-02 0. -1.
    5000001    1    1    2    0    0  0.13254177329E+02 -0.21284937071E+03  0.14680786370E+04  0.14953526047E+04  0.18800000000E+03 0.  0.
   -5000001    1    1    2    0    0 -0.13254177329E+02  0.21284937071E+03  0.10358928106E+03  0.30258100895E+03  0.18800000000E+03 0.  0.
<mgrwt>
<rscale>  0 0.87316965E+03</rscale>
<asrwt>0</asrwt>
<pdfrwt beam="1">  1        1 0.24068581E+00 0.87316965E+03</pdfrwt>
<pdfrwt beam="2">  1       -1 0.16161837E-01 0.87316965E+03</pdfrwt>
<totfact> 0.17380204E+02</totfact>
</mgrwt>
</event>
<event>
 4    1  0.1545327E-005  0.5649852E+03  0.7818608E-02  0.9980838E-01
         -1   -1    0    0    0  501 -0.00000000000E+00  0.00000000000E+00  0.14794755956E+04  0.14794755956E+04  0.50400000000E-02 0.  1.
          1   -1    0    0  501    0  0.00000000000E+00 -0.00000000000E+00 -0.53939421976E+02  0.53939422211E+02  0.50400000000E-02 0. -1.
    5000001    1    1    2    0    0 -0.16337966255E+03 -0.12540630949E+03  0.83530518535E+03  0.88062387503E+03  0.18800000000E+03 0.  0.
   -5000001    1    1    2    0    0  0.16337966255E+03  0.12540630949E+03  0.59023098829E+03  0.65279114281E+03  0.18800000000E+03 0.  0.
<mgrwt>
<rscale>  0 0.56498516E+03</rscale>
<asrwt>0</asrwt>
<pdfrwt beam="1">  1        1 0.77056303E-02 0.56498516E+03</pdfrwt>
<pdfrwt beam="2">  1       -1 0.21135370E+00 0.56498516E+03</pdfrwt>
<totfact> 0.12563092E+02</totfact>
</mgrwt>
</event>
<event>
 4    1  0.1545327E-005  0.4694834E+03  0.7818608E-02  0.1022066E+00
          1   -1    0    0  501    0  0.00000000000E+00  0.00000000000E+00  0.10423407707E+03  0.10423407719E+03  0.50400000000E-02 0.  1.
         -1   -1    0    0    0  501 -0.00000000000E+00 -0.00000000000E+00 -0.52865312177E+03  0.52865312180E+03  0.50400000000E-02 0. -1.
    5000001    1    1    2    0    0  0.12591429553E+03 -0.62259137519E+02 -0.21947653276E+03  0.32131691281E+03  0.18800000000E+03 0.  0.
   -5000001    1    1    2    0    0 -0.12591429553E+03  0.62259137519E+02 -0.20494251195E+03  0.31157028618E+03  0.18800000000E+03 0.  0.
<mgrwt>
<rscale>  0 0.46948342E+03</rscale>
<asrwt>0</asrwt>
<pdfrwt beam="1">  1        1 0.14890583E-01 0.46948342E+03</pdfrwt>
<pdfrwt beam="2">  1       -1 0.75521873E-01 0.46948342E+03</pdfrwt>
<totfact> 0.69275106E+02</totfact>
</mgrwt>
</event>
<event>
 4    1  0.1545327E-005  0.4316196E+03  0.7818608E-02  0.1033350E+00
         -1   -1    0    0    0  501 -0.00000000000E+00  0.00000000000E+00  0.55312148409E+02  0.55312148638E+02  0.50400000000E-02 0.  1.
          1   -1    0    0  501    0  0.00000000000E+00 -0.00000000000E+00 -0.84201872348E+03  0.84201872349E+03  0.50400000000E-02 0. -1.
    5000001    1    1    2    0    0  0.10574986378E+03  0.22187920224E+01 -0.37989468939E+03  0.43686603411E+03  0.18800000000E+03 0.  0.
   -5000001    1    1    2    0    0 -0.10574986378E+03 -0.22187920224E+01 -0.40681188568E+03  0.46046483802E+03  0.18800000000E+03 0.  0.
<mgrwt>
<rscale>  0 0.43161958E+03</rscale>
<asrwt>0</asrwt>
<pdfrwt beam="1">  1        1 0.12028838E+00 0.43161958E+03</pdfrwt>
<pdfrwt beam="2">  1       -1 0.79017360E-02 0.43161958E+03</pdfrwt>
<totfact> 0.21014315E+03</totfact>
</mgrwt>
</event>
<event>
 4    1  0.1545327E-005  0.4956092E+03  0.7818608E-02  0.1014931E+00
          1   -1    0    0  501    0  0.00000000000E+00  0.00000000000E+00  0.31443880709E+03  0.31443880714E+03  0.50400000000E-02 0.  1.
         -1   -1    0    0    0  501 -0.00000000000E+00 -0.00000000000E+00 -0.19529116849E+03  0.19529116856E+03  0.50400000000E-02 0. -1.
    5000001    1    1    2    0    0  0.12480106306E+03 -0.76641917339E+02 -0.10286690959E+02  0.23853533249E+03  0.18800000000E+03 0.  0.
   -5000001    1    1    2    0    0 -0.12480106306E+03  0.76641917339E+02  0.12943432956E+03  0.27119464320E+03  0.18800000000E+03 0.  0.
<mgrwt>
<rscale>  0 0.49560921E+03</rscale>
<asrwt>0</asrwt>
<pdfrwt beam="1">  1        1 0.44919829E-01 0.49560921E+03</pdfrwt>
<pdfrwt beam="2">  1       -1 0.27898739E-01 0.49560921E+03</pdfrwt>
<totfact> 0.10534944E+03</totfact>
</mgrwt>
</event>
<event>
 4    1  0.1545327E-005  0.4290601E+03  0.7818608E-02  0.1034157E+00
         -1   -1    0    0    0  501 -0.00000000000E+00  0.00000000000E+00  0.50459276863E+02  0.50459277114E+02  0.50400000000E-02 0. -1.
          1   -1    0    0  501    0  0.00000000000E+00 -0.00000000000E+00 -0.91208467008E+03  0.91208467009E+03  0.50400000000E-02 0.  1.
    5000001    1    1    2    0    0  0.94110022748E+02 -0.42395614658E+02 -0.44204046094E+03  0.49132255559E+03  0.18800000000E+03 0.  0.
   -5000001    1    1    2    0    0 -0.94110022748E+02  0.42395614658E+02 -0.41958493228E+03  0.47122139162E+03  0.18800000000E+03 0.  0.
<mgrwt>
<rscale>  0 0.42906006E+03</rscale>
<asrwt>0</asrwt>
<pdfrwt beam="1">  1        1 0.13029780E+00 0.42906006E+03</pdfrwt>
<pdfrwt beam="2">  1       -1 0.72084687E-02 0.42906006E+03</pdfrwt>
<totfact> 0.21341498E+03</totfact>
</mgrwt>
</event>
<event>
 4    1  0.1545327E-005  0.1039078E+04  0.7818608E-02  0.9266694E-01
         -1   -1    0    0    0  501 -0.00000000000E+00  0.00000000000E+00  0.22894513100E+03  0.22894513106E+03  0.50400000000E-02 0.  1.
          1   -1    0    0  501    0  0.00000000000E+00 -0.00000000000E+00 -0.11789753018E+04  0.11789753018E+04  0.50400000000E-02 0. -1.
    5000001    1    1    2    0    0 -0.35993327682E+02 -0.39335079691E+03 -0.95245196411E+02  0.44770081137E+03  0.18800000000E+03 0.  0.
   -5000001    1    1    2    0    0  0.35993327682E+02  0.39335079691E+03 -0.85478497435E+03  0.96021962146E+03  0.18800000000E+03 0.  0.
<mgrwt>
<rscale>  0 0.10390778E+04</rscale>
<asrwt>0</asrwt>
<pdfrwt beam="1">  1        1 0.16842504E+00 0.10390778E+04</pdfrwt>
<pdfrwt beam="2">  1       -1 0.32706448E-01 0.10390778E+04</pdfrwt>
<totfact> 0.11193695E+02</totfact>
</mgrwt>
</event>
<event>
 4    1  0.1545327E-005  0.5609889E+03  0.7818608E-02  0.9989820E-01
         -1   -1    0    0    0  501 -0.00000000000E+00  0.00000000000E+00  0.21935292910E+04  0.21935292910E+04  0.50400000000E-02 0. -1.
          1   -1    0    0  501    0  0.00000000000E+00 -0.00000000000E+00 -0.35867832716E+02  0.35867833070E+02  0.50400000000E-02 0.  1.
    5000001    1    1    2    0    0  0.77502464060E+02 -0.18136440018E+03  0.13434398255E+04  0.13707932895E+04  0.18800000000E+03 0.  0.
   -5000001    1    1    2    0    0 -0.77502464060E+02  0.18136440018E+03  0.81422163278E+03  0.85860383465E+03  0.18800000000E+03 0.  0.
<mgrwt>
<rscale>  0 0.56098892E+03</rscale>
<asrwt>0</asrwt>
<pdfrwt beam="1">  1        1 0.51239777E-02 0.56098892E+03</pdfrwt>
<pdfrwt beam="2">  1       -1 0.31336123E+00 0.56098892E+03</pdfrwt>
<totfact> 0.49275565E+01</totfact>
</mgrwt>
</event>
<event>
 4    1  0.1545327E-005  0.8875130E+03  0.7818608E-02  0.9441327E-01
          1   -1    0    0  501    0  0.00000000000E+00  0.00000000000E+00  0.12703666644E+04  0.12703666644E+04  0.50400000000E-02 0. -1.
         -1   -1    0    0    0  501 -0.00000000000E+00 -0.00000000000E+00 -0.15501022699E+03  0.15501022707E+03  0.50400000000E-02 0.  1.
    5000001    1    1    2    0    0 -0.36100101390E+01 -0.40132982534E+03  0.52186816982E+03  0.68466710711E+03  0.18800000000E+03 0.  0.
   -5000001    1    1    2    0    0  0.36100101390E+01  0.40132982534E+03  0.59348826756E+03  0.74070978434E+03  0.18800000000E+03 0.  0.
<mgrwt>
<rscale>  0 0.88751299E+03</rscale>
<asrwt>0</asrwt>
<pdfrwt beam="1">  1        1 0.18148095E+00 0.88751299E+03</pdfrwt>
<pdfrwt beam="2">  1       -1 0.22144318E-01 0.88751299E+03</pdfrwt>
<totfact> 0.19169713E+02</totfact>
</mgrwt>
</event>
<event>
 4    1  0.1545327E-005  0.5941760E+03  0.7818608E-02  0.9917563E-01
          1   -1    0    0  501    0  0.00000000000E+00  0.00000000000E+00  0.13873784905E+03  0.13873784914E+03  0.50400000000E-02 0.  1.
         -1   -1    0    0    0  501 -0.00000000000E+00 -0.00000000000E+00 -0.63617305181E+03  0.63617305183E+03  0.50400000000E-02 0. -1.
    5000001    1    1    2    0    0 -0.21893884949E+03 -0.45938538781E+02 -0.17881671477E+03  0.34258427670E+03  0.18800000000E+03 0.  0.
   -5000001    1    1    2    0    0  0.21893884949E+03  0.45938538781E+02 -0.31861848799E+03  0.43232662426E+03  0.18800000000E+03 0.  0.
<mgrwt>
<rscale>  0 0.59417600E+03</rscale>
<asrwt>0</asrwt>
<pdfrwt beam="1">  1        1 0.19819693E-01 0.59417600E+03</pdfrwt>
<pdfrwt beam="2">  1       -1 0.90881863E-01 0.59417600E+03</pdfrwt>
<totfact> 0.31857756E+02</totfact>
</mgrwt>
</event>
<event>
 4    1  0.1545327E-005  0.4855165E+03  0.7818608E-02  0.1017630E+00
         -1   -1    0    0    0  501 -0.00000000000E+00  0.00000000000E+00  0.97699284872E+02  0.97699285002E+02  0.50400000000E-02 0.  1.
          1   -1    0    0  501    0  0.00000000000E+00 -0.00000000000E+00 -0.60319353732E+03  0.60319353734E+03  0.50400000000E-02 0. -1.
    5000001    1    1    2    0    0  0.33346810954E+02  0.14738553285E+03 -0.29236269452E+03  0.37901774396E+03  0.18800000000E+03 0.  0.
   -5000001    1    1    2    0    0 -0.33346810954E+02 -0.14738553285E+03 -0.21313155793E+03  0.32187507837E+03  0.18800000000E+03 0.  0.
<mgrwt>
<rscale>  0 0.48551654E+03</rscale>
<asrwt>0</asrwt>
<pdfrwt beam="1">  1        1 0.86170504E-01 0.48551654E+03</pdfrwt>
<pdfrwt beam="2">  1       -1 0.13957041E-01 0.48551654E+03</pdfrwt>
<totfact> 0.13996642E+03</totfact>
</mgrwt>
</event>
<event>
 4    1  0.1545327E-005  0.6548319E+03  0.7818608E-02  0.9797755E-01
         -1   -1    0    0    0  501 -0.00000000000E+00  0.00000000000E+00  0.30195734353E+03  0.30195734357E+03  0.50400000000E-02 0.  1.
          1   -1    0    0  501    0  0.00000000000E+00 -0.00000000000E+00 -0.35502096669E+03  0.35502096672E+03  0.50400000000E-02 0. -1.
    5000001    1    1    2    0    0 -0.10956322433E+03 -0.23985385727E+03  0.21825922579E+02  0.32458333886E+03  0.18800000000E+03 0.  0.
   -5000001    1    1    2    0    0  0.10956322433E+03  0.23985385727E+03 -0.74889545736E+02  0.33239497143E+03  0.18800000000E+03 0.  0.
<mgrwt>
<rscale>  0 0.65483185E+03</rscale>
<asrwt>0</asrwt>
<pdfrwt beam="1">  1        1 0.50717281E-01 0.65483185E+03</pdfrwt>
<pdfrwt beam="2">  1       -1 0.43136763E-01 0.65483185E+03</pdfrwt>
<totfact> 0.41515734E+02</totfact>
</mgrwt>
</event>
<event>
 4    1  0.1545327E-005  0.4127699E+03  0.7818608E-02  0.1039445E+00
          1   -1    0    0  501    0  0.00000000000E+00  0.00000000000E+00  0.63284858079E+03  0.63284858081E+03  0.50400000000E-02 0.  1.
         -1   -1    0    0    0  501 -0.00000000000E+00 -0.00000000000E+00 -0.67306390698E+02  0.67306390887E+02  0.50400000000E-02 0. -1.
    5000001    1    1    2    0    0  0.15626724475E+02  0.41889108481E+02  0.15984537054E+03  0.25078563438E+03  0.18800000000E+03 0.  0.
   -5000001    1    1    2    0    0 -0.15626724475E+02 -0.41889108481E+02  0.40569681955E+03  0.44936933732E+03  0.18800000000E+03 0.  0.
<mgrwt>
<rscale>  0 0.41276993E+03</rscale>
<asrwt>0</asrwt>
<pdfrwt beam="1">  1        1 0.90406934E-01 0.41276993E+03</pdfrwt>
<pdfrwt beam="2">  1       -1 0.96151994E-02 0.41276993E+03</pdfrwt>
<totfact> 0.23573325E+03</totfact>
</mgrwt>
</event>
<event>
 4    1  0.1545327E-005  0.4366415E+03  0.7818608E-02  0.1031782E+00
          1   -1    0    0  501    0  0.00000000000E+00  0.00000000000E+00  0.68444682262E+03  0.68444682264E+03  0.50400000000E-02 0.  1.
         -1   -1    0    0    0  501 -0.00000000000E+00 -0.00000000000E+00 -0.69638651287E+02  0.69638651469E+02  0.50400000000E-02 0. -1.
    5000001    1    1    2    0    0 -0.43316147724E+01  0.88037484976E+02  0.42390504420E+03  0.47202632145E+03  0.18800000000E+03 0.  0.
   -5000001    1    1    2    0    0  0.43316147724E+01 -0.88037484976E+02  0.19090312714E+03  0.28205915266E+03  0.18800000000E+03 0.  0.
<mgrwt>
<rscale>  0 0.43664152E+03</rscale>
<asrwt>0</asrwt>
<pdfrwt beam="1">  1        1 0.97778121E-01 0.43664152E+03</pdfrwt>
<pdfrwt beam="2">  1       -1 0.99483784E-02 0.43664152E+03</pdfrwt>
<totfact> 0.20003782E+03</totfact>
</mgrwt>
</event>
<event>
 4    1  0.1545327E-005  0.4449805E+03  0.7818608E-02  0.1029230E+00
         -1   -1    0    0    0  501 -0.00000000000E+00  0.00000000000E+00  0.45566205682E+02  0.45566205961E+02  0.50400000000E-02 0. -1.
          1   -1    0    0  501    0  0.00000000000E+00 -0.00000000000E+00 -0.10863733819E+04  0.10863733819E+04  0.50400000000E-02 0.  1.
    5000001    1    1    2    0    0 -0.26032880324E+02 -0.10766352047E+03 -0.63095687067E+03  0.66762243607E+03  0.18800000000E+03 0.  0.
   -5000001    1    1    2    0    0  0.26032880324E+02  0.10766352047E+03 -0.40985030552E+03  0.46431715177E+03  0.18800000000E+03 0.  0.
<mgrwt>
<rscale>  0 0.44498051E+03</rscale>
<asrwt>0</asrwt>
<pdfrwt beam="1">  1        1 0.15519618E+00 0.44498051E+03</pdfrwt>
<pdfrwt beam="2">  1       -1 0.65094587E-02 0.44498051E+03</pdfrwt>
<totfact> 0.18600980E+03</totfact>
</mgrwt>
</event>
<event>
 4    1  0.1545327E-005  0.5674008E+03  0.7818608E-02  0.9975447E-01
          1   -1    0    0  501    0  0.00000000000E+00  0.00000000000E+00  0.76551163153E+02  0.76551163319E+02  0.50400000000E-02 0.  1.
         -1   -1    0    0    0  501 -0.00000000000E+00 -0.00000000000E+00 -0.10514002257E+04  0.10514002257E+04  0.50400000000E-02 0. -1.
    5000001    1    1    2    0    0  0.15041645877E+03 -0.12648632279E+03 -0.64791821622E+03  0.70268479124E+03  0.18800000000E+03 0.  0.
   -5000001    1    1    2    0    0 -0.15041645877E+03  0.12648632279E+03 -0.32693084634E+03  0.42526659781E+03  0.18800000000E+03 0.  0.
<mgrwt>
<rscale>  0 0.56740078E+03</rscale>
<asrwt>0</asrwt>
<pdfrwt beam="1">  1        1 0.10935881E-01 0.56740078E+03</pdfrwt>
<pdfrwt beam="2">  1       -1 0.15020002E+00 0.56740078E+03</pdfrwt>
<totfact> 0.21110759E+02</totfact>
</mgrwt>
</event>
<event>
 4    1  0.1545327E-005  0.7562724E+03  0.7818608E-02  0.9625561E-01
         -1   -1    0    0    0  501 -0.00000000000E+00  0.00000000000E+00  0.39615550567E+03  0.39615550570E+03  0.50400000000E-02 0. -1.
          1   -1    0    0  501    0  0.00000000000E+00 -0.00000000000E+00 -0.36093650353E+03  0.36093650357E+03  0.50400000000E-02 0.  1.
    5000001    1    1    2    0    0  0.23386113140E+03  0.30993522441E+02  0.24587274614E+03  0.38916453398E+03  0.18800000000E+03 0.  0.
   -5000001    1    1    2    0    0 -0.23386113140E+03 -0.30993522441E+02 -0.21065374400E+03  0.36792747529E+03  0.18800000000E+03 0.  0.
<mgrwt>
<rscale>  0 0.75627239E+03</rscale>
<asrwt>0</asrwt>
<pdfrwt beam="1">  1        1 0.51562357E-01 0.75627239E+03</pdfrwt>
<pdfrwt beam="2">  1       -1 0.56593644E-01 0.75627239E+03</pdfrwt>
<totfact> 0.24244922E+02</totfact>
</mgrwt>
</event>
<event>
 4    1  0.1545327E-005  0.6080100E+03  0.7818608E-02  0.9888926E-01
          1   -1    0    0  501    0  0.00000000000E+00  0.00000000000E+00  0.27453218277E+03  0.27453218282E+03  0.50400000000E-02 0.  1.
         -1   -1    0    0    0  501 -0.00000000000E+00 -0.00000000000E+00 -0.33664186059E+03  0.33664186062E+03  0.50400000000E-02 0. -1.
    5000001    1    1    2    0    0 -0.51012415725E+02  0.21792324186E+03  0.52939679801E+02  0.29705120029E+03  0.18800000000E+03 0.  0.
   -5000001    1    1    2    0    0  0.51012415725E+02 -0.21792324186E+03 -0.11504935761E+03  0.31412284315E+03  0.18800000000E+03 0.  0.
<mgrwt>
<rscale>  0 0.60800995E+03</rscale>
<asrwt>0</asrwt>
<pdfrwt beam="1">  1        1 0.39218883E-01 0.60800995E+03</pdfrwt>
<pdfrwt beam="2">  1       -1 0.48091694E-01 0.60800995E+03</pdfrwt>
<totfact> 0.47356509E+02</totfact>
</mgrwt>
</event>
<event>
 4    1  0.1545327E-005  0.6849142E+03  0.7818608E-02  0.9743384E-01
         -1   -1    0    0    0  501 -0.00000000000E+00  0.00000000000E+00  0.52391163413E+03  0.52391163415E+03  0.50400000000E-02 0. -1.
          1   -1    0    0  501    0  0.00000000000E+00 -0.00000000000E+00 -0.22384854604E+03  0.22384854609E+03  0.50400000000E-02 0.  1.
    5000001    1    1    2    0    0  0.82662593096E+02  0.26567354024E+03  0.22340969521E+03  0.40332545940E+03  0.18800000000E+03 0.  0.
   -5000001    1    1    2    0    0 -0.82662593096E+02 -0.26567354024E+03  0.76653392875E+02  0.34443472084E+03  0.18800000000E+03 0.  0.
<mgrwt>
<rscale>  0 0.68491418E+03</rscale>
<asrwt>0</asrwt>
<pdfrwt beam="1">  1        1 0.31978364E-01 0.68491418E+03</pdfrwt>
<pdfrwt beam="2">  1       -1 0.74844518E-01 0.68491418E+03</pdfrwt>
<totfact> 0.25741685E+02</totfact>
</mgrwt>
</event>
<event>
 4    1  0.1545327E-005  0.1484652E+04  0.7818608E-02  0.8894724E-01
          1   -1    0    0  501    0  0.00000000000E+00  0.00000000000E+00  0.81555785269E+03  0.81555785271E+03  0.50400000000E-02 0. -1.
         -1   -1    0    0    0  501 -0.00000000000E+00 -0.00000000000E+00 -0.67567003381E+03  0.67567003383E+03  0.50400000000E-02 0.  1.
    5000001    1    1    2    0    0  0.60475796448E+03  0.26206825912E+03  0.35632431492E+03  0.77247846924E+03  0.18800000000E+03 0.  0.
   -5000001    1    1    2    0    0 -0.60475796448E+03 -0.26206825912E+03 -0.21643649604E+03  0.71874941729E+03  0.18800000000E+03 0.  0.
<mgrwt>
<rscale>  0 0.14846522E+04</rscale>
<asrwt>0</asrwt>
<pdfrwt beam="1">  1        1 0.11650827E+00 0.14846522E+04</pdfrwt>
<pdfrwt beam="2">  1       -1 0.96524290E-01 0.14846522E+04</pdfrwt>
<totfact> 0.24206200E+01</totfact>
</mgrwt>
</event>
<event>
 4    1  0.1545327E-005  0.8248126E+03  0.7818608E-02  0.9524780E-01
         -1   -1    0    0    0  501 -0.00000000000E+00  0.00000000000E+00  0.39829003245E+03  0.39829003248E+03  0.50400000000E-02 0. -1.
          1   -1    0    0  501    0  0.00000000000E+00 -0.00000000000E+00 -0.42702288059E+03  0.42702288062E+03  0.50400000000E-02 0.  1.
    5000001    1    1    2    0    0  0.17081391094E+03 -0.23696628935E+03  0.20803972673E+03  0.40491349985E+03  0.18800000000E+03 0.  0.
   -5000001    1    1    2    0    0 -0.17081391094E+03  0.23696628935E+03 -0.23677257487E+03  0.42039941326E+03  0.18800000000E+03 0.  0.
<mgrwt>
<rscale>  0 0.82481260E+03</rscale>
<asrwt>0</asrwt>
<pdfrwt beam="1">  1        1 0.61003269E-01 0.82481260E+03</pdfrwt>
<pdfrwt beam="2">  1       -1 0.56898576E-01 0.82481260E+03</pdfrwt>
<totfact> 0.19176089E+02</totfact>
</mgrwt>
</event>
<event>
 4    1  0.1545327E-005  0.5906000E+03  0.7818608E-02  0.9925102E-01
         -1   -1    0    0    0  501 -0.00000000000E+00  0.00000000000E+00  0.19626623760E+02  0.19626624407E+02  0.50400000000E-02 0. -1.
          1   -1    0    0  501    0  0.00000000000E+00 -0.00000000000E+00 -0.44430511750E+04  0.44430511750E+04  0.50400000000E-02 0.  1.
    5000001    1    1    2    0    0 -0.50068912336E+02  0.22214028795E+03 -0.22284244054E+04  0.22479040313E+04  0.18800000000E+03 0.  0.
   -5000001    1    1    2    0    0  0.50068912336E+02 -0.22214028795E+03 -0.21950001458E+04  0.22147737681E+04  0.18800000000E+03 0.  0.
<mgrwt>
<rscale>  0 0.59060002E+03</rscale>
<asrwt>0</asrwt>
<pdfrwt beam="1">  1        1 0.63472096E+00 0.59060002E+03</pdfrwt>
<pdfrwt beam="2">  1       -1 0.28038063E-02 0.59060002E+03</pdfrwt>
<totfact> 0.37518544E+01</totfact>
</mgrwt>
</event>
<event>
 4    1  0.1545327E-005  0.5647506E+03  0.7818608E-02  0.9981363E-01
         -1   -1    0    0    0  501 -0.00000000000E+00  0.00000000000E+00  0.41202088831E+02  0.41202089139E+02  0.50400000000E-02 0. -1.
          1   -1    0    0  501    0  0.00000000000E+00 -0.00000000000E+00 -0.19352370611E+04  0.19352370611E+04  0.50400000000E-02 0.  1.
    5000001    1    1    2    0    0  0.94635783074E+02 -0.18824223668E+03 -0.94401000478E+03  0.98533748545E+03  0.18800000000E+03 0.  0.
   -5000001    1    1    2    0    0 -0.94635783074E+02  0.18824223668E+03 -0.95002496749E+03  0.99110166479E+03  0.18800000000E+03 0.  0.
<mgrwt>
<rscale>  0 0.56475060E+03</rscale>
<asrwt>0</asrwt>
<pdfrwt beam="1">  1        1 0.27646238E+00 0.56475060E+03</pdfrwt>
<pdfrwt beam="2">  1       -1 0.58860139E-02 0.56475060E+03</pdfrwt>
<totfact> 0.61264371E+02</totfact>
</mgrwt>
</event>
<event>
 4    1  0.1545327E-005  0.5900360E+03  0.7818608E-02  0.9926297E-01
         -1   -1    0    0    0  501 -0.00000000000E+00  0.00000000000E+00  0.50029803625E+03  0.50029803628E+03  0.50400000000E-02 0. -1.
          1   -1    0    0  501    0  0.00000000000E+00 -0.00000000000E+00 -0.17396751476E+03  0.17396751484E+03  0.50400000000E-02 0.  1.
    5000001    1    1    2    0    0  0.14989787357E+03  0.12249478680E+03  0.29942277487E+03  0.40307858217E+03  0.18800000000E+03 0.  0.
   -5000001    1    1    2    0    0 -0.14989787357E+03 -0.12249478680E+03  0.26907746613E+02  0.27118696894E+03  0.18800000000E+03 0.  0.
<mgrwt>
<rscale>  0 0.59003595E+03</rscale>
<asrwt>0</asrwt>
<pdfrwt beam="1">  1        1 0.24852502E-01 0.59003595E+03</pdfrwt>
<pdfrwt beam="2">  1       -1 0.71471148E-01 0.59003595E+03</pdfrwt>
<totfact> 0.39399353E+02</totfact>
</mgrwt>
</event>
<event>
 4    1  0.1545327E-005  0.4521511E+03  0.7818608E-02  0.1027082E+00
          1   -1    0    0  501    0  0.00000000000E+00  0.00000000000E+00  0.21375030861E+04  0.21375030861E+04  0.50400000000E-02 0.  1.
         -1   -1    0    0    0  501 -0.00000000000E+00 -0.00000000000E+00 -0.23911151515E+02  0.23911152046E+02  0.50400000000E-02 0. -1.
    5000001    1    1    2    0    0 -0.72206440319E+02  0.59606532649E+02  0.65686373421E+03  0.68962357419E+03  0.18800000000E+03 0.  0.
   -5000001    1    1    2    0    0  0.72206440319E+02 -0.59606532649E+02  0.14567282004E+04  0.14717906640E+04  0.18800000000E+03 0.  0.
<mgrwt>
<rscale>  0 0.45215113E+03</rscale>
<asrwt>0</asrwt>
<pdfrwt beam="1">  1        1 0.30535739E+00 0.45215113E+03</pdfrwt>
<pdfrwt beam="2">  1       -1 0.34158810E-02 0.45215113E+03</pdfrwt>
<totfact> 0.10592898E+03</totfact>
</mgrwt>
</event>
<event>
 4    1  0.1545327E-005  0.5344128E+03  0.7818608E-02  0.1005168E+00
         -1   -1    0    0    0  501 -0.00000000000E+00  0.00000000000E+00  0.44082018077E+02  0.44082018365E+02  0.50400000000E-02 0. -1.
          1   -1    0    0  501    0  0.00000000000E+00 -0.00000000000E+00 -0.16196913874E+04  0.16196913874E+04  0.50400000000E-02 0.  1.
    5000001    1    1    2    0    0  0.74076891032E+02 -0.13918753506E+03 -0.11172047845E+04  0.11438317561E+04  0.18800000000E+03 0.  0.
   -5000001    1    1    2    0    0 -0.74076891032E+02  0.13918753506E+03 -0.45840458481E+03  0.51994164969E+03  0.18800000000E+03 0.  0.
<mgrwt>
<rscale>  0 0.53441282E+03</rscale>
<asrwt>0</asrwt>
<pdfrwt beam="1">  1        1 0.23138445E+00 0.53441282E+03</pdfrwt>
<pdfrwt beam="2">  1       -1 0.62974322E-02 0.53441282E+03</pdfrwt>
<totfact> 0.86928862E+02</totfact>
</mgrwt>
</event>
<event>
 4    1  0.1545327E-005  0.7287547E+03  0.7818608E-02  0.9669283E-01
          1   -1    0    0  501    0  0.00000000000E+00  0.00000000000E+00  0.87905118516E+03  0.87905118517E+03  0.50400000000E-02 0.  1.
         -1   -1    0    0    0  501 -0.00000000000E+00 -0.00000000000E+00 -0.15103881408E+03  0.15103881417E+03  0.50400000000E-02 0. -1.
    5000001    1    1    2    0    0  0.16079679768E+03  0.24406808226E+03  0.20915276760E+03  0.40560290817E+03  0.18800000000E+03 0.  0.
   -5000001    1    1    2    0    0 -0.16079679768E+03 -0.24406808226E+03  0.51885960347E+03  0.62448709117E+03  0.18800000000E+03 0.  0.
<mgrwt>
<rscale>  0 0.72875469E+03</rscale>
<asrwt>0</asrwt>
<pdfrwt beam="1">  1        1 0.12557874E+00 0.72875469E+03</pdfrwt>
<pdfrwt beam="2">  1       -1 0.21576973E-01 0.72875469E+03</pdfrwt>
<totfact> 0.38871926E+02</totfact>
</mgrwt>
</event>
<event>
 4    1  0.1545327E-005  0.1116948E+04  0.7818608E-02  0.9188829E-01
         -1   -1    0    0    0  501 -0.00000000000E+00  0.00000000000E+00  0.15039661734E+03  0.15039661742E+03  0.50400000000E-02 0.  1.
          1   -1    0    0  501    0  0.00000000000E+00 -0.00000000000E+00 -0.20738054297E+04  0.20738054297E+04  0.50400000000E-02 0. -1.
    5000001    1    1    2    0    0  0.27221948935E+03  0.40646535952E+03 -0.57746834719E+03  0.77982769307E+03  0.18800000000E+03 0.  0.
   -5000001    1    1    2    0    0 -0.27221948935E+03 -0.40646535952E+03 -0.13459404651E+04  0.14443743540E+04  0.18800000000E+03 0.  0.
<mgrwt>
<rscale>  0 0.11169482E+04</rscale>
<asrwt>0</asrwt>
<pdfrwt beam="1">  1        1 0.29625790E+00 0.11169482E+04</pdfrwt>
<pdfrwt beam="2">  1       -1 0.21485232E-01 0.11169482E+04</pdfrwt>
<totfact> 0.60536991E+01</totfact>
</mgrwt>
</event>
<event>
 4    1  0.1545327E-005  0.4483760E+03  0.7818608E-02  0.1028207E+00
          1   -1    0    0  501    0  0.00000000000E+00  0.00000000000E+00  0.11728094869E+03  0.11728094880E+03  0.50400000000E-02 0.  1.
         -1   -1    0    0    0  501 -0.00000000000E+00 -0.00000000000E+00 -0.42854574351E+03  0.42854574354E+03  0.50400000000E-02 0. -1.
    5000001    1    1    2    0    0  0.47360885534E+02  0.10113475291E+03 -0.21582571716E+03  0.30723937233E+03  0.18800000000E+03 0.  0.
   -5000001    1    1    2    0    0 -0.47360885534E+02 -0.10113475291E+03 -0.95439077649E+02  0.23858732000E+03  0.18800000000E+03 0.  0.
<mgrwt>
<rscale>  0 0.44837596E+03</rscale>
<asrwt>0</asrwt>
<pdfrwt beam="1">  1        1 0.16754421E-01 0.44837596E+03</pdfrwt>
<pdfrwt beam="2">  1       -1 0.61220820E-01 0.44837596E+03</pdfrwt>
<totfact> 0.90341771E+02</totfact>
</mgrwt>
</event>
<event>
 4    1  0.1545327E-005  0.7924933E+03  0.7818608E-02  0.9570947E-01
          1   -1    0    0  501    0  0.00000000000E+00  0.00000000000E+00  0.22977647071E+04  0.22977647071E+04  0.50400000000E-02 0.  1.
         -1   -1    0    0    0  501 -0.00000000000E+00 -0.00000000000E+00 -0.68332242104E+02  0.68332242290E+02  0.50400000000E-02 0. -1.
    5000001    1    1    2    0    0  0.54095427211E+02 -0.34318117884E+03  0.10218356906E+04  0.10955326629E+04  0.18800000000E+03 0.  0.
   -5000001    1    1    2    0    0 -0.54095427211E+02  0.34318117884E+03  0.12075967744E+04  0.12705642866E+04  0.18800000000E+03 0.  0.
<mgrwt>
<rscale>  0 0.79249332E+03</rscale>
<asrwt>0</asrwt>
<pdfrwt beam="1">  1        1 0.32825204E+00 0.79249332E+03</pdfrwt>
<pdfrwt beam="2">  1       -1 0.97617506E-02 0.79249332E+03</pdfrwt>
<totfact> 0.16307150E+02</totfact>
</mgrwt>
</event>
<event>
 4    1  0.1545327E-005  0.6265051E+03  0.7818608E-02  0.9851893E-01
          1   -1    0    0  501    0  0.00000000000E+00  0.00000000000E+00  0.38432768965E+03  0.38432768968E+03  0.50400000000E-02 0.  1.
         -1   -1    0    0    0  501 -0.00000000000E+00 -0.00000000000E+00 -0.25532161035E+03  0.25532161040E+03  0.50400000000E-02 0. -1.
    5000001    1    1    2    0    0  0.15376813767E+03 -0.11852986917E+03 -0.97215819255E+02  0.28720878392E+03  0.18800000000E+03 0.  0.
   -5000001    1    1    2    0    0 -0.15376813767E+03  0.11852986917E+03  0.22622189855E+03  0.35244051616E+03  0.18800000000E+03 0.  0.
<mgrwt>
<rscale>  0 0.62650511E+03</rscale>
<asrwt>0</asrwt>
<pdfrwt beam="1">  1        1 0.54903956E-01 0.62650511E+03</pdfrwt>
<pdfrwt beam="2">  1       -1 0.36474516E-01 0.62650511E+03</pdfrwt>
<totfact> 0.50775910E+02</totfact>
</mgrwt>
</event>
<event>
 4    1  0.1545327E-005  0.5869951E+03  0.7818608E-02  0.9932760E-01
         -1   -1    0    0    0  501 -0.00000000000E+00  0.00000000000E+00  0.96749748734E+02  0.96749748865E+02  0.50400000000E-02 0. -1.
          1   -1    0    0  501    0  0.00000000000E+00 -0.00000000000E+00 -0.89034668751E+03  0.89034668753E+03  0.50400000000E-02 0.  1.
    5000001    1    1    2    0    0  0.80652836964E+02  0.16181652844E+03 -0.17051515439E+03  0.31162298834E+03  0.18800000000E+03 0.  0.
   -5000001    1    1    2    0    0 -0.80652836964E+02 -0.16181652844E+03 -0.62308178438E+03  0.67547344805E+03  0.18800000000E+03 0.  0.
<mgrwt>
<rscale>  0 0.58699512E+03</rscale>
<asrwt>0</asrwt>
<pdfrwt beam="1">  1        1 0.12719238E+00 0.58699512E+03</pdfrwt>
<pdfrwt beam="2">  1       -1 0.13821393E-01 0.58699512E+03</pdfrwt>
<totfact> 0.79534520E+02</totfact>
</mgrwt>
</event>
<event>
 4    1  0.1545327E-005  0.5247781E+03  0.7818608E-02  0.1007506E+00
         -1   -1    0    0    0  501 -0.00000000000E+00  0.00000000000E+00  0.11021454772E+04  0.11021454772E+04  0.50400000000E-02 0.  1.
          1   -1    0    0  501    0  0.00000000000E+00 -0.00000000000E+00 -0.62467273412E+02  0.62467273615E+02  0.50400000000E-02 0. -1.
    5000001    1    1    2    0    0  0.18434258030E+02 -0.18167833834E+03  0.54766235448E+03  0.60714487152E+03  0.18800000000E+03 0.  0.
   -5000001    1    1    2    0    0 -0.18434258030E+02  0.18167833834E+03  0.49201584928E+03  0.55746787929E+03  0.18800000000E+03 0.  0.
<mgrwt>
<rscale>  0 0.52477814E+03</rscale>
<asrwt>0</asrwt>
<pdfrwt beam="1">  1        1 0.89238971E-02 0.52477814E+03</pdfrwt>
<pdfrwt beam="2">  1       -1 0.15744934E+00 0.52477814E+03</pdfrwt>
<totfact> 0.24620354E+02</totfact>
</mgrwt>
</event>
<event>
 4    1  0.1545327E-005  0.6191617E+03  0.7818608E-02  0.9866430E-01
          1   -1    0    0  501    0  0.00000000000E+00  0.00000000000E+00  0.80880876920E+03  0.80880876921E+03  0.50400000000E-02 0.  1.
         -1   -1    0    0    0  501 -0.00000000000E+00 -0.00000000000E+00 -0.11849562259E+03  0.11849562269E+03  0.50400000000E-02 0. -1.
    5000001    1    1    2    0    0 -0.21838711892E+03 -0.11054395284E+03  0.30898217919E+03  0.43672289415E+03  0.18800000000E+03 0.  0.
   -5000001    1    1    2    0    0  0.21838711892E+03  0.11054395284E+03  0.38133096743E+03  0.49058149775E+03  0.18800000000E+03 0.  0.
<mgrwt>
<rscale>  0 0.61916169E+03</rscale>
<asrwt>0</asrwt>
<pdfrwt beam="1">  1        1 0.11554411E+00 0.61916169E+03</pdfrwt>
<pdfrwt beam="2">  1       -1 0.16927946E-01 0.61916169E+03</pdfrwt>
<totfact> 0.66524300E+02</totfact>
</mgrwt>
</event>
<event>
 4    1  0.1545327E-005  0.4555605E+03  0.7818608E-02  0.1026077E+00
         -1   -1    0    0    0  501 -0.00000000000E+00  0.00000000000E+00  0.34021143371E+03  0.34021143375E+03  0.50400000000E-02 0. -1.
          1   -1    0    0  501    0  0.00000000000E+00 -0.00000000000E+00 -0.15250469071E+03  0.15250469079E+03  0.50400000000E-02 0.  1.
    5000001    1    1    2    0    0 -0.32784167574E+02 -0.98091900471E+02  0.17652743763E+03  0.27785384435E+03  0.18800000000E+03 0.  0.
   -5000001    1    1    2    0    0  0.32784167574E+02  0.98091900471E+02  0.11179305375E+02  0.21486228019E+03  0.18800000000E+03 0.  0.
<mgrwt>
<rscale>  0 0.45556049E+03</rscale>
<asrwt>0</asrwt>
<pdfrwt beam="1">  1        1 0.21786385E-01 0.45556049E+03</pdfrwt>
<pdfrwt beam="2">  1       -1 0.48601632E-01 0.45556049E+03</pdfrwt>
<totfact> 0.99414180E+02</totfact>
</mgrwt>
</event>
<event>
 4    1  0.1545327E-005  0.4173416E+03  0.7818608E-02  0.1037935E+00
         -1   -1    0    0    0  501 -0.00000000000E+00  0.00000000000E+00  0.54970371896E+02  0.54970372127E+02  0.50400000000E-02 0. -1.
          1   -1    0    0  501    0  0.00000000000E+00 -0.00000000000E+00 -0.79212658905E+03  0.79212658906E+03  0.50400000000E-02 0.  1.
    5000001    1    1    2    0    0  0.28188196322E+02 -0.80215743101E+02 -0.30535054175E+03  0.36852692331E+03  0.18800000000E+03 0.  0.
   -5000001    1    1    2    0    0 -0.28188196322E+02  0.80215743101E+02 -0.43180567540E+03  0.47857003788E+03  0.18800000000E+03 0.  0.
<mgrwt>
<rscale>  0 0.41734155E+03</rscale>
<asrwt>0</asrwt>
<pdfrwt beam="1">  1        1 0.11316093E+00 0.41734155E+03</pdfrwt>
<pdfrwt beam="2">  1       -1 0.78529108E-02 0.41734155E+03</pdfrwt>
<totfact> 0.23293050E+03</totfact>
</mgrwt>
</event>
<event>
 4    1  0.1545327E-005  0.4777929E+03  0.7818608E-02  0.1019744E+00
         -1   -1    0    0    0  501 -0.00000000000E+00  0.00000000000E+00  0.14374390794E+03  0.14374390802E+03  0.50400000000E-02 0. -1.
          1   -1    0    0  501    0  0.00000000000E+00 -0.00000000000E+00 -0.39703601372E+03  0.39703601375E+03  0.50400000000E-02 0.  1.
    5000001    1    1    2    0    0 -0.14937109034E+02  0.12337380729E+03 -0.21636302381E+03  0.31241186217E+03  0.18800000000E+03 0.  0.
   -5000001    1    1    2    0    0  0.14937109034E+02 -0.12337380729E+03 -0.36929081968E+02  0.22836805960E+03  0.18800000000E+03 0.  0.
<mgrwt>
<rscale>  0 0.47779288E+03</rscale>
<asrwt>0</asrwt>
<pdfrwt beam="1">  1        1 0.56719430E-01 0.47779288E+03</pdfrwt>
<pdfrwt beam="2">  1       -1 0.20534844E-01 0.47779288E+03</pdfrwt>
<totfact> 0.13059607E+03</totfact>
</mgrwt>
</event>
<event>
 4    1  0.1545327E-005  0.4920299E+03  0.7818608E-02  0.1015880E+00
          1   -1    0    0  501    0  0.00000000000E+00  0.00000000000E+00  0.10755390016E+04  0.10755390016E+04  0.50400000000E-02 0.  1.
         -1   -1    0    0    0  501 -0.00000000000E+00 -0.00000000000E+00 -0.56272569518E+02  0.56272569744E+02  0.50400000000E-02 0. -1.
    5000001    1    1    2    0    0 -0.13182892149E+03 -0.86377804173E+01  0.30744478196E+03  0.38382257586E+03  0.18800000000E+03 0.  0.
   -5000001    1    1    2    0    0  0.13182892149E+03  0.86377804173E+01  0.71182165014E+03  0.74798899551E+03  0.18800000000E+03 0.  0.
<mgrwt>
<rscale>  0 0.49202985E+03</rscale>
<asrwt>0</asrwt>
<pdfrwt beam="1">  1        1 0.15364842E+00 0.49202985E+03</pdfrwt>
<pdfrwt beam="2">  1       -1 0.80389391E-02 0.49202985E+03</pdfrwt>
<totfact> 0.13659533E+03</totfact>
</mgrwt>
</event>
<event>
 4    1  0.1545327E-005  0.4664911E+03  0.7818608E-02  0.1022915E+00
          1   -1    0    0  501    0  0.00000000000E+00  0.00000000000E+00  0.33738125183E+03  0.33738125186E+03  0.50400000000E-02 0.  1.
         -1   -1    0    0    0  501 -0.00000000000E+00 -0.00000000000E+00 -0.16125223450E+03  0.16125223458E+03  0.50400000000E-02 0. -1.
    5000001    1    1    2    0    0  0.40612669505E+01  0.12754647255E+03  0.14437126827E+03  0.26920560850E+03  0.18800000000E+03 0.  0.
   -5000001    1    1    2    0    0 -0.40612669505E+01 -0.12754647255E+03  0.31757749059E+02  0.22942787794E+03  0.18800000000E+03 0.  0.
<mgrwt>
<rscale>  0 0.46649107E+03</rscale>
<asrwt>0</asrwt>
<pdfrwt beam="1">  1        1 0.48197321E-01 0.46649107E+03</pdfrwt>
<pdfrwt beam="2">  1       -1 0.23036034E-01 0.46649107E+03</pdfrwt>
<totfact> 0.13306960E+03</totfact>
</mgrwt>
</event>
<event>
 4    1  0.1545327E-005  0.4784486E+03  0.7818608E-02  0.1019562E+00
          1   -1    0    0  501    0  0.00000000000E+00  0.00000000000E+00  0.48264006443E+03  0.48264006446E+03  0.50400000000E-02 0.  1.
         -1   -1    0    0    0  501 -0.00000000000E+00 -0.00000000000E+00 -0.11857335960E+03  0.11857335971E+03  0.50400000000E-02 0. -1.
    5000001    1    1    2    0    0 -0.10661907646E+03 -0.96068898948E+02  0.22712011189E+03  0.32790914296E+03  0.18800000000E+03 0.  0.
   -5000001    1    1    2    0    0  0.10661907646E+03  0.96068898948E+02  0.13694659294E+03  0.27330428121E+03  0.18800000000E+03 0.  0.
<mgrwt>
<rscale>  0 0.47844855E+03</rscale>
<asrwt>0</asrwt>
<pdfrwt beam="1">  1        1 0.68948579E-01 0.47844855E+03</pdfrwt>
<pdfrwt beam="2">  1       -1 0.16939052E-01 0.47844855E+03</pdfrwt>
<totfact> 0.13861034E+03</totfact>
</mgrwt>
</event>
<event>
 4    1  0.1545327E-005  0.5411071E+03  0.7818608E-02  0.1003573E+00
          1   -1    0    0  501    0  0.00000000000E+00  0.00000000000E+00  0.59017359471E+03  0.59017359474E+03  0.50400000000E-02 0.  1.
         -1   -1    0    0    0  501 -0.00000000000E+00 -0.00000000000E+00 -0.12403000023E+03  0.12403000034E+03  0.50400000000E-02 0. -1.
    5000001    1    1    2    0    0  0.14512858726E+03 -0.86257850002E+02  0.10542708997E+03  0.27379115184E+03  0.18800000000E+03 0.  0.
   -5000001    1    1    2    0    0 -0.14512858726E+03  0.86257850002E+02  0.36071650451E+03  0.44041244323E+03  0.18800000000E+03 0.  0.
<mgrwt>
<rscale>  0 0.54110713E+03</rscale>
<asrwt>0</asrwt>
<pdfrwt beam="1">  1        1 0.84310512E-01 0.54110713E+03</pdfrwt>
<pdfrwt beam="2">  1       -1 0.17718572E-01 0.54110713E+03</pdfrwt>
<totfact> 0.97981873E+02</totfact>
</mgrwt>
</event>
<event>
 4    1  0.1545327E-005  0.5798589E+03  0.7818608E-02  0.9948097E-01
         -1   -1    0    0    0  501 -0.00000000000E+00  0.00000000000E+00  0.13859979928E+03  0.13859979937E+03  0.50400000000E-02 0.  1.
          1   -1    0    0  501    0  0.00000000000E+00 -0.00000000000E+00 -0.60648774866E+03  0.60648774868E+03  0.50400000000E-02 0. -1.
    5000001    1    1    2    0    0 -0.38012314836E+02 -0.19655354035E+03 -0.11452793048E+03  0.29755483052E+03  0.18800000000E+03 0.  0.
   -5000001    1    1    2    0    0  0.38012314836E+02  0.19655354035E+03 -0.35336001890E+03  0.44753271753E+03  0.18800000000E+03 0.  0.
<mgrwt>
<rscale>  0 0.57985888E+03</rscale>
<asrwt>0</asrwt>
<pdfrwt beam="1">  1        1 0.86641106E-01 0.57985888E+03</pdfrwt>
<pdfrwt beam="2">  1       -1 0.19799972E-01 0.57985888E+03</pdfrwt>
<totfact> 0.78502251E+02</totfact>
</mgrwt>
</event>
<event>
 4    1  0.1545327E-005  0.6969008E+03  0.7818608E-02  0.9722547E-01
         -1   -1    0    0    0  501 -0.00000000000E+00  0.00000000000E+00  0.16889636397E+04  0.16889636397E+04  0.50400000000E-02 0. -1.
          1   -1    0    0  501    0  0.00000000000E+00 -0.00000000000E+00 -0.71888870725E+02  0.71888870902E+02  0.50400000000E-02 0.  1.
    5000001    1    1    2    0    0  0.14430924676E+03  0.25235215358E+03  0.90855477663E+03  0.97227699256E+03  0.18800000000E+03 0.  0.
   -5000001    1    1    2    0    0 -0.14430924676E+03 -0.25235215358E+03  0.70851999233E+03  0.78857551804E+03  0.18800000000E+03 0.  0.
<mgrwt>
<rscale>  0 0.69690082E+03</rscale>
<asrwt>0</asrwt>
<pdfrwt beam="1">  1        1 0.10269838E-01 0.69690082E+03</pdfrwt>
<pdfrwt beam="2">  1       -1 0.24128053E+00 0.69690082E+03</pdfrwt>
<totfact> 0.53176294E+01</totfact>
</mgrwt>
</event>
<event>
 4    1  0.1545327E-005  0.7045356E+03  0.7818608E-02  0.9709507E-01
          1   -1    0    0  501    0  0.00000000000E+00  0.00000000000E+00  0.16598379674E+04  0.16598379674E+04  0.50400000000E-02 0.  1.
         -1   -1    0    0    0  501 -0.00000000000E+00 -0.00000000000E+00 -0.74761872777E+02  0.74761872947E+02  0.50400000000E-02 0. -1.
    5000001    1    1    2    0    0 -0.27689757193E+03  0.12080837577E+02  0.52361775894E+03  0.62156075283E+03  0.18800000000E+03 0.  0.
   -5000001    1    1    2    0    0  0.27689757193E+03 -0.12080837577E+02  0.10614583357E+04  0.11130390876E+04  0.18800000000E+03 0.  0.
<mgrwt>
<rscale>  0 0.70453558E+03</rscale>
<asrwt>0</asrwt>
<pdfrwt beam="1">  1        1 0.23711967E+00 0.70453558E+03</pdfrwt>
<pdfrwt beam="2">  1       -1 0.10680269E-01 0.70453558E+03</pdfrwt>
<totfact> 0.35562626E+02</totfact>
</mgrwt>
</event>
<event>
 4    1  0.1545327E-005  0.4596358E+03  0.7818608E-02  0.1024887E+00
          1   -1    0    0  501    0  0.00000000000E+00  0.00000000000E+00  0.23075339803E+03  0.23075339808E+03  0.50400000000E-02 0.  1.
         -1   -1    0    0    0  501 -0.00000000000E+00 -0.00000000000E+00 -0.22888616785E+03  0.22888616791E+03  0.50400000000E-02 0. -1.
    5000001    1    1    2    0    0  0.74488480297E+02  0.72383755226E+02 -0.80824746037E+02  0.22948764954E+03  0.18800000000E+03 0.  0.
   -5000001    1    1    2    0    0 -0.74488480297E+02 -0.72383755226E+02  0.82691976211E+02  0.23015191645E+03  0.18800000000E+03 0.  0.
<mgrwt>
<rscale>  0 0.45963577E+03</rscale>
<asrwt>0</asrwt>
<pdfrwt beam="1">  1        1 0.32964771E-01 0.45963577E+03</pdfrwt>
<pdfrwt beam="2">  1       -1 0.32698024E-01 0.45963577E+03</pdfrwt>
<totfact> 0.11894244E+03</totfact>
</mgrwt>
</event>
<event>
 4    1  0.1545327E-005  0.4680214E+03  0.7818608E-02  0.1022480E+00
         -1   -1    0    0    0  501 -0.00000000000E+00  0.00000000000E+00  0.20558151360E+03  0.20558151366E+03  0.50400000000E-02 0. -1.
          1   -1    0    0  501    0  0.00000000000E+00 -0.00000000000E+00 -0.26637131206E+03  0.26637131211E+03  0.50400000000E-02 0.  1.
    5000001    1    1    2    0    0 -0.12827497147E+03  0.96268084780E+01 -0.84416100769E+02  0.24293460399E+03  0.18800000000E+03 0.  0.
   -5000001    1    1    2    0    0  0.12827497147E+03 -0.96268084780E+01  0.23626302306E+02  0.22901822178E+03  0.18800000000E+03 0.  0.
<mgrwt>
<rscale>  0 0.46802144E+03</rscale>
<asrwt>0</asrwt>
<pdfrwt beam="1">  1        1 0.38053044E-01 0.46802144E+03</pdfrwt>
<pdfrwt beam="2">  1       -1 0.29368788E-01 0.46802144E+03</pdfrwt>
<totfact> 0.11925210E+03</totfact>
</mgrwt>
</event>
<event>
 4    1  0.1545327E-005  0.9738883E+03  0.7818608E-02  0.9337657E-01
          1   -1    0    0  501    0  0.00000000000E+00  0.00000000000E+00  0.21021688860E+04  0.21021688860E+04  0.50400000000E-02 0.  1.
         -1   -1    0    0    0  501 -0.00000000000E+00 -0.00000000000E+00 -0.11279521070E+03  0.11279521082E+03  0.50400000000E-02 0. -1.
    5000001    1    1    2    0    0  0.31050964754E+03 -0.21379934266E+03  0.43924113862E+03  0.60860757307E+03  0.18800000000E+03 0.  0.
   -5000001    1    1    2    0    0 -0.31050964754E+03  0.21379934266E+03  0.15501325366E+04  0.16063565237E+04  0.18800000000E+03 0.  0.
<mgrwt>
<rscale>  0 0.97388825E+03</rscale>
<asrwt>0</asrwt>
<pdfrwt beam="1">  1        1 0.30030987E+00 0.97388825E+03</pdfrwt>
<pdfrwt beam="2">  1       -1 0.16113600E-01 0.97388825E+03</pdfrwt>
<totfact> 0.94866857E+01</totfact>
</mgrwt>
</event>
<event>
 4    1  0.1545327E-005  0.5132363E+03  0.7818608E-02  0.1010381E+00
          1   -1    0    0  501    0  0.00000000000E+00  0.00000000000E+00  0.15287984288E+04  0.15287984288E+04  0.50400000000E-02 0.  1.
         -1   -1    0    0    0  501 -0.00000000000E+00 -0.00000000000E+00 -0.43074920369E+02  0.43074920664E+02  0.50400000000E-02 0. -1.
    5000001    1    1    2    0    0  0.15832127747E+03  0.73436850653E+02  0.72114639025E+03  0.76541146719E+03  0.18800000000E+03 0.  0.
   -5000001    1    1    2    0    0 -0.15832127747E+03 -0.73436850653E+02  0.76457711819E+03  0.80646188230E+03  0.18800000000E+03 0.  0.
<mgrwt>
<rscale>  0 0.51323628E+03</rscale>
<asrwt>0</asrwt>
<pdfrwt beam="1">  1        1 0.21839979E+00 0.51323628E+03</pdfrwt>
<pdfrwt beam="2">  1       -1 0.61535596E-02 0.51323628E+03</pdfrwt>
<totfact> 0.10292124E+03</totfact>
</mgrwt>
</event>
<event>
 4    1  0.1545327E-005  0.4929624E+03  0.7818608E-02  0.1015632E+00
         -1   -1    0    0    0  501 -0.00000000000E+00  0.00000000000E+00  0.83611866350E+02  0.83611866502E+02  0.50400000000E-02 0. -1.
          1   -1    0    0  501    0  0.00000000000E+00 -0.00000000000E+00 -0.72660704366E+03  0.72660704368E+03  0.50400000000E-02 0.  1.
    5000001    1    1    2    0    0  0.12609607127E+03 -0.82236673926E+02 -0.23537253541E+03  0.33676003349E+03  0.18800000000E+03 0.  0.
   -5000001    1    1    2    0    0 -0.12609607127E+03  0.82236673926E+02 -0.40762264190E+03  0.47345887669E+03  0.18800000000E+03 0.  0.
<mgrwt>
<rscale>  0 0.49296236E+03</rscale>
<asrwt>0</asrwt>
<pdfrwt beam="1">  1        1 0.10380100E+00 0.49296236E+03</pdfrwt>
<pdfrwt beam="2">  1       -1 0.11944553E-01 0.49296236E+03</pdfrwt>
<totfact> 0.13746719E+03</totfact>
</mgrwt>
</event>
<event>
 4    1  0.1545327E-005  0.4372327E+03  0.7818608E-02  0.1031599E+00
          1   -1    0    0  501    0  0.00000000000E+00  0.00000000000E+00  0.77413359204E+03  0.77413359206E+03  0.50400000000E-02 0. -1.
         -1   -1    0    0    0  501 -0.00000000000E+00 -0.00000000000E+00 -0.61737540295E+02  0.61737540501E+02  0.50400000000E-02 0.  1.
    5000001    1    1    2    0    0 -0.11211819349E+02  0.89787319027E+02  0.48099811862E+03  0.52430015990E+03  0.18800000000E+03 0.  0.
   -5000001    1    1    2    0    0  0.11211819349E+02 -0.89787319027E+02  0.23139793313E+03  0.31157097267E+03  0.18800000000E+03 0.  0.
<mgrwt>
<rscale>  0 0.43723268E+03</rscale>
<asrwt>0</asrwt>
<pdfrwt beam="1">  1        1 0.11059052E+00 0.43723268E+03</pdfrwt>
<pdfrwt beam="2">  1       -1 0.88196480E-02 0.43723268E+03</pdfrwt>
<totfact> 0.20145972E+03</totfact>
</mgrwt>
</event>
<event>
 4    1  0.1545327E-005  0.4907681E+03  0.7818608E-02  0.1016217E+00
          1   -1    0    0  501    0  0.00000000000E+00  0.00000000000E+00  0.80552018105E+03  0.80552018107E+03  0.50400000000E-02 0. -1.
         -1   -1    0    0    0  501 -0.00000000000E+00 -0.00000000000E+00 -0.74750875484E+02  0.74750875654E+02  0.50400000000E-02 0.  1.
    5000001    1    1    2    0    0  0.10948896562E+03  0.81280876687E+02  0.22330093300E+03  0.32218274502E+03  0.18800000000E+03 0.  0.
   -5000001    1    1    2    0    0 -0.10948896562E+03 -0.81280876687E+02  0.50746837257E+03  0.55808831170E+03  0.18800000000E+03 0.  0.
<mgrwt>
<rscale>  0 0.49076813E+03</rscale>
<asrwt>0</asrwt>
<pdfrwt beam="1">  1        1 0.11507431E+00 0.49076813E+03</pdfrwt>
<pdfrwt beam="2">  1       -1 0.10678696E-01 0.49076813E+03</pdfrwt>
<totfact> 0.14059038E+03</totfact>
</mgrwt>
</event>
<event>
 4    1  0.1545327E-005  0.7082887E+03  0.7818608E-02  0.9703161E-01
         -1   -1    0    0    0  501 -0.00000000000E+00  0.00000000000E+00  0.53854337558E+03  0.53854337561E+03  0.50400000000E-02 0. -1.
          1   -1    0    0  501    0  0.00000000000E+00 -0.00000000000E+00 -0.23288418289E+03  0.23288418295E+03  0.50400000000E-02 0.  1.
    5000001    1    1    2    0    0 -0.45679749464E+02 -0.21983282594E+03  0.36973347473E+03  0.47165660518E+03  0.18800000000E+03 0.  0.
   -5000001    1    1    2    0    0  0.45679749464E+02  0.21983282594E+03 -0.64074282041E+02  0.29977095338E+03  0.18800000000E+03 0.  0.
<mgrwt>
<rscale>  0 0.70828874E+03</rscale>
<asrwt>0</asrwt>
<pdfrwt beam="1">  1        1 0.33269169E-01 0.70828874E+03</pdfrwt>
<pdfrwt beam="2">  1       -1 0.76934767E-01 0.70828874E+03</pdfrwt>
<totfact> 0.23068562E+02</totfact>
</mgrwt>
</event>
<event>
 4    1  0.1545327E-005  0.5437246E+03  0.7818608E-02  0.1002957E+00
         -1   -1    0    0    0  501 -0.00000000000E+00  0.00000000000E+00  0.92363999102E+02  0.92363999239E+02  0.50400000000E-02 0. -1.
          1   -1    0    0  501    0  0.00000000000E+00 -0.00000000000E+00 -0.80019379046E+03  0.80019379048E+03  0.50400000000E-02 0.  1.
    5000001    1    1    2    0    0 -0.24153106819E+02 -0.19192813507E+03 -0.40946952472E+03  0.49033567407E+03  0.18800000000E+03 0.  0.
   -5000001    1    1    2    0    0  0.24153106819E+02  0.19192813507E+03 -0.29836026664E+03  0.40222211564E+03  0.18800000000E+03 0.  0.
<mgrwt>
<rscale>  0 0.54372456E+03</rscale>
<asrwt>0</asrwt>
<pdfrwt beam="1">  1        1 0.11431339E+00 0.54372456E+03</pdfrwt>
<pdfrwt beam="2">  1       -1 0.13194857E-01 0.54372456E+03</pdfrwt>
<totfact> 0.10140623E+03</totfact>
</mgrwt>
</event>
<event>
 4    1  0.1545327E-005  0.6096008E+03  0.7818608E-02  0.9885685E-01
         -1   -1    0    0    0  501 -0.00000000000E+00  0.00000000000E+00  0.41286724269E+03  0.41286724273E+03  0.50400000000E-02 0. -1.
          1   -1    0    0  501    0  0.00000000000E+00 -0.00000000000E+00 -0.22501974549E+03  0.22501974555E+03  0.50400000000E-02 0.  1.
    5000001    1    1    2    0    0 -0.21830665872E+03  0.97375846109E+02  0.72493481814E+02  0.31263262394E+03  0.18800000000E+03 0.  0.
   -5000001    1    1    2    0    0  0.21830665872E+03 -0.97375846109E+02  0.11535401539E+03  0.32525436433E+03  0.18800000000E+03 0.  0.
<mgrwt>
<rscale>  0 0.60960079E+03</rscale>
<asrwt>0</asrwt>
<pdfrwt beam="1">  1        1 0.32145678E-01 0.60960079E+03</pdfrwt>
<pdfrwt beam="2">  1       -1 0.58981034E-01 0.60960079E+03</pdfrwt>
<totfact> 0.41421234E+02</totfact>
</mgrwt>
</event>
<event>
 4    1  0.1545327E-005  0.5296492E+03  0.7818608E-02  0.1006317E+00
          1   -1    0    0  501    0  0.00000000000E+00  0.00000000000E+00  0.51252422848E+02  0.51252423096E+02  0.50400000000E-02 0.  1.
         -1   -1    0    0    0  501 -0.00000000000E+00 -0.00000000000E+00 -0.13683661689E+04  0.13683661689E+04  0.50400000000E-02 0. -1.
    5000001    1    1    2    0    0 -0.29850018166E+02  0.17906296754E+03 -0.54378772251E+03  0.60332715593E+03  0.18800000000E+03 0.  0.
   -5000001    1    1    2    0    0  0.29850018166E+02 -0.17906296754E+03 -0.77332602356E+03  0.81629143610E+03  0.18800000000E+03 0.  0.
<mgrwt>
<rscale>  0 0.52964925E+03</rscale>
<asrwt>0</asrwt>
<pdfrwt beam="1">  1        1 0.73217756E-02 0.52964925E+03</pdfrwt>
<pdfrwt beam="2">  1       -1 0.19548086E+00 0.52964925E+03</pdfrwt>
<totfact> 0.17303024E+02</totfact>
</mgrwt>
</event>
<event>
 4    1  0.1545327E-005  0.6048823E+03  0.7818608E-02  0.9895328E-01
          1   -1    0    0  501    0  0.00000000000E+00  0.00000000000E+00  0.71799635476E+03  0.71799635477E+03  0.50400000000E-02 0.  1.
         -1   -1    0    0    0  501 -0.00000000000E+00 -0.00000000000E+00 -0.12739709323E+03  0.12739709333E+03  0.50400000000E-02 0. -1.
    5000001    1    1    2    0    0 -0.10801522082E+03  0.17171909606E+03  0.46631165434E+03  0.54216722038E+03  0.18800000000E+03 0.  0.
   -5000001    1    1    2    0    0  0.10801522082E+03 -0.17171909606E+03  0.12428760719E+03  0.30322622772E+03  0.18800000000E+03 0.  0.
<mgrwt>
<rscale>  0 0.60488230E+03</rscale>
<asrwt>0</asrwt>
<pdfrwt beam="1">  1        1 0.10257091E+00 0.60488230E+03</pdfrwt>
<pdfrwt beam="2">  1       -1 0.18199584E-01 0.60488230E+03</pdfrwt>
<totfact> 0.70734616E+02</totfact>
</mgrwt>
</event>
<event>
 4    1  0.1545327E-005  0.6703223E+03  0.7818608E-02  0.9769376E-01
         -1   -1    0    0    0  501 -0.00000000000E+00  0.00000000000E+00  0.10306140482E+03  0.10306140494E+03  0.50400000000E-02 0. -1.
          1   -1    0    0  501    0  0.00000000000E+00 -0.00000000000E+00 -0.10899616947E+04  0.10899616947E+04  0.50400000000E-02 0.  1.
    5000001    1    1    2    0    0  0.55845573070E+02 -0.17852960408E+03 -0.12871585191E+03  0.29479368734E+03  0.18800000000E+03 0.  0.
   -5000001    1    1    2    0    0 -0.55845573070E+02  0.17852960408E+03 -0.85818443796E+03  0.89822941230E+03  0.18800000000E+03 0.  0.
<mgrwt>
<rscale>  0 0.67032226E+03</rscale>
<asrwt>0</asrwt>
<pdfrwt beam="1">  1        1 0.15570881E+00 0.67032226E+03</pdfrwt>
<pdfrwt beam="2">  1       -1 0.14723059E-01 0.67032226E+03</pdfrwt>
<totfact> 0.50819142E+02</totfact>
</mgrwt>
</event>
<event>
 4    1  0.1545327E-005  0.9073895E+03  0.7818608E-02  0.9416391E-01
          1   -1    0    0  501    0  0.00000000000E+00  0.00000000000E+00  0.14927430307E+04  0.14927430307E+04  0.50400000000E-02 0.  1.
         -1   -1    0    0    0  501 -0.00000000000E+00 -0.00000000000E+00 -0.13789307917E+03  0.13789307926E+03  0.50400000000E-02 0. -1.
    5000001    1    1    2    0    0  0.39751685135E+03 -0.10696469878E+03  0.73520660383E+03  0.86332719418E+03  0.18800000000E+03 0.  0.
   -5000001    1    1    2    0    0 -0.39751685135E+03  0.10696469878E+03  0.61964334771E+03  0.76730891580E+03  0.18800000000E+03 0.  0.
<mgrwt>
<rscale>  0 0.90738952E+03</rscale>
<asrwt>0</asrwt>
<pdfrwt beam="1">  1        1 0.21324901E+00 0.90738952E+03</pdfrwt>
<pdfrwt beam="2">  1       -1 0.19699011E-01 0.90738952E+03</pdfrwt>
<totfact> 0.16595101E+02</totfact>
</mgrwt>
</event>
<event>
 4    1  0.1545327E-005  0.4612807E+03  0.7818608E-02  0.1024410E+00
         -1   -1    0    0    0  501 -0.00000000000E+00  0.00000000000E+00  0.31453635572E+02  0.31453635976E+02  0.50400000000E-02 0. -1.
          1   -1    0    0  501    0  0.00000000000E+00 -0.00000000000E+00 -0.16912185097E+04  0.16912185097E+04  0.50400000000E-02 0.  1.
    5000001    1    1    2    0    0  0.10879132539E+03 -0.75673359907E+02 -0.89336538385E+03  0.92250079617E+03  0.18800000000E+03 0.  0.
   -5000001    1    1    2    0    0 -0.10879132539E+03  0.75673359907E+02 -0.76639949030E+03  0.80017134953E+03  0.18800000000E+03 0.  0.
<mgrwt>
<rscale>  0 0.46128070E+03</rscale>
<asrwt>0</asrwt>
<pdfrwt beam="1">  1        1 0.24160259E+00 0.46128070E+03</pdfrwt>
<pdfrwt beam="2">  1       -1 0.44933776E-02 0.46128070E+03</pdfrwt>
<totfact> 0.13173924E+03</totfact>
</mgrwt>
</event>
<event>
 4    1  0.1545327E-005  0.9015417E+03  0.7818608E-02  0.9423656E-01
         -1   -1    0    0    0  501 -0.00000000000E+00  0.00000000000E+00  0.81679863734E+03  0.81679863736E+03  0.50400000000E-02 0. -1.
          1   -1    0    0  501    0  0.00000000000E+00 -0.00000000000E+00 -0.24876920603E+03  0.24876920608E+03  0.50400000000E-02 0.  1.
    5000001    1    1    2    0    0  0.16486533427E+03 -0.26696394866E+03  0.59538351813E+03  0.69876738761E+03  0.18800000000E+03 0.  0.
   -5000001    1    1    2    0    0 -0.16486533427E+03  0.26696394866E+03 -0.27354086818E+02  0.36680045583E+03  0.18800000000E+03 0.  0.
<mgrwt>
<rscale>  0 0.90154168E+03</rscale>
<asrwt>0</asrwt>
<pdfrwt beam="1">  1        1 0.35538459E-01 0.90154168E+03</pdfrwt>
<pdfrwt beam="2">  1       -1 0.11668552E+00 0.90154168E+03</pdfrwt>
<totfact> 0.82341671E+01</totfact>
</mgrwt>
</event>
<event>
 4    1  0.1545327E-005  0.6015544E+03  0.7818608E-02  0.9902187E-01
          1   -1    0    0  501    0  0.00000000000E+00  0.00000000000E+00  0.12388038750E+04  0.12388038750E+04  0.50400000000E-02 0. -1.
         -1   -1    0    0    0  501 -0.00000000000E+00 -0.00000000000E+00 -0.73027628728E+02  0.73027628902E+02  0.50400000000E-02 0.  1.
    5000001    1    1    2    0    0 -0.96944000683E+02  0.21363263331E+03  0.56268029750E+03  0.63795780305E+03  0.18800000000E+03 0.  0.
   -5000001    1    1    2    0    0  0.96944000683E+02 -0.21363263331E+03  0.60309594879E+03  0.67387370087E+03  0.18800000000E+03 0.  0.
<mgrwt>
<rscale>  0 0.60155435E+03</rscale>
<asrwt>0</asrwt>
<pdfrwt beam="1">  1        1 0.17697198E+00 0.60155435E+03</pdfrwt>
<pdfrwt beam="2">  1       -1 0.10432519E-01 0.60155435E+03</pdfrwt>
<totfact> 0.69724836E+02</totfact>
</mgrwt>
</event>
<event>
 4    1  0.1545327E-005  0.4540998E+03  0.7818608E-02  0.1026506E+00
          1   -1    0    0  501    0  0.00000000000E+00  0.00000000000E+00  0.36155707722E+03  0.36155707726E+03  0.50400000000E-02 0.  1.
         -1   -1    0    0    0  501 -0.00000000000E+00 -0.00000000000E+00 -0.14258234568E+03  0.14258234577E+03  0.50400000000E-02 0. -1.
    5000001    1    1    2    0    0  0.66265124074E+02  0.99975290745E+02  0.62104905289E+02  0.23148897315E+03  0.18800000000E+03 0.  0.
   -5000001    1    1    2    0    0 -0.66265124074E+02 -0.99975290745E+02  0.15686982626E+03  0.27265044988E+03  0.18800000000E+03 0.  0.
<mgrwt>
<rscale>  0 0.45409980E+03</rscale>
<asrwt>0</asrwt>
<pdfrwt beam="1">  1        1 0.51651010E-01 0.45409980E+03</pdfrwt>
<pdfrwt beam="2">  1       -1 0.20368907E-01 0.45409980E+03</pdfrwt>
<totfact> 0.14935400E+03</totfact>
</mgrwt>
</event>
<event>
 4    1  0.1545327E-005  0.5701066E+03  0.7818608E-02  0.9969443E-01
          1   -1    0    0  501    0  0.00000000000E+00  0.00000000000E+00  0.90696432419E+03  0.90696432420E+03  0.50400000000E-02 0. -1.
         -1   -1    0    0    0  501 -0.00000000000E+00 -0.00000000000E+00 -0.89590502167E+02  0.89590502309E+02  0.50400000000E-02 0.  1.
    5000001    1    1    2    0    0 -0.19414058722E+03  0.48825858984E+02  0.54223406837E+03  0.60781273187E+03  0.18800000000E+03 0.  0.
   -5000001    1    1    2    0    0  0.19414058722E+03 -0.48825858984E+02  0.27513975365E+03  0.38874209465E+03  0.18800000000E+03 0.  0.
<mgrwt>
<rscale>  0 0.57010662E+03</rscale>
<asrwt>0</asrwt>
<pdfrwt beam="1">  1        1 0.12956633E+00 0.57010662E+03</pdfrwt>
<pdfrwt beam="2">  1       -1 0.12798643E-01 0.57010662E+03</pdfrwt>
<totfact> 0.87373121E+02</totfact>
</mgrwt>
</event>
<event>
 4    1  0.1545327E-005  0.6127887E+03  0.7818608E-02  0.9879223E-01
         -1   -1    0    0    0  501 -0.00000000000E+00  0.00000000000E+00  0.50652998473E+02  0.50652998724E+02  0.50400000000E-02 0. -1.
          1   -1    0    0  501    0  0.00000000000E+00 -0.00000000000E+00 -0.18533455089E+04  0.18533455090E+04  0.50400000000E-02 0.  1.
    5000001    1    1    2    0    0  0.21673548077E+03 -0.10471035857E+03 -0.82555713001E+03  0.88024263856E+03  0.18800000000E+03 0.  0.
   -5000001    1    1    2    0    0 -0.21673548077E+03  0.10471035857E+03 -0.97713538046E+03  0.10237558691E+04  0.18800000000E+03 0.  0.
<mgrwt>
<rscale>  0 0.61278873E+03</rscale>
<asrwt>0</asrwt>
<pdfrwt beam="1">  1        1 0.26476360E+00 0.61278873E+03</pdfrwt>
<pdfrwt beam="2">  1       -1 0.72361438E-02 0.61278873E+03</pdfrwt>
<totfact> 0.49883335E+02</totfact>
</mgrwt>
</event>
<event>
 4    1  0.1545327E-005  0.4658691E+03  0.7818608E-02  0.1023093E+00
          1   -1    0    0  501    0  0.00000000000E+00  0.00000000000E+00  0.12363620806E+03  0.12363620816E+03  0.50400000000E-02 0.  1.
         -1   -1    0    0    0  501 -0.00000000000E+00 -0.00000000000E+00 -0.43885605196E+03  0.43885605199E+03  0.50400000000E-02 0. -1.
    5000001    1    1    2    0    0 -0.69956213828E+02 -0.11388053464E+03 -0.19676874318E+03  0.30319067650E+03  0.18800000000E+03 0.  0.
   -5000001    1    1    2    0    0  0.69956213828E+02  0.11388053464E+03 -0.11845110073E+03  0.25930158365E+03  0.18800000000E+03 0.  0.
<mgrwt>
<rscale>  0 0.46586907E+03</rscale>
<asrwt>0</asrwt>
<pdfrwt beam="1">  1        1 0.17662316E-01 0.46586907E+03</pdfrwt>
<pdfrwt beam="2">  1       -1 0.62693721E-01 0.46586907E+03</pdfrwt>
<totfact> 0.80405574E+02</totfact>
</mgrwt>
</event>
<event>
 4    1  0.1545327E-005  0.1139592E+04  0.7818608E-02  0.9167440E-01
          1   -1    0    0  501    0  0.00000000000E+00  0.00000000000E+00  0.33869494510E+03  0.33869494514E+03  0.50400000000E-02 0. -1.
         -1   -1    0    0    0  501 -0.00000000000E+00 -0.00000000000E+00 -0.95858294278E+03  0.95858294279E+03  0.50400000000E-02 0.  1.
    5000001    1    1    2    0    0 -0.33967573957E+03  0.99799761243E+02 -0.77092605216E+03  0.86891344695E+03  0.18800000000E+03 0.  0.
   -5000001    1    1    2    0    0  0.33967573957E+03 -0.99799761243E+02  0.15103805448E+03  0.42836444098E+03  0.18800000000E+03 0.  0.
<mgrwt>
<rscale>  0 0.11395915E+04</rscale>
<asrwt>0</asrwt>
<pdfrwt beam="1">  1        1 0.48384992E-01 0.11395915E+04</pdfrwt>
<pdfrwt beam="2">  1       -1 0.13694042E+00 0.11395915E+04</pdfrwt>
<totfact> 0.36399703E+01</totfact>
</mgrwt>
</event>
<event>
 4    1  0.1545327E-005  0.5056752E+03  0.7818608E-02  0.1012308E+00
         -1   -1    0    0    0  501 -0.00000000000E+00  0.00000000000E+00  0.44596115813E+03  0.44596115816E+03  0.50400000000E-02 0.  1.
          1   -1    0    0  501    0  0.00000000000E+00 -0.00000000000E+00 -0.14334621386E+03  0.14334621395E+03  0.50400000000E-02 0. -1.
    5000001    1    1    2    0    0 -0.91294186143E+02 -0.13965725827E+03  0.11951855065E+03  0.27832977232E+03  0.18800000000E+03 0.  0.
   -5000001    1    1    2    0    0  0.91294186143E+02  0.13965725827E+03  0.18309639362E+03  0.31097759978E+03  0.18800000000E+03 0.  0.
<mgrwt>
<rscale>  0 0.50567517E+03</rscale>
<asrwt>0</asrwt>
<pdfrwt beam="1">  1        1 0.20478030E-01 0.50567517E+03</pdfrwt>
<pdfrwt beam="2">  1       -1 0.63708737E-01 0.50567517E+03</pdfrwt>
<totfact> 0.64090439E+02</totfact>
</mgrwt>
</event>
<event>
 4    1  0.1545327E-005  0.5421676E+03  0.7818608E-02  0.1003323E+00
          1   -1    0    0  501    0  0.00000000000E+00  0.00000000000E+00  0.49740995389E+03  0.49740995392E+03  0.50400000000E-02 0.  1.
         -1   -1    0    0    0  501 -0.00000000000E+00 -0.00000000000E+00 -0.14773812426E+03  0.14773812435E+03  0.50400000000E-02 0. -1.
    5000001    1    1    2    0    0  0.84445637535E+02  0.15849386263E+03  0.83504118836E+02  0.27307198328E+03  0.18800000000E+03 0.  0.
   -5000001    1    1    2    0    0 -0.84445637535E+02 -0.15849386263E+03  0.26616771079E+03  0.37207609498E+03  0.18800000000E+03 0.  0.
<mgrwt>
<rscale>  0 0.54216755E+03</rscale>
<asrwt>0</asrwt>
<pdfrwt beam="1">  1        1 0.71058563E-01 0.54216755E+03</pdfrwt>
<pdfrwt beam="2">  1       -1 0.21105447E-01 0.54216755E+03</pdfrwt>
<totfact> 0.92700307E+02</totfact>
</mgrwt>
</event>
<event>
 4    1  0.1545327E-005  0.5942212E+03  0.7818608E-02  0.9917468E-01
          1   -1    0    0  501    0  0.00000000000E+00  0.00000000000E+00  0.13687147468E+04  0.13687147468E+04  0.50400000000E-02 0.  1.
         -1   -1    0    0    0  501 -0.00000000000E+00 -0.00000000000E+00 -0.64494604373E+02  0.64494604570E+02  0.50400000000E-02 0. -1.
    5000001    1    1    2    0    0 -0.11563488944E+03  0.19889343534E+03  0.65010663885E+03  0.71478155275E+03  0.18800000000E+03 0.  0.
   -5000001    1    1    2    0    0  0.11563488944E+03 -0.19889343534E+03  0.65411350357E+03  0.71842779862E+03  0.18800000000E+03 0.  0.
<mgrwt>
<rscale>  0 0.59422123E+03</rscale>
<asrwt>0</asrwt>
<pdfrwt beam="1">  1        1 0.19553068E+00 0.59422123E+03</pdfrwt>
<pdfrwt beam="2">  1       -1 0.92135148E-02 0.59422123E+03</pdfrwt>
<totfact> 0.69505371E+02</totfact>
</mgrwt>
</event>
<event>
 4    1  0.1545327E-005  0.5934456E+03  0.7818608E-02  0.9919098E-01
          1   -1    0    0  501    0  0.00000000000E+00  0.00000000000E+00  0.43574671317E+03  0.43574671320E+03  0.50400000000E-02 0.  1.
         -1   -1    0    0    0  501 -0.00000000000E+00 -0.00000000000E+00 -0.20205413443E+03  0.20205413449E+03  0.50400000000E-02 0. -1.
    5000001    1    1    2    0    0 -0.84567992074E+02  0.13019761623E+03  0.29859292531E+03  0.38549306038E+03  0.18800000000E+03 0.  0.
   -5000001    1    1    2    0    0  0.84567992074E+02 -0.13019761623E+03 -0.64900346572E+02  0.25230778732E+03  0.18800000000E+03 0.  0.
<mgrwt>
<rscale>  0 0.59344562E+03</rscale>
<asrwt>0</asrwt>
<pdfrwt beam="1">  1        1 0.62249529E-01 0.59344562E+03</pdfrwt>
<pdfrwt beam="2">  1       -1 0.28864877E-01 0.59344562E+03</pdfrwt>
<totfact> 0.64988609E+02</totfact>
</mgrwt>
</event>
<event>
 4    1  0.1545327E-005  0.7655477E+03  0.7818608E-02  0.9611269E-01
         -1   -1    0    0    0  501 -0.00000000000E+00  0.00000000000E+00  0.89357608697E+03  0.89357608699E+03  0.50400000000E-02 0. -1.
          1   -1    0    0  501    0  0.00000000000E+00 -0.00000000000E+00 -0.16396569723E+03  0.16396569731E+03  0.50400000000E-02 0.  1.
    5000001    1    1    2    0    0  0.51201041422E+02 -0.32295828036E+03  0.45484389452E+03  0.59088963934E+03  0.18800000000E+03 0.  0.
   -5000001    1    1    2    0    0 -0.51201041422E+02  0.32295828036E+03  0.27476649523E+03  0.46665214496E+03  0.18800000000E+03 0.  0.
<mgrwt>
<rscale>  0 0.76554772E+03</rscale>
<asrwt>0</asrwt>
<pdfrwt beam="1">  1        1 0.23423671E-01 0.76554772E+03</pdfrwt>
<pdfrwt beam="2">  1       -1 0.12765373E+00 0.76554772E+03</pdfrwt>
<totfact> 0.11458888E+02</totfact>
</mgrwt>
</event>
<event>
 4    1  0.1545327E-005  0.6932434E+03  0.7818608E-02  0.9728857E-01
         -1   -1    0    0    0  501 -0.00000000000E+00  0.00000000000E+00  0.57527880074E+03  0.57527880076E+03  0.50400000000E-02 0. -1.
          1   -1    0    0  501    0  0.00000000000E+00 -0.00000000000E+00 -0.20884933190E+03  0.20884933196E+03  0.50400000000E-02 0.  1.
    5000001    1    1    2    0    0 -0.28110097853E+03 -0.43635027932E+02  0.25367802419E+03  0.42499213610E+03  0.18800000000E+03 0.  0.
   -5000001    1    1    2    0    0  0.28110097853E+03  0.43635027932E+02  0.11275144465E+03  0.35913599661E+03  0.18800000000E+03 0.  0.
<mgrwt>
<rscale>  0 0.69324337E+03</rscale>
<asrwt>0</asrwt>
<pdfrwt beam="1">  1        1 0.29835618E-01 0.69324337E+03</pdfrwt>
<pdfrwt beam="2">  1       -1 0.82182687E-01 0.69324337E+03</pdfrwt>
<totfact> 0.23117491E+02</totfact>
</mgrwt>
</event>
<event>
 4    1  0.1545327E-005  0.6326138E+03  0.7818608E-02  0.9839961E-01
          1   -1    0    0  501    0  0.00000000000E+00  0.00000000000E+00  0.24805939556E+04  0.24805939556E+04  0.50400000000E-02 0. -1.
         -1   -1    0    0    0  501 -0.00000000000E+00 -0.00000000000E+00 -0.40333107640E+02  0.40333107955E+02  0.50400000000E-02 0.  1.
    5000001    1    1    2    0    0 -0.20742181350E+03 -0.10547822511E+03  0.81069670341E+03  0.86413112987E+03  0.18800000000E+03 0.  0.
   -5000001    1    1    2    0    0  0.20742181350E+03  0.10547822511E+03  0.16295641445E+04  0.16567959337E+04  0.18800000000E+03 0.  0.
<mgrwt>
<rscale>  0 0.63261383E+03</rscale>
<asrwt>0</asrwt>
<pdfrwt beam="1">  1        1 0.35437066E+00 0.63261383E+03</pdfrwt>
<pdfrwt beam="2">  1       -1 0.57618710E-02 0.63261383E+03</pdfrwt>
<totfact> 0.28962174E+02</totfact>
</mgrwt>
</event>
<event>
 4    1  0.1545327E-005  0.4593711E+03  0.7818608E-02  0.1024964E+00
          1   -1    0    0  501    0  0.00000000000E+00  0.00000000000E+00  0.24348163815E+03  0.24348163820E+03  0.50400000000E-02 0. -1.
         -1   -1    0    0    0  501 -0.00000000000E+00 -0.00000000000E+00 -0.21667115489E+03  0.21667115495E+03  0.50400000000E-02 0.  1.
    5000001    1    1    2    0    0  0.82715157583E+02  0.29820274739E+02  0.11196170241E+03  0.23581872039E+03  0.18800000000E+03 0.  0.
   -5000001    1    1    2    0    0 -0.82715157583E+02 -0.29820274739E+02 -0.85151219146E+02  0.22433407276E+03  0.18800000000E+03 0.  0.
<mgrwt>
<rscale>  0 0.45937108E+03</rscale>
<asrwt>0</asrwt>
<pdfrwt beam="1">  1        1 0.34783091E-01 0.45937108E+03</pdfrwt>
<pdfrwt beam="2">  1       -1 0.30953022E-01 0.45937108E+03</pdfrwt>
<totfact> 0.12215741E+03</totfact>
</mgrwt>
</event>
<event>
 4    1  0.1545327E-005  0.6848137E+03  0.7818608E-02  0.9743561E-01
         -1   -1    0    0    0  501 -0.00000000000E+00  0.00000000000E+00  0.16596282629E+03  0.16596282636E+03  0.50400000000E-02 0. -1.
          1   -1    0    0  501    0  0.00000000000E+00 -0.00000000000E+00 -0.70643795767E+03  0.70643795769E+03  0.50400000000E-02 0.  1.
    5000001    1    1    2    0    0 -0.89777928272E+02 -0.26622569486E+03 -0.33957279789E+03  0.47915538406E+03  0.18800000000E+03 0.  0.
   -5000001    1    1    2    0    0  0.89777928272E+02  0.26622569486E+03 -0.20090233350E+03  0.39324539999E+03  0.18800000000E+03 0.  0.
<mgrwt>
<rscale>  0 0.68481367E+03</rscale>
<asrwt>0</asrwt>
<pdfrwt beam="1">  1        1 0.10091971E+00 0.68481367E+03</pdfrwt>
<pdfrwt beam="2">  1       -1 0.23708976E-01 0.68481367E+03</pdfrwt>
<totfact> 0.46489246E+02</totfact>
</mgrwt>
</event>
<event>
 4    1  0.1545327E-005  0.4754875E+03  0.7818608E-02  0.1020383E+00
         -1   -1    0    0    0  501 -0.00000000000E+00  0.00000000000E+00  0.64180206029E+02  0.64180206227E+02  0.50400000000E-02 0. -1.
          1   -1    0    0  501    0  0.00000000000E+00 -0.00000000000E+00 -0.88067809314E+03  0.88067809315E+03  0.50400000000E-02 0.  1.
    5000001    1    1    2    0    0 -0.41297004032E+02  0.40402644157E+02 -0.67366575920E+03  0.70178869421E+03  0.18800000000E+03 0.  0.
   -5000001    1    1    2    0    0  0.41297004032E+02 -0.40402644157E+02 -0.14283212791E+03  0.24306960518E+03  0.18800000000E+03 0.  0.
<mgrwt>
<rscale>  0 0.47548755E+03</rscale>
<asrwt>0</asrwt>
<pdfrwt beam="1">  1        1 0.12581115E+00 0.47548755E+03</pdfrwt>
<pdfrwt beam="2">  1       -1 0.91686014E-02 0.47548755E+03</pdfrwt>
<totfact> 0.15542753E+03</totfact>
</mgrwt>
</event>
<event>
 4    1  0.1545327E-005  0.4731428E+03  0.7818608E-02  0.1021037E+00
          1   -1    0    0  501    0  0.00000000000E+00  0.00000000000E+00  0.11183446777E+03  0.11183446788E+03  0.50400000000E-02 0. -1.
         -1   -1    0    0    0  501 -0.00000000000E+00 -0.00000000000E+00 -0.50043624644E+03  0.50043624647E+03  0.50400000000E-02 0.  1.
    5000001    1    1    2    0    0 -0.16216674577E+02 -0.89486747011E+02 -0.50485553643E+02  0.21485727717E+03  0.18800000000E+03 0.  0.
   -5000001    1    1    2    0    0  0.16216674577E+02  0.89486747011E+02 -0.33811622503E+03  0.39741343718E+03  0.18800000000E+03 0.  0.
<mgrwt>
<rscale>  0 0.47314277E+03</rscale>
<asrwt>0</asrwt>
<pdfrwt beam="1">  1        1 0.15976353E-01 0.47314277E+03</pdfrwt>
<pdfrwt beam="2">  1       -1 0.71490891E-01 0.47314277E+03</pdfrwt>
<totfact> 0.70589206E+02</totfact>
</mgrwt>
</event>
<event>
 4    1  0.1545327E-005  0.6203004E+03  0.7818608E-02  0.9864162E-01
         -1   -1    0    0    0  501 -0.00000000000E+00  0.00000000000E+00  0.22808391887E+02  0.22808392444E+02  0.50400000000E-02 0.  1.
          1   -1    0    0  501    0  0.00000000000E+00 -0.00000000000E+00 -0.42174449326E+04  0.42174449326E+04  0.50400000000E-02 0. -1.
    5000001    1    1    2    0    0 -0.17059331806E+03 -0.14762247138E+03 -0.27793476121E+04  0.27948187103E+04  0.18800000000E+03 0.  0.
   -5000001    1    1    2    0    0  0.17059331806E+03  0.14762247138E+03 -0.14152889286E+04  0.14454346147E+04  0.18800000000E+03 0.  0.
<mgrwt>
<rscale>  0 0.62030037E+03</rscale>
<asrwt>0</asrwt>
<pdfrwt beam="1">  1        1 0.60249163E+00 0.62030037E+03</pdfrwt>
<pdfrwt beam="2">  1       -1 0.32583444E-02 0.62030037E+03</pdfrwt>
<totfact> 0.45145720E+01</totfact>
</mgrwt>
</event>
<event>
 4    1  0.1545327E-005  0.6888128E+03  0.7818608E-02  0.9736557E-01
         -1   -1    0    0    0  501 -0.00000000000E+00  0.00000000000E+00  0.24989734248E+03  0.24989734253E+03  0.50400000000E-02 0. -1.
          1   -1    0    0  501    0  0.00000000000E+00 -0.00000000000E+00 -0.47465795430E+03  0.47465795432E+03  0.50400000000E-02 0.  1.
    5000001    1    1    2    0    0  0.23653217260E+03  0.16343801952E+03 -0.13840914346E+03  0.37035192168E+03  0.18800000000E+03 0.  0.
   -5000001    1    1    2    0    0 -0.23653217260E+03 -0.16343801952E+03 -0.86351468359E+02  0.35420337518E+03  0.18800000000E+03 0.  0.
<mgrwt>
<rscale>  0 0.68881278E+03</rscale>
<asrwt>0</asrwt>
<pdfrwt beam="1">  1        1 0.67808279E-01 0.68881278E+03</pdfrwt>
<pdfrwt beam="2">  1       -1 0.35699621E-01 0.68881278E+03</pdfrwt>
<totfact> 0.39847256E+02</totfact>
</mgrwt>
</event>
<event>
 4    1  0.1545327E-005  0.5971924E+03  0.7818608E-02  0.9911248E-01
         -1   -1    0    0    0  501 -0.00000000000E+00  0.00000000000E+00  0.35733083342E+03  0.35733083346E+03  0.50400000000E-02 0. -1.
          1   -1    0    0  501    0  0.00000000000E+00 -0.00000000000E+00 -0.24951578940E+03  0.24951578945E+03  0.50400000000E-02 0.  1.
    5000001    1    1    2    0    0 -0.19653718534E+03 -0.12322692747E+03  0.55925610410E+02  0.30378185393E+03  0.18800000000E+03 0.  0.
   -5000001    1    1    2    0    0  0.19653718534E+03  0.12322692747E+03  0.51889433614E+02  0.30306476898E+03  0.18800000000E+03 0.  0.
<mgrwt>
<rscale>  0 0.59719238E+03</rscale>
<asrwt>0</asrwt>
<pdfrwt beam="1">  1        1 0.35645113E-01 0.59719238E+03</pdfrwt>
<pdfrwt beam="2">  1       -1 0.51047261E-01 0.59719238E+03</pdfrwt>
<totfact> 0.47880804E+02</totfact>
</mgrwt>
</event>
<event>
 4    1  0.1545327E-005  0.8433603E+03  0.7818608E-02  0.9499292E-01
         -1   -1    0    0    0  501 -0.00000000000E+00  0.00000000000E+00  0.20370502344E+03  0.20370502351E+03  0.50400000000E-02 0. -1.
          1   -1    0    0  501    0  0.00000000000E+00 -0.00000000000E+00 -0.87290024993E+03  0.87290024995E+03  0.50400000000E-02 0.  1.
    5000001    1    1    2    0    0  0.29433433543E+03 -0.15743586636E+03 -0.55954658462E+03  0.67812619283E+03  0.18800000000E+03 0.  0.
   -5000001    1    1    2    0    0 -0.29433433543E+03  0.15743586636E+03 -0.10964864186E+03  0.39847908062E+03  0.18800000000E+03 0.  0.
<mgrwt>
<rscale>  0 0.84336034E+03</rscale>
<asrwt>0</asrwt>
<pdfrwt beam="1">  1        1 0.12470003E+00 0.84336034E+03</pdfrwt>
<pdfrwt beam="2">  1       -1 0.29100718E-01 0.84336034E+03</pdfrwt>
<totfact> 0.23463057E+02</totfact>
</mgrwt>
</event>
<event>
 4    1  0.1545327E-005  0.6457641E+03  0.7818608E-02  0.9814760E-01
         -1   -1    0    0    0  501 -0.00000000000E+00  0.00000000000E+00  0.57484354343E+03  0.57484354345E+03  0.50400000000E-02 0. -1.
          1   -1    0    0  501    0  0.00000000000E+00 -0.00000000000E+00 -0.18135860865E+03  0.18135860872E+03  0.50400000000E-02 0.  1.
    5000001    1    1    2    0    0 -0.12786176886E+03  0.19184351084E+03  0.49751524630E+02  0.30161528275E+03  0.18800000000E+03 0.  0.
   -5000001    1    1    2    0    0  0.12786176886E+03 -0.19184351084E+03  0.34373341015E+03  0.45458686941E+03  0.18800000000E+03 0.  0.
<mgrwt>
<rscale>  0 0.64576412E+03</rscale>
<asrwt>0</asrwt>
<pdfrwt beam="1">  1        1 0.25908372E-01 0.64576412E+03</pdfrwt>
<pdfrwt beam="2">  1       -1 0.82120508E-01 0.64576412E+03</pdfrwt>
<totfact> 0.27869531E+02</totfact>
</mgrwt>
</event>
<event>
 4    1  0.1545327E-005  0.5452071E+03  0.7818608E-02  0.1002609E+00
          1   -1    0    0  501    0  0.00000000000E+00  0.00000000000E+00  0.23325772184E+03  0.23325772189E+03  0.50400000000E-02 0.  1.
         -1   -1    0    0    0  501 -0.00000000000E+00 -0.00000000000E+00 -0.31858622746E+03  0.31858622750E+03  0.50400000000E-02 0. -1.
    5000001    1    1    2    0    0  0.12568445558E+03 -0.15202953039E+03 -0.50447933892E+02  0.27712552123E+03  0.18800000000E+03 0.  0.
   -5000001    1    1    2    0    0 -0.12568445558E+03  0.15202953039E+03 -0.34880571730E+02  0.27471842816E+03  0.18800000000E+03 0.  0.
<mgrwt>
<rscale>  0 0.54520711E+03</rscale>
<asrwt>0</asrwt>
<pdfrwt beam="1">  1        1 0.33322532E-01 0.54520711E+03</pdfrwt>
<pdfrwt beam="2">  1       -1 0.45512318E-01 0.54520711E+03</pdfrwt>
<totfact> 0.64786631E+02</totfact>
</mgrwt>
</event>
<event>
 4    1  0.1545327E-005  0.1003216E+04  0.7818608E-02  0.9305024E-01
         -1   -1    0    0    0  501 -0.00000000000E+00  0.00000000000E+00  0.65341062477E+03  0.65341062479E+03  0.50400000000E-02 0. -1.
          1   -1    0    0  501    0  0.00000000000E+00 -0.00000000000E+00 -0.38507299719E+03  0.38507299722E+03  0.50400000000E-02 0.  1.
    5000001    1    1    2    0    0  0.39498931753E+03  0.19312069575E+03  0.29100277631E+03  0.55976671918E+03  0.18800000000E+03 0.  0.
   -5000001    1    1    2    0    0 -0.39498931753E+03 -0.19312069575E+03 -0.22665148727E+02  0.47871690283E+03  0.18800000000E+03 0.  0.
<mgrwt>
<rscale>  0 0.10032164E+04</rscale>
<asrwt>0</asrwt>
<pdfrwt beam="1">  1        1 0.55010428E-01 0.10032164E+04</pdfrwt>
<pdfrwt beam="2">  1       -1 0.93344375E-01 0.10032164E+04</pdfrwt>
<totfact> 0.77793588E+01</totfact>
</mgrwt>
</event>
<event>
 4    1  0.1545327E-005  0.5590025E+03  0.7818608E-02  0.9994314E-01
          1   -1    0    0  501    0  0.00000000000E+00  0.00000000000E+00  0.18201998492E+03  0.18201998499E+03  0.50400000000E-02 0.  1.
         -1   -1    0    0    0  501 -0.00000000000E+00 -0.00000000000E+00 -0.42918880207E+03  0.42918880210E+03  0.50400000000E-02 0. -1.
    5000001    1    1    2    0    0 -0.31307278285E+02 -0.19047518585E+03 -0.42378452400E+02  0.27276523848E+03  0.18800000000E+03 0.  0.
   -5000001    1    1    2    0    0  0.31307278285E+02  0.19047518585E+03 -0.20479036475E+03  0.33844354861E+03  0.18800000000E+03 0.  0.
<mgrwt>
<rscale>  0 0.55900247E+03</rscale>
<asrwt>0</asrwt>
<pdfrwt beam="1">  1        1 0.26002855E-01 0.55900247E+03</pdfrwt>
<pdfrwt beam="2">  1       -1 0.61312686E-01 0.55900247E+03</pdfrwt>
<totfact> 0.50571230E+02</totfact>
</mgrwt>
</event>
<event>
 4    1  0.1545327E-005  0.6893801E+03  0.7818608E-02  0.9735568E-01
          1   -1    0    0  501    0  0.00000000000E+00  0.00000000000E+00  0.18387960837E+03  0.18387960844E+03  0.50400000000E-02 0.  1.
         -1   -1    0    0    0  501 -0.00000000000E+00 -0.00000000000E+00 -0.64613590628E+03  0.64613590630E+03  0.50400000000E-02 0. -1.
    5000001    1    1    2    0    0  0.17412974629E+03  0.23048340539E+03 -0.23695839960E+03  0.41825476906E+03  0.18800000000E+03 0.  0.
   -5000001    1    1    2    0    0 -0.17412974629E+03 -0.23048340539E+03 -0.22529789831E+03  0.41176074569E+03  0.18800000000E+03 0.  0.
<mgrwt>
<rscale>  0 0.68938006E+03</rscale>
<asrwt>0</asrwt>
<pdfrwt beam="1">  1        1 0.26268516E-01 0.68938006E+03</pdfrwt>
<pdfrwt beam="2">  1       -1 0.92305128E-01 0.68938006E+03</pdfrwt>
<totfact> 0.21196406E+02</totfact>
</mgrwt>
</event>
<event>
 4    1  0.1545327E-005  0.6007927E+03  0.7818608E-02  0.9903763E-01
         -1   -1    0    0    0  501 -0.00000000000E+00  0.00000000000E+00  0.79077079709E+02  0.79077079870E+02  0.50400000000E-02 0. -1.
          1   -1    0    0  501    0  0.00000000000E+00 -0.00000000000E+00 -0.11411394408E+04  0.11411394408E+04  0.50400000000E-02 0.  1.
    5000001    1    1    2    0    0  0.21141273454E+03 -0.10856282071E+02 -0.32711151060E+03  0.43261893573E+03  0.18800000000E+03 0.  0.
   -5000001    1    1    2    0    0 -0.21141273454E+03  0.10856282071E+02 -0.73495085052E+03  0.78759758498E+03  0.18800000000E+03 0.  0.
<mgrwt>
<rscale>  0 0.60079273E+03</rscale>
<asrwt>0</asrwt>
<pdfrwt beam="1">  1        1 0.16301991E+00 0.60079273E+03</pdfrwt>
<pdfrwt beam="2">  1       -1 0.11296726E-01 0.60079273E+03</pdfrwt>
<totfact> 0.71738090E+02</totfact>
</mgrwt>
</event>
<event>
 4    1  0.1545327E-005  0.4521124E+03  0.7818608E-02  0.1027094E+00
         -1   -1    0    0    0  501 -0.00000000000E+00  0.00000000000E+00  0.12562594743E+03  0.12562594753E+03  0.50400000000E-02 0. -1.
          1   -1    0    0  501    0  0.00000000000E+00 -0.00000000000E+00 -0.40677436515E+03  0.40677436518E+03  0.50400000000E-02 0.  1.
    5000001    1    1    2    0    0 -0.72292128474E+02  0.25941197240E+02 -0.25749540333E+03  0.32794356266E+03  0.18800000000E+03 0.  0.
   -5000001    1    1    2    0    0  0.72292128474E+02 -0.25941197240E+02 -0.23653014387E+02  0.20445675006E+03  0.18800000000E+03 0.  0.
<mgrwt>
<rscale>  0 0.45211244E+03</rscale>
<asrwt>0</asrwt>
<pdfrwt beam="1">  1        1 0.58110623E-01 0.45211244E+03</pdfrwt>
<pdfrwt beam="2">  1       -1 0.17946564E-01 0.45211244E+03</pdfrwt>
<totfact> 0.15787691E+03</totfact>
</mgrwt>
</event>
<event>
 4    1  0.1545327E-005  0.8913155E+03  0.7818608E-02  0.9436503E-01
          1   -1    0    0  501    0  0.00000000000E+00  0.00000000000E+00  0.81168286549E+03  0.81168286551E+03  0.50400000000E-02 0.  1.
         -1   -1    0    0    0  501 -0.00000000000E+00 -0.00000000000E+00 -0.24469017799E+03  0.24469017804E+03  0.50400000000E-02 0. -1.
    5000001    1    1    2    0    0  0.61875150863E+02 -0.38968284878E+03  0.38672015933E+03  0.58359038593E+03  0.18800000000E+03 0.  0.
   -5000001    1    1    2    0    0 -0.61875150863E+02  0.38968284878E+03  0.18027252818E+03  0.47278265761E+03  0.18800000000E+03 0.  0.
<mgrwt>
<rscale>  0 0.89131549E+03</rscale>
<asrwt>0</asrwt>
<pdfrwt beam="1">  1        1 0.11595470E+00 0.89131549E+03</pdfrwt>
<pdfrwt beam="2">  1       -1 0.34955738E-01 0.89131549E+03</pdfrwt>
<totfact> 0.19015197E+02</totfact>
</mgrwt>
</event>
<event>
 4    1  0.1545327E-005  0.6218021E+03  0.7818608E-02  0.9861178E-01
         -1   -1    0    0    0  501 -0.00000000000E+00  0.00000000000E+00  0.38035949873E+02  0.38035950207E+02  0.50400000000E-02 0. -1.
          1   -1    0    0  501    0  0.00000000000E+00 -0.00000000000E+00 -0.25412655810E+04  0.25412655810E+04  0.50400000000E-02 0.  1.
    5000001    1    1    2    0    0  0.17338008303E+03 -0.83455464416E+01 -0.19841422140E+04  0.20005735745E+04  0.18800000000E+03 0.  0.
   -5000001    1    1    2    0    0 -0.17338008303E+03  0.83455464416E+01 -0.51908741710E+03  0.57872795675E+03  0.18800000000E+03 0.  0.
<mgrwt>
<rscale>  0 0.62180206E+03</rscale>
<asrwt>0</asrwt>
<pdfrwt beam="1">  1        1 0.36303783E+00 0.62180206E+03</pdfrwt>
<pdfrwt beam="2">  1       -1 0.54337087E-02 0.62180206E+03</pdfrwt>
<totfact> 0.29074936E+02</totfact>
</mgrwt>
</event>
<event>
 4    1  0.1545327E-005  0.4963903E+03  0.7818608E-02  0.1014725E+00
         -1   -1    0    0    0  501 -0.00000000000E+00  0.00000000000E+00  0.89505855252E+02  0.89505855394E+02  0.50400000000E-02 0. -1.
          1   -1    0    0  501    0  0.00000000000E+00 -0.00000000000E+00 -0.68823236611E+03  0.68823236613E+03  0.50400000000E-02 0.  1.
    5000001    1    1    2    0    0  0.13120239496E+03  0.80603522391E+02 -0.37841744772E+03  0.44972742968E+03  0.18800000000E+03 0.  0.
   -5000001    1    1    2    0    0 -0.13120239496E+03 -0.80603522391E+02 -0.22030906314E+03  0.32801079185E+03  0.18800000000E+03 0.  0.
<mgrwt>
<rscale>  0 0.49639028E+03</rscale>
<asrwt>0</asrwt>
<pdfrwt beam="1">  1        1 0.98318907E-01 0.49639028E+03</pdfrwt>
<pdfrwt beam="2">  1       -1 0.12786551E-01 0.49639028E+03</pdfrwt>
<totfact> 0.13351994E+03</totfact>
</mgrwt>
</event>
<event>
 4    1  0.1545327E-005  0.4583202E+03  0.7818608E-02  0.1025270E+00
         -1   -1    0    0    0  501 -0.00000000000E+00  0.00000000000E+00  0.10432989707E+03  0.10432989720E+03  0.50400000000E-02 0.  1.
          1   -1    0    0  501    0  0.00000000000E+00 -0.00000000000E+00 -0.50334898456E+03  0.50334898459E+03  0.50400000000E-02 0. -1.
    5000001    1    1    2    0    0  0.11613022986E+03 -0.41039690610E+02 -0.25880277231E+03  0.34277304656E+03  0.18800000000E+03 0.  0.
   -5000001    1    1    2    0    0 -0.11613022986E+03  0.41039690610E+02 -0.14021631518E+03  0.26490583522E+03  0.18800000000E+03 0.  0.
<mgrwt>
<rscale>  0 0.45832018E+03</rscale>
<asrwt>0</asrwt>
<pdfrwt beam="1">  1        1 0.71906997E-01 0.45832018E+03</pdfrwt>
<pdfrwt beam="2">  1       -1 0.14904271E-01 0.45832018E+03</pdfrwt>
<totfact> 0.16117753E+03</totfact>
</mgrwt>
</event>
<event>
 4    1  0.1545327E-005  0.1163253E+04  0.7818608E-02  0.9145644E-01
         -1   -1    0    0    0  501 -0.00000000000E+00  0.00000000000E+00  0.90497477181E+02  0.90497477321E+02  0.50400000000E-02 0. -1.
          1   -1    0    0  501    0  0.00000000000E+00 -0.00000000000E+00 -0.37381064361E+04  0.37381064361E+04  0.50400000000E-02 0.  1.
    5000001    1    1    2    0    0 -0.35512646575E+02  0.48971797255E+03 -0.26424061038E+04  0.26942046801E+04  0.18800000000E+03 0.  0.
   -5000001    1    1    2    0    0  0.35512646575E+02 -0.48971797255E+03 -0.10052028551E+04  0.11343992334E+04  0.18800000000E+03 0.  0.
<mgrwt>
<rscale>  0 0.11632527E+04</rscale>
<asrwt>0</asrwt>
<pdfrwt beam="1">  1        1 0.53401511E+00 0.11632527E+04</pdfrwt>
<pdfrwt beam="2">  1       -1 0.12928213E-01 0.11632527E+04</pdfrwt>
<totfact> 0.11220702E+01</totfact>
</mgrwt>
</event>
<event>
 4    1  0.1545327E-005  0.5298118E+03  0.7818608E-02  0.1006278E+00
          1   -1    0    0  501    0  0.00000000000E+00  0.00000000000E+00  0.44562465245E+03  0.44562465248E+03  0.50400000000E-02 0.  1.
         -1   -1    0    0    0  501 -0.00000000000E+00 -0.00000000000E+00 -0.15747586142E+03  0.15747586150E+03  0.50400000000E-02 0. -1.
    5000001    1    1    2    0    0  0.40678195744E+02  0.16125517897E+03  0.24048479821E+03  0.34761312766E+03  0.18800000000E+03 0.  0.
   -5000001    1    1    2    0    0 -0.40678195744E+02 -0.16125517897E+03  0.47663992825E+02  0.25548738631E+03  0.18800000000E+03 0.  0.
<mgrwt>
<rscale>  0 0.52981176E+03</rscale>
<asrwt>0</asrwt>
<pdfrwt beam="1">  1        1 0.63660665E-01 0.52981176E+03</pdfrwt>
<pdfrwt beam="2">  1       -1 0.22496551E-01 0.52981176E+03</pdfrwt>
<totfact> 0.96461214E+02</totfact>
</mgrwt>
</event>
<event>
 4    1  0.1545327E-005  0.5251488E+03  0.7818608E-02  0.1007415E+00
          1   -1    0    0  501    0  0.00000000000E+00  0.00000000000E+00  0.26769264052E+04  0.26769264052E+04  0.50400000000E-02 0.  1.
         -1   -1    0    0    0  501 -0.00000000000E+00 -0.00000000000E+00 -0.25755398931E+02  0.25755399424E+02  0.50400000000E-02 0. -1.
    5000001    1    1    2    0    0 -0.77982133972E+01  0.18309240789E+03  0.13472168710E+04  0.13725599949E+04  0.18800000000E+03 0.  0.
   -5000001    1    1    2    0    0  0.77982133972E+01 -0.18309240789E+03  0.13039541352E+04  0.13301218097E+04  0.18800000000E+03 0.  0.
<mgrwt>
<rscale>  0 0.52514877E+03</rscale>
<asrwt>0</asrwt>
<pdfrwt beam="1">  1        1 0.38241759E+00 0.52514877E+03</pdfrwt>
<pdfrwt beam="2">  1       -1 0.36793473E-02 0.52514877E+03</pdfrwt>
<totfact> 0.43681209E+02</totfact>
</mgrwt>
</event>
<event>
 4    1  0.1545327E-005  0.5256743E+03  0.7818608E-02  0.1007287E+00
          1   -1    0    0  501    0  0.00000000000E+00  0.00000000000E+00  0.14017667540E+03  0.14017667549E+03  0.50400000000E-02 0.  1.
         -1   -1    0    0    0  501 -0.00000000000E+00 -0.00000000000E+00 -0.49283065847E+03  0.49283065849E+03  0.50400000000E-02 0. -1.
    5000001    1    1    2    0    0 -0.11136733563E+02 -0.12255820551E+03 -0.12121366342E+02  0.22502326123E+03  0.18800000000E+03 0.  0.
   -5000001    1    1    2    0    0  0.11136733563E+02  0.12255820551E+03 -0.34053261672E+03  0.40798407276E+03  0.18800000000E+03 0.  0.
<mgrwt>
<rscale>  0 0.52567428E+03</rscale>
<asrwt>0</asrwt>
<pdfrwt beam="1">  1        1 0.20025240E-01 0.52567428E+03</pdfrwt>
<pdfrwt beam="2">  1       -1 0.70404379E-01 0.52567428E+03</pdfrwt>
<totfact> 0.53981335E+02</totfact>
</mgrwt>
</event>
<event>
 4    1  0.1545327E-005  0.5660286E+03  0.7818608E-02  0.9978505E-01
          1   -1    0    0  501    0  0.00000000000E+00  0.00000000000E+00  0.13281548328E+04  0.13281548328E+04  0.50400000000E-02 0.  1.
         -1   -1    0    0    0  501 -0.00000000000E+00 -0.00000000000E+00 -0.60307047833E+02  0.60307048044E+02  0.50400000000E-02 0. -1.
    5000001    1    1    2    0    0  0.25999057617E+02 -0.20441631497E+03  0.51651009082E+03  0.58701674145E+03  0.18800000000E+03 0.  0.
   -5000001    1    1    2    0    0 -0.25999057617E+02  0.20441631497E+03  0.75133769411E+03  0.80144513937E+03  0.18800000000E+03 0.  0.
<mgrwt>
<rscale>  0 0.56602861E+03</rscale>
<asrwt>0</asrwt>
<pdfrwt beam="1">  1        1 0.18973641E+00 0.56602861E+03</pdfrwt>
<pdfrwt beam="2">  1       -1 0.86152923E-02 0.56602861E+03</pdfrwt>
<totfact> 0.82216318E+02</totfact>
</mgrwt>
</event>
<event>
 4    1  0.1545327E-005  0.6853368E+03  0.7818608E-02  0.9742642E-01
         -1   -1    0    0    0  501 -0.00000000000E+00  0.00000000000E+00  0.13887523986E+04  0.13887523986E+04  0.50400000000E-02 0. -1.
          1   -1    0    0  501    0  0.00000000000E+00 -0.00000000000E+00 -0.84551884101E+02  0.84551884251E+02  0.50400000000E-02 0.  1.
    5000001    1    1    2    0    0 -0.26172382727E+03  0.30901363784E+02  0.89363308028E+03  0.95046217085E+03  0.18800000000E+03 0.  0.
   -5000001    1    1    2    0    0  0.26172382727E+03 -0.30901363784E+02  0.41056743419E+03  0.52284211198E+03  0.18800000000E+03 0.  0.
<mgrwt>
<rscale>  0 0.68533680E+03</rscale>
<asrwt>0</asrwt>
<pdfrwt beam="1">  1        1 0.12078840E-01 0.68533680E+03</pdfrwt>
<pdfrwt beam="2">  1       -1 0.19839321E+00 0.68533680E+03</pdfrwt>
<totfact> 0.82053431E+01</totfact>
</mgrwt>
</event>
<event>
 4    1  0.1545327E-005  0.5431709E+03  0.7818608E-02  0.1003087E+00
          1   -1    0    0  501    0  0.00000000000E+00  0.00000000000E+00  0.19309710314E+04  0.19309710314E+04  0.50400000000E-02 0.  1.
         -1   -1    0    0    0  501 -0.00000000000E+00 -0.00000000000E+00 -0.38197699360E+02  0.38197699692E+02  0.50400000000E-02 0. -1.
    5000001    1    1    2    0    0  0.19125299442E+02 -0.18370200317E+03  0.70859081229E+03  0.75601398288E+03  0.18800000000E+03 0.  0.
   -5000001    1    1    2    0    0 -0.19125299442E+02  0.18370200317E+03  0.11841825197E+04  0.12131547482E+04  0.18800000000E+03 0.  0.
<mgrwt>
<rscale>  0 0.54317088E+03</rscale>
<asrwt>0</asrwt>
<pdfrwt beam="1">  1        1 0.27585309E+00 0.54317088E+03</pdfrwt>
<pdfrwt beam="2">  1       -1 0.54568126E-02 0.54317088E+03</pdfrwt>
<totfact> 0.69326488E+02</totfact>
</mgrwt>
</event>
<event>
 4    1  0.1545327E-005  0.4619875E+03  0.7818608E-02  0.1024206E+00
          1   -1    0    0  501    0  0.00000000000E+00  0.00000000000E+00  0.81472167568E+02  0.81472167724E+02  0.50400000000E-02 0. -1.
         -1   -1    0    0    0  501 -0.00000000000E+00 -0.00000000000E+00 -0.65492434467E+03  0.65492434469E+03  0.50400000000E-02 0.  1.
    5000001    1    1    2    0    0  0.11371139040E+03 -0.65848013015E+02 -0.33031671373E+03  0.40214347253E+03  0.18800000000E+03 0.  0.
   -5000001    1    1    2    0    0 -0.11371139040E+03  0.65848013015E+02 -0.24313546336E+03  0.33425303988E+03  0.18800000000E+03 0.  0.
<mgrwt>
<rscale>  0 0.46198747E+03</rscale>
<asrwt>0</asrwt>
<pdfrwt beam="1">  1        1 0.11638881E-01 0.46198747E+03</pdfrwt>
<pdfrwt beam="2">  1       -1 0.93560618E-01 0.46198747E+03</pdfrwt>
<totfact> 0.61099001E+02</totfact>
</mgrwt>
</event>
<event>
 4    1  0.1545327E-005  0.7941966E+03  0.7818608E-02  0.9568455E-01
         -1   -1    0    0    0  501 -0.00000000000E+00  0.00000000000E+00  0.86257311034E+02  0.86257311181E+02  0.50400000000E-02 0.  1.
          1   -1    0    0  501    0  0.00000000000E+00 -0.00000000000E+00 -0.18281008381E+04  0.18281008381E+04  0.50400000000E-02 0. -1.
    5000001    1    1    2    0    0  0.33956075818E+03  0.19415896509E+02 -0.67414153269E+03  0.77813192431E+03  0.18800000000E+03 0.  0.
   -5000001    1    1    2    0    0 -0.33956075818E+03 -0.19415896509E+02 -0.10677019944E+04  0.11362262250E+04  0.18800000000E+03 0.  0.
<mgrwt>
<rscale>  0 0.79419661E+03</rscale>
<asrwt>0</asrwt>
<pdfrwt beam="1">  1        1 0.26115724E+00 0.79419661E+03</pdfrwt>
<pdfrwt beam="2">  1       -1 0.12322474E-01 0.79419661E+03</pdfrwt>
<totfact> 0.22048291E+02</totfact>
</mgrwt>
</event>
<event>
 4    1  0.1545327E-005  0.5193100E+03  0.7818608E-02  0.1008858E+00
         -1   -1    0    0    0  501 -0.00000000000E+00  0.00000000000E+00  0.24628860770E+03  0.24628860775E+03  0.50400000000E-02 0. -1.
          1   -1    0    0  501    0  0.00000000000E+00 -0.00000000000E+00 -0.27374685485E+03  0.27374685490E+03  0.50400000000E-02 0.  1.
    5000001    1    1    2    0    0  0.11418012499E+02  0.13358902928E+03 -0.13263981468E+03  0.26629630150E+03  0.18800000000E+03 0.  0.
   -5000001    1    1    2    0    0 -0.11418012499E+02 -0.13358902928E+03  0.10518156753E+03  0.25373916115E+03  0.18800000000E+03 0.  0.
<mgrwt>
<rscale>  0 0.51931005E+03</rscale>
<asrwt>0</asrwt>
<pdfrwt beam="1">  1        1 0.39106694E-01 0.51931005E+03</pdfrwt>
<pdfrwt beam="2">  1       -1 0.35184087E-01 0.51931005E+03</pdfrwt>
<totfact> 0.84020864E+02</totfact>
</mgrwt>
</event>
<event>
 4    1  0.1545327E-005  0.9841266E+03  0.7818608E-02  0.9326128E-01
          1   -1    0    0  501    0  0.00000000000E+00  0.00000000000E+00  0.61224102107E+03  0.61224102109E+03  0.50400000000E-02 0.  1.
         -1   -1    0    0    0  501 -0.00000000000E+00 -0.00000000000E+00 -0.39547541549E+03  0.39547541552E+03  0.50400000000E-02 0. -1.
    5000001    1    1    2    0    0 -0.35244168959E+03  0.10166056822E+02 -0.18566572214E+03  0.44060668816E+03  0.18800000000E+03 0.  0.
   -5000001    1    1    2    0    0  0.35244168959E+03 -0.10166056822E+02  0.40243132772E+03  0.56710974846E+03  0.18800000000E+03 0.  0.
<mgrwt>
<rscale>  0 0.98412656E+03</rscale>
<asrwt>0</asrwt>
<pdfrwt beam="1">  1        1 0.87463003E-01 0.98412656E+03</pdfrwt>
<pdfrwt beam="2">  1       -1 0.56496488E-01 0.98412656E+03</pdfrwt>
<totfact> 0.11777098E+02</totfact>
</mgrwt>
</event>
<event>
 4    1  0.1545327E-005  0.7673386E+03  0.7818608E-02  0.9608535E-01
         -1   -1    0    0    0  501 -0.00000000000E+00  0.00000000000E+00  0.20345606035E+03  0.20345606041E+03  0.50400000000E-02 0. -1.
          1   -1    0    0  501    0  0.00000000000E+00 -0.00000000000E+00 -0.72350815765E+03  0.72350815766E+03  0.50400000000E-02 0.  1.
    5000001    1    1    2    0    0  0.33312097968E+03  0.29418680331E+02 -0.26582879134E+03  0.46673760526E+03  0.18800000000E+03 0.  0.
   -5000001    1    1    2    0    0 -0.33312097968E+03 -0.29418680331E+02 -0.25422330596E+03  0.46022661282E+03  0.18800000000E+03 0.  0.
<mgrwt>
<rscale>  0 0.76733857E+03</rscale>
<asrwt>0</asrwt>
<pdfrwt beam="1">  1        1 0.10335831E+00 0.76733857E+03</pdfrwt>
<pdfrwt beam="2">  1       -1 0.29065152E-01 0.76733857E+03</pdfrwt>
<totfact> 0.31546018E+02</totfact>
</mgrwt>
</event>
<event>
 4    1  0.1545327E-005  0.5151607E+03  0.7818608E-02  0.1009896E+00
          1   -1    0    0  501    0  0.00000000000E+00  0.00000000000E+00  0.43694014027E+03  0.43694014030E+03  0.50400000000E-02 0.  1.
         -1   -1    0    0    0  501 -0.00000000000E+00 -0.00000000000E+00 -0.15184607160E+03  0.15184607168E+03  0.50400000000E-02 0. -1.
    5000001    1    1    2    0    0 -0.15838251142E+00  0.15827645147E+03  0.54370495882E+02  0.25169745926E+03  0.18800000000E+03 0.  0.
   -5000001    1    1    2    0    0  0.15838251142E+00 -0.15827645147E+03  0.23072357279E+03  0.33708875273E+03  0.18800000000E+03 0.  0.
<mgrwt>
<rscale>  0 0.51516073E+03</rscale>
<asrwt>0</asrwt>
<pdfrwt beam="1">  1        1 0.62420021E-01 0.51516073E+03</pdfrwt>
<pdfrwt beam="2">  1       -1 0.21692296E-01 0.51516073E+03</pdfrwt>
<totfact> 0.10521110E+03</totfact>
</mgrwt>
</event>
<event>
 4    1  0.1545327E-005  0.6704052E+03  0.7818608E-02  0.9769226E-01
          1   -1    0    0  501    0  0.00000000000E+00  0.00000000000E+00  0.20512934435E+03  0.20512934441E+03  0.50400000000E-02 0. -1.
         -1   -1    0    0    0  501 -0.00000000000E+00 -0.00000000000E+00 -0.54775578463E+03  0.54775578465E+03  0.50400000000E-02 0.  1.
    5000001    1    1    2    0    0  0.13905821076E+03 -0.22762983473E+03 -0.25731310144E+03  0.41557978754E+03  0.18800000000E+03 0.  0.
   -5000001    1    1    2    0    0 -0.13905821076E+03  0.22762983473E+03 -0.85313338848E+02  0.33730534153E+03  0.18800000000E+03 0.  0.
<mgrwt>
<rscale>  0 0.67040521E+03</rscale>
<asrwt>0</asrwt>
<pdfrwt beam="1">  1        1 0.29304192E-01 0.67040521E+03</pdfrwt>
<pdfrwt beam="2">  1       -1 0.78250826E-01 0.67040521E+03</pdfrwt>
<totfact> 0.26277729E+02</totfact>
</mgrwt>
</event>
<event>
 4    1  0.1545327E-005  0.9594874E+03  0.7818608E-02  0.9354129E-01
         -1   -1    0    0    0  501 -0.00000000000E+00  0.00000000000E+00  0.29050324121E+03  0.29050324125E+03  0.50400000000E-02 0. -1.
          1   -1    0    0  501    0  0.00000000000E+00 -0.00000000000E+00 -0.79225974987E+03  0.79225974988E+03  0.50400000000E-02 0.  1.
    5000001    1    1    2    0    0  0.78758915265E+02 -0.30430937175E+03 -0.60053041515E+03  0.70341164334E+03  0.18800000000E+03 0.  0.
   -5000001    1    1    2    0    0 -0.78758915265E+02  0.30430937175E+03  0.98773906496E+02  0.37935134779E+03  0.18800000000E+03 0.  0.
<mgrwt>
<rscale>  0 0.95948742E+03</rscale>
<asrwt>0</asrwt>
<pdfrwt beam="1">  1        1 0.11317996E+00 0.95948742E+03</pdfrwt>
<pdfrwt beam="2">  1       -1 0.41500463E-01 0.95948742E+03</pdfrwt>
<totfact> 0.14419684E+02</totfact>
</mgrwt>
</event>
<event>
 4    1  0.1545327E-005  0.4429934E+03  0.7818608E-02  0.1029832E+00
         -1   -1    0    0    0  501 -0.00000000000E+00  0.00000000000E+00  0.11549588390E+03  0.11549588401E+03  0.50400000000E-02 0.  1.
          1   -1    0    0  501    0  0.00000000000E+00 -0.00000000000E+00 -0.42478383198E+03  0.42478383201E+03  0.50400000000E-02 0. -1.
    5000001    1    1    2    0    0 -0.10026185007E+03  0.24943424494E+02 -0.22191270703E+03  0.30864844491E+03  0.18800000000E+03 0.  0.
   -5000001    1    1    2    0    0  0.10026185007E+03 -0.24943424494E+02 -0.87375241044E+02  0.23163127110E+03  0.18800000000E+03 0.  0.
<mgrwt>
<rscale>  0 0.44299338E+03</rscale>
<asrwt>0</asrwt>
<pdfrwt beam="1">  1        1 0.60683404E-01 0.44299338E+03</pdfrwt>
<pdfrwt beam="2">  1       -1 0.16499412E-01 0.44299338E+03</pdfrwt>
<totfact> 0.17106322E+03</totfact>
</mgrwt>
</event>
<event>
 4    1  0.1545327E-005  0.7686022E+03  0.7818608E-02  0.9606610E-01
         -1   -1    0    0    0  501 -0.00000000000E+00  0.00000000000E+00  0.73668171836E+02  0.73668172008E+02  0.50400000000E-02 0. -1.
          1   -1    0    0  501    0  0.00000000000E+00 -0.00000000000E+00 -0.20047644172E+04  0.20047644172E+04  0.50400000000E-02 0.  1.
    5000001    1    1    2    0    0  0.76116450777E+02 -0.31889067359E+03 -0.77706220619E+03  0.86409180535E+03  0.18800000000E+03 0.  0.
   -5000001    1    1    2    0    0 -0.76116450777E+02  0.31889067359E+03 -0.11540340391E+04  0.12143407838E+04  0.18800000000E+03 0.  0.
<mgrwt>
<rscale>  0 0.76860219E+03</rscale>
<asrwt>0</asrwt>
<pdfrwt beam="1">  1        1 0.28639488E+00 0.76860219E+03</pdfrwt>
<pdfrwt beam="2">  1       -1 0.10524026E-01 0.76860219E+03</pdfrwt>
<totfact> 0.22055632E+02</totfact>
</mgrwt>
</event>
<event>
 4    1  0.1545327E-005  0.7049489E+03  0.7818608E-02  0.9708806E-01
          1   -1    0    0  501    0  0.00000000000E+00  0.00000000000E+00  0.34498139015E+03  0.34498139019E+03  0.50400000000E-02 0.  1.
         -1   -1    0    0    0  501 -0.00000000000E+00 -0.00000000000E+00 -0.36013024417E+03  0.36013024421E+03  0.50400000000E-02 0. -1.
    5000001    1    1    2    0    0  0.11291257992E+03 -0.17984325454E+03 -0.21691055008E+03  0.35705326443E+03  0.18800000000E+03 0.  0.
   -5000001    1    1    2    0    0 -0.11291257992E+03  0.17984325454E+03  0.20176169606E+03  0.34805836997E+03  0.18800000000E+03 0.  0.
<mgrwt>
<rscale>  0 0.70494888E+03</rscale>
<asrwt>0</asrwt>
<pdfrwt beam="1">  1        1 0.49283056E-01 0.70494888E+03</pdfrwt>
<pdfrwt beam="2">  1       -1 0.51447178E-01 0.70494888E+03</pdfrwt>
<totfact> 0.30949585E+02</totfact>
</mgrwt>
</event>
<event>
 4    1  0.1545327E-005  0.6698890E+03  0.7818608E-02  0.9770158E-01
          1   -1    0    0  501    0  0.00000000000E+00  0.00000000000E+00  0.53677867760E+03  0.53677867762E+03  0.50400000000E-02 0.  1.
         -1   -1    0    0    0  501 -0.00000000000E+00 -0.00000000000E+00 -0.20900197063E+03  0.20900197069E+03  0.50400000000E-02 0. -1.
    5000001    1    1    2    0    0  0.21657814413E+02  0.83710045578E+02 -0.12932645927E+03  0.24402001091E+03  0.18800000000E+03 0.  0.
   -5000001    1    1    2    0    0 -0.21657814413E+02 -0.83710045578E+02  0.45710316624E+03  0.50176063740E+03  0.18800000000E+03 0.  0.
<mgrwt>
<rscale>  0 0.66988895E+03</rscale>
<asrwt>0</asrwt>
<pdfrwt beam="1">  1        1 0.76682668E-01 0.66988895E+03</pdfrwt>
<pdfrwt beam="2">  1       -1 0.29857425E-01 0.66988895E+03</pdfrwt>
<totfact> 0.46232405E+02</totfact>
</mgrwt>
</event>
<event>
 4    1  0.1545327E-005  0.1093604E+04  0.7818608E-02  0.9211448E-01
          1   -1    0    0  501    0  0.00000000000E+00  0.00000000000E+00  0.46938295781E+03  0.46938295783E+03  0.50400000000E-02 0.  1.
         -1   -1    0    0    0  501 -0.00000000000E+00 -0.00000000000E+00 -0.63699045930E+03  0.63699045932E+03  0.50400000000E-02 0. -1.
    5000001    1    1    2    0    0 -0.47465918694E+02 -0.50513434916E+03 -0.39213976559E+01  0.54108511484E+03  0.18800000000E+03 0.  0.
   -5000001    1    1    2    0    0  0.47465918694E+02  0.50513434916E+03 -0.16368610384E+03  0.56528830232E+03  0.18800000000E+03 0.  0.
<mgrwt>
<rscale>  0 0.10936041E+04</rscale>
<asrwt>0</asrwt>
<pdfrwt beam="1">  1        1 0.67054709E-01 0.10936041E+04</pdfrwt>
<pdfrwt beam="2">  1       -1 0.90998636E-01 0.10936041E+04</pdfrwt>
<totfact> 0.62907299E+01</totfact>
</mgrwt>
</event>
<event>
 4    1  0.1545327E-005  0.5001931E+03  0.7818608E-02  0.1013729E+00
         -1   -1    0    0    0  501 -0.00000000000E+00  0.00000000000E+00  0.11314059343E+04  0.11314059343E+04  0.50400000000E-02 0. -1.
          1   -1    0    0  501    0  0.00000000000E+00 -0.00000000000E+00 -0.55283690947E+02  0.55283691177E+02  0.50400000000E-02 0.  1.
    5000001    1    1    2    0    0  0.11878908805E+02  0.16250767300E+03  0.47736853923E+03  0.53830713771E+03  0.18800000000E+03 0.  0.
   -5000001    1    1    2    0    0 -0.11878908805E+02 -0.16250767300E+03  0.59875370409E+03  0.64838248775E+03  0.18800000000E+03 0.  0.
<mgrwt>
<rscale>  0 0.50019315E+03</rscale>
<asrwt>0</asrwt>
<pdfrwt beam="1">  1        1 0.78976699E-02 0.50019315E+03</pdfrwt>
<pdfrwt beam="2">  1       -1 0.16162942E+00 0.50019315E+03</pdfrwt>
<totfact> 0.27151415E+02</totfact>
</mgrwt>
</event>
<event>
 4    1  0.1545327E-005  0.4926369E+03  0.7818608E-02  0.1015719E+00
          1   -1    0    0  501    0  0.00000000000E+00  0.00000000000E+00  0.21225309788E+03  0.21225309794E+03  0.50400000000E-02 0. -1.
         -1   -1    0    0    0  501 -0.00000000000E+00 -0.00000000000E+00 -0.28585113807E+03  0.28585113812E+03  0.50400000000E-02 0.  1.
    5000001    1    1    2    0    0  0.35125135810E+02 -0.90893078195E+02 -0.16402658372E+03  0.26785079241E+03  0.18800000000E+03 0.  0.
   -5000001    1    1    2    0    0 -0.35125135810E+02  0.90893078195E+02  0.90428543526E+02  0.23025344365E+03  0.18800000000E+03 0.  0.
<mgrwt>
<rscale>  0 0.49263694E+03</rscale>
<asrwt>0</asrwt>
<pdfrwt beam="1">  1        1 0.30321871E-01 0.49263694E+03</pdfrwt>
<pdfrwt beam="2">  1       -1 0.40835877E-01 0.49263694E+03</pdfrwt>
<totfact> 0.89232578E+02</totfact>
</mgrwt>
</event>
<event>
 4    1  0.1545327E-005  0.5268446E+03  0.7818608E-02  0.1007000E+00
         -1   -1    0    0    0  501 -0.00000000000E+00  0.00000000000E+00  0.14349515700E+03  0.14349515709E+03  0.50400000000E-02 0. -1.
          1   -1    0    0  501    0  0.00000000000E+00 -0.00000000000E+00 -0.48357937629E+03  0.48357937632E+03  0.50400000000E-02 0.  1.
    5000001    1    1    2    0    0 -0.39454883021E+02  0.15598404706E+03 -0.27755753348E+03  0.37184660160E+03  0.18800000000E+03 0.  0.
   -5000001    1    1    2    0    0  0.39454883021E+02 -0.15598404706E+03 -0.62526685815E+02  0.25522793180E+03  0.18800000000E+03 0.  0.
<mgrwt>
<rscale>  0 0.52684456E+03</rscale>
<asrwt>0</asrwt>
<pdfrwt beam="1">  1        1 0.69082767E-01 0.52684456E+03</pdfrwt>
<pdfrwt beam="2">  1       -1 0.20499308E-01 0.52684456E+03</pdfrwt>
<totfact> 0.10105554E+03</totfact>
</mgrwt>
</event>
<event>
 4    1  0.1545327E-005  0.6948394E+03  0.7818608E-02  0.9726098E-01
          1   -1    0    0  501    0  0.00000000000E+00  0.00000000000E+00  0.69700531868E+03  0.69700531870E+03  0.50400000000E-02 0.  1.
         -1   -1    0    0    0  501 -0.00000000000E+00 -0.00000000000E+00 -0.17317003353E+03  0.17317003360E+03  0.50400000000E-02 0. -1.
    5000001    1    1    2    0    0 -0.20790515517E+03 -0.24036731261E+02  0.66302358438E+01  0.28140767229E+03  0.18800000000E+03 0.  0.
   -5000001    1    1    2    0    0  0.20790515517E+03  0.24036731261E+02  0.51720504931E+03  0.58876768001E+03  0.18800000000E+03 0.  0.
<mgrwt>
<rscale>  0 0.69483936E+03</rscale>
<asrwt>0</asrwt>
<pdfrwt beam="1">  1        1 0.99572191E-01 0.69483936E+03</pdfrwt>
<pdfrwt beam="2">  1       -1 0.24738576E-01 0.69483936E+03</pdfrwt>
<totfact> 0.44103363E+02</totfact>
</mgrwt>
</event>
<event>
 4    1  0.1545327E-005  0.6944156E+03  0.7818608E-02  0.9726830E-01
         -1   -1    0    0    0  501 -0.00000000000E+00  0.00000000000E+00  0.35045352245E+03  0.35045352249E+03  0.50400000000E-02 0. -1.
          1   -1    0    0  501    0  0.00000000000E+00 -0.00000000000E+00 -0.34399208935E+03  0.34399208939E+03  0.50400000000E-02 0.  1.
    5000001    1    1    2    0    0 -0.14113498013E+03  0.24813496758E+03  0.64218557062E+02  0.34779026413E+03  0.18800000000E+03 0.  0.
   -5000001    1    1    2    0    0  0.14113498013E+03 -0.24813496758E+03 -0.57757123962E+02  0.34665534775E+03  0.18800000000E+03 0.  0.
<mgrwt>
<rscale>  0 0.69441555E+03</rscale>
<asrwt>0</asrwt>
<pdfrwt beam="1">  1        1 0.49141727E-01 0.69441555E+03</pdfrwt>
<pdfrwt beam="2">  1       -1 0.50064789E-01 0.69441555E+03</pdfrwt>
<totfact> 0.32724681E+02</totfact>
</mgrwt>
</event>
<event>
 4    1  0.1545327E-005  0.4891385E+03  0.7818608E-02  0.1016653E+00
         -1   -1    0    0    0  501 -0.00000000000E+00  0.00000000000E+00  0.40766694809E+02  0.40766695120E+02  0.50400000000E-02 0. -1.
          1   -1    0    0  501    0  0.00000000000E+00 -0.00000000000E+00 -0.14672300789E+04  0.14672300790E+04  0.50400000000E-02 0.  1.
    5000001    1    1    2    0    0  0.10747866728E+03 -0.11356160527E+03 -0.69869952037E+03  0.74025193135E+03  0.18800000000E+03 0.  0.
   -5000001    1    1    2    0    0 -0.10747866728E+03  0.11356160527E+03 -0.72776386377E+03  0.76774484272E+03  0.18800000000E+03 0.  0.
<mgrwt>
<rscale>  0 0.48913851E+03</rscale>
<asrwt>0</asrwt>
<pdfrwt beam="1">  1        1 0.20960426E+00 0.48913851E+03</pdfrwt>
<pdfrwt beam="2">  1       -1 0.58238145E-02 0.48913851E+03</pdfrwt>
<totfact> 0.12271260E+03</totfact>
</mgrwt>
</event>
<event>
 4    1  0.1545327E-005  0.4150430E+03  0.7818608E-02  0.1038692E+00
          1   -1    0    0  501    0  0.00000000000E+00  0.00000000000E+00  0.84892032060E+03  0.84892032062E+03  0.50400000000E-02 0.  1.
         -1   -1    0    0    0  501 -0.00000000000E+00 -0.00000000000E+00 -0.50729355543E+02  0.50729355793E+02  0.50400000000E-02 0. -1.
    5000001    1    1    2    0    0  0.86373073273E+02  0.10796055054E+02  0.37305548159E+03  0.42672151919E+03  0.18800000000E+03 0.  0.
   -5000001    1    1    2    0    0 -0.86373073273E+02 -0.10796055054E+02  0.42513548346E+03  0.47292815722E+03  0.18800000000E+03 0.  0.
<mgrwt>
<rscale>  0 0.41504304E+03</rscale>
<asrwt>0</asrwt>
<pdfrwt beam="1">  1        1 0.12127433E+00 0.41504304E+03</pdfrwt>
<pdfrwt beam="2">  1       -1 0.72470509E-02 0.41504304E+03</pdfrwt>
<totfact> 0.23707761E+03</totfact>
</mgrwt>
</event>
<event>
 4    1  0.1545327E-005  0.5121082E+03  0.7818608E-02  0.1010666E+00
         -1   -1    0    0    0  501 -0.00000000000E+00  0.00000000000E+00  0.28974299513E+03  0.28974299517E+03  0.50400000000E-02 0. -1.
          1   -1    0    0  501    0  0.00000000000E+00 -0.00000000000E+00 -0.22628229549E+03  0.22628229555E+03  0.50400000000E-02 0.  1.
    5000001    1    1    2    0    0  0.24627508353E+02 -0.17069870757E+03  0.53694949256E+02  0.26071384794E+03  0.18800000000E+03 0.  0.
   -5000001    1    1    2    0    0 -0.24627508353E+02  0.17069870757E+03  0.97657503779E+01  0.25531144278E+03  0.18800000000E+03 0.  0.
<mgrwt>
<rscale>  0 0.51210823E+03</rscale>
<asrwt>0</asrwt>
<pdfrwt beam="1">  1        1 0.32326042E-01 0.51210823E+03</pdfrwt>
<pdfrwt beam="2">  1       -1 0.41391856E-01 0.51210823E+03</pdfrwt>
<totfact> 0.80186562E+02</totfact>
</mgrwt>
</event>
<event>
 4    1  0.1545327E-005  0.4283451E+03  0.7818608E-02  0.1034384E+00
          1   -1    0    0  501    0  0.00000000000E+00  0.00000000000E+00  0.33555164416E+03  0.33555164420E+03  0.50400000000E-02 0. -1.
         -1   -1    0    0    0  501 -0.00000000000E+00 -0.00000000000E+00 -0.13669992146E+03  0.13669992155E+03  0.50400000000E-02 0.  1.
    5000001    1    1    2    0    0 -0.97811504748E+02  0.26144250140E+02  0.81133913890E+02  0.22842356328E+03  0.18800000000E+03 0.  0.
   -5000001    1    1    2    0    0  0.97811504748E+02 -0.26144250140E+02  0.11771780881E+03  0.24382800247E+03  0.18800000000E+03 0.  0.
<mgrwt>
<rscale>  0 0.42834511E+03</rscale>
<asrwt>0</asrwt>
<pdfrwt beam="1">  1        1 0.47935950E-01 0.42834511E+03</pdfrwt>
<pdfrwt beam="2">  1       -1 0.19528560E-01 0.42834511E+03</pdfrwt>
<totfact> 0.17610535E+03</totfact>
</mgrwt>
</event>
<event>
 4    1  0.1545327E-005  0.8264990E+03  0.7818608E-02  0.9522434E-01
          1   -1    0    0  501    0  0.00000000000E+00  0.00000000000E+00  0.72369742174E+03  0.72369742175E+03  0.50400000000E-02 0.  1.
         -1   -1    0    0    0  501 -0.00000000000E+00 -0.00000000000E+00 -0.23597587493E+03  0.23597587498E+03  0.50400000000E-02 0. -1.
    5000001    1    1    2    0    0 -0.15324304485E+02  0.35689563059E+03  0.14116923882E+03  0.42764714361E+03  0.18800000000E+03 0.  0.
   -5000001    1    1    2    0    0  0.15324304485E+02 -0.35689563059E+03  0.34655230799E+03  0.53202615313E+03  0.18800000000E+03 0.  0.
<mgrwt>
<rscale>  0 0.82649896E+03</rscale>
<asrwt>0</asrwt>
<pdfrwt beam="1">  1        1 0.10338535E+00 0.82649896E+03</pdfrwt>
<pdfrwt beam="2">  1       -1 0.33710839E-01 0.82649896E+03</pdfrwt>
<totfact> 0.24243269E+02</totfact>
</mgrwt>
</event>
<event>
 4    1  0.1545327E-005  0.5887157E+03  0.7818608E-02  0.9929098E-01
         -1   -1    0    0    0  501 -0.00000000000E+00  0.00000000000E+00  0.92444079525E+02  0.92444079662E+02  0.50400000000E-02 0. -1.
          1   -1    0    0  501    0  0.00000000000E+00 -0.00000000000E+00 -0.93728610436E+03  0.93728610438E+03  0.50400000000E-02 0.  1.
    5000001    1    1    2    0    0 -0.72694243338E+02  0.21291024493E+03 -0.46827732633E+03  0.55248790011E+03  0.18800000000E+03 0.  0.
   -5000001    1    1    2    0    0  0.72694243338E+02 -0.21291024493E+03 -0.37656469851E+03  0.47724228393E+03  0.18800000000E+03 0.  0.
<mgrwt>
<rscale>  0 0.58871573E+03</rscale>
<asrwt>0</asrwt>
<pdfrwt beam="1">  1        1 0.13389801E+00 0.58871573E+03</pdfrwt>
<pdfrwt beam="2">  1       -1 0.13206298E-01 0.58871573E+03</pdfrwt>
<totfact> 0.78706367E+02</totfact>
</mgrwt>
</event>
<event>
 4    1  0.1545327E-005  0.5026031E+03  0.7818608E-02  0.1013102E+00
          1   -1    0    0  501    0  0.00000000000E+00  0.00000000000E+00  0.13266338879E+04  0.13266338880E+04  0.50400000000E-02 0.  1.
         -1   -1    0    0    0  501 -0.00000000000E+00 -0.00000000000E+00 -0.47603542752E+02  0.47603543019E+02  0.50400000000E-02 0. -1.
    5000001    1    1    2    0    0 -0.10459926813E+03 -0.10977497027E+03  0.44974785784E+03  0.51049846877E+03  0.18800000000E+03 0.  0.
   -5000001    1    1    2    0    0  0.10459926813E+03  0.10977497027E+03  0.82928248736E+03  0.86373896220E+03  0.18800000000E+03 0.  0.
<mgrwt>
<rscale>  0 0.50260312E+03</rscale>
<asrwt>0</asrwt>
<pdfrwt beam="1">  1        1 0.18951914E+00 0.50260312E+03</pdfrwt>
<pdfrwt beam="2">  1       -1 0.68005055E-02 0.50260312E+03</pdfrwt>
<totfact> 0.11925569E+03</totfact>
</mgrwt>
</event>
<event>
 4    1  0.1545327E-005  0.5678374E+03  0.7818608E-02  0.9974476E-01
         -1   -1    0    0    0  501 -0.00000000000E+00  0.00000000000E+00  0.31566035427E+02  0.31566035830E+02  0.50400000000E-02 0. -1.
          1   -1    0    0  501    0  0.00000000000E+00 -0.00000000000E+00 -0.25536883993E+04  0.25536883993E+04  0.50400000000E-02 0.  1.
    5000001    1    1    2    0    0  0.92938661443E+02  0.85566420535E+02 -0.20404642835E+04  0.20529972478E+04  0.18800000000E+03 0.  0.
   -5000001    1    1    2    0    0 -0.92938661443E+02 -0.85566420535E+02 -0.48165808038E+03  0.53225718738E+03  0.18800000000E+03 0.  0.
<mgrwt>
<rscale>  0 0.56783737E+03</rscale>
<asrwt>0</asrwt>
<pdfrwt beam="1">  1        1 0.36481250E+00 0.56783737E+03</pdfrwt>
<pdfrwt beam="2">  1       -1 0.45094353E-02 0.56783737E+03</pdfrwt>
<totfact> 0.38170596E+02</totfact>
</mgrwt>
</event>
<event>
 4    1  0.1545327E-005  0.8787371E+03  0.7818608E-02  0.9452558E-01
          1   -1    0    0  501    0  0.00000000000E+00  0.00000000000E+00  0.12380424618E+04  0.12380424619E+04  0.50400000000E-02 0.  1.
         -1   -1    0    0    0  501 -0.00000000000E+00 -0.00000000000E+00 -0.15592737599E+03  0.15592737607E+03  0.50400000000E-02 0. -1.
    5000001    1    1    2    0    0  0.16340059293E+03 -0.21991930567E+03  0.85041342145E+02  0.34298729517E+03  0.18800000000E+03 0.  0.
   -5000001    1    1    2    0    0 -0.16340059293E+03  0.21991930567E+03  0.99707374371E+03  0.10509825428E+04  0.18800000000E+03 0.  0.
<mgrwt>
<rscale>  0 0.87873708E+03</rscale>
<asrwt>0</asrwt>
<pdfrwt beam="1">  1        1 0.17686320E+00 0.87873708E+03</pdfrwt>
<pdfrwt beam="2">  1       -1 0.22275340E-01 0.87873708E+03</pdfrwt>
<totfact> 0.19978337E+02</totfact>
</mgrwt>
</event>
<event>
 4    1  0.1545327E-005  0.4945850E+03  0.7818608E-02  0.1015202E+00
          1   -1    0    0  501    0  0.00000000000E+00  0.00000000000E+00  0.46904144603E+03  0.46904144606E+03  0.50400000000E-02 0.  1.
         -1   -1    0    0    0  501 -0.00000000000E+00 -0.00000000000E+00 -0.13037989482E+03  0.13037989492E+03  0.50400000000E-02 0. -1.
    5000001    1    1    2    0    0  0.45742367858E+02  0.15195139097E+03  0.19970225293E+03  0.31686997216E+03  0.18800000000E+03 0.  0.
   -5000001    1    1    2    0    0 -0.45742367858E+02 -0.15195139097E+03  0.13895929828E+03  0.28255136881E+03  0.18800000000E+03 0.  0.
<mgrwt>
<rscale>  0 0.49458498E+03</rscale>
<asrwt>0</asrwt>
<pdfrwt beam="1">  1        1 0.67005919E-01 0.49458498E+03</pdfrwt>
<pdfrwt beam="2">  1       -1 0.18625700E-01 0.49458498E+03</pdfrwt>
<totfact> 0.12329496E+03</totfact>
</mgrwt>
</event>
<event>
 4    1  0.1545327E-005  0.4787864E+03  0.7818608E-02  0.1019469E+00
         -1   -1    0    0    0  501 -0.00000000000E+00  0.00000000000E+00  0.30459932034E+02  0.30459932451E+02  0.50400000000E-02 0.  1.
          1   -1    0    0  501    0  0.00000000000E+00 -0.00000000000E+00 -0.18814589150E+04  0.18814589150E+04  0.50400000000E-02 0. -1.
    5000001    1    1    2    0    0  0.14240184858E+03  0.31722181077E+02 -0.82132759560E+03  0.85510677845E+03  0.18800000000E+03 0.  0.
   -5000001    1    1    2    0    0 -0.14240184858E+03 -0.31722181077E+02 -0.10296713874E+04  0.10568120690E+04  0.18800000000E+03 0.  0.
<mgrwt>
<rscale>  0 0.47878643E+03</rscale>
<asrwt>0</asrwt>
<pdfrwt beam="1">  1        1 0.26877977E+00 0.47878643E+03</pdfrwt>
<pdfrwt beam="2">  1       -1 0.43514201E-02 0.47878643E+03</pdfrwt>
<totfact> 0.10539206E+03</totfact>
</mgrwt>
</event>
<event>
 4    1  0.1545327E-005  0.7057011E+03  0.7818608E-02  0.9707532E-01
          1   -1    0    0  501    0  0.00000000000E+00  0.00000000000E+00  0.11440812863E+03  0.11440812874E+03  0.50400000000E-02 0.  1.
         -1   -1    0    0    0  501 -0.00000000000E+00 -0.00000000000E+00 -0.10882400242E+04  0.10882400243E+04  0.50400000000E-02 0. -1.
    5000001    1    1    2    0    0  0.25528069274E+03  0.10477765053E+03 -0.29251197856E+03  0.44390747430E+03  0.18800000000E+03 0.  0.
   -5000001    1    1    2    0    0 -0.25528069274E+03 -0.10477765053E+03 -0.68131991706E+03  0.75874067870E+03  0.18800000000E+03 0.  0.
<mgrwt>
<rscale>  0 0.70570108E+03</rscale>
<asrwt>0</asrwt>
<pdfrwt beam="1">  1        1 0.16344019E-01 0.70570108E+03</pdfrwt>
<pdfrwt beam="2">  1       -1 0.15546285E+00 0.70570108E+03</pdfrwt>
<totfact> 0.11085544E+02</totfact>
</mgrwt>
</event>
<event>
 4    1  0.1545327E-005  0.1165442E+04  0.7818608E-02  0.9143655E-01
         -1   -1    0    0    0  501 -0.00000000000E+00  0.00000000000E+00  0.29327232687E+03  0.29327232692E+03  0.50400000000E-02 0. -1.
          1   -1    0    0  501    0  0.00000000000E+00 -0.00000000000E+00 -0.11578444423E+04  0.11578444423E+04  0.50400000000E-02 0.  1.
    5000001    1    1    2    0    0 -0.36865095104E+03  0.40611760186E+03 -0.50472498880E+03  0.76871733723E+03  0.18800000000E+03 0.  0.
   -5000001    1    1    2    0    0  0.36865095104E+03 -0.40611760186E+03 -0.35984712661E+03  0.68239943198E+03  0.18800000000E+03 0.  0.
<mgrwt>
<rscale>  0 0.11654419E+04</rscale>
<asrwt>0</asrwt>
<pdfrwt beam="1">  1        1 0.16540635E+00 0.11654419E+04</pdfrwt>
<pdfrwt beam="2">  1       -1 0.41896047E-01 0.11654419E+04</pdfrwt>
<totfact> 0.73465906E+01</totfact>
</mgrwt>
</event>
<event>
 4    1  0.1545327E-005  0.9332869E+03  0.7818608E-02  0.9384902E-01
         -1   -1    0    0    0  501 -0.00000000000E+00  0.00000000000E+00  0.94426882037E+02  0.94426882172E+02  0.50400000000E-02 0. -1.
          1   -1    0    0  501    0  0.00000000000E+00 -0.00000000000E+00 -0.23060818567E+04  0.23060818567E+04  0.50400000000E-02 0.  1.
    5000001    1    1    2    0    0  0.18680617228E+03  0.36061968779E+03 -0.14457831757E+04  0.15134649307E+04  0.18800000000E+03 0.  0.
   -5000001    1    1    2    0    0 -0.18680617228E+03 -0.36061968779E+03 -0.76587179892E+03  0.88704380817E+03  0.18800000000E+03 0.  0.
<mgrwt>
<rscale>  0 0.93328692E+03</rscale>
<asrwt>0</asrwt>
<pdfrwt beam="1">  1        1 0.32944023E+00 0.93328692E+03</pdfrwt>
<pdfrwt beam="2">  1       -1 0.13489556E-01 0.93328692E+03</pdfrwt>
<totfact> 0.94861806E+01</totfact>
</mgrwt>
</event>
<event>
 4    1  0.1545327E-005  0.4939580E+03  0.7818608E-02  0.1015368E+00
         -1   -1    0    0    0  501 -0.00000000000E+00  0.00000000000E+00  0.34709040111E+03  0.34709040114E+03  0.50400000000E-02 0. -1.
          1   -1    0    0  501    0  0.00000000000E+00 -0.00000000000E+00 -0.17574274698E+03  0.17574274705E+03  0.50400000000E-02 0.  1.
    5000001    1    1    2    0    0 -0.44268872770E+02  0.15362531722E+03  0.75403557404E+02  0.25805070753E+03  0.18800000000E+03 0.  0.
   -5000001    1    1    2    0    0  0.44268872770E+02 -0.15362531722E+03  0.95944096719E+02  0.26478244066E+03  0.18800000000E+03 0.  0.
<mgrwt>
<rscale>  0 0.49395798E+03</rscale>
<asrwt>0</asrwt>
<pdfrwt beam="1">  1        1 0.25106107E-01 0.49395798E+03</pdfrwt>
<pdfrwt beam="2">  1       -1 0.49584343E-01 0.49395798E+03</pdfrwt>
<totfact> 0.79637800E+02</totfact>
</mgrwt>
</event>
<event>
 4    1  0.1545327E-005  0.5521581E+03  0.7818608E-02  0.1000996E+00
         -1   -1    0    0    0  501 -0.00000000000E+00  0.00000000000E+00  0.68596581917E+02  0.68596582102E+02  0.50400000000E-02 0. -1.
          1   -1    0    0  501    0  0.00000000000E+00 -0.00000000000E+00 -0.11111287077E+04  0.11111287077E+04  0.50400000000E-02 0.  1.
    5000001    1    1    2    0    0 -0.17472018844E+03  0.73682225312E+02 -0.37141001040E+03  0.45743372241E+03  0.18800000000E+03 0.  0.
   -5000001    1    1    2    0    0  0.17472018844E+03 -0.73682225312E+02 -0.67112211536E+03  0.72229156737E+03  0.18800000000E+03 0.  0.
<mgrwt>
<rscale>  0 0.55215806E+03</rscale>
<asrwt>0</asrwt>
<pdfrwt beam="1">  1        1 0.15873266E+00 0.55215806E+03</pdfrwt>
<pdfrwt beam="2">  1       -1 0.97995124E-02 0.55215806E+03</pdfrwt>
<totfact> 0.94440979E+02</totfact>
</mgrwt>
</event>
<event>
 4    1  0.1545327E-005  0.7111826E+03  0.7818608E-02  0.9698297E-01
          1   -1    0    0  501    0  0.00000000000E+00  0.00000000000E+00  0.16366014155E+04  0.16366014155E+04  0.50400000000E-02 0.  1.
         -1   -1    0    0    0  501 -0.00000000000E+00 -0.00000000000E+00 -0.77260827505E+02  0.77260827669E+02  0.50400000000E-02 0. -1.
    5000001    1    1    2    0    0  0.18715750464E+03  0.15623395123E+02  0.21025999949E+03  0.33885880452E+03  0.18800000000E+03 0.  0.
   -5000001    1    1    2    0    0 -0.18715750464E+03 -0.15623395123E+02  0.13490805885E+04  0.13750034387E+04  0.18800000000E+03 0.  0.
<mgrwt>
<rscale>  0 0.71118262E+03</rscale>
<asrwt>0</asrwt>
<pdfrwt beam="1">  1        1 0.23380019E+00 0.71118262E+03</pdfrwt>
<pdfrwt beam="2">  1       -1 0.11037262E-01 0.71118262E+03</pdfrwt>
<totfact> 0.34897998E+02</totfact>
</mgrwt>
</event>
<event>
 4    1  0.1545327E-005  0.5418509E+03  0.7818608E-02  0.1003398E+00
          1   -1    0    0  501    0  0.00000000000E+00  0.00000000000E+00  0.72720907393E+03  0.72720907394E+03  0.50400000000E-02 0.  1.
         -1   -1    0    0    0  501 -0.00000000000E+00 -0.00000000000E+00 -0.10093466422E+03  0.10093466435E+03  0.50400000000E-02 0. -1.
    5000001    1    1    2    0    0 -0.16525440194E+03 -0.10120723265E+03  0.27880236600E+03  0.38810653253E+03  0.18800000000E+03 0.  0.
   -5000001    1    1    2    0    0  0.16525440194E+03  0.10120723265E+03  0.34747204370E+03  0.44003720576E+03  0.18800000000E+03 0.  0.
<mgrwt>
<rscale>  0 0.54185092E+03</rscale>
<asrwt>0</asrwt>
<pdfrwt beam="1">  1        1 0.10388701E+00 0.54185092E+03</pdfrwt>
<pdfrwt beam="2">  1       -1 0.14419238E-01 0.54185092E+03</pdfrwt>
<totfact> 0.10154188E+03</totfact>
</mgrwt>
</event>
<event>
 4    1  0.1545327E-005  0.6849546E+03  0.7818608E-02  0.9743314E-01
          1   -1    0    0  501    0  0.00000000000E+00  0.00000000000E+00  0.20705407427E+04  0.20705407427E+04  0.50400000000E-02 0. -1.
         -1   -1    0    0    0  501 -0.00000000000E+00 -0.00000000000E+00 -0.56647368391E+02  0.56647368615E+02  0.50400000000E-02 0.  1.
    5000001    1    1    2    0    0  0.25520562161E+03  0.12954489676E+03  0.98860137834E+03  0.10462258240E+04  0.18800000000E+03 0.  0.
   -5000001    1    1    2    0    0 -0.25520562161E+03 -0.12954489676E+03  0.10252919960E+04  0.10809622873E+04  0.18800000000E+03 0.  0.
<mgrwt>
<rscale>  0 0.68495455E+03</rscale>
<asrwt>0</asrwt>
<pdfrwt beam="1">  1        1 0.29579146E+00 0.68495455E+03</pdfrwt>
<pdfrwt beam="2">  1       -1 0.80924831E-02 0.68495455E+03</pdfrwt>
<totfact> 0.30578201E+02</totfact>
</mgrwt>
</event>
<event>
 4    1  0.1545327E-005  0.7341433E+03  0.7818608E-02  0.9660561E-01
          1   -1    0    0  501    0  0.00000000000E+00  0.00000000000E+00  0.28414921899E+03  0.28414921904E+03  0.50400000000E-02 0.  1.
         -1   -1    0    0    0  501 -0.00000000000E+00 -0.00000000000E+00 -0.47419309941E+03  0.47419309943E+03  0.50400000000E-02 0. -1.
    5000001    1    1    2    0    0  0.25410547033E+03 -0.14615252500E+03 -0.21489652225E+03  0.40921225042E+03  0.18800000000E+03 0.  0.
   -5000001    1    1    2    0    0 -0.25410547033E+03  0.14615252500E+03  0.24852641834E+02  0.34913006806E+03  0.18800000000E+03 0.  0.
<mgrwt>
<rscale>  0 0.73414331E+03</rscale>
<asrwt>0</asrwt>
<pdfrwt beam="1">  1        1 0.40592745E-01 0.73414331E+03</pdfrwt>
<pdfrwt beam="2">  1       -1 0.67741872E-01 0.73414331E+03</pdfrwt>
<totfact> 0.23161258E+02</totfact>
</mgrwt>
</event>
<event>
 4    1  0.1545327E-005  0.6045327E+03  0.7818608E-02  0.9896047E-01
         -1   -1    0    0    0  501 -0.00000000000E+00  0.00000000000E+00  0.12947811718E+03  0.12947811728E+03  0.50400000000E-02 0. -1.
          1   -1    0    0  501    0  0.00000000000E+00 -0.00000000000E+00 -0.70564007772E+03  0.70564007774E+03  0.50400000000E-02 0.  1.
    5000001    1    1    2    0    0 -0.36357009598E+01 -0.22196536319E+03 -0.17467672545E+03  0.33931961215E+03  0.18800000000E+03 0.  0.
   -5000001    1    1    2    0    0  0.36357009598E+01  0.22196536319E+03 -0.40148523509E+03  0.49579858287E+03  0.18800000000E+03 0.  0.
<mgrwt>
<rscale>  0 0.60453271E+03</rscale>
<asrwt>0</asrwt>
<pdfrwt beam="1">  1        1 0.10080572E+00 0.60453271E+03</pdfrwt>
<pdfrwt beam="2">  1       -1 0.18496874E-01 0.60453271E+03</pdfrwt>
<totfact> 0.70657661E+02</totfact>
</mgrwt>
</event>
<event>
 4    1  0.1545327E-005  0.4107485E+03  0.7818608E-02  0.1040120E+00
          1   -1    0    0  501    0  0.00000000000E+00  0.00000000000E+00  0.23271141714E+04  0.23271141714E+04  0.50400000000E-02 0.  1.
         -1   -1    0    0    0  501 -0.00000000000E+00 -0.00000000000E+00 -0.18124841935E+02  0.18124842636E+02  0.50400000000E-02 0. -1.
    5000001    1    1    2    0    0  0.15244940704E+02  0.75785582501E+02  0.13218099348E+04  0.13373486331E+04  0.18800000000E+03 0.  0.
   -5000001    1    1    2    0    0 -0.15244940704E+02 -0.75785582501E+02  0.98717939466E+03  0.10078903809E+04  0.18800000000E+03 0.  0.
<mgrwt>
<rscale>  0 0.41074847E+03</rscale>
<asrwt>0</asrwt>
<pdfrwt beam="1">  1        1 0.33244481E+00 0.41074847E+03</pdfrwt>
<pdfrwt beam="2">  1       -1 0.25892638E-02 0.41074847E+03</pdfrwt>
<totfact> 0.12300523E+03</totfact>
</mgrwt>
</event>
<event>
 4    1  0.1545327E-005  0.4379008E+03  0.7818608E-02  0.1031393E+00
          1   -1    0    0  501    0  0.00000000000E+00  0.00000000000E+00  0.15192214066E+03  0.15192214075E+03  0.50400000000E-02 0. -1.
         -1   -1    0    0    0  501 -0.00000000000E+00 -0.00000000000E+00 -0.31555161527E+03  0.31555161531E+03  0.50400000000E-02 0.  1.
    5000001    1    1    2    0    0 -0.56223329115E+02 -0.94337645834E+01 -0.18501391192E+03  0.26985960471E+03  0.18800000000E+03 0.  0.
   -5000001    1    1    2    0    0  0.56223329115E+02  0.94337645834E+01  0.21384437316E+02  0.19761415134E+03  0.18800000000E+03 0.  0.
<mgrwt>
<rscale>  0 0.43790080E+03</rscale>
<asrwt>0</asrwt>
<pdfrwt beam="1">  1        1 0.21703163E-01 0.43790080E+03</pdfrwt>
<pdfrwt beam="2">  1       -1 0.45078802E-01 0.43790080E+03</pdfrwt>
<totfact> 0.11481755E+03</totfact>
</mgrwt>
</event>
<event>
 4    1  0.1545327E-005  0.5840661E+03  0.7818608E-02  0.9939027E-01
         -1   -1    0    0    0  501 -0.00000000000E+00  0.00000000000E+00  0.16144797253E+03  0.16144797261E+03  0.50400000000E-02 0.  1.
          1   -1    0    0  501    0  0.00000000000E+00 -0.00000000000E+00 -0.52824018157E+03  0.52824018160E+03  0.50400000000E-02 0. -1.
    5000001    1    1    2    0    0  0.15187229244E+03  0.55901633990E+02 -0.36537227511E+03  0.44162323910E+03  0.18800000000E+03 0.  0.
   -5000001    1    1    2    0    0 -0.15187229244E+03 -0.55901633990E+02 -0.14199339229E+01  0.24806491511E+03  0.18800000000E+03 0.  0.
<mgrwt>
<rscale>  0 0.58406611E+03</rscale>
<asrwt>0</asrwt>
<pdfrwt beam="1">  1        1 0.75462883E-01 0.58406611E+03</pdfrwt>
<pdfrwt beam="2">  1       -1 0.23063996E-01 0.58406611E+03</pdfrwt>
<totfact> 0.73629337E+02</totfact>
</mgrwt>
</event>
<event>
 4    1  0.1545327E-005  0.4727940E+03  0.7818608E-02  0.1021135E+00
         -1   -1    0    0    0  501 -0.00000000000E+00  0.00000000000E+00  0.38188808645E+02  0.38188808978E+02  0.50400000000E-02 0. -1.
          1   -1    0    0  501    0  0.00000000000E+00 -0.00000000000E+00 -0.14633485122E+04  0.14633485122E+04  0.50400000000E-02 0.  1.
    5000001    1    1    2    0    0 -0.11637215353E+03  0.80266331094E+02 -0.78735647252E+03  0.82174167281E+03  0.18800000000E+03 0.  0.
   -5000001    1    1    2    0    0  0.11637215353E+03 -0.80266331094E+02 -0.63780323102E+03  0.67979564836E+03  0.18800000000E+03 0.  0.
<mgrwt>
<rscale>  0 0.47279398E+03</rscale>
<asrwt>0</asrwt>
<pdfrwt beam="1">  1        1 0.20904975E+00 0.47279398E+03</pdfrwt>
<pdfrwt beam="2">  1       -1 0.54555450E-02 0.47279398E+03</pdfrwt>
<totfact> 0.13645658E+03</totfact>
</mgrwt>
</event>
<event>
 4    1  0.1545327E-005  0.4223666E+03  0.7818608E-02  0.1036299E+00
          1   -1    0    0  501    0  0.00000000000E+00  0.00000000000E+00  0.86095259182E+03  0.86095259183E+03  0.50400000000E-02 0.  1.
         -1   -1    0    0    0  501 -0.00000000000E+00 -0.00000000000E+00 -0.51801203728E+02  0.51801203973E+02  0.50400000000E-02 0. -1.
    5000001    1    1    2    0    0 -0.15532548188E+02 -0.85252456079E+02  0.49485312034E+03  0.53640735643E+03  0.18800000000E+03 0.  0.
   -5000001    1    1    2    0    0  0.15532548188E+02  0.85252456079E+02  0.31429826775E+03  0.37634643938E+03  0.18800000000E+03 0.  0.
<mgrwt>
<rscale>  0 0.42236657E+03</rscale>
<asrwt>0</asrwt>
<pdfrwt beam="1">  1        1 0.12299322E+00 0.42236657E+03</pdfrwt>
<pdfrwt beam="2">  1       -1 0.74001724E-02 0.42236657E+03</pdfrwt>
<totfact> 0.22459438E+03</totfact>
</mgrwt>
</event>
<event>
 4    1  0.1545327E-005  0.4953644E+03  0.7818608E-02  0.1014996E+00
          1   -1    0    0  501    0  0.00000000000E+00  0.00000000000E+00  0.45750600904E+03  0.45750600907E+03  0.50400000000E-02 0.  1.
         -1   -1    0    0    0  501 -0.00000000000E+00 -0.00000000000E+00 -0.13408891193E+03  0.13408891203E+03  0.50400000000E-02 0. -1.
    5000001    1    1    2    0    0  0.73754799705E+02 -0.13985511152E+03  0.12388115496E+03  0.27511772617E+03  0.18800000000E+03 0.  0.
   -5000001    1    1    2    0    0 -0.73754799705E+02  0.13985511152E+03  0.19953594215E+03  0.31647719493E+03  0.18800000000E+03 0.  0.
<mgrwt>
<rscale>  0 0.49536444E+03</rscale>
<asrwt>0</asrwt>
<pdfrwt beam="1">  1        1 0.65358001E-01 0.49536444E+03</pdfrwt>
<pdfrwt beam="2">  1       -1 0.19155559E-01 0.49536444E+03</pdfrwt>
<totfact> 0.12168286E+03</totfact>
</mgrwt>
</event>
<event>
 4    1  0.1545327E-005  0.7741899E+03  0.7818608E-02  0.9598146E-01
         -1   -1    0    0    0  501 -0.00000000000E+00  0.00000000000E+00  0.35624935773E+03  0.35624935777E+03  0.50400000000E-02 0. -1.
          1   -1    0    0  501    0  0.00000000000E+00 -0.00000000000E+00 -0.42061129986E+03  0.42061129989E+03  0.50400000000E-02 0.  1.
    5000001    1    1    2    0    0 -0.24715471617E+03 -0.20002985854E+03  0.83981532558E+02  0.37880640945E+03  0.18800000000E+03 0.  0.
   -5000001    1    1    2    0    0  0.24715471617E+03  0.20002985854E+03 -0.14834347469E+03  0.39805424821E+03  0.18800000000E+03 0.  0.
<mgrwt>
<rscale>  0 0.77418991E+03</rscale>
<asrwt>0</asrwt>
<pdfrwt beam="1">  1        1 0.60087328E-01 0.77418991E+03</pdfrwt>
<pdfrwt beam="2">  1       -1 0.50892766E-01 0.77418991E+03</pdfrwt>
<totfact> 0.24302578E+02</totfact>
</mgrwt>
</event>
<event>
 4    1  0.1545327E-005  0.6967589E+03  0.7818608E-02  0.9722791E-01
          1   -1    0    0  501    0  0.00000000000E+00  0.00000000000E+00  0.33494047208E+03  0.33494047211E+03  0.50400000000E-02 0.  1.
         -1   -1    0    0    0  501 -0.00000000000E+00 -0.00000000000E+00 -0.36235762357E+03  0.36235762360E+03  0.50400000000E-02 0. -1.
    5000001    1    1    2    0    0 -0.22996473433E+03  0.13988852802E+03 -0.13029617541E+03  0.35323317035E+03  0.18800000000E+03 0.  0.
   -5000001    1    1    2    0    0  0.22996473433E+03 -0.13988852802E+03  0.10287902392E+03  0.34406492537E+03  0.18800000000E+03 0.  0.
<mgrwt>
<rscale>  0 0.69675888E+03</rscale>
<asrwt>0</asrwt>
<pdfrwt beam="1">  1        1 0.47848639E-01 0.69675888E+03</pdfrwt>
<pdfrwt beam="2">  1       -1 0.51765375E-01 0.69675888E+03</pdfrwt>
<totfact> 0.31793433E+02</totfact>
</mgrwt>
</event>
<event>
 4    1  0.1545327E-005  0.4546306E+03  0.7818608E-02  0.1026350E+00
         -1   -1    0    0    0  501 -0.00000000000E+00  0.00000000000E+00  0.33227643836E+02  0.33227644218E+02  0.50400000000E-02 0. -1.
          1   -1    0    0  501    0  0.00000000000E+00 -0.00000000000E+00 -0.15550982772E+04  0.15550982772E+04  0.50400000000E-02 0.  1.
    5000001    1    1    2    0    0 -0.25932083128E+02  0.12193271702E+03 -0.66285161935E+03  0.70018306870E+03  0.18800000000E+03 0.  0.
   -5000001    1    1    2    0    0  0.25932083128E+02 -0.12193271702E+03 -0.85901901401E+03  0.88814285273E+03  0.18800000000E+03 0.  0.
<mgrwt>
<rscale>  0 0.45463063E+03</rscale>
<asrwt>0</asrwt>
<pdfrwt beam="1">  1        1 0.22215685E+00 0.45463063E+03</pdfrwt>
<pdfrwt beam="2">  1       -1 0.47468073E-02 0.45463063E+03</pdfrwt>
<totfact> 0.14754931E+03</totfact>
</mgrwt>
</event>
<event>
 4    1  0.1545327E-005  0.4418803E+03  0.7818608E-02  0.1030171E+00
         -1   -1    0    0    0  501 -0.00000000000E+00  0.00000000000E+00  0.36197473671E+03  0.36197473674E+03  0.50400000000E-02 0. -1.
          1   -1    0    0  501    0  0.00000000000E+00 -0.00000000000E+00 -0.13485626159E+03  0.13485626168E+03  0.50400000000E-02 0.  1.
    5000001    1    1    2    0    0  0.10913809991E+03  0.10865155578E+02  0.70872422578E+02  0.22890189326E+03  0.18800000000E+03 0.  0.
   -5000001    1    1    2    0    0 -0.10913809991E+03 -0.10865155578E+02  0.15624605254E+03  0.26792910516E+03  0.18800000000E+03 0.  0.
<mgrwt>
<rscale>  0 0.44188034E+03</rscale>
<asrwt>0</asrwt>
<pdfrwt beam="1">  1        1 0.19265181E-01 0.44188034E+03</pdfrwt>
<pdfrwt beam="2">  1       -1 0.51710676E-01 0.44188034E+03</pdfrwt>
<totfact> 0.10393871E+03</totfact>
</mgrwt>
</event>
<event>
 4    1  0.1545327E-005  0.7102486E+03  0.7818608E-02  0.9699865E-01
         -1   -1    0    0    0  501 -0.00000000000E+00  0.00000000000E+00  0.20433014977E+03  0.20433014983E+03  0.50400000000E-02 0. -1.
          1   -1    0    0  501    0  0.00000000000E+00 -0.00000000000E+00 -0.61720336534E+03  0.61720336536E+03  0.50400000000E-02 0.  1.
    5000001    1    1    2    0    0  0.20180166985E+03 -0.21974314015E+03 -0.15793448676E+03  0.38639133493E+03  0.18800000000E+03 0.  0.
   -5000001    1    1    2    0    0 -0.20180166985E+03  0.21974314015E+03 -0.25493872881E+03  0.43514218027E+03  0.18800000000E+03 0.  0.
<mgrwt>
<rscale>  0 0.71024857E+03</rscale>
<asrwt>0</asrwt>
<pdfrwt beam="1">  1        1 0.88171908E-01 0.71024857E+03</pdfrwt>
<pdfrwt beam="2">  1       -1 0.29190022E-01 0.71024857E+03</pdfrwt>
<totfact> 0.39533909E+02</totfact>
</mgrwt>
</event>
<event>
 4    1  0.1545327E-005  0.4945577E+03  0.7818608E-02  0.1015209E+00
         -1   -1    0    0    0  501 -0.00000000000E+00  0.00000000000E+00  0.29180795889E+03  0.29180795893E+03  0.50400000000E-02 0. -1.
          1   -1    0    0  501    0  0.00000000000E+00 -0.00000000000E+00 -0.20954472088E+03  0.20954472094E+03  0.50400000000E-02 0.  1.
    5000001    1    1    2    0    0  0.10196989484E+03  0.46475342898E+02  0.15779979388E+03  0.26981955433E+03  0.18800000000E+03 0.  0.
   -5000001    1    1    2    0    0 -0.10196989484E+03 -0.46475342898E+02 -0.75536555868E+02  0.23153312554E+03  0.18800000000E+03 0.  0.
<mgrwt>
<rscale>  0 0.49455765E+03</rscale>
<asrwt>0</asrwt>
<pdfrwt beam="1">  1        1 0.29934960E-01 0.49455765E+03</pdfrwt>
<pdfrwt beam="2">  1       -1 0.41686851E-01 0.49455765E+03</pdfrwt>
<totfact> 0.87388457E+02</totfact>
</mgrwt>
</event>
<event>
 4    1  0.1545327E-005  0.5300214E+03  0.7818608E-02  0.1006227E+00
         -1   -1    0    0    0  501 -0.00000000000E+00  0.00000000000E+00  0.73338637620E+02  0.73338637793E+02  0.50400000000E-02 0.  1.
          1   -1    0    0  501    0  0.00000000000E+00 -0.00000000000E+00 -0.95762179853E+03  0.95762179854E+03  0.50400000000E-02 0. -1.
    5000001    1    1    2    0    0 -0.40402598369E+01 -0.18644345814E+03 -0.46246715067E+03  0.53291401954E+03  0.18800000000E+03 0.  0.
   -5000001    1    1    2    0    0  0.40402598369E+01  0.18644345814E+03 -0.42181601024E+03  0.49804641679E+03  0.18800000000E+03 0.  0.
<mgrwt>
<rscale>  0 0.53002143E+03</rscale>
<asrwt>0</asrwt>
<pdfrwt beam="1">  1        1 0.13680311E+00 0.53002143E+03</pdfrwt>
<pdfrwt beam="2">  1       -1 0.10476949E-01 0.53002143E+03</pdfrwt>
<totfact> 0.10995216E+03</totfact>
</mgrwt>
</event>
<event>
 4    1  0.1545327E-005  0.4556328E+03  0.7818608E-02  0.1026055E+00
          1   -1    0    0  501    0  0.00000000000E+00  0.00000000000E+00  0.26850428648E+04  0.26850428648E+04  0.50400000000E-02 0.  1.
         -1   -1    0    0    0  501 -0.00000000000E+00 -0.00000000000E+00 -0.19329417326E+02  0.19329417983E+02  0.50400000000E-02 0. -1.
    5000001    1    1    2    0    0  0.43005363480E+01  0.12778107336E+03  0.12468816641E+04  0.12674400900E+04  0.18800000000E+03 0.  0.
   -5000001    1    1    2    0    0 -0.43005363480E+01 -0.12778107336E+03  0.14188317833E+04  0.14369321928E+04  0.18800000000E+03 0.  0.
<mgrwt>
<rscale>  0 0.45563281E+03</rscale>
<asrwt>0</asrwt>
<pdfrwt beam="1">  1        1 0.38357725E+00 0.45563281E+03</pdfrwt>
<pdfrwt beam="2">  1       -1 0.27613475E-02 0.45563281E+03</pdfrwt>
<totfact> 0.66878286E+02</totfact>
</mgrwt>
</event>
<event>
 4    1  0.1545327E-005  0.9566431E+03  0.7818608E-02  0.9357419E-01
          1   -1    0    0  501    0  0.00000000000E+00  0.00000000000E+00  0.87872526868E+03  0.87872526870E+03  0.50400000000E-02 0.  1.
         -1   -1    0    0    0  501 -0.00000000000E+00 -0.00000000000E+00 -0.26036753076E+03  0.26036753081E+03  0.50400000000E-02 0. -1.
    5000001    1    1    2    0    0 -0.10302801773E+03  0.39817089003E+03  0.12359209613E+03  0.46880042270E+03  0.18800000000E+03 0.  0.
   -5000001    1    1    2    0    0  0.10302801773E+03 -0.39817089003E+03  0.49476564180E+03  0.67029237681E+03  0.18800000000E+03 0.  0.
<mgrwt>
<rscale>  0 0.95664315E+03</rscale>
<asrwt>0</asrwt>
<pdfrwt beam="1">  1        1 0.12553218E+00 0.95664315E+03</pdfrwt>
<pdfrwt beam="2">  1       -1 0.37195361E-01 0.95664315E+03</pdfrwt>
<totfact> 0.14941131E+02</totfact>
</mgrwt>
</event>
<event>
 4    1  0.1545327E-005  0.1089668E+04  0.7818608E-02  0.9215321E-01
         -1   -1    0    0    0  501 -0.00000000000E+00  0.00000000000E+00  0.13169962155E+03  0.13169962164E+03  0.50400000000E-02 0. -1.
          1   -1    0    0  501    0  0.00000000000E+00 -0.00000000000E+00 -0.22539486710E+04  0.22539486711E+04  0.50400000000E-02 0.  1.
    5000001    1    1    2    0    0  0.47741732540E+03 -0.16448140184E+03 -0.12378887639E+04  0.13500718595E+04  0.18800000000E+03 0.  0.
   -5000001    1    1    2    0    0 -0.47741732540E+03  0.16448140184E+03 -0.88436028562E+03  0.10355764332E+04  0.18800000000E+03 0.  0.
<mgrwt>
<rscale>  0 0.10896682E+04</rscale>
<asrwt>0</asrwt>
<pdfrwt beam="1">  1        1 0.32199264E+00 0.10896682E+04</pdfrwt>
<pdfrwt beam="2">  1       -1 0.18814233E-01 0.10896682E+04</pdfrwt>
<totfact> 0.58455715E+01</totfact>
</mgrwt>
</event>
<event>
 4    1  0.1545327E-005  0.4969895E+03  0.7818608E-02  0.1014568E+00
          1   -1    0    0  501    0  0.00000000000E+00  0.00000000000E+00  0.43233147740E+03  0.43233147743E+03  0.50400000000E-02 0.  1.
         -1   -1    0    0    0  501 -0.00000000000E+00 -0.00000000000E+00 -0.14282938426E+03  0.14282938435E+03  0.50400000000E-02 0. -1.
    5000001    1    1    2    0    0 -0.31131975091E+01 -0.13041805952E+03  0.32624796457E+02  0.23114268232E+03  0.18800000000E+03 0.  0.
   -5000001    1    1    2    0    0  0.31131975091E+01  0.13041805952E+03  0.25687729668E+03  0.34401817946E+03  0.18800000000E+03 0.  0.
<mgrwt>
<rscale>  0 0.49698949E+03</rscale>
<asrwt>0</asrwt>
<pdfrwt beam="1">  1        1 0.61761641E-01 0.49698949E+03</pdfrwt>
<pdfrwt beam="2">  1       -1 0.20404197E-01 0.49698949E+03</pdfrwt>
<totfact> 0.11811401E+03</totfact>
</mgrwt>
</event>
<event>
 4    1  0.1545327E-005  0.7286013E+03  0.7818608E-02  0.9669533E-01
         -1   -1    0    0    0  501 -0.00000000000E+00  0.00000000000E+00  0.21615379313E+03  0.21615379319E+03  0.50400000000E-02 0.  1.
          1   -1    0    0  501    0  0.00000000000E+00 -0.00000000000E+00 -0.61398391578E+03  0.61398391580E+03  0.50400000000E-02 0. -1.
    5000001    1    1    2    0    0  0.29384536647E+03 -0.41693053921E+02 -0.89112968202E+02  0.36244797039E+03  0.18800000000E+03 0.  0.
   -5000001    1    1    2    0    0 -0.29384536647E+03  0.41693053921E+02 -0.30871715444E+03  0.46768973860E+03  0.18800000000E+03 0.  0.
<mgrwt>
<rscale>  0 0.72860127E+03</rscale>
<asrwt>0</asrwt>
<pdfrwt beam="1">  1        1 0.87711987E-01 0.72860127E+03</pdfrwt>
<pdfrwt beam="2">  1       -1 0.30879114E-01 0.72860127E+03</pdfrwt>
<totfact> 0.36084851E+02</totfact>
</mgrwt>
</event>
<event>
 4    1  0.1545327E-005  0.4517946E+03  0.7818608E-02  0.1027188E+00
         -1   -1    0    0    0  501 -0.00000000000E+00  0.00000000000E+00  0.27143509864E+03  0.27143509868E+03  0.50400000000E-02 0. -1.
          1   -1    0    0  501    0  0.00000000000E+00 -0.00000000000E+00 -0.18799926494E+03  0.18799926501E+03  0.50400000000E-02 0.  1.
    5000001    1    1    2    0    0 -0.70513587965E+02 -0.94181027483E+02  0.85378377014E+02  0.23764616405E+03  0.18800000000E+03 0.  0.
   -5000001    1    1    2    0    0  0.70513587965E+02  0.94181027483E+02 -0.19425433141E+01  0.22178819964E+03  0.18800000000E+03 0.  0.
<mgrwt>
<rscale>  0 0.45179464E+03</rscale>
<asrwt>0</asrwt>
<pdfrwt beam="1">  1        1 0.26857038E-01 0.45179464E+03</pdfrwt>
<pdfrwt beam="2">  1       -1 0.38776442E-01 0.45179464E+03</pdfrwt>
<totfact> 0.11448182E+03</totfact>
</mgrwt>
</event>
<event>
 4    1  0.1545327E-005  0.5032465E+03  0.7818608E-02  0.1012935E+00
          1   -1    0    0  501    0  0.00000000000E+00  0.00000000000E+00  0.13058800483E+03  0.13058800493E+03  0.50400000000E-02 0.  1.
         -1   -1    0    0    0  501 -0.00000000000E+00 -0.00000000000E+00 -0.48483986759E+03  0.48483986762E+03  0.50400000000E-02 0. -1.
    5000001    1    1    2    0    0 -0.24768723986E+02  0.15422727887E+03 -0.25020192534E+03  0.34977785333E+03  0.18800000000E+03 0.  0.
   -5000001    1    1    2    0    0  0.24768723986E+02 -0.15422727887E+03 -0.10404993743E+03  0.26565001922E+03  0.18800000000E+03 0.  0.
<mgrwt>
<rscale>  0 0.50324654E+03</rscale>
<asrwt>0</asrwt>
<pdfrwt beam="1">  1        1 0.18655430E-01 0.50324654E+03</pdfrwt>
<pdfrwt beam="2">  1       -1 0.69262837E-01 0.50324654E+03</pdfrwt>
<totfact> 0.61283607E+02</totfact>
</mgrwt>
</event>
<event>
 4    1  0.1545327E-005  0.1047317E+04  0.7818608E-02  0.9258118E-01
         -1   -1    0    0    0  501 -0.00000000000E+00  0.00000000000E+00  0.22952951529E+03  0.22952951535E+03  0.50400000000E-02 0. -1.
          1   -1    0    0  501    0  0.00000000000E+00 -0.00000000000E+00 -0.11946973278E+04  0.11946973278E+04  0.50400000000E-02 0.  1.
    5000001    1    1    2    0    0 -0.36016126693E+03 -0.10912712540E+03 -0.90666068222E+03  0.99950110574E+03  0.18800000000E+03 0.  0.
   -5000001    1    1    2    0    0  0.36016126693E+03  0.10912712540E+03 -0.58507130242E+02  0.42472573737E+03  0.18800000000E+03 0.  0.
<mgrwt>
<rscale>  0 0.10473171E+04</rscale>
<asrwt>0</asrwt>
<pdfrwt beam="1">  1        1 0.17067104E+00 0.10473171E+04</pdfrwt>
<pdfrwt beam="2">  1       -1 0.32789931E-01 0.10473171E+04</pdfrwt>
<totfact> 0.10859544E+02</totfact>
</mgrwt>
</event>
<event>
 4    1  0.1545327E-005  0.7043979E+03  0.7818608E-02  0.9709741E-01
          1   -1    0    0  501    0  0.00000000000E+00  0.00000000000E+00  0.88352497049E+03  0.88352497050E+03  0.50400000000E-02 0.  1.
         -1   -1    0    0    0  501 -0.00000000000E+00 -0.00000000000E+00 -0.14039682088E+03  0.14039682097E+03  0.50400000000E-02 0. -1.
    5000001    1    1    2    0    0  0.22580196451E+03  0.38151341681E+02  0.94773733513E+02  0.31107573453E+03  0.18800000000E+03 0.  0.
   -5000001    1    1    2    0    0 -0.22580196451E+03 -0.38151341681E+02  0.64835441609E+03  0.71284605695E+03  0.18800000000E+03 0.  0.
<mgrwt>
<rscale>  0 0.70439789E+03</rscale>
<asrwt>0</asrwt>
<pdfrwt beam="1">  1        1 0.12621785E+00 0.70439789E+03</pdfrwt>
<pdfrwt beam="2">  1       -1 0.20056689E-01 0.70439789E+03</pdfrwt>
<totfact> 0.43608909E+02</totfact>
</mgrwt>
</event>
<event>
 4    1  0.1545327E-005  0.6779553E+03  0.7818608E-02  0.9755692E-01
          1   -1    0    0  501    0  0.00000000000E+00  0.00000000000E+00  0.63444072083E+03  0.63444072085E+03  0.50400000000E-02 0.  1.
         -1   -1    0    0    0  501 -0.00000000000E+00 -0.00000000000E+00 -0.18111360541E+03  0.18111360548E+03  0.50400000000E-02 0. -1.
    5000001    1    1    2    0    0  0.20834885114E+03  0.10959206743E+02  0.45501251105E+03  0.53470527695E+03  0.18800000000E+03 0.  0.
   -5000001    1    1    2    0    0 -0.20834885114E+03 -0.10959206743E+02 -0.16853956270E+01  0.28084904939E+03  0.18800000000E+03 0.  0.
<mgrwt>
<rscale>  0 0.67795530E+03</rscale>
<asrwt>0</asrwt>
<pdfrwt beam="1">  1        1 0.90634390E-01 0.67795530E+03</pdfrwt>
<pdfrwt beam="2">  1       -1 0.25873372E-01 0.67795530E+03</pdfrwt>
<totfact> 0.46841721E+02</totfact>
</mgrwt>
</event>
<event>
 4    1  0.1545327E-005  0.4509944E+03  0.7818608E-02  0.1027426E+00
          1   -1    0    0  501    0  0.00000000000E+00  0.00000000000E+00  0.15321883003E+04  0.15321883004E+04  0.50400000000E-02 0.  1.
         -1   -1    0    0    0  501 -0.00000000000E+00 -0.00000000000E+00 -0.33187170589E+02  0.33187170972E+02  0.50400000000E-02 0. -1.
    5000001    1    1    2    0    0 -0.82359286183E+02  0.46410486443E+02  0.46820412881E+03  0.51331870364E+03  0.18800000000E+03 0.  0.
   -5000001    1    1    2    0    0  0.82359286183E+02 -0.46410486443E+02  0.10307970009E+04  0.10520567677E+04  0.18800000000E+03 0.  0.
<mgrwt>
<rscale>  0 0.45099443E+03</rscale>
<asrwt>0</asrwt>
<pdfrwt beam="1">  1        1 0.21888403E+00 0.45099443E+03</pdfrwt>
<pdfrwt beam="2">  1       -1 0.47410247E-02 0.45099443E+03</pdfrwt>
<totfact> 0.15285042E+03</totfact>
</mgrwt>
</event>
<event>
 4    1  0.1545327E-005  0.4867581E+03  0.7818608E-02  0.1017294E+00
          1   -1    0    0  501    0  0.00000000000E+00  0.00000000000E+00  0.11139992680E+04  0.11139992680E+04  0.50400000000E-02 0. -1.
         -1   -1    0    0    0  501 -0.00000000000E+00 -0.00000000000E+00 -0.53171807200E+02  0.53171807439E+02  0.50400000000E-02 0.  1.
    5000001    1    1    2    0    0  0.64629001574E+02 -0.94729224434E+02  0.77889842943E+03  0.80943022996E+03  0.18800000000E+03 0.  0.
   -5000001    1    1    2    0    0 -0.64629001574E+02  0.94729224434E+02  0.28192903140E+03  0.35774084552E+03  0.18800000000E+03 0.  0.
<mgrwt>
<rscale>  0 0.48675807E+03</rscale>
<asrwt>0</asrwt>
<pdfrwt beam="1">  1        1 0.15914274E+00 0.48675807E+03</pdfrwt>
<pdfrwt beam="2">  1       -1 0.75959731E-02 0.48675807E+03</pdfrwt>
<totfact> 0.14012520E+03</totfact>
</mgrwt>
</event>
<event>
 4    1  0.1545327E-005  0.6169746E+03  0.7818608E-02  0.9870802E-01
         -1   -1    0    0    0  501 -0.00000000000E+00  0.00000000000E+00  0.62595595140E+02  0.62595595343E+02  0.50400000000E-02 0. -1.
          1   -1    0    0  501    0  0.00000000000E+00 -0.00000000000E+00 -0.15203054679E+04  0.15203054679E+04  0.50400000000E-02 0.  1.
    5000001    1    1    2    0    0 -0.24285098859E+03 -0.64469409440E+01 -0.80152307465E+03  0.85837136771E+03  0.18800000000E+03 0.  0.
   -5000001    1    1    2    0    0  0.24285098859E+03  0.64469409440E+01 -0.65618679810E+03  0.72452969553E+03  0.18800000000E+03 0.  0.
<mgrwt>
<rscale>  0 0.61697464E+03</rscale>
<asrwt>0</asrwt>
<pdfrwt beam="1">  1        1 0.21718647E+00 0.61697464E+03</pdfrwt>
<pdfrwt beam="2">  1       -1 0.89422288E-02 0.61697464E+03</pdfrwt>
<totfact> 0.58040832E+02</totfact>
</mgrwt>
</event>
<event>
 4    1  0.1545327E-005  0.4852990E+03  0.7818608E-02  0.1017689E+00
          1   -1    0    0  501    0  0.00000000000E+00  0.00000000000E+00  0.81859776886E+03  0.81859776887E+03  0.50400000000E-02 0.  1.
         -1   -1    0    0    0  501 -0.00000000000E+00 -0.00000000000E+00 -0.71926376354E+02  0.71926376530E+02  0.50400000000E-02 0. -1.
    5000001    1    1    2    0    0  0.11786286145E+03  0.59758113818E+01  0.19347369312E+03  0.29445446908E+03  0.18800000000E+03 0.  0.
   -5000001    1    1    2    0    0 -0.11786286145E+03 -0.59758113818E+01  0.55319769938E+03  0.59606967632E+03  0.18800000000E+03 0.  0.
<mgrwt>
<rscale>  0 0.48529896E+03</rscale>
<asrwt>0</asrwt>
<pdfrwt beam="1">  1        1 0.11694254E+00 0.48529896E+03</pdfrwt>
<pdfrwt beam="2">  1       -1 0.10275197E-01 0.48529896E+03</pdfrwt>
<totfact> 0.14574012E+03</totfact>
</mgrwt>
</event>
<event>
 4    1  0.1545327E-005  0.5935892E+03  0.7818608E-02  0.9918796E-01
         -1   -1    0    0    0  501 -0.00000000000E+00  0.00000000000E+00  0.79147013944E+03  0.79147013946E+03  0.50400000000E-02 0.  1.
          1   -1    0    0  501    0  0.00000000000E+00 -0.00000000000E+00 -0.11129546151E+03  0.11129546163E+03  0.50400000000E-02 0. -1.
    5000001    1    1    2    0    0  0.51553969707E+02 -0.21682260776E+03  0.42439809309E+03  0.51490542476E+03  0.18800000000E+03 0.  0.
   -5000001    1    1    2    0    0 -0.51553969707E+02  0.21682260776E+03  0.25577658484E+03  0.38786017633E+03  0.18800000000E+03 0.  0.
<mgrwt>
<rscale>  0 0.59358920E+03</rscale>
<asrwt>0</asrwt>
<pdfrwt beam="1">  1        1 0.15899352E-01 0.59358920E+03</pdfrwt>
<pdfrwt beam="2">  1       -1 0.11306716E+00 0.59358920E+03</pdfrwt>
<totfact> 0.25943169E+02</totfact>
</mgrwt>
</event>
<event>
 4    1  0.1545327E-005  0.5468000E+03  0.7818608E-02  0.1002237E+00
         -1   -1    0    0    0  501 -0.00000000000E+00  0.00000000000E+00  0.22664188426E+03  0.22664188432E+03  0.50400000000E-02 0. -1.
          1   -1    0    0  501    0  0.00000000000E+00 -0.00000000000E+00 -0.32980474623E+03  0.32980474627E+03  0.50400000000E-02 0.  1.
    5000001    1    1    2    0    0  0.93369208442E+02 -0.17515527804E+03 -0.54153598401E+02  0.27870018430E+03  0.18800000000E+03 0.  0.
   -5000001    1    1    2    0    0 -0.93369208442E+02  0.17515527804E+03 -0.49009263572E+02  0.27774644629E+03  0.18800000000E+03 0.  0.
<mgrwt>
<rscale>  0 0.54680003E+03</rscale>
<asrwt>0</asrwt>
<pdfrwt beam="1">  1        1 0.47114964E-01 0.54680003E+03</pdfrwt>
<pdfrwt beam="2">  1       -1 0.32377412E-01 0.54680003E+03</pdfrwt>
<totfact> 0.76544021E+02</totfact>
</mgrwt>
</event>
<event>
 4    1  0.1545327E-005  0.5777956E+03  0.7818608E-02  0.9952575E-01
         -1   -1    0    0    0  501 -0.00000000000E+00  0.00000000000E+00  0.59086506938E+02  0.59086507153E+02  0.50400000000E-02 0. -1.
          1   -1    0    0  501    0  0.00000000000E+00 -0.00000000000E+00 -0.14125382285E+04  0.14125382285E+04  0.50400000000E-02 0.  1.
    5000001    1    1    2    0    0 -0.55750147299E+02 -0.21055568100E+03 -0.61049616129E+03  0.67490098287E+03  0.18800000000E+03 0.  0.
   -5000001    1    1    2    0    0  0.55750147299E+02  0.21055568100E+03 -0.74295556024E+03  0.79672375277E+03  0.18800000000E+03 0.  0.
<mgrwt>
<rscale>  0 0.57779564E+03</rscale>
<asrwt>0</asrwt>
<pdfrwt beam="1">  1        1 0.20179116E+00 0.57779564E+03</pdfrwt>
<pdfrwt beam="2">  1       -1 0.84409304E-02 0.57779564E+03</pdfrwt>
<totfact> 0.74697480E+02</totfact>
</mgrwt>
</event>
<event>
 4    1  0.1545327E-005  0.4411544E+03  0.7818608E-02  0.1030393E+00
         -1   -1    0    0    0  501 -0.00000000000E+00  0.00000000000E+00  0.16257671631E+03  0.16257671639E+03  0.50400000000E-02 0. -1.
          1   -1    0    0  501    0  0.00000000000E+00 -0.00000000000E+00 -0.29926978651E+03  0.29926978655E+03  0.50400000000E-02 0.  1.
    5000001    1    1    2    0    0  0.10248291920E+03 -0.45655605795E+02 -0.40194416649E+02  0.22259104698E+03  0.18800000000E+03 0.  0.
   -5000001    1    1    2    0    0 -0.10248291920E+03  0.45655605795E+02 -0.96498653553E+02  0.23925545596E+03  0.18800000000E+03 0.  0.
<mgrwt>
<rscale>  0 0.44115439E+03</rscale>
<asrwt>0</asrwt>
<pdfrwt beam="1">  1        1 0.42752827E-01 0.44115439E+03</pdfrwt>
<pdfrwt beam="2">  1       -1 0.23225245E-01 0.44115439E+03</pdfrwt>
<totfact> 0.15296782E+03</totfact>
</mgrwt>
</event>
<event>
 4    1  0.1545327E-005  0.5673902E+03  0.7818608E-02  0.9975471E-01
          1   -1    0    0  501    0  0.00000000000E+00  0.00000000000E+00  0.14446976127E+04  0.14446976127E+04  0.50400000000E-02 0. -1.
         -1   -1    0    0    0  501 -0.00000000000E+00 -0.00000000000E+00 -0.55709163517E+02  0.55709163745E+02  0.50400000000E-02 0.  1.
    5000001    1    1    2    0    0  0.34229940103E+01  0.21145154562E+03  0.64059626460E+03  0.70030782321E+03  0.18800000000E+03 0.  0.
   -5000001    1    1    2    0    0 -0.34229940103E+01 -0.21145154562E+03  0.74839218456E+03  0.80009895322E+03  0.18800000000E+03 0.  0.
<mgrwt>
<rscale>  0 0.56739015E+03</rscale>
<asrwt>0</asrwt>
<pdfrwt beam="1">  1        1 0.20638534E+00 0.56739015E+03</pdfrwt>
<pdfrwt beam="2">  1       -1 0.79584532E-02 0.56739015E+03</pdfrwt>
<totfact> 0.78081586E+02</totfact>
</mgrwt>
</event>
<event>
 4    1  0.1545327E-005  0.8200363E+03  0.7818608E-02  0.9531460E-01
          1   -1    0    0  501    0  0.00000000000E+00  0.00000000000E+00  0.22385487013E+04  0.22385487013E+04  0.50400000000E-02 0.  1.
         -1   -1    0    0    0  501 -0.00000000000E+00 -0.00000000000E+00 -0.75099939131E+02  0.75099939300E+02  0.50400000000E-02 0. -1.
    5000001    1    1    2    0    0  0.14085160454E+03  0.32217896789E+03  0.13513474416E+04  0.14089437071E+04  0.18800000000E+03 0.  0.
   -5000001    1    1    2    0    0 -0.14085160454E+03 -0.32217896789E+03  0.81210132062E+03  0.90470493356E+03  0.18800000000E+03 0.  0.
<mgrwt>
<rscale>  0 0.82003627E+03</rscale>
<asrwt>0</asrwt>
<pdfrwt beam="1">  1        1 0.31979263E+00 0.82003627E+03</pdfrwt>
<pdfrwt beam="2">  1       -1 0.10728564E-01 0.82003627E+03</pdfrwt>
<totfact> 0.15243787E+02</totfact>
</mgrwt>
</event>
<event>
 4    1  0.1545327E-005  0.7781670E+03  0.7818608E-02  0.9592168E-01
          1   -1    0    0  501    0  0.00000000000E+00  0.00000000000E+00  0.17777720427E+04  0.17777720427E+04  0.50400000000E-02 0. -1.
         -1   -1    0    0    0  501 -0.00000000000E+00 -0.00000000000E+00 -0.85154881844E+02  0.85154881993E+02  0.50400000000E-02 0.  1.
    5000001    1    1    2    0    0  0.17311837288E+03  0.28613212028E+03  0.10014646267E+04  0.10724350609E+04  0.18800000000E+03 0.  0.
   -5000001    1    1    2    0    0 -0.17311837288E+03 -0.28613212028E+03  0.69115253414E+03  0.79049186380E+03  0.18800000000E+03 0.  0.
<mgrwt>
<rscale>  0 0.77816700E+03</rscale>
<asrwt>0</asrwt>
<pdfrwt beam="1">  1        1 0.25396744E+00 0.77816700E+03</pdfrwt>
<pdfrwt beam="2">  1       -1 0.12164983E-01 0.77816700E+03</pdfrwt>
<totfact> 0.24231250E+02</totfact>
</mgrwt>
</event>
<event>
 4    1  0.1545327E-005  0.6245165E+03  0.7818608E-02  0.9855808E-01
          1   -1    0    0  501    0  0.00000000000E+00  0.00000000000E+00  0.16400214835E+04  0.16400214835E+04  0.50400000000E-02 0.  1.
         -1   -1    0    0    0  501 -0.00000000000E+00 -0.00000000000E+00 -0.59453625522E+02  0.59453625736E+02  0.50400000000E-02 0. -1.
    5000001    1    1    2    0    0 -0.58384795637E+02 -0.22798256926E+03  0.10142952537E+04  0.10580754689E+04  0.18800000000E+03 0.  0.
   -5000001    1    1    2    0    0  0.58384795637E+02  0.22798256926E+03  0.56627260425E+03  0.64139964030E+03  0.18800000000E+03 0.  0.
<mgrwt>
<rscale>  0 0.62451653E+03</rscale>
<asrwt>0</asrwt>
<pdfrwt beam="1">  1        1 0.23428875E+00 0.62451653E+03</pdfrwt>
<pdfrwt beam="2">  1       -1 0.84933762E-02 0.62451653E+03</pdfrwt>
<totfact> 0.52790538E+02</totfact>
</mgrwt>
</event>
<event>
 4    1  0.1545327E-005  0.9277883E+03  0.7818608E-02  0.9391496E-01
         -1   -1    0    0    0  501 -0.00000000000E+00  0.00000000000E+00  0.55687096444E+03  0.55687096446E+03  0.50400000000E-02 0.  1.
          1   -1    0    0  501    0  0.00000000000E+00 -0.00000000000E+00 -0.38644104612E+03  0.38644104615E+03  0.50400000000E-02 0. -1.
    5000001    1    1    2    0    0  0.41064743369E+03 -0.54024042879E+02 -0.74354086728E+01  0.45491669271E+03  0.18800000000E+03 0.  0.
   -5000001    1    1    2    0    0 -0.41064743369E+03  0.54024042879E+02  0.17786532699E+03  0.48839531790E+03  0.18800000000E+03 0.  0.
<mgrwt>
<rscale>  0 0.92778833E+03</rscale>
<asrwt>0</asrwt>
<pdfrwt beam="1">  1        1 0.55205864E-01 0.92778833E+03</pdfrwt>
<pdfrwt beam="2">  1       -1 0.79552995E-01 0.92778833E+03</pdfrwt>
<totfact> 0.11014974E+02</totfact>
</mgrwt>
</event>
<event>
 4    1  0.1545327E-005  0.4405636E+03  0.7818608E-02  0.1030574E+00
         -1   -1    0    0    0  501 -0.00000000000E+00  0.00000000000E+00  0.25924584032E+03  0.25924584036E+03  0.50400000000E-02 0. -1.
          1   -1    0    0  501    0  0.00000000000E+00 -0.00000000000E+00 -0.18717393326E+03  0.18717393333E+03  0.50400000000E-02 0.  1.
    5000001    1    1    2    0    0 -0.10255394040E+03  0.25410484240E+02 -0.94727307586E+01  0.21586277129E+03  0.18800000000E+03 0.  0.
   -5000001    1    1    2    0    0  0.10255394040E+03 -0.25410484240E+02  0.81544637817E+02  0.23055700240E+03  0.18800000000E+03 0.  0.
<mgrwt>
<rscale>  0 0.44056356E+03</rscale>
<asrwt>0</asrwt>
<pdfrwt beam="1">  1        1 0.26739133E-01 0.44056356E+03</pdfrwt>
<pdfrwt beam="2">  1       -1 0.37035120E-01 0.44056356E+03</pdfrwt>
<totfact> 0.12494473E+03</totfact>
</mgrwt>
</event>
<event>
 4    1  0.1545327E-005  0.5877727E+03  0.7818608E-02  0.9931104E-01
          1   -1    0    0  501    0  0.00000000000E+00  0.00000000000E+00  0.10794113828E+04  0.10794113828E+04  0.50400000000E-02 0.  1.
         -1   -1    0    0    0  501 -0.00000000000E+00 -0.00000000000E+00 -0.80015076223E+02  0.80015076382E+02  0.50400000000E-02 0. -1.
    5000001    1    1    2    0    0 -0.18101981265E+03 -0.11547549501E+03  0.63809404845E+03  0.69900699366E+03  0.18800000000E+03 0.  0.
   -5000001    1    1    2    0    0  0.18101981265E+03  0.11547549501E+03  0.36130225814E+03  0.46041946554E+03  0.18800000000E+03 0.  0.
<mgrwt>
<rscale>  0 0.58777269E+03</rscale>
<asrwt>0</asrwt>
<pdfrwt beam="1">  1        1 0.15420163E+00 0.58777269E+03</pdfrwt>
<pdfrwt beam="2">  1       -1 0.11430725E-01 0.58777269E+03</pdfrwt>
<totfact> 0.77875483E+02</totfact>
</mgrwt>
</event>
<event>
 4    1  0.1545327E-005  0.6406783E+03  0.7818608E-02  0.9824430E-01
          1   -1    0    0  501    0  0.00000000000E+00  0.00000000000E+00  0.95352563827E+03  0.95352563828E+03  0.50400000000E-02 0.  1.
         -1   -1    0    0    0  501 -0.00000000000E+00 -0.00000000000E+00 -0.10761867386E+03  0.10761867398E+03  0.50400000000E-02 0. -1.
    5000001    1    1    2    0    0 -0.14291453055E+03  0.18988429113E+03  0.59502010660E+03  0.66773762386E+03  0.18800000000E+03 0.  0.
   -5000001    1    1    2    0    0  0.14291453055E+03 -0.18988429113E+03  0.25088685780E+03  0.39340668840E+03  0.18800000000E+03 0.  0.
<mgrwt>
<rscale>  0 0.64067828E+03</rscale>
<asrwt>0</asrwt>
<pdfrwt beam="1">  1        1 0.13621795E+00 0.64067828E+03</pdfrwt>
<pdfrwt beam="2">  1       -1 0.15374096E-01 0.64067828E+03</pdfrwt>
<totfact> 0.59746133E+02</totfact>
</mgrwt>
</event>
<event>
 4    1  0.1545327E-005  0.6249679E+03  0.7818608E-02  0.9854918E-01
         -1   -1    0    0    0  501 -0.00000000000E+00  0.00000000000E+00  0.17458022162E+03  0.17458022170E+03  0.50400000000E-02 0. -1.
          1   -1    0    0  501    0  0.00000000000E+00 -0.00000000000E+00 -0.55931998785E+03  0.55931998787E+03  0.50400000000E-02 0.  1.
    5000001    1    1    2    0    0 -0.48460723734E+02  0.96648412764E+02 -0.45655583646E+03  0.50544692030E+03  0.18800000000E+03 0.  0.
   -5000001    1    1    2    0    0  0.48460723734E+02 -0.96648412764E+02  0.71816070233E+02  0.22845328927E+03  0.18800000000E+03 0.  0.
<mgrwt>
<rscale>  0 0.62496786E+03</rscale>
<asrwt>0</asrwt>
<pdfrwt beam="1">  1        1 0.79902855E-01 0.62496786E+03</pdfrwt>
<pdfrwt beam="2">  1       -1 0.24940032E-01 0.62496786E+03</pdfrwt>
<totfact> 0.59599541E+02</totfact>
</mgrwt>
</event>
<event>
 4    1  0.1545327E-005  0.5216062E+03  0.7818608E-02  0.1008288E+00
         -1   -1    0    0    0  501 -0.00000000000E+00  0.00000000000E+00  0.36138637752E+02  0.36138638103E+02  0.50400000000E-02 0.  1.
          1   -1    0    0  501    0  0.00000000000E+00 -0.00000000000E+00 -0.18821474779E+04  0.18821474779E+04  0.50400000000E-02 0. -1.
    5000001    1    1    2    0    0  0.21023977111E+02 -0.17733489084E+03 -0.10260164486E+04  0.10582737944E+04  0.18800000000E+03 0.  0.
   -5000001    1    1    2    0    0 -0.21023977111E+02  0.17733489084E+03 -0.81999239161E+03  0.86001232167E+03  0.18800000000E+03 0.  0.
<mgrwt>
<rscale>  0 0.52160616E+03</rscale>
<asrwt>0</asrwt>
<pdfrwt beam="1">  1        1 0.26887815E+00 0.52160616E+03</pdfrwt>
<pdfrwt beam="2">  1       -1 0.51626637E-02 0.52160616E+03</pdfrwt>
<totfact> 0.80984600E+02</totfact>
</mgrwt>
</event>
<event>
 4    1  0.1545327E-005  0.5328739E+03  0.7818608E-02  0.1005538E+00
         -1   -1    0    0    0  501 -0.00000000000E+00  0.00000000000E+00  0.24448369048E+03  0.24448369053E+03  0.50400000000E-02 0. -1.
          1   -1    0    0  501    0  0.00000000000E+00 -0.00000000000E+00 -0.29036149846E+03  0.29036149850E+03  0.50400000000E-02 0.  1.
    5000001    1    1    2    0    0 -0.15602851882E+03 -0.57379805626E+02 -0.11275350755E+03  0.27512668763E+03  0.18800000000E+03 0.  0.
   -5000001    1    1    2    0    0  0.15602851882E+03  0.57379805626E+02  0.66875699562E+02  0.25971850141E+03  0.18800000000E+03 0.  0.
<mgrwt>
<rscale>  0 0.53287391E+03</rscale>
<asrwt>0</asrwt>
<pdfrwt beam="1">  1        1 0.41480214E-01 0.53287391E+03</pdfrwt>
<pdfrwt beam="2">  1       -1 0.34926242E-01 0.53287391E+03</pdfrwt>
<totfact> 0.78918038E+02</totfact>
</mgrwt>
</event>
<event>
 4    1  0.1545327E-005  0.6116769E+03  0.7818608E-02  0.9881472E-01
          1   -1    0    0  501    0  0.00000000000E+00  0.00000000000E+00  0.85010591368E+02  0.85010591518E+02  0.50400000000E-02 0.  1.
         -1   -1    0    0    0  501 -0.00000000000E+00 -0.00000000000E+00 -0.11003000697E+04  0.11003000698E+04  0.50400000000E-02 0. -1.
    5000001    1    1    2    0    0 -0.62281865162E+02 -0.17877090003E+03 -0.21791147533E+03  0.34448146033E+03  0.18800000000E+03 0.  0.
   -5000001    1    1    2    0    0  0.62281865162E+02  0.17877090003E+03 -0.79737800304E+03  0.84082920094E+03  0.18800000000E+03 0.  0.
<mgrwt>
<rscale>  0 0.61167691E+03</rscale>
<asrwt>0</asrwt>
<pdfrwt beam="1">  1        1 0.12144371E-01 0.61167691E+03</pdfrwt>
<pdfrwt beam="2">  1       -1 0.15718572E+00 0.61167691E+03</pdfrwt>
<totfact> 0.16148118E+02</totfact>
</mgrwt>
</event>
<event>
 4    1  0.1545327E-005  0.4109957E+03  0.7818608E-02  0.1040037E+00
          1   -1    0    0  501    0  0.00000000000E+00  0.00000000000E+00  0.14232492227E+04  0.14232492227E+04  0.50400000000E-02 0.  1.
         -1   -1    0    0    0  501 -0.00000000000E+00 -0.00000000000E+00 -0.29671091736E+02  0.29671092164E+02  0.50400000000E-02 0. -1.
    5000001    1    1    2    0    0 -0.58415674554E+02  0.37277931043E+02  0.53543388887E+03  0.57169527244E+03  0.18800000000E+03 0.  0.
   -5000001    1    1    2    0    0  0.58415674554E+02 -0.37277931043E+02  0.85814424207E+03  0.88122504241E+03  0.18800000000E+03 0.  0.
<mgrwt>
<rscale>  0 0.41099566E+03</rscale>
<asrwt>0</asrwt>
<pdfrwt beam="1">  1        1 0.20332135E+00 0.41099566E+03</pdfrwt>
<pdfrwt beam="2">  1       -1 0.42387268E-02 0.41099566E+03</pdfrwt>
<totfact> 0.21263214E+03</totfact>
</mgrwt>
</event>
<event>
 4    1  0.1545327E-005  0.8823286E+03  0.7818608E-02  0.9447945E-01
          1   -1    0    0  501    0  0.00000000000E+00  0.00000000000E+00  0.52933517463E+03  0.52933517465E+03  0.50400000000E-02 0. -1.
         -1   -1    0    0    0  501 -0.00000000000E+00 -0.00000000000E+00 -0.36768000172E+03  0.36768000175E+03  0.50400000000E-02 0.  1.
    5000001    1    1    2    0    0 -0.11481173168E+03  0.34630066657E+03 -0.83655655148E+02  0.41886531730E+03  0.18800000000E+03 0.  0.
   -5000001    1    1    2    0    0  0.11481173168E+03 -0.34630066657E+03  0.24531082806E+03  0.47814985911E+03  0.18800000000E+03 0.  0.
<mgrwt>
<rscale>  0 0.88232864E+03</rscale>
<asrwt>0</asrwt>
<pdfrwt beam="1">  1        1 0.75619310E-01 0.88232864E+03</pdfrwt>
<pdfrwt beam="2">  1       -1 0.52525715E-01 0.88232864E+03</pdfrwt>
<totfact> 0.16707424E+02</totfact>
</mgrwt>
</event>
<event>
 4    1  0.1545327E-005  0.6652231E+03  0.7818608E-02  0.9778626E-01
          1   -1    0    0  501    0  0.00000000000E+00  0.00000000000E+00  0.19515549028E+04  0.19515549028E+04  0.50400000000E-02 0.  1.
         -1   -1    0    0    0  501 -0.00000000000E+00 -0.00000000000E+00 -0.56688357134E+02  0.56688357358E+02  0.50400000000E-02 0. -1.
    5000001    1    1    2    0    0  0.19072154583E+03 -0.13754263185E+03  0.13743038430E+04  0.14068929371E+04  0.18800000000E+03 0.  0.
   -5000001    1    1    2    0    0 -0.19072154583E+03  0.13754263185E+03  0.52056270265E+03  0.60135032303E+03  0.18800000000E+03 0.  0.
<mgrwt>
<rscale>  0 0.66522309E+03</rscale>
<asrwt>0</asrwt>
<pdfrwt beam="1">  1        1 0.27879358E+00 0.66522309E+03</pdfrwt>
<pdfrwt beam="2">  1       -1 0.80983361E-02 0.66522309E+03</pdfrwt>
<totfact> 0.36247119E+02</totfact>
</mgrwt>
</event>
<event>
 4    1  0.1545327E-005  0.4922554E+03  0.7818608E-02  0.1015820E+00
          1   -1    0    0  501    0  0.00000000000E+00  0.00000000000E+00  0.10513121388E+04  0.10513121388E+04  0.50400000000E-02 0.  1.
         -1   -1    0    0    0  501 -0.00000000000E+00 -0.00000000000E+00 -0.57622135356E+02  0.57622135577E+02  0.50400000000E-02 0. -1.
    5000001    1    1    2    0    0  0.10482374526E+03 -0.10555800127E+03  0.37132873087E+03  0.44199494972E+03  0.18800000000E+03 0.  0.
   -5000001    1    1    2    0    0 -0.10482374526E+03  0.10555800127E+03  0.62236127259E+03  0.66693932469E+03  0.18800000000E+03 0.  0.
<mgrwt>
<rscale>  0 0.49225542E+03</rscale>
<asrwt>0</asrwt>
<pdfrwt beam="1">  1        1 0.15018744E+00 0.49225542E+03</pdfrwt>
<pdfrwt beam="2">  1       -1 0.82317341E-02 0.49225542E+03</pdfrwt>
<totfact> 0.13700889E+03</totfact>
</mgrwt>
</event>
<event>
 4    1  0.1545327E-005  0.4689680E+03  0.7818608E-02  0.1022212E+00
          1   -1    0    0  501    0  0.00000000000E+00  0.00000000000E+00  0.38689959521E+03  0.38689959524E+03  0.50400000000E-02 0.  1.
         -1   -1    0    0    0  501 -0.00000000000E+00 -0.00000000000E+00 -0.14211113234E+03  0.14211113243E+03  0.50400000000E-02 0. -1.
    5000001    1    1    2    0    0 -0.13095256542E+02 -0.13605069989E+03  0.15729876388E+03  0.28065669385E+03  0.18800000000E+03 0.  0.
   -5000001    1    1    2    0    0  0.13095256542E+02  0.13605069989E+03  0.87489698983E+02  0.24835403382E+03  0.18800000000E+03 0.  0.
<mgrwt>
<rscale>  0 0.46896797E+03</rscale>
<asrwt>0</asrwt>
<pdfrwt beam="1">  1        1 0.55271371E-01 0.46896797E+03</pdfrwt>
<pdfrwt beam="2">  1       -1 0.20301590E-01 0.46896797E+03</pdfrwt>
<totfact> 0.13761763E+03</totfact>
</mgrwt>
</event>
<event>
 4    1  0.1545327E-005  0.6374614E+03  0.7818608E-02  0.9830596E-01
          1   -1    0    0  501    0  0.00000000000E+00  0.00000000000E+00  0.39241000880E+02  0.39241001203E+02  0.50400000000E-02 0.  1.
         -1   -1    0    0    0  501 -0.00000000000E+00 -0.00000000000E+00 -0.25888546773E+04  0.25888546773E+04  0.50400000000E-02 0. -1.
    5000001    1    1    2    0    0 -0.16232990674E+03  0.19927953428E+03 -0.12192004387E+04  0.12601019963E+04  0.18800000000E+03 0.  0.
   -5000001    1    1    2    0    0  0.16232990674E+03 -0.19927953428E+03 -0.13304132377E+04  0.13679936822E+04  0.18800000000E+03 0.  0.
<mgrwt>
<rscale>  0 0.63746137E+03</rscale>
<asrwt>0</asrwt>
<pdfrwt beam="1">  1        1 0.56058589E-02 0.63746137E+03</pdfrwt>
<pdfrwt beam="2">  1       -1 0.36983627E+00 0.63746137E+03</pdfrwt>
<totfact> 0.18508476E+01</totfact>
</mgrwt>
</event>
<event>
 4    1  0.1545327E-005  0.1052265E+04  0.7818608E-02  0.9253009E-01
          1   -1    0    0  501    0  0.00000000000E+00  0.00000000000E+00  0.81883276060E+03  0.81883276062E+03  0.50400000000E-02 0.  1.
         -1   -1    0    0    0  501 -0.00000000000E+00 -0.00000000000E+00 -0.33806085797E+03  0.33806085801E+03  0.50400000000E-02 0. -1.
    5000001    1    1    2    0    0 -0.13220987912E+03  0.47322974137E+03  0.23297270030E+03  0.57536607420E+03  0.18800000000E+03 0.  0.
   -5000001    1    1    2    0    0  0.13220987912E+03 -0.47322974137E+03  0.24779920233E+03  0.58152754443E+03  0.18800000000E+03 0.  0.
<mgrwt>
<rscale>  0 0.10522648E+04</rscale>
<asrwt>0</asrwt>
<pdfrwt beam="1">  1        1 0.11697611E+00 0.10522648E+04</pdfrwt>
<pdfrwt beam="2">  1       -1 0.48294409E-01 0.10522648E+04</pdfrwt>
<totfact> 0.10271780E+02</totfact>
</mgrwt>
</event>
<event>
 4    1  0.1545327E-005  0.5664619E+03  0.7818608E-02  0.9977539E-01
         -1   -1    0    0    0  501 -0.00000000000E+00  0.00000000000E+00  0.62613917207E+02  0.62613917410E+02  0.50400000000E-02 0. -1.
          1   -1    0    0  501    0  0.00000000000E+00 -0.00000000000E+00 -0.12811813014E+04  0.12811813014E+04  0.50400000000E-02 0.  1.
    5000001    1    1    2    0    0 -0.20412747432E+03  0.55435799959E+02 -0.63680870005E+03  0.69685757092E+03  0.18800000000E+03 0.  0.
   -5000001    1    1    2    0    0  0.20412747432E+03 -0.55435799959E+02 -0.58175868410E+03  0.64693764786E+03  0.18800000000E+03 0.  0.
<mgrwt>
<rscale>  0 0.56646193E+03</rscale>
<asrwt>0</asrwt>
<pdfrwt beam="1">  1        1 0.18302588E+00 0.56646193E+03</pdfrwt>
<pdfrwt beam="2">  1       -1 0.89448461E-02 0.56646193E+03</pdfrwt>
<totfact> 0.83304220E+02</totfact>
</mgrwt>
</event>
<event>
 4    1  0.1545327E-005  0.8629060E+03  0.7818608E-02  0.9473177E-01
         -1   -1    0    0    0  501 -0.00000000000E+00  0.00000000000E+00  0.30578446139E+03  0.30578446143E+03  0.50400000000E-02 0. -1.
          1   -1    0    0  501    0  0.00000000000E+00 -0.00000000000E+00 -0.60876761431E+03  0.60876761433E+03  0.50400000000E-02 0.  1.
    5000001    1    1    2    0    0  0.13571408102E+03 -0.34546474029E+03 -0.30448018453E+02  0.41717535929E+03  0.18800000000E+03 0.  0.
   -5000001    1    1    2    0    0 -0.13571408102E+03  0.34546474029E+03 -0.27253513446E+03  0.49737671647E+03  0.18800000000E+03 0.  0.
<mgrwt>
<rscale>  0 0.86290597E+03</rscale>
<asrwt>0</asrwt>
<pdfrwt beam="1">  1        1 0.86966802E-01 0.86290597E+03</pdfrwt>
<pdfrwt beam="2">  1       -1 0.43683495E-01 0.86290597E+03</pdfrwt>
<totfact> 0.19467879E+02</totfact>
</mgrwt>
</event>
<event>
 4    1  0.1545327E-005  0.6202812E+03  0.7818608E-02  0.9864200E-01
          1   -1    0    0  501    0  0.00000000000E+00  0.00000000000E+00  0.47136437733E+03  0.47136437735E+03  0.50400000000E-02 0.  1.
         -1   -1    0    0    0  501 -0.00000000000E+00 -0.00000000000E+00 -0.20406121221E+03  0.20406121227E+03  0.50400000000E-02 0. -1.
    5000001    1    1    2    0    0 -0.14882437499E+03  0.91152415228E+02  0.32346361250E+03  0.41283188589E+03  0.18800000000E+03 0.  0.
   -5000001    1    1    2    0    0  0.14882437499E+03 -0.91152415228E+02 -0.56160447384E+02  0.26259370374E+03  0.18800000000E+03 0.  0.
<mgrwt>
<rscale>  0 0.62028118E+03</rscale>
<asrwt>0</asrwt>
<pdfrwt beam="1">  1        1 0.67337768E-01 0.62028118E+03</pdfrwt>
<pdfrwt beam="2">  1       -1 0.29151602E-01 0.62028118E+03</pdfrwt>
<totfact> 0.57525599E+02</totfact>
</mgrwt>
</event>
<event>
 4    1  0.1545327E-005  0.4309790E+03  0.7818608E-02  0.1033551E+00
          1   -1    0    0  501    0  0.00000000000E+00  0.00000000000E+00  0.31052149950E+03  0.31052149954E+03  0.50400000000E-02 0.  1.
         -1   -1    0    0    0  501 -0.00000000000E+00 -0.00000000000E+00 -0.14954112170E+03  0.14954112179E+03  0.50400000000E-02 0. -1.
    5000001    1    1    2    0    0  0.84348266509E+01 -0.91268558467E+02  0.25118422293E+02  0.21065619194E+03  0.18800000000E+03 0.  0.
   -5000001    1    1    2    0    0 -0.84348266509E+01  0.91268558467E+02  0.13586195551E+03  0.24940642939E+03  0.18800000000E+03 0.  0.
<mgrwt>
<rscale>  0 0.43097904E+03</rscale>
<asrwt>0</asrwt>
<pdfrwt beam="1">  1        1 0.44360214E-01 0.43097904E+03</pdfrwt>
<pdfrwt beam="2">  1       -1 0.21363017E-01 0.43097904E+03</pdfrwt>
<totfact> 0.16768129E+03</totfact>
</mgrwt>
</event>
<event>
 4    1  0.1545327E-005  0.4174525E+03  0.7818608E-02  0.1037899E+00
         -1   -1    0    0    0  501 -0.00000000000E+00  0.00000000000E+00  0.27190769564E+03  0.27190769569E+03  0.50400000000E-02 0. -1.
          1   -1    0    0  501    0  0.00000000000E+00 -0.00000000000E+00 -0.16022586909E+03  0.16022586917E+03  0.50400000000E-02 0.  1.
    5000001    1    1    2    0    0  0.52552231065E+02 -0.21302878476E+02 -0.17408466240E+02  0.19713600462E+03  0.18800000000E+03 0.  0.
   -5000001    1    1    2    0    0 -0.52552231065E+02  0.21302878476E+02  0.12909029279E+03  0.23499756023E+03  0.18800000000E+03 0.  0.
<mgrwt>
<rscale>  0 0.41745250E+03</rscale>
<asrwt>0</asrwt>
<pdfrwt beam="1">  1        1 0.22889410E-01 0.41745250E+03</pdfrwt>
<pdfrwt beam="2">  1       -1 0.38843956E-01 0.41745250E+03</pdfrwt>
<totfact> 0.14026455E+03</totfact>
</mgrwt>
</event>
<event>
 4    1  0.1545327E-005  0.5130943E+03  0.7818608E-02  0.1010417E+00
          1   -1    0    0  501    0  0.00000000000E+00  0.00000000000E+00  0.13850114751E+04  0.13850114751E+04  0.50400000000E-02 0.  1.
         -1   -1    0    0    0  501 -0.00000000000E+00 -0.00000000000E+00 -0.47520493416E+02  0.47520493683E+02  0.50400000000E-02 0. -1.
    5000001    1    1    2    0    0  0.16536750511E+03  0.24911925995E+02  0.80849388929E+03  0.84674280914E+03  0.18800000000E+03 0.  0.
   -5000001    1    1    2    0    0 -0.16536750511E+03 -0.24911925995E+02  0.52899709235E+03  0.58578915962E+03  0.18800000000E+03 0.  0.
<mgrwt>
<rscale>  0 0.51309426E+03</rscale>
<asrwt>0</asrwt>
<pdfrwt beam="1">  1        1 0.19785877E+00 0.51309426E+03</pdfrwt>
<pdfrwt beam="2">  1       -1 0.67886423E-02 0.51309426E+03</pdfrwt>
<totfact> 0.10946195E+03</totfact>
</mgrwt>
</event>
<event>
 4    1  0.1545327E-005  0.5282725E+03  0.7818608E-02  0.1006652E+00
         -1   -1    0    0    0  501 -0.00000000000E+00  0.00000000000E+00  0.39767460508E+02  0.39767460827E+02  0.50400000000E-02 0. -1.
          1   -1    0    0  501    0  0.00000000000E+00 -0.00000000000E+00 -0.17543980996E+04  0.17543980996E+04  0.50400000000E-02 0.  1.
    5000001    1    1    2    0    0 -0.11276562648E+03 -0.12794558508E+03 -0.60918171154E+03  0.65994887448E+03  0.18800000000E+03 0.  0.
   -5000001    1    1    2    0    0  0.11276562648E+03  0.12794558508E+03 -0.11054489275E+04  0.11342166859E+04  0.18800000000E+03 0.  0.
<mgrwt>
<rscale>  0 0.52827250E+03</rscale>
<asrwt>0</asrwt>
<pdfrwt beam="1">  1        1 0.25062825E+00 0.52827250E+03</pdfrwt>
<pdfrwt beam="2">  1       -1 0.56810669E-02 0.52827250E+03</pdfrwt>
<totfact> 0.83903871E+02</totfact>
</mgrwt>
</event>
<event>
 4    1  0.1545327E-005  0.5146723E+03  0.7818608E-02  0.1010019E+00
         -1   -1    0    0    0  501 -0.00000000000E+00  0.00000000000E+00  0.67470282705E+02  0.67470282893E+02  0.50400000000E-02 0. -1.
          1   -1    0    0  501    0  0.00000000000E+00 -0.00000000000E+00 -0.98149708214E+03  0.98149708215E+03  0.50400000000E-02 0.  1.
    5000001    1    1    2    0    0  0.26565436408E+02  0.16816919399E+03 -0.36837748008E+03  0.44725000621E+03  0.18800000000E+03 0.  0.
   -5000001    1    1    2    0    0 -0.26565436408E+02 -0.16816919399E+03 -0.54564931935E+03  0.60171735884E+03  0.18800000000E+03 0.  0.
<mgrwt>
<rscale>  0 0.51467227E+03</rscale>
<asrwt>0</asrwt>
<pdfrwt beam="1">  1        1 0.14021386E+00 0.51467227E+03</pdfrwt>
<pdfrwt beam="2">  1       -1 0.96386125E-02 0.51467227E+03</pdfrwt>
<totfact> 0.12036240E+03</totfact>
</mgrwt>
</event>
<event>
 4    1  0.1545327E-005  0.5194567E+03  0.7818608E-02  0.1008822E+00
         -1   -1    0    0    0  501 -0.00000000000E+00  0.00000000000E+00  0.98795626550E+03  0.98795626551E+03  0.50400000000E-02 0. -1.
          1   -1    0    0  501    0  0.00000000000E+00 -0.00000000000E+00 -0.68281180193E+02  0.68281180379E+02  0.50400000000E-02 0.  1.
    5000001    1    1    2    0    0  0.12723847875E+03  0.12022438685E+03  0.53783146809E+03  0.59602870882E+03  0.18800000000E+03 0.  0.
   -5000001    1    1    2    0    0 -0.12723847875E+03 -0.12022438685E+03  0.38184361721E+03  0.46020873707E+03  0.18800000000E+03 0.  0.
<mgrwt>
<rscale>  0 0.51945672E+03</rscale>
<asrwt>0</asrwt>
<pdfrwt beam="1">  1        1 0.97544545E-02 0.51945672E+03</pdfrwt>
<pdfrwt beam="2">  1       -1 0.14113661E+00 0.51945672E+03</pdfrwt>
<totfact> 0.29140739E+02</totfact>
</mgrwt>
</event>
<event>
 4    1  0.1545327E-005  0.7236760E+03  0.7818608E-02  0.9677578E-01
          1   -1    0    0  501    0  0.00000000000E+00  0.00000000000E+00  0.26767941461E+03  0.26767941465E+03  0.50400000000E-02 0.  1.
         -1   -1    0    0    0  501 -0.00000000000E+00 -0.00000000000E+00 -0.48911772633E+03  0.48911772635E+03  0.50400000000E-02 0. -1.
    5000001    1    1    2    0    0 -0.71183900958E+02  0.18250770701E+03  0.13940643270E+03  0.30521199903E+03  0.18800000000E+03 0.  0.
   -5000001    1    1    2    0    0  0.71183900958E+02 -0.18250770701E+03 -0.36084474442E+03  0.45158514197E+03  0.18800000000E+03 0.  0.
<mgrwt>
<rscale>  0 0.72367602E+03</rscale>
<asrwt>0</asrwt>
<pdfrwt beam="1">  1        1 0.38239917E-01 0.72367602E+03</pdfrwt>
<pdfrwt beam="2">  1       -1 0.69873961E-01 0.72367602E+03</pdfrwt>
<totfact> 0.23500113E+02</totfact>
</mgrwt>
</event>
<event>
 4    1  0.1545327E-005  0.5036950E+03  0.7818608E-02  0.1012819E+00
          1   -1    0    0  501    0  0.00000000000E+00  0.00000000000E+00  0.13057537895E+04  0.13057537895E+04  0.50400000000E-02 0.  1.
         -1   -1    0    0    0  501 -0.00000000000E+00 -0.00000000000E+00 -0.48575130514E+02  0.48575130776E+02  0.50400000000E-02 0. -1.
    5000001    1    1    2    0    0 -0.10826448502E+03 -0.88414073491E+02  0.38004127724E+03  0.44644553925E+03  0.18800000000E+03 0.  0.
   -5000001    1    1    2    0    0  0.10826448502E+03  0.88414073491E+02  0.87713738177E+03  0.90788338106E+03  0.18800000000E+03 0.  0.
<mgrwt>
<rscale>  0 0.50369499E+03</rscale>
<asrwt>0</asrwt>
<pdfrwt beam="1">  1        1 0.18653624E+00 0.50369499E+03</pdfrwt>
<pdfrwt beam="2">  1       -1 0.69393049E-02 0.50369499E+03</pdfrwt>
<totfact> 0.11932042E+03</totfact>
</mgrwt>
</event>
<event>
 4    1  0.1545327E-005  0.4154877E+03  0.7818608E-02  0.1038545E+00
          1   -1    0    0  501    0  0.00000000000E+00  0.00000000000E+00  0.12580706547E+03  0.12580706557E+03  0.50400000000E-02 0.  1.
         -1   -1    0    0    0  501 -0.00000000000E+00 -0.00000000000E+00 -0.34304509731E+03  0.34304509735E+03  0.50400000000E-02 0. -1.
    5000001    1    1    2    0    0  0.80775573048E+01 -0.44632914913E+02 -0.19423285438E+03  0.27409441028E+03  0.18800000000E+03 0.  0.
   -5000001    1    1    2    0    0 -0.80775573048E+01  0.44632914913E+02 -0.23005177464E+02  0.19475775265E+03  0.18800000000E+03 0.  0.
<mgrwt>
<rscale>  0 0.41548765E+03</rscale>
<asrwt>0</asrwt>
<pdfrwt beam="1">  1        1 0.17972438E-01 0.41548765E+03</pdfrwt>
<pdfrwt beam="2">  1       -1 0.49006442E-01 0.41548765E+03</pdfrwt>
<totfact> 0.12589092E+03</totfact>
</mgrwt>
</event>
<event>
 4    1  0.1545327E-005  0.5470286E+03  0.7818608E-02  0.1002184E+00
         -1   -1    0    0    0  501 -0.00000000000E+00  0.00000000000E+00  0.88156149069E+02  0.88156149213E+02  0.50400000000E-02 0. -1.
          1   -1    0    0  501    0  0.00000000000E+00 -0.00000000000E+00 -0.84860864713E+03  0.84860864715E+03  0.50400000000E-02 0.  1.
    5000001    1    1    2    0    0 -0.16004525700E+03  0.11681905319E+03 -0.40473867011E+03  0.48828123716E+03  0.18800000000E+03 0.  0.
   -5000001    1    1    2    0    0  0.16004525700E+03 -0.11681905319E+03 -0.35571382795E+03  0.44848355920E+03  0.18800000000E+03 0.  0.
<mgrwt>
<rscale>  0 0.54702859E+03</rscale>
<asrwt>0</asrwt>
<pdfrwt beam="1">  1        1 0.12122980E+00 0.54702859E+03</pdfrwt>
<pdfrwt beam="2">  1       -1 0.12593736E-01 0.54702859E+03</pdfrwt>
<totfact> 0.99740106E+02</totfact>
</mgrwt>
</event>
<event>
 4    1  0.1545327E-005  0.5173475E+03  0.7818608E-02  0.1009348E+00
          1   -1    0    0  501    0  0.00000000000E+00  0.00000000000E+00  0.19433994360E+03  0.19433994367E+03  0.50400000000E-02 0. -1.
         -1   -1    0    0    0  501 -0.00000000000E+00 -0.00000000000E+00 -0.34430439619E+03  0.34430439623E+03  0.50400000000E-02 0.  1.
    5000001    1    1    2    0    0  0.76003889046E+02  0.15786621018E+03 -0.10568805851E+03  0.27787100817E+03  0.18800000000E+03 0.  0.
   -5000001    1    1    2    0    0 -0.76003889046E+02 -0.15786621018E+03 -0.44276394082E+02  0.26077333173E+03  0.18800000000E+03 0.  0.
<mgrwt>
<rscale>  0 0.51734745E+03</rscale>
<asrwt>0</asrwt>
<pdfrwt beam="1">  1        1 0.27762849E-01 0.51734745E+03</pdfrwt>
<pdfrwt beam="2">  1       -1 0.49186342E-01 0.51734745E+03</pdfrwt>
<totfact> 0.70963753E+02</totfact>
</mgrwt>
</event>
<event>
 4    1  0.1545327E-005  0.4549273E+03  0.7818608E-02  0.1026263E+00
         -1   -1    0    0    0  501 -0.00000000000E+00  0.00000000000E+00  0.13028916263E+03  0.13028916272E+03  0.50400000000E-02 0. -1.
          1   -1    0    0  501    0  0.00000000000E+00 -0.00000000000E+00 -0.39711440089E+03  0.39711440092E+03  0.50400000000E-02 0.  1.
    5000001    1    1    2    0    0  0.87165689705E+02  0.36887541788E+02 -0.23339063278E+03  0.31428289115E+03  0.18800000000E+03 0.  0.
   -5000001    1    1    2    0    0 -0.87165689705E+02 -0.36887541788E+02 -0.33434605487E+02  0.21312067250E+03  0.18800000000E+03 0.  0.
<mgrwt>
<rscale>  0 0.45492726E+03</rscale>
<asrwt>0</asrwt>
<pdfrwt beam="1">  1        1 0.56730628E-01 0.45492726E+03</pdfrwt>
<pdfrwt beam="2">  1       -1 0.18612738E-01 0.45492726E+03</pdfrwt>
<totfact> 0.15346139E+03</totfact>
</mgrwt>
</event>
<event>
 4    1  0.1545327E-005  0.8823170E+03  0.7818608E-02  0.9447960E-01
          1   -1    0    0  501    0  0.00000000000E+00  0.00000000000E+00  0.97132949147E+02  0.97132949278E+02  0.50400000000E-02 0.  1.
         -1   -1    0    0    0  501 -0.00000000000E+00 -0.00000000000E+00 -0.20036541688E+04  0.20036541688E+04  0.50400000000E-02 0. -1.
    5000001    1    1    2    0    0  0.35846432228E+03 -0.17265523494E+03 -0.10274290129E+04  0.11177033940E+04  0.18800000000E+03 0.  0.
   -5000001    1    1    2    0    0 -0.35846432228E+03  0.17265523494E+03 -0.87909220673E+03  0.98308372402E+03  0.18800000000E+03 0.  0.
<mgrwt>
<rscale>  0 0.88231704E+03</rscale>
<asrwt>0</asrwt>
<pdfrwt beam="1">  1        1 0.13876137E-01 0.88231704E+03</pdfrwt>
<pdfrwt beam="2">  1       -1 0.28623629E+00 0.88231704E+03</pdfrwt>
<totfact> 0.17830297E+01</totfact>
</mgrwt>
</event>
<event>
 4    1  0.1545327E-005  0.4114243E+03  0.7818608E-02  0.1039894E+00
         -1   -1    0    0    0  501 -0.00000000000E+00  0.00000000000E+00  0.15315107350E+03  0.15315107358E+03  0.50400000000E-02 0. -1.
          1   -1    0    0  501    0  0.00000000000E+00 -0.00000000000E+00 -0.27631201071E+03  0.27631201075E+03  0.50400000000E-02 0.  1.
    5000001    1    1    2    0    0  0.20759683295E+02  0.60475858133E+02 -0.11764948517E+03  0.23081095127E+03  0.18800000000E+03 0.  0.
   -5000001    1    1    2    0    0 -0.20759683295E+02 -0.60475858133E+02 -0.55114520397E+01  0.19865213306E+03  0.18800000000E+03 0.  0.
<mgrwt>
<rscale>  0 0.41142426E+03</rscale>
<asrwt>0</asrwt>
<pdfrwt beam="1">  1        1 0.39473144E-01 0.41142426E+03</pdfrwt>
<pdfrwt beam="2">  1       -1 0.21878725E-01 0.41142426E+03</pdfrwt>
<totfact> 0.18693521E+03</totfact>
</mgrwt>
</event>
<event>
 4    1  0.1545327E-005  0.5204592E+03  0.7818608E-02  0.1008573E+00
         -1   -1    0    0    0  501 -0.00000000000E+00  0.00000000000E+00  0.25658913016E+03  0.25658913021E+03  0.50400000000E-02 0. -1.
          1   -1    0    0  501    0  0.00000000000E+00 -0.00000000000E+00 -0.26392167493E+03  0.26392167498E+03  0.50400000000E-02 0.  1.
    5000001    1    1    2    0    0 -0.83130233691E+02  0.11814410188E+03  0.10361397942E+03  0.25874412321E+03  0.18800000000E+03 0.  0.
   -5000001    1    1    2    0    0  0.83130233691E+02 -0.11814410188E+03 -0.11094652419E+03  0.26176668198E+03  0.18800000000E+03 0.  0.
<mgrwt>
<rscale>  0 0.52045916E+03</rscale>
<asrwt>0</asrwt>
<pdfrwt beam="1">  1        1 0.37703096E-01 0.52045916E+03</pdfrwt>
<pdfrwt beam="2">  1       -1 0.36655590E-01 0.52045916E+03</pdfrwt>
<totfact> 0.81878015E+02</totfact>
</mgrwt>
</event>
<event>
 4    1  0.1545327E-005  0.1067283E+04  0.7818608E-02  0.9237680E-01
         -1   -1    0    0    0  501 -0.00000000000E+00  0.00000000000E+00  0.50305108803E+03  0.50305108805E+03  0.50400000000E-02 0. -1.
          1   -1    0    0  501    0  0.00000000000E+00 -0.00000000000E+00 -0.56609252215E+03  0.56609252217E+03  0.50400000000E-02 0.  1.
    5000001    1    1    2    0    0  0.38712825198E+03 -0.30519201827E+03  0.48737635835E+02  0.52983941779E+03  0.18800000000E+03 0.  0.
   -5000001    1    1    2    0    0 -0.38712825198E+03  0.30519201827E+03 -0.11177906996E+03  0.53930419243E+03  0.18800000000E+03 0.  0.
<mgrwt>
<rscale>  0 0.10672834E+04</rscale>
<asrwt>0</asrwt>
<pdfrwt beam="1">  1        1 0.80870360E-01 0.10672834E+04</pdfrwt>
<pdfrwt beam="2">  1       -1 0.71864442E-01 0.10672834E+04</pdfrwt>
<totfact> 0.80759362E+01</totfact>
</mgrwt>
</event>
<event>
 4    1  0.1545327E-005  0.1108503E+04  0.7818608E-02  0.9196944E-01
         -1   -1    0    0    0  501 -0.00000000000E+00  0.00000000000E+00  0.17844095209E+03  0.17844095216E+03  0.50400000000E-02 0. -1.
          1   -1    0    0  501    0  0.00000000000E+00 -0.00000000000E+00 -0.17215473385E+04  0.17215473385E+04  0.50400000000E-02 0.  1.
    5000001    1    1    2    0    0  0.12120029030E+03  0.49328573969E+03 -0.97312446783E+03  0.11137035338E+04  0.18800000000E+03 0.  0.
   -5000001    1    1    2    0    0 -0.12120029030E+03 -0.49328573969E+03 -0.56998191857E+03  0.78628475685E+03  0.18800000000E+03 0.  0.
<mgrwt>
<rscale>  0 0.11085027E+04</rscale>
<asrwt>0</asrwt>
<pdfrwt beam="1">  1        1 0.24593532E+00 0.11085027E+04</pdfrwt>
<pdfrwt beam="2">  1       -1 0.25491566E-01 0.11085027E+04</pdfrwt>
<totfact> 0.75443167E+01</totfact>
</mgrwt>
</event>
<event>
 4    1  0.1545327E-005  0.4967440E+03  0.7818608E-02  0.1014632E+00
         -1   -1    0    0    0  501 -0.00000000000E+00  0.00000000000E+00  0.91810982862E+02  0.91810983000E+02  0.50400000000E-02 0. -1.
          1   -1    0    0  501    0  0.00000000000E+00 -0.00000000000E+00 -0.67190929167E+03  0.67190929169E+03  0.50400000000E-02 0.  1.
    5000001    1    1    2    0    0 -0.12051142820E+03  0.10849472806E+03 -0.27911894051E+03  0.37355788480E+03  0.18800000000E+03 0.  0.
   -5000001    1    1    2    0    0  0.12051142820E+03 -0.10849472806E+03 -0.30097936830E+03  0.39016238989E+03  0.18800000000E+03 0.  0.
<mgrwt>
<rscale>  0 0.49674401E+03</rscale>
<asrwt>0</asrwt>
<pdfrwt beam="1">  1        1 0.95987039E-01 0.49674401E+03</pdfrwt>
<pdfrwt beam="2">  1       -1 0.13115855E-01 0.49674401E+03</pdfrwt>
<totfact> 0.13272486E+03</totfact>
</mgrwt>
</event>
<event>
 4    1  0.1545327E-005  0.4892624E+03  0.7818608E-02  0.1016620E+00
          1   -1    0    0  501    0  0.00000000000E+00  0.00000000000E+00  0.10069835991E+04  0.10069835992E+04  0.50400000000E-02 0.  1.
         -1   -1    0    0    0  501 -0.00000000000E+00 -0.00000000000E+00 -0.59429389712E+02  0.59429389925E+02  0.50400000000E-02 0. -1.
    5000001    1    1    2    0    0  0.14856817530E+03  0.31183957891E+02  0.55693175803E+03  0.60709301186E+03  0.18800000000E+03 0.  0.
   -5000001    1    1    2    0    0 -0.14856817530E+03 -0.31183957891E+02  0.39062245140E+03  0.45931997723E+03  0.18800000000E+03 0.  0.
<mgrwt>
<rscale>  0 0.48926239E+03</rscale>
<asrwt>0</asrwt>
<pdfrwt beam="1">  1        1 0.14385480E+00 0.48926239E+03</pdfrwt>
<pdfrwt beam="2">  1       -1 0.84899129E-02 0.48926239E+03</pdfrwt>
<totfact> 0.14061836E+03</totfact>
</mgrwt>
</event>
<event>
 4    1  0.1545327E-005  0.4951976E+03  0.7818608E-02  0.1015040E+00
          1   -1    0    0  501    0  0.00000000000E+00  0.00000000000E+00  0.13923606491E+03  0.13923606500E+03  0.50400000000E-02 0.  1.
         -1   -1    0    0    0  501 -0.00000000000E+00 -0.00000000000E+00 -0.44029651564E+03  0.44029651567E+03  0.50400000000E-02 0. -1.
    5000001    1    1    2    0    0  0.12413976261E+03 -0.82711706443E+02 -0.22180605091E+03  0.32679325462E+03  0.18800000000E+03 0.  0.
   -5000001    1    1    2    0    0 -0.12413976261E+03  0.82711706443E+02 -0.79254399824E+02  0.25273932606E+03  0.18800000000E+03 0.  0.
<mgrwt>
<rscale>  0 0.49519755E+03</rscale>
<asrwt>0</asrwt>
<pdfrwt beam="1">  1        1 0.19890867E-01 0.49519755E+03</pdfrwt>
<pdfrwt beam="2">  1       -1 0.62899502E-01 0.49519755E+03</pdfrwt>
<totfact> 0.68300644E+02</totfact>
</mgrwt>
</event>
<event>
 4    1  0.1545327E-005  0.9856533E+03  0.7818608E-02  0.9324421E-01
          1   -1    0    0  501    0  0.00000000000E+00  0.00000000000E+00  0.13142575850E+04  0.13142575850E+04  0.50400000000E-02 0.  1.
         -1   -1    0    0    0  501 -0.00000000000E+00 -0.00000000000E+00 -0.18480250835E+03  0.18480250842E+03  0.50400000000E-02 0. -1.
    5000001    1    1    2    0    0  0.18681953740E+03  0.39762793873E+03  0.38143420080E+03  0.61142911834E+03  0.18800000000E+03 0.  0.
   -5000001    1    1    2    0    0 -0.18681953740E+03 -0.39762793873E+03  0.74802087584E+03  0.88763097508E+03  0.18800000000E+03 0.  0.
<mgrwt>
<rscale>  0 0.98565328E+03</rscale>
<asrwt>0</asrwt>
<pdfrwt beam="1">  1        1 0.18775109E+00 0.98565328E+03</pdfrwt>
<pdfrwt beam="2">  1       -1 0.26400358E-01 0.98565328E+03</pdfrwt>
<totfact> 0.13187239E+02</totfact>
</mgrwt>
</event>
<event>
 4    1  0.1545327E-005  0.5872629E+03  0.7818608E-02  0.9932190E-01
         -1   -1    0    0    0  501 -0.00000000000E+00  0.00000000000E+00  0.15222983182E+03  0.15222983190E+03  0.50400000000E-02 0. -1.
          1   -1    0    0  501    0  0.00000000000E+00 -0.00000000000E+00 -0.56637667863E+03  0.56637667865E+03  0.50400000000E-02 0.  1.
    5000001    1    1    2    0    0  0.13154590677E+03 -0.10808290832E+03 -0.38811294438E+03  0.46363983678E+03  0.18800000000E+03 0.  0.
   -5000001    1    1    2    0    0 -0.13154590677E+03  0.10808290832E+03 -0.26033902435E+02  0.25496667377E+03  0.18800000000E+03 0.  0.
<mgrwt>
<rscale>  0 0.58726289E+03</rscale>
<asrwt>0</asrwt>
<pdfrwt beam="1">  1        1 0.80910953E-01 0.58726289E+03</pdfrwt>
<pdfrwt beam="2">  1       -1 0.21747119E-01 0.58726289E+03</pdfrwt>
<totfact> 0.73854149E+02</totfact>
</mgrwt>
</event>
<event>
 4    1  0.1545327E-005  0.5925110E+03  0.7818608E-02  0.9921066E-01
         -1   -1    0    0    0  501 -0.00000000000E+00  0.00000000000E+00  0.10140236537E+03  0.10140236549E+03  0.50400000000E-02 0. -1.
          1   -1    0    0  501    0  0.00000000000E+00 -0.00000000000E+00 -0.86553525342E+03  0.86553525343E+03  0.50400000000E-02 0.  1.
    5000001    1    1    2    0    0 -0.11189756518E+03 -0.19040933234E+03 -0.48061328681E+03  0.56134651544E+03  0.18800000000E+03 0.  0.
   -5000001    1    1    2    0    0  0.11189756518E+03  0.19040933234E+03 -0.28351960124E+03  0.40559110349E+03  0.18800000000E+03 0.  0.
<mgrwt>
<rscale>  0 0.59251100E+03</rscale>
<asrwt>0</asrwt>
<pdfrwt beam="1">  1        1 0.12364789E+00 0.59251100E+03</pdfrwt>
<pdfrwt beam="2">  1       -1 0.14486053E-01 0.59251100E+03</pdfrwt>
<totfact> 0.77127087E+02</totfact>
</mgrwt>
</event>
<event>
 4    1  0.1545327E-005  0.9726836E+03  0.7818608E-02  0.9339023E-01
          1   -1    0    0  501    0  0.00000000000E+00  0.00000000000E+00  0.31743308434E+03  0.31743308438E+03  0.50400000000E-02 0.  1.
         -1   -1    0    0    0  501 -0.00000000000E+00 -0.00000000000E+00 -0.74512819661E+03  0.74512819663E+03  0.50400000000E-02 0. -1.
    5000001    1    1    2    0    0  0.32082563747E+03 -0.76403545231E+02 -0.54594084070E+03  0.66495262457E+03  0.18800000000E+03 0.  0.
   -5000001    1    1    2    0    0 -0.32082563747E+03  0.76403545231E+02  0.11824572842E+03  0.39760865644E+03  0.18800000000E+03 0.  0.
<mgrwt>
<rscale>  0 0.97268359E+03</rscale>
<asrwt>0</asrwt>
<pdfrwt beam="1">  1        1 0.45347584E-01 0.97268359E+03</pdfrwt>
<pdfrwt beam="2">  1       -1 0.10644688E+00 0.97268359E+03</pdfrwt>
<totfact> 0.74310332E+01</totfact>
</mgrwt>
</event>
<event>
 4    1  0.1545327E-005  0.6356914E+03  0.7818608E-02  0.9834005E-01
         -1   -1    0    0    0  501 -0.00000000000E+00  0.00000000000E+00  0.24298646582E+03  0.24298646587E+03  0.50400000000E-02 0.  1.
          1   -1    0    0  501    0  0.00000000000E+00 -0.00000000000E+00 -0.41576749268E+03  0.41576749272E+03  0.50400000000E-02 0. -1.
    5000001    1    1    2    0    0 -0.22483737591E+03  0.63105805229E+02 -0.19580360438E+03  0.35807434947E+03  0.18800000000E+03 0.  0.
   -5000001    1    1    2    0    0  0.22483737591E+03 -0.63105805229E+02  0.23022577512E+02  0.30067960911E+03  0.18800000000E+03 0.  0.
<mgrwt>
<rscale>  0 0.63569135E+03</rscale>
<asrwt>0</asrwt>
<pdfrwt beam="1">  1        1 0.59395356E-01 0.63569135E+03</pdfrwt>
<pdfrwt beam="2">  1       -1 0.34712352E-01 0.63569135E+03</pdfrwt>
<totfact> 0.50013279E+02</totfact>
</mgrwt>
</event>
<event>
 4    1  0.1545327E-005  0.6505603E+03  0.7818608E-02  0.9805728E-01
         -1   -1    0    0    0  501 -0.00000000000E+00  0.00000000000E+00  0.42532363901E+03  0.42532363904E+03  0.50400000000E-02 0. -1.
          1   -1    0    0  501    0  0.00000000000E+00 -0.00000000000E+00 -0.24876863912E+03  0.24876863917E+03  0.50400000000E-02 0.  1.
    5000001    1    1    2    0    0  0.48722259188E+02 -0.25986190850E+03  0.11282215267E+03  0.34347475622E+03  0.18800000000E+03 0.  0.
   -5000001    1    1    2    0    0 -0.48722259188E+02  0.25986190850E+03  0.63732847212E+02  0.33061752199E+03  0.18800000000E+03 0.  0.
<mgrwt>
<rscale>  0 0.65056032E+03</rscale>
<asrwt>0</asrwt>
<pdfrwt beam="1">  1        1 0.35538377E-01 0.65056032E+03</pdfrwt>
<pdfrwt beam="2">  1       -1 0.60760520E-01 0.65056032E+03</pdfrwt>
<totfact> 0.34285579E+02</totfact>
</mgrwt>
</event>
<event>
 4    1  0.1545327E-005  0.9824308E+03  0.7818608E-02  0.9328027E-01
          1   -1    0    0  501    0  0.00000000000E+00  0.00000000000E+00  0.59795199545E+03  0.59795199547E+03  0.50400000000E-02 0.  1.
         -1   -1    0    0    0  501 -0.00000000000E+00 -0.00000000000E+00 -0.40353167672E+03  0.40353167675E+03  0.50400000000E-02 0. -1.
    5000001    1    1    2    0    0 -0.33156595165E+03 -0.19726869439E+03  0.34079543438E+03  0.54802960337E+03  0.18800000000E+03 0.  0.
   -5000001    1    1    2    0    0  0.33156595165E+03  0.19726869439E+03 -0.14637511565E+03  0.45345406885E+03  0.18800000000E+03 0.  0.
<mgrwt>
<rscale>  0 0.98243080E+03</rscale>
<asrwt>0</asrwt>
<pdfrwt beam="1">  1        1 0.85421713E-01 0.98243080E+03</pdfrwt>
<pdfrwt beam="2">  1       -1 0.57647383E-01 0.98243080E+03</pdfrwt>
<totfact> 0.11709319E+02</totfact>
</mgrwt>
</event>
<event>
 4    1  0.1545327E-005  0.8024909E+03  0.7818608E-02  0.9556419E-01
         -1   -1    0    0    0  501 -0.00000000000E+00  0.00000000000E+00  0.24132272599E+03  0.24132272605E+03  0.50400000000E-02 0. -1.
          1   -1    0    0  501    0  0.00000000000E+00 -0.00000000000E+00 -0.66714777024E+03  0.66714777026E+03  0.50400000000E-02 0.  1.
    5000001    1    1    2    0    0 -0.31418590108E+03 -0.83013338480E+02 -0.37321013844E+03  0.52937113846E+03  0.18800000000E+03 0.  0.
   -5000001    1    1    2    0    0  0.31418590108E+03  0.83013338480E+02 -0.52614905801E+02  0.37909935784E+03  0.18800000000E+03 0.  0.
<mgrwt>
<rscale>  0 0.80249092E+03</rscale>
<asrwt>0</asrwt>
<pdfrwt beam="1">  1        1 0.95306824E-01 0.80249092E+03</pdfrwt>
<pdfrwt beam="2">  1       -1 0.34474675E-01 0.80249092E+03</pdfrwt>
<totfact> 0.26293981E+02</totfact>
</mgrwt>
</event>
<event>
 4    1  0.1545327E-005  0.4426078E+03  0.7818608E-02  0.1029950E+00
         -1   -1    0    0    0  501 -0.00000000000E+00  0.00000000000E+00  0.20646430750E+03  0.20646430756E+03  0.50400000000E-02 0. -1.
          1   -1    0    0  501    0  0.00000000000E+00 -0.00000000000E+00 -0.23721010502E+03  0.23721010507E+03  0.50400000000E-02 0.  1.
    5000001    1    1    2    0    0 -0.57445028039E+02 -0.79766320479E+02 -0.78523307481E+02  0.22621341018E+03  0.18800000000E+03 0.  0.
   -5000001    1    1    2    0    0  0.57445028039E+02  0.79766320479E+02  0.47777509961E+02  0.21746100245E+03  0.18800000000E+03 0.  0.
<mgrwt>
<rscale>  0 0.44260782E+03</rscale>
<asrwt>0</asrwt>
<pdfrwt beam="1">  1        1 0.33887158E-01 0.44260782E+03</pdfrwt>
<pdfrwt beam="2">  1       -1 0.29494901E-01 0.44260782E+03</pdfrwt>
<totfact> 0.13724540E+03</totfact>
</mgrwt>
</event>
