<event>
 8    1  0.1206249E-029  0.1446224E+04  0.7818608E-02  0.8921022E-01
         -3   -1    0    0    0  501 -0.00000000000E+00  0.00000000000E+00  0.92229479786E+03  0.92229480339E+03  0.10100000000E+00 0. -1.
          3   -1    0    0  501    0  0.00000000000E+00 -0.00000000000E+00 -0.56694585747E+03  0.56694586647E+03  0.10100000000E+00 0.  1.
     200001    2    1    2    0    0  0.53474726409E+02  0.13423537158E+03  0.64376999084E+02  0.71752611643E+03  0.69987187999E+03 0.  0.
    5000001    2    3    3    0    0 -0.28499107357E+02 -0.13221644805E+02 -0.33344796151E+02  0.18085784798E+03  0.17495906588E+03 0.  0.
        -13    1    4    4    0    0  0.48708541152E+02  0.15642350678E+02  0.41245860833E+02  0.65714818084E+02  0.10566000000E+00 0. -1.
     200003    1    4    4    0    0 -0.77207648509E+02 -0.28863995483E+02 -0.74590656984E+02  0.11514302989E+03  0.30000000000E+02 0. -1.
     200000    1    3    3    0    0  0.81973833766E+02  0.14745701638E+03  0.97721795235E+02  0.53666826846E+03  0.50000000000E+03 0. -1.
    -200001    1    1    2    0    0 -0.53474726409E+02 -0.13423537158E+03  0.29097194131E+03  0.77171455343E+03  0.70000000000E+03 0. -1.
<mgrwt>
<rscale>  0 0.14462244E+04</rscale>
<asrwt>0</asrwt>
<pdfrwt beam="1">  1        3 0.80992267E-01 0.14462244E+04</pdfrwt>
<pdfrwt beam="2">  1       -3 0.13175640E+00 0.14462244E+04</pdfrwt>
<totfact> 0.16231999E+00</totfact>
</mgrwt>
</event>
<event>
 8    1  0.1206249E-029  0.1450890E+04  0.7818608E-02  0.8917784E-01
         -3   -1    0    0    0  501 -0.00000000000E+00  0.00000000000E+00  0.76229060270E+03  0.76229060939E+03  0.10100000000E+00 0. -1.
          3   -1    0    0  501    0  0.00000000000E+00 -0.00000000000E+00 -0.69038041392E+03  0.69038042130E+03  0.10100000000E+00 0.  1.
     200001    2    1    2    0    0 -0.10551410764E+03 -0.11391914680E+03  0.14587778730E+03  0.73185066156E+03  0.70015302833E+03 0.  0.
    5000001    2    3    3    0    0 -0.51035189435E+02 -0.18367494034E+02  0.57131021139E+02  0.21226038127E+03  0.19710038174E+03 0.  0.
        -13    1    4    4    0    0 -0.41311712191E+02 -0.10303836156E+03  0.49616878733E+02  0.12159526034E+03  0.10566000000E+00 0. -1.
     200003    1    4    4    0    0 -0.97234772441E+01  0.84670867525E+02  0.75141424063E+01  0.90665120930E+02  0.30000000000E+02 0. -1.
     200000    1    3    3    0    0 -0.54478918207E+02 -0.95551652770E+02  0.88746766159E+02  0.51959028030E+03  0.50000000000E+03 0.  1.
    -200001    1    1    2    0    0  0.10551410764E+03  0.11391914680E+03 -0.73967598519E+02  0.72082036913E+03  0.70000000000E+03 0.  1.
<mgrwt>
<rscale>  0 0.14508901E+04</rscale>
<asrwt>0</asrwt>
<pdfrwt beam="1">  1        3 0.98625774E-01 0.14508901E+04</pdfrwt>
<pdfrwt beam="2">  1       -3 0.10889866E+00 0.14508901E+04</pdfrwt>
<totfact> 0.16487639E+00</totfact>
</mgrwt>
</event>
<event>
 8    1  0.1206249E-029  0.1650770E+04  0.7818608E-02  0.8789951E-01
         -3   -1    0    0    0  501 -0.00000000000E+00  0.00000000000E+00  0.40734511955E+03  0.40734513207E+03  0.10100000000E+00 0.  1.
          3   -1    0    0  501    0  0.00000000000E+00 -0.00000000000E+00 -0.16724400098E+04  0.16724400128E+04  0.10100000000E+00 0. -1.
     200001    2    1    2    0    0  0.33516595228E+03  0.26477707438E+03 -0.51689983727E+03  0.96972255569E+03  0.70052357460E+03 0.  0.
    5000001    2    3    3    0    0  0.15061062282E+03  0.78417554379E+02 -0.12320360244E+03  0.28140049034E+03  0.18754795592E+03 0.  0.
        -13    1    4    4    0    0  0.14743343271E+03 -0.37679912253E+01 -0.24564578973E+02  0.14951335908E+03  0.10566000000E+00 0. -1.
     200003    1    4    4    0    0  0.31771901082E+01  0.82185545604E+02 -0.98639023463E+02  0.13188713126E+03  0.30000000000E+02 0. -1.
     200000    1    3    3    0    0  0.18455532946E+03  0.18635952000E+03 -0.39369623483E+03  0.68832206535E+03  0.50000000000E+03 0. -1.
    -200001    1    1    2    0    0 -0.33516595228E+03 -0.26477707438E+03 -0.74819505294E+03  0.11100625892E+04  0.70000000000E+03 0. -1.
<mgrwt>
<rscale>  0 0.16507699E+04</rscale>
<asrwt>0</asrwt>
<pdfrwt beam="1">  1        3 0.23892000E+00 0.16507699E+04</pdfrwt>
<pdfrwt beam="2">  1       -3 0.58192162E-01 0.16507699E+04</pdfrwt>
<totfact> 0.62447419E-01</totfact>
</mgrwt>
</event>
<event>
 8    1  0.1206249E-029  0.1501861E+04  0.7818608E-02  0.8883216E-01
         -3   -1    0    0    0  501 -0.00000000000E+00  0.00000000000E+00  0.31639230870E+03  0.31639232482E+03  0.10100000000E+00 0. -1.
          3   -1    0    0  501    0  0.00000000000E+00 -0.00000000000E+00 -0.17822699329E+04  0.17822699357E+04  0.10100000000E+00 0.  1.
     200001    2    1    2    0    0 -0.23166712753E+03 -0.82271331897E+02 -0.57151577521E+03  0.93662897922E+03  0.70014665133E+03 0.  0.
    5000001    2    3    3    0    0 -0.76271497433E+02 -0.21918081932E+02 -0.15046623069E+03  0.26203796565E+03  0.19931398654E+03 0.  0.
        -13    1    4    4    0    0  0.42107638410E+01 -0.83511437711E+02 -0.12970900035E+03  0.15432539226E+03  0.10566000000E+00 0. -1.
     200003    1    4    4    0    0 -0.80482261274E+02  0.61593355779E+02 -0.20757230338E+02  0.10771257339E+03  0.30000000000E+02 0. -1.
     200000    1    3    3    0    0 -0.15539563010E+03 -0.60353249964E+02 -0.42104954452E+03  0.67459101356E+03  0.50000000000E+03 0. -1.
    -200001    1    1    2    0    0  0.23166712753E+03  0.82271331897E+02 -0.89436184895E+03  0.11620332813E+04  0.70000000000E+03 0.  1.
<mgrwt>
<rscale>  0 0.15018609E+04</rscale>
<asrwt>0</asrwt>
<pdfrwt beam="1">  1        3 0.25460999E+00 0.15018609E+04</pdfrwt>
<pdfrwt beam="2">  1       -3 0.45198903E-01 0.15018609E+04</pdfrwt>
<totfact> 0.86311048E-01</totfact>
</mgrwt>
</event>
<event>
 8    1  0.1206249E-029  0.1581712E+04  0.7818608E-02  0.8831862E-01
         -3   -1    0    0    0  501 -0.00000000000E+00  0.00000000000E+00  0.69204363984E+03  0.69204364721E+03  0.10100000000E+00 0. -1.
          3   -1    0    0  501    0  0.00000000000E+00 -0.00000000000E+00 -0.90377753680E+03  0.90377754244E+03  0.10100000000E+00 0.  1.
     200001    2    1    2    0    0  0.35878032283E+03 -0.83915712904E+02 -0.10172793718E+03  0.79715575399E+03  0.69953095428E+03 0.  0.
    5000001    2    3    3    0    0 -0.28920706181E+01 -0.26158284114E+02 -0.63593773789E+02  0.17619113730E+03  0.16219287561E+03 0.  0.
        -13    1    4    4    0    0  0.73808442811E+02  0.90699465583E+01 -0.22947076450E+02  0.77823708743E+02  0.10566000000E+00 0. -1.
     200003    1    4    4    0    0 -0.76700513430E+02 -0.35228230673E+02 -0.40646697339E+02  0.98367428559E+02  0.30000000000E+02 0. -1.
     200000    1    3    3    0    0  0.36167239345E+03 -0.57757428789E+02 -0.38134163391E+02  0.62096461669E+03  0.50000000000E+03 0.  1.
    -200001    1    1    2    0    0 -0.35878032283E+03  0.83915712904E+02 -0.11000595978E+03  0.79866543565E+03  0.70000000000E+03 0.  1.
<mgrwt>
<rscale>  0 0.15817124E+04</rscale>
<asrwt>0</asrwt>
<pdfrwt beam="1">  1        3 0.12911108E+00 0.15817124E+04</pdfrwt>
<pdfrwt beam="2">  1       -3 0.98863379E-01 0.15817124E+04</pdfrwt>
<totfact> 0.10743000E+00</totfact>
</mgrwt>
</event>
<event>
 8    1  0.1206249E-029  0.1599407E+04  0.7818608E-02  0.8820913E-01
          3   -1    0    0  501    0  0.00000000000E+00  0.00000000000E+00  0.23898530921E+04  0.23898530942E+04  0.10100000000E+00 0.  1.
         -3   -1    0    0    0  501 -0.00000000000E+00 -0.00000000000E+00 -0.26760027763E+03  0.26760029669E+03  0.10100000000E+00 0. -1.
     200001    2    1    2    0    0  0.38962605091E+02  0.29426008717E+03  0.64952178282E+03  0.10000325708E+04  0.70005679251E+03 0.  0.
    5000001    2    3    3    0    0  0.91995074871E+00  0.12822153760E+03  0.24805153919E+03  0.33656109435E+03  0.18788878392E+03 0.  0.
        -13    1    4    4    0    0  0.66849080716E+02  0.11021645024E+03  0.22346315025E+03  0.25797723965E+03  0.10566000000E+00 0. -1.
     200003    1    4    4    0    0 -0.65929129967E+02  0.18005087364E+02  0.24588388947E+02  0.78583854705E+02  0.30000000000E+02 0. -1.
     200000    1    3    3    0    0  0.38042654343E+02  0.16603854957E+03  0.40147024363E+03  0.66347147641E+03  0.50000000000E+03 0. -1.
    -200001    1    1    2    0    0 -0.38962605091E+02 -0.29426008717E+03  0.14727310316E+04  0.16574208201E+04  0.70000000000E+03 0.  1.
<mgrwt>
<rscale>  0 0.15994066E+04</rscale>
<asrwt>0</asrwt>
<pdfrwt beam="1">  1        3 0.34140758E+00 0.15994066E+04</pdfrwt>
<pdfrwt beam="2">  1       -3 0.38228613E-01 0.15994066E+04</pdfrwt>
<totfact> 0.39617741E-01</totfact>
</mgrwt>
</event>
<event>
 8    1  0.1206249E-029  0.2598332E+04  0.7818608E-02  0.8368768E-01
         -3   -1    0    0    0  501 -0.00000000000E+00  0.00000000000E+00  0.13156504046E+04  0.13156504085E+04  0.10100000000E+00 0. -1.
          3   -1    0    0  501    0  0.00000000000E+00 -0.00000000000E+00 -0.12828878020E+04  0.12828878060E+04  0.10100000000E+00 0.  1.
     200001    2    1    2    0    0  0.53805271057E+03 -0.83072968485E+03  0.48347126329E+03  0.13051895278E+04  0.70011621349E+03 0.  0.
    5000001    2    3    3    0    0  0.15060576112E+03 -0.25031980865E+03  0.74219655897E+02  0.35414923360E+03  0.18593283855E+03 0.  0.
        -13    1    4    4    0    0  0.90425000438E+02 -0.49367605733E+02 -0.43398152486E+02  0.11179110878E+03  0.10566000000E+00 0. -1.
     200003    1    4    4    0    0  0.60180760680E+02 -0.20095220292E+03  0.11761780838E+03  0.24235812481E+03  0.30000000000E+02 0. -1.
     200000    1    3    3    0    0  0.38744694945E+03 -0.58040987620E+03  0.40925160739E+03  0.95104029420E+03  0.50000000000E+03 0. -1.
    -200001    1    1    2    0    0 -0.53805271057E+03  0.83072968485E+03 -0.45070866064E+03  0.12933486867E+04  0.70000000000E+03 0.  1.
<mgrwt>
<rscale>  0 0.25983317E+04</rscale>
<asrwt>0</asrwt>
<pdfrwt beam="1">  1        3 0.18326969E+00 0.25983317E+04</pdfrwt>
<pdfrwt beam="2">  1       -3 0.18795006E+00 0.25983317E+04</pdfrwt>
<totfact> 0.76898004E-02</totfact>
</mgrwt>
</event>
<event>
 8    1  0.1206249E-029  0.1636690E+04  0.7818608E-02  0.8798320E-01
          3   -1    0    0  501    0  0.00000000000E+00  0.00000000000E+00  0.19212609155E+04  0.19212609181E+04  0.10100000000E+00 0. -1.
         -3   -1    0    0    0  501 -0.00000000000E+00 -0.00000000000E+00 -0.34856702103E+03  0.34856703566E+03  0.10100000000E+00 0.  1.
     200001    2    1    2    0    0  0.49858543729E+02  0.13455357307E+03  0.23391465638E+03  0.75229034743E+03  0.70045282637E+03 0.  0.
    5000001    2    3    3    0    0  0.59823225036E+02 -0.63802519740E+02  0.37387732744E+02  0.17951878202E+03  0.15224838508E+03 0.  0.
        -13    1    4    4    0    0  0.54189108605E+02 -0.89372068128E+02 -0.23158682373E+02  0.10705214517E+03  0.10566000000E+00 0. -1.
     200003    1    4    4    0    0  0.56341164304E+01  0.25569548388E+02  0.60546415117E+02  0.72466636849E+02  0.30000000000E+02 0. -1.
     200000    1    3    3    0    0 -0.99646813070E+01  0.19835609281E+03  0.19652692364E+03  0.57277156541E+03  0.50000000000E+03 0.  1.
    -200001    1    1    2    0    0 -0.49858543729E+02 -0.13455357307E+03  0.13387792380E+04  0.15175376063E+04  0.70000000000E+03 0. -1.
<mgrwt>
<rscale>  0 0.16366896E+04</rscale>
<asrwt>0</asrwt>
<pdfrwt beam="1">  1        3 0.27446584E+00 0.16366896E+04</pdfrwt>
<pdfrwt beam="2">  1       -3 0.49795290E-01 0.16366896E+04</pdfrwt>
<totfact> 0.54158373E-01</totfact>
</mgrwt>
</event>
<event>
 8    1  0.1206249E-029  0.1668894E+04  0.7818608E-02  0.8779307E-01
         -3   -1    0    0    0  501 -0.00000000000E+00  0.00000000000E+00  0.67101646479E+03  0.67101647239E+03  0.10100000000E+00 0.  1.
          3   -1    0    0  501    0  0.00000000000E+00 -0.00000000000E+00 -0.10376817097E+04  0.10376817146E+04  0.10100000000E+00 0. -1.
     200001    2    1    2    0    0 -0.41220336475E+03 -0.51161458478E+02 -0.37115605045E+03  0.89472688772E+03  0.70017874938E+03 0.  0.
    5000001    2    3    3    0    0 -0.16825049694E+03 -0.21328958509E+02 -0.10441537539E+02  0.23101163282E+03  0.15650621266E+03 0.  0.
        -13    1    4    4    0    0 -0.12437313218E+03  0.54783021218E+02  0.88577126894E+01  0.13619223788E+03  0.10566000000E+00 0. -1.
     200003    1    4    4    0    0 -0.43877364759E+02 -0.76111979727E+02 -0.19299250228E+02  0.94819394934E+02  0.30000000000E+02 0. -1.
     200000    1    3    3    0    0 -0.24395286781E+03 -0.29832499969E+02 -0.36071451291E+03  0.66371525490E+03  0.50000000000E+03 0. -1.
    -200001    1    1    2    0    0  0.41220336475E+03  0.51161458478E+02  0.44908055206E+01  0.81397129930E+03  0.70000000000E+03 0.  1.
<mgrwt>
<rscale>  0 0.16688937E+04</rscale>
<asrwt>0</asrwt>
<pdfrwt beam="1">  1        3 0.14824025E+00 0.16688937E+04</pdfrwt>
<pdfrwt beam="2">  1       -3 0.95859495E-01 0.16688937E+04</pdfrwt>
<totfact> 0.80817173E-01</totfact>
</mgrwt>
</event>
<event>
 8    1  0.1206249E-029  0.1401401E+04  0.7818608E-02  0.8952805E-01
          3   -1    0    0  501    0  0.00000000000E+00  0.00000000000E+00  0.10409995080E+04  0.10409995129E+04  0.10100000000E+00 0.  1.
         -3   -1    0    0    0  501 -0.00000000000E+00 -0.00000000000E+00 -0.47164411082E+03  0.47164412163E+03  0.10100000000E+00 0. -1.
     200001    2    1    2    0    0 -0.20500895265E+02  0.34695448480E+02  0.31256019626E+03  0.76593898338E+03  0.69810070128E+03 0.  0.
    5000001    2    3    3    0    0 -0.25627897766E+02 -0.56721456136E+02  0.12471791744E+03  0.22402749770E+03  0.17538428682E+03 0.  0.
        -13    1    4    4    0    0 -0.83533158952E+02 -0.65400389372E+02  0.11675804752E+03  0.15775757477E+03  0.10566000000E+00 0. -1.
     200003    1    4    4    0    0  0.57905261185E+02  0.86789332363E+01  0.79598699265E+01  0.66269922923E+02  0.30000000000E+02 0. -1.
     200000    1    3    3    0    0  0.51270025016E+01  0.91416904616E+02  0.18784227882E+03  0.54191148568E+03  0.50000000000E+03 0.  1.
    -200001    1    1    2    0    0  0.20500895265E+02 -0.34695448480E+02  0.25679520095E+03  0.74670465117E+03  0.70000000000E+03 0.  1.
<mgrwt>
<rscale>  0 0.14014012E+04</rscale>
<asrwt>0</asrwt>
<pdfrwt beam="1">  1        3 0.14871422E+00 0.14014012E+04</pdfrwt>
<pdfrwt beam="2">  1       -3 0.67377731E-01 0.14014012E+04</pdfrwt>
<totfact> 0.17972772E+00</totfact>
</mgrwt>
</event>
<event>
 8    1  0.1206249E-029  0.1636031E+04  0.7818608E-02  0.8798713E-01
          3   -1    0    0  501    0  0.00000000000E+00  0.00000000000E+00  0.64356279062E+03  0.64356279854E+03  0.10100000000E+00 0. -1.
         -3   -1    0    0    0  501 -0.00000000000E+00 -0.00000000000E+00 -0.10397580579E+04  0.10397580628E+04  0.10100000000E+00 0.  1.
     200001    2    1    2    0    0 -0.79340242061E+02 -0.89098163724E+02 -0.61237099466E+03  0.94105049158E+03  0.70451716502E+03 0.  0.
    5000001    2    3    3    0    0 -0.47885001142E+02 -0.15487863924E+03 -0.16219588439E+03  0.26431263018E+03  0.13142790926E+03 0.  0.
        -13    1    4    4    0    0  0.86758856903E+01 -0.54468906909E+02  0.88844911364E+01  0.55866610415E+02  0.10566000000E+00 0. -1.
     200003    1    4    4    0    0 -0.56560886833E+02 -0.10040973233E+03 -0.17108037553E+03  0.20844601977E+03  0.30000000000E+02 0. -1.
     200000    1    3    3    0    0 -0.31455240918E+02  0.65780475511E+02 -0.45017511027E+03  0.67673786139E+03  0.50000000000E+03 0.  1.
    -200001    1    1    2    0    0  0.79340242061E+02  0.89098163724E+02  0.21617572735E+03  0.74227036980E+03  0.70000000000E+03 0. -1.
<mgrwt>
<rscale>  0 0.16360313E+04</rscale>
<asrwt>0</asrwt>
<pdfrwt beam="1">  1        3 0.91937543E-01 0.16360313E+04</pdfrwt>
<pdfrwt beam="2">  1       -3 0.14853687E+00 0.16360313E+04</pdfrwt>
<totfact> 0.88552333E-01</totfact>
</mgrwt>
</event>
<event>
 8    1  0.1206249E-029  0.1428103E+04  0.7818608E-02  0.8933724E-01
          3   -1    0    0  501    0  0.00000000000E+00  0.00000000000E+00  0.24418913630E+03  0.24418915719E+03  0.10100000000E+00 0. -1.
         -3   -1    0    0    0  501 -0.00000000000E+00 -0.00000000000E+00 -0.20880109072E+04  0.20880109097E+04  0.10100000000E+00 0.  1.
     200001    2    1    2    0    0  0.29309900207E+02 -0.43920229469E+02 -0.69885068712E+03  0.98916364160E+03  0.69804324377E+03 0.  0.
    5000001    2    3    3    0    0 -0.86971352255E+02  0.53558693475E+01 -0.30160991771E+03  0.33820304950E+03  0.12577781514E+03 0.  0.
        -13    1    4    4    0    0 -0.68347038781E+02  0.45665526487E+02 -0.25240014247E+03  0.26544773705E+03  0.10566000000E+00 0. -1.
     200003    1    4    4    0    0 -0.18624313474E+02 -0.40309657140E+02 -0.49209775232E+02  0.72755312449E+02  0.30000000000E+02 0. -1.
     200000    1    3    3    0    0  0.11628125246E+03 -0.49276098816E+02 -0.39724076942E+03  0.65096059211E+03  0.50000000000E+03 0. -1.
    -200001    1    1    2    0    0 -0.29309900207E+02  0.43920229469E+02 -0.11449710838E+04  0.13430364252E+04  0.70000000000E+03 0.  1.
<mgrwt>
<rscale>  0 0.14281031E+04</rscale>
<asrwt>0</asrwt>
<pdfrwt beam="1">  1        3 0.34884165E-01 0.14281031E+04</pdfrwt>
<pdfrwt beam="2">  1       -3 0.29828726E+00 0.14281031E+04</pdfrwt>
<totfact> 0.81126907E-01</totfact>
</mgrwt>
</event>
<event>
 8    1  0.1206249E-029  0.1629591E+04  0.7818608E-02  0.8802573E-01
         -3   -1    0    0    0  501 -0.00000000000E+00  0.00000000000E+00  0.37485942064E+03  0.37485943425E+03  0.10100000000E+00 0. -1.
          3   -1    0    0  501    0  0.00000000000E+00 -0.00000000000E+00 -0.17710418981E+04  0.17710419010E+04  0.10100000000E+00 0.  1.
     200001    2    1    2    0    0 -0.22372654825E+03  0.16304711947E+03 -0.11086340048E+04  0.13400961133E+04  0.70010735226E+03 0.  0.
    5000001    2    3    3    0    0  0.51041507883E+01  0.81611332340E+02 -0.32881685546E+03  0.38243747753E+03  0.17734553239E+03 0.  0.
        -13    1    4    4    0    0 -0.40140106524E+02  0.10680254525E+03 -0.12158107804E+03  0.16673326460E+03  0.10566000000E+00 0. -1.
     200003    1    4    4    0    0  0.45244257313E+02 -0.25191212912E+02 -0.20723577742E+03  0.21570421292E+03  0.30000000000E+02 0. -1.
     200000    1    3    3    0    0 -0.22883069904E+03  0.81435787132E+02 -0.77981714932E+03  0.95765863575E+03  0.50000000000E+03 0.  1.
    -200001    1    1    2    0    0  0.22372654825E+03 -0.16304711947E+03 -0.28754847264E+03  0.80580522192E+03  0.70000000000E+03 0. -1.
<mgrwt>
<rscale>  0 0.16295911E+04</rscale>
<asrwt>0</asrwt>
<pdfrwt beam="1">  1        3 0.25300598E+00 0.16295911E+04</pdfrwt>
<pdfrwt beam="2">  1       -3 0.53551348E-01 0.16295911E+04</pdfrwt>
<totfact> 0.61696467E-01</totfact>
</mgrwt>
</event>
<event>
 8    1  0.1206249E-029  0.1658175E+04  0.7818608E-02  0.8785585E-01
         -3   -1    0    0    0  501 -0.00000000000E+00  0.00000000000E+00  0.14709537684E+03  0.14709541152E+03  0.10100000000E+00 0. -1.
          3   -1    0    0  501    0  0.00000000000E+00 -0.00000000000E+00 -0.46730636097E+04  0.46730636108E+04  0.10100000000E+00 0.  1.
     200001    2    1    2    0    0  0.48563538815E+02 -0.27428108353E+03 -0.32710868265E+04  0.33564938030E+04  0.69889419318E+03 0.  0.
    5000001    2    3    3    0    0  0.35233527015E+02 -0.85003344236E+02 -0.10972803289E+04  0.11178695735E+04  0.19272076521E+03 0.  0.
        -13    1    4    4    0    0  0.65477979627E+02  0.13520661263E+02 -0.78129384149E+03  0.78414938119E+03  0.10566000000E+00 0. -1.
     200003    1    4    4    0    0 -0.30244452611E+02 -0.98524005499E+02 -0.31598648737E+03  0.33372019234E+03  0.30000000000E+02 0. -1.
     200000    1    3    3    0    0  0.13330011799E+02 -0.18927773929E+03 -0.21738064976E+04  0.22386242295E+04  0.50000000000E+03 0.  1.
    -200001    1    1    2    0    0 -0.48563538815E+02  0.27428108353E+03 -0.12548814064E+04  0.14636652193E+04  0.70000000000E+03 0. -1.
<mgrwt>
<rscale>  0 0.16581751E+04</rscale>
<asrwt>0</asrwt>
<pdfrwt beam="1">  1        3 0.66758043E+00 0.16581751E+04</pdfrwt>
<pdfrwt beam="2">  1       -3 0.21013631E-01 0.16581751E+04</pdfrwt>
<totfact> 0.27394942E-02</totfact>
</mgrwt>
</event>
<event>
 8    1  0.1206249E-029  0.2263056E+04  0.7818608E-02  0.8492632E-01
         -3   -1    0    0    0  501 -0.00000000000E+00  0.00000000000E+00  0.11835719871E+04  0.11835719914E+04  0.10100000000E+00 0. -1.
          3   -1    0    0  501    0  0.00000000000E+00 -0.00000000000E+00 -0.10817728496E+04  0.10817728543E+04  0.10100000000E+00 0.  1.
     200001    2    1    2    0    0  0.42443872684E+03 -0.16292764347E+03  0.81558500779E+03  0.11670807981E+04  0.70014643788E+03 0.  0.
    5000001    2    3    3    0    0  0.86425297549E+02  0.21508622808E+02  0.20108932584E+03  0.28624326605E+03  0.18321118274E+03 0.  0.
        -13    1    4    4    0    0  0.12911768228E+02  0.69529319809E+02  0.17666194603E+03  0.19029055261E+03  0.10566000000E+00 0. -1.
     200003    1    4    4    0    0  0.73513529321E+02 -0.48020697001E+02  0.24427379811E+02  0.95952713448E+02  0.30000000000E+02 0. -1.
     200000    1    3    3    0    0  0.33801342929E+03 -0.18443626628E+03  0.61449568195E+03  0.88083753203E+03  0.50000000000E+03 0.  1.
    -200001    1    1    2    0    0 -0.42443872684E+03  0.16292764347E+03 -0.71378587027E+03  0.10982640477E+04  0.70000000000E+03 0.  1.
<mgrwt>
<rscale>  0 0.22630564E+04</rscale>
<asrwt>0</asrwt>
<pdfrwt beam="1">  1        3 0.15453898E+00 0.22630564E+04</pdfrwt>
<pdfrwt beam="2">  1       -3 0.16908171E+00 0.22630564E+04</pdfrwt>
<totfact> 0.16818707E-01</totfact>
</mgrwt>
</event>
<event>
 8    1  0.1206249E-029  0.1552299E+04  0.7818608E-02  0.8850400E-01
          3   -1    0    0  501    0  0.00000000000E+00  0.00000000000E+00  0.14897820287E+04  0.14897820321E+04  0.10100000000E+00 0.  1.
         -3   -1    0    0    0  501 -0.00000000000E+00 -0.00000000000E+00 -0.40435997455E+03  0.40435998717E+03  0.10100000000E+00 0. -1.
     200001    2    1    2    0    0  0.18720517556E+02 -0.14140323977E+03  0.17284144000E+03  0.73519909087E+03  0.70021297178E+03 0.  0.
    5000001    2    3    3    0    0 -0.57392251625E+02  0.19310172104E+02 -0.40957808758E+02  0.16306967094E+03  0.14576495528E+03 0.  0.
        -13    1    4    4    0    0 -0.50419082777E+02  0.56390515134E+02 -0.73051592655E+02  0.10515950009E+03  0.10566000000E+00 0. -1.
     200003    1    4    4    0    0 -0.69731688478E+01 -0.37080343030E+02  0.32093783896E+02  0.57910170849E+02  0.30000000000E+02 0. -1.
     200000    1    3    3    0    0  0.76112769181E+02 -0.16071341187E+03  0.21379924876E+03  0.57212941994E+03  0.50000000000E+03 0.  1.
    -200001    1    1    2    0    0 -0.18720517556E+02  0.14140323977E+03  0.91258061413E+03  0.11589429284E+04  0.70000000000E+03 0.  1.
<mgrwt>
<rscale>  0 0.15522992E+04</rscale>
<asrwt>0</asrwt>
<pdfrwt beam="1">  1        3 0.21282601E+00 0.15522992E+04</pdfrwt>
<pdfrwt beam="2">  1       -3 0.57765711E-01 0.15522992E+04</pdfrwt>
<totfact> 0.91451003E-01</totfact>
</mgrwt>
</event>
<event>
 8    1  0.1206249E-029  0.1738886E+04  0.7818608E-02  0.8739492E-01
         -3   -1    0    0    0  501 -0.00000000000E+00  0.00000000000E+00  0.75651703620E+03  0.75651704294E+03  0.10100000000E+00 0. -1.
          3   -1    0    0  501    0  0.00000000000E+00 -0.00000000000E+00 -0.99922575695E+03  0.99922576205E+03  0.10100000000E+00 0.  1.
     200001    2    1    2    0    0  0.21672968332E+03  0.27562702772E+03 -0.50321447041E+03  0.93063356395E+03  0.69993714938E+03 0.  0.
    5000001    2    3    3    0    0  0.60521637414E+02  0.65787190625E+02 -0.15812785297E+03  0.26918176346E+03  0.19865442569E+03 0.  0.
        -13    1    4    4    0    0 -0.12281241077E+02  0.22648259697E+02 -0.17579737624E+03  0.17767526898E+03  0.10566000000E+00 0. -1.
     200003    1    4    4    0    0  0.72802878491E+02  0.43138930928E+02  0.17669523274E+02  0.91506494474E+02  0.30000000000E+02 0. -1.
     200000    1    3    3    0    0  0.15620804591E+03  0.20983983710E+03 -0.34508661744E+03  0.66145180049E+03  0.50000000000E+03 0.  1.
    -200001    1    1    2    0    0 -0.21672968332E+03 -0.27562702772E+03  0.26050574966E+03  0.82510924104E+03  0.70000000000E+03 0. -1.
<mgrwt>
<rscale>  0 0.17388862E+04</rscale>
<asrwt>0</asrwt>
<pdfrwt beam="1">  1        3 0.14274654E+00 0.17388862E+04</pdfrwt>
<pdfrwt beam="2">  1       -3 0.10807386E+00 0.17388862E+04</pdfrwt>
<totfact> 0.66802627E-01</totfact>
</mgrwt>
</event>
<event>
 8    1  0.1206249E-029  0.1616011E+04  0.7818608E-02  0.8810772E-01
         -3   -1    0    0    0  501 -0.00000000000E+00  0.00000000000E+00  0.59502822542E+03  0.59502823399E+03  0.10100000000E+00 0. -1.
          3   -1    0    0  501    0  0.00000000000E+00 -0.00000000000E+00 -0.10972133534E+04  0.10972133581E+04  0.10100000000E+00 0.  1.
     200001    2    1    2    0    0  0.30452614711E+03 -0.23411210864E+03 -0.12252034974E+03  0.80810925042E+03  0.70034610788E+03 0.  0.
    5000001    2    3    3    0    0  0.12916203675E+03 -0.34919546206E+02  0.10008760395E+03  0.19984569802E+03  0.10962923017E+03 0.  0.
        -13    1    4    4    0    0  0.79634968667E+02  0.21069773585E+02  0.16973076311E+02  0.84105648306E+02  0.10566000000E+00 0. -1.
     200003    1    4    4    0    0  0.49527068084E+02 -0.55989319791E+02  0.83114527637E+02  0.11574004971E+03  0.30000000000E+02 0. -1.
     200000    1    3    3    0    0  0.17536411036E+03 -0.19919256244E+03 -0.22260795369E+03  0.60826355240E+03  0.50000000000E+03 0. -1.
    -200001    1    1    2    0    0 -0.30452614711E+03  0.23411210864E+03 -0.37966477826E+03  0.88413234164E+03  0.70000000000E+03 0.  1.
<mgrwt>
<rscale>  0 0.16160110E+04</rscale>
<asrwt>0</asrwt>
<pdfrwt beam="1">  1        3 0.15674476E+00 0.16160110E+04</pdfrwt>
<pdfrwt beam="2">  1       -3 0.85004034E-01 0.16160110E+04</pdfrwt>
<totfact> 0.92361040E-01</totfact>
</mgrwt>
</event>
<event>
 8    1  0.1206249E-029  0.1515993E+04  0.7818608E-02  0.8873887E-01
         -3   -1    0    0    0  501 -0.00000000000E+00  0.00000000000E+00  0.26362593543E+04  0.26362593562E+04  0.10100000000E+00 0. -1.
          3   -1    0    0  501    0  0.00000000000E+00 -0.00000000000E+00 -0.21794464414E+03  0.21794466754E+03  0.10100000000E+00 0.  1.
     200001    2    1    2    0    0 -0.79838625183E+02  0.17486698815E+03  0.16222038895E+04  0.17768252100E+04  0.69900622182E+03 0.  0.
    5000001    2    3    3    0    0 -0.12146899458E+03  0.99838573171E+02  0.57480835148E+03  0.61303838940E+03  0.14383660388E+03 0.  0.
        -13    1    4    4    0    0  0.11824922189E+02  0.43765671825E+02  0.27629179810E+03  0.27998648481E+03  0.10566000000E+00 0. -1.
     200003    1    4    4    0    0 -0.13329391677E+03  0.56072901346E+02  0.29851655338E+03  0.33305190459E+03  0.30000000000E+02 0. -1.
     200000    1    3    3    0    0  0.41630369393E+02  0.75028414977E+02  0.10473955380E+04  0.11637868206E+04  0.50000000000E+03 0. -1.
    -200001    1    1    2    0    0  0.79838625183E+02 -0.17486698815E+03  0.79611082066E+03  0.10773788138E+04  0.70000000000E+03 0.  1.
<mgrwt>
<rscale>  0 0.15159929E+04</rscale>
<asrwt>0</asrwt>
<pdfrwt beam="1">  1        3 0.31134949E-01 0.15159929E+04</pdfrwt>
<pdfrwt beam="2">  1       -3 0.37660850E+00 0.15159929E+04</pdfrwt>
<totfact> 0.36912203E-01</totfact>
</mgrwt>
</event>
<event>
 8    1  0.1206249E-029  0.1657293E+04  0.7818608E-02  0.8786104E-01
          3   -1    0    0  501    0  0.00000000000E+00  0.00000000000E+00  0.82618809984E+03  0.82618810601E+03  0.10100000000E+00 0.  1.
         -3   -1    0    0    0  501 -0.00000000000E+00 -0.00000000000E+00 -0.83111239002E+03  0.83111239616E+03  0.10100000000E+00 0. -1.
     200001    2    1    2    0    0 -0.20698369348E+03  0.33811134224E+03 -0.20063469813E+03  0.82937291301E+03  0.70031679804E+03 0.  0.
    5000001    2    3    3    0    0 -0.99483491573E+02  0.60099117804E+02 -0.14198692332E+03  0.24432022150E+03  0.16131712614E+03 0.  0.
        -13    1    4    4    0    0 -0.13257204845E+02 -0.46889260013E+02 -0.67306168584E+01  0.49190126572E+02  0.10566000000E+00 0. -1.
     200003    1    4    4    0    0 -0.86226286728E+02  0.10698837782E+03 -0.13525630646E+03  0.19513009493E+03  0.30000000000E+02 0. -1.
     200000    1    3    3    0    0 -0.10750020191E+03  0.27801222443E+03 -0.58647774814E+02  0.58505269150E+03  0.50000000000E+03 0.  1.
    -200001    1    1    2    0    0  0.20698369348E+03 -0.33811134224E+03  0.19571040795E+03  0.82792758916E+03  0.70000000000E+03 0. -1.
<mgrwt>
<rscale>  0 0.16572932E+04</rscale>
<asrwt>0</asrwt>
<pdfrwt beam="1">  1        3 0.11802687E+00 0.16572932E+04</pdfrwt>
<pdfrwt beam="2">  1       -3 0.11873034E+00 0.16572932E+04</pdfrwt>
<totfact> 0.86097572E-01</totfact>
</mgrwt>
</event>
<event>
 8    1  0.1206249E-029  0.1682000E+04  0.7818608E-02  0.8771698E-01
          3   -1    0    0  501    0  0.00000000000E+00  0.00000000000E+00  0.30208909231E+03  0.30208910919E+03  0.10100000000E+00 0.  1.
         -3   -1    0    0    0  501 -0.00000000000E+00 -0.00000000000E+00 -0.23412980523E+04  0.23412980545E+04  0.10100000000E+00 0. -1.
     200001    2    1    2    0    0  0.31814594631E+03 -0.17236233507E+03 -0.14809346290E+04  0.16776771418E+04  0.70036247695E+03 0.  0.
    5000001    2    3    3    0    0 -0.12345320665E+02 -0.10418429182E+03 -0.50782902755E+03  0.53277223979E+03  0.12226677661E+03 0.  0.
        -13    1    4    4    0    0 -0.24775123442E+02  0.17472274213E+02 -0.16015786995E+03  0.16300196802E+03  0.10566000000E+00 0. -1.
     200003    1    4    4    0    0  0.12429802777E+02 -0.12165656603E+03 -0.34767115760E+03  0.36977027177E+03  0.30000000000E+02 0. -1.
     200000    1    3    3    0    0  0.33049126698E+03 -0.68178043250E+02 -0.97310560140E+03  0.11449049020E+04  0.50000000000E+03 0. -1.
    -200001    1    1    2    0    0 -0.31814594631E+03  0.17236233507E+03 -0.55827433106E+03  0.96571002192E+03  0.70000000000E+03 0.  1.
<mgrwt>
<rscale>  0 0.16819996E+04</rscale>
<asrwt>0</asrwt>
<pdfrwt beam="1">  1        3 0.43155588E-01 0.16819996E+04</pdfrwt>
<pdfrwt beam="2">  1       -3 0.33447114E+00 0.16819996E+04</pdfrwt>
<totfact> 0.32858385E-01</totfact>
</mgrwt>
</event>
<event>
 8    1  0.1206249E-029  0.2305852E+04  0.7818608E-02  0.8475617E-01
         -3   -1    0    0    0  501 -0.00000000000E+00  0.00000000000E+00  0.65792432923E+03  0.65792433698E+03  0.10100000000E+00 0. -1.
          3   -1    0    0  501    0  0.00000000000E+00 -0.00000000000E+00 -0.20203522650E+04  0.20203522676E+04  0.10100000000E+00 0.  1.
     200001    2    1    2    0    0 -0.65367578350E+03  0.36081290897E+03 -0.64090321586E+02  0.10250498972E+04  0.69938668654E+03 0.  0.
    5000001    2    3    3    0    0 -0.10256086615E+03  0.63809291060E+02 -0.80884020841E+02  0.22366308084E+03  0.16997821040E+03 0.  0.
        -13    1    4    4    0    0 -0.68122709300E+02 -0.35153529893E+01  0.39155420792E+02  0.78652522976E+02  0.10566000000E+00 0. -1.
     200003    1    4    4    0    0 -0.34438156850E+02  0.67324644049E+02 -0.12003944163E+03  0.14501055786E+03  0.30000000000E+02 0. -1.
     200000    1    3    3    0    0 -0.55111491735E+03  0.29700361791E+03  0.16793699255E+02  0.80138681641E+03  0.50000000000E+03 0. -1.
    -200001    1    1    2    0    0  0.65367578350E+03 -0.36081290897E+03 -0.12983376142E+04  0.16532267073E+04  0.70000000000E+03 0.  1.
<mgrwt>
<rscale>  0 0.23058525E+04</rscale>
<asrwt>0</asrwt>
<pdfrwt beam="1">  1        3 0.28862175E+00 0.23058525E+04</pdfrwt>
<pdfrwt beam="2">  1       -3 0.93989192E-01 0.23058525E+04</pdfrwt>
<totfact> 0.10757769E-01</totfact>
</mgrwt>
</event>
<event>
 8    1  0.1206249E-029  0.1824820E+04  0.7818608E-02  0.8693211E-01
          3   -1    0    0  501    0  0.00000000000E+00  0.00000000000E+00  0.32989091957E+03  0.32989093504E+03  0.10100000000E+00 0.  1.
         -3   -1    0    0    0  501 -0.00000000000E+00 -0.00000000000E+00 -0.25235365835E+04  0.25235365855E+04  0.10100000000E+00 0. -1.
     200001    2    1    2    0    0  0.49611271698E+03 -0.25234090851E+03 -0.82202199672E+03  0.12160041646E+04  0.70224084420E+03 0.  0.
    5000001    2    3    3    0    0  0.14284999927E+03 -0.14210644504E+03 -0.36362157528E+03  0.44329650256E+03  0.15391807937E+03 0.  0.
        -13    1    4    4    0    0  0.12157550563E+03 -0.24750336781E+02 -0.23244764660E+03  0.26348643668E+03  0.10566000000E+00 0. -1.
     200003    1    4    4    0    0  0.21274493639E+02 -0.11735610826E+03 -0.13117392868E+03  0.17981006587E+03  0.30000000000E+02 0. -1.
     200000    1    3    3    0    0  0.35326271771E+03 -0.11023446347E+03 -0.45840042144E+03  0.77270766208E+03  0.50000000000E+03 0. -1.
    -200001    1    1    2    0    0 -0.49611271698E+03  0.25234090851E+03 -0.13716236672E+04  0.16374233559E+04  0.70000000000E+03 0.  1.
<mgrwt>
<rscale>  0 0.18248198E+04</rscale>
<asrwt>0</asrwt>
<pdfrwt beam="1">  1        3 0.47127277E-01 0.18248198E+04</pdfrwt>
<pdfrwt beam="2">  1       -3 0.36050522E+00 0.18248198E+04</pdfrwt>
<totfact> 0.19493480E-01</totfact>
</mgrwt>
</event>
<event>
 8    1  0.1206249E-029  0.1435866E+04  0.7818608E-02  0.8928259E-01
         -3   -1    0    0    0  501 -0.00000000000E+00  0.00000000000E+00  0.82701063217E+03  0.82701063834E+03  0.10100000000E+00 0. -1.
          3   -1    0    0  501    0  0.00000000000E+00 -0.00000000000E+00 -0.62324173131E+03  0.62324173950E+03  0.10100000000E+00 0.  1.
     200001    2    1    2    0    0 -0.15115769371E+03 -0.43186463243E+02  0.11592796696E+03  0.72745935861E+03  0.70074539309E+03 0.  0.
    5000001    2    3    3    0    0 -0.16064005024E+03 -0.92135734389E+01  0.44778031613E+02  0.22119224964E+03  0.14502007967E+03 0.  0.
        -13    1    4    4    0    0  0.19541592722E+02 -0.26727572168E+02  0.64252078244E+01  0.33727309702E+02  0.10566000000E+00 0. -1.
     200003    1    4    4    0    0 -0.18018164296E+03  0.17513998729E+02  0.38352823789E+02  0.18746493994E+03  0.30000000000E+02 0. -1.
     200000    1    3    3    0    0  0.94823565314E+01 -0.33972889804E+02  0.71149935349E+02  0.50626710897E+03  0.50000000000E+03 0. -1.
    -200001    1    1    2    0    0  0.15115769371E+03  0.43186463243E+02  0.87840933900E+02  0.72279301923E+03  0.70000000000E+03 0. -1.
<mgrwt>
<rscale>  0 0.14358657E+04</rscale>
<asrwt>0</asrwt>
<pdfrwt beam="1">  1        3 0.89034534E-01 0.14358657E+04</pdfrwt>
<pdfrwt beam="2">  1       -3 0.11814438E+00 0.14358657E+04</pdfrwt>
<totfact> 0.17174804E+00</totfact>
</mgrwt>
</event>
<event>
 8    1  0.1206249E-029  0.1715977E+04  0.7818608E-02  0.8752304E-01
         -3   -1    0    0    0  501 -0.00000000000E+00  0.00000000000E+00  0.74111521912E+03  0.74111522601E+03  0.10100000000E+00 0.  1.
          3   -1    0    0  501    0  0.00000000000E+00 -0.00000000000E+00 -0.99329236966E+03  0.99329237480E+03  0.10100000000E+00 0. -1.
     200001    2    1    2    0    0  0.43225748198E+03 -0.83363019523E+02 -0.35785016835E+03  0.90076336587E+03  0.69965846993E+03 0.  0.
    5000001    2    3    3    0    0  0.54610149262E+02  0.26617803893E+02 -0.10898650429E+03  0.21764813934E+03  0.17833081212E+03 0.  0.
        -13    1    4    4    0    0  0.86260465954E+02  0.69411071234E+02 -0.24522683939E+02  0.11340254842E+03  0.10566000000E+00 0. -1.
     200003    1    4    4    0    0 -0.31650316693E+02 -0.42793267341E+02 -0.84463820355E+02  0.10424559092E+03  0.30000000000E+02 0. -1.
     200000    1    3    3    0    0  0.37764733272E+03 -0.10998082342E+03 -0.24886366406E+03  0.68311522653E+03  0.50000000000E+03 0. -1.
    -200001    1    1    2    0    0 -0.43225748198E+03  0.83363019523E+02  0.10567301781E+03  0.83364423494E+03  0.70000000000E+03 0.  1.
<mgrwt>
<rscale>  0 0.17159768E+04</rscale>
<asrwt>0</asrwt>
<pdfrwt beam="1">  1        3 0.14189891E+00 0.17159768E+04</pdfrwt>
<pdfrwt beam="2">  1       -3 0.10587360E+00 0.17159768E+04</pdfrwt>
<totfact> 0.71354575E-01</totfact>
</mgrwt>
</event>
<event>
 8    1  0.1206249E-029  0.1720469E+04  0.7818608E-02  0.8749775E-01
         -3   -1    0    0    0  501 -0.00000000000E+00  0.00000000000E+00  0.26713719585E+04  0.26713719604E+04  0.10100000000E+00 0. -1.
          3   -1    0    0  501    0  0.00000000000E+00 -0.00000000000E+00 -0.27701248980E+03  0.27701250821E+03  0.10100000000E+00 0.  1.
     200001    2    1    2    0    0  0.23789523286E+03  0.11412647191E+03  0.19252486833E+04  0.20653873438E+04  0.69973094405E+03 0.  0.
    5000001    2    3    3    0    0  0.60610183143E+02 -0.41159080330E+02  0.40772179296E+03  0.45032342728E+03  0.17659689837E+03 0.  0.
        -13    1    4    4    0    0  0.45343620690E+02  0.63651816826E+01  0.38515373293E+03  0.38786591579E+03  0.10566000000E+00 0. -1.
     200003    1    4    4    0    0  0.15266562453E+02 -0.47524262013E+02  0.22568060026E+02  0.62457511497E+02  0.30000000000E+02 0. -1.
     200000    1    3    3    0    0  0.17728504971E+03  0.15528555224E+03  0.15175268904E+04  0.16150639166E+04  0.50000000000E+03 0. -1.
    -200001    1    1    2    0    0 -0.23789523286E+03 -0.11412647191E+03  0.46911078539E+03  0.88299712478E+03  0.70000000000E+03 0. -1.
<mgrwt>
<rscale>  0 0.17204690E+04</rscale>
<asrwt>0</asrwt>
<pdfrwt beam="1">  1        3 0.39573215E-01 0.17204690E+04</pdfrwt>
<pdfrwt beam="2">  1       -3 0.38162456E+00 0.17204690E+04</pdfrwt>
<totfact> 0.21337925E-01</totfact>
</mgrwt>
</event>
<event>
 8    1  0.1206249E-029  0.1809530E+04  0.7818608E-02  0.8701248E-01
         -3   -1    0    0    0  501 -0.00000000000E+00  0.00000000000E+00  0.39301451011E+03  0.39301452308E+03  0.10100000000E+00 0. -1.
          3   -1    0    0  501    0  0.00000000000E+00 -0.00000000000E+00 -0.20828739083E+04  0.20828739108E+04  0.10100000000E+00 0.  1.
     200001    2    1    2    0    0 -0.11243794624E+03 -0.45106971744E+03 -0.38392103947E+03  0.92296178440E+03  0.69882537817E+03 0.  0.
    5000001    2    3    3    0    0 -0.25706457774E+02 -0.14975524748E+03 -0.12468325398E+03  0.27835571064E+03  0.19710030874E+03 0.  0.
        -13    1    4    4    0    0 -0.57814395919E+02 -0.18408029197E+03 -0.10090020831E+03  0.21773589844E+03  0.10566000000E+00 0. -1.
     200003    1    4    4    0    0  0.32107938145E+02  0.34325044488E+02 -0.23783045668E+02  0.60619812209E+02  0.30000000000E+02 0. -1.
     200000    1    3    3    0    0 -0.86731488464E+02 -0.30131446996E+03 -0.25923778549E+03  0.64460607376E+03  0.50000000000E+03 0. -1.
    -200001    1    1    2    0    0  0.11243794624E+03  0.45106971744E+03 -0.13059383588E+04  0.15529266495E+04  0.70000000000E+03 0.  1.
<mgrwt>
<rscale>  0 0.18095300E+04</rscale>
<asrwt>0</asrwt>
<pdfrwt beam="1">  1        3 0.29755341E+00 0.18095300E+04</pdfrwt>
<pdfrwt beam="2">  1       -3 0.56144932E-01 0.18095300E+04</pdfrwt>
<totfact> 0.30994622E-01</totfact>
</mgrwt>
</event>
<event>
 8    1  0.1206249E-029  0.1561731E+04  0.7818608E-02  0.8844409E-01
         -3   -1    0    0    0  501 -0.00000000000E+00  0.00000000000E+00  0.38495972116E+03  0.38495973441E+03  0.10100000000E+00 0. -1.
          3   -1    0    0  501    0  0.00000000000E+00 -0.00000000000E+00 -0.15839341323E+04  0.15839341355E+04  0.10100000000E+00 0.  1.
     200001    2    1    2    0    0 -0.77175124654E+02 -0.33596212124E+03 -0.63215586052E+03  0.10044718585E+04  0.70036857140E+03 0.  0.
    5000001    2    3    3    0    0  0.13858902442E+02 -0.17630934460E+03 -0.23790134631E+03  0.34174052144E+03  0.17003669971E+03 0.  0.
        -13    1    4    4    0    0  0.33212360297E+02  0.23737016387E+02 -0.53833946721E+02  0.67561910919E+02  0.10566000000E+00 0. -1.
     200003    1    4    4    0    0 -0.19353457855E+02 -0.20004636099E+03 -0.18406739959E+03  0.27417861052E+03  0.30000000000E+02 0. -1.
     200000    1    3    3    0    0 -0.91034027096E+02 -0.15965277663E+03 -0.39425451421E+03  0.66273133708E+03  0.50000000000E+03 0.  1.
    -200001    1    1    2    0    0  0.77175124654E+02  0.33596212124E+03 -0.56681855062E+03  0.96442201142E+03  0.70000000000E+03 0. -1.
<mgrwt>
<rscale>  0 0.15617309E+04</rscale>
<asrwt>0</asrwt>
<pdfrwt beam="1">  1        3 0.22627630E+00 0.15617309E+04</pdfrwt>
<pdfrwt beam="2">  1       -3 0.54994248E-01 0.15617309E+04</pdfrwt>
<totfact> 0.84026238E-01</totfact>
</mgrwt>
</event>
<event>
 8    1  0.1206249E-029  0.1606654E+04  0.7818608E-02  0.8816471E-01
         -3   -1    0    0    0  501 -0.00000000000E+00  0.00000000000E+00  0.12801856325E+04  0.12801856365E+04  0.10100000000E+00 0. -1.
          3   -1    0    0  501    0  0.00000000000E+00 -0.00000000000E+00 -0.50409398348E+03  0.50409399360E+03  0.10100000000E+00 0.  1.
     200001    2    1    2    0    0  0.70110981091E+02 -0.29760357578E+03  0.11647753985E+03  0.77503525383E+03  0.70258749591E+03 0.  0.
    5000001    2    3    3    0    0 -0.11046489596E+03 -0.55553729487E+02  0.74242041933E+02  0.18939064082E+03  0.12275269423E+03 0.  0.
        -13    1    4    4    0    0 -0.83543486408E+02 -0.73546067681E+02  0.10419686829E+02  0.11179051494E+03  0.10566000000E+00 0. -1.
     200003    1    4    4    0    0 -0.26921409553E+02  0.17992338194E+02  0.63822355105E+02  0.77600125883E+02  0.30000000000E+02 0. -1.
     200000    1    3    3    0    0  0.18057587705E+03 -0.24204984629E+03  0.42235497913E+02  0.58564461301E+03  0.50000000000E+03 0.  1.
    -200001    1    1    2    0    0 -0.70110981091E+02  0.29760357578E+03  0.65961410919E+03  0.10092443763E+04  0.70000000000E+03 0.  1.
<mgrwt>
<rscale>  0 0.16066535E+04</rscale>
<asrwt>0</asrwt>
<pdfrwt beam="1">  1        3 0.72013426E-01 0.16066535E+04</pdfrwt>
<pdfrwt beam="2">  1       -3 0.18288367E+00 0.16066535E+04</pdfrwt>
<totfact> 0.87572094E-01</totfact>
</mgrwt>
</event>
<event>
 8    1  0.1206249E-029  0.2129783E+04  0.7818608E-02  0.8548236E-01
         -3   -1    0    0    0  501 -0.00000000000E+00  0.00000000000E+00  0.18169093957E+04  0.18169093985E+04  0.10100000000E+00 0. -1.
          3   -1    0    0  501    0  0.00000000000E+00 -0.00000000000E+00 -0.62413342094E+03  0.62413342911E+03  0.10100000000E+00 0.  1.
     200001    2    1    2    0    0  0.19033920334E+03 -0.32253523262E+02 -0.29630281897E+03  0.78435186185E+03  0.70010226436E+03 0.  0.
    5000001    2    3    3    0    0 -0.94886517030E+02 -0.65484862488E+01 -0.91087840144E+02  0.17269211328E+03  0.11171050792E+03 0.  0.
        -13    1    4    4    0    0 -0.17240790894E+02 -0.33863844554E+02  0.96325799470E+01  0.39202073913E+02  0.10566000000E+00 0. -1.
     200003    1    4    4    0    0 -0.77645726136E+02  0.27315358305E+02 -0.10072042009E+03  0.13349003937E+03  0.30000000000E+02 0. -1.
     200000    1    3    3    0    0  0.28522572037E+03 -0.25705037013E+02 -0.20521497883E+03  0.61165974857E+03  0.50000000000E+03 0.  1.
    -200001    1    1    2    0    0 -0.19033920334E+03  0.32253523262E+02  0.14890787938E+04  0.16566909658E+04  0.70000000000E+03 0. -1.
<mgrwt>
<rscale>  0 0.21297830E+04</rscale>
<asrwt>0</asrwt>
<pdfrwt beam="1">  1        3 0.89161917E-01 0.21297830E+04</pdfrwt>
<pdfrwt beam="2">  1       -3 0.25955849E+00 0.21297830E+04</pdfrwt>
<totfact> 0.17755294E-01</totfact>
</mgrwt>
</event>
<event>
 8    1  0.1206249E-029  0.1867186E+04  0.7818608E-02  0.8671365E-01
         -3   -1    0    0    0  501 -0.00000000000E+00  0.00000000000E+00  0.38951220887E+03  0.38951222196E+03  0.10100000000E+00 0. -1.
          3   -1    0    0  501    0  0.00000000000E+00 -0.00000000000E+00 -0.22376599930E+04  0.22376599953E+04  0.10100000000E+00 0.  1.
     200001    2    1    2    0    0 -0.21162042358E+03  0.55902580437E+03 -0.70259784673E+03  0.11576220437E+04  0.69939402920E+03 0.  0.
    5000001    2    3    3    0    0 -0.13891688616E+02  0.18630181668E+03 -0.18101812485E+03  0.32092303570E+03  0.18794330902E+03 0.  0.
        -13    1    4    4    0    0  0.48510484545E+02 -0.14768300359E+02 -0.49610292019E+02  0.70940552892E+02  0.10566000000E+00 0. -1.
     200003    1    4    4    0    0 -0.62402173161E+02  0.20107011704E+03 -0.13140783283E+03  0.24998248281E+03  0.30000000000E+02 0. -1.
     200000    1    3    3    0    0 -0.19772873496E+03  0.37272398769E+03 -0.52157972188E+03  0.83669900795E+03  0.50000000000E+03 0. -1.
    -200001    1    1    2    0    0  0.21162042358E+03 -0.55902580437E+03 -0.11455499374E+04  0.14695501736E+04  0.70000000000E+03 0.  1.
<mgrwt>
<rscale>  0 0.18671860E+04</rscale>
<asrwt>0</asrwt>
<pdfrwt beam="1">  1        3 0.31966571E+00 0.18671860E+04</pdfrwt>
<pdfrwt beam="2">  1       -3 0.55644604E-01 0.18671860E+04</pdfrwt>
<totfact> 0.23764490E-01</totfact>
</mgrwt>
</event>
<event>
 8    1  0.1206249E-029  0.1527874E+04  0.7818608E-02  0.8866126E-01
         -3   -1    0    0    0  501 -0.00000000000E+00  0.00000000000E+00  0.13090026724E+04  0.13090026763E+04  0.10100000000E+00 0. -1.
          3   -1    0    0  501    0  0.00000000000E+00 -0.00000000000E+00 -0.44583549274E+03  0.44583550418E+03  0.10100000000E+00 0.  1.
     200001    2    1    2    0    0  0.18604554990E+03 -0.19928834517E+03  0.59114627678E+03  0.95588626533E+03  0.69995417032E+03 0.  0.
    5000001    2    3    3    0    0  0.23624825958E+02 -0.10432922226E+03  0.15009540832E+03  0.26312108495E+03  0.18778007010E+03 0.  0.
        -13    1    4    4    0    0  0.47777556270E+02  0.12314326353E+02  0.12948473295E+03  0.13856639112E+03  0.10566000000E+00 0. -1.
     200003    1    4    4    0    0 -0.24152730312E+02 -0.11664354861E+03  0.20610675371E+02  0.12455469383E+03  0.30000000000E+02 0. -1.
     200000    1    3    3    0    0  0.16242072394E+03 -0.94959122909E+02  0.44105086845E+03  0.69276518038E+03  0.50000000000E+03 0. -1.
    -200001    1    1    2    0    0 -0.18604554990E+03  0.19928834517E+03  0.27202090293E+03  0.79895191519E+03  0.70000000000E+03 0.  1.
<mgrwt>
<rscale>  0 0.15278742E+04</rscale>
<asrwt>0</asrwt>
<pdfrwt beam="1">  1        3 0.63690786E-01 0.15278742E+04</pdfrwt>
<pdfrwt beam="2">  1       -3 0.18700038E+00 0.15278742E+04</pdfrwt>
<totfact> 0.10787964E+00</totfact>
</mgrwt>
</event>
<event>
 8    1  0.1206249E-029  0.2089486E+04  0.7818608E-02  0.8565889E-01
         -3   -1    0    0    0  501 -0.00000000000E+00  0.00000000000E+00  0.14073811714E+04  0.14073811750E+04  0.10100000000E+00 0. -1.
          3   -1    0    0  501    0  0.00000000000E+00 -0.00000000000E+00 -0.77554554565E+03  0.77554555223E+03  0.10100000000E+00 0.  1.
     200001    2    1    2    0    0 -0.47432516442E+03 -0.27284406772E+03 -0.25802396401E+03  0.92543782616E+03  0.70030747332E+03 0.  0.
    5000001    2    3    3    0    0 -0.22301840985E+03 -0.14594445905E+03 -0.88290965452E+02  0.32705008700E+03  0.16771842047E+03 0.  0.
        -13    1    4    4    0    0 -0.17449383285E+02 -0.61831845024E+02 -0.80220431679E+02  0.10277639252E+03  0.10566000000E+00 0. -1.
     200003    1    4    4    0    0 -0.20556902657E+03 -0.84112614030E+02 -0.80705337729E+01  0.22427369448E+03  0.30000000000E+02 0. -1.
     200000    1    3    3    0    0 -0.25130675457E+03 -0.12689960867E+03 -0.16973299856E+03  0.59838773916E+03  0.50000000000E+03 0.  1.
    -200001    1    1    2    0    0  0.47432516442E+03  0.27284406772E+03  0.88985958976E+03  0.12574889011E+04  0.70000000000E+03 0. -1.
<mgrwt>
<rscale>  0 0.20894863E+04</rscale>
<asrwt>0</asrwt>
<pdfrwt beam="1">  1        3 0.11079222E+00 0.20894863E+04</pdfrwt>
<pdfrwt beam="2">  1       -3 0.20105445E+00 0.20894863E+04</pdfrwt>
<totfact> 0.24031487E-01</totfact>
</mgrwt>
</event>
<event>
 8    1  0.1206249E-029  0.1749417E+04  0.7818608E-02  0.8733671E-01
         -3   -1    0    0    0  501 -0.00000000000E+00  0.00000000000E+00  0.50369551220E+03  0.50369552233E+03  0.10100000000E+00 0. -1.
          3   -1    0    0  501    0  0.00000000000E+00 -0.00000000000E+00 -0.15190035266E+04  0.15190035299E+04  0.10100000000E+00 0.  1.
     200001    2    1    2    0    0  0.46902922791E+03 -0.50923226126E+02 -0.24100871959E+03  0.87722055421E+03  0.69917744974E+03 0.  0.
    5000001    2    3    3    0    0  0.10317717875E+03 -0.46056854413E+02 -0.10522865987E+03  0.24294330563E+03  0.18756762738E+03 0.  0.
        -13    1    4    4    0    0  0.14278585430E+03 -0.49618079666E+02 -0.11771229533E+03  0.19158796845E+03  0.10566000000E+00 0. -1.
     200003    1    4    4    0    0 -0.39608675545E+02  0.35612252538E+01  0.12483635453E+02  0.51355337189E+02  0.30000000000E+02 0. -1.
     200000    1    3    3    0    0  0.36585204916E+03 -0.48663717133E+01 -0.13578005971E+03  0.63427724858E+03  0.50000000000E+03 0. -1.
    -200001    1    1    2    0    0 -0.46902922791E+03  0.50923226126E+02 -0.77429929480E+03  0.11454784981E+04  0.70000000000E+03 0. -1.
<mgrwt>
<rscale>  0 0.17494174E+04</rscale>
<asrwt>0</asrwt>
<pdfrwt beam="1">  1        3 0.21700050E+00 0.17494174E+04</pdfrwt>
<pdfrwt beam="2">  1       -3 0.71956504E-01 0.17494174E+04</pdfrwt>
<totfact> 0.53047709E-01</totfact>
</mgrwt>
</event>
<event>
 8    1  0.1206249E-029  0.1623474E+04  0.7818608E-02  0.8806255E-01
         -3   -1    0    0    0  501 -0.00000000000E+00  0.00000000000E+00  0.53112436090E+03  0.53112437050E+03  0.10100000000E+00 0. -1.
          3   -1    0    0  501    0  0.00000000000E+00 -0.00000000000E+00 -0.12406078345E+04  0.12406078386E+04  0.10100000000E+00 0.  1.
     200001    2    1    2    0    0 -0.87975552919E+02 -0.32423016130E+03 -0.97233398555E+02  0.78293746306E+03  0.70047972266E+03 0.  0.
    5000001    2    3    3    0    0 -0.12410679640E+02 -0.18745066476E+03  0.48845967279E+00  0.25005075622E+03  0.16502534777E+03 0.  0.
        -13    1    4    4    0    0  0.84315068136E+01  0.27815801031E+02 -0.11780603910E+02  0.31362443889E+02  0.10566000000E+00 0. -1.
     200003    1    4    4    0    0 -0.20842186454E+02 -0.21526646579E+03  0.12269063582E+02  0.21868831233E+03  0.30000000000E+02 0. -1.
     200000    1    3    3    0    0 -0.75564873279E+02 -0.13677949654E+03 -0.97721858228E+02  0.53288670684E+03  0.50000000000E+03 0.  1.
    -200001    1    1    2    0    0  0.87975552919E+02  0.32423016130E+03 -0.61225007500E+03  0.98879474602E+03  0.70000000000E+03 0.  1.
<mgrwt>
<rscale>  0 0.16234741E+04</rscale>
<asrwt>0</asrwt>
<pdfrwt beam="1">  1        3 0.17722969E+00 0.16234741E+04</pdfrwt>
<pdfrwt beam="2">  1       -3 0.75874910E-01 0.16234741E+04</pdfrwt>
<totfact> 0.85472366E-01</totfact>
</mgrwt>
</event>
<event>
 8    1  0.1206249E-029  0.1569556E+04  0.7818608E-02  0.8839472E-01
         -3   -1    0    0    0  501 -0.00000000000E+00  0.00000000000E+00  0.51773408801E+03  0.51773409787E+03  0.10100000000E+00 0.  1.
          3   -1    0    0  501    0  0.00000000000E+00 -0.00000000000E+00 -0.11895613339E+04  0.11895613381E+04  0.10100000000E+00 0. -1.
     200001    2    1    2    0    0 -0.14040790035E+03 -0.10852456951E+03 -0.67131150297E+03  0.98515124912E+03  0.69883609591E+03 0.  0.
    5000001    2    3    3    0    0 -0.13915360632E+03 -0.14889680389E+02 -0.21587596711E+03  0.30236973718E+03  0.15886974556E+03 0.  0.
        -13    1    4    4    0    0 -0.56108248297E+02  0.64300010466E+02 -0.13168836695E+03  0.15692184051E+03  0.10566000000E+00 0. -1.
     200003    1    4    4    0    0 -0.83045358025E+02 -0.79189690855E+02 -0.84187600157E+02  0.14544789668E+03  0.30000000000E+02 0. -1.
     200000    1    3    3    0    0 -0.12542940240E+01 -0.93634889118E+02 -0.45543553587E+03  0.68278151194E+03  0.50000000000E+03 0.  1.
    -200001    1    1    2    0    0  0.14040790035E+03  0.10852456951E+03 -0.51574286364E+00  0.72214418689E+03  0.70000000000E+03 0.  1.
<mgrwt>
<rscale>  0 0.15695559E+04</rscale>
<asrwt>0</asrwt>
<pdfrwt beam="1">  1        3 0.16993733E+00 0.15695559E+04</pdfrwt>
<pdfrwt beam="2">  1       -3 0.73962014E-01 0.15695559E+04</pdfrwt>
<totfact> 0.10182961E+00</totfact>
</mgrwt>
</event>
<event>
 8    1  0.1206249E-029  0.1756851E+04  0.7818608E-02  0.8729588E-01
         -3   -1    0    0    0  501 -0.00000000000E+00  0.00000000000E+00  0.46544021910E+03  0.46544023006E+03  0.10100000000E+00 0. -1.
          3   -1    0    0  501    0  0.00000000000E+00 -0.00000000000E+00 -0.16578529512E+04  0.16578529543E+04  0.10100000000E+00 0.  1.
     200001    2    1    2    0    0 -0.41916693197E+02 -0.52072776319E+03 -0.48420095648E+03  0.99880293022E+03  0.70017306049E+03 0.  0.
    5000001    2    3    3    0    0  0.78409016060E+01  0.26818037446E+02 -0.13491724260E+03  0.17765657614E+03  0.11215395590E+03 0.  0.
        -13    1    4    4    0    0  0.21588350519E+02 -0.31813349451E+02 -0.17308600565E+02  0.42163312239E+02  0.10566000000E+00 0. -1.
     200003    1    4    4    0    0 -0.13747448913E+02  0.58631386896E+02 -0.11760864204E+03  0.13549326390E+03  0.30000000000E+02 0. -1.
     200000    1    3    3    0    0 -0.49757594802E+02 -0.54754580064E+03 -0.34928371387E+03  0.82114635408E+03  0.50000000000E+03 0.  1.
    -200001    1    1    2    0    0  0.41916693197E+02  0.52072776319E+03 -0.70821177567E+03  0.11244902542E+04  0.70000000000E+03 0.  1.
<mgrwt>
<rscale>  0 0.17568511E+04</rscale>
<asrwt>0</asrwt>
<pdfrwt beam="1">  1        3 0.23683613E+00 0.17568511E+04</pdfrwt>
<pdfrwt beam="2">  1       -3 0.66491462E-01 0.17568511E+04</pdfrwt>
<totfact> 0.47946432E-01</totfact>
</mgrwt>
</event>
<event>
 8    1  0.1206249E-029  0.1454485E+04  0.7818608E-02  0.8915297E-01
          3   -1    0    0  501    0  0.00000000000E+00  0.00000000000E+00  0.11633895339E+04  0.11633895383E+04  0.10100000000E+00 0.  1.
         -3   -1    0    0    0  501 -0.00000000000E+00 -0.00000000000E+00 -0.45460411473E+03  0.45460412595E+03  0.10100000000E+00 0. -1.
     200001    2    1    2    0    0  0.34968566926E+02 -0.18079100844E+03  0.42747385316E+03  0.84143433839E+03  0.70097764678E+03 0.  0.
    5000001    2    3    3    0    0  0.62263906294E+02 -0.12788820255E+03  0.18198661844E+03  0.28124890050E+03  0.16046690737E+03 0.  0.
        -13    1    4    4    0    0 -0.43662372048E+02 -0.85462280507E+02  0.91020512771E+02  0.13226847331E+03  0.10566000000E+00 0. -1.
     200003    1    4    4    0    0  0.10592627834E+03 -0.42425922048E+02  0.90966105666E+02  0.14898042719E+03  0.30000000000E+02 0. -1.
     200000    1    3    3    0    0 -0.27295339368E+02 -0.52902805885E+02  0.24548723472E+03  0.56018543790E+03  0.50000000000E+03 0.  1.
    -200001    1    1    2    0    0 -0.34968566926E+02  0.18079100844E+03  0.28131156603E+03  0.77655932587E+03  0.70000000000E+03 0. -1.
<mgrwt>
<rscale>  0 0.14544850E+04</rscale>
<asrwt>0</asrwt>
<pdfrwt beam="1">  1        3 0.16619851E+00 0.14544850E+04</pdfrwt>
<pdfrwt beam="2">  1       -3 0.64943446E-01 0.14544850E+04</pdfrwt>
<totfact> 0.14460196E+00</totfact>
</mgrwt>
</event>
<event>
 8    1  0.1206249E-029  0.2007870E+04  0.7818608E-02  0.8602950E-01
         -3   -1    0    0    0  501 -0.00000000000E+00  0.00000000000E+00  0.38942568127E+03  0.38942569436E+03  0.10100000000E+00 0.  1.
          3   -1    0    0  501    0  0.00000000000E+00 -0.00000000000E+00 -0.25881341525E+04  0.25881341545E+04  0.10100000000E+00 0. -1.
     200001    2    1    2    0    0  0.65435126237E+03 -0.28886185880E+03 -0.98753377040E+03  0.14063943884E+04  0.70078918377E+03 0.  0.
    5000001    2    3    3    0    0  0.21301131220E+03 -0.73574879665E+02 -0.47706305676E+03  0.53938240207E+03  0.11205861636E+03 0.  0.
        -13    1    4    4    0    0  0.10247300602E+03 -0.19061105594E+02 -0.11241376447E+03  0.15330005974E+03  0.10566000000E+00 0. -1.
     200003    1    4    4    0    0  0.11053830618E+03 -0.54513774071E+02 -0.36464929229E+03  0.38608234233E+03  0.30000000000E+02 0. -1.
     200000    1    3    3    0    0  0.44133995018E+03 -0.21528697914E+03 -0.51047071365E+03  0.86701198636E+03  0.50000000000E+03 0.  1.
    -200001    1    1    2    0    0 -0.65435126237E+03  0.28886185880E+03 -0.12111747009E+04  0.15711654604E+04  0.70000000000E+03 0.  1.
<mgrwt>
<rscale>  0 0.20078704E+04</rscale>
<asrwt>0</asrwt>
<pdfrwt beam="1">  1        3 0.36973344E+00 0.20078704E+04</pdfrwt>
<pdfrwt beam="2">  1       -3 0.55632242E-01 0.20078704E+04</pdfrwt>
<totfact> 0.12579574E-01</totfact>
</mgrwt>
</event>
<event>
 8    1  0.1206249E-029  0.1915664E+04  0.7818608E-02  0.8647099E-01
          3   -1    0    0  501    0  0.00000000000E+00  0.00000000000E+00  0.98473583668E+03  0.98473584186E+03  0.10100000000E+00 0.  1.
         -3   -1    0    0    0  501 -0.00000000000E+00 -0.00000000000E+00 -0.93166285880E+03  0.93166286428E+03  0.10100000000E+00 0. -1.
     200001    2    1    2    0    0  0.85109268772E+02 -0.62918917861E+03 -0.12679931119E+03  0.95438173618E+03  0.70117317613E+03 0.  0.
    5000001    2    3    3    0    0  0.32136320592E+02 -0.21936899319E+03 -0.33288175776E+02  0.29901691406E+03  0.19785730711E+03 0.  0.
        -13    1    4    4    0    0 -0.42635010796E+02 -0.76694431783E+02  0.63865355360E+02  0.10852914259E+03  0.10566000000E+00 0. -1.
     200003    1    4    4    0    0  0.74771331387E+02 -0.14267456140E+03 -0.97153531136E+02  0.19048777147E+03  0.30000000000E+02 0. -1.
     200000    1    3    3    0    0  0.52972948181E+02 -0.40982018542E+03 -0.93511135416E+02  0.65536482212E+03  0.50000000000E+03 0. -1.
    -200001    1    1    2    0    0 -0.85109268772E+02  0.62918917861E+03  0.17987228907E+03  0.96201696996E+03  0.70000000000E+03 0. -1.
<mgrwt>
<rscale>  0 0.19156637E+04</rscale>
<asrwt>0</asrwt>
<pdfrwt beam="1">  1        3 0.14067655E+00 0.19156637E+04</pdfrwt>
<pdfrwt beam="2">  1       -3 0.13309470E+00 0.19156637E+04</pdfrwt>
<totfact> 0.41132119E-01</totfact>
</mgrwt>
</event>
<event>
 8    1  0.1206249E-029  0.1431672E+04  0.7818608E-02  0.8931207E-01
         -3   -1    0    0    0  501 -0.00000000000E+00  0.00000000000E+00  0.21944906632E+04  0.21944906655E+04  0.10100000000E+00 0. -1.
          3   -1    0    0  501    0  0.00000000000E+00 -0.00000000000E+00 -0.23350331991E+03  0.23350334175E+03  0.10100000000E+00 0.  1.
     200001    2    1    2    0    0 -0.75868117620E+02  0.11804967890E+03  0.10667344865E+04  0.12837126303E+04  0.70021707661E+03 0.  0.
    5000001    2    3    3    0    0  0.43513399954E+02  0.11515924232E+03  0.36957700659E+03  0.41752047306E+03  0.15027013860E+03 0.  0.
        -13    1    4    4    0    0  0.36632836665E+02 -0.20899459656E+02  0.34234532383E+02  0.54320958272E+02  0.10566000000E+00 0. -1.
     200003    1    4    4    0    0  0.68805632886E+01  0.13605870197E+03  0.33534247421E+03  0.36319951479E+03  0.30000000000E+02 0. -1.
     200000    1    3    3    0    0 -0.11938151757E+03  0.28904365793E+01  0.69715747994E+03  0.86619215720E+03  0.50000000000E+03 0. -1.
    -200001    1    1    2    0    0  0.75868117620E+02 -0.11804967890E+03  0.89425285677E+03  0.11442813770E+04  0.70000000000E+03 0.  1.
<mgrwt>
<rscale>  0 0.14316716E+04</rscale>
<asrwt>0</asrwt>
<pdfrwt beam="1">  1        3 0.33357621E-01 0.14316716E+04</pdfrwt>
<pdfrwt beam="2">  1       -3 0.31349865E+00 0.14316716E+04</pdfrwt>
<totfact> 0.72770424E-01</totfact>
</mgrwt>
</event>
<event>
 8    1  0.1206249E-029  0.1806768E+04  0.7818608E-02  0.8702708E-01
         -3   -1    0    0    0  501 -0.00000000000E+00  0.00000000000E+00  0.21427374651E+04  0.21427374674E+04  0.10100000000E+00 0.  1.
          3   -1    0    0  501    0  0.00000000000E+00 -0.00000000000E+00 -0.38086930984E+03  0.38086932323E+03  0.10100000000E+00 0. -1.
     200001    2    1    2    0    0  0.10221574134E+02  0.13102378155E+03  0.10837305011E+03  0.72324077941E+03  0.70289458321E+03 0.  0.
    5000001    2    3    3    0    0 -0.23250876560E+02  0.10496355026E+03  0.37104270954E+02  0.21640867753E+03  0.18411420001E+03 0.  0.
        -13    1    4    4    0    0 -0.32291081336E+02 -0.32560333548E+02  0.57873961221E+02  0.73839662824E+02  0.10566000000E+00 0. -1.
     200003    1    4    4    0    0  0.90402047758E+01  0.13752388381E+03 -0.20769690267E+02  0.14256901471E+03  0.30000000000E+02 0. -1.
     200000    1    3    3    0    0  0.33472450694E+02  0.26060231281E+02  0.71268779159E+02  0.50683210188E+03  0.50000000000E+03 0. -1.
    -200001    1    1    2    0    0 -0.10221574134E+02 -0.13102378155E+03  0.16534951051E+04  0.18003660113E+04  0.70000000000E+03 0.  1.
<mgrwt>
<rscale>  0 0.18067683E+04</rscale>
<asrwt>0</asrwt>
<pdfrwt beam="1">  1        3 0.54409902E-01 0.18067683E+04</pdfrwt>
<pdfrwt beam="2">  1       -3 0.30610536E+00 0.18067683E+04</pdfrwt>
<totfact> 0.29136025E-01</totfact>
</mgrwt>
</event>
<event>
 8    1  0.1206249E-029  0.1446495E+04  0.7818608E-02  0.8920834E-01
         -3   -1    0    0    0  501 -0.00000000000E+00  0.00000000000E+00  0.35369219010E+03  0.35369220452E+03  0.10100000000E+00 0. -1.
          3   -1    0    0  501    0  0.00000000000E+00 -0.00000000000E+00 -0.14789322365E+04  0.14789322399E+04  0.10100000000E+00 0.  1.
     200001    2    1    2    0    0 -0.10576728192E+03  0.47513181095E+02 -0.73442443539E+03  0.10225744077E+04  0.70202204210E+03 0.  0.
    5000001    2    3    3    0    0 -0.44463551695E+02 -0.10289066172E+01 -0.92454207487E+02  0.20511477249E+03  0.17761256525E+03 0.  0.
        -13    1    4    4    0    0  0.15181729926E+01 -0.54003443411E+02 -0.11373105665E+03  0.12591044897E+03  0.10566000000E+00 0. -1.
     200003    1    4    4    0    0 -0.45981724687E+02  0.52974536793E+02  0.21276849163E+02  0.79204323518E+02  0.30000000000E+02 0. -1.
     200000    1    3    3    0    0 -0.61303730221E+02  0.48542087712E+02 -0.64197022791E+03  0.81745963517E+03  0.50000000000E+03 0.  1.
    -200001    1    1    2    0    0  0.10576728192E+03 -0.47513181095E+02 -0.39081561097E+03  0.81005003678E+03  0.70000000000E+03 0.  1.
<mgrwt>
<rscale>  0 0.14464948E+04</rscale>
<asrwt>0</asrwt>
<pdfrwt beam="1">  1        3 0.21127603E+00 0.14464948E+04</pdfrwt>
<pdfrwt beam="2">  1       -3 0.50527458E-01 0.14464948E+04</pdfrwt>
<totfact> 0.12440901E+00</totfact>
</mgrwt>
</event>
<event>
 8    1  0.1206249E-029  0.1629329E+04  0.7818608E-02  0.8802730E-01
         -3   -1    0    0    0  501 -0.00000000000E+00  0.00000000000E+00  0.61983275779E+03  0.61983276602E+03  0.10100000000E+00 0. -1.
          3   -1    0    0  501    0  0.00000000000E+00 -0.00000000000E+00 -0.10707372625E+04  0.10707372672E+04  0.10100000000E+00 0.  1.
     200001    2    1    2    0    0 -0.26835645866E+03  0.16652157891E+02 -0.55590063980E+03  0.93339325623E+03  0.69993211541E+03 0.  0.
    5000001    2    3    3    0    0 -0.12236196315E+03  0.13784911153E+02 -0.28097392783E+03  0.34440487708E+03  0.15654359596E+03 0.  0.
        -13    1    4    4    0    0 -0.27230540030E+02  0.48202620579E+02 -0.13667191163E+02  0.57024540501E+02  0.10566000000E+00 0. -1.
     200003    1    4    4    0    0 -0.95131423117E+02 -0.34417709426E+02 -0.26730673666E+03  0.28738033658E+03  0.30000000000E+02 0. -1.
     200000    1    3    3    0    0 -0.14599449551E+03  0.28672467388E+01 -0.27492671197E+03  0.58898837915E+03  0.50000000000E+03 0.  1.
    -200001    1    1    2    0    0  0.26835645866E+03 -0.16652157891E+02  0.10499613513E+03  0.75717677702E+03  0.70000000000E+03 0. -1.
<mgrwt>
<rscale>  0 0.16293287E+04</rscale>
<asrwt>0</asrwt>
<pdfrwt beam="1">  1        3 0.15296247E+00 0.16293287E+04</pdfrwt>
<pdfrwt beam="2">  1       -3 0.88547538E-01 0.16293287E+04</pdfrwt>
<totfact> 0.89665091E-01</totfact>
</mgrwt>
</event>
<event>
 8    1  0.1206249E-029  0.2075480E+04  0.7818608E-02  0.8572122E-01
          3   -1    0    0  501    0  0.00000000000E+00  0.00000000000E+00  0.10659118149E+04  0.10659118197E+04  0.10100000000E+00 0.  1.
         -3   -1    0    0    0  501 -0.00000000000E+00 -0.00000000000E+00 -0.10103130345E+04  0.10103130396E+04  0.10100000000E+00 0. -1.
     200001    2    1    2    0    0 -0.11292586798E+03  0.27527825907E+03  0.73384799622E+03  0.10571309625E+04  0.70033036397E+03 0.  0.
    5000001    2    3    3    0    0 -0.96385726475E+01  0.45482109258E+02  0.17043911859E+03  0.26283624436E+03  0.19460697279E+03 0.  0.
        -13    1    4    4    0    0 -0.34233748837E+01 -0.73519141583E+02  0.88669013477E+02  0.11523449479E+03  0.10566000000E+00 0. -1.
     200003    1    4    4    0    0 -0.62151977637E+01  0.11900125084E+03  0.81770105117E+02  0.14760174957E+03  0.30000000000E+02 0. -1.
     200000    1    3    3    0    0 -0.10328729534E+03  0.22979614981E+03  0.56340887762E+03  0.79429471812E+03  0.50000000000E+03 0.  1.
    -200001    1    1    2    0    0  0.11292586798E+03 -0.27527825907E+03 -0.67824921589E+03  0.10190938968E+04  0.70000000000E+03 0. -1.
<mgrwt>
<rscale>  0 0.20754803E+04</rscale>
<asrwt>0</asrwt>
<pdfrwt beam="1">  1        3 0.15227312E+00 0.20754803E+04</pdfrwt>
<pdfrwt beam="2">  1       -3 0.14433043E+00 0.20754803E+04</pdfrwt>
<totfact> 0.26953126E-01</totfact>
</mgrwt>
</event>
<event>
 8    1  0.1206249E-029  0.1610841E+04  0.7818608E-02  0.8813916E-01
          3   -1    0    0  501    0  0.00000000000E+00  0.00000000000E+00  0.23179347024E+03  0.23179349224E+03  0.10100000000E+00 0.  1.
         -3   -1    0    0    0  501 -0.00000000000E+00 -0.00000000000E+00 -0.27986195839E+04  0.27986195857E+04  0.10100000000E+00 0. -1.
     200001    2    1    2    0    0  0.52857209531E+02  0.28913830053E+03 -0.17871499065E+04  0.19421622661E+04  0.70120941113E+03 0.  0.
    5000001    2    3    3    0    0 -0.53474593728E+02  0.16184178441E+03 -0.29928064601E+03  0.36378785184E+03  0.11713411421E+03 0.  0.
        -13    1    4    4    0    0  0.16374357826E+02 -0.97708705540E+01 -0.25315123807E+02  0.31693156407E+02  0.10566000000E+00 0. -1.
     200003    1    4    4    0    0 -0.69848951554E+02  0.17161265496E+03 -0.27396552220E+03  0.33209469543E+03  0.30000000000E+02 0. -1.
     200000    1    3    3    0    0  0.10633180326E+03  0.12729651612E+03 -0.14878692605E+04  0.15783744143E+04  0.50000000000E+03 0. -1.
    -200001    1    1    2    0    0 -0.52857209531E+02 -0.28913830053E+03 -0.77967620716E+03  0.10882508118E+04  0.70000000000E+03 0.  1.
<mgrwt>
<rscale>  0 0.16108405E+04</rscale>
<asrwt>0</asrwt>
<pdfrwt beam="1">  1        3 0.33113356E-01 0.16108405E+04</pdfrwt>
<pdfrwt beam="2">  1       -3 0.39980278E+00 0.16108405E+04</pdfrwt>
<totfact> 0.24225036E-01</totfact>
</mgrwt>
</event>
<event>
 8    1  0.1206249E-029  0.1539651E+04  0.7818608E-02  0.8858505E-01
          3   -1    0    0  501    0  0.00000000000E+00  0.00000000000E+00  0.92269877781E+03  0.92269878334E+03  0.10100000000E+00 0.  1.
         -3   -1    0    0    0  501 -0.00000000000E+00 -0.00000000000E+00 -0.64228065677E+03  0.64228066471E+03  0.10100000000E+00 0. -1.
     200001    2    1    2    0    0  0.15525090804E+03 -0.16693637678E+03  0.36639291059E+03  0.82378968640E+03  0.70172293973E+03 0.  0.
    5000001    2    3    3    0    0  0.74806038926E+02 -0.67966032584E+01  0.47284720438E+01  0.18120327965E+03  0.16483365200E+03 0.  0.
        -13    1    4    4    0    0  0.24669236998E+02 -0.56050531681E+02  0.60896973453E+02  0.86363683893E+02  0.10566000000E+00 0. -1.
     200003    1    4    4    0    0  0.50136801928E+02  0.49253928423E+02 -0.56168501410E+02  0.94839595757E+02  0.30000000000E+02 0. -1.
     200000    1    3    3    0    0  0.80444869111E+02 -0.16013977353E+03  0.36166443854E+03  0.64258640675E+03  0.50000000000E+03 0.  1.
    -200001    1    1    2    0    0 -0.15525090804E+03  0.16693637678E+03 -0.85974789549E+02  0.74118976165E+03  0.70000000000E+03 0. -1.
<mgrwt>
<rscale>  0 0.15396514E+04</rscale>
<asrwt>0</asrwt>
<pdfrwt beam="1">  1        3 0.13181411E+00 0.15396514E+04</pdfrwt>
<pdfrwt beam="2">  1       -3 0.91754381E-01 0.15396514E+04</pdfrwt>
<totfact> 0.12163877E+00</totfact>
</mgrwt>
</event>
<event>
 8    1  0.1206249E-029  0.2088148E+04  0.7818608E-02  0.8566482E-01
         -3   -1    0    0    0  501 -0.00000000000E+00  0.00000000000E+00  0.12700587465E+04  0.12700587505E+04  0.10100000000E+00 0.  1.
          3   -1    0    0  501    0  0.00000000000E+00 -0.00000000000E+00 -0.85829960892E+03  0.85829961486E+03  0.10100000000E+00 0. -1.
     200001    2    1    2    0    0 -0.32900022658E+01  0.27827938223E+03  0.94059317929E+03  0.12079694898E+04  0.70499966004E+03 0.  0.
    5000001    2    3    3    0    0  0.78610471691E+02  0.30227158102E+02  0.36888753271E+03  0.40479769007E+03  0.14383973984E+03 0.  0.
        -13    1    4    4    0    0 -0.17861852431E+02  0.19430661196E+02  0.23623287787E+03  0.23770271374E+03  0.10566000000E+00 0. -1.
     200003    1    4    4    0    0  0.96472324122E+02  0.10796496907E+02  0.13265465483E+03  0.16709497633E+03  0.30000000000E+02 0. -1.
     200000    1    3    3    0    0 -0.81900473957E+02  0.24805222413E+03  0.57170564659E+03  0.80317179972E+03  0.50000000000E+03 0.  1.
    -200001    1    1    2    0    0  0.32900022658E+01 -0.27827938223E+03 -0.52883404169E+03  0.92038887561E+03  0.70000000000E+03 0. -1.
<mgrwt>
<rscale>  0 0.20881484E+04</rscale>
<asrwt>0</asrwt>
<pdfrwt beam="1">  1        3 0.12261423E+00 0.20881484E+04</pdfrwt>
<pdfrwt beam="2">  1       -3 0.18143697E+00 0.20881484E+04</pdfrwt>
<totfact> 0.25228668E-01</totfact>
</mgrwt>
</event>
<event>
 8    1  0.1206249E-029  0.2568921E+04  0.7818608E-02  0.8378835E-01
         -3   -1    0    0    0  501 -0.00000000000E+00  0.00000000000E+00  0.17264270590E+04  0.17264270620E+04  0.10100000000E+00 0. -1.
          3   -1    0    0  501    0  0.00000000000E+00 -0.00000000000E+00 -0.95563740545E+03  0.95563741079E+03  0.10100000000E+00 0.  1.
     200001    2    1    2    0    0  0.51646147294E+02  0.76956116726E+03 -0.39921336984E+03  0.11156038797E+04  0.70022067032E+03 0.  0.
    5000001    2    3    3    0    0  0.93352466832E+02  0.31277241841E+03 -0.75030258629E+02  0.36361314325E+03  0.14157580815E+03 0.  0.
        -13    1    4    4    0    0 -0.30738085782E+02  0.12492660256E+03 -0.28623623708E+02  0.13179836472E+03  0.10566000000E+00 0. -1.
     200003    1    4    4    0    0  0.12409055261E+03  0.18784581584E+03 -0.46406634921E+02  0.23181477853E+03  0.30000000000E+02 0. -1.
     200000    1    3    3    0    0 -0.41706319538E+02  0.45678874885E+03 -0.32418311121E+03  0.75199073649E+03  0.50000000000E+03 0.  1.
    -200001    1    1    2    0    0 -0.51646147294E+02 -0.76956116726E+03  0.11700030234E+04  0.15664605930E+04  0.70000000000E+03 0. -1.
<mgrwt>
<rscale>  0 0.25689206E+04</rscale>
<asrwt>0</asrwt>
<pdfrwt beam="1">  1        3 0.13651963E+00 0.25689206E+04</pdfrwt>
<pdfrwt beam="2">  1       -3 0.24663244E+00 0.25689206E+04</pdfrwt>
<totfact> 0.73386126E-02</totfact>
</mgrwt>
</event>
<event>
 8    1  0.1206249E-029  0.1633736E+04  0.7818608E-02  0.8800087E-01
         -3   -1    0    0    0  501 -0.00000000000E+00  0.00000000000E+00  0.82743581578E+03  0.82743582194E+03  0.10100000000E+00 0. -1.
          3   -1    0    0  501    0  0.00000000000E+00 -0.00000000000E+00 -0.80643504669E+03  0.80643505302E+03  0.10100000000E+00 0.  1.
     200001    2    1    2    0    0  0.15351130164E+03  0.39067382538E+03 -0.15303384580E+02  0.81685817668E+03  0.70059355525E+03 0.  0.
    5000001    2    3    3    0    0  0.15220225672E+03  0.15706501710E+03 -0.22229964932E+01  0.26482023826E+03  0.14929792473E+03 0.  0.
        -13    1    4    4    0    0 -0.23725000030E+02  0.46748884483E+02  0.14361586345E+02  0.54356233803E+02  0.10566000000E+00 0. -1.
     200003    1    4    4    0    0  0.17592725675E+03  0.11031613262E+03 -0.16584582838E+02  0.21046400446E+03  0.30000000000E+02 0. -1.
     200000    1    3    3    0    0  0.13090449230E+01  0.23360880828E+03 -0.13080388086E+02  0.55203793842E+03  0.50000000000E+03 0.  1.
    -200001    1    1    2    0    0 -0.15351130164E+03 -0.39067382538E+03  0.36304153666E+02  0.81701269828E+03  0.70000000000E+03 0. -1.
<mgrwt>
<rscale>  0 0.16337359E+04</rscale>
<asrwt>0</asrwt>
<pdfrwt beam="1">  1        3 0.11520501E+00 0.16337359E+04</pdfrwt>
<pdfrwt beam="2">  1       -3 0.11820512E+00 0.16337359E+04</pdfrwt>
<totfact> 0.92420324E-01</totfact>
</mgrwt>
</event>
<event>
 8    1  0.1206249E-029  0.1477000E+04  0.7818608E-02  0.8899894E-01
         -3   -1    0    0    0  501 -0.00000000000E+00  0.00000000000E+00  0.14252050087E+03  0.14252053666E+03  0.10100000000E+00 0. -1.
          3   -1    0    0  501    0  0.00000000000E+00 -0.00000000000E+00 -0.38266914272E+04  0.38266914286E+04  0.10100000000E+00 0.  1.
     200001    2    1    2    0    0  0.10911725854E+03 -0.20559358957E+03 -0.17545828865E+04  0.19034226963E+04  0.70020108173E+03 0.  0.
    5000001    2    3    3    0    0  0.27301952092E+02 -0.10321736910E+03 -0.51062071754E+03  0.55634567074E+03  0.19335916398E+03 0.  0.
        -13    1    4    4    0    0 -0.16825540249E+02  0.28678503202E+02 -0.83095977329E+01  0.34272670294E+02  0.10566000000E+00 0. -1.
     200003    1    4    4    0    0  0.44127492341E+02 -0.13189587230E+03 -0.50231111981E+03  0.52207300045E+03  0.30000000000E+02 0. -1.
     200000    1    3    3    0    0  0.81815306450E+02 -0.10237622048E+03 -0.12439621690E+04  0.13470770255E+04  0.50000000000E+03 0.  1.
    -200001    1    1    2    0    0 -0.10911725854E+03  0.20559358957E+03 -0.19295880399E+04  0.20657892690E+04  0.70000000000E+03 0.  1.
<mgrwt>
<rscale>  0 0.14769997E+04</rscale>
<asrwt>0</asrwt>
<pdfrwt beam="1">  1        3 0.54667014E+00 0.14769997E+04</pdfrwt>
<pdfrwt beam="2">  1       -3 0.20360077E-01 0.14769997E+04</pdfrwt>
<totfact> 0.11744782E-01</totfact>
</mgrwt>
</event>
<event>
 8    1  0.1206249E-029  0.1926238E+04  0.7818608E-02  0.8641905E-01
          3   -1    0    0  501    0  0.00000000000E+00  0.00000000000E+00  0.11362415026E+04  0.11362415071E+04  0.10100000000E+00 0.  1.
         -3   -1    0    0    0  501 -0.00000000000E+00 -0.00000000000E+00 -0.81637446136E+03  0.81637446761E+03  0.10100000000E+00 0. -1.
     200001    2    1    2    0    0  0.12654259678E+03  0.36784337371E+03  0.70236720532E+03  0.10651318047E+04  0.69990306039E+03 0.  0.
    5000001    2    3    3    0    0 -0.27209478899E+02  0.16465266105E+03  0.12757929756E+03  0.26182158731E+03  0.15627927529E+03 0.  0.
        -13    1    4    4    0    0 -0.13116167888E+02  0.18351638381E+03  0.79429624182E+02  0.20039803729E+03  0.10566000000E+00 0. -1.
     200003    1    4    4    0    0 -0.14093311011E+02 -0.18863722761E+02  0.48149673374E+02  0.61423550025E+02  0.30000000000E+02 0. -1.
     200000    1    3    3    0    0  0.15375207568E+03  0.20319071266E+03  0.57478790776E+03  0.80331021741E+03  0.50000000000E+03 0.  1.
    -200001    1    1    2    0    0 -0.12654259678E+03 -0.36784337371E+03 -0.38250016410E+03  0.88748416995E+03  0.70000000000E+03 0. -1.
<mgrwt>
<rscale>  0 0.19262384E+04</rscale>
<asrwt>0</asrwt>
<pdfrwt beam="1">  1        3 0.16232021E+00 0.19262384E+04</pdfrwt>
<pdfrwt beam="2">  1       -3 0.11662492E+00 0.19262384E+04</pdfrwt>
<totfact> 0.39222142E-01</totfact>
</mgrwt>
</event>
<event>
 8    1  0.1206249E-029  0.1581327E+04  0.7818608E-02  0.8832102E-01
         -3   -1    0    0    0  501 -0.00000000000E+00  0.00000000000E+00  0.48464076383E+03  0.48464077436E+03  0.10100000000E+00 0. -1.
          3   -1    0    0  501    0  0.00000000000E+00 -0.00000000000E+00 -0.12899220292E+04  0.12899220332E+04  0.10100000000E+00 0.  1.
     200001    2    1    2    0    0 -0.17665416283E+03  0.23522381875E+03 -0.15551207883E+03  0.77519454009E+03  0.70014686328E+03 0.  0.
    5000001    2    3    3    0    0  0.73019790408E+02  0.52360047327E+02  0.37111523809E+02  0.15642148466E+03  0.12254367106E+03 0.  0.
        -13    1    4    4    0    0 -0.26553031067E+02  0.26445427262E+02  0.31743380240E+02  0.49112904975E+02  0.10566000000E+00 0. -1.
     200003    1    4    4    0    0  0.99572821476E+02  0.25914620065E+02  0.53681435682E+01  0.10730857969E+03  0.30000000000E+02 0. -1.
     200000    1    3    3    0    0 -0.24967395324E+03  0.18286377143E+03 -0.19262360264E+03  0.61877305542E+03  0.50000000000E+03 0.  1.
    -200001    1    1    2    0    0  0.17665416283E+03 -0.23522381875E+03 -0.64976918654E+03  0.99936826742E+03  0.70000000000E+03 0.  1.
<mgrwt>
<rscale>  0 0.15813271E+04</rscale>
<asrwt>0</asrwt>
<pdfrwt beam="1">  1        3 0.18427458E+00 0.15813271E+04</pdfrwt>
<pdfrwt beam="2">  1       -3 0.69234396E-01 0.15813271E+04</pdfrwt>
<totfact> 0.94030273E-01</totfact>
</mgrwt>
</event>
<event>
 8    1  0.1206249E-029  0.1912885E+04  0.7818608E-02  0.8648469E-01
          3   -1    0    0  501    0  0.00000000000E+00  0.00000000000E+00  0.15881543802E+04  0.15881543834E+04  0.10100000000E+00 0.  1.
         -3   -1    0    0    0  501 -0.00000000000E+00 -0.00000000000E+00 -0.57600360869E+03  0.57600361754E+03  0.10100000000E+00 0. -1.
     200001    2    1    2    0    0 -0.70134868636E+02  0.64600333390E+03  0.56322914528E+03  0.11088050582E+04  0.69998741407E+03 0.  0.
    5000001    2    3    3    0    0  0.50799402287E+02  0.15574709201E+03  0.22203837270E+02  0.21567311697E+03  0.13850684839E+03 0.  0.
        -13    1    4    4    0    0  0.55204263324E+01  0.14376006049E+03  0.51501261808E+02  0.15280648295E+03  0.10566000000E+00 0. -1.
     200003    1    4    4    0    0  0.45278975954E+02  0.11987031519E+02 -0.29297424538E+02  0.62866634017E+02  0.30000000000E+02 0. -1.
     200000    1    3    3    0    0 -0.12093427092E+03  0.49025624189E+03  0.54102530801E+03  0.89313194126E+03  0.50000000000E+03 0.  1.
    -200001    1    1    2    0    0  0.70134868636E+02 -0.64600333390E+03  0.44892162622E+03  0.10553529427E+04  0.70000000000E+03 0.  1.
<mgrwt>
<rscale>  0 0.19128854E+04</rscale>
<asrwt>0</asrwt>
<pdfrwt beam="1">  1        3 0.22687920E+00 0.19128854E+04</pdfrwt>
<pdfrwt beam="2">  1       -3 0.82286230E-01 0.19128854E+04</pdfrwt>
<totfact> 0.33929234E-01</totfact>
</mgrwt>
</event>
<event>
 8    1  0.1206249E-029  0.2691056E+04  0.7818608E-02  0.8337913E-01
         -3   -1    0    0    0  501 -0.00000000000E+00  0.00000000000E+00  0.11048368284E+04  0.11048368330E+04  0.10100000000E+00 0. -1.
          3   -1    0    0  501    0  0.00000000000E+00 -0.00000000000E+00 -0.16386540607E+04  0.16386540638E+04  0.10100000000E+00 0.  1.
     200001    2    1    2    0    0  0.42056024386E+03 -0.10638603381E+04 -0.33842697779E+03  0.13881875769E+04  0.70983250958E+03 0.  0.
    5000001    2    3    3    0    0  0.16452504838E+03 -0.21531068033E+03 -0.11215395175E+03  0.34569535854E+03  0.18302893601E+03 0.  0.
        -13    1    4    4    0    0  0.39118898275E+02 -0.31348289060E+02 -0.11016425205E+03  0.12103378463E+03  0.10566000000E+00 0. -1.
     200003    1    4    4    0    0  0.12540615010E+03 -0.18396239127E+03 -0.19896996983E+01  0.22466157391E+03  0.30000000000E+02 0. -1.
     200000    1    3    3    0    0  0.25603519548E+03 -0.84854965772E+03 -0.22627302604E+03  0.10424922183E+04  0.50000000000E+03 0. -1.
    -200001    1    1    2    0    0 -0.42056024386E+03  0.10638603381E+04 -0.19539025448E+03  0.13553033200E+04  0.70000000000E+03 0.  1.
<mgrwt>
<rscale>  0 0.26910558E+04</rscale>
<asrwt>0</asrwt>
<pdfrwt beam="1">  1        3 0.23409344E+00 0.26910558E+04</pdfrwt>
<pdfrwt beam="2">  1       -3 0.15783383E+00 0.26910558E+04</pdfrwt>
<totfact> 0.59518002E-02</totfact>
</mgrwt>
</event>
<event>
 8    1  0.1206249E-029  0.1606475E+04  0.7818608E-02  0.8816580E-01
          3   -1    0    0  501    0  0.00000000000E+00  0.00000000000E+00  0.43227131367E+03  0.43227132547E+03  0.10100000000E+00 0. -1.
         -3   -1    0    0    0  501 -0.00000000000E+00 -0.00000000000E+00 -0.14925585739E+04  0.14925585773E+04  0.10100000000E+00 0.  1.
     200001    2    1    2    0    0 -0.22202873576E+03  0.26432218026E+03 -0.75898846649E+03  0.10882033806E+04  0.69925684183E+03 0.  0.
    5000001    2    3    3    0    0 -0.56437496941E+02  0.10312175008E+03 -0.22928733165E+03  0.32401143528E+03  0.19644704971E+03 0.  0.
        -13    1    4    4    0    0 -0.71423878116E+01  0.89987379068E+02 -0.24639158706E+03  0.26240725492E+03  0.10566000000E+00 0. -1.
     200003    1    4    4    0    0 -0.49295109130E+02  0.13134371010E+02  0.17104255406E+02  0.61604180369E+02  0.30000000000E+02 0. -1.
     200000    1    3    3    0    0 -0.16559123882E+03  0.16120043018E+03 -0.52970113484E+03  0.76419194533E+03  0.50000000000E+03 0.  1.
    -200001    1    1    2    0    0  0.22202873576E+03 -0.26432218026E+03 -0.30129879374E+03  0.83662652216E+03  0.70000000000E+03 0.  1.
<mgrwt>
<rscale>  0 0.16064747E+04</rscale>
<asrwt>0</asrwt>
<pdfrwt beam="1">  1        3 0.61753047E-01 0.16064747E+04</pdfrwt>
<pdfrwt beam="2">  1       -3 0.21322265E+00 0.16064747E+04</pdfrwt>
<totfact> 0.78102526E-01</totfact>
</mgrwt>
</event>
<event>
 8    1  0.1206249E-029  0.1817835E+04  0.7818608E-02  0.8696872E-01
         -3   -1    0    0    0  501 -0.00000000000E+00  0.00000000000E+00  0.90411888945E+03  0.90411889509E+03  0.10100000000E+00 0. -1.
          3   -1    0    0  501    0  0.00000000000E+00 -0.00000000000E+00 -0.91374192538E+03  0.91374193096E+03  0.10100000000E+00 0.  1.
     200001    2    1    2    0    0  0.88738932206E+01  0.22503313730E+02 -0.58400041371E+03  0.91204930194E+03  0.70013734427E+03 0.  0.
    5000001    2    3    3    0    0 -0.25231973919E+02  0.80298461525E+02 -0.19382871400E+03  0.27428959441E+03  0.17487342795E+03 0.  0.
        -13    1    4    4    0    0 -0.54860941075E+02 -0.39143206314E+02 -0.68985707280E+02  0.96441445599E+02  0.10566000000E+00 0. -1.
     200003    1    4    4    0    0  0.29628967155E+02  0.11944166784E+03 -0.12484300672E+03  0.17784814882E+03  0.30000000000E+02 0. -1.
     200000    1    3    3    0    0  0.34105867140E+02 -0.57795147794E+02 -0.39017169972E+03  0.63775970752E+03  0.50000000000E+03 0.  1.
    -200001    1    1    2    0    0 -0.88738932206E+01 -0.22503313730E+02  0.57437737778E+03  0.90581152411E+03  0.70000000000E+03 0. -1.
<mgrwt>
<rscale>  0 0.18178354E+04</rscale>
<asrwt>0</asrwt>
<pdfrwt beam="1">  1        3 0.13053456E+00 0.18178354E+04</pdfrwt>
<pdfrwt beam="2">  1       -3 0.12915984E+00 0.18178354E+04</pdfrwt>
<totfact> 0.53924755E-01</totfact>
</mgrwt>
</event>
<event>
 8    1  0.1206249E-029  0.1705038E+04  0.7818608E-02  0.8758496E-01
         -3   -1    0    0    0  501 -0.00000000000E+00  0.00000000000E+00  0.61565280843E+03  0.61565281671E+03  0.10100000000E+00 0. -1.
          3   -1    0    0  501    0  0.00000000000E+00 -0.00000000000E+00 -0.11805177359E+04  0.11805177402E+04  0.10100000000E+00 0.  1.
     200001    2    1    2    0    0 -0.59657517870E+02  0.43243066283E+03 -0.50855383040E+03  0.96929315537E+03  0.70024775976E+03 0.  0.
    5000001    2    3    3    0    0 -0.72970071399E+02  0.23997405068E+03 -0.19519485919E+03  0.34847867706E+03  0.14291318691E+03 0.  0.
        -13    1    4    4    0    0 -0.72630129389E+02  0.62457885159E+02 -0.11956262716E+03  0.15320364255E+03  0.10566000000E+00 0. -1.
     200003    1    4    4    0    0 -0.33994201075E+00  0.17751616552E+03 -0.75632232033E+02  0.19527503451E+03  0.30000000000E+02 0. -1.
     200000    1    3    3    0    0  0.13312553529E+02  0.19245661215E+03 -0.31335897121E+03  0.62081447831E+03  0.50000000000E+03 0.  1.
    -200001    1    1    2    0    0  0.59657517870E+02 -0.43243066283E+03 -0.56311097091E+02  0.82687740158E+03  0.70000000000E+03 0. -1.
<mgrwt>
<rscale>  0 0.17050385E+04</rscale>
<asrwt>0</asrwt>
<pdfrwt beam="1">  1        3 0.16864539E+00 0.17050385E+04</pdfrwt>
<pdfrwt beam="2">  1       -3 0.87950403E-01 0.17050385E+04</pdfrwt>
<totfact> 0.69853888E-01</totfact>
</mgrwt>
</event>
<event>
 8    1  0.1206249E-029  0.1508225E+04  0.7818608E-02  0.8879002E-01
          3   -1    0    0  501    0  0.00000000000E+00  0.00000000000E+00  0.16647712593E+04  0.16647712624E+04  0.10100000000E+00 0.  1.
         -3   -1    0    0    0  501 -0.00000000000E+00 -0.00000000000E+00 -0.34159993694E+03  0.34159995187E+03  0.10100000000E+00 0. -1.
     200001    2    1    2    0    0  0.23094071170E+03  0.65711330730E+02  0.46709090782E+03  0.87476825054E+03  0.69956699799E+03 0.  0.
    5000001    2    3    3    0    0  0.22177463869E+02 -0.71396891886E+02  0.10380438289E+03  0.20816652721E+03  0.16422118337E+03 0.  0.
        -13    1    4    4    0    0  0.21339738632E+02  0.35052384564E+02 -0.16965481200E+02  0.44405999875E+02  0.10566000000E+00 0. -1.
     200003    1    4    4    0    0  0.83772523679E+00 -0.10644927645E+03  0.12076986409E+03  0.16376052733E+03  0.30000000000E+02 0. -1.
     200000    1    3    3    0    0  0.20876324783E+03  0.13710822262E+03  0.36328652493E+03  0.66660172333E+03  0.50000000000E+03 0.  1.
    -200001    1    1    2    0    0 -0.23094071170E+03 -0.65711330730E+02  0.85608041456E+03  0.11316029637E+04  0.70000000000E+03 0. -1.
<mgrwt>
<rscale>  0 0.15082251E+04</rscale>
<asrwt>0</asrwt>
<pdfrwt beam="1">  1        3 0.23782446E+00 0.15082251E+04</pdfrwt>
<pdfrwt beam="2">  1       -3 0.48799993E-01 0.15082251E+04</pdfrwt>
<totfact> 0.92287191E-01</totfact>
</mgrwt>
</event>
<event>
 8    1  0.1206249E-029  0.1526148E+04  0.7818608E-02  0.8867249E-01
         -3   -1    0    0    0  501 -0.00000000000E+00  0.00000000000E+00  0.13424195425E+04  0.13424195463E+04  0.10100000000E+00 0. -1.
          3   -1    0    0  501    0  0.00000000000E+00 -0.00000000000E+00 -0.43375544653E+03  0.43375545829E+03  0.10100000000E+00 0.  1.
     200001    2    1    2    0    0 -0.16771338137E+03  0.22454169173E+02  0.74733972873E+03  0.10381658451E+04  0.70045676799E+03 0.  0.
    5000001    2    3    3    0    0 -0.57738348026E+02  0.31670176154E+02  0.37645145864E+03  0.40591783078E+03  0.13680960398E+03 0.  0.
        -13    1    4    4    0    0 -0.50701701344E+02  0.22185731565E+02  0.40888329624E+02  0.68809416999E+02  0.10566000000E+00 0. -1.
     200003    1    4    4    0    0 -0.70366466814E+01  0.94844445890E+01  0.33556312902E+03  0.33710841378E+03  0.30000000000E+02 0. -1.
     200000    1    3    3    0    0 -0.10997503335E+03 -0.92160069810E+01  0.37088827009E+03  0.63224801434E+03  0.50000000000E+03 0. -1.
    -200001    1    1    2    0    0  0.16771338137E+03 -0.22454169173E+02  0.16132436724E+03  0.73800915948E+03  0.70000000000E+03 0.  1.
<mgrwt>
<rscale>  0 0.15261478E+04</rscale>
<asrwt>0</asrwt>
<pdfrwt beam="1">  1        3 0.61965065E-01 0.15261478E+04</pdfrwt>
<pdfrwt beam="2">  1       -3 0.19177422E+00 0.15261478E+04</pdfrwt>
<totfact> 0.10649179E+00</totfact>
</mgrwt>
</event>
<event>
 8    1  0.1206249E-029  0.2172352E+04  0.7818608E-02  0.8530025E-01
         -3   -1    0    0    0  501 -0.00000000000E+00  0.00000000000E+00  0.84810517095E+03  0.84810517696E+03  0.10100000000E+00 0. -1.
          3   -1    0    0  501    0  0.00000000000E+00 -0.00000000000E+00 -0.13910756716E+04  0.13910756752E+04  0.10100000000E+00 0.  1.
     200001    2    1    2    0    0 -0.32859038778E+03 -0.68206119721E+03  0.80745362590E+02  0.10341079923E+04  0.69977168165E+03 0.  0.
    5000001    2    3    3    0    0 -0.42109152716E+02 -0.17623623302E+02 -0.77209399301E+02  0.14052056261E+03  0.10817099581E+03 0.  0.
        -13    1    4    4    0    0  0.24014496608E+00  0.33200638277E+02 -0.55557390831E+02  0.64722290531E+02  0.10566000000E+00 0. -1.
     200003    1    4    4    0    0 -0.42349297682E+02 -0.50824261578E+02 -0.21652008470E+02  0.75798272077E+02  0.30000000000E+02 0. -1.
     200000    1    3    3    0    0 -0.28648123506E+03 -0.66443757391E+03  0.15795476189E+03  0.89358742967E+03  0.50000000000E+03 0. -1.
    -200001    1    1    2    0    0  0.32859038778E+03  0.68206119721E+03 -0.62371586320E+03  0.12050728599E+04  0.70000000000E+03 0.  1.
<mgrwt>
<rscale>  0 0.21723522E+04</rscale>
<asrwt>0</asrwt>
<pdfrwt beam="1">  1        3 0.19872510E+00 0.21723522E+04</pdfrwt>
<pdfrwt beam="2">  1       -3 0.12115788E+00 0.21723522E+04</pdfrwt>
<totfact> 0.19982802E-01</totfact>
</mgrwt>
</event>
<event>
 8    1  0.1206249E-029  0.1464412E+04  0.7818608E-02  0.8908470E-01
         -3   -1    0    0    0  501 -0.00000000000E+00  0.00000000000E+00  0.20418450245E+04  0.20418450270E+04  0.10100000000E+00 0. -1.
          3   -1    0    0  501    0  0.00000000000E+00 -0.00000000000E+00 -0.26256914859E+03  0.26256916802E+03  0.10100000000E+00 0.  1.
     200001    2    1    2    0    0  0.18886118495E+03  0.10486886638E+03  0.87388178739E+03  0.11397664020E+04  0.69909373221E+03 0.  0.
    5000001    2    3    3    0    0 -0.62714431546E+02  0.36363461463E+02  0.32112159591E+03  0.35012907344E+03  0.11923039653E+03 0.  0.
        -13    1    4    4    0    0 -0.53003616625E+02  0.73316162606E+02  0.22261297937E+03  0.24029397167E+03  0.10566000000E+00 0. -1.
     200003    1    4    4    0    0 -0.97108149212E+01 -0.36952701143E+02  0.98508616540E+02  0.10983510177E+03  0.30000000000E+02 0. -1.
     200000    1    3    3    0    0  0.25157561649E+03  0.68505404921E+02  0.55276019149E+03  0.78963732853E+03  0.50000000000E+03 0. -1.
    -200001    1    1    2    0    0 -0.18886118495E+03 -0.10486886638E+03  0.90539408850E+03  0.11646477930E+04  0.70000000000E+03 0. -1.
<mgrwt>
<rscale>  0 0.14644119E+04</rscale>
<asrwt>0</asrwt>
<pdfrwt beam="1">  1        3 0.37509881E-01 0.14644119E+04</pdfrwt>
<pdfrwt beam="2">  1       -3 0.29169214E+00 0.14644119E+04</pdfrwt>
<totfact> 0.76432816E-01</totfact>
</mgrwt>
</event>
<event>
 8    1  0.1206249E-029  0.1509388E+04  0.7818608E-02  0.8878234E-01
         -3   -1    0    0    0  501 -0.00000000000E+00  0.00000000000E+00  0.10279999745E+04  0.10279999794E+04  0.10100000000E+00 0. -1.
          3   -1    0    0  501    0  0.00000000000E+00 -0.00000000000E+00 -0.55404994378E+03  0.55404995299E+03  0.10100000000E+00 0.  1.
     200001    2    1    2    0    0 -0.66181058477E+02 -0.23147142592E+03  0.90479329305E+02  0.74837809510E+03  0.70279748909E+03 0.  0.
    5000001    2    3    3    0    0  0.28286855446E+01 -0.96341912286E+02 -0.97389766046E+01  0.21633858617E+03  0.19343673559E+03 0.  0.
        -13    1    4    4    0    0  0.81724727373E+02 -0.46026458800E+01 -0.35201363328E+02  0.89102539568E+02  0.10566000000E+00 0. -1.
     200003    1    4    4    0    0 -0.78896041828E+02 -0.91739266406E+02  0.25462386724E+02  0.12723604660E+03  0.30000000000E+02 0. -1.
     200000    1    3    3    0    0 -0.69009744021E+02 -0.13512951364E+03  0.10021830591E+03  0.53203950893E+03  0.50000000000E+03 0. -1.
    -200001    1    1    2    0    0  0.66181058477E+02  0.23147142592E+03  0.38347070139E+03  0.83367183732E+03  0.70000000000E+03 0.  1.
<mgrwt>
<rscale>  0 0.15093884E+04</rscale>
<asrwt>0</asrwt>
<pdfrwt beam="1">  1        3 0.79149994E-01 0.15093884E+04</pdfrwt>
<pdfrwt beam="2">  1       -3 0.14685714E+00 0.15093884E+04</pdfrwt>
<totfact> 0.12909679E+00</totfact>
</mgrwt>
</event>
<event>
 8    1  0.1206249E-029  0.1443809E+04  0.7818608E-02  0.8922704E-01
          3   -1    0    0  501    0  0.00000000000E+00  0.00000000000E+00  0.10224748476E+04  0.10224748526E+04  0.10100000000E+00 0. -1.
         -3   -1    0    0    0  501 -0.00000000000E+00 -0.00000000000E+00 -0.50969107095E+03  0.50969108096E+03  0.10100000000E+00 0.  1.
     200001    2    1    2    0    0 -0.17030578467E+03  0.16226061335E+02  0.29223824442E+03  0.77856943864E+03  0.70107049141E+03 0.  0.
    5000001    2    3    3    0    0 -0.11756555375E+03  0.11992669108E+02 -0.98688863621E+00  0.19652095937E+03  0.15701601823E+03 0.  0.
        -13    1    4    4    0    0 -0.10696499261E+03  0.70509923732E+02 -0.13236352021E+02  0.12879585074E+03  0.10566000000E+00 0. -1.
     200003    1    4    4    0    0 -0.10600561134E+02 -0.58517254623E+02  0.12249463385E+02  0.67725108625E+02  0.30000000000E+02 0. -1.
     200000    1    3    3    0    0 -0.52740230923E+02  0.42333922263E+01  0.29322513306E+03  0.58204847927E+03  0.50000000000E+03 0. -1.
    -200001    1    1    2    0    0  0.17030578467E+03 -0.16226061335E+02  0.22054553223E+03  0.75359649491E+03  0.70000000000E+03 0. -1.
<mgrwt>
<rscale>  0 0.14438093E+04</rscale>
<asrwt>0</asrwt>
<pdfrwt beam="1">  1        3 0.14606784E+00 0.14438093E+04</pdfrwt>
<pdfrwt beam="2">  1       -3 0.72813012E-01 0.14438093E+04</pdfrwt>
<totfact> 0.15854614E+00</totfact>
</mgrwt>
</event>
<event>
 8    1  0.1206249E-029  0.1703814E+04  0.7818608E-02  0.8759192E-01
          3   -1    0    0  501    0  0.00000000000E+00  0.00000000000E+00  0.86269231540E+03  0.86269232131E+03  0.10100000000E+00 0. -1.
         -3   -1    0    0    0  501 -0.00000000000E+00 -0.00000000000E+00 -0.84125671010E+03  0.84125671617E+03  0.10100000000E+00 0.  1.
     200001    2    1    2    0    0  0.19145011351E+03 -0.15017211021E+03 -0.40813390302E+03  0.84736584180E+03  0.70160585687E+03 0.  0.
    5000001    2    3    3    0    0  0.13733699637E+02 -0.42052197977E+02 -0.25623993783E+02  0.18435236543E+03  0.17712200236E+03 0.  0.
        -13    1    4    4    0    0 -0.65778866454E+01 -0.84952332050E+01 -0.96980882328E+02  0.97574280838E+02  0.10566000000E+00 0. -1.
     200003    1    4    4    0    0  0.20311586283E+02 -0.33556964772E+02  0.71356888545E+02  0.86778084589E+02  0.30000000000E+02 0. -1.
     200000    1    3    3    0    0  0.17771641388E+03 -0.10811991223E+03 -0.38250990924E+03  0.66301347637E+03  0.50000000000E+03 0.  1.
    -200001    1    1    2    0    0 -0.19145011351E+03  0.15017211021E+03  0.42956950832E+03  0.85658319568E+03  0.70000000000E+03 0. -1.
<mgrwt>
<rscale>  0 0.17038142E+04</rscale>
<asrwt>0</asrwt>
<pdfrwt beam="1">  1        3 0.12324176E+00 0.17038142E+04</pdfrwt>
<pdfrwt beam="2">  1       -3 0.12017953E+00 0.17038142E+04</pdfrwt>
<totfact> 0.74927022E-01</totfact>
</mgrwt>
</event>
<event>
 8    1  0.1206249E-029  0.1548275E+04  0.7818608E-02  0.8852970E-01
         -3   -1    0    0    0  501 -0.00000000000E+00  0.00000000000E+00  0.61328663669E+03  0.61328664501E+03  0.10100000000E+00 0.  1.
          3   -1    0    0  501    0  0.00000000000E+00 -0.00000000000E+00 -0.97717546667E+03  0.97717547189E+03  0.10100000000E+00 0. -1.
     200001    2    1    2    0    0  0.17066487569E+03  0.25113384765E+03 -0.53256205979E+02  0.76663729552E+03  0.70192721145E+03 0.  0.
    5000001    2    3    3    0    0  0.10777619049E+03  0.12880799391E+03 -0.72632419215E+02  0.24770180930E+03  0.16695362074E+03 0.  0.
        -13    1    4    4    0    0  0.22692267371E+02  0.14217588160E+03 -0.30188807732E+02  0.14710640905E+03  0.10566000000E+00 0. -1.
     200003    1    4    4    0    0  0.85083923118E+02 -0.13367887698E+02 -0.42443611484E+02  0.10059540025E+03  0.30000000000E+02 0. -1.
     200000    1    3    3    0    0  0.62888685197E+02  0.12232585374E+03  0.19376213236E+02  0.51893548622E+03  0.50000000000E+03 0.  1.
    -200001    1    1    2    0    0 -0.17066487569E+03 -0.25113384765E+03 -0.31063262400E+03  0.82382482138E+03  0.70000000000E+03 0. -1.
<mgrwt>
<rscale>  0 0.15482747E+04</rscale>
<asrwt>0</asrwt>
<pdfrwt beam="1">  1        3 0.13959650E+00 0.15482747E+04</pdfrwt>
<pdfrwt beam="2">  1       -3 0.87612378E-01 0.15482747E+04</pdfrwt>
<totfact> 0.11693828E+00</totfact>
</mgrwt>
</event>
<event>
 8    1  0.1206249E-029  0.2061139E+04  0.7818608E-02  0.8578558E-01
          3   -1    0    0  501    0  0.00000000000E+00  0.00000000000E+00  0.78371809316E+03  0.78371809967E+03  0.10100000000E+00 0.  1.
         -3   -1    0    0    0  501 -0.00000000000E+00 -0.00000000000E+00 -0.13551723093E+04  0.13551723131E+04  0.10100000000E+00 0. -1.
     200001    2    1    2    0    0  0.36614716503E+03  0.14876570724E+03 -0.95475632889E+03  0.12483200945E+04  0.70039162521E+03 0.  0.
    5000001    2    3    3    0    0  0.18286793341E+03  0.62026638281E+02 -0.43217942836E+03  0.49718657787E+03  0.15207711858E+03 0.  0.
        -13    1    4    4    0    0  0.19034081580E+03  0.69246603581E+02 -0.41326422659E+03  0.46023043186E+03  0.10566000000E+00 0. -1.
     200003    1    4    4    0    0 -0.74728823877E+01 -0.72199653004E+01 -0.18915201764E+02  0.36956146010E+02  0.30000000000E+02 0. -1.
     200000    1    3    3    0    0  0.18327923162E+03  0.86739068962E+02 -0.52257690053E+03  0.75113351662E+03  0.50000000000E+03 0. -1.
    -200001    1    1    2    0    0 -0.36614716503E+03 -0.14876570724E+03  0.38330211273E+03  0.89057031824E+03  0.70000000000E+03 0.  1.
<mgrwt>
<rscale>  0 0.20611386E+04</rscale>
<asrwt>0</asrwt>
<pdfrwt beam="1">  1        3 0.11195973E+00 0.20611386E+04</pdfrwt>
<pdfrwt beam="2">  1       -3 0.19359604E+00 0.20611386E+04</pdfrwt>
<totfact> 0.26216843E-01</totfact>
</mgrwt>
</event>
<event>
 8    1  0.1206249E-029  0.2035551E+04  0.7818608E-02  0.8590177E-01
          3   -1    0    0  501    0  0.00000000000E+00  0.00000000000E+00  0.15979332900E+04  0.15979332932E+04  0.10100000000E+00 0.  1.
         -3   -1    0    0    0  501 -0.00000000000E+00 -0.00000000000E+00 -0.64825435411E+03  0.64825436198E+03  0.10100000000E+00 0. -1.
     200001    2    1    2    0    0  0.33772240175E+03 -0.53758532465E+01  0.11996924007E+04  0.14297367669E+04  0.70057122814E+03 0.  0.
    5000001    2    3    3    0    0 -0.13005808015E+02  0.10928731973E+02  0.40963940361E+03  0.43100764699E+03  0.13294571277E+03 0.  0.
        -13    1    4    4    0    0  0.10226744973E+02 -0.54991116392E+02  0.13756687136E+03  0.14850341563E+03  0.10566000000E+00 0. -1.
     200003    1    4    4    0    0 -0.23232552988E+02  0.65919848366E+02  0.27207253225E+03  0.28250423135E+03  0.30000000000E+02 0. -1.
     200000    1    3    3    0    0  0.35072820977E+03 -0.16304585220E+02  0.79005299712E+03  0.99872911987E+03  0.50000000000E+03 0.  1.
    -200001    1    1    2    0    0 -0.33772240175E+03  0.53758532465E+01 -0.25001346483E+03  0.81645088832E+03  0.70000000000E+03 0. -1.
<mgrwt>
<rscale>  0 0.20355513E+04</rscale>
<asrwt>0</asrwt>
<pdfrwt beam="1">  1        3 0.22827619E+00 0.20355513E+04</pdfrwt>
<pdfrwt beam="2">  1       -3 0.92607765E-01 0.20355513E+04</pdfrwt>
<totfact> 0.25197407E-01</totfact>
</mgrwt>
</event>
<event>
 8    1  0.1206249E-029  0.1552978E+04  0.7818608E-02  0.8849968E-01
          3   -1    0    0  501    0  0.00000000000E+00  0.00000000000E+00  0.63490661340E+03  0.63490662144E+03  0.10100000000E+00 0.  1.
         -3   -1    0    0    0  501 -0.00000000000E+00 -0.00000000000E+00 -0.94964389071E+03  0.94964389608E+03  0.10100000000E+00 0. -1.
     200001    2    1    2    0    0  0.11209808986E+03 -0.19637520823E+03  0.94975438078E+02  0.74253287322E+03  0.70086056375E+03 0.  0.
    5000001    2    3    3    0    0  0.46750407524E+02 -0.31209168492E+02  0.67158080708E+02  0.21119122641E+03  0.19217677671E+03 0.  0.
        -13    1    4    4    0    0  0.81277718665E+02  0.50423801843E+02  0.68433540381E+02  0.11760862195E+03  0.10566000000E+00 0. -1.
     200003    1    4    4    0    0 -0.34527311141E+02 -0.81632970335E+02 -0.12754596729E+01  0.93582604461E+02  0.30000000000E+02 0. -1.
     200000    1    3    3    0    0  0.65347682331E+02 -0.16516603974E+03  0.27817357371E+02  0.53134164681E+03  0.50000000000E+03 0.  1.
    -200001    1    1    2    0    0 -0.11209808986E+03  0.19637520823E+03 -0.40971271538E+03  0.84201764429E+03  0.70000000000E+03 0. -1.
<mgrwt>
<rscale>  0 0.15529780E+04</rscale>
<asrwt>0</asrwt>
<pdfrwt beam="1">  1        3 0.90700946E-01 0.15529780E+04</pdfrwt>
<pdfrwt beam="2">  1       -3 0.13566341E+00 0.15529780E+04</pdfrwt>
<totfact> 0.11591324E+00</totfact>
</mgrwt>
</event>
<event>
 8    1  0.1206249E-029  0.1603522E+04  0.7818608E-02  0.8818387E-01
         -3   -1    0    0    0  501 -0.00000000000E+00  0.00000000000E+00  0.10886119070E+04  0.10886119117E+04  0.10100000000E+00 0. -1.
          3   -1    0    0  501    0  0.00000000000E+00 -0.00000000000E+00 -0.59049578333E+03  0.59049579197E+03  0.10100000000E+00 0.  1.
     200001    2    1    2    0    0  0.14237077473E+03 -0.28274314183E+03  0.48875806095E+03  0.91079741795E+03  0.70032447669E+03 0.  0.
    5000001    2    3    3    0    0  0.28910934900E+02 -0.13498713366E+03  0.25326071249E+03  0.32756163858E+03  0.15523617545E+03 0.  0.
        -13    1    4    4    0    0  0.40823973808E+02 -0.69435596636E+02  0.24018714091E+03  0.25333332339E+03  0.10566000000E+00 0. -1.
     200003    1    4    4    0    0 -0.11913038909E+02 -0.65551537023E+02  0.13073571580E+02  0.74228315190E+02  0.30000000000E+02 0. -1.
     200000    1    3    3    0    0  0.11345983983E+03 -0.14775600817E+03  0.23549734846E+03  0.58323577937E+03  0.50000000000E+03 0. -1.
    -200001    1    1    2    0    0 -0.14237077473E+03  0.28274314183E+03  0.93580626898E+01  0.76831028568E+03  0.70000000000E+03 0.  1.
<mgrwt>
<rscale>  0 0.16035221E+04</rscale>
<asrwt>0</asrwt>
<pdfrwt beam="1">  1        3 0.84356542E-01 0.16035221E+04</pdfrwt>
<pdfrwt beam="2">  1       -3 0.15551599E+00 0.16035221E+04</pdfrwt>
<totfact> 0.95755019E-01</totfact>
</mgrwt>
</event>
<event>
 8    1  0.1206249E-029  0.1489160E+04  0.7818608E-02  0.8891694E-01
         -3   -1    0    0    0  501 -0.00000000000E+00  0.00000000000E+00  0.53934129143E+03  0.53934130088E+03  0.10100000000E+00 0.  1.
          3   -1    0    0  501    0  0.00000000000E+00 -0.00000000000E+00 -0.10279187451E+04  0.10279187500E+04  0.10100000000E+00 0. -1.
     200001    2    1    2    0    0 -0.10084521808E+03 -0.15667040303E+03 -0.42432235081E+03  0.84004337656E+03  0.70064830259E+03 0.  0.
    5000001    2    3    3    0    0  0.45406502076E+02 -0.82879315939E+02 -0.45648008093E+02  0.19179269356E+03  0.16053026263E+03 0.  0.
        -13    1    4    4    0    0  0.50275623546E+02 -0.12421737313E+03 -0.41647688149E+02  0.14032866850E+03  0.10566000000E+00 0. -1.
     200003    1    4    4    0    0 -0.48691214702E+01  0.41338057189E+02 -0.40003199440E+01  0.51464025063E+02  0.30000000000E+02 0. -1.
     200000    1    3    3    0    0 -0.14625172015E+03 -0.73791087090E+02 -0.37867434272E+03  0.64825068300E+03  0.50000000000E+03 0. -1.
    -200001    1    1    2    0    0  0.10084521808E+03  0.15667040303E+03 -0.64255102814E+02  0.72721667434E+03  0.70000000000E+03 0.  1.
<mgrwt>
<rscale>  0 0.14891595E+04</rscale>
<asrwt>0</asrwt>
<pdfrwt beam="1">  1        3 0.14684554E+00 0.14891595E+04</pdfrwt>
<pdfrwt beam="2">  1       -3 0.77048757E-01 0.14891595E+04</pdfrwt>
<totfact> 0.13763190E+00</totfact>
</mgrwt>
</event>
<event>
 8    1  0.1206249E-029  0.2272577E+04  0.7818608E-02  0.8488813E-01
          3   -1    0    0  501    0  0.00000000000E+00  0.00000000000E+00  0.25103154465E+04  0.25103154485E+04  0.10100000000E+00 0.  1.
         -3   -1    0    0    0  501 -0.00000000000E+00 -0.00000000000E+00 -0.51433843427E+03  0.51433844418E+03  0.10100000000E+00 0. -1.
     200001    2    1    2    0    0 -0.35905577846E+02  0.82917239668E+03  0.55384816826E+03  0.12195080048E+04  0.70116753091E+03 0.  0.
    5000001    2    3    3    0    0  0.17097022290E+02  0.26202294170E+03  0.80931358350E+02  0.32613345347E+03  0.17568384833E+03 0.  0.
        -13    1    4    4    0    0  0.57787378183E+02  0.17948404941E+03  0.11805774446E+03  0.22246695769E+03  0.10566000000E+00 0. -1.
     200003    1    4    4    0    0 -0.40690355893E+02  0.82538892284E+02 -0.37126386114E+02  0.10366649578E+03  0.30000000000E+02 0. -1.
     200000    1    3    3    0    0 -0.53002600135E+02  0.56714945498E+03  0.47291680991E+03  0.89337455135E+03  0.50000000000E+03 0. -1.
    -200001    1    1    2    0    0  0.35905577846E+02 -0.82917239668E+03  0.14421288439E+04  0.18051458879E+04  0.70000000000E+03 0. -1.
<mgrwt>
<rscale>  0 0.22725772E+04</rscale>
<asrwt>0</asrwt>
<pdfrwt beam="1">  1        3 0.35861651E+00 0.22725772E+04</pdfrwt>
<pdfrwt beam="2">  1       -3 0.73476917E-01 0.22725772E+04</pdfrwt>
<totfact> 0.77781685E-02</totfact>
</mgrwt>
</event>
<event>
 8    1  0.1206249E-029  0.1575061E+04  0.7818608E-02  0.8836017E-01
         -3   -1    0    0    0  501 -0.00000000000E+00  0.00000000000E+00  0.45817117840E+03  0.45817118954E+03  0.10100000000E+00 0. -1.
          3   -1    0    0  501    0  0.00000000000E+00 -0.00000000000E+00 -0.13536520900E+04  0.13536520937E+04  0.10100000000E+00 0.  1.
     200001    2    1    2    0    0  0.35324624841E+03 -0.62613186886E+02 -0.39613243548E+03  0.88013008068E+03  0.69928873099E+03 0.  0.
    5000001    2    3    3    0    0  0.18463319389E+03 -0.38703068444E+02 -0.11144256000E+03  0.28008809788E+03  0.17447794876E+03 0.  0.
        -13    1    4    4    0    0  0.65192865728E+02 -0.95463102720E+02 -0.80881775599E+02  0.14108574170E+03  0.10566000000E+00 0. -1.
     200003    1    4    4    0    0  0.11944032816E+03  0.56760034276E+02 -0.30560784406E+02  0.13900235618E+03  0.30000000000E+02 0. -1.
     200000    1    3    3    0    0  0.16861305453E+03 -0.23910118443E+02 -0.28468987548E+03  0.60004198280E+03  0.50000000000E+03 0.  1.
    -200001    1    1    2    0    0 -0.35324624841E+03  0.62613186886E+02 -0.49934847608E+03  0.93169320259E+03  0.70000000000E+03 0. -1.
<mgrwt>
<rscale>  0 0.15750611E+04</rscale>
<asrwt>0</asrwt>
<pdfrwt beam="1">  1        3 0.19337887E+00 0.15750611E+04</pdfrwt>
<pdfrwt beam="2">  1       -3 0.65453027E-01 0.15750611E+04</pdfrwt>
<totfact> 0.92669067E-01</totfact>
</mgrwt>
</event>
<event>
 8    1  0.1206249E-029  0.1464937E+04  0.7818608E-02  0.8908110E-01
         -3   -1    0    0    0  501 -0.00000000000E+00  0.00000000000E+00  0.48060011956E+03  0.48060013017E+03  0.10100000000E+00 0.  1.
          3   -1    0    0  501    0  0.00000000000E+00 -0.00000000000E+00 -0.11163333448E+04  0.11163333494E+04  0.10100000000E+00 0. -1.
     200001    2    1    2    0    0  0.82292008390E+02 -0.15109373973E+03 -0.45935465274E+03  0.85483463597E+03  0.70009589703E+03 0.  0.
    5000001    2    3    3    0    0  0.36345841130E+02 -0.96255456172E+02 -0.16099180183E+03  0.26820129356E+03  0.18822178567E+03 0.  0.
        -13    1    4    4    0    0 -0.39855361275E+02 -0.20247053200E+01 -0.13487455667E+03  0.14065456428E+03  0.10566000000E+00 0. -1.
     200003    1    4    4    0    0  0.76201202404E+02 -0.94230750852E+02 -0.26117245160E+02  0.12754672927E+03  0.30000000000E+02 0. -1.
     200000    1    3    3    0    0  0.45946167260E+02 -0.54838283556E+02 -0.29836285091E+03  0.58663334241E+03  0.50000000000E+03 0. -1.
    -200001    1    1    2    0    0 -0.82292008390E+02  0.15109373973E+03 -0.17637857254E+03  0.74209884361E+03  0.70000000000E+03 0.  1.
<mgrwt>
<rscale>  0 0.14649368E+04</rscale>
<asrwt>0</asrwt>
<pdfrwt beam="1">  1        3 0.15947619E+00 0.14649368E+04</pdfrwt>
<pdfrwt beam="2">  1       -3 0.68657161E-01 0.14649368E+04</pdfrwt>
<totfact> 0.14309984E+00</totfact>
</mgrwt>
</event>
<event>
 8    1  0.1206249E-029  0.1484881E+04  0.7818608E-02  0.8894570E-01
         -3   -1    0    0    0  501 -0.00000000000E+00  0.00000000000E+00  0.79660876214E+03  0.79660876854E+03  0.10100000000E+00 0.  1.
          3   -1    0    0  501    0  0.00000000000E+00 -0.00000000000E+00 -0.69195568587E+03  0.69195569324E+03  0.10100000000E+00 0. -1.
     200001    2    1    2    0    0  0.69436084030E+01  0.68536200986E+02  0.29013273324E+03  0.76113877644E+03  0.70029265994E+03 0.  0.
    5000001    2    3    3    0    0 -0.13177969233E+02 -0.47757878284E+01  0.11760864859E+03  0.22677552417E+03  0.19338789289E+03 0.  0.
        -13    1    4    4    0    0  0.67200152459E+02  0.38299599838E+02  0.31847103270E+01  0.77413651136E+02  0.10566000000E+00 0. -1.
     200003    1    4    4    0    0 -0.80378121692E+02 -0.43075387666E+02  0.11442393826E+03  0.14936187304E+03  0.30000000000E+02 0. -1.
     200000    1    3    3    0    0  0.20121577636E+02  0.73311988814E+02  0.17252408465E+03  0.53436325227E+03  0.50000000000E+03 0.  1.
    -200001    1    1    2    0    0 -0.69436084030E+01 -0.68536200986E+02 -0.18547965698E+03  0.72742568534E+03  0.70000000000E+03 0. -1.
<mgrwt>
<rscale>  0 0.14848811E+04</rscale>
<asrwt>0</asrwt>
<pdfrwt beam="1">  1        3 0.98850813E-01 0.14848811E+04</pdfrwt>
<pdfrwt beam="2">  1       -3 0.11380125E+00 0.14848811E+04</pdfrwt>
<totfact> 0.14723688E+00</totfact>
</mgrwt>
</event>
<event>
 8    1  0.1206249E-029  0.1618655E+04  0.7818608E-02  0.8809169E-01
          3   -1    0    0  501    0  0.00000000000E+00  0.00000000000E+00  0.80447826783E+03  0.80447827417E+03  0.10100000000E+00 0.  1.
         -3   -1    0    0    0  501 -0.00000000000E+00 -0.00000000000E+00 -0.81420568536E+03  0.81420569163E+03  0.10100000000E+00 0. -1.
     200001    2    1    2    0    0  0.29267244402E+03  0.84444241855E+02  0.26374104536E+03  0.80777522268E+03  0.70010962134E+03 0.  0.
    5000001    2    3    3    0    0  0.54442321958E+02 -0.95002770576E+01  0.13484692067E+03  0.23141347944E+03  0.17976174445E+03 0.  0.
        -13    1    4    4    0    0  0.99620024581E+02 -0.54180247269E+02  0.10674117689E+03  0.15573483393E+03  0.10566000000E+00 0. -1.
     200003    1    4    4    0    0 -0.45177702623E+02  0.44679970211E+02  0.28105743781E+02  0.75678645507E+02  0.30000000000E+02 0. -1.
     200000    1    3    3    0    0  0.23823012206E+03  0.93944518912E+02  0.12889412469E+03  0.57636174324E+03  0.50000000000E+03 0.  1.
    -200001    1    1    2    0    0 -0.29267244402E+03 -0.84444241855E+02 -0.27346846289E+03  0.81090874312E+03  0.70000000000E+03 0. -1.
<mgrwt>
<rscale>  0 0.16186547E+04</rscale>
<asrwt>0</asrwt>
<pdfrwt beam="1">  1        3 0.11492547E+00 0.16186547E+04</pdfrwt>
<pdfrwt beam="2">  1       -3 0.11631510E+00 0.16186547E+04</pdfrwt>
<totfact> 0.96762260E-01</totfact>
</mgrwt>
</event>
<event>
 8    1  0.1206249E-029  0.1872295E+04  0.7818608E-02  0.8668771E-01
          3   -1    0    0  501    0  0.00000000000E+00  0.00000000000E+00  0.50877910573E+04  0.50877910583E+04  0.10100000000E+00 0.  1.
         -3   -1    0    0    0  501 -0.00000000000E+00 -0.00000000000E+00 -0.17225006575E+03  0.17225009536E+03  0.10100000000E+00 0. -1.
     200001    2    1    2    0    0 -0.14153493353E+03 -0.55374003622E+03  0.31460040933E+04  0.32731035605E+04  0.69943191024E+03 0.  0.
    5000001    2    3    3    0    0 -0.10820648961E+03 -0.30300684762E+03  0.10973023921E+04  0.11491552142E+04  0.11385680678E+03 0.  0.
        -13    1    4    4    0    0 -0.28801976169E+02 -0.19598421309E+03  0.75629737299E+03  0.78180885974E+03  0.10566000000E+00 0. -1.
     200003    1    4    4    0    0 -0.79404513439E+02 -0.10702263454E+03  0.34100501914E+03  0.36734635446E+03  0.30000000000E+02 0. -1.
     200000    1    3    3    0    0 -0.33328443923E+02 -0.25073318859E+03  0.20487017012E+04  0.21239483463E+04  0.50000000000E+03 0.  1.
    -200001    1    1    2    0    0  0.14153493353E+03  0.55374003622E+03  0.17695368982E+04  0.19869375932E+04  0.70000000000E+03 0. -1.
<mgrwt>
<rscale>  0 0.18722953E+04</rscale>
<asrwt>0</asrwt>
<pdfrwt beam="1">  1        3 0.72682727E+00 0.18722953E+04</pdfrwt>
<pdfrwt beam="2">  1       -3 0.24607155E-01 0.18722953E+04</pdfrwt>
<totfact> 0.89571438E-03</totfact>
</mgrwt>
</event>
<event>
 8    1  0.1206249E-029  0.1520233E+04  0.7818608E-02  0.8871108E-01
         -3   -1    0    0    0  501 -0.00000000000E+00  0.00000000000E+00  0.15947580685E+04  0.15947580717E+04  0.10100000000E+00 0. -1.
          3   -1    0    0  501    0  0.00000000000E+00 -0.00000000000E+00 -0.36229774434E+03  0.36229775842E+03  0.10100000000E+00 0.  1.
     200001    2    1    2    0    0 -0.10775319028E+03 -0.48905414548E+02  0.96546624907E+03  0.11985781932E+04  0.70033000618E+03 0.  0.
    5000001    2    3    3    0    0 -0.87936809578E+01 -0.27342494572E+01  0.91373632979E+02  0.18568004311E+03  0.16137884825E+03 0.  0.
        -13    1    4    4    0    0 -0.23744018163E+01  0.14316987635E+02  0.13154034534E+03  0.13233853382E+03  0.10566000000E+00 0. -1.
     200003    1    4    4    0    0 -0.64192791415E+01 -0.17051237093E+02 -0.40166712360E+02  0.53341509286E+02  0.30000000000E+02 0. -1.
     200000    1    3    3    0    0 -0.98959509318E+02 -0.46171165091E+02  0.87409261609E+03  0.10128981501E+04  0.50000000000E+03 0. -1.
    -200001    1    1    2    0    0  0.10775319028E+03  0.48905414548E+02  0.26699407512E+03  0.75847763694E+03  0.70000000000E+03 0.  1.
<mgrwt>
<rscale>  0 0.15202332E+04</rscale>
<asrwt>0</asrwt>
<pdfrwt beam="1">  1        3 0.51756820E-01 0.15202332E+04</pdfrwt>
<pdfrwt beam="2">  1       -3 0.22782259E+00 0.15202332E+04</pdfrwt>
<totfact> 0.92801975E-01</totfact>
</mgrwt>
</event>
<event>
 8    1  0.1206249E-029  0.2412199E+04  0.7818608E-02  0.8434951E-01
          3   -1    0    0  501    0  0.00000000000E+00  0.00000000000E+00  0.26524729475E+04  0.26524729495E+04  0.10100000000E+00 0.  1.
         -3   -1    0    0    0  501 -0.00000000000E+00 -0.00000000000E+00 -0.54842244217E+03  0.54842245147E+03  0.10100000000E+00 0. -1.
     200001    2    1    2    0    0 -0.46541360219E+03  0.21747883747E+02  0.21993996886E+04  0.23546246060E+04  0.69986802565E+03 0.  0.
    5000001    2    3    3    0    0 -0.16264478864E+03  0.72679840767E+00  0.53083295911E+03  0.58651098654E+03  0.18909693638E+03 0.  0.
        -13    1    4    4    0    0 -0.47190614276E+02 -0.73951092946E+02  0.32873443111E+03  0.34023823358E+03  0.10566000000E+00 0. -1.
     200003    1    4    4    0    0 -0.11545417436E+03  0.74677891354E+02  0.20209852800E+03  0.24627275297E+03  0.30000000000E+02 0. -1.
     200000    1    3    3    0    0 -0.30276881355E+03  0.21021085339E+02  0.16685667295E+04  0.17681136195E+04  0.50000000000E+03 0.  1.
    -200001    1    1    2    0    0  0.46541360219E+03 -0.21747883747E+02 -0.95349183277E+02  0.84627079490E+03  0.70000000000E+03 0. -1.
<mgrwt>
<rscale>  0 0.24121988E+04</rscale>
<asrwt>0</asrwt>
<pdfrwt beam="1">  1        3 0.37892471E+00 0.24121988E+04</pdfrwt>
<pdfrwt beam="2">  1       -3 0.78346064E-01 0.24121988E+04</pdfrwt>
<totfact> 0.51864765E-02</totfact>
</mgrwt>
</event>
<event>
 8    1  0.1206249E-029  0.1483083E+04  0.7818608E-02  0.8895781E-01
         -3   -1    0    0    0  501 -0.00000000000E+00  0.00000000000E+00  0.62730473052E+03  0.62730473865E+03  0.10100000000E+00 0. -1.
          3   -1    0    0  501    0  0.00000000000E+00 -0.00000000000E+00 -0.87658198088E+03  0.87658198670E+03  0.10100000000E+00 0.  1.
     200001    2    1    2    0    0  0.13265047832E+03  0.15351277441E+03  0.15570742681E+02  0.72844699157E+03  0.69944996261E+03 0.  0.
    5000001    2    3    3    0    0  0.19483734147E+02  0.76004327797E+02 -0.18625112608E+02  0.20884750370E+03  0.19265023032E+03 0.  0.
        -13    1    4    4    0    0  0.67569381866E+02 -0.18146424892E+02 -0.59253908836E+02  0.91683973401E+02  0.10566000000E+00 0. -1.
     200003    1    4    4    0    0 -0.48085647719E+02  0.94150752689E+02  0.40628796228E+02  0.11716353030E+03  0.30000000000E+02 0. -1.
     200000    1    3    3    0    0  0.11316674417E+03  0.77508446610E+02  0.34195855289E+02  0.51959948788E+03  0.50000000000E+03 0.  1.
    -200001    1    1    2    0    0 -0.13265047832E+03 -0.15351277441E+03 -0.26484799305E+03  0.77543973378E+03  0.70000000000E+03 0. -1.
<mgrwt>
<rscale>  0 0.14830833E+04</rscale>
<asrwt>0</asrwt>
<pdfrwt beam="1">  1        3 0.12522600E+00 0.14830833E+04</pdfrwt>
<pdfrwt beam="2">  1       -3 0.89614962E-01 0.14830833E+04</pdfrwt>
<totfact> 0.14638931E+00</totfact>
</mgrwt>
</event>
<event>
 8    1  0.1206249E-029  0.1549507E+04  0.7818608E-02  0.8852183E-01
          3   -1    0    0  501    0  0.00000000000E+00  0.00000000000E+00  0.25002492369E+04  0.25002492389E+04  0.10100000000E+00 0.  1.
         -3   -1    0    0    0  501 -0.00000000000E+00 -0.00000000000E+00 -0.24007318063E+03  0.24007320187E+03  0.10100000000E+00 0. -1.
     200001    2    1    2    0    0 -0.42851114765E+02  0.31641031825E+03  0.97945047851E+03  0.12462643050E+04  0.70135566628E+03 0.  0.
    5000001    2    3    3    0    0  0.37755769509E+02 -0.31727692959E+01  0.11210706427E+03  0.19226458119E+03  0.15153254015E+03 0.  0.
        -13    1    4    4    0    0  0.10746995703E+02  0.66969793108E+02  0.80792194777E+02  0.10548858235E+03  0.10566000000E+00 0. -1.
     200003    1    4    4    0    0  0.27008773805E+02 -0.70142562403E+02  0.31314869492E+02  0.86775998838E+02  0.30000000000E+02 0. -1.
     200000    1    3    3    0    0 -0.80606884274E+02  0.31958308755E+03  0.86734341424E+03  0.10539997238E+04  0.50000000000E+03 0. -1.
    -200001    1    1    2    0    0  0.42851114765E+02 -0.31641031825E+03  0.12807255778E+04  0.14940581358E+04  0.70000000000E+03 0.  1.
<mgrwt>
<rscale>  0 0.15495068E+04</rscale>
<asrwt>0</asrwt>
<pdfrwt beam="1">  1        3 0.35717846E+00 0.15495068E+04</pdfrwt>
<pdfrwt beam="2">  1       -3 0.34296171E-01 0.15495068E+04</pdfrwt>
<totfact> 0.40423213E-01</totfact>
</mgrwt>
</event>
<event>
 8    1  0.1206249E-029  0.2028735E+04  0.7818608E-02  0.8593303E-01
          3   -1    0    0  501    0  0.00000000000E+00  0.00000000000E+00  0.37110913300E+03  0.37110914674E+03  0.10100000000E+00 0.  1.
         -3   -1    0    0    0  501 -0.00000000000E+00 -0.00000000000E+00 -0.27726114905E+04  0.27726114923E+04  0.10100000000E+00 0. -1.
     200001    2    1    2    0    0 -0.63860276551E+03 -0.32058185302E+03 -0.14620893580E+04  0.17714659250E+04  0.69985713977E+03 0.  0.
    5000001    2    3    3    0    0 -0.19551398036E+03 -0.17943361953E+03 -0.44662506174E+03  0.54777550978E+03  0.17367188319E+03 0.  0.
        -13    1    4    4    0    0 -0.18512646795E+03 -0.10114839430E+03 -0.39761184080E+03  0.45010886896E+03  0.10566000000E+00 0. -1.
     200003    1    4    4    0    0 -0.10387512411E+02 -0.78285225225E+02 -0.49013220936E+02  0.97666640821E+02  0.30000000000E+02 0. -1.
     200000    1    3    3    0    0 -0.44308878515E+03 -0.14114823350E+03 -0.10154642963E+04  0.12236904153E+04  0.50000000000E+03 0.  1.
    -200001    1    1    2    0    0  0.63860276551E+03  0.32058185302E+03 -0.93941299942E+03  0.13722547140E+04  0.70000000000E+03 0. -1.
<mgrwt>
<rscale>  0 0.20287350E+04</rscale>
<asrwt>0</asrwt>
<pdfrwt beam="1">  1        3 0.53015593E-01 0.20287350E+04</pdfrwt>
<pdfrwt beam="2">  1       -3 0.39608735E+00 0.20287350E+04</pdfrwt>
<totfact> 0.95609754E-02</totfact>
</mgrwt>
</event>
<event>
 8    1  0.1206249E-029  0.2342886E+04  0.7818608E-02  0.8461201E-01
         -3   -1    0    0    0  501 -0.00000000000E+00  0.00000000000E+00  0.78738401341E+03  0.78738401989E+03  0.10100000000E+00 0. -1.
          3   -1    0    0  501    0  0.00000000000E+00 -0.00000000000E+00 -0.17428324369E+04  0.17428324399E+04  0.10100000000E+00 0.  1.
     200001    2    1    2    0    0 -0.36644996326E+03  0.85459941550E+03 -0.62090999357E+03  0.13192079141E+04  0.70011039409E+03 0.  0.
    5000001    2    3    3    0    0 -0.13436630558E+03  0.17882363164E+03 -0.21704277597E+03  0.35814367915E+03  0.17642883269E+03 0.  0.
        -13    1    4    4    0    0 -0.11513114439E+03  0.15024625817E+03 -0.24109189276E+03  0.30651986954E+03  0.10566000000E+00 0. -1.
     200003    1    4    4    0    0 -0.19235161188E+02  0.28577373472E+02  0.24049116789E+02  0.51623809612E+02  0.30000000000E+02 0. -1.
     200000    1    3    3    0    0 -0.23208365768E+03  0.67577578386E+03 -0.40386721760E+03  0.96106423493E+03  0.50000000000E+03 0.  1.
    -200001    1    1    2    0    0  0.36644996326E+03 -0.85459941550E+03 -0.33453842994E+03  0.12110085457E+04  0.70000000000E+03 0. -1.
<mgrwt>
<rscale>  0 0.23428858E+04</rscale>
<asrwt>0</asrwt>
<pdfrwt beam="1">  1        3 0.24897606E+00 0.23428858E+04</pdfrwt>
<pdfrwt beam="2">  1       -3 0.11248343E+00 0.23428858E+04</pdfrwt>
<totfact> 0.11763309E-01</totfact>
</mgrwt>
</event>
<event>
 8    1  0.1206249E-029  0.2038554E+04  0.7818608E-02  0.8588805E-01
          3   -1    0    0  501    0  0.00000000000E+00  0.00000000000E+00  0.12023238061E+04  0.12023238103E+04  0.10100000000E+00 0.  1.
         -3   -1    0    0    0  501 -0.00000000000E+00 -0.00000000000E+00 -0.86409798824E+03  0.86409799414E+03  0.10100000000E+00 0. -1.
     200001    2    1    2    0    0 -0.24416801108E+02  0.49808358632E+03  0.72462861148E+03  0.11240892951E+04  0.69986190048E+03 0.  0.
    5000001    2    3    3    0    0  0.13499814533E+02  0.15830027156E+03  0.23028735129E+03  0.34225577562E+03  0.19714342700E+03 0.  0.
        -13    1    4    4    0    0 -0.77995665796E+02  0.31190359646E+02  0.37297292946E+02  0.91908985649E+02  0.10566000000E+00 0. -1.
     200003    1    4    4    0    0  0.91495480329E+02  0.12710991192E+03  0.19299005835E+03  0.25034678997E+03  0.30000000000E+02 0. -1.
     200000    1    3    3    0    0 -0.37916615641E+02  0.33978331476E+03  0.49434126018E+03  0.78183351952E+03  0.50000000000E+03 0.  1.
    -200001    1    1    2    0    0  0.24416801108E+02 -0.49808358632E+03 -0.38640279365E+03  0.94233250930E+03  0.70000000000E+03 0. -1.
<mgrwt>
<rscale>  0 0.20385540E+04</rscale>
<asrwt>0</asrwt>
<pdfrwt beam="1">  1        3 0.17176054E+00 0.20385540E+04</pdfrwt>
<pdfrwt beam="2">  1       -3 0.12344257E+00 0.20385540E+04</pdfrwt>
<totfact> 0.29054841E-01</totfact>
</mgrwt>
</event>
<event>
 8    1  0.1206249E-029  0.3026908E+04  0.7818608E-02  0.8236089E-01
          3   -1    0    0  501    0  0.00000000000E+00  0.00000000000E+00  0.18298880678E+04  0.18298880706E+04  0.10100000000E+00 0. -1.
         -3   -1    0    0    0  501 -0.00000000000E+00 -0.00000000000E+00 -0.12517397130E+04  0.12517397171E+04  0.10100000000E+00 0.  1.
     200001    2    1    2    0    0 -0.13240324241E+04 -0.97533598203E+02  0.48504214601E+03  0.15778846484E+04  0.70134115609E+03 0.  0.
    5000001    2    3    3    0    0 -0.45014205153E+03 -0.44219731179E+02  0.10170904998E+03  0.49924151264E+03  0.18524067025E+03 0.  0.
        -13    1    4    4    0    0 -0.22162520295E+03  0.37038739341E+02  0.11896855291E+03  0.25425012594E+03  0.10566000000E+00 0. -1.
     200003    1    4    4    0    0 -0.22851684858E+03 -0.81258470520E+02 -0.17259502931E+02  0.24499138670E+03  0.30000000000E+02 0. -1.
     200000    1    3    3    0    0 -0.87389037260E+03 -0.53313867024E+02  0.38333309603E+03  0.10786431357E+04  0.50000000000E+03 0.  1.
    -200001    1    1    2    0    0  0.13240324241E+04  0.97533598203E+02  0.93106208738E+02  0.15037431393E+04  0.70000000000E+03 0.  1.
<mgrwt>
<rscale>  0 0.30269084E+04</rscale>
<asrwt>0</asrwt>
<pdfrwt beam="1">  1        3 0.26141258E+00 0.30269084E+04</pdfrwt>
<pdfrwt beam="2">  1       -3 0.17881996E+00 0.30269084E+04</pdfrwt>
<totfact> 0.28671926E-02</totfact>
</mgrwt>
</event>
<event>
 8    1  0.1206249E-029  0.1661267E+04  0.7818608E-02  0.8783769E-01
         -3   -1    0    0    0  501 -0.00000000000E+00  0.00000000000E+00  0.52141342569E+03  0.52141343547E+03  0.10100000000E+00 0. -1.
          3   -1    0    0  501    0  0.00000000000E+00 -0.00000000000E+00 -0.13232333966E+04  0.13232334004E+04  0.10100000000E+00 0.  1.
     200001    2    1    2    0    0  0.43525484795E+03  0.10013829797E+03 -0.37644147117E+03  0.91168310165E+03  0.69998816793E+03 0.  0.
    5000001    2    3    3    0    0  0.15648938539E+03 -0.10277544742E+03 -0.16913860560E+03  0.26992095782E+03  0.95904823836E+02 0.  0.
        -13    1    4    4    0    0  0.41895722350E+01 -0.15635957566E+02  0.86307955025E+01  0.18344957879E+02  0.10566000000E+00 0. -1.
     200003    1    4    4    0    0  0.15229981315E+03 -0.87139489854E+02 -0.17776940110E+03  0.25157599994E+03  0.30000000000E+02 0. -1.
     200000    1    3    3    0    0  0.27876546256E+03  0.20291374539E+03 -0.20730286557E+03  0.64176214383E+03  0.50000000000E+03 0. -1.
    -200001    1    1    2    0    0 -0.43525484795E+03 -0.10013829797E+03 -0.42537849970E+03  0.93296373423E+03  0.70000000000E+03 0.  1.
<mgrwt>
<rscale>  0 0.16612666E+04</rscale>
<asrwt>0</asrwt>
<pdfrwt beam="1">  1        3 0.18903334E+00 0.16612666E+04</pdfrwt>
<pdfrwt beam="2">  1       -3 0.74487634E-01 0.16612666E+04</pdfrwt>
<totfact> 0.74140214E-01</totfact>
</mgrwt>
</event>
<event>
 8    1  0.1206249E-029  0.1697024E+04  0.7818608E-02  0.8763064E-01
         -3   -1    0    0    0  501 -0.00000000000E+00  0.00000000000E+00  0.26963424290E+03  0.26963426182E+03  0.10100000000E+00 0. -1.
          3   -1    0    0  501    0  0.00000000000E+00 -0.00000000000E+00 -0.26701815569E+04  0.26701815588E+04  0.10100000000E+00 0.  1.
     200001    2    1    2    0    0  0.31627156180E+03 -0.34420942589E+03 -0.13867424206E+04  0.16221253443E+04  0.69980587428E+03 0.  0.
    5000001    2    3    3    0    0  0.19974265617E+02 -0.42682103323E+02 -0.16880234791E+03  0.23934234079E+03  0.16300242392E+03 0.  0.
        -13    1    4    4    0    0 -0.47294102516E+02 -0.43318258900E+02 -0.15027783057E+03  0.16339106833E+03  0.10566000000E+00 0. -1.
     200003    1    4    4    0    0  0.67268368133E+02  0.63615557685E+00 -0.18524517345E+02  0.75951272458E+02  0.30000000000E+02 0. -1.
     200000    1    3    3    0    0  0.29629729619E+03 -0.30152732257E+03 -0.12179400727E+04  0.13827830035E+04  0.50000000000E+03 0.  1.
    -200001    1    1    2    0    0 -0.31627156180E+03  0.34420942589E+03 -0.10138048934E+04  0.13176904764E+04  0.70000000000E+03 0. -1.
<mgrwt>
<rscale>  0 0.16970238E+04</rscale>
<asrwt>0</asrwt>
<pdfrwt beam="1">  1        3 0.38145449E+00 0.16970238E+04</pdfrwt>
<pdfrwt beam="2">  1       -3 0.38519181E-01 0.16970238E+04</pdfrwt>
<totfact> 0.23569177E-01</totfact>
</mgrwt>
</event>
<event>
 8    1  0.1206249E-029  0.1459121E+04  0.7818608E-02  0.8912101E-01
          3   -1    0    0  501    0  0.00000000000E+00  0.00000000000E+00  0.98685423873E+03  0.98685424389E+03  0.10100000000E+00 0.  1.
         -3   -1    0    0    0  501 -0.00000000000E+00 -0.00000000000E+00 -0.53934869888E+03  0.53934870834E+03  0.10100000000E+00 0. -1.
     200001    2    1    2    0    0 -0.19647779740E+03 -0.27248828316E+02  0.28183912223E+03  0.78001840037E+03  0.69974951989E+03 0.  0.
    5000001    2    3    3    0    0 -0.72046927568E+02 -0.61967529923E+02  0.11089916702E+03  0.23604331097E+03  0.18543754978E+03 0.  0.
        -13    1    4    4    0    0  0.72234372850E+01  0.48165184953E+01  0.12668995662E+03  0.12698713781E+03  0.10566000000E+00 0. -1.
     200003    1    4    4    0    0 -0.79270364853E+02 -0.66784048418E+02 -0.15790789602E+02  0.10905617316E+03  0.30000000000E+02 0. -1.
     200000    1    3    3    0    0 -0.12443086983E+03  0.34718701607E+02  0.17093995521E+03  0.54397508941E+03  0.50000000000E+03 0.  1.
    -200001    1    1    2    0    0  0.19647779740E+03  0.27248828316E+02  0.16566641761E+03  0.74618455186E+03  0.70000000000E+03 0. -1.
<mgrwt>
<rscale>  0 0.14591211E+04</rscale>
<asrwt>0</asrwt>
<pdfrwt beam="1">  1        3 0.14097918E+00 0.14591211E+04</pdfrwt>
<pdfrwt beam="2">  1       -3 0.77049815E-01 0.14591211E+04</pdfrwt>
<totfact> 0.15311522E+00</totfact>
</mgrwt>
</event>
<event>
 8    1  0.1206249E-029  0.1552470E+04  0.7818608E-02  0.8850292E-01
          3   -1    0    0  501    0  0.00000000000E+00  0.00000000000E+00  0.21954063133E+03  0.21954065456E+03  0.10100000000E+00 0.  1.
         -3   -1    0    0    0  501 -0.00000000000E+00 -0.00000000000E+00 -0.27445515700E+04  0.27445515718E+04  0.10100000000E+00 0. -1.
     200001    2    1    2    0    0 -0.33014294850E+03 -0.27023190683E+02 -0.11338846371E+04  0.13719373953E+04  0.69770568804E+03 0.  0.
    5000001    2    3    3    0    0 -0.13444175818E+03 -0.41462107752E+02 -0.33354414267E+03  0.40806378054E+03  0.18833656352E+03 0.  0.
        -13    1    4    4    0    0 -0.14304198753E+03 -0.55781393482E+02 -0.34006113973E+03  0.37311414336E+03  0.10566000000E+00 0. -1.
     200003    1    4    4    0    0  0.86002293582E+01  0.14319285729E+02  0.65169970562E+01  0.34949637186E+02  0.30000000000E+02 0. -1.
     200000    1    3    3    0    0 -0.19570119033E+03  0.14438917069E+02 -0.80034049447E+03  0.96387361480E+03  0.50000000000E+03 0.  1.
    -200001    1    1    2    0    0  0.33014294850E+03  0.27023190683E+02 -0.13911263015E+04  0.15921548311E+04  0.70000000000E+03 0. -1.
<mgrwt>
<rscale>  0 0.15524698E+04</rscale>
<asrwt>0</asrwt>
<pdfrwt beam="1">  1        3 0.31362951E-01 0.15524698E+04</pdfrwt>
<pdfrwt beam="2">  1       -3 0.39207878E+00 0.15524698E+04</pdfrwt>
<totfact> 0.29811569E-01</totfact>
</mgrwt>
</event>
<event>
 8    1  0.1206249E-029  0.1538189E+04  0.7818608E-02  0.8859448E-01
          3   -1    0    0  501    0  0.00000000000E+00  0.00000000000E+00  0.11733564983E+04  0.11733565027E+04  0.10100000000E+00 0. -1.
         -3   -1    0    0    0  501 -0.00000000000E+00 -0.00000000000E+00 -0.50411465551E+03  0.50411466563E+03  0.10100000000E+00 0.  1.
     200001    2    1    2    0    0 -0.20151018135E+02 -0.73057873027E+02  0.67243596136E+03  0.97337336349E+03  0.69967282802E+03 0.  0.
    5000001    2    3    3    0    0 -0.14905701294E+02  0.37509945870E+02  0.25404741505E+03  0.31208542953E+03  0.17671460114E+03 0.  0.
        -13    1    4    4    0    0 -0.23958914339E+02 -0.55818203479E+02  0.17681437107E+03  0.18695730634E+03  0.10566000000E+00 0. -1.
     200003    1    4    4    0    0  0.90532130455E+01  0.93328149349E+02  0.77233043989E+02  0.12512812318E+03  0.30000000000E+02 0.  1.
     200000    1    3    3    0    0 -0.52453168415E+01 -0.11056781890E+03  0.41838854631E+03  0.66128793397E+03  0.50000000000E+03 0. -1.
    -200001    1    1    2    0    0  0.20151018135E+02  0.73057873027E+02 -0.31941185593E+01  0.70409780481E+03  0.70000000000E+03 0.  1.
<mgrwt>
<rscale>  0 0.15381888E+04</rscale>
<asrwt>0</asrwt>
<pdfrwt beam="1">  1        3 0.16762236E+00 0.15381888E+04</pdfrwt>
<pdfrwt beam="2">  1       -3 0.72016381E-01 0.15381888E+04</pdfrwt>
<totfact> 0.11229329E+00</totfact>
</mgrwt>
</event>
<event>
 8    1  0.1206249E-029  0.1903298E+04  0.7818608E-02  0.8653216E-01
         -3   -1    0    0    0  501 -0.00000000000E+00  0.00000000000E+00  0.39934110033E+03  0.39934111311E+03  0.10100000000E+00 0. -1.
          3   -1    0    0  501    0  0.00000000000E+00 -0.00000000000E+00 -0.22678253128E+04  0.22678253150E+04  0.10100000000E+00 0.  1.
     200001    2    1    2    0    0  0.50431125104E+03  0.24454982184E+03 -0.48817043145E+03  0.10211407335E+04  0.70020252374E+03 0.  0.
    5000001    2    3    3    0    0  0.16331376768E+03  0.16476406435E+03 -0.14962963379E+03  0.32310425710E+03  0.16789505660E+03 0.  0.
        -13    1    4    4    0    0 -0.13689360601E+02 -0.11911948029E+02 -0.48313971226E+02  0.51609534770E+02  0.10566000000E+00 0. -1.
     200003    1    4    4    0    0  0.17700312828E+03  0.17667601238E+03 -0.10131566257E+03  0.27149472233E+03  0.30000000000E+02 0. -1.
     200000    1    3    3    0    0  0.34099748336E+03  0.79785757492E+02 -0.33854079765E+03  0.69803647643E+03  0.50000000000E+03 0. -1.
    -200001    1    1    2    0    0 -0.50431125104E+03 -0.24454982184E+03 -0.13803137810E+04  0.16460256946E+04  0.70000000000E+03 0.  1.
<mgrwt>
<rscale>  0 0.19032981E+04</rscale>
<asrwt>0</asrwt>
<pdfrwt beam="1">  1        3 0.32397504E+00 0.19032981E+04</pdfrwt>
<pdfrwt beam="2">  1       -3 0.57048731E-01 0.19032981E+04</pdfrwt>
<totfact> 0.21302166E-01</totfact>
</mgrwt>
</event>
<event>
 8    1  0.1206249E-029  0.1496571E+04  0.7818608E-02  0.8886736E-01
          3   -1    0    0  501    0  0.00000000000E+00  0.00000000000E+00  0.13980671940E+04  0.13980671976E+04  0.10100000000E+00 0.  1.
         -3   -1    0    0    0  501 -0.00000000000E+00 -0.00000000000E+00 -0.40050367105E+03  0.40050368379E+03  0.10100000000E+00 0. -1.
     200001    2    1    2    0    0 -0.23260590896E+03  0.11857133579E+03  0.54527152748E+03  0.92522517684E+03  0.70039697216E+03 0.  0.
    5000001    2    3    3    0    0 -0.11435500153E+03  0.45283520579E+02  0.21315193117E+03  0.30906139405E+03  0.18696934486E+03 0.  0.
        -13    1    4    4    0    0 -0.17987048374E+02  0.18225399435E+02 -0.32929068627E+02  0.41713712595E+02  0.10566000000E+00 0. -1.
     200003    1    4    4    0    0 -0.96367953160E+02  0.27058121144E+02  0.24608099980E+03  0.26734768146E+03  0.30000000000E+02 0. -1.
     200000    1    3    3    0    0 -0.11825090743E+03  0.73287815213E+02  0.33211959630E+03  0.61616378279E+03  0.50000000000E+03 0.  1.
    -200001    1    1    2    0    0  0.23260590896E+03 -0.11857133579E+03  0.45229199543E+03  0.87334570457E+03  0.70000000000E+03 0. -1.
<mgrwt>
<rscale>  0 0.14965708E+04</rscale>
<asrwt>0</asrwt>
<pdfrwt beam="1">  1        3 0.19972389E+00 0.14965708E+04</pdfrwt>
<pdfrwt beam="2">  1       -3 0.57214810E-01 0.14965708E+04</pdfrwt>
<totfact> 0.11299638E+00</totfact>
</mgrwt>
</event>
<event>
 8    1  0.1206249E-029  0.1481832E+04  0.7818608E-02  0.8896625E-01
         -3   -1    0    0    0  501 -0.00000000000E+00  0.00000000000E+00  0.61463948595E+03  0.61463949425E+03  0.10100000000E+00 0. -1.
          3   -1    0    0  501    0  0.00000000000E+00 -0.00000000000E+00 -0.89313572341E+03  0.89313572912E+03  0.10100000000E+00 0.  1.
     200001    2    1    2    0    0 -0.20037199040E+03  0.13846498875E+03 -0.13072310779E+03  0.75202500967E+03  0.69937943680E+03 0.  0.
    5000001    2    3    3    0    0 -0.47318873300E+02 -0.17917491864E+02 -0.46179205762E+02  0.19973123978E+03  0.18761646200E+03 0.  0.
        -13    1    4    4    0    0  0.62969948330E+02 -0.49228606861E+01  0.20947745310E+02  0.66545233846E+02  0.10566000000E+00 0. -1.
     200003    1    4    4    0    0 -0.11028882163E+03 -0.12994631178E+02 -0.67126951072E+02  0.13318600593E+03  0.30000000000E+02 0. -1.
     200000    1    3    3    0    0 -0.15305311710E+03  0.15638248061E+03 -0.84543902023E+02  0.55229376990E+03  0.50000000000E+03 0. -1.
    -200001    1    1    2    0    0  0.20037199040E+03 -0.13846498875E+03 -0.14777312968E+03  0.75575021370E+03  0.70000000000E+03 0.  1.
<mgrwt>
<rscale>  0 0.14818320E+04</rscale>
<asrwt>0</asrwt>
<pdfrwt beam="1">  1        3 0.12759082E+00 0.14818320E+04</pdfrwt>
<pdfrwt beam="2">  1       -3 0.87805643E-01 0.14818320E+04</pdfrwt>
<totfact> 0.14643720E+00</totfact>
</mgrwt>
</event>
<event>
 8    1  0.1206249E-029  0.1734119E+04  0.7818608E-02  0.8742141E-01
         -3   -1    0    0    0  501 -0.00000000000E+00  0.00000000000E+00  0.67961062721E+03  0.67961063471E+03  0.10100000000E+00 0. -1.
          3   -1    0    0  501    0  0.00000000000E+00 -0.00000000000E+00 -0.11062097610E+04  0.11062097656E+04  0.10100000000E+00 0.  1.
     200001    2    1    2    0    0 -0.12009081091E+03  0.15415968640E+03 -0.70046254071E+03  0.10091684980E+04  0.69970441948E+03 0.  0.
    5000001    2    3    3    0    0 -0.10209539844E+03  0.33286925005E+01 -0.23536345021E+03  0.30960364212E+03  0.17327409197E+03 0.  0.
        -13    1    4    4    0    0 -0.93878980941E+02  0.67462368782E+02 -0.85936868084E+02  0.14404718229E+03  0.10566000000E+00 0. -1.
     200003    1    4    4    0    0 -0.82164175011E+01 -0.64133676281E+02 -0.14942658212E+03  0.16555645984E+03  0.30000000000E+02 0. -1.
     200000    1    3    3    0    0 -0.17995412471E+02  0.15083099390E+03 -0.46509909051E+03  0.69956485588E+03  0.50000000000E+03 0.  1.
    -200001    1    1    2    0    0  0.12009081091E+03 -0.15415968640E+03  0.27386340689E+03  0.77665190234E+03  0.70000000000E+03 0. -1.
<mgrwt>
<rscale>  0 0.17341187E+04</rscale>
<asrwt>0</asrwt>
<pdfrwt beam="1">  1        3 0.15802997E+00 0.17341187E+04</pdfrwt>
<pdfrwt beam="2">  1       -3 0.97087233E-01 0.17341187E+04</pdfrwt>
<totfact> 0.66070916E-01</totfact>
</mgrwt>
</event>
<event>
 8    1  0.1206249E-029  0.2239352E+04  0.7818608E-02  0.8502225E-01
          3   -1    0    0  501    0  0.00000000000E+00  0.00000000000E+00  0.11129467496E+04  0.11129467541E+04  0.10100000000E+00 0.  1.
         -3   -1    0    0    0  501 -0.00000000000E+00 -0.00000000000E+00 -0.11264459521E+04  0.11264459566E+04  0.10100000000E+00 0. -1.
     200001    2    1    2    0    0 -0.32786339118E+03 -0.24187787399E+03  0.76635565736E+03  0.11150382686E+04  0.70000716965E+03 0.  0.
    5000001    2    3    3    0    0 -0.51740941085E+02  0.55173515120E+02  0.77836949831E+02  0.17241366361E+03  0.13396506591E+03 0.  0.
        -13    1    4    4    0    0 -0.90569692321E+02  0.52503453819E+02  0.51829133640E+02  0.11681503366E+03  0.10566000000E+00 0. -1.
     200003    1    4    4    0    0  0.38828751236E+02  0.26700613014E+01  0.26007816191E+02  0.55598629955E+02  0.30000000000E+02 0.  1.
     200000    1    3    3    0    0 -0.27612245009E+03 -0.29705138911E+03  0.68851870753E+03  0.94262460494E+03  0.50000000000E+03 0.  1.
    -200001    1    1    2    0    0  0.32786339118E+03  0.24187787399E+03 -0.77985485986E+03  0.11243544422E+04  0.70000000000E+03 0. -1.
<mgrwt>
<rscale>  0 0.22393520E+04</rscale>
<asrwt>0</asrwt>
<pdfrwt beam="1">  1        3 0.15899239E+00 0.22393520E+04</pdfrwt>
<pdfrwt beam="2">  1       -3 0.16092085E+00 0.22393520E+04</pdfrwt>
<totfact> 0.17861054E-01</totfact>
</mgrwt>
</event>
<event>
 8    1  0.1206249E-029  0.1865889E+04  0.7818608E-02  0.8672024E-01
         -3   -1    0    0    0  501 -0.00000000000E+00  0.00000000000E+00  0.66120923690E+03  0.66120924461E+03  0.10100000000E+00 0.  1.
          3   -1    0    0  501    0  0.00000000000E+00 -0.00000000000E+00 -0.13163541844E+04  0.13163541882E+04  0.10100000000E+00 0. -1.
     200001    2    1    2    0    0 -0.31395349457E+03 -0.28988886448E+03  0.14391542921E+03  0.83253075380E+03  0.69985245213E+03 0.  0.
    5000001    2    3    3    0    0 -0.23889105417E+01  0.32181432266E+02  0.85177629295E+02  0.15854863593E+03  0.12977322508E+03 0.  0.
        -13    1    4    4    0    0  0.23980334339E+02 -0.24427927988E+02 -0.14485628415E+02  0.37170212475E+02  0.10566000000E+00 0. -1.
     200003    1    4    4    0    0 -0.26369244881E+02  0.56609360254E+02  0.99663257710E+02  0.12137842346E+03  0.30000000000E+02 0. -1.
     200000    1    3    3    0    0 -0.31156458403E+03 -0.32207029675E+03  0.58737799920E+02  0.67398211787E+03  0.50000000000E+03 0.  1.
    -200001    1    1    2    0    0  0.31395349457E+03  0.28988886448E+03 -0.79906037667E+03  0.11450326790E+04  0.70000000000E+03 0. -1.
<mgrwt>
<rscale>  0 0.18658891E+04</rscale>
<asrwt>0</asrwt>
<pdfrwt beam="1">  1        3 0.18805060E+00 0.18658891E+04</pdfrwt>
<pdfrwt beam="2">  1       -3 0.94458463E-01 0.18658891E+04</pdfrwt>
<totfact> 0.43353834E-01</totfact>
</mgrwt>
</event>
<event>
 8    1  0.1206249E-029  0.1517471E+04  0.7818608E-02  0.8872917E-01
         -3   -1    0    0    0  501 -0.00000000000E+00  0.00000000000E+00  0.40654543966E+03  0.40654545221E+03  0.10100000000E+00 0. -1.
          3   -1    0    0  501    0  0.00000000000E+00 -0.00000000000E+00 -0.14160274427E+04  0.14160274463E+04  0.10100000000E+00 0.  1.
     200001    2    1    2    0    0 -0.25251255257E+03 -0.10356177649E+03 -0.37841281088E+03  0.84138180803E+03  0.70017102246E+03 0.  0.
    5000001    2    3    3    0    0 -0.68587649629E+02  0.51510588934E+02 -0.11666604949E+03  0.22787779376E+03  0.17595373065E+03 0.  0.
        -13    1    4    4    0    0  0.17275070470E+02  0.82658255057E+02 -0.11223496486E+02  0.85186813687E+02  0.10566000000E+00 0. -1.
     200003    1    4    4    0    0 -0.85862720099E+02 -0.31147666122E+02 -0.10544255301E+03  0.14269098007E+03  0.30000000000E+02 0. -1.
     200000    1    3    3    0    0 -0.18392490294E+03 -0.15507236542E+03 -0.26174676138E+03  0.61350401428E+03  0.50000000000E+03 0.  1.
    -200001    1    1    2    0    0  0.25251255257E+03  0.10356177649E+03 -0.63106919218E+03  0.98119109050E+03  0.70000000000E+03 0.  1.
<mgrwt>
<rscale>  0 0.15174709E+04</rscale>
<asrwt>0</asrwt>
<pdfrwt beam="1">  1        3 0.20228963E+00 0.15174709E+04</pdfrwt>
<pdfrwt beam="2">  1       -3 0.58077922E-01 0.15174709E+04</pdfrwt>
<totfact> 0.10534210E+00</totfact>
</mgrwt>
</event>
<event>
 8    1  0.1206249E-029  0.2725019E+04  0.7818608E-02  0.8326933E-01
          3   -1    0    0  501    0  0.00000000000E+00  0.00000000000E+00  0.96890940799E+03  0.96890941326E+03  0.10100000000E+00 0.  1.
         -3   -1    0    0    0  501 -0.00000000000E+00 -0.00000000000E+00 -0.19160015308E+04  0.19160015335E+04  0.10100000000E+00 0. -1.
     200001    2    1    2    0    0  0.45690765057E+03 -0.99722997461E+03 -0.91086292587E+03  0.15831641288E+04  0.68811711613E+03 0.  0.
    5000001    2    3    3    0    0  0.16256055441E+03 -0.30660784124E+03 -0.29687673389E+03  0.49202793744E+03  0.18308848661E+03 0.  0.
        -13    1    4    4    0    0  0.15395847083E+03 -0.21989350581E+03 -0.29637358198E+03  0.39986707279E+03  0.10566000000E+00 0. -1.
     200003    1    4    4    0    0  0.86020835790E+01 -0.86714335429E+02 -0.50315191357E+00  0.92160864648E+02  0.30000000000E+02 0. -1.
     200000    1    3    3    0    0  0.29434709616E+03 -0.69062213337E+03 -0.61398619198E+03  0.10911361913E+04  0.50000000000E+03 0. -1.
    -200001    1    1    2    0    0 -0.45690765057E+03  0.99722997461E+03 -0.36229196975E+02  0.13017468180E+04  0.70000000000E+03 0.  1.
<mgrwt>
<rscale>  0 0.27250188E+04</rscale>
<asrwt>0</asrwt>
<pdfrwt beam="1">  1        3 0.13841563E+00 0.27250188E+04</pdfrwt>
<pdfrwt beam="2">  1       -3 0.27371450E+00 0.27250188E+04</pdfrwt>
<totfact> 0.48853890E-02</totfact>
</mgrwt>
</event>
<event>
 8    1  0.1206249E-029  0.2134265E+04  0.7818608E-02  0.8546298E-01
         -3   -1    0    0    0  501 -0.00000000000E+00  0.00000000000E+00  0.73864602676E+03  0.73864603367E+03  0.10100000000E+00 0.  1.
          3   -1    0    0  501    0  0.00000000000E+00 -0.00000000000E+00 -0.15417012650E+04  0.15417012683E+04  0.10100000000E+00 0. -1.
     200001    2    1    2    0    0 -0.63075347736E+03 -0.49930725468E+03 -0.44487522084E+03  0.11554248119E+04  0.69995346279E+03 0.  0.
    5000001    2    3    3    0    0 -0.18427050365E+03 -0.22407366629E+03 -0.19802077203E+03  0.38989382436E+03  0.16923457591E+03 0.  0.
        -13    1    4    4    0    0 -0.15766786744E+03 -0.24178900528E+03 -0.18932905427E+03  0.34520512953E+03  0.10566000000E+00 0. -1.
     200003    1    4    4    0    0 -0.26602636205E+02  0.17715338988E+02 -0.86917177607E+01  0.44688694836E+02  0.30000000000E+02 0. -1.
     200000    1    3    3    0    0 -0.44648297371E+03 -0.27523358839E+03 -0.24685444881E+03  0.76553098755E+03  0.50000000000E+03 0.  1.
    -200001    1    1    2    0    0  0.63075347736E+03  0.49930725468E+03 -0.35818001739E+03  0.11249224901E+04  0.70000000000E+03 0.  1.
<mgrwt>
<rscale>  0 0.21342648E+04</rscale>
<asrwt>0</asrwt>
<pdfrwt beam="1">  1        3 0.22024304E+00 0.21342648E+04</pdfrwt>
<pdfrwt beam="2">  1       -3 0.10552086E+00 0.21342648E+04</pdfrwt>
<totfact> 0.20579880E-01</totfact>
</mgrwt>
</event>
<event>
 8    1  0.1206249E-029  0.2014543E+04  0.7818608E-02  0.8599851E-01
         -3   -1    0    0    0  501 -0.00000000000E+00  0.00000000000E+00  0.92414035577E+03  0.92414036129E+03  0.10100000000E+00 0. -1.
          3   -1    0    0  501    0  0.00000000000E+00 -0.00000000000E+00 -0.10978811335E+04  0.10978811382E+04  0.10100000000E+00 0.  1.
     200001    2    1    2    0    0  0.21565286647E+03  0.63316845510E+02 -0.77805005372E+03  0.10703362139E+04  0.69981607791E+03 0.  0.
    5000001    2    3    3    0    0  0.20142039446E+02  0.10545516128E+03 -0.13678013290E+03  0.23294309682E+03  0.15500706051E+03 0.  0.
        -13    1    4    4    0    0  0.61376488770E+02  0.90367104702E+02 -0.14239365136E+03  0.17946935699E+03  0.10566000000E+00 0. -1.
     200003    1    4    4    0    0 -0.41234449325E+02  0.15088056581E+02  0.56135184578E+01  0.53473739835E+02  0.30000000000E+02 0. -1.
     200000    1    3    3    0    0  0.19551082702E+03 -0.42138315773E+02 -0.64126992082E+03  0.83739311705E+03  0.50000000000E+03 0.  1.
    -200001    1    1    2    0    0 -0.21565286647E+03 -0.63316845510E+02  0.60430927597E+03  0.95168528557E+03  0.70000000000E+03 0. -1.
<mgrwt>
<rscale>  0 0.20145434E+04</rscale>
<asrwt>0</asrwt>
<pdfrwt beam="1">  1        3 0.15684016E+00 0.20145434E+04</pdfrwt>
<pdfrwt beam="2">  1       -3 0.13202005E+00 0.20145434E+04</pdfrwt>
<totfact> 0.31429603E-01</totfact>
</mgrwt>
</event>
<event>
 8    1  0.1206249E-029  0.2162569E+04  0.7818608E-02  0.8534171E-01
          3   -1    0    0  501    0  0.00000000000E+00  0.00000000000E+00  0.16700286323E+04  0.16700286354E+04  0.10100000000E+00 0.  1.
         -3   -1    0    0    0  501 -0.00000000000E+00 -0.00000000000E+00 -0.70009326599E+03  0.70009327327E+03  0.10100000000E+00 0. -1.
     200001    2    1    2    0    0 -0.81251683923E+03  0.11425396139E+01  0.63750009365E+03  0.12473137639E+04  0.69942857872E+03 0.  0.
    5000001    2    3    3    0    0 -0.33491596096E+03  0.49228614068E+02  0.23189571633E+03  0.44423856168E+03  0.17023548127E+03 0.  0.
        -13    1    4    4    0    0 -0.27445531496E+03  0.34060506521E+02  0.97788345624E+02  0.29334009225E+03  0.10566000000E+00 0. -1.
     200003    1    4    4    0    0 -0.60460646002E+02  0.15168107547E+02  0.13410737070E+03  0.15089846944E+03  0.30000000000E+02 0. -1.
     200000    1    3    3    0    0 -0.47760087827E+03 -0.48086074454E+02  0.40560437732E+03  0.80307520219E+03  0.50000000000E+03 0.  1.
    -200001    1    1    2    0    0  0.81251683923E+03 -0.11425396139E+01  0.33243527269E+03  0.11228081448E+04  0.70000000000E+03 0. -1.
<mgrwt>
<rscale>  0 0.21625687E+04</rscale>
<asrwt>0</asrwt>
<pdfrwt beam="1">  1        3 0.23857552E+00 0.21625687E+04</pdfrwt>
<pdfrwt beam="2">  1       -3 0.10001332E+00 0.21625687E+04</pdfrwt>
<totfact> 0.18138759E-01</totfact>
</mgrwt>
</event>
<event>
 8    1  0.1206249E-029  0.1457825E+04  0.7818608E-02  0.8912994E-01
         -3   -1    0    0    0  501 -0.00000000000E+00  0.00000000000E+00  0.49582860264E+03  0.49582861293E+03  0.10100000000E+00 0. -1.
          3   -1    0    0  501    0  0.00000000000E+00 -0.00000000000E+00 -0.10715660043E+04  0.10715660090E+04  0.10100000000E+00 0.  1.
     200001    2    1    2    0    0 -0.42861212938E+01 -0.19510492391E+03 -0.22539437171E+03  0.76065765071E+03  0.69979506759E+03 0.  0.
    5000001    2    3    3    0    0 -0.55916960555E+02 -0.13614497796E+03 -0.64500421376E+02  0.22959373550E+03  0.16398419900E+03 0.  0.
        -13    1    4    4    0    0 -0.20406238597E+02 -0.82148666566E+02  0.47341238748E+02  0.96984648489E+02  0.10566000000E+00 0. -1.
     200003    1    4    4    0    0 -0.35510721959E+02 -0.53996311389E+02 -0.11184166012E+03  0.13260908701E+03  0.30000000000E+02 0. -1.
     200000    1    3    3    0    0  0.51630839262E+02 -0.58959945958E+02 -0.16089395033E+03  0.53106391522E+03  0.50000000000E+03 0. -1.
    -200001    1    1    2    0    0  0.42861212938E+01  0.19510492391E+03 -0.35034302994E+03  0.80673697126E+03  0.70000000000E+03 0. -1.
<mgrwt>
<rscale>  0 0.14578245E+04</rscale>
<asrwt>0</asrwt>
<pdfrwt beam="1">  1        3 0.15308086E+00 0.14578245E+04</pdfrwt>
<pdfrwt beam="2">  1       -3 0.70832659E-01 0.14578245E+04</pdfrwt>
<totfact> 0.14899449E+00</totfact>
</mgrwt>
</event>
<event>
 8    1  0.1206249E-029  0.2020737E+04  0.7818608E-02  0.8596986E-01
         -3   -1    0    0    0  501 -0.00000000000E+00  0.00000000000E+00  0.11353001460E+04  0.11353001505E+04  0.10100000000E+00 0. -1.
          3   -1    0    0  501    0  0.00000000000E+00 -0.00000000000E+00 -0.89918475251E+03  0.89918475818E+03  0.10100000000E+00 0.  1.
     200001    2    1    2    0    0  0.68493104048E+03  0.24627335628E+03  0.83492220451E+02  0.10131745106E+04  0.69983608216E+03 0.  0.
    5000001    2    3    3    0    0  0.20327387147E+03 -0.52652322285E+02  0.31821379457E+01  0.25304300943E+03  0.14116693931E+03 0.  0.
        -13    1    4    4    0    0  0.13520151521E+03 -0.72446214825E+02 -0.47858303051E+02  0.16068083922E+03  0.10566000000E+00 0. -1.
     200003    1    4    4    0    0  0.68072356252E+02  0.19793892540E+02  0.51040440996E+02  0.92362170203E+02  0.30000000000E+02 0.  1.
     200000    1    3    3    0    0  0.48165716901E+03  0.29892567857E+03  0.80310082505E+02  0.76013150120E+03  0.50000000000E+03 0. -1.
    -200001    1    1    2    0    0 -0.68493104048E+03 -0.24627335628E+03  0.15262317305E+03  0.10213103981E+04  0.70000000000E+03 0.  1.
<mgrwt>
<rscale>  0 0.20207371E+04</rscale>
<asrwt>0</asrwt>
<pdfrwt beam="1">  1        3 0.12845496E+00 0.20207371E+04</pdfrwt>
<pdfrwt beam="2">  1       -3 0.16218574E+00 0.20207371E+04</pdfrwt>
<totfact> 0.30722783E-01</totfact>
</mgrwt>
</event>
<event>
 8    1  0.1206249E-029  0.1980381E+04  0.7818608E-02  0.8615849E-01
          3   -1    0    0  501    0  0.00000000000E+00  0.00000000000E+00  0.10520758297E+04  0.10520758345E+04  0.10100000000E+00 0.  1.
         -3   -1    0    0    0  501 -0.00000000000E+00 -0.00000000000E+00 -0.93194504499E+03  0.93194505046E+03  0.10100000000E+00 0. -1.
     200001    2    1    2    0    0  0.22779359325E+03 -0.47936653750E+03  0.51669794890E+03  0.10202015481E+04  0.70153562274E+03 0.  0.
    5000001    2    3    3    0    0  0.64754954393E+02 -0.25199171729E+03  0.19772665641E+03  0.36443970715E+03  0.16133021972E+03 0.  0.
        -13    1    4    4    0    0 -0.39382699816E+02 -0.54785614019E+02  0.41292470065E+01  0.67598242530E+02  0.10566000000E+00 0. -1.
     200003    1    4    4    0    0  0.10413765421E+03 -0.19720610327E+03  0.19359740940E+03  0.29684146462E+03  0.30000000000E+02 0. -1.
     200000    1    3    3    0    0  0.16303863885E+03 -0.22737482021E+03  0.31897129249E+03  0.65576184096E+03  0.50000000000E+03 0.  1.
    -200001    1    1    2    0    0 -0.22779359325E+03  0.47936653750E+03 -0.39656716421E+03  0.96381933687E+03  0.70000000000E+03 0. -1.
<mgrwt>
<rscale>  0 0.19803806E+04</rscale>
<asrwt>0</asrwt>
<pdfrwt beam="1">  1        3 0.15029655E+00 0.19803806E+04</pdfrwt>
<pdfrwt beam="2">  1       -3 0.13313501E+00 0.19803806E+04</pdfrwt>
<totfact> 0.34494331E-01</totfact>
</mgrwt>
</event>
<event>
 8    1  0.1206249E-029  0.1641232E+04  0.7818608E-02  0.8795611E-01
          3   -1    0    0  501    0  0.00000000000E+00  0.00000000000E+00  0.31280598734E+03  0.31280600365E+03  0.10100000000E+00 0.  1.
         -3   -1    0    0    0  501 -0.00000000000E+00 -0.00000000000E+00 -0.21528051740E+04  0.21528051763E+04  0.10100000000E+00 0. -1.
     200001    2    1    2    0    0 -0.20772174583E+03 -0.36204002195E+03 -0.10641673588E+04  0.13403839468E+04  0.69996832511E+03 0.  0.
    5000001    2    3    3    0    0 -0.11330672898E+03 -0.83761185260E+02 -0.32884461413E+03  0.40387295105E+03  0.18740392034E+03 0.  0.
        -13    1    4    4    0    0 -0.13841835022E+03 -0.97307121687E+02 -0.17049995672E+03  0.24020524976E+03  0.10566000000E+00 0. -1.
     200003    1    4    4    0    0  0.25111621235E+02  0.13545936427E+02 -0.15834465741E+03  0.16366770129E+03  0.30000000000E+02 0. -1.
     200000    1    3    3    0    0 -0.94415016842E+02 -0.27827883669E+03 -0.73532274470E+03  0.93651099578E+03  0.50000000000E+03 0. -1.
    -200001    1    1    2    0    0  0.20772174583E+03  0.36204002195E+03 -0.77583182779E+03  0.11252272331E+04  0.70000000000E+03 0. -1.
<mgrwt>
<rscale>  0 0.16412317E+04</rscale>
<asrwt>0</asrwt>
<pdfrwt beam="1">  1        3 0.44686572E-01 0.16412317E+04</pdfrwt>
<pdfrwt beam="2">  1       -3 0.30754359E+00 0.16412317E+04</pdfrwt>
<totfact> 0.43387156E-01</totfact>
</mgrwt>
</event>
<event>
 8    1  0.1206249E-029  0.2334881E+04  0.7818608E-02  0.8464294E-01
          3   -1    0    0  501    0  0.00000000000E+00  0.00000000000E+00  0.12729845280E+04  0.12729845320E+04  0.10100000000E+00 0. -1.
         -3   -1    0    0    0  501 -0.00000000000E+00 -0.00000000000E+00 -0.10706471969E+04  0.10706472016E+04  0.10100000000E+00 0.  1.
     200001    2    1    2    0    0  0.88177267390E+03  0.28580480299E+03  0.21808006463E+03  0.11819711690E+04  0.70020675223E+03 0.  0.
    5000001    2    3    3    0    0  0.16367965390E+03  0.47166379556E+02  0.95120947168E+02  0.26669808018E+03  0.18183557111E+03 0.  0.
        -13    1    4    4    0    0  0.13494548028E+03  0.95455167134E+02  0.11337113194E+03  0.20043701331E+03  0.10566000000E+00 0. -1.
     200003    1    4    4    0    0  0.28734173618E+02 -0.48288787578E+02 -0.18250184776E+02  0.66261066877E+02  0.30000000000E+02 0. -1.
     200000    1    3    3    0    0  0.71809302000E+03  0.23863842343E+03  0.12295911746E+03  0.91527308880E+03  0.50000000000E+03 0.  1.
    -200001    1    1    2    0    0 -0.88177267390E+03 -0.28580480299E+03 -0.15742733447E+02  0.11616605647E+04  0.70000000000E+03 0.  1.
<mgrwt>
<rscale>  0 0.23348810E+04</rscale>
<asrwt>0</asrwt>
<pdfrwt beam="1">  1        3 0.18185493E+00 0.23348810E+04</pdfrwt>
<pdfrwt beam="2">  1       -3 0.15294960E+00 0.23348810E+04</pdfrwt>
<totfact> 0.14074809E-01</totfact>
</mgrwt>
</event>
<event>
 8    1  0.1206249E-029  0.2475232E+04  0.7818608E-02  0.8411863E-01
         -3   -1    0    0    0  501 -0.00000000000E+00  0.00000000000E+00  0.16947561930E+04  0.16947561961E+04  0.10100000000E+00 0. -1.
          3   -1    0    0  501    0  0.00000000000E+00 -0.00000000000E+00 -0.90378365742E+03  0.90378366307E+03  0.10100000000E+00 0.  1.
     200001    2    1    2    0    0 -0.48847074296E+03  0.53169631333E+03 -0.35830041276E+03  0.10714075969E+04  0.70585438772E+03 0.  0.
    5000001    2    3    3    0    0 -0.61652431028E+01  0.72786630940E+02 -0.63774250242E+02  0.18825282444E+03  0.16135695538E+03 0.  0.
        -13    1    4    4    0    0 -0.67866867723E+02  0.35797991804E+02  0.14165829693E+02  0.78026212561E+02  0.10566000000E+00 0. -1.
     200003    1    4    4    0    0  0.61701624620E+02  0.36988639136E+02 -0.77940079935E+02  0.11022661188E+03  0.30000000000E+02 0. -1.
     200000    1    3    3    0    0 -0.48230549986E+03  0.45890968239E+03 -0.29452616251E+03  0.88315477250E+03  0.50000000000E+03 0.  1.
    -200001    1    1    2    0    0  0.48847074296E+03 -0.53169631333E+03  0.11492729484E+04  0.15271322622E+04  0.70000000000E+03 0. -1.
<mgrwt>
<rscale>  0 0.24752317E+04</rscale>
<asrwt>0</asrwt>
<pdfrwt beam="1">  1        3 0.12911195E+00 0.24752317E+04</pdfrwt>
<pdfrwt beam="2">  1       -3 0.24210803E+00 0.24752317E+04</pdfrwt>
<totfact> 0.90357127E-02</totfact>
</mgrwt>
</event>
<event>
 8    1  0.1206249E-029  0.1653035E+04  0.7818608E-02  0.8788613E-01
          3   -1    0    0  501    0  0.00000000000E+00  0.00000000000E+00  0.98985506633E+03  0.98985507148E+03  0.10100000000E+00 0.  1.
         -3   -1    0    0    0  501 -0.00000000000E+00 -0.00000000000E+00 -0.69013276633E+03  0.69013277372E+03  0.10100000000E+00 0. -1.
     200001    2    1    2    0    0 -0.15916022018E+03  0.33547253938E+02  0.56560495929E+03  0.91373006714E+03  0.69895369782E+03 0.  0.
    5000001    2    3    3    0    0 -0.12618003063E+03  0.16949572181E+02  0.20839170116E+03  0.29812915119E+03  0.17101228479E+03 0.  0.
        -13    1    4    4    0    0  0.13275579387E+02 -0.12191047327E+02 -0.20223861794E+02  0.27090189975E+02  0.10566000000E+00 0. -1.
     200003    1    4    4    0    0 -0.13945561001E+03  0.29140619508E+02  0.22861556295E+03  0.27103896121E+03  0.30000000000E+02 0. -1.
     200000    1    3    3    0    0 -0.32980189553E+02  0.16597681757E+02  0.35721325813E+03  0.61560091595E+03  0.50000000000E+03 0.  1.
    -200001    1    1    2    0    0  0.15916022018E+03 -0.33547253938E+02 -0.26588265929E+03  0.76625777806E+03  0.70000000000E+03 0. -1.
<mgrwt>
<rscale>  0 0.16530353E+04</rscale>
<asrwt>0</asrwt>
<pdfrwt beam="1">  1        3 0.14140787E+00 0.16530353E+04</pdfrwt>
<pdfrwt beam="2">  1       -3 0.98590397E-01 0.16530353E+04</pdfrwt>
<totfact> 0.85565545E-01</totfact>
</mgrwt>
</event>
<event>
 8    1  0.1206249E-029  0.1489061E+04  0.7818608E-02  0.8891760E-01
          3   -1    0    0  501    0  0.00000000000E+00  0.00000000000E+00  0.17486533589E+04  0.17486533619E+04  0.10100000000E+00 0. -1.
         -3   -1    0    0    0  501 -0.00000000000E+00 -0.00000000000E+00 -0.31700152815E+03  0.31700154424E+03  0.10100000000E+00 0.  1.
     200001    2    1    2    0    0  0.60209419714E+02 -0.22673484207E+03  0.58188238758E+03  0.93998089937E+03  0.69995936694E+03 0.  0.
    5000001    2    3    3    0    0  0.27550222799E+02  0.17230615547E+01  0.26439172430E+03  0.30432379200E+03  0.14814858346E+03 0.  0.
        -13    1    4    4    0    0  0.80233882087E+02  0.17981546293E+02  0.18974204586E+03  0.20679184455E+03  0.10566000000E+00 0. -1.
     200003    1    4    4    0    0 -0.52683659288E+02 -0.16258484738E+02  0.74649678440E+02  0.97531947449E+02  0.30000000000E+02 0. -1.
     200000    1    3    3    0    0  0.32659196915E+02 -0.22845790363E+03  0.31749066328E+03  0.63565710736E+03  0.50000000000E+03 0. -1.
    -200001    1    1    2    0    0 -0.60209419714E+02  0.22673484207E+03  0.84976944321E+03  0.11256740067E+04  0.70000000000E+03 0. -1.
<mgrwt>
<rscale>  0 0.14890612E+04</rscale>
<asrwt>0</asrwt>
<pdfrwt beam="1">  1        3 0.24980763E+00 0.14890612E+04</pdfrwt>
<pdfrwt beam="2">  1       -3 0.45285933E-01 0.14890612E+04</pdfrwt>
<totfact> 0.91688286E-01</totfact>
</mgrwt>
</event>
<event>
 8    1  0.1206249E-029  0.1711283E+04  0.7818608E-02  0.8754955E-01
          3   -1    0    0  501    0  0.00000000000E+00  0.00000000000E+00  0.79750063449E+03  0.79750064088E+03  0.10100000000E+00 0.  1.
         -3   -1    0    0    0  501 -0.00000000000E+00 -0.00000000000E+00 -0.91802124695E+03  0.91802125251E+03  0.10100000000E+00 0. -1.
     200001    2    1    2    0    0  0.24174883531E+03 -0.33399741972E+03 -0.33102177969E+03  0.87629158105E+03  0.69879520651E+03 0.  0.
    5000001    2    3    3    0    0  0.13909255358E+03 -0.15614955401E+03 -0.45218337602E+02  0.26485737934E+03  0.15612594805E+03 0.  0.
        -13    1    4    4    0    0 -0.17751249400E+01 -0.10957094096E+03 -0.17726916855E+02  0.11100989558E+03  0.10566000000E+00 0. -1.
     200003    1    4    4    0    0  0.14086767852E+03 -0.46578613056E+02 -0.27491420747E+02  0.15384748376E+03  0.30000000000E+02 0. -1.
     200000    1    3    3    0    0  0.10265628173E+03 -0.17784786570E+03 -0.28580344209E+03  0.61143420171E+03  0.50000000000E+03 0. -1.
    -200001    1    1    2    0    0 -0.24174883531E+03  0.33399741972E+03  0.21050116723E+03  0.83923031234E+03  0.70000000000E+03 0.  1.
<mgrwt>
<rscale>  0 0.17112832E+04</rscale>
<asrwt>0</asrwt>
<pdfrwt beam="1">  1        3 0.11392866E+00 0.17112832E+04</pdfrwt>
<pdfrwt beam="2">  1       -3 0.13114589E+00 0.17112832E+04</pdfrwt>
<totfact> 0.73022951E-01</totfact>
</mgrwt>
</event>
<event>
 8    1  0.1206249E-029  0.1733546E+04  0.7818608E-02  0.8742460E-01
          3   -1    0    0  501    0  0.00000000000E+00  0.00000000000E+00  0.16448625157E+03  0.16448628258E+03  0.10100000000E+00 0.  1.
         -3   -1    0    0    0  501 -0.00000000000E+00 -0.00000000000E+00 -0.45675250493E+04  0.45675250504E+04  0.10100000000E+00 0. -1.
     200001    2    1    2    0    0  0.95100880971E+02  0.10605733929E+03 -0.89794733387E+03  0.11548674294E+04  0.71212149832E+03 0.  0.
    5000001    2    3    3    0    0 -0.33745713918E+02  0.88079698175E+02 -0.31810050886E+03  0.37824204929E+03  0.18161031820E+03 0.  0.
        -13    1    4    4    0    0 -0.30041736013E+02  0.11260923463E+03 -0.91099357401E+02  0.14792717705E+03  0.10566000000E+00 0. -1.
     200003    1    4    4    0    0 -0.37039779047E+01 -0.24529536459E+02 -0.22700115146E+03  0.23031487224E+03  0.30000000000E+02 0. -1.
     200000    1    3    3    0    0  0.12884659489E+03  0.17977641111E+02 -0.57984682501E+03  0.77662538013E+03  0.50000000000E+03 0.  1.
    -200001    1    1    2    0    0 -0.95100880971E+02 -0.10605733929E+03 -0.35050914639E+04  0.35771439036E+04  0.70000000000E+03 0. -1.
<mgrwt>
<rscale>  0 0.17335457E+04</rscale>
<asrwt>0</asrwt>
<pdfrwt beam="1">  1        3 0.23498041E-01 0.17335457E+04</pdfrwt>
<pdfrwt beam="2">  1       -3 0.65250350E+00 0.17335457E+04</pdfrwt>
<totfact> 0.20220950E-02</totfact>
</mgrwt>
</event>
<event>
 8    1  0.1206249E-029  0.2012345E+04  0.7818608E-02  0.8600870E-01
          3   -1    0    0  501    0  0.00000000000E+00  0.00000000000E+00  0.93931252203E+03  0.93931252746E+03  0.10100000000E+00 0.  1.
         -3   -1    0    0    0  501 -0.00000000000E+00 -0.00000000000E+00 -0.10777920248E+04  0.10777920295E+04  0.10100000000E+00 0. -1.
     200001    2    1    2    0    0  0.96031830561E+02  0.67042219650E+03  0.17505884193E+03  0.99387714942E+03  0.70601569101E+03 0.  0.
    5000001    2    3    3    0    0  0.59425927827E+02  0.16087118608E+03  0.59103231127E+02  0.26970318689E+03  0.19958867121E+03 0.  0.
        -13    1    4    4    0    0  0.11986889529E+03  0.14529717087E+03  0.18114998450E+02  0.18922997716E+03  0.10566000000E+00 0. -1.
     200003    1    4    4    0    0 -0.60442967466E+02  0.15574015207E+02  0.40988232677E+02  0.80473209727E+02  0.30000000000E+02 0. -1.
     200000    1    3    3    0    0  0.36605902734E+02  0.50955101041E+03  0.11595561081E+03  0.72417396253E+03  0.50000000000E+03 0.  1.
    -200001    1    1    2    0    0 -0.96031830561E+02 -0.67042219650E+03 -0.31353834472E+03  0.10232274076E+04  0.70000000000E+03 0. -1.
<mgrwt>
<rscale>  0 0.20123455E+04</rscale>
<asrwt>0</asrwt>
<pdfrwt beam="1">  1        3 0.13418750E+00 0.20123455E+04</pdfrwt>
<pdfrwt beam="2">  1       -3 0.15397029E+00 0.20123455E+04</pdfrwt>
<totfact> 0.31650891E-01</totfact>
</mgrwt>
</event>
<event>
 8    1  0.1206249E-029  0.1572865E+04  0.7818608E-02  0.8837394E-01
          3   -1    0    0  501    0  0.00000000000E+00  0.00000000000E+00  0.18925405171E+04  0.18925405198E+04  0.10100000000E+00 0.  1.
         -3   -1    0    0    0  501 -0.00000000000E+00 -0.00000000000E+00 -0.32679671523E+03  0.32679673084E+03  0.10100000000E+00 0. -1.
     200001    2    1    2    0    0 -0.13140777034E+03 -0.17827442038E+03  0.11725312740E+04  0.13864711971E+04  0.70599080793E+03 0.  0.
    5000001    2    3    3    0    0  0.59476239098E+02 -0.75190419125E+02  0.42455992202E+03  0.46098529245E+03  0.15187261215E+03 0.  0.
        -13    1    4    4    0    0 -0.13218077708E+02 -0.88544133910E+02  0.14630245918E+03  0.17152026689E+03  0.10566000000E+00 0. -1.
     200003    1    4    4    0    0  0.72694316806E+02  0.13353714785E+02  0.27825746284E+03  0.28946502556E+03  0.30000000000E+02 0. -1.
     200000    1    3    3    0    0 -0.19088400943E+03 -0.10308400126E+03  0.74797135194E+03  0.92548590465E+03  0.50000000000E+03 0. -1.
    -200001    1    1    2    0    0  0.13140777034E+03  0.17827442038E+03  0.39321252795E+03  0.83286605358E+03  0.70000000000E+03 0. -1.
<mgrwt>
<rscale>  0 0.15728650E+04</rscale>
<asrwt>0</asrwt>
<pdfrwt beam="1">  1        3 0.27036293E+00 0.15728650E+04</pdfrwt>
<pdfrwt beam="2">  1       -3 0.46685247E-01 0.15728650E+04</pdfrwt>
<totfact> 0.65466393E-01</totfact>
</mgrwt>
</event>
<event>
 8    1  0.1206249E-029  0.1468737E+04  0.7818608E-02  0.8905513E-01
          3   -1    0    0  501    0  0.00000000000E+00  0.00000000000E+00  0.10209899574E+04  0.10209899624E+04  0.10100000000E+00 0.  1.
         -3   -1    0    0    0  501 -0.00000000000E+00 -0.00000000000E+00 -0.52820986405E+03  0.52820987371E+03  0.10100000000E+00 0. -1.
     200001    2    1    2    0    0  0.12563438467E+03  0.10259362717E+03  0.38903287873E+03  0.82320194662E+03  0.70711060891E+03 0.  0.
    5000001    2    3    3    0    0  0.35627788184E+01  0.84210046533E+02  0.13365707920E+03  0.24834872015E+03  0.19159552878E+03 0.  0.
        -13    1    4    4    0    0 -0.12886822583E+02 -0.59826515266E+02  0.42076440342E+02  0.74267894282E+02  0.10566000000E+00 0. -1.
     200003    1    4    4    0    0  0.16449601402E+02  0.14403656180E+03  0.91580638855E+02  0.17408082587E+03  0.30000000000E+02 0. -1.
     200000    1    3    3    0    0  0.12207160586E+03  0.18383580636E+02  0.25537579953E+03  0.57485322647E+03  0.50000000000E+03 0.  1.
    -200001    1    1    2    0    0 -0.12563438467E+03 -0.10259362717E+03  0.10374721457E+03  0.72599788945E+03  0.70000000000E+03 0. -1.
<mgrwt>
<rscale>  0 0.14687368E+04</rscale>
<asrwt>0</asrwt>
<pdfrwt beam="1">  1        3 0.14585571E+00 0.14687368E+04</pdfrwt>
<pdfrwt beam="2">  1       -3 0.75458553E-01 0.14687368E+04</pdfrwt>
<totfact> 0.14687106E+00</totfact>
</mgrwt>
</event>
<event>
 8    1  0.1206249E-029  0.2812413E+04  0.7818608E-02  0.8299425E-01
          3   -1    0    0  501    0  0.00000000000E+00  0.00000000000E+00  0.95884196859E+03  0.95884197391E+03  0.10100000000E+00 0. -1.
         -3   -1    0    0    0  501 -0.00000000000E+00 -0.00000000000E+00 -0.20622965153E+04  0.20622965177E+04  0.10100000000E+00 0.  1.
     200001    2    1    2    0    0  0.97068296021E+03 -0.80039810995E+02 -0.13403915928E+04  0.17985302370E+04  0.69959246042E+03 0.  0.
    5000001    2    3    3    0    0  0.18683729389E+03  0.23755421493E+02 -0.48060022121E+03  0.52792853638E+03  0.11072250203E+03 0.  0.
        -13    1    4    4    0    0  0.66107988093E+02  0.50544559080E+02 -0.12428632401E+03  0.14957312607E+03  0.10566000000E+00 0. -1.
     200003    1    4    4    0    0  0.12072930579E+03 -0.26789137587E+02 -0.35631389720E+03  0.37835541030E+03  0.30000000000E+02 0. -1.
     200000    1    3    3    0    0  0.78384566632E+03 -0.10379523249E+03 -0.85979137157E+03  0.12706017006E+04  0.50000000000E+03 0.  1.
    -200001    1    1    2    0    0 -0.97068296021E+03  0.80039810995E+02  0.23693704612E+03  0.12226082547E+04  0.70000000000E+03 0. -1.
<mgrwt>
<rscale>  0 0.28124128E+04</rscale>
<asrwt>0</asrwt>
<pdfrwt beam="1">  1        3 0.13697743E+00 0.28124128E+04</pdfrwt>
<pdfrwt beam="2">  1       -3 0.29461379E+00 0.28124128E+04</pdfrwt>
<totfact> 0.37939117E-02</totfact>
</mgrwt>
</event>
<event>
 8    1  0.1206249E-029  0.1647700E+04  0.7818608E-02  0.8791768E-01
          3   -1    0    0  501    0  0.00000000000E+00  0.00000000000E+00  0.17376746095E+04  0.17376746124E+04  0.10100000000E+00 0.  1.
         -3   -1    0    0    0  501 -0.00000000000E+00 -0.00000000000E+00 -0.39059601633E+03  0.39059602939E+03  0.10100000000E+00 0. -1.
     200001    2    1    2    0    0 -0.41367415804E+03 -0.11972552253E+03  0.74676877883E+03  0.11105121326E+04  0.70008076530E+03 0.  0.
    5000001    2    3    3    0    0 -0.11752178381E+03 -0.52792726077E+02  0.14664707209E+03  0.27245945476E+03  0.19007984938E+03 0.  0.
        -13    1    4    4    0    0  0.25082141771E+02 -0.11245607568E+02 -0.29352651327E+02  0.40214012848E+02  0.10566000000E+00 0. -1.
     200003    1    4    4    0    0 -0.14260392558E+03 -0.41547118508E+02  0.17599972342E+03  0.23224544191E+03  0.30000000000E+02 0. -1.
     200000    1    3    3    0    0 -0.29615237423E+03 -0.66932796455E+02  0.60012170674E+03  0.83805267788E+03  0.50000000000E+03 0. -1.
    -200001    1    1    2    0    0  0.41367415804E+03  0.11972552253E+03  0.60030981430E+03  0.10177585091E+04  0.70000000000E+03 0. -1.
<mgrwt>
<rscale>  0 0.16477000E+04</rscale>
<asrwt>0</asrwt>
<pdfrwt beam="1">  1        3 0.24823922E+00 0.16477000E+04</pdfrwt>
<pdfrwt beam="2">  1       -3 0.55799434E-01 0.16477000E+04</pdfrwt>
<totfact> 0.60235197E-01</totfact>
</mgrwt>
</event>
<event>
 8    1  0.1206249E-029  0.1471777E+04  0.7818608E-02  0.8903441E-01
         -3   -1    0    0    0  501 -0.00000000000E+00  0.00000000000E+00  0.24796877116E+03  0.24796879173E+03  0.10100000000E+00 0. -1.
          3   -1    0    0  501    0  0.00000000000E+00 -0.00000000000E+00 -0.21838700685E+04  0.21838700708E+04  0.10100000000E+00 0.  1.
     200001    2    1    2    0    0 -0.11202610734E+03 -0.16322640805E+03 -0.79153152464E+03  0.10758245243E+04  0.70120149991E+03 0.  0.
    5000001    2    3    3    0    0 -0.66470450733E+02  0.54345474185E+02 -0.30149235709E+03  0.34128301588E+03  0.13492480929E+03 0.  0.
        -13    1    4    4    0    0 -0.81473742378E+02  0.40855443031E+02 -0.28900067371E+03  0.30303224002E+03  0.10566000000E+00 0. -1.
     200003    1    4    4    0    0  0.15003291645E+02  0.13490031153E+02 -0.12491683387E+02  0.38250775869E+02  0.30000000000E+02 0. -1.
     200000    1    3    3    0    0 -0.45555656604E+02 -0.21757188224E+03 -0.49003916754E+03  0.73454150837E+03  0.50000000000E+03 0. -1.
    -200001    1    1    2    0    0  0.11202610734E+03  0.16322640805E+03 -0.11443697727E+04  0.13560143383E+04  0.70000000000E+03 0. -1.
<mgrwt>
<rscale>  0 0.14717766E+04</rscale>
<asrwt>0</asrwt>
<pdfrwt beam="1">  1        3 0.31198143E+00 0.14717766E+04</pdfrwt>
<pdfrwt beam="2">  1       -3 0.35424113E-01 0.14717766E+04</pdfrwt>
<totfact> 0.67188267E-01</totfact>
</mgrwt>
</event>
<event>
 8    1  0.1206249E-029  0.1603603E+04  0.7818608E-02  0.8818338E-01
          3   -1    0    0  501    0  0.00000000000E+00  0.00000000000E+00  0.10894542082E+04  0.10894542128E+04  0.10100000000E+00 0. -1.
         -3   -1    0    0    0  501 -0.00000000000E+00 -0.00000000000E+00 -0.59009892302E+03  0.59009893166E+03  0.10100000000E+00 0.  1.
     200001    2    1    2    0    0  0.56700948786E+02 -0.35183314280E+03  0.81952767385E+02  0.79004405529E+03  0.70032263654E+03 0.  0.
    5000001    2    3    3    0    0  0.38001213118E+02 -0.32640665359E+02 -0.13246225734E+02  0.18896472104E+03  0.18172148488E+03 0.  0.
        -13    1    4    4    0    0  0.83816854974E+02 -0.26709111962E+02  0.53083371915E+02  0.10274481679E+03  0.10566000000E+00 0. -1.
     200003    1    4    4    0    0 -0.45815641857E+02 -0.59315533964E+01 -0.66329597649E+02  0.86219904249E+02  0.30000000000E+02 0. -1.
     200000    1    3    3    0    0  0.18699735669E+02 -0.31919247744E+03  0.95198993119E+02  0.60107933425E+03  0.50000000000E+03 0.  1.
    -200001    1    1    2    0    0 -0.56700948786E+02  0.35183314280E+03  0.41740251775E+03  0.88950908921E+03  0.70000000000E+03 0. -1.
<mgrwt>
<rscale>  0 0.16036032E+04</rscale>
<asrwt>0</asrwt>
<pdfrwt beam="1">  1        3 0.15563632E+00 0.16036032E+04</pdfrwt>
<pdfrwt beam="2">  1       -3 0.84299847E-01 0.16036032E+04</pdfrwt>
<totfact> 0.95976879E-01</totfact>
</mgrwt>
</event>
<event>
 8    1  0.1206249E-029  0.1556431E+04  0.7818608E-02  0.8847771E-01
          3   -1    0    0  501    0  0.00000000000E+00  0.00000000000E+00  0.27424905255E+04  0.27424905274E+04  0.10100000000E+00 0.  1.
         -3   -1    0    0    0  501 -0.00000000000E+00 -0.00000000000E+00 -0.22082818456E+03  0.22082820766E+03  0.10100000000E+00 0. -1.
     200001    2    1    2    0    0  0.29329010498E+03  0.17070044087E+03  0.12987470134E+04  0.15139465866E+04  0.70009480514E+03 0.  0.
    5000001    2    3    3    0    0  0.18211990685E+03  0.15310503081E+03  0.59266178760E+03  0.64146463410E+03  0.60167029111E+02 0.  0.
        -13    1    4    4    0    0  0.12016448082E+03  0.10941138514E+03  0.42551438424E+03  0.45549188358E+03  0.10566000000E+00 0. -1.
     200003    1    4    4    0    0  0.61955426026E+02  0.43693645670E+02  0.16714740336E+03  0.18597275052E+03  0.30000000000E+02 0.  1.
     200000    1    3    3    0    0  0.11117019813E+03  0.17595410058E+02  0.70608522581E+03  0.87248195255E+03  0.50000000000E+03 0. -1.
    -200001    1    1    2    0    0 -0.29329010498E+03 -0.17070044087E+03  0.12229153275E+04  0.14493721484E+04  0.70000000000E+03 0. -1.
<mgrwt>
<rscale>  0 0.15564308E+04</rscale>
<asrwt>0</asrwt>
<pdfrwt beam="1">  1        3 0.39178434E+00 0.15564308E+04</pdfrwt>
<pdfrwt beam="2">  1       -3 0.31546887E-01 0.15564308E+04</pdfrwt>
<totfact> 0.30983469E-01</totfact>
</mgrwt>
</event>
<event>
 8    1  0.1206249E-029  0.1636665E+04  0.7818608E-02  0.8798334E-01
          3   -1    0    0  501    0  0.00000000000E+00  0.00000000000E+00  0.10320165795E+04  0.10320165845E+04  0.10100000000E+00 0.  1.
         -3   -1    0    0    0  501 -0.00000000000E+00 -0.00000000000E+00 -0.64889307082E+03  0.64889307868E+03  0.10100000000E+00 0. -1.
     200001    2    1    2    0    0 -0.36533056089E+03  0.13510195992E+03  0.36339039982E+03  0.87959302545E+03  0.69993738966E+03 0.  0.
    5000001    2    3    3    0    0  0.24259350892E+02 -0.91669739696E+02  0.63583982002E+02  0.14264690037E+03  0.85518174305E+02 0.  0.
        -13    1    4    4    0    0  0.13924217647E+02 -0.51628052104E+02  0.73209316992E+02  0.90658451672E+02  0.10566000000E+00 0. -1.
     200003    1    4    4    0    0  0.10335133245E+02 -0.40041687592E+02 -0.96253349897E+01  0.51988448699E+02  0.30000000000E+02 0.  1.
     200000    1    3    3    0    0 -0.38958991178E+03  0.22677169961E+03  0.29980641782E+03  0.73694612508E+03  0.50000000000E+03 0.  1.
    -200001    1    1    2    0    0  0.36533056089E+03 -0.13510195992E+03  0.19733108911E+02  0.80131663772E+03  0.70000000000E+03 0. -1.
<mgrwt>
<rscale>  0 0.16366654E+04</rscale>
<asrwt>0</asrwt>
<pdfrwt beam="1">  1        3 0.14743094E+00 0.16366654E+04</pdfrwt>
<pdfrwt beam="2">  1       -3 0.92699011E-01 0.16366654E+04</pdfrwt>
<totfact> 0.88778946E-01</totfact>
</mgrwt>
</event>
<event>
 8    1  0.1206249E-029  0.2094592E+04  0.7818608E-02  0.8563629E-01
         -3   -1    0    0    0  501 -0.00000000000E+00  0.00000000000E+00  0.10696023788E+04  0.10696023836E+04  0.10100000000E+00 0. -1.
          3   -1    0    0  501    0  0.00000000000E+00 -0.00000000000E+00 -0.10254551331E+04  0.10254551381E+04  0.10100000000E+00 0.  1.
     200001    2    1    2    0    0  0.14690838731E+03  0.76397160238E+03 -0.22380354983E+02  0.10464104862E+04  0.69945646167E+03 0.  0.
    5000001    2    3    3    0    0  0.28604209801E+02  0.11161330914E+03 -0.31681592444E+02  0.21595655356E+03  0.17988267879E+03 0.  0.
        -13    1    4    4    0    0  0.10805709287E+02  0.29060663350E+02  0.72309487559E+02  0.78676290346E+02  0.10566000000E+00 0. -1.
     200003    1    4    4    0    0  0.17798500514E+02  0.82552645787E+02 -0.10399108000E+03  0.13728026321E+03  0.30000000000E+02 0. -1.
     200000    1    3    3    0    0  0.11830417751E+03  0.65235829325E+03  0.93012374603E+01  0.83045393262E+03  0.50000000000E+03 0.  1.
    -200001    1    1    2    0    0 -0.14690838731E+03 -0.76397160238E+03  0.66527600682E+02  0.10486470355E+04  0.70000000000E+03 0. -1.
<mgrwt>
<rscale>  0 0.20945923E+04</rscale>
<asrwt>0</asrwt>
<pdfrwt beam="1">  1        3 0.14649359E+00 0.20945923E+04</pdfrwt>
<pdfrwt beam="2">  1       -3 0.15280034E+00 0.20945923E+04</pdfrwt>
<totfact> 0.25659443E-01</totfact>
</mgrwt>
</event>
<event>
 8    1  0.1206249E-029  0.1495393E+04  0.7818608E-02  0.8887523E-01
          3   -1    0    0  501    0  0.00000000000E+00  0.00000000000E+00  0.21237633988E+04  0.21237634012E+04  0.10100000000E+00 0.  1.
         -3   -1    0    0    0  501 -0.00000000000E+00 -0.00000000000E+00 -0.26323540221E+03  0.26323542159E+03  0.10100000000E+00 0. -1.
     200001    2    1    2    0    0  0.87807842682E+02 -0.49821978918E+02  0.54534070190E+03  0.89371048259E+03  0.70080632041E+03 0.  0.
    5000001    2    3    3    0    0  0.40732348318E+02 -0.92462914940E+02  0.22779867520E+03  0.29800309611E+03  0.16341693311E+03 0.  0.
        -13    1    4    4    0    0 -0.40349026415E+02 -0.56157995256E+02  0.17985428511E+03  0.19268974907E+03  0.10566000000E+00 0. -1.
     200003    1    4    4    0    0  0.81081374733E+02 -0.36304919684E+02  0.47944390095E+02  0.10531334703E+03  0.30000000000E+02 0. -1.
     200000    1    3    3    0    0  0.47075494364E+02  0.42640936022E+02  0.31754202670E+03  0.59570738649E+03  0.50000000000E+03 0. -1.
    -200001    1    1    2    0    0 -0.87807842682E+02  0.49821978918E+02  0.13151872946E+04  0.14932883401E+04  0.70000000000E+03 0.  1.
<mgrwt>
<rscale>  0 0.14953926E+04</rscale>
<asrwt>0</asrwt>
<pdfrwt beam="1">  1        3 0.30339476E+00 0.14953926E+04</pdfrwt>
<pdfrwt beam="2">  1       -3 0.37605060E-01 0.14953926E+04</pdfrwt>
<totfact> 0.66497761E-01</totfact>
</mgrwt>
</event>
<event>
 8    1  0.1206249E-029  0.1577495E+04  0.7818608E-02  0.8834494E-01
          3   -1    0    0  501    0  0.00000000000E+00  0.00000000000E+00  0.17440098540E+03  0.17440101464E+03  0.10100000000E+00 0.  1.
         -3   -1    0    0    0  501 -0.00000000000E+00 -0.00000000000E+00 -0.35671977775E+04  0.35671977789E+04  0.10100000000E+00 0. -1.
     200001    2    1    2    0    0 -0.10714887559E+03  0.87710432856E+02 -0.90008520988E+03  0.11487653948E+04  0.70023892044E+03 0.  0.
    5000001    2    3    3    0    0 -0.18556684894E+02 -0.96732766356E+02 -0.26842818569E+03  0.31758643322E+03  0.13822399593E+03 0.  0.
        -13    1    4    4    0    0  0.53635536197E+02 -0.28656625222E+02 -0.63445941221E+02  0.87882714646E+02  0.10566000000E+00 0. -1.
     200003    1    4    4    0    0 -0.72192221090E+02 -0.68076141134E+02 -0.20498224447E+03  0.22970371857E+03  0.30000000000E+02 0. -1.
     200000    1    3    3    0    0 -0.88592190700E+02  0.18444319921E+03 -0.63165702419E+03  0.83117896159E+03  0.50000000000E+03 0.  1.
    -200001    1    1    2    0    0  0.10714887559E+03 -0.87710432856E+02 -0.24927115822E+04  0.25928333987E+04  0.70000000000E+03 0. -1.
<mgrwt>
<rscale>  0 0.15774953E+04</rscale>
<asrwt>0</asrwt>
<pdfrwt beam="1">  1        3 0.24914431E-01 0.15774953E+04</pdfrwt>
<pdfrwt beam="2">  1       -3 0.50959964E+00 0.15774953E+04</pdfrwt>
<totfact> 0.10638272E-01</totfact>
</mgrwt>
</event>
<event>
 8    1  0.1206249E-029  0.1710441E+04  0.7818608E-02  0.8755432E-01
         -3   -1    0    0    0  501 -0.00000000000E+00  0.00000000000E+00  0.83806481389E+03  0.83806481997E+03  0.10100000000E+00 0. -1.
          3   -1    0    0  501    0  0.00000000000E+00 -0.00000000000E+00 -0.87272687262E+03  0.87272687846E+03  0.10100000000E+00 0.  1.
     200001    2    1    2    0    0  0.31181705606E+02 -0.35945861419E+03  0.31860438625E+03  0.84766947347E+03  0.69774779629E+03 0.  0.
    5000001    2    3    3    0    0 -0.25470455374E+02 -0.14708614104E+03  0.11577046689E+03  0.26504340682E+03  0.18590892800E+03 0.  0.
        -13    1    4    4    0    0  0.69230904190E+02 -0.43535917043E+02  0.18127438444E+01  0.81802147723E+02  0.10566000000E+00 0. -1.
     200003    1    4    4    0    0 -0.94701359564E+02 -0.10355022399E+03  0.11395772305E+03  0.18324125910E+03  0.30000000000E+02 0. -1.
     200000    1    3    3    0    0  0.56652160979E+02 -0.21237247315E+03  0.20283391936E+03  0.58262606665E+03  0.50000000000E+03 0. -1.
    -200001    1    1    2    0    0 -0.31181705606E+02  0.35945861419E+03 -0.35326644498E+03  0.86312222497E+03  0.70000000000E+03 0.  1.
<mgrwt>
<rscale>  0 0.17104405E+04</rscale>
<asrwt>0</asrwt>
<pdfrwt beam="1">  1        3 0.12467527E+00 0.17104405E+04</pdfrwt>
<pdfrwt beam="2">  1       -3 0.11972355E+00 0.17104405E+04</pdfrwt>
<totfact> 0.73468054E-01</totfact>
</mgrwt>
</event>
<event>
 8    1  0.1206249E-029  0.1448843E+04  0.7818608E-02  0.8919203E-01
         -3   -1    0    0    0  501 -0.00000000000E+00  0.00000000000E+00  0.28769837983E+04  0.28769838000E+04  0.10100000000E+00 0. -1.
          3   -1    0    0  501    0  0.00000000000E+00 -0.00000000000E+00 -0.18240857686E+03  0.18240860482E+03  0.10100000000E+00 0.  1.
     200001    2    1    2    0    0 -0.16629563524E+03  0.43314604461E+02  0.15071463713E+04  0.16703216121E+04  0.69925225063E+03 0.  0.
    5000001    2    3    3    0    0 -0.11909821025E+03  0.10873743385E+03  0.61161570937E+03  0.64149562583E+03  0.10693291733E+03 0.  0.
        -13    1    4    4    0    0 -0.22237645622E+02  0.58086757577E+02  0.10233574992E+03  0.11975475425E+03  0.10566000000E+00 0. -1.
     200003    1    4    4    0    0 -0.96860564627E+02  0.50650676278E+02  0.50927995945E+03  0.52174087159E+03  0.30000000000E+02 0. -1.
     200000    1    3    3    0    0 -0.47197424991E+02 -0.65422829394E+02  0.89553066196E+03  0.10288259863E+04  0.50000000000E+03 0.  1.
    -200001    1    1    2    0    0  0.16629563524E+03 -0.43314604461E+02  0.11874288501E+04  0.13890707927E+04  0.70000000000E+03 0. -1.
<mgrwt>
<rscale>  0 0.14488431E+04</rscale>
<asrwt>0</asrwt>
<pdfrwt beam="1">  1        3 0.26058372E-01 0.14488431E+04</pdfrwt>
<pdfrwt beam="2">  1       -3 0.41099766E+00 0.14488431E+04</pdfrwt>
<totfact> 0.33622430E-01</totfact>
</mgrwt>
</event>
<event>
 8    1  0.1206249E-029  0.1615882E+04  0.7818608E-02  0.8810850E-01
          3   -1    0    0  501    0  0.00000000000E+00  0.00000000000E+00  0.40238938835E+03  0.40238940103E+03  0.10100000000E+00 0.  1.
         -3   -1    0    0    0  501 -0.00000000000E+00 -0.00000000000E+00 -0.16222311710E+04  0.16222311741E+04  0.10100000000E+00 0. -1.
     200001    2    1    2    0    0  0.39001001258E+03 -0.10497075769E+03 -0.66161117917E+03  0.10424046740E+04  0.69695873769E+03 0.  0.
    5000001    2    3    3    0    0  0.12346378226E+03 -0.74211862202E+01 -0.18012947404E+03  0.29247971495E+03  0.19442061800E+03 0.  0.
        -13    1    4    4    0    0  0.13091197316E+03  0.68933407209E+02 -0.11148450211E+03  0.18525270503E+03  0.10566000000E+00 0. -1.
     200003    1    4    4    0    0 -0.74481908982E+01 -0.76354593429E+02 -0.68644971930E+02  0.10722700992E+03  0.30000000000E+02 0. -1.
     200000    1    3    3    0    0  0.26654623032E+03 -0.97549571467E+02 -0.48148170512E+03  0.74992495902E+03  0.50000000000E+03 0. -1.
    -200001    1    1    2    0    0 -0.39001001258E+03  0.10497075769E+03 -0.55823060346E+03  0.98221590118E+03  0.70000000000E+03 0. -1.
<mgrwt>
<rscale>  0 0.16158820E+04</rscale>
<asrwt>0</asrwt>
<pdfrwt beam="1">  1        3 0.57484200E-01 0.16158820E+04</pdfrwt>
<pdfrwt beam="2">  1       -3 0.23174731E+00 0.16158820E+04</pdfrwt>
<totfact> 0.70178856E-01</totfact>
</mgrwt>
</event>
<event>
 8    1  0.1206249E-029  0.1480133E+04  0.7818608E-02  0.8897773E-01
          3   -1    0    0  501    0  0.00000000000E+00  0.00000000000E+00  0.13845945279E+04  0.13845945316E+04  0.10100000000E+00 0.  1.
         -3   -1    0    0    0  501 -0.00000000000E+00 -0.00000000000E+00 -0.39556610756E+03  0.39556612046E+03  0.10100000000E+00 0. -1.
     200001    2    1    2    0    0 -0.13210949339E+03 -0.14540147287E+03  0.65511153121E+03  0.98010128213E+03  0.70202058257E+03 0.  0.
    5000001    2    3    3    0    0 -0.21385358827E+02 -0.36547695684E+02  0.76693837711E+02  0.19992437467E+03  0.17970738219E+03 0.  0.
        -13    1    4    4    0    0  0.74454093299E+02 -0.87633769427E+01  0.86232645711E+01  0.75462445232E+02  0.10566000000E+00 0. -1.
     200003    1    4    4    0    0 -0.95839452126E+02 -0.27784318741E+02  0.68070573140E+02  0.12446192944E+03  0.30000000000E+02 0. -1.
     200000    1    3    3    0    0 -0.11072413456E+03 -0.10885377719E+03  0.57841769350E+03  0.78017690746E+03  0.50000000000E+03 0.  1.
    -200001    1    1    2    0    0  0.13210949339E+03  0.14540147287E+03  0.33391688915E+03  0.80005936993E+03  0.70000000000E+03 0. -1.
<mgrwt>
<rscale>  0 0.14801333E+04</rscale>
<asrwt>0</asrwt>
<pdfrwt beam="1">  1        3 0.19779922E+00 0.14801333E+04</pdfrwt>
<pdfrwt beam="2">  1       -3 0.56509446E-01 0.14801333E+04</pdfrwt>
<totfact> 0.11941281E+00</totfact>
</mgrwt>
</event>
<event>
 8    1  0.1206249E-029  0.2060087E+04  0.7818608E-02  0.8579032E-01
          3   -1    0    0  501    0  0.00000000000E+00  0.00000000000E+00  0.21497068534E+04  0.21497068558E+04  0.10100000000E+00 0.  1.
         -3   -1    0    0    0  501 -0.00000000000E+00 -0.00000000000E+00 -0.49355102274E+03  0.49355103307E+03  0.10100000000E+00 0. -1.
     200001    2    1    2    0    0  0.27792697856E+03  0.23256853465E+03  0.16788248065E+04  0.18546861348E+04  0.70005456871E+03 0.  0.
    5000001    2    3    3    0    0  0.13601952714E+03  0.38956354604E+02  0.57988834211E+03  0.62371710445E+03  0.18092437024E+03 0.  0.
        -13    1    4    4    0    0 -0.12671982997E+02  0.22090007141E+02  0.32948166471E+03  0.33046440975E+03  0.10566000000E+00 0. -1.
     200003    1    4    4    0    0  0.14869151014E+03  0.16866347463E+02  0.25040667740E+03  0.29325269470E+03  0.30000000000E+02 0. -1.
     200000    1    3    3    0    0  0.14190745142E+03  0.19361218004E+03  0.10989364644E+04  0.12309690304E+04  0.50000000000E+03 0.  1.
    -200001    1    1    2    0    0 -0.27792697856E+03 -0.23256853465E+03 -0.22668975845E+02  0.78857175398E+03  0.70000000000E+03 0. -1.
<mgrwt>
<rscale>  0 0.20600874E+04</rscale>
<asrwt>0</asrwt>
<pdfrwt beam="1">  1        3 0.30710098E+00 0.20600874E+04</pdfrwt>
<pdfrwt beam="2">  1       -3 0.70507290E-01 0.20600874E+04</pdfrwt>
<totfact> 0.16535145E-01</totfact>
</mgrwt>
</event>
<event>
 8    1  0.1206249E-029  0.1418932E+04  0.7818608E-02  0.8940227E-01
          3   -1    0    0  501    0  0.00000000000E+00  0.00000000000E+00  0.79822964249E+03  0.79822964888E+03  0.10100000000E+00 0.  1.
         -3   -1    0    0    0  501 -0.00000000000E+00 -0.00000000000E+00 -0.63057299732E+03  0.63057300540E+03  0.10100000000E+00 0. -1.
     200001    2    1    2    0    0  0.78283091682E+02 -0.34132593194E+02  0.16211921917E+03  0.72359067237E+03  0.70000538823E+03 0.  0.
    5000001    2    3    3    0    0  0.76177689391E+02  0.38842033104E+02  0.22714316737E+02  0.19941183301E+03  0.17871036642E+03 0.  0.
        -13    1    4    4    0    0 -0.45587094281E+02 -0.20608092130E+02  0.33500482799E+02  0.60209385796E+02  0.10566000000E+00 0. -1.
     200003    1    4    4    0    0  0.12176478367E+03  0.59450125235E+02 -0.10786166062E+02  0.13920244722E+03  0.30000000000E+02 0. -1.
     200000    1    3    3    0    0  0.21054022905E+01 -0.72974626299E+02  0.13940490243E+03  0.52417883935E+03  0.50000000000E+03 0.  1.
    -200001    1    1    2    0    0 -0.78283091682E+02  0.34132593194E+02  0.55374260121E+01  0.70521198192E+03  0.70000000000E+03 0.  1.
<mgrwt>
<rscale>  0 0.14189321E+04</rscale>
<asrwt>0</asrwt>
<pdfrwt beam="1">  1        3 0.11403281E+00 0.14189321E+04</pdfrwt>
<pdfrwt beam="2">  1       -3 0.90081858E-01 0.14189321E+04</pdfrwt>
<totfact> 0.18251455E+00</totfact>
</mgrwt>
</event>
<event>
 8    1  0.1206249E-029  0.1884156E+04  0.7818608E-02  0.8662784E-01
         -3   -1    0    0    0  501 -0.00000000000E+00  0.00000000000E+00  0.73063050875E+03  0.73063051573E+03  0.10100000000E+00 0. -1.
          3   -1    0    0  501    0  0.00000000000E+00 -0.00000000000E+00 -0.12147189050E+04  0.12147189092E+04  0.10100000000E+00 0.  1.
     200001    2    1    2    0    0  0.46800986701E+03 -0.19490749341E+03 -0.61823212024E+03  0.10706970910E+04  0.71215106515E+03 0.  0.
    5000001    2    3    3    0    0  0.14867408881E+03 -0.27505254198E+02 -0.22596909578E+03  0.34003360535E+03  0.20420650534E+03 0.  0.
        -13    1    4    4    0    0  0.17448886212E+03 -0.66341635754E+02 -0.12444155777E+03  0.22435081481E+03  0.10566000000E+00 0. -1.
     200003    1    4    4    0    0 -0.25814773308E+02  0.38836381556E+02 -0.10152753801E+03  0.11568279054E+03  0.30000000000E+02 0. -1.
     200000    1    3    3    0    0  0.31933577820E+03 -0.16740223921E+03 -0.39226302446E+03  0.73066348567E+03  0.50000000000E+03 0.  1.
    -200001    1    1    2    0    0 -0.46800986701E+03  0.19490749341E+03  0.13414372396E+03  0.87465233395E+03  0.70000000000E+03 0. -1.
<mgrwt>
<rscale>  0 0.18841557E+04</rscale>
<asrwt>0</asrwt>
<pdfrwt beam="1">  1        3 0.17353127E+00 0.18841557E+04</pdfrwt>
<pdfrwt beam="2">  1       -3 0.10437579E+00 0.18841557E+04</pdfrwt>
<totfact> 0.42852937E-01</totfact>
</mgrwt>
</event>
<event>
 8    1  0.1206249E-029  0.1701877E+04  0.7818608E-02  0.8760294E-01
          3   -1    0    0  501    0  0.00000000000E+00  0.00000000000E+00  0.49974256363E+03  0.49974257384E+03  0.10100000000E+00 0.  1.
         -3   -1    0    0    0  501 -0.00000000000E+00 -0.00000000000E+00 -0.14489393327E+04  0.14489393362E+04  0.10100000000E+00 0. -1.
     200001    2    1    2    0    0 -0.29621819251E+03  0.66869871218E+02 -0.42843181013E+02  0.76390614063E+03  0.69964294914E+03 0.  0.
    5000001    2    3    3    0    0 -0.85070711575E+02  0.64987754773E+02  0.93827668338E+01  0.21864074589E+03  0.19040825931E+03 0.  0.
        -13    1    4    4    0    0 -0.17546563312E+02  0.99980520911E+02  0.64293029138E+02  0.12015652794E+03  0.10566000000E+00 0. -1.
     200003    1    4    4    0    0 -0.67524148263E+02 -0.34992766138E+02 -0.54910262304E+02  0.98484217959E+02  0.30000000000E+02 0. -1.
     200000    1    3    3    0    0 -0.21114748094E+03  0.18821164452E+01 -0.52225947847E+02  0.54526539474E+03  0.50000000000E+03 0.  1.
    -200001    1    1    2    0    0  0.29621819251E+03 -0.66869871218E+02 -0.90635358805E+03  0.11847757694E+04  0.70000000000E+03 0. -1.
<mgrwt>
<rscale>  0 0.17018774E+04</rscale>
<asrwt>0</asrwt>
<pdfrwt beam="1">  1        3 0.71391796E-01 0.17018774E+04</pdfrwt>
<pdfrwt beam="2">  1       -3 0.20699133E+00 0.17018774E+04</pdfrwt>
<totfact> 0.62005029E-01</totfact>
</mgrwt>
</event>
<event>
 8    1  0.1206249E-029  0.1720457E+04  0.7818608E-02  0.8749782E-01
          3   -1    0    0  501    0  0.00000000000E+00  0.00000000000E+00  0.15303757123E+04  0.15303757157E+04  0.10100000000E+00 0.  1.
         -3   -1    0    0    0  501 -0.00000000000E+00 -0.00000000000E+00 -0.48353702043E+03  0.48353703098E+03  0.10100000000E+00 0. -1.
     200001    2    1    2    0    0  0.11256554717E+03  0.61905671499E+02  0.10890171717E+04  0.13009735215E+04  0.70005027592E+03 0.  0.
    5000001    2    3    3    0    0  0.28954471717E+02  0.12701560143E+02  0.35006425986E+03  0.40349747032E+03  0.19815532157E+03 0.  0.
        -13    1    4    4    0    0  0.63658371733E+02  0.68583280299E+02  0.30326637870E+03  0.31737448265E+03  0.10566000000E+00 0. -1.
     200003    1    4    4    0    0 -0.34703900017E+02 -0.55881720156E+02  0.46797881161E+02  0.86122987669E+02  0.30000000000E+02 0. -1.
     200000    1    3    3    0    0  0.83611075451E+02  0.49204111356E+02  0.73895291186E+03  0.89747605119E+03  0.50000000000E+03 0.  1.
    -200001    1    1    2    0    0 -0.11256554717E+03 -0.61905671499E+02 -0.42178479813E+02  0.71293922513E+03  0.70000000000E+03 0. -1.
<mgrwt>
<rscale>  0 0.17204573E+04</rscale>
<asrwt>0</asrwt>
<pdfrwt beam="1">  1        3 0.21862510E+00 0.17204573E+04</pdfrwt>
<pdfrwt beam="2">  1       -3 0.69076718E-01 0.17204573E+04</pdfrwt>
<totfact> 0.56814296E-01</totfact>
</mgrwt>
</event>
<event>
 8    1  0.1206249E-029  0.1732493E+04  0.7818608E-02  0.8743047E-01
         -3   -1    0    0    0  501 -0.00000000000E+00  0.00000000000E+00  0.24650442982E+04  0.24650443003E+04  0.10100000000E+00 0. -1.
          3   -1    0    0  501    0  0.00000000000E+00 -0.00000000000E+00 -0.30440943907E+03  0.30440945583E+03  0.10100000000E+00 0.  1.
     200001    2    1    2    0    0 -0.37125112991E+03  0.17982500115E+03  0.15592535667E+04  0.17586007048E+04  0.70088538372E+03 0.  0.
    5000001    2    3    3    0    0 -0.23244358890E+03 -0.20545064066E+02  0.59915424254E+03  0.64900329638E+03  0.88132574499E+02 0.  0.
        -13    1    4    4    0    0 -0.19805708762E+02 -0.16151916301E+01  0.14415169824E+03  0.14551494155E+03  0.10566000000E+00 0. -1.
     200003    1    4    4    0    0 -0.21263788014E+03 -0.18929872436E+02  0.45500254430E+03  0.50348835484E+03  0.30000000000E+02 0. -1.
     200000    1    3    3    0    0 -0.13880754101E+03  0.20037006522E+03  0.96009932413E+03  0.11095974084E+04  0.50000000000E+03 0. -1.
    -200001    1    1    2    0    0  0.37125112991E+03 -0.17982500115E+03  0.60138129248E+03  0.10108530514E+04  0.70000000000E+03 0.  1.
<mgrwt>
<rscale>  0 0.17324927E+04</rscale>
<asrwt>0</asrwt>
<pdfrwt beam="1">  1        3 0.43487063E-01 0.17324927E+04</pdfrwt>
<pdfrwt beam="2">  1       -3 0.35214920E+00 0.17324927E+04</pdfrwt>
<totfact> 0.25712006E-01</totfact>
</mgrwt>
</event>
<event>
 8    1  0.1206249E-029  0.1485095E+04  0.7818608E-02  0.8894426E-01
         -3   -1    0    0    0  501 -0.00000000000E+00  0.00000000000E+00  0.22620767837E+04  0.22620767859E+04  0.10100000000E+00 0. -1.
          3   -1    0    0  501    0  0.00000000000E+00 -0.00000000000E+00 -0.24374801896E+03  0.24374803989E+03  0.10100000000E+00 0.  1.
     200001    2    1    2    0    0 -0.13551837534E+03  0.26990849063E+02  0.66223505080E+03  0.97347894551E+03  0.70000875627E+03 0.  0.
    5000001    2    3    3    0    0 -0.56634052242E+02  0.59295542051E+02  0.23129547138E+03  0.30791508626E+03  0.18598582766E+03 0.  0.
        -13    1    4    4    0    0  0.61029366264E+00  0.15439336200E+01  0.22057567240E+03  0.22058194533E+03  0.10566000000E+00 0. -1.
     200003    1    4    4    0    0 -0.57244345904E+02  0.57751608431E+02  0.10719798978E+02  0.87333140929E+02  0.30000000000E+02 0. -1.
     200000    1    3    3    0    0 -0.78884323095E+02 -0.32304692988E+02  0.43093957942E+03  0.66556385924E+03  0.50000000000E+03 0.  1.
    -200001    1    1    2    0    0  0.13551837534E+03 -0.26990849063E+02  0.13560937139E+04  0.15323458803E+04  0.70000000000E+03 0. -1.
<mgrwt>
<rscale>  0 0.14850950E+04</rscale>
<asrwt>0</asrwt>
<pdfrwt beam="1">  1        3 0.34821148E-01 0.14850950E+04</pdfrwt>
<pdfrwt beam="2">  1       -3 0.32315382E+00 0.14850950E+04</pdfrwt>
<totfact> 0.58933924E-01</totfact>
</mgrwt>
</event>
<event>
 8    1  0.1206249E-029  0.1620957E+04  0.7818608E-02  0.8807776E-01
         -3   -1    0    0    0  501 -0.00000000000E+00  0.00000000000E+00  0.24769054538E+03  0.24769056598E+03  0.10100000000E+00 0.  1.
          3   -1    0    0  501    0  0.00000000000E+00 -0.00000000000E+00 -0.26520016398E+04  0.26520016417E+04  0.10100000000E+00 0. -1.
     200001    2    1    2    0    0  0.57010662658E+02  0.38366032995E+03 -0.97587497659E+03  0.12623543662E+04  0.70054344014E+03 0.  0.
    5000001    2    3    3    0    0  0.50760247983E+02  0.12569368666E+03 -0.40784342395E+03  0.46282594175E+03  0.17174425246E+03 0.  0.
        -13    1    4    4    0    0 -0.42719480504E+02 -0.60647933962E+01 -0.35628565015E+02  0.55956604101E+02  0.10566000000E+00 0. -1.
     200003    1    4    4    0    0  0.93479728487E+02  0.13175848006E+03 -0.37221485893E+03  0.40686933765E+03  0.30000000000E+02 0. -1.
     200000    1    3    3    0    0  0.62504146751E+01  0.25796664329E+03 -0.56803155264E+03  0.79952842446E+03  0.50000000000E+03 0. -1.
    -200001    1    1    2    0    0 -0.57010662658E+02 -0.38366032995E+03 -0.14284361178E+04  0.16373378415E+04  0.70000000000E+03 0.  1.
<mgrwt>
<rscale>  0 0.16209575E+04</rscale>
<asrwt>0</asrwt>
<pdfrwt beam="1">  1        3 0.37885736E+00 0.16209575E+04</pdfrwt>
<pdfrwt beam="2">  1       -3 0.35384367E-01 0.16209575E+04</pdfrwt>
<totfact> 0.28926231E-01</totfact>
</mgrwt>
</event>
<event>
 8    1  0.1206249E-029  0.1997876E+04  0.7818608E-02  0.8607614E-01
          3   -1    0    0  501    0  0.00000000000E+00  0.00000000000E+00  0.67571810368E+03  0.67571811123E+03  0.10100000000E+00 0.  1.
         -3   -1    0    0    0  501 -0.00000000000E+00 -0.00000000000E+00 -0.14767656365E+04  0.14767656400E+04  0.10100000000E+00 0. -1.
     200001    2    1    2    0    0 -0.39445405912E+03  0.59350163773E+03 -0.39044171329E+03  0.10724673912E+04  0.69993097876E+03 0.  0.
    5000001    2    3    3    0    0 -0.47221202639E+02  0.49779116789E+02 -0.18721688619E+03  0.23133412786E+03  0.11729242853E+03 0.  0.
        -13    1    4    4    0    0  0.32087742263E+02  0.13382218824E+02 -0.93764594162E+02  0.10000258630E+03  0.10566000000E+00 0. -1.
     200003    1    4    4    0    0 -0.79308944902E+02  0.36396897965E+02 -0.93452292027E+02  0.13133154156E+03  0.30000000000E+02 0.  1.
     200000    1    3    3    0    0 -0.34723285648E+03  0.54372252094E+03 -0.20322482711E+03  0.84113326337E+03  0.50000000000E+03 0. -1.
    -200001    1    1    2    0    0  0.39445405912E+03 -0.59350163773E+03 -0.41060581953E+03  0.10800163600E+04  0.70000000000E+03 0.  1.
<mgrwt>
<rscale>  0 0.19978762E+04</rscale>
<asrwt>0</asrwt>
<pdfrwt beam="1">  1        3 0.96531159E-01 0.19978762E+04</pdfrwt>
<pdfrwt beam="2">  1       -3 0.21096652E+00 0.19978762E+04</pdfrwt>
<totfact> 0.29049045E-01</totfact>
</mgrwt>
</event>
<event>
 8    1  0.1206249E-029  0.1422378E+04  0.7818608E-02  0.8937778E-01
         -3   -1    0    0    0  501 -0.00000000000E+00  0.00000000000E+00  0.13906459026E+03  0.13906462693E+03  0.10100000000E+00 0. -1.
          3   -1    0    0  501    0  0.00000000000E+00 -0.00000000000E+00 -0.36370847943E+04  0.36370847957E+04  0.10100000000E+00 0.  1.
     200001    2    1    2    0    0 -0.28958676672E+02 -0.11853673359E+03 -0.16871731386E+04  0.18308842334E+04  0.70049576316E+03 0.  0.
    5000001    2    3    3    0    0 -0.82272292543E+02 -0.87549139332E+02 -0.31139400728E+03  0.36576622078E+03  0.14961657185E+03 0.  0.
        -13    1    4    4    0    0 -0.75480853653E+02 -0.44480164175E+01 -0.52296525340E+02  0.91935204601E+02  0.10566000000E+00 0. -1.
     200003    1    4    4    0    0 -0.67914388895E+01 -0.83101122915E+02 -0.25909748194E+03  0.27383101618E+03  0.30000000000E+02 0. -1.
     200000    1    3    3    0    0  0.53313615871E+02 -0.30987594253E+02 -0.13757791313E+04  0.14651180126E+04  0.50000000000E+03 0.  1.
    -200001    1    1    2    0    0  0.28958676672E+02  0.11853673359E+03 -0.18108470654E+04  0.19452651892E+04  0.70000000000E+03 0.  1.
<mgrwt>
<rscale>  0 0.14223780E+04</rscale>
<asrwt>0</asrwt>
<pdfrwt beam="1">  1        3 0.51958349E+00 0.14223780E+04</pdfrwt>
<pdfrwt beam="2">  1       -3 0.19866375E-01 0.14223780E+04</pdfrwt>
<totfact> 0.16640674E-01</totfact>
</mgrwt>
</event>
<event>
 8    1  0.1206249E-029  0.1481105E+04  0.7818608E-02  0.8897116E-01
          3   -1    0    0  501    0  0.00000000000E+00  0.00000000000E+00  0.25998962078E+03  0.25998964039E+03  0.10100000000E+00 0.  1.
         -3   -1    0    0    0  501 -0.00000000000E+00 -0.00000000000E+00 -0.21093828441E+04  0.21093828465E+04  0.10100000000E+00 0. -1.
     200001    2    1    2    0    0  0.13895388669E+03  0.14326823065E+03 -0.11402788914E+04  0.13531652716E+04  0.70070416993E+03 0.  0.
    5000001    2    3    3    0    0  0.80760038984E+02  0.53306826648E+02 -0.27950955592E+03  0.35196427935E+03  0.19076021710E+03 0.  0.
        -13    1    4    4    0    0  0.28283524462E+02  0.45759124544E+02 -0.28571308914E+03  0.29073327244E+03  0.10566000000E+00 0. -1.
     200003    1    4    4    0    0  0.52476514522E+02  0.75477021038E+01  0.62035332194E+01  0.61231006915E+02  0.30000000000E+02 0. -1.
     200000    1    3    3    0    0  0.58193847709E+02  0.89961404002E+02 -0.86076933543E+03  0.10012009923E+04  0.50000000000E+03 0. -1.
    -200001    1    1    2    0    0 -0.13895388669E+03 -0.14326823065E+03 -0.70911433193E+03  0.10162072152E+04  0.70000000000E+03 0.  1.
<mgrwt>
<rscale>  0 0.14811045E+04</rscale>
<asrwt>0</asrwt>
<pdfrwt beam="1">  1        3 0.37141377E-01 0.14811045E+04</pdfrwt>
<pdfrwt beam="2">  1       -3 0.30134040E+00 0.14811045E+04</pdfrwt>
<totfact> 0.68735983E-01</totfact>
</mgrwt>
</event>
<event>
 8    1  0.1206249E-029  0.1450728E+04  0.7818608E-02  0.8917896E-01
         -3   -1    0    0    0  501 -0.00000000000E+00  0.00000000000E+00  0.87100745489E+03  0.87100746075E+03  0.10100000000E+00 0. -1.
          3   -1    0    0  501    0  0.00000000000E+00 -0.00000000000E+00 -0.60407359323E+03  0.60407360167E+03  0.10100000000E+00 0.  1.
     200001    2    1    2    0    0  0.16154879479E+03 -0.98943812674E+02  0.16169367137E+03  0.74230320466E+03  0.69927198795E+03 0.  0.
    5000001    2    3    3    0    0 -0.48021207403E+02 -0.11201339426E+03  0.38399587284E+02  0.18616308657E+03  0.13538511603E+03 0.  0.
        -13    1    4    4    0    0  0.56984857801E+01 -0.74662547119E+02 -0.35617031611E+02  0.82918953125E+02  0.10566000000E+00 0. -1.
     200003    1    4    4    0    0 -0.53719693183E+02 -0.37350847143E+02  0.74016618895E+02  0.10324413344E+03  0.30000000000E+02 0. -1.
     200000    1    3    3    0    0  0.20957000219E+03  0.13069581588E+02  0.12329408409E+03  0.55614011809E+03  0.50000000000E+03 0. -1.
    -200001    1    1    2    0    0 -0.16154879479E+03  0.98943812674E+02  0.10524019029E+03  0.73277785776E+03  0.70000000000E+03 0.  1.
<mgrwt>
<rscale>  0 0.14507276E+04</rscale>
<asrwt>0</asrwt>
<pdfrwt beam="1">  1        3 0.86296229E-01 0.14507276E+04</pdfrwt>
<pdfrwt beam="2">  1       -3 0.12442964E+00 0.14507276E+04</pdfrwt>
<totfact> 0.16217869E+00</totfact>
</mgrwt>
</event>
<event>
 8    1  0.1206249E-029  0.1600226E+04  0.7818608E-02  0.8820409E-01
          3   -1    0    0  501    0  0.00000000000E+00  0.00000000000E+00  0.12367379927E+04  0.12367379968E+04  0.10100000000E+00 0.  1.
         -3   -1    0    0    0  501 -0.00000000000E+00 -0.00000000000E+00 -0.51763664514E+03  0.51763665499E+03  0.10100000000E+00 0. -1.
     200001    2    1    2    0    0  0.18689412718E+03  0.32028757306E+03  0.48078804444E+03  0.92714628270E+03  0.70066364371E+03 0.  0.
    5000001    2    3    3    0    0  0.72135992761E+02  0.16643916833E+03  0.21983546991E+03  0.33138206154E+03  0.16905868412E+03 0.  0.
        -13    1    4    4    0    0  0.81736368729E+02  0.11908194207E+03  0.23193719000E+03  0.27323289365E+03  0.10566000000E+00 0. -1.
     200003    1    4    4    0    0 -0.96003759680E+01  0.47357226260E+02 -0.12101720096E+02  0.58149167897E+02  0.30000000000E+02 0. -1.
     200000    1    3    3    0    0  0.11475813442E+03  0.15384840473E+03  0.26095257453E+03  0.59576422115E+03  0.50000000000E+03 0.  1.
    -200001    1    1    2    0    0 -0.18689412718E+03 -0.32028757306E+03  0.23831330314E+03  0.82722836912E+03  0.70000000000E+03 0.  1.
<mgrwt>
<rscale>  0 0.16002261E+04</rscale>
<asrwt>0</asrwt>
<pdfrwt beam="1">  1        3 0.17667686E+00 0.16002261E+04</pdfrwt>
<pdfrwt beam="2">  1       -3 0.73948092E-01 0.16002261E+04</pdfrwt>
<totfact> 0.91399382E-01</totfact>
</mgrwt>
</event>
<event>
 8    1  0.1206249E-029  0.2650412E+04  0.7818608E-02  0.8351276E-01
         -3   -1    0    0    0  501 -0.00000000000E+00  0.00000000000E+00  0.24104684702E+04  0.24104684724E+04  0.10100000000E+00 0. -1.
          3   -1    0    0  501    0  0.00000000000E+00 -0.00000000000E+00 -0.72856025635E+03  0.72856026335E+03  0.10100000000E+00 0.  1.
     200001    2    1    2    0    0  0.37335630724E+03  0.51558522953E+03  0.19396889754E+04  0.21583789603E+04  0.70070204348E+03 0.  0.
    5000001    2    3    3    0    0  0.11507338111E+03  0.22250486158E+03  0.53835822664E+03  0.62008963785E+03  0.17869326321E+03 0.  0.
        -13    1    4    4    0    0  0.11948059811E+03  0.53208012091E+02  0.28844141276E+03  0.31670990770E+03  0.10566000000E+00 0. -1.
     200003    1    4    4    0    0 -0.44072170046E+01  0.16929684949E+03  0.24991681388E+03  0.30337973015E+03  0.30000000000E+02 0. -1.
     200000    1    3    3    0    0  0.25828292613E+03  0.29308036795E+03  0.14013307488E+04  0.15382893224E+04  0.50000000000E+03 0. -1.
    -200001    1    1    2    0    0 -0.37335630724E+03 -0.51558522953E+03 -0.25778076152E+03  0.98064977544E+03  0.70000000000E+03 0. -1.
<mgrwt>
<rscale>  0 0.26504125E+04</rscale>
<asrwt>0</asrwt>
<pdfrwt beam="1">  1        3 0.10408004E+00 0.26504125E+04</pdfrwt>
<pdfrwt beam="2">  1       -3 0.34435264E+00 0.26504125E+04</pdfrwt>
<totfact> 0.39621277E-02</totfact>
</mgrwt>
</event>
<event>
 8    1  0.1206249E-029  0.1523439E+04  0.7818608E-02  0.8869014E-01
         -3   -1    0    0    0  501 -0.00000000000E+00  0.00000000000E+00  0.39339979294E+03  0.39339980590E+03  0.10100000000E+00 0.  1.
          3   -1    0    0  501    0  0.00000000000E+00 -0.00000000000E+00 -0.14748785331E+04  0.14748785365E+04  0.10100000000E+00 0. -1.
     200001    2    1    2    0    0 -0.12638512731E+03 -0.17221132563E+03 -0.27979302446E+03  0.78276927854E+03  0.69915210492E+03 0.  0.
    5000001    2    3    3    0    0  0.19511242628E+01 -0.36947142488E+02 -0.11553226601E+02  0.18550955124E+03  0.18141504439E+03 0.  0.
        -13    1    4    4    0    0  0.62570818807E+02  0.46335254053E+02 -0.53014860972E+01  0.78039605671E+02  0.10566000000E+00 0. -1.
     200003    1    4    4    0    0 -0.60619694544E+02 -0.83282396541E+02 -0.62517405033E+01  0.10746994556E+03  0.30000000000E+02 0. -1.
     200000    1    3    3    0    0 -0.12833625157E+03 -0.13526418314E+03 -0.26823979786E+03  0.59725972731E+03  0.50000000000E+03 0.  1.
    -200001    1    1    2    0    0  0.12638512731E+03  0.17221132563E+03 -0.80168571568E+03  0.10855090639E+04  0.70000000000E+03 0. -1.
<mgrwt>
<rscale>  0 0.15234394E+04</rscale>
<asrwt>0</asrwt>
<pdfrwt beam="1">  1        3 0.21069693E+00 0.15234394E+04</pdfrwt>
<pdfrwt beam="2">  1       -3 0.56199973E-01 0.15234394E+04</pdfrwt>
<totfact> 0.10004763E+00</totfact>
</mgrwt>
</event>
<event>
 8    1  0.1206249E-029  0.1554746E+04  0.7818608E-02  0.8848842E-01
         -3   -1    0    0    0  501 -0.00000000000E+00  0.00000000000E+00  0.51340543342E+03  0.51340544335E+03  0.10100000000E+00 0. -1.
          3   -1    0    0  501    0  0.00000000000E+00 -0.00000000000E+00 -0.11770590339E+04  0.11770590383E+04  0.10100000000E+00 0.  1.
     200001    2    1    2    0    0  0.18123620660E+03 -0.28464351167E+03 -0.33544250639E+03  0.84690593970E+03  0.70061366265E+03 0.  0.
    5000001    2    3    3    0    0  0.56770302847E+02 -0.11535142643E+02 -0.28454066158E+02  0.18787495040E+03  0.17644102784E+03 0.  0.
        -13    1    4    4    0    0  0.50378071346E+02 -0.70536639992E+02  0.37292989699E+02  0.94361781981E+02  0.10566000000E+00 0. -1.
     200003    1    4    4    0    0  0.63922315015E+01  0.59001497349E+02 -0.65747055857E+02  0.93513168414E+02  0.30000000000E+02 0. -1.
     200000    1    3    3    0    0  0.12446590376E+03 -0.27310836902E+03 -0.30698844024E+03  0.65903098931E+03  0.50000000000E+03 0. -1.
    -200001    1    1    2    0    0 -0.18123620660E+03  0.28464351167E+03 -0.32821109411E+03  0.84355854190E+03  0.70000000000E+03 0. -1.
<mgrwt>
<rscale>  0 0.15547457E+04</rscale>
<asrwt>0</asrwt>
<pdfrwt beam="1">  1        3 0.16815129E+00 0.15547457E+04</pdfrwt>
<pdfrwt beam="2">  1       -3 0.73343635E-01 0.15547457E+04</pdfrwt>
<totfact> 0.10684609E+00</totfact>
</mgrwt>
</event>
<event>
 8    1  0.1206249E-029  0.1948021E+04  0.7818608E-02  0.8631316E-01
          3   -1    0    0  501    0  0.00000000000E+00  0.00000000000E+00  0.58562052430E+03  0.58562053301E+03  0.10100000000E+00 0. -1.
         -3   -1    0    0    0  501 -0.00000000000E+00 -0.00000000000E+00 -0.16199846117E+04  0.16199846149E+04  0.10100000000E+00 0.  1.
     200001    2    1    2    0    0 -0.26464982828E+03  0.49576972674E+03 -0.94537297176E+03  0.13035261202E+04  0.69973076015E+03 0.  0.
    5000001    2    3    3    0    0 -0.81010141987E+02  0.14778197687E+03 -0.26548114869E+03  0.37235916442E+03  0.19942154151E+03 0.  0.
        -13    1    4    4    0    0  0.46790945989E+02  0.74704206841E+02 -0.30160800678E+02  0.93165423886E+02  0.10566000000E+00 0. -1.
     200003    1    4    4    0    0 -0.12780108798E+03  0.73077770031E+02 -0.23532034802E+03  0.27919374053E+03  0.30000000000E+02 0. -1.
     200000    1    3    3    0    0 -0.18363968629E+03  0.34798774987E+03 -0.67989182306E+03  0.93116695576E+03  0.50000000000E+03 0.  1.
    -200001    1    1    2    0    0  0.26464982828E+03 -0.49576972674E+03 -0.88991115664E+02  0.90207902771E+03  0.70000000000E+03 0. -1.
<mgrwt>
<rscale>  0 0.19480208E+04</rscale>
<asrwt>0</asrwt>
<pdfrwt beam="1">  1        3 0.83660077E-01 0.19480208E+04</pdfrwt>
<pdfrwt beam="2">  1       -3 0.23142637E+00 0.19480208E+04</pdfrwt>
<totfact> 0.30391831E-01</totfact>
</mgrwt>
</event>
<event>
 8    1  0.1206249E-029  0.1753976E+04  0.7818608E-02  0.8731165E-01
         -3   -1    0    0    0  501 -0.00000000000E+00  0.00000000000E+00  0.16324238596E+04  0.16324238627E+04  0.10100000000E+00 0. -1.
          3   -1    0    0  501    0  0.00000000000E+00 -0.00000000000E+00 -0.47114461624E+03  0.47114462706E+03  0.10100000000E+00 0.  1.
     200001    2    1    2    0    0  0.19368291035E+03  0.40271881016E+03  0.91882358221E+03  0.12384209547E+04  0.69982438946E+03 0.  0.
    5000001    2    3    3    0    0  0.90975471813E+02  0.70182612796E+02  0.26090572703E+03  0.34176882338E+03  0.18849932263E+03 0.  0.
        -13    1    4    4    0    0  0.64500964756E+02 -0.56296695454E+02  0.12795863746E+03  0.15395816457E+03  0.10566000000E+00 0. -1.
     200003    1    4    4    0    0  0.26474507057E+02  0.12647930825E+03  0.13294708956E+03  0.18781065881E+03  0.30000000000E+02 0. -1.
     200000    1    3    3    0    0  0.10270743853E+03  0.33253619736E+03  0.65791785518E+03  0.89665213135E+03  0.50000000000E+03 0. -1.
    -200001    1    1    2    0    0 -0.19368291035E+03 -0.40271881016E+03  0.24245566118E+03  0.86514753508E+03  0.70000000000E+03 0.  1.
<mgrwt>
<rscale>  0 0.17539757E+04</rscale>
<asrwt>0</asrwt>
<pdfrwt beam="1">  1        3 0.67306373E-01 0.17539757E+04</pdfrwt>
<pdfrwt beam="2">  1       -3 0.23320341E+00 0.17539757E+04</pdfrwt>
<totfact> 0.48648950E-01</totfact>
</mgrwt>
</event>
<event>
 8    1  0.1206249E-029  0.1693129E+04  0.7818608E-02  0.8765293E-01
         -3   -1    0    0    0  501 -0.00000000000E+00  0.00000000000E+00  0.12467393250E+04  0.12467393291E+04  0.10100000000E+00 0. -1.
          3   -1    0    0  501    0  0.00000000000E+00 -0.00000000000E+00 -0.57483663156E+03  0.57483664044E+03  0.10100000000E+00 0.  1.
     200001    2    1    2    0    0 -0.26800501617E+03  0.22244621674E+03  0.68475756284E+03  0.10396077760E+04  0.70041587651E+03 0.  0.
    5000001    2    3    3    0    0 -0.46831827002E+02  0.33626837195E+02  0.21117579744E+03  0.29204505209E+03  0.19331609045E+03 0.  0.
        -13    1    4    4    0    0 -0.10722153331E+03  0.12906072835E+02  0.18973288690E+03  0.21831537614E+03  0.10566000000E+00 0. -1.
     200003    1    4    4    0    0  0.60389706309E+02  0.20720764361E+02  0.21442910537E+02  0.73729675953E+02  0.30000000000E+02 0. -1.
     200000    1    3    3    0    0 -0.22117318917E+03  0.18881937955E+03  0.47358176540E+03  0.74756272394E+03  0.50000000000E+03 0. -1.
    -200001    1    1    2    0    0  0.26800501617E+03 -0.22244621674E+03 -0.12854869370E+02  0.78196819354E+03  0.70000000000E+03 0.  1.
<mgrwt>
<rscale>  0 0.16931290E+04</rscale>
<asrwt>0</asrwt>
<pdfrwt beam="1">  1        3 0.82119518E-01 0.16931290E+04</pdfrwt>
<pdfrwt beam="2">  1       -3 0.17810562E+00 0.16931290E+04</pdfrwt>
<totfact> 0.70043291E-01</totfact>
</mgrwt>
</event>
<event>
 8    1  0.1206249E-029  0.2160816E+04  0.7818608E-02  0.8534917E-01
         -3   -1    0    0    0  501 -0.00000000000E+00  0.00000000000E+00  0.30475549213E+04  0.30475549230E+04  0.10100000000E+00 0. -1.
          3   -1    0    0  501    0  0.00000000000E+00 -0.00000000000E+00 -0.38302230022E+03  0.38302231354E+03  0.10100000000E+00 0.  1.
     200001    2    1    2    0    0 -0.39058132637E+03 -0.66881656613E+03  0.88953166433E+03  0.13713303431E+04  0.69957912803E+03 0.  0.
    5000001    2    3    3    0    0 -0.15710783844E+03 -0.23995359020E+03  0.30570442677E+03  0.46067806861E+03  0.19107194457E+03 0.  0.
        -13    1    4    4    0    0 -0.13040089669E+03 -0.14323053283E+03  0.29831812543E+03  0.35568679273E+03  0.10566000000E+00 0. -1.
     200003    1    4    4    0    0 -0.26706941742E+02 -0.96723057367E+02  0.73863013349E+01  0.10499127588E+03  0.30000000000E+02 0. -1.
     200000    1    3    3    0    0 -0.23347348794E+03 -0.42886297593E+03  0.58382723757E+03  0.91065227448E+03  0.50000000000E+03 0.  1.
    -200001    1    1    2    0    0  0.39058132637E+03  0.66881656613E+03  0.17750009567E+04  0.20592468934E+04  0.70000000000E+03 0. -1.
<mgrwt>
<rscale>  0 0.21608161E+04</rscale>
<asrwt>0</asrwt>
<pdfrwt beam="1">  1        3 0.54717471E-01 0.21608161E+04</pdfrwt>
<pdfrwt beam="2">  1       -3 0.43536501E+00 0.21608161E+04</pdfrwt>
<totfact> 0.53844127E-02</totfact>
</mgrwt>
</event>
<event>
 8    1  0.1206249E-029  0.1802281E+04  0.7818608E-02  0.8705087E-01
          3   -1    0    0  501    0  0.00000000000E+00  0.00000000000E+00  0.10556560460E+04  0.10556560509E+04  0.10100000000E+00 0.  1.
         -3   -1    0    0    0  501 -0.00000000000E+00 -0.00000000000E+00 -0.76924124836E+03  0.76924125499E+03  0.10100000000E+00 0. -1.
     200001    2    1    2    0    0  0.30206223956E+03  0.21299820457E+03  0.57895024318E+03  0.98098568810E+03  0.70038539709E+03 0.  0.
    5000001    2    3    3    0    0  0.91525697480E+02  0.91609231488E+02  0.26716450318E+03  0.34359156669E+03  0.17294244230E+03 0.  0.
        -13    1    4    4    0    0  0.35284377923E+02 -0.57915389454E+00 -0.16227212038E+02  0.38841425299E+02  0.10566000000E+00 0. -1.
     200003    1    4    4    0    0  0.56241319557E+02  0.92188385382E+02  0.28339171522E+03  0.30475014139E+03  0.30000000000E+02 0. -1.
     200000    1    3    3    0    0  0.21053654208E+03  0.12138897309E+03  0.31178574001E+03  0.63739412141E+03  0.50000000000E+03 0.  1.
    -200001    1    1    2    0    0 -0.30206223956E+03 -0.21299820457E+03 -0.29253544550E+03  0.84391161776E+03  0.70000000000E+03 0. -1.
<mgrwt>
<rscale>  0 0.18022810E+04</rscale>
<asrwt>0</asrwt>
<pdfrwt beam="1">  1        3 0.15080801E+00 0.18022810E+04</pdfrwt>
<pdfrwt beam="2">  1       -3 0.10989161E+00 0.18022810E+04</pdfrwt>
<totfact> 0.55448888E-01</totfact>
</mgrwt>
</event>
<event>
 8    1  0.1206249E-029  0.1484085E+04  0.7818608E-02  0.8895106E-01
          3   -1    0    0  501    0  0.00000000000E+00  0.00000000000E+00  0.44711351611E+03  0.44711352751E+03  0.10100000000E+00 0.  1.
         -3   -1    0    0    0  501 -0.00000000000E+00 -0.00000000000E+00 -0.12315152467E+04  0.12315152508E+04  0.10100000000E+00 0. -1.
     200001    2    1    2    0    0  0.89266423128E+02 -0.20316016119E+03 -0.51412792597E+03  0.89613885839E+03  0.69963903826E+03 0.  0.
    5000001    2    3    3    0    0  0.17579183552E+02 -0.21299066157E+02 -0.62778673899E+02  0.19476259307E+03  0.18228721252E+03 0.  0.
        -13    1    4    4    0    0  0.23748761779E+02  0.53711504269E+02 -0.91563533479E+02  0.10877877184E+03  0.10566000000E+00 0. -1.
     200003    1    4    4    0    0 -0.61695782267E+01 -0.75010570425E+02  0.28784859580E+02  0.85983821223E+02  0.30000000000E+02 0. -1.
     200000    1    3    3    0    0  0.71687239576E+02 -0.18186109504E+03 -0.45134925207E+03  0.70137626532E+03  0.50000000000E+03 0. -1.
    -200001    1    1    2    0    0 -0.89266423128E+02  0.20316016119E+03 -0.27027380463E+03  0.78248991998E+03  0.70000000000E+03 0.  1.
<mgrwt>
<rscale>  0 0.14840851E+04</rscale>
<asrwt>0</asrwt>
<pdfrwt beam="1">  1        3 0.63873361E-01 0.14840851E+04</pdfrwt>
<pdfrwt beam="2">  1       -3 0.17593075E+00 0.14840851E+04</pdfrwt>
<totfact> 0.12754416E+00</totfact>
</mgrwt>
</event>
<event>
 8    1  0.1206249E-029  0.1999223E+04  0.7818608E-02  0.8606984E-01
         -3   -1    0    0    0  501 -0.00000000000E+00  0.00000000000E+00  0.47902794054E+03  0.47902795119E+03  0.10100000000E+00 0. -1.
          3   -1    0    0  501    0  0.00000000000E+00 -0.00000000000E+00 -0.20859389001E+04  0.20859389025E+04  0.10100000000E+00 0.  1.
     200001    2    1    2    0    0 -0.31570248698E+03 -0.13205959880E+03 -0.16070216499E+04  0.17857956208E+04  0.69959961279E+03 0.  0.
    5000001    2    3    3    0    0 -0.12126158212E+03 -0.43147273436E+02 -0.58958483951E+03  0.63215341884E+03  0.18825940473E+03 0.  0.
        -13    1    4    4    0    0 -0.81771071349E+02  0.48378332596E+02 -0.13054939602E+03  0.16146246357E+03  0.10566000000E+00 0. -1.
     200003    1    4    4    0    0 -0.39490510770E+02 -0.91525606031E+02 -0.45903544349E+03  0.47069095528E+03  0.30000000000E+02 0. -1.
     200000    1    3    3    0    0 -0.19444090486E+03 -0.88912325362E+02 -0.10174368104E+04  0.11536422020E+04  0.50000000000E+03 0.  1.
    -200001    1    1    2    0    0  0.31570248698E+03  0.13205959880E+03  0.11069035148E+00  0.77917123290E+03  0.70000000000E+03 0. -1.
<mgrwt>
<rscale>  0 0.19992229E+04</rscale>
<asrwt>0</asrwt>
<pdfrwt beam="1">  1        3 0.29799127E+00 0.19992229E+04</pdfrwt>
<pdfrwt beam="2">  1       -3 0.68432565E-01 0.19992229E+04</pdfrwt>
<totfact> 0.19907358E-01</totfact>
</mgrwt>
</event>
<event>
 8    1  0.1206249E-029  0.1553208E+04  0.7818608E-02  0.8849821E-01
          3   -1    0    0  501    0  0.00000000000E+00  0.00000000000E+00  0.21463316389E+04  0.21463316413E+04  0.10100000000E+00 0.  1.
         -3   -1    0    0    0  501 -0.00000000000E+00 -0.00000000000E+00 -0.28099744831E+03  0.28099746646E+03  0.10100000000E+00 0. -1.
     200001    2    1    2    0    0 -0.25891719686E+03  0.78827992137E+02  0.12359241137E+04  0.14478348443E+04  0.70389299925E+03 0.  0.
    5000001    2    3    3    0    0 -0.67944253806E+02  0.73850333913E+02  0.36393240776E+03  0.42467064571E+03  0.19449438672E+03 0.  0.
        -13    1    4    4    0    0 -0.54620025807E+02  0.39709172553E+02  0.37072404474E+03  0.37682422177E+03  0.10566000000E+00 0. -1.
     200003    1    4    4    0    0 -0.13324227999E+02  0.34141161360E+02 -0.67916369771E+01  0.47846423938E+02  0.30000000000E+02 0. -1.
     200000    1    3    3    0    0 -0.19097294306E+03  0.49776582237E+01  0.87199170597E+03  0.10231641986E+04  0.50000000000E+03 0.  1.
    -200001    1    1    2    0    0  0.25891719686E+03 -0.78827992137E+02  0.62941007685E+03  0.97949426339E+03  0.70000000000E+03 0. -1.
<mgrwt>
<rscale>  0 0.15532080E+04</rscale>
<asrwt>0</asrwt>
<pdfrwt beam="1">  1        3 0.30661881E+00 0.15532080E+04</pdfrwt>
<pdfrwt beam="2">  1       -3 0.40142494E-01 0.15532080E+04</pdfrwt>
<totfact> 0.55864636E-01</totfact>
</mgrwt>
</event>
<event>
 8    1  0.1206249E-029  0.1441037E+04  0.7818608E-02  0.8924638E-01
          3   -1    0    0  501    0  0.00000000000E+00  0.00000000000E+00  0.45818636169E+03  0.45818637282E+03  0.10100000000E+00 0.  1.
         -3   -1    0    0    0  501 -0.00000000000E+00 -0.00000000000E+00 -0.11330477768E+04  0.11330477813E+04  0.10100000000E+00 0. -1.
     200001    2    1    2    0    0 -0.15372359931E+03 -0.28018086657E+02 -0.41167373492E+03  0.82724219527E+03  0.70031309245E+03 0.  0.
    5000001    2    3    3    0    0 -0.11988250780E+02  0.83289598334E+01 -0.39433493537E+02  0.18695100049E+03  0.18216088066E+03 0.  0.
        -13    1    4    4    0    0 -0.41975971627E+02 -0.13320709570E+02 -0.10037361147E+03  0.10960974656E+03  0.10566000000E+00 0. -1.
     200003    1    4    4    0    0  0.29987720847E+02  0.21649669403E+02  0.60940117928E+02  0.77341253933E+02  0.30000000000E+02 0. -1.
     200000    1    3    3    0    0 -0.14173534853E+03 -0.36347046491E+02 -0.37224024138E+03  0.64029119478E+03  0.50000000000E+03 0. -1.
    -200001    1    1    2    0    0  0.15372359931E+03  0.28018086657E+02 -0.26318768017E+03  0.76399195883E+03  0.70000000000E+03 0. -1.
<mgrwt>
<rscale>  0 0.14410372E+04</rscale>
<asrwt>0</asrwt>
<pdfrwt beam="1">  1        3 0.65455196E-01 0.14410372E+04</pdfrwt>
<pdfrwt beam="2">  1       -3 0.16186397E+00 0.14410372E+04</pdfrwt>
<totfact> 0.15217776E+00</totfact>
</mgrwt>
</event>
<event>
 8    1  0.1206249E-029  0.1822680E+04  0.7818608E-02  0.8694331E-01
          3   -1    0    0  501    0  0.00000000000E+00  0.00000000000E+00  0.71787301675E+03  0.71787302385E+03  0.10100000000E+00 0.  1.
         -3   -1    0    0    0  501 -0.00000000000E+00 -0.00000000000E+00 -0.11569457591E+04  0.11569457636E+04  0.10100000000E+00 0. -1.
     200001    2    1    2    0    0  0.11503159942E+03 -0.18198611990E+03  0.33872769367E+03  0.80649077830E+03  0.69952820409E+03 0.  0.
    5000001    2    3    3    0    0  0.10350443114E+03 -0.96511128855E+02  0.94758946524E+02  0.24349912713E+03  0.17402586505E+03 0.  0.
        -13    1    4    4    0    0 -0.14366902384E+02  0.76194267532E+01 -0.34225779787E+02  0.37892990305E+02  0.10566000000E+00 0. -1.
     200003    1    4    4    0    0  0.11787133352E+03 -0.10413055561E+03  0.12898472631E+03  0.20560613682E+03  0.30000000000E+02 0. -1.
     200000    1    3    3    0    0  0.11527168280E+02 -0.85474991049E+02  0.24396874715E+03  0.56299165117E+03  0.50000000000E+03 0.  1.
    -200001    1    1    2    0    0 -0.11503159942E+03  0.18198611990E+03 -0.77780043607E+03  0.10683280091E+04  0.70000000000E+03 0. -1.
<mgrwt>
<rscale>  0 0.18226795E+04</rscale>
<asrwt>0</asrwt>
<pdfrwt beam="1">  1        3 0.10255329E+00 0.18226795E+04</pdfrwt>
<pdfrwt beam="2">  1       -3 0.16527797E+00 0.18226795E+04</pdfrwt>
<totfact> 0.51080503E-01</totfact>
</mgrwt>
</event>
<event>
 8    1  0.1206249E-029  0.1734558E+04  0.7818608E-02  0.8741897E-01
         -3   -1    0    0    0  501 -0.00000000000E+00  0.00000000000E+00  0.72782424825E+03  0.72782425525E+03  0.10100000000E+00 0.  1.
          3   -1    0    0  501    0  0.00000000000E+00 -0.00000000000E+00 -0.10334537673E+04  0.10334537723E+04  0.10100000000E+00 0. -1.
     200001    2    1    2    0    0 -0.29409006702E+03  0.18830080072E+03 -0.53283675120E+03  0.94668040575E+03  0.70024469161E+03 0.  0.
    5000001    2    3    3    0    0 -0.19190255816E+03  0.73859793951E+02 -0.23605520835E+03  0.34533332197E+03  0.14577784770E+03 0.  0.
        -13    1    4    4    0    0 -0.16684059755E+03  0.32945783568E+02 -0.23326754637E+03  0.28867796763E+03  0.10566000000E+00 0. -1.
     200003    1    4    4    0    0 -0.25061960617E+02  0.40914010383E+02 -0.27876619865E+01  0.56655354335E+02  0.30000000000E+02 0. -1.
     200000    1    3    3    0    0 -0.10218750886E+03  0.11444100677E+03 -0.29678154285E+03  0.60134708378E+03  0.50000000000E+03 0. -1.
    -200001    1    1    2    0    0  0.29409006702E+03 -0.18830080072E+03  0.22720723211E+03  0.81459762177E+03  0.70000000000E+03 0.  1.
<mgrwt>
<rscale>  0 0.17345578E+04</rscale>
<asrwt>0</asrwt>
<pdfrwt beam="1">  1        3 0.14763625E+00 0.17345578E+04</pdfrwt>
<pdfrwt beam="2">  1       -3 0.10397489E+00 0.17345578E+04</pdfrwt>
<totfact> 0.67179083E-01</totfact>
</mgrwt>
</event>
<event>
 8    1  0.1206249E-029  0.1569056E+04  0.7818608E-02  0.8839787E-01
         -3   -1    0    0    0  501 -0.00000000000E+00  0.00000000000E+00  0.61034503357E+03  0.61034504192E+03  0.10100000000E+00 0. -1.
          3   -1    0    0  501    0  0.00000000000E+00 -0.00000000000E+00 -0.10084198535E+04  0.10084198585E+04  0.10100000000E+00 0.  1.
     200001    2    1    2    0    0 -0.22814844454E+03 -0.17758926672E+02  0.79651724691E+02  0.74093248841E+03  0.70019244705E+03 0.  0.
    5000001    2    3    3    0    0 -0.12923483100E+03 -0.80786252385E+02  0.52114097925E+02  0.22662259387E+03  0.15941725356E+03 0.  0.
        -13    1    4    4    0    0 -0.11583359593E+03 -0.40147596274E+02 -0.32808696742E+02  0.12690812889E+03  0.10566000000E+00 0. -1.
     200003    1    4    4    0    0 -0.13401235067E+02 -0.40638656111E+02  0.84922794667E+02  0.99714464978E+02  0.30000000000E+02 0. -1.
     200000    1    3    3    0    0 -0.98913613541E+02  0.63027325713E+02  0.27537626766E+02  0.51430989454E+03  0.50000000000E+03 0. -1.
    -200001    1    1    2    0    0  0.22814844454E+03  0.17758926672E+02 -0.47772654459E+03  0.87783241204E+03  0.70000000000E+03 0.  1.
<mgrwt>
<rscale>  0 0.15690558E+04</rscale>
<asrwt>0</asrwt>
<pdfrwt beam="1">  1        3 0.14405998E+00 0.15690558E+04</pdfrwt>
<pdfrwt beam="2">  1       -3 0.87192148E-01 0.15690558E+04</pdfrwt>
<totfact> 0.10892343E+00</totfact>
</mgrwt>
</event>
<event>
 8    1  0.1206249E-029  0.1688200E+04  0.7818608E-02  0.8768123E-01
          3   -1    0    0  501    0  0.00000000000E+00  0.00000000000E+00  0.59752773508E+03  0.59752774362E+03  0.10100000000E+00 0.  1.
         -3   -1    0    0    0  501 -0.00000000000E+00 -0.00000000000E+00 -0.11924206906E+04  0.11924206949E+04  0.10100000000E+00 0. -1.
     200001    2    1    2    0    0 -0.55777712601E+01  0.44948223959E+02 -0.79508972899E+03  0.10604758876E+04  0.70027849942E+03 0.  0.
    5000001    2    3    3    0    0  0.33671139861E+02  0.11300025959E+03 -0.17449111570E+03  0.25965493674E+03  0.15189052765E+03 0.  0.
        -13    1    4    4    0    0  0.68763354151E+02  0.22876218608E+02 -0.20427630488E+02  0.75292891453E+02  0.10566000000E+00 0. -1.
     200003    1    4    4    0    0 -0.35092214291E+02  0.90124040982E+02 -0.15406348521E+03  0.18436204529E+03  0.30000000000E+02 0. -1.
     200000    1    3    3    0    0 -0.39248911121E+02 -0.68052035631E+02 -0.62059861329E+03  0.80082095090E+03  0.50000000000E+03 0. -1.
    -200001    1    1    2    0    0  0.55777712601E+01 -0.44948223959E+02  0.20019677346E+03  0.72947255087E+03  0.70000000000E+03 0.  1.
<mgrwt>
<rscale>  0 0.16881996E+04</rscale>
<asrwt>0</asrwt>
<pdfrwt beam="1">  1        3 0.85361106E-01 0.16881996E+04</pdfrwt>
<pdfrwt beam="2">  1       -3 0.17034581E+00 0.16881996E+04</pdfrwt>
<totfact> 0.72585317E-01</totfact>
</mgrwt>
</event>
<event>
 8    1  0.1206249E-029  0.1645538E+04  0.7818608E-02  0.8793051E-01
          3   -1    0    0  501    0  0.00000000000E+00  0.00000000000E+00  0.25251161773E+03  0.25251163793E+03  0.10100000000E+00 0.  1.
         -3   -1    0    0    0  501 -0.00000000000E+00 -0.00000000000E+00 -0.26808607272E+04  0.26808607291E+04  0.10100000000E+00 0. -1.
     200001    2    1    2    0    0  0.23280782542E+03  0.31690310790E+03 -0.15418796004E+04  0.17373559566E+04  0.69741376147E+03 0.  0.
    5000001    2    3    3    0    0  0.11551522674E+03  0.57922757982E+02 -0.56453097756E+03  0.60331949080E+03  0.16911643877E+03 0.  0.
        -13    1    4    4    0    0  0.11569120868E+03  0.10548667224E+03 -0.42035278851E+03  0.44856256170E+03  0.10566000000E+00 0. -1.
     200003    1    4    4    0    0 -0.17598194182E+00 -0.47563914260E+02 -0.14417818904E+03  0.15475692910E+03  0.30000000000E+02 0. -1.
     200000    1    3    3    0    0  0.11729259869E+03  0.25898034992E+03 -0.97734862280E+03  0.11340364658E+04  0.50000000000E+03 0.  1.
    -200001    1    1    2    0    0 -0.23280782542E+03 -0.31690310790E+03 -0.88646950913E+03  0.11960164104E+04  0.70000000000E+03 0.  1.
<mgrwt>
<rscale>  0 0.16455376E+04</rscale>
<asrwt>0</asrwt>
<pdfrwt beam="1">  1        3 0.36073091E-01 0.16455376E+04</pdfrwt>
<pdfrwt beam="2">  1       -3 0.38298009E+00 0.16455376E+04</pdfrwt>
<totfact> 0.25324638E-01</totfact>
</mgrwt>
</event>
<event>
 8    1  0.1206249E-029  0.2002829E+04  0.7818608E-02  0.8605299E-01
         -3   -1    0    0    0  501 -0.00000000000E+00  0.00000000000E+00  0.15866446107E+04  0.15866446139E+04  0.10100000000E+00 0. -1.
          3   -1    0    0  501    0  0.00000000000E+00 -0.00000000000E+00 -0.63204511772E+03  0.63204512579E+03  0.10100000000E+00 0.  1.
     200001    2    1    2    0    0  0.20192247804E+03 -0.66522698707E+03  0.66597032550E+03  0.11907761112E+04  0.70080784885E+03 0.  0.
    5000001    2    3    3    0    0  0.94404289313E+02 -0.22506111425E+03  0.22318899306E+03  0.38370643335E+03  0.19455751175E+03 0.  0.
        -13    1    4    4    0    0  0.12435042304E+03 -0.19519851304E+03  0.23573593043E+03  0.33035878566E+03  0.10566000000E+00 0. -1.
     200003    1    4    4    0    0 -0.29946133729E+02 -0.29862601214E+02 -0.12546937365E+02  0.53347647688E+02  0.30000000000E+02 0. -1.
     200000    1    3    3    0    0  0.10751818873E+03 -0.44016587282E+03  0.44278133244E+03  0.80706967782E+03  0.50000000000E+03 0. -1.
    -200001    1    1    2    0    0 -0.20192247804E+03  0.66522698707E+03  0.28862916750E+03  0.10279136286E+04  0.70000000000E+03 0.  1.
<mgrwt>
<rscale>  0 0.20028290E+04</rscale>
<asrwt>0</asrwt>
<pdfrwt beam="1">  1        3 0.90292161E-01 0.20028290E+04</pdfrwt>
<pdfrwt beam="2">  1       -3 0.22666351E+00 0.20028290E+04</pdfrwt>
<totfact> 0.27175278E-01</totfact>
</mgrwt>
</event>
<event>
 8    1  0.1206249E-029  0.1567178E+04  0.7818608E-02  0.8840969E-01
          3   -1    0    0  501    0  0.00000000000E+00  0.00000000000E+00  0.71501512153E+03  0.71501512866E+03  0.10100000000E+00 0. -1.
         -3   -1    0    0    0  501 -0.00000000000E+00 -0.00000000000E+00 -0.85873992901E+03  0.85873993495E+03  0.10100000000E+00 0.  1.
     200001    2    1    2    0    0  0.13786428667E+03  0.16308692674E+03  0.20767900982E+03  0.76191237563E+03  0.70126741676E+03 0.  0.
    5000001    2    3    3    0    0  0.11011166181E+02  0.85776026862E+02  0.52802597015E+02  0.21780265080E+03  0.19279810133E+03 0.  0.
        -13    1    4    4    0    0  0.41056292786E+02 -0.36928671600E+02 -0.30939065473E+02  0.63297574202E+02  0.10566000000E+00 0. -1.
     200003    1    4    4    0    0 -0.30045126605E+02  0.12270469846E+03  0.83741662488E+02  0.15450507660E+03  0.30000000000E+02 0. -1.
     200000    1    3    3    0    0  0.12685312049E+03  0.77310899880E+02  0.15487641281E+03  0.54410972484E+03  0.50000000000E+03 0. -1.
    -200001    1    1    2    0    0 -0.13786428667E+03 -0.16308692674E+03 -0.35140381730E+03  0.81184268798E+03  0.70000000000E+03 0.  1.
<mgrwt>
<rscale>  0 0.15671784E+04</rscale>
<asrwt>0</asrwt>
<pdfrwt beam="1">  1        3 0.10214502E+00 0.15671784E+04</pdfrwt>
<pdfrwt beam="2">  1       -3 0.12267713E+00 0.15671784E+04</pdfrwt>
<totfact> 0.11292132E+00</totfact>
</mgrwt>
</event>
<event>
 8    1  0.1206249E-029  0.1697976E+04  0.7818608E-02  0.8762520E-01
         -3   -1    0    0    0  501 -0.00000000000E+00  0.00000000000E+00  0.10403160014E+04  0.10403160063E+04  0.10100000000E+00 0. -1.
          3   -1    0    0  501    0  0.00000000000E+00 -0.00000000000E+00 -0.69284766828E+03  0.69284767564E+03  0.10100000000E+00 0.  1.
     200001    2    1    2    0    0  0.27311828236E+03  0.18247691082E+03 -0.18394791233E+03  0.79492349677E+03  0.70012506892E+03 0.  0.
    5000001    2    3    3    0    0  0.15150237624E+02 -0.41159169332E+02  0.98149913378E+01  0.15923121957E+03  0.15275680120E+03 0.  0.
        -13    1    4    4    0    0 -0.47426695867E+02 -0.16155023444E+02  0.53664932868E+02  0.73418066217E+02  0.10566000000E+00 0. -1.
     200003    1    4    4    0    0  0.62576933491E+02 -0.25004145888E+02 -0.43849941530E+02  0.85813153356E+02  0.30000000000E+02 0. -1.
     200000    1    3    3    0    0  0.25796804474E+03  0.22363608015E+03 -0.19376290367E+03  0.63569227720E+03  0.50000000000E+03 0.  1.
    -200001    1    1    2    0    0 -0.27311828236E+03 -0.18247691082E+03  0.53141624544E+03  0.93824018517E+03  0.70000000000E+03 0. -1.
<mgrwt>
<rscale>  0 0.16979759E+04</rscale>
<asrwt>0</asrwt>
<pdfrwt beam="1">  1        3 0.98978239E-01 0.16979759E+04</pdfrwt>
<pdfrwt beam="2">  1       -3 0.14861657E+00 0.16979759E+04</pdfrwt>
<totfact> 0.74215165E-01</totfact>
</mgrwt>
</event>
<event>
 8    1  0.1206249E-029  0.1621289E+04  0.7818608E-02  0.8807575E-01
         -3   -1    0    0    0  501 -0.00000000000E+00  0.00000000000E+00  0.13062440390E+04  0.13062440429E+04  0.10100000000E+00 0.  1.
          3   -1    0    0  501    0  0.00000000000E+00 -0.00000000000E+00 -0.50307926403E+03  0.50307927417E+03  0.10100000000E+00 0. -1.
     200001    2    1    2    0    0 -0.30840445228E+03  0.24455816591E+03  0.27845682079E+03  0.85003168264E+03  0.70006689519E+03 0.  0.
    5000001    2    3    3    0    0 -0.12412690356E+03  0.39363235480E+02  0.42310925142E+02  0.23210931011E+03  0.18742349094E+03 0.  0.
        -13    1    4    4    0    0 -0.96284161330E+01 -0.65787346175E+02  0.31061338526E+02  0.73385960708E+02  0.10566000000E+00 0. -1.
     200003    1    4    4    0    0 -0.11449848743E+03  0.10515058166E+03  0.11249586616E+02  0.15872334940E+03  0.30000000000E+02 0. -1.
     200000    1    3    3    0    0 -0.18427754873E+03  0.20519493043E+03  0.23614589565E+03  0.61792237253E+03  0.50000000000E+03 0. -1.
    -200001    1    1    2    0    0  0.30840445228E+03 -0.24455816591E+03  0.52470795416E+03  0.95929163442E+03  0.70000000000E+03 0.  1.
<mgrwt>
<rscale>  0 0.16212887E+04</rscale>
<asrwt>0</asrwt>
<pdfrwt beam="1">  1        3 0.71868468E-01 0.16212887E+04</pdfrwt>
<pdfrwt beam="2">  1       -3 0.18660629E+00 0.16212887E+04</pdfrwt>
<totfact> 0.83019382E-01</totfact>
</mgrwt>
</event>
<event>
 8    1  0.1206249E-029  0.1587091E+04  0.7818608E-02  0.8828518E-01
          3   -1    0    0  501    0  0.00000000000E+00  0.00000000000E+00  0.19123928242E+04  0.19123928269E+04  0.10100000000E+00 0.  1.
         -3   -1    0    0    0  501 -0.00000000000E+00 -0.00000000000E+00 -0.32928087226E+03  0.32928088775E+03  0.10100000000E+00 0. -1.
     200001    2    1    2    0    0  0.18176174316E+02  0.36882196900E+03  0.71229635658E+03  0.10649495247E+04  0.70027949588E+03 0.  0.
    5000001    2    3    3    0    0  0.10141422620E+02  0.56174709248E+02  0.13573112897E+03  0.24018269218E+03  0.18975336582E+03 0.  0.
        -13    1    4    4    0    0 -0.58769070483E+02 -0.10020183704E+02 -0.12862175661E+02  0.60988969934E+02  0.10566000000E+00 0. -1.
     200003    1    4    4    0    0  0.68910493103E+02  0.66194892951E+02  0.14859330463E+03  0.17919372225E+03  0.30000000000E+02 0. -1.
     200000    1    3    3    0    0  0.80347516961E+01  0.31264725975E+03  0.57656522761E+03  0.82476683247E+03  0.50000000000E+03 0. -1.
    -200001    1    1    2    0    0 -0.18176174316E+02 -0.36882196900E+03  0.87081559538E+03  0.11767241900E+04  0.70000000000E+03 0. -1.
<mgrwt>
<rscale>  0 0.15870909E+04</rscale>
<asrwt>0</asrwt>
<pdfrwt beam="1">  1        3 0.27319896E+00 0.15870909E+04</pdfrwt>
<pdfrwt beam="2">  1       -3 0.47040128E-01 0.15870909E+04</pdfrwt>
<totfact> 0.62076527E-01</totfact>
</mgrwt>
</event>
<event>
 8    1  0.1206249E-029  0.1507495E+04  0.7818608E-02  0.8879484E-01
          3   -1    0    0  501    0  0.00000000000E+00  0.00000000000E+00  0.82388326004E+03  0.82388326623E+03  0.10100000000E+00 0.  1.
         -3   -1    0    0    0  501 -0.00000000000E+00 -0.00000000000E+00 -0.68958227987E+03  0.68958228727E+03  0.10100000000E+00 0. -1.
     200001    2    1    2    0    0 -0.14850084800E+03  0.23684454013E+03  0.39269740195E+02  0.75374272601E+03  0.69888349993E+03 0.  0.
    5000001    2    3    3    0    0  0.85987876461E+02  0.26212734619E+02 -0.20900424527E+01  0.16123842137E+03  0.13383735613E+03 0.  0.
        -13    1    4    4    0    0 -0.24065207126E+02  0.37353175814E+01  0.31877474713E+02  0.40115724467E+02  0.10566000000E+00 0. -1.
     200003    1    4    4    0    0  0.11005308359E+03  0.22477417038E+02 -0.33967517166E+02  0.12112269691E+03  0.30000000000E+02 0. -1.
     200000    1    3    3    0    0 -0.23448872446E+03  0.21063180551E+03  0.41359782648E+02  0.59250430463E+03  0.50000000000E+03 0. -1.
    -200001    1    1    2    0    0  0.14850084800E+03 -0.23684454013E+03  0.95031239971E+02  0.75972282749E+03  0.70000000000E+03 0. -1.
<mgrwt>
<rscale>  0 0.15074950E+04</rscale>
<asrwt>0</asrwt>
<pdfrwt beam="1">  1        3 0.11769761E+00 0.15074950E+04</pdfrwt>
<pdfrwt beam="2">  1       -3 0.98511755E-01 0.15074950E+04</pdfrwt>
<totfact> 0.13672997E+00</totfact>
</mgrwt>
</event>
<event>
 8    1  0.1206249E-029  0.1688559E+04  0.7818608E-02  0.8767917E-01
         -3   -1    0    0    0  501 -0.00000000000E+00  0.00000000000E+00  0.12648446043E+04  0.12648446083E+04  0.10100000000E+00 0.  1.
          3   -1    0    0  501    0  0.00000000000E+00 -0.00000000000E+00 -0.56355340352E+03  0.56355341257E+03  0.10100000000E+00 0. -1.
     200001    2    1    2    0    0 -0.26083892124E+03  0.24686227023E+02  0.77492344310E+03  0.10773533753E+04  0.70109742540E+03 0.  0.
    5000001    2    3    3    0    0 -0.18865622246E+03  0.55525463016E+02  0.27712669984E+03  0.36744986206E+03  0.13980681687E+03 0.  0.
        -13    1    4    4    0    0 -0.17611793977E+03  0.13004759421E+02  0.25347987956E+03  0.30893156683E+03  0.10566000000E+00 0. -1.
     200003    1    4    4    0    0 -0.12538282692E+02  0.42520703595E+02  0.23646820281E+02  0.58518295229E+02  0.30000000000E+02 0. -1.
     200000    1    3    3    0    0 -0.72182698778E+02 -0.30839235993E+02  0.49779674326E+03  0.70990351322E+03  0.50000000000E+03 0.  1.
    -200001    1    1    2    0    0  0.26083892124E+03 -0.24686227023E+02 -0.73632242313E+02  0.75104464564E+03  0.70000000000E+03 0.  1.
<mgrwt>
<rscale>  0 0.16885585E+04</rscale>
<asrwt>0</asrwt>
<pdfrwt beam="1">  1        3 0.80507631E-01 0.16885585E+04</pdfrwt>
<pdfrwt beam="2">  1       -3 0.18069209E+00 0.16885585E+04</pdfrwt>
<totfact> 0.70365285E-01</totfact>
</mgrwt>
</event>
<event>
 8    1  0.1206249E-029  0.1776334E+04  0.7818608E-02  0.8718987E-01
          3   -1    0    0  501    0  0.00000000000E+00  0.00000000000E+00  0.14129615790E+04  0.14129615826E+04  0.10100000000E+00 0.  1.
         -3   -1    0    0    0  501 -0.00000000000E+00 -0.00000000000E+00 -0.55828857189E+03  0.55828858103E+03  0.10100000000E+00 0. -1.
     200001    2    1    2    0    0  0.35247838069E+03  0.42712209605E+02 -0.33736910143E+02  0.78578083769E+03  0.70017712335E+03 0.  0.
    5000001    2    3    3    0    0  0.11038674305E+03 -0.44417950903E+02 -0.32997219575E+02  0.22346369138E+03  0.18624987909E+03 0.  0.
        -13    1    4    4    0    0  0.11823389661E+03 -0.71814830748E+02  0.36060656057E+02  0.14295805785E+03  0.10566000000E+00 0. -1.
     200003    1    4    4    0    0 -0.78471535609E+01  0.27396879845E+02 -0.69057875633E+02  0.80505633537E+02  0.30000000000E+02 0. -1.
     200000    1    3    3    0    0  0.24209163764E+03  0.87130160508E+02 -0.73969056717E+00  0.56231714630E+03  0.50000000000E+03 0. -1.
    -200001    1    1    2    0    0 -0.35247838069E+03 -0.42712209605E+02  0.88840991728E+03  0.11854693260E+04  0.70000000000E+03 0.  1.
<mgrwt>
<rscale>  0 0.17763337E+04</rscale>
<asrwt>0</asrwt>
<pdfrwt beam="1">  1        3 0.20185165E+00 0.17763337E+04</pdfrwt>
<pdfrwt beam="2">  1       -3 0.79755512E-01 0.17763337E+04</pdfrwt>
<totfact> 0.52299685E-01</totfact>
</mgrwt>
</event>
<event>
 8    1  0.1206249E-029  0.1691437E+04  0.7818608E-02  0.8766263E-01
          3   -1    0    0  501    0  0.00000000000E+00  0.00000000000E+00  0.48178988750E+03  0.48178989809E+03  0.10100000000E+00 0. -1.
         -3   -1    0    0    0  501 -0.00000000000E+00 -0.00000000000E+00 -0.14845467441E+04  0.14845467475E+04  0.10100000000E+00 0.  1.
     200001    2    1    2    0    0 -0.45799218070E+03 -0.62506632859E+02 -0.62564999258E+03  0.10466228295E+04  0.70022676129E+03 0.  0.
    5000001    2    3    3    0    0  0.89296697683E+01 -0.98601971960E+02 -0.17666028907E+03  0.22753147816E+03  0.10372862643E+03 0.  0.
        -13    1    4    4    0    0  0.13020648200E+02  0.17819587764E+02 -0.38171355863E+02  0.44092386645E+02  0.10566000000E+00 0. -1.
     200003    1    4    4    0    0 -0.40909784321E+01 -0.11642155972E+03 -0.13848893321E+03  0.18343909151E+03  0.30000000000E+02 0. -1.
     200000    1    3    3    0    0 -0.46692185047E+03  0.36095339101E+02 -0.44898970351E+03  0.81909135132E+03  0.50000000000E+03 0. -1.
    -200001    1    1    2    0    0  0.45799218070E+03  0.62506632859E+02 -0.37710686403E+03  0.91971381616E+03  0.70000000000E+03 0.  1.
<mgrwt>
<rscale>  0 0.16914368E+04</rscale>
<asrwt>0</asrwt>
<pdfrwt beam="1">  1        3 0.68827128E-01 0.16914368E+04</pdfrwt>
<pdfrwt beam="2">  1       -3 0.21207811E+00 0.16914368E+04</pdfrwt>
<totfact> 0.62490033E-01</totfact>
</mgrwt>
</event>
<event>
 8    1  0.1206249E-029  0.2257377E+04  0.7818608E-02  0.8494919E-01
          3   -1    0    0  501    0  0.00000000000E+00  0.00000000000E+00  0.79414312222E+03  0.79414312864E+03  0.10100000000E+00 0. -1.
         -3   -1    0    0    0  501 -0.00000000000E+00 -0.00000000000E+00 -0.16041660957E+04  0.16041660989E+04  0.10100000000E+00 0.  1.
     200001    2    1    2    0    0  0.32938172983E+02  0.65203771416E+03 -0.10407282889E+04  0.14136960819E+04  0.69941628286E+03 0.  0.
    5000001    2    3    3    0    0 -0.47631751844E+02  0.13842040996E+03 -0.39237090408E+03  0.44381900391E+03  0.14694008365E+03 0.  0.
        -13    1    4    4    0    0 -0.77556638209E+01  0.11757643719E+03 -0.36431220930E+03  0.38289393559E+03  0.10566000000E+00 0. -1.
     200003    1    4    4    0    0 -0.39876088023E+02  0.20843972769E+02 -0.28058694786E+02  0.60925068321E+02  0.30000000000E+02 0. -1.
     200000    1    3    3    0    0  0.80569924827E+02  0.51361730420E+03 -0.64835738486E+03  0.96987707802E+03  0.50000000000E+03 0.  1.
    -200001    1    1    2    0    0 -0.32938172983E+02 -0.65203771416E+03  0.23070531544E+03  0.98461314561E+03  0.70000000000E+03 0. -1.
<mgrwt>
<rscale>  0 0.22573768E+04</rscale>
<asrwt>0</asrwt>
<pdfrwt beam="1">  1        3 0.11344902E+00 0.22573768E+04</pdfrwt>
<pdfrwt beam="2">  1       -3 0.22916658E+00 0.22573768E+04</pdfrwt>
<totfact> 0.15053564E-01</totfact>
</mgrwt>
</event>
<event>
 8    1  0.1206249E-029  0.1660774E+04  0.7818608E-02  0.8784058E-01
          3   -1    0    0  501    0  0.00000000000E+00  0.00000000000E+00  0.27975825315E+04  0.27975825333E+04  0.10100000000E+00 0.  1.
         -3   -1    0    0    0  501 -0.00000000000E+00 -0.00000000000E+00 -0.24647805304E+03  0.24647807373E+03  0.10100000000E+00 0. -1.
     200001    2    1    2    0    0  0.41511423157E+03 -0.16452788926E+03  0.13041084359E+04  0.15459323143E+04  0.69987045661E+03 0.  0.
    5000001    2    3    3    0    0 -0.31272662561E+02 -0.13691412259E+03  0.28143558320E+03  0.32286913394E+03  0.72904278136E+02 0.  0.
        -13    1    4    4    0    0 -0.29918785094E+02 -0.41682586070E+02  0.54053231706E+02  0.74527409084E+02  0.10566000000E+00 0. -1.
     200003    1    4    4    0    0 -0.13538774671E+01 -0.95231536520E+02  0.22738235150E+03  0.24834172486E+03  0.30000000000E+02 0. -1.
     200000    1    3    3    0    0  0.44638689413E+03 -0.27613766667E+02  0.10226728527E+04  0.12230631803E+04  0.50000000000E+03 0.  1.
    -200001    1    1    2    0    0 -0.41511423157E+03  0.16452788926E+03  0.12469960425E+04  0.14981282928E+04  0.70000000000E+03 0.  1.
<mgrwt>
<rscale>  0 0.16607742E+04</rscale>
<asrwt>0</asrwt>
<pdfrwt beam="1">  1        3 0.39965461E+00 0.16607742E+04</pdfrwt>
<pdfrwt beam="2">  1       -3 0.35211156E-01 0.16607742E+04</pdfrwt>
<totfact> 0.22556483E-01</totfact>
</mgrwt>
</event>
<event>
 8    1  0.1206249E-029  0.1713384E+04  0.7818608E-02  0.8753767E-01
         -3   -1    0    0    0  501 -0.00000000000E+00  0.00000000000E+00  0.33559312934E+03  0.33559314454E+03  0.10100000000E+00 0. -1.
          3   -1    0    0  501    0  0.00000000000E+00 -0.00000000000E+00 -0.21869378049E+04  0.21869378072E+04  0.10100000000E+00 0.  1.
     200001    2    1    2    0    0  0.23069771002E+03  0.40454706596E+03 -0.11663487511E+04  0.14380498876E+04  0.70052716440E+03 0.  0.
    5000001    2    3    3    0    0  0.70675744472E+02  0.76519549306E+02 -0.29719001443E+03  0.37097632376E+03  0.19608984121E+03 0.  0.
        -13    1    4    4    0    0  0.57962046241E+02  0.29902159910E+02  0.31516344238E+01  0.65296875387E+02  0.10566000000E+00 0. -1.
     200003    1    4    4    0    0  0.12713698231E+02  0.46617389396E+02 -0.30034164886E+03  0.30567944837E+03  0.30000000000E+02 0. -1.
     200000    1    3    3    0    0  0.16002196555E+03  0.32802751666E+03 -0.86915873663E+03  0.10670735638E+04  0.50000000000E+03 0.  1.
    -200001    1    1    2    0    0 -0.23069771002E+03 -0.40454706596E+03 -0.68499592446E+03  0.10844810642E+04  0.70000000000E+03 0. -1.
<mgrwt>
<rscale>  0 0.17133842E+04</rscale>
<asrwt>0</asrwt>
<pdfrwt beam="1">  1        3 0.31241968E+00 0.17133842E+04</pdfrwt>
<pdfrwt beam="2">  1       -3 0.47941878E-01 0.17133842E+04</pdfrwt>
<totfact> 0.35862309E-01</totfact>
</mgrwt>
</event>
<event>
 8    1  0.1206249E-029  0.1842598E+04  0.7818608E-02  0.8683968E-01
         -3   -1    0    0    0  501 -0.00000000000E+00  0.00000000000E+00  0.47959578358E+03  0.47959579422E+03  0.10100000000E+00 0. -1.
          3   -1    0    0  501    0  0.00000000000E+00 -0.00000000000E+00 -0.17698074579E+04  0.17698074608E+04  0.10100000000E+00 0.  1.
     200001    2    1    2    0    0 -0.53503749395E+03  0.26772235826E+03 -0.67475671900E+03  0.11418269899E+04  0.70037979975E+03 0.  0.
    5000001    2    3    3    0    0 -0.52087131176E+02  0.10713253589E+03 -0.79221560238E+02  0.21247653429E+03  0.15709797114E+03 0.  0.
        -13    1    4    4    0    0 -0.48265199267E+02 -0.26207661605E+02 -0.94790889721E+00  0.54929779559E+02  0.10566000000E+00 0. -1.
     200003    1    4    4    0    0 -0.38219319094E+01  0.13334019750E+03 -0.78273651340E+02  0.15754675473E+03  0.30000000000E+02 0. -1.
     200000    1    3    3    0    0 -0.48295036278E+03  0.16058982237E+03 -0.59553515876E+03  0.92935045557E+03  0.50000000000E+03 0. -1.
    -200001    1    1    2    0    0  0.53503749395E+03 -0.26772235826E+03 -0.61545495529E+03  0.11075762651E+04  0.70000000000E+03 0. -1.
<mgrwt>
<rscale>  0 0.18425984E+04</rscale>
<asrwt>0</asrwt>
<pdfrwt beam="1">  1        3 0.25282963E+00 0.18425984E+04</pdfrwt>
<pdfrwt beam="2">  1       -3 0.68513685E-01 0.18425984E+04</pdfrwt>
<totfact> 0.36059838E-01</totfact>
</mgrwt>
</event>
<event>
 8    1  0.1206249E-029  0.1551496E+04  0.7818608E-02  0.8850913E-01
          3   -1    0    0  501    0  0.00000000000E+00  0.00000000000E+00  0.12348443381E+04  0.12348443422E+04  0.10100000000E+00 0.  1.
         -3   -1    0    0    0  501 -0.00000000000E+00 -0.00000000000E+00 -0.48733666423E+03  0.48733667469E+03  0.10100000000E+00 0. -1.
     200001    2    1    2    0    0  0.30677119491E+02  0.27799793714E+03  0.57127371785E+03  0.94804772996E+03  0.70300561795E+03 0.  0.
    5000001    2    3    3    0    0 -0.95984013974E+02  0.99533819166E+02  0.24049882383E+03  0.30984359754E+03  0.13799803830E+03 0.  0.
        -13    1    4    4    0    0  0.27745729490E+02  0.44620400778E+02  0.96913213548E+02  0.11024059050E+03  0.10566000000E+00 0. -1.
     200003    1    4    4    0    0 -0.12372974346E+03  0.54913418388E+02  0.14358561028E+03  0.19960300703E+03  0.30000000000E+02 0. -1.
     200000    1    3    3    0    0  0.12666113347E+03  0.17846411798E+03  0.33077489402E+03  0.63820413243E+03  0.50000000000E+03 0.  1.
    -200001    1    1    2    0    0 -0.30677119491E+02 -0.27799793714E+03  0.17623395602E+03  0.77413328695E+03  0.70000000000E+03 0. -1.
<mgrwt>
<rscale>  0 0.15514960E+04</rscale>
<asrwt>0</asrwt>
<pdfrwt beam="1">  1        3 0.17640633E+00 0.15514960E+04</pdfrwt>
<pdfrwt beam="2">  1       -3 0.69619525E-01 0.15514960E+04</pdfrwt>
<totfact> 0.10510131E+00</totfact>
</mgrwt>
</event>
<event>
 8    1  0.1206249E-029  0.1699323E+04  0.7818608E-02  0.8761750E-01
          3   -1    0    0  501    0  0.00000000000E+00  0.00000000000E+00  0.74191669937E+03  0.74191670624E+03  0.10100000000E+00 0.  1.
         -3   -1    0    0    0  501 -0.00000000000E+00 -0.00000000000E+00 -0.97305400883E+03  0.97305401407E+03  0.10100000000E+00 0. -1.
     200001    2    1    2    0    0  0.89469410665E+02  0.15459542614E+03 -0.56502454524E+03  0.91911570371E+03  0.70257840762E+03 0.  0.
    5000001    2    3    3    0    0  0.75748368570E+01 -0.13270628198E+02 -0.15797511136E+03  0.24786688618E+03  0.19039004629E+03 0.  0.
        -13    1    4    4    0    0 -0.46411561392E+02 -0.48146123783E+02  0.80202372591E+01  0.67352933388E+02  0.10566000000E+00 0. -1.
     200003    1    4    4    0    0  0.53986398249E+02  0.34875495585E+02 -0.16599534862E+03  0.18051395279E+03  0.30000000000E+02 0. -1.
     200000    1    3    3    0    0  0.81894573808E+02  0.16786605434E+03 -0.40704943388E+03  0.67124881753E+03  0.50000000000E+03 0. -1.
    -200001    1    1    2    0    0 -0.89469410665E+02 -0.15459542614E+03  0.33388723578E+03  0.79585501660E+03  0.70000000000E+03 0.  1.
<mgrwt>
<rscale>  0 0.16993234E+04</rscale>
<asrwt>0</asrwt>
<pdfrwt beam="1">  1        3 0.10598810E+00 0.16993234E+04</pdfrwt>
<pdfrwt beam="2">  1       -3 0.13900772E+00 0.16993234E+04</pdfrwt>
<totfact> 0.75000155E-01</totfact>
</mgrwt>
</event>
<event>
 8    1  0.1206249E-029  0.2732793E+04  0.7818608E-02  0.8324442E-01
         -3   -1    0    0    0  501 -0.00000000000E+00  0.00000000000E+00  0.20121353748E+04  0.20121353773E+04  0.10100000000E+00 0. -1.
          3   -1    0    0  501    0  0.00000000000E+00 -0.00000000000E+00 -0.92788979942E+03  0.92788980492E+03  0.10100000000E+00 0.  1.
     200001    2    1    2    0    0 -0.10716993468E+04 -0.11947354394E+03  0.10409944733E+04  0.16536799427E+04  0.69869481298E+03 0.  0.
    5000001    2    3    3    0    0 -0.33784896412E+03  0.28033369837E+02  0.28038290187E+03  0.47519590104E+03  0.17963513108E+03 0.  0.
        -13    1    4    4    0    0 -0.10106384382E+03 -0.37645445931E+02  0.17626650886E+03  0.20664213858E+03  0.10566000000E+00 0. -1.
     200003    1    4    4    0    0 -0.23678512030E+03  0.65678815768E+02  0.10411639301E+03  0.26855376246E+03  0.30000000000E+02 0. -1.
     200000    1    3    3    0    0 -0.73385038268E+03 -0.14750691377E+03  0.76061157141E+03  0.11784840416E+04  0.50000000000E+03 0. -1.
    -200001    1    1    2    0    0  0.10716993468E+04  0.11947354394E+03  0.43251102106E+02  0.12863452396E+04  0.70000000000E+03 0.  1.
<mgrwt>
<rscale>  0 0.27327934E+04</rscale>
<asrwt>0</asrwt>
<pdfrwt beam="1">  1        3 0.13255569E+00 0.27327934E+04</pdfrwt>
<pdfrwt beam="2">  1       -3 0.28744791E+00 0.27327934E+04</pdfrwt>
<totfact> 0.45505407E-02</totfact>
</mgrwt>
</event>
<event>
 8    1  0.1206249E-029  0.1413535E+04  0.7818608E-02  0.8944079E-01
         -3   -1    0    0    0  501 -0.00000000000E+00  0.00000000000E+00  0.56083465116E+03  0.56083466025E+03  0.10100000000E+00 0. -1.
          3   -1    0    0  501    0  0.00000000000E+00 -0.00000000000E+00 -0.89067311657E+03  0.89067312230E+03  0.10100000000E+00 0.  1.
     200001    2    1    2    0    0 -0.10241124058E+02 -0.36968165377E+02 -0.70806754120E+02  0.70413307511E+03  0.69951287705E+03 0.  0.
    5000001    2    3    3    0    0 -0.52524745891E+02  0.80035561983E+02  0.68116797180E+02  0.17048756543E+03  0.12353773430E+03 0.  0.
        -13    1    4    4    0    0 -0.26141926445E+02 -0.15258900213E+02  0.59551852056E+02  0.66803208016E+02  0.10566000000E+00 0. -1.
     200003    1    4    4    0    0 -0.26382819446E+02  0.95294462196E+02  0.85649451245E+01  0.10368435741E+03  0.30000000000E+02 0. -1.
     200000    1    3    3    0    0  0.42283621833E+02 -0.11700372736E+03 -0.13892355130E+03  0.53364550968E+03  0.50000000000E+03 0.  1.
    -200001    1    1    2    0    0  0.10241124058E+02  0.36968165377E+02 -0.25903171130E+03  0.74737470745E+03  0.70000000000E+03 0.  1.
<mgrwt>
<rscale>  0 0.14135351E+04</rscale>
<asrwt>0</asrwt>
<pdfrwt beam="1">  1        3 0.12723902E+00 0.14135351E+04</pdfrwt>
<pdfrwt beam="2">  1       -3 0.80119237E-01 0.14135351E+04</pdfrwt>
<totfact> 0.18210549E+00</totfact>
</mgrwt>
</event>
<event>
 8    1  0.1206249E-029  0.2041660E+04  0.7818608E-02  0.8587387E-01
          3   -1    0    0  501    0  0.00000000000E+00  0.00000000000E+00  0.76050874290E+03  0.76050874961E+03  0.10100000000E+00 0.  1.
         -3   -1    0    0    0  501 -0.00000000000E+00 -0.00000000000E+00 -0.13702595195E+04  0.13702595233E+04  0.10100000000E+00 0. -1.
     200001    2    1    2    0    0  0.25373823112E+03 -0.69831239713E+03 -0.25127199273E+03  0.10488577717E+04  0.69637756793E+03 0.  0.
    5000001    2    3    3    0    0  0.11576050915E+02 -0.19119403371E+03 -0.19928457133E+01  0.25642376871E+03  0.17046998047E+03 0.  0.
        -13    1    4    4    0    0  0.78137475113E+02 -0.66974875695E+02 -0.34822389077E+02  0.10864487533E+03  0.10566000000E+00 0. -1.
     200003    1    4    4    0    0 -0.66561424198E+02 -0.12421915801E+03  0.32829543363E+02  0.14777889337E+03  0.30000000000E+02 0. -1.
     200000    1    3    3    0    0  0.24216218021E+03 -0.50711836342E+03 -0.24927914702E+03  0.79243400304E+03  0.50000000000E+03 0.  1.
    -200001    1    1    2    0    0 -0.25373823112E+03  0.69831239713E+03 -0.35847878390E+03  0.10819105011E+04  0.70000000000E+03 0. -1.
<mgrwt>
<rscale>  0 0.20416605E+04</rscale>
<asrwt>0</asrwt>
<pdfrwt beam="1">  1        3 0.10864411E+00 0.20416605E+04</pdfrwt>
<pdfrwt beam="2">  1       -3 0.19575136E+00 0.20416605E+04</pdfrwt>
<totfact> 0.27324207E-01</totfact>
</mgrwt>
</event>
<event>
 8    1  0.1206249E-029  0.2065179E+04  0.7818608E-02  0.8576739E-01
         -3   -1    0    0    0  501 -0.00000000000E+00  0.00000000000E+00  0.27612687930E+03  0.27612689778E+03  0.10100000000E+00 0. -1.
          3   -1    0    0  501    0  0.00000000000E+00 -0.00000000000E+00 -0.38614156928E+04  0.38614156941E+04  0.10100000000E+00 0.  1.
     200001    2    1    2    0    0  0.54300361101E+03  0.29050631328E+03 -0.90403137462E+03  0.12988125425E+04  0.70028169670E+03 0.  0.
    5000001    2    3    3    0    0  0.13403094075E+03  0.89936576940E+02 -0.21718466459E+03  0.33483885657E+03  0.19721815430E+03 0.  0.
        -13    1    4    4    0    0  0.32434457333E+02  0.13564298067E+03 -0.12024771164E+03  0.18414813479E+03  0.10566000000E+00 0. -1.
     200003    1    4    4    0    0  0.10159648342E+03 -0.45706403729E+02 -0.96936952951E+02  0.15069072178E+03  0.30000000000E+02 0. -1.
     200000    1    3    3    0    0  0.40897267026E+03  0.20056973634E+03 -0.68684671003E+03  0.96397368596E+03  0.50000000000E+03 0. -1.
    -200001    1    1    2    0    0 -0.54300361101E+03 -0.29050631328E+03 -0.26812574389E+04  0.28387300494E+04  0.70000000000E+03 0.  1.
<mgrwt>
<rscale>  0 0.20651786E+04</rscale>
<asrwt>0</asrwt>
<pdfrwt beam="1">  1        3 0.55163078E+00 0.20651786E+04</pdfrwt>
<pdfrwt beam="2">  1       -3 0.39446701E-01 0.20651786E+04</pdfrwt>
<totfact> 0.30093968E-02</totfact>
</mgrwt>
</event>
<event>
 8    1  0.1206249E-029  0.1848700E+04  0.7818608E-02  0.8680822E-01
         -3   -1    0    0    0  501 -0.00000000000E+00  0.00000000000E+00  0.93582504538E+03  0.93582505083E+03  0.10100000000E+00 0. -1.
          3   -1    0    0  501    0  0.00000000000E+00 -0.00000000000E+00 -0.91301532849E+03  0.91301533408E+03  0.10100000000E+00 0.  1.
     200001    2    1    2    0    0 -0.58125709215E+03 -0.94526973348E+02  0.13425021478E+03  0.92731222992E+03  0.70362610506E+03 0.  0.
    5000001    2    3    3    0    0 -0.13620295302E+03  0.24968150473E+02  0.36999173929E+02  0.24042793375E+03  0.19303367454E+03 0.  0.
        -13    1    4    4    0    0 -0.15789757973E+03 -0.94610068063E+01  0.77031741412E+02  0.17594049188E+03  0.10566000000E+00 0. -1.
     200003    1    4    4    0    0  0.21694626712E+02  0.34429157279E+02 -0.40032567483E+02  0.64487441866E+02  0.30000000000E+02 0. -1.
     200000    1    3    3    0    0 -0.44505413913E+03 -0.11949512382E+03  0.97251040851E+02  0.68688429617E+03  0.50000000000E+03 0.  1.
    -200001    1    1    2    0    0  0.58125709215E+03  0.94526973348E+02 -0.11144049789E+03  0.92152815499E+03  0.70000000000E+03 0. -1.
<mgrwt>
<rscale>  0 0.18486997E+04</rscale>
<asrwt>0</asrwt>
<pdfrwt beam="1">  1        3 0.13043076E+00 0.18486997E+04</pdfrwt>
<pdfrwt beam="2">  1       -3 0.13368929E+00 0.18486997E+04</pdfrwt>
<totfact> 0.49456812E-01</totfact>
</mgrwt>
</event>
<event>
 8    1  0.1206249E-029  0.1935099E+04  0.7818608E-02  0.8637580E-01
         -3   -1    0    0    0  501 -0.00000000000E+00  0.00000000000E+00  0.12718287498E+04  0.12718287538E+04  0.10100000000E+00 0. -1.
          3   -1    0    0  501    0  0.00000000000E+00 -0.00000000000E+00 -0.73606752841E+03  0.73606753534E+03  0.10100000000E+00 0.  1.
     200001    2    1    2    0    0  0.38193713305E+03  0.53332220904E+03  0.39885317357E+03  0.10388491459E+04  0.69986794588E+03 0.  0.
    5000001    2    3    3    0    0 -0.30639128799E+01  0.16085636762E+03  0.17852075382E+03  0.27366747888E+03  0.13092009351E+03 0.  0.
        -13    1    4    4    0    0  0.12377164255E+02  0.17081552798E+03  0.13751951602E+03  0.21964236213E+03  0.10566000000E+00 0. -1.
     200003    1    4    4    0    0 -0.15441077135E+02 -0.99591603571E+01  0.41001237799E+02  0.54025116744E+02  0.30000000000E+02 0. -1.
     200000    1    3    3    0    0  0.38500104593E+03  0.37246584142E+03  0.22033241975E+03  0.76518166705E+03  0.50000000000E+03 0.  1.
    -200001    1    1    2    0    0 -0.38193713305E+03 -0.53332220904E+03  0.13690804783E+03  0.96904714324E+03  0.70000000000E+03 0.  1.
<mgrwt>
<rscale>  0 0.19350988E+04</rscale>
<asrwt>0</asrwt>
<pdfrwt beam="1">  1        3 0.10515250E+00 0.19350988E+04</pdfrwt>
<pdfrwt beam="2">  1       -3 0.18168982E+00 0.19350988E+04</pdfrwt>
<totfact> 0.36809388E-01</totfact>
</mgrwt>
</event>
<event>
 8    1  0.1206249E-029  0.1425917E+04  0.7818608E-02  0.8935269E-01
          3   -1    0    0  501    0  0.00000000000E+00  0.00000000000E+00  0.22268105801E+04  0.22268105824E+04  0.10100000000E+00 0.  1.
         -3   -1    0    0    0  501 -0.00000000000E+00 -0.00000000000E+00 -0.22826823090E+03  0.22826825325E+03  0.10100000000E+00 0. -1.
     200001    2    1    2    0    0 -0.91612846345E+01 -0.12241125652E+03  0.10810198515E+04  0.12945117421E+04  0.70149004712E+03 0.  0.
    5000001    2    3    3    0    0  0.57351216635E+02  0.17178883880E+02  0.18143465308E+03  0.25376064344E+03  0.16700794807E+03 0.  0.
        -13    1    4    4    0    0  0.17107447641E+02 -0.72572482268E+02  0.78082486906E+02  0.10796441948E+03  0.10566000000E+00 0. -1.
     200003    1    4    4    0    0  0.40243768994E+02  0.89751366148E+02  0.10335216618E+03  0.14579622396E+03  0.30000000000E+02 0. -1.
     200000    1    3    3    0    0 -0.66512501270E+02 -0.13959014040E+03  0.89958519847E+03  0.10407510987E+04  0.50000000000E+03 0. -1.
    -200001    1    1    2    0    0  0.91612846345E+01  0.12241125652E+03  0.91752249765E+03  0.11605670935E+04  0.70000000000E+03 0.  1.
<mgrwt>
<rscale>  0 0.14259174E+04</rscale>
<asrwt>0</asrwt>
<pdfrwt beam="1">  1        3 0.31811579E+00 0.14259174E+04</pdfrwt>
<pdfrwt beam="2">  1       -3 0.32609750E-01 0.14259174E+04</pdfrwt>
<totfact> 0.73282212E-01</totfact>
</mgrwt>
</event>
<event>
 8    1  0.1206249E-029  0.1580758E+04  0.7818608E-02  0.8832457E-01
         -3   -1    0    0    0  501 -0.00000000000E+00  0.00000000000E+00  0.82075390886E+03  0.82075391507E+03  0.10100000000E+00 0. -1.
          3   -1    0    0  501    0  0.00000000000E+00 -0.00000000000E+00 -0.76112846715E+03  0.76112847386E+03  0.10100000000E+00 0.  1.
     200001    2    1    2    0    0  0.70427875557E+02  0.32835060979E+03  0.16204356031E+03  0.79877085178E+03  0.70640112515E+03 0.  0.
    5000001    2    3    3    0    0  0.39123011930E+02  0.51591405166E+02  0.11889723277E+03  0.22480460067E+03  0.17946663583E+03 0.  0.
        -13    1    4    4    0    0 -0.70245096083E+02  0.20596966457E+02  0.44061769655E+02  0.85440384246E+02  0.10566000000E+00 0. -1.
     200003    1    4    4    0    0  0.10936810801E+03  0.30994438709E+02  0.74835463110E+02  0.13936421643E+03  0.30000000000E+02 0. -1.
     200000    1    3    3    0    0  0.31304863627E+02  0.27675920462E+03  0.43146327541E+02  0.57396625111E+03  0.50000000000E+03 0. -1.
    -200001    1    1    2    0    0 -0.70427875557E+02 -0.32835060979E+03 -0.10241811860E+03  0.78311153715E+03  0.70000000000E+03 0.  1.
<mgrwt>
<rscale>  0 0.15807583E+04</rscale>
<asrwt>0</asrwt>
<pdfrwt beam="1">  1        3 0.10873264E+00 0.15807583E+04</pdfrwt>
<pdfrwt beam="2">  1       -3 0.11725056E+00 0.15807583E+04</pdfrwt>
<totfact> 0.10866174E+00</totfact>
</mgrwt>
</event>
<event>
 8    1  0.1206249E-029  0.1604713E+04  0.7818608E-02  0.8817658E-01
          3   -1    0    0  501    0  0.00000000000E+00  0.00000000000E+00  0.48353992442E+03  0.48353993497E+03  0.10100000000E+00 0.  1.
         -3   -1    0    0    0  501 -0.00000000000E+00 -0.00000000000E+00 -0.13313815069E+04  0.13313815107E+04  0.10100000000E+00 0. -1.
     200001    2    1    2    0    0  0.24076065549E+03  0.16357565230E+02 -0.74632337303E+02  0.74436747696E+03  0.70019975136E+03 0.  0.
    5000001    2    3    3    0    0  0.89313419363E+02  0.12447578469E+02 -0.58370878589E+02  0.22166680892E+03  0.19389993714E+03 0.  0.
        -13    1    4    4    0    0 -0.50050894971E+02  0.25329887057E+02  0.18660357395E+02  0.59117809228E+02  0.10566000000E+00 0. -1.
     200003    1    4    4    0    0  0.13936431433E+03 -0.12882308589E+02 -0.77031235985E+02  0.16254899969E+03  0.30000000000E+02 0. -1.
     200000    1    3    3    0    0  0.15144723613E+03  0.39099867618E+01 -0.16261458714E+02  0.52270066804E+03  0.50000000000E+03 0.  1.
    -200001    1    1    2    0    0 -0.24076065549E+03 -0.16357565230E+02 -0.77320924519E+03  0.10705539688E+04  0.70000000000E+03 0. -1.
<mgrwt>
<rscale>  0 0.16047132E+04</rscale>
<asrwt>0</asrwt>
<pdfrwt beam="1">  1        3 0.69077133E-01 0.16047132E+04</pdfrwt>
<pdfrwt beam="2">  1       -3 0.19019736E+00 0.16047132E+04</pdfrwt>
<totfact> 0.85840122E-01</totfact>
</mgrwt>
</event>
<event>
 8    1  0.1206249E-029  0.1461039E+04  0.7818608E-02  0.8910783E-01
         -3   -1    0    0    0  501 -0.00000000000E+00  0.00000000000E+00  0.23543859621E+04  0.23543859643E+04  0.10100000000E+00 0.  1.
          3   -1    0    0  501    0  0.00000000000E+00 -0.00000000000E+00 -0.22666572555E+03  0.22666574806E+03  0.10100000000E+00 0. -1.
     200001    2    1    2    0    0 -0.33879809837E+02 -0.17727654334E+03  0.87665456511E+03  0.11361502871E+04  0.69981385670E+03 0.  0.
    5000001    2    3    3    0    0  0.64090632995E+02  0.81355056189E+01  0.25183794593E+03  0.30888271058E+03  0.16677044761E+03 0.  0.
        -13    1    4    4    0    0  0.73850401319E+02 -0.51934383017E+01  0.26271670418E+03  0.27294858746E+03  0.10566000000E+00 0. -1.
     200003    1    4    4    0    0 -0.97597683234E+01  0.13328943921E+02 -0.10878758247E+02  0.35934123125E+02  0.30000000000E+02 0. -1.
     200000    1    3    3    0    0 -0.97970442832E+02 -0.18541204896E+03  0.62481661918E+03  0.82726757652E+03  0.50000000000E+03 0. -1.
    -200001    1    1    2    0    0  0.33879809837E+02  0.17727654334E+03  0.12510656714E+04  0.14449014252E+04  0.70000000000E+03 0. -1.
<mgrwt>
<rscale>  0 0.14610389E+04</rscale>
<asrwt>0</asrwt>
<pdfrwt beam="1">  1        3 0.32380818E-01 0.14610389E+04</pdfrwt>
<pdfrwt beam="2">  1       -3 0.33634087E+00 0.14610389E+04</pdfrwt>
<totfact> 0.57429079E-01</totfact>
</mgrwt>
</event>
<event>
 8    1  0.1206249E-029  0.2578175E+04  0.7818608E-02  0.8375653E-01
         -3   -1    0    0    0  501 -0.00000000000E+00  0.00000000000E+00  0.12585920975E+04  0.12585921016E+04  0.10100000000E+00 0. -1.
          3   -1    0    0  501    0  0.00000000000E+00 -0.00000000000E+00 -0.13203219404E+04  0.13203219443E+04  0.10100000000E+00 0.  1.
     200001    2    1    2    0    0  0.73739262299E+03 -0.77073349187E+03  0.15232220438E+03  0.12852385553E+04  0.70061265630E+03 0.  0.
    5000001    2    3    3    0    0  0.15424875571E+03 -0.23483280907E+03  0.13267438102E+03  0.34841821568E+03  0.15765035612E+03 0.  0.
        -13    1    4    4    0    0  0.57007413542E+02 -0.12735080624E+03  0.14331964825E+03  0.20002151332E+03  0.10566000000E+00 0. -1.
     200003    1    4    4    0    0  0.97241342170E+02 -0.10748200283E+03 -0.10645267232E+02  0.14839670237E+03  0.30000000000E+02 0. -1.
     200000    1    3    3    0    0  0.58314386728E+03 -0.53590068280E+03  0.19647823359E+02  0.93682033962E+03  0.50000000000E+03 0. -1.
    -200001    1    1    2    0    0 -0.73739262299E+03  0.77073349187E+03 -0.21405204724E+03  0.12936754906E+04  0.70000000000E+03 0.  1.
<mgrwt>
<rscale>  0 0.25781751E+04</rscale>
<asrwt>0</asrwt>
<pdfrwt beam="1">  1        3 0.18861742E+00 0.25781751E+04</pdfrwt>
<pdfrwt beam="2">  1       -3 0.17979887E+00 0.25781751E+04</pdfrwt>
<totfact> 0.80471080E-02</totfact>
</mgrwt>
</event>
<event>
 8    1  0.1206249E-029  0.1890785E+04  0.7818608E-02  0.8659457E-01
         -3   -1    0    0    0  501 -0.00000000000E+00  0.00000000000E+00  0.25814527749E+03  0.25814529725E+03  0.10100000000E+00 0. -1.
          3   -1    0    0  501    0  0.00000000000E+00 -0.00000000000E+00 -0.34622635993E+04  0.34622636008E+04  0.10100000000E+00 0.  1.
     200001    2    1    2    0    0  0.95372061547E+02 -0.62602746236E+03 -0.14979458020E+04  0.17705291886E+04  0.69994697533E+03 0.  0.
    5000001    2    3    3    0    0  0.85613421952E+02 -0.44636579411E+01 -0.21653462752E+03  0.26107518399E+03  0.11799756150E+03 0.  0.
        -13    1    4    4    0    0  0.16813068185E+02  0.44273570974E+02 -0.35696633106E+02  0.59305051452E+02  0.10566000000E+00 0. -1.
     200003    1    4    4    0    0  0.68800353767E+02 -0.48737228915E+02 -0.18083799442E+03  0.20177013254E+03  0.30000000000E+02 0. -1.
     200000    1    3    3    0    0  0.97586395952E+01 -0.62156380442E+03 -0.12814111745E+04  0.15094540046E+04  0.50000000000E+03 0.  1.
    -200001    1    1    2    0    0 -0.95372061547E+02  0.62602746236E+03 -0.17061725198E+04  0.19498797094E+04  0.70000000000E+03 0.  1.
<mgrwt>
<rscale>  0 0.18907851E+04</rscale>
<asrwt>0</asrwt>
<pdfrwt beam="1">  1        3 0.49460906E+00 0.18907851E+04</pdfrwt>
<pdfrwt beam="2">  1       -3 0.36877901E-01 0.18907851E+04</pdfrwt>
<totfact> 0.65847564E-02</totfact>
</mgrwt>
</event>
<event>
 8    1  0.1206249E-029  0.1707379E+04  0.7818608E-02  0.8757167E-01
         -3   -1    0    0    0  501 -0.00000000000E+00  0.00000000000E+00  0.89386906570E+03  0.89386907141E+03  0.10100000000E+00 0. -1.
          3   -1    0    0  501    0  0.00000000000E+00 -0.00000000000E+00 -0.81531606044E+03  0.81531606669E+03  0.10100000000E+00 0.  1.
     200001    2    1    2    0    0 -0.20209133093E+03  0.38038598806E+03  0.27456475700E+03  0.86422655168E+03  0.69711356384E+03 0.  0.
    5000001    2    3    3    0    0 -0.45476075034E+02  0.12723595392E+03  0.14170348454E+03  0.26734683525E+03  0.18203678589E+03 0.  0.
        -13    1    4    4    0    0  0.18828000733E+02  0.49541102808E+02 -0.33698809150E+02  0.62804740117E+02  0.10566000000E+00 0. -1.
     200003    1    4    4    0    0 -0.64304075766E+02  0.77694851116E+02  0.17540229369E+03  0.20454209513E+03  0.30000000000E+02 0. -1.
     200000    1    3    3    0    0 -0.15661525590E+03  0.25315003414E+03  0.13286127246E+03  0.59687971643E+03  0.50000000000E+03 0. -1.
    -200001    1    1    2    0    0  0.20209133093E+03 -0.38038598806E+03 -0.19601175174E+03  0.84495858642E+03  0.70000000000E+03 0. -1.
<mgrwt>
<rscale>  0 0.17073791E+04</rscale>
<asrwt>0</asrwt>
<pdfrwt beam="1">  1        3 0.11647372E+00 0.17073791E+04</pdfrwt>
<pdfrwt beam="2">  1       -3 0.12769558E+00 0.17073791E+04</pdfrwt>
<totfact> 0.74018810E-01</totfact>
</mgrwt>
</event>
<event>
 8    1  0.1206249E-029  0.1603953E+04  0.7818608E-02  0.8818123E-01
          3   -1    0    0  501    0  0.00000000000E+00  0.00000000000E+00  0.66051554663E+03  0.66051555436E+03  0.10100000000E+00 0. -1.
         -3   -1    0    0    0  501 -0.00000000000E+00 -0.00000000000E+00 -0.97373426956E+03  0.97373427480E+03  0.10100000000E+00 0.  1.
     200001    2    1    2    0    0 -0.13128196637E+02  0.35191325273E+03 -0.32999449002E+03  0.85047899954E+03  0.70028771103E+03 0.  0.
    5000001    2    3    3    0    0  0.26918901313E+01  0.15110377977E+03 -0.62079108473E+02  0.24852105147E+03  0.18726798653E+03 0.  0.
        -13    1    4    4    0    0 -0.37360849460E+02  0.16373479818E+03 -0.89259394185E+02  0.19018982050E+03  0.10566000000E+00 0. -1.
     200003    1    4    4    0    0  0.40052739592E+02 -0.12631018410E+02  0.27180285712E+02  0.58331230968E+02  0.30000000000E+02 0. -1.
     200000    1    3    3    0    0 -0.15820086768E+02  0.20080947296E+03 -0.26791538155E+03  0.60195794807E+03  0.50000000000E+03 0. -1.
    -200001    1    1    2    0    0  0.13128196637E+02 -0.35191325273E+03  0.16775767095E+02  0.78377082962E+03  0.70000000000E+03 0. -1.
<mgrwt>
<rscale>  0 0.16039534E+04</rscale>
<asrwt>0</asrwt>
<pdfrwt beam="1">  1        3 0.94359365E-01 0.16039534E+04</pdfrwt>
<pdfrwt beam="2">  1       -3 0.13910490E+00 0.16039534E+04</pdfrwt>
<totfact> 0.98968418E-01</totfact>
</mgrwt>
</event>
<event>
 8    1  0.1206249E-029  0.1544998E+04  0.7818608E-02  0.8855069E-01
         -3   -1    0    0    0  501 -0.00000000000E+00  0.00000000000E+00  0.72143140719E+03  0.72143141426E+03  0.10100000000E+00 0. -1.
          3   -1    0    0  501    0  0.00000000000E+00 -0.00000000000E+00 -0.82718176503E+03  0.82718177119E+03  0.10100000000E+00 0.  1.
     200001    2    1    2    0    0 -0.13568902333E+03 -0.27498426597E+03 -0.17269271184E+03  0.78146969409E+03  0.69774225361E+03 0.  0.
    5000001    2    3    3    0    0 -0.79025687392E+02 -0.63802458398E+02 -0.71507044813E+01  0.21119550943E+03  0.18503134238E+03 0.  0.
        -13    1    4    4    0    0 -0.45599838139E+02  0.51337485789E+02  0.39356922644E+02  0.79144558938E+02  0.10566000000E+00 0. -1.
     200003    1    4    4    0    0 -0.33425849253E+02 -0.11513994419E+03 -0.46507627125E+02  0.13205095049E+03  0.30000000000E+02 0. -1.
     200000    1    3    3    0    0 -0.56663335940E+02 -0.21118180757E+03 -0.16554200735E+03  0.57027418466E+03  0.50000000000E+03 0.  1.
    -200001    1    1    2    0    0  0.13568902333E+03  0.27498426597E+03  0.66942354005E+02  0.76714349137E+03  0.70000000000E+03 0. -1.
<mgrwt>
<rscale>  0 0.15449983E+04</rscale>
<asrwt>0</asrwt>
<pdfrwt beam="1">  1        3 0.11816882E+00 0.15449983E+04</pdfrwt>
<pdfrwt beam="2">  1       -3 0.10306163E+00 0.15449983E+04</pdfrwt>
<totfact> 0.12145923E+00</totfact>
</mgrwt>
</event>
<event>
 8    1  0.1206249E-029  0.1593269E+04  0.7818608E-02  0.8824694E-01
         -3   -1    0    0    0  501 -0.00000000000E+00  0.00000000000E+00  0.26057158439E+03  0.26057160397E+03  0.10100000000E+00 0. -1.
          3   -1    0    0  501    0  0.00000000000E+00 -0.00000000000E+00 -0.24355166489E+04  0.24355166510E+04  0.10100000000E+00 0.  1.
     200001    2    1    2    0    0  0.20217220920E+03  0.26724706424E+03 -0.13903514348E+04  0.15925114523E+04  0.70051482354E+03 0.  0.
    5000001    2    3    3    0    0  0.15478020598E+03  0.98084177927E+02 -0.28610636610E+03  0.36767707338E+03  0.14054237597E+03 0.  0.
        -13    1    4    4    0    0  0.86735340264E+02  0.11734281105E+03 -0.23065512708E+03  0.27293617087E+03  0.10566000000E+00 0. -1.
     200003    1    4    4    0    0  0.68044865719E+02 -0.19258633119E+02 -0.55451239016E+02  0.94740902511E+02  0.30000000000E+02 0. -1.
     200000    1    3    3    0    0  0.47392003212E+02  0.16916288631E+03 -0.11042450687E+04  0.12248343790E+04  0.50000000000E+03 0.  1.
    -200001    1    1    2    0    0 -0.20217220920E+03 -0.26724706424E+03 -0.78459362964E+03  0.11035768026E+04  0.70000000000E+03 0. -1.
<mgrwt>
<rscale>  0 0.15932689E+04</rscale>
<asrwt>0</asrwt>
<pdfrwt beam="1">  1        3 0.34793094E+00 0.15932689E+04</pdfrwt>
<pdfrwt beam="2">  1       -3 0.37224515E-01 0.15932689E+04</pdfrwt>
<totfact> 0.38506511E-01</totfact>
</mgrwt>
</event>
<event>
 8    1  0.1206249E-029  0.1754674E+04  0.7818608E-02  0.8730782E-01
          3   -1    0    0  501    0  0.00000000000E+00  0.00000000000E+00  0.34040219549E+04  0.34040219564E+04  0.10100000000E+00 0.  1.
         -3   -1    0    0    0  501 -0.00000000000E+00 -0.00000000000E+00 -0.22612077855E+03  0.22612080111E+03  0.10100000000E+00 0. -1.
     200001    2    1    2    0    0  0.40074815989E+03  0.14389535771E+02  0.87309716607E+03  0.11882320973E+04  0.69913568738E+03 0.  0.
    5000001    2    3    3    0    0  0.13198986579E+03 -0.23858623156E+02  0.29021288127E+03  0.37370890444E+03  0.19350522018E+03 0.  0.
        -13    1    4    4    0    0  0.11979598009E+03 -0.75668434634E+02  0.27709178248E+03  0.31121801993E+03  0.10566000000E+00 0. -1.
     200003    1    4    4    0    0  0.12193885694E+02  0.51809811478E+02  0.13121098784E+02  0.62490884511E+02  0.30000000000E+02 0. -1.
     200000    1    3    3    0    0  0.26875829410E+03  0.38248158927E+02  0.58288428480E+03  0.81452319290E+03  0.50000000000E+03 0. -1.
    -200001    1    1    2    0    0 -0.40074815989E+03 -0.14389535771E+02  0.23048040103E+04  0.24419106602E+04  0.70000000000E+03 0.  1.
<mgrwt>
<rscale>  0 0.17546739E+04</rscale>
<asrwt>0</asrwt>
<pdfrwt beam="1">  1        3 0.48628885E+00 0.17546739E+04</pdfrwt>
<pdfrwt beam="2">  1       -3 0.32302970E-01 0.17546739E+04</pdfrwt>
<totfact> 0.94771688E-02</totfact>
</mgrwt>
</event>
<event>
 8    1  0.1206249E-029  0.1729952E+04  0.7818608E-02  0.8744464E-01
         -3   -1    0    0    0  501 -0.00000000000E+00  0.00000000000E+00  0.49084117599E+03  0.49084118638E+03  0.10100000000E+00 0. -1.
          3   -1    0    0  501    0  0.00000000000E+00 -0.00000000000E+00 -0.15242877670E+04  0.15242877704E+04  0.10100000000E+00 0.  1.
     200001    2    1    2    0    0  0.28479307789E+03  0.32500923773E+03 -0.83264161726E+03  0.11683345665E+04  0.69640181985E+03 0.  0.
    5000001    2    3    3    0    0  0.43248634617E+02  0.88056688946E+02 -0.33135748399E+03  0.38362059906E+03  0.16656097070E+03 0.  0.
        -13    1    4    4    0    0 -0.15555533107E+02 -0.42703671015E+02 -0.99190148943E+02  0.10910671354E+03  0.10566000000E+00 0. -1.
     200003    1    4    4    0    0  0.58804167724E+02  0.13076035996E+03 -0.23216733505E+03  0.27451388552E+03  0.30000000000E+02 0. -1.
     200000    1    3    3    0    0  0.24154444327E+03  0.23695254879E+03 -0.50128413327E+03  0.78471396745E+03  0.50000000000E+03 0.  1.
    -200001    1    1    2    0    0 -0.28479307789E+03 -0.32500923773E+03 -0.20080497376E+03  0.84679439022E+03  0.70000000000E+03 0. -1.
<mgrwt>
<rscale>  0 0.17299517E+04</rscale>
<asrwt>0</asrwt>
<pdfrwt beam="1">  1        3 0.21775539E+00 0.17299517E+04</pdfrwt>
<pdfrwt beam="2">  1       -3 0.70120170E-01 0.17299517E+04</pdfrwt>
<totfact> 0.55622090E-01</totfact>
</mgrwt>
</event>
<event>
 8    1  0.1206249E-029  0.1935780E+04  0.7818608E-02  0.8637249E-01
         -3   -1    0    0    0  501 -0.00000000000E+00  0.00000000000E+00  0.21806022194E+04  0.21806022217E+04  0.10100000000E+00 0.  1.
          3   -1    0    0  501    0  0.00000000000E+00 -0.00000000000E+00 -0.42961105484E+03  0.42961106672E+03  0.10100000000E+00 0. -1.
     200001    2    1    2    0    0  0.13407724691E+03  0.63750468445E+03  0.10772708475E+04  0.14404748576E+04  0.70004743115E+03 0.  0.
    5000001    2    3    3    0    0  0.65336802201E+02  0.24133489210E+03  0.40258648528E+03  0.50941377388E+03  0.18685579206E+03 0.  0.
        -13    1    4    4    0    0  0.32397624483E+02  0.10863301828E+03  0.39116394643E+02  0.11992014938E+03  0.10566000000E+00 0. -1.
     200003    1    4    4    0    0  0.32939177718E+02  0.13270187382E+03  0.36347009064E+03  0.38949362451E+03  0.30000000000E+02 0. -1.
     200000    1    3    3    0    0  0.68740444707E+02  0.39616979235E+03  0.67468436219E+03  0.93106108376E+03  0.50000000000E+03 0.  1.
    -200001    1    1    2    0    0 -0.13407724691E+03 -0.63750468445E+03  0.67372031705E+03  0.11697384308E+04  0.70000000000E+03 0. -1.
<mgrwt>
<rscale>  0 0.19357798E+04</rscale>
<asrwt>0</asrwt>
<pdfrwt beam="1">  1        3 0.61373010E-01 0.19357798E+04</pdfrwt>
<pdfrwt beam="2">  1       -3 0.31151460E+00 0.19357798E+04</pdfrwt>
<totfact> 0.20875709E-01</totfact>
</mgrwt>
</event>
<event>
 8    1  0.1206249E-029  0.1564378E+04  0.7818608E-02  0.8842736E-01
         -3   -1    0    0    0  501 -0.00000000000E+00  0.00000000000E+00  0.11774838611E+04  0.11774838655E+04  0.10100000000E+00 0.  1.
          3   -1    0    0  501    0  0.00000000000E+00 -0.00000000000E+00 -0.51959887832E+03  0.51959888814E+03  0.10100000000E+00 0. -1.
     200001    2    1    2    0    0 -0.67045598015E+02 -0.22406724317E+02  0.70070967586E+03  0.99222026499E+03  0.69893478302E+03 0.  0.
    5000001    2    3    3    0    0 -0.15031730063E+03  0.29997055474E+02  0.28083922750E+03  0.33193886589E+03  0.88417333038E+02 0.  0.
        -13    1    4    4    0    0 -0.41631164123E+02  0.13010185617E+02  0.21473924137E+02  0.48616451310E+02  0.10566000000E+00 0. -1.
     200003    1    4    4    0    0 -0.10868613650E+03  0.16986869857E+02  0.25936530337E+03  0.28332241458E+03  0.30000000000E+02 0. -1.
     200000    1    3    3    0    0  0.83271702611E+02 -0.52403779792E+02  0.41987044836E+03  0.66028139910E+03  0.50000000000E+03 0.  1.
    -200001    1    1    2    0    0  0.67045598015E+02  0.22406724317E+02 -0.42824693050E+02  0.70486248861E+03  0.70000000000E+03 0. -1.
<mgrwt>
<rscale>  0 0.15643776E+04</rscale>
<asrwt>0</asrwt>
<pdfrwt beam="1">  1        3 0.74228413E-01 0.15643776E+04</pdfrwt>
<pdfrwt beam="2">  1       -3 0.16821198E+00 0.15643776E+04</pdfrwt>
<totfact> 0.10349866E+00</totfact>
</mgrwt>
</event>
<event>
 8    1  0.1206249E-029  0.1475418E+04  0.7818608E-02  0.8900966E-01
         -3   -1    0    0    0  501 -0.00000000000E+00  0.00000000000E+00  0.40723689447E+03  0.40723690699E+03  0.10100000000E+00 0. -1.
          3   -1    0    0  501    0  0.00000000000E+00 -0.00000000000E+00 -0.13363590599E+04  0.13363590637E+04  0.10100000000E+00 0.  1.
     200001    2    1    2    0    0 -0.15777175928E+03  0.11106749755E+03 -0.31488051375E+03  0.79253302658E+03  0.70123529806E+03 0.  0.
    5000001    2    3    3    0    0 -0.23327303517E+02  0.26651882115E+02 -0.48324439009E+02  0.20409998128E+03  0.19510782927E+03 0.  0.
        -13    1    4    4    0    0  0.21623348481E+02 -0.41713348490E+02  0.52752242360E+02  0.70642642079E+02  0.10566000000E+00 0. -1.
     200003    1    4    4    0    0 -0.44950651998E+02  0.68365230606E+02 -0.10107668137E+03  0.13345733920E+03  0.30000000000E+02 0. -1.
     200000    1    3    3    0    0 -0.13444445576E+03  0.84415615438E+02 -0.26655607474E+03  0.58843304529E+03  0.50000000000E+03 0. -1.
    -200001    1    1    2    0    0  0.15777175928E+03 -0.11106749755E+03 -0.61424165168E+03  0.95106294413E+03  0.70000000000E+03 0.  1.
<mgrwt>
<rscale>  0 0.14754182E+04</rscale>
<asrwt>0</asrwt>
<pdfrwt beam="1">  1        3 0.19090844E+00 0.14754182E+04</pdfrwt>
<pdfrwt beam="2">  1       -3 0.58176701E-01 0.14754182E+04</pdfrwt>
<totfact> 0.12440735E+00</totfact>
</mgrwt>
</event>
<event>
 8    1  0.1206249E-029  0.1622354E+04  0.7818608E-02  0.8806932E-01
         -3   -1    0    0    0  501 -0.00000000000E+00  0.00000000000E+00  0.28172584027E+03  0.28172585837E+03  0.10100000000E+00 0.  1.
          3   -1    0    0  501    0  0.00000000000E+00 -0.00000000000E+00 -0.23356330863E+04  0.23356330885E+04  0.10100000000E+00 0. -1.
     200001    2    1    2    0    0  0.23872235032E+03  0.14713267874E+03 -0.55266336313E+03  0.93736799996E+03  0.70326779302E+03 0.  0.
    5000001    2    3    3    0    0 -0.65936335603E+02 -0.19335363037E+02 -0.13190284671E+03  0.19738966513E+03  0.12978005360E+03 0.  0.
        -13    1    4    4    0    0 -0.61855816094E+02 -0.66275959554E+02 -0.75085792391E+02  0.11771377227E+03  0.10566000000E+00 0. -1.
     200003    1    4    4    0    0 -0.40805195090E+01  0.46940596517E+02 -0.56817054324E+02  0.79675892859E+02  0.30000000000E+02 0. -1.
     200000    1    3    3    0    0  0.30465868592E+03  0.16646804177E+03 -0.42076051641E+03  0.73997833483E+03  0.50000000000E+03 0. -1.
    -200001    1    1    2    0    0 -0.23872235032E+03 -0.14713267874E+03 -0.15012438829E+04  0.16799909469E+04  0.70000000000E+03 0. -1.
<mgrwt>
<rscale>  0 0.16223541E+04</rscale>
<asrwt>0</asrwt>
<pdfrwt beam="1">  1        3 0.33366186E+00 0.16223541E+04</pdfrwt>
<pdfrwt beam="2">  1       -3 0.40246551E-01 0.16223541E+04</pdfrwt>
<totfact> 0.39346281E-01</totfact>
</mgrwt>
</event>
<event>
 8    1  0.1206249E-029  0.1890664E+04  0.7818608E-02  0.8659518E-01
         -3   -1    0    0    0  501 -0.00000000000E+00  0.00000000000E+00  0.12177526081E+04  0.12177526123E+04  0.10100000000E+00 0. -1.
          3   -1    0    0  501    0  0.00000000000E+00 -0.00000000000E+00 -0.73385371320E+03  0.73385372015E+03  0.10100000000E+00 0.  1.
     200001    2    1    2    0    0  0.54688304921E+03  0.29826274248E+03  0.11404357674E+03  0.94421629406E+03  0.70035472406E+03 0.  0.
    5000001    2    3    3    0    0  0.84217475938E+02  0.76863546800E+02  0.63096556483E+02  0.22611279497E+03  0.18478428647E+03 0.  0.
        -13    1    4    4    0    0 -0.16599271286E+02 -0.31551253502E+02 -0.31757637571E+02  0.47744906670E+02  0.10566000000E+00 0. -1.
     200003    1    4    4    0    0  0.10081674722E+03  0.10841480030E+03  0.94854194054E+02  0.17836788830E+03  0.30000000000E+02 0. -1.
     200000    1    3    3    0    0  0.46266557327E+03  0.22139919568E+03  0.50947020255E+02  0.71810349909E+03  0.50000000000E+03 0. -1.
    -200001    1    1    2    0    0 -0.54688304921E+03 -0.29826274248E+03  0.36985531817E+03  0.10073900384E+04  0.70000000000E+03 0. -1.
<mgrwt>
<rscale>  0 0.18906637E+04</rscale>
<asrwt>0</asrwt>
<pdfrwt beam="1">  1        3 0.10483625E+00 0.18906637E+04</pdfrwt>
<pdfrwt beam="2">  1       -3 0.17396466E+00 0.18906637E+04</pdfrwt>
<totfact> 0.41968228E-01</totfact>
</mgrwt>
</event>
<event>
 8    1  0.1206249E-029  0.1690640E+04  0.7818608E-02  0.8766721E-01
          3   -1    0    0  501    0  0.00000000000E+00  0.00000000000E+00  0.10777963816E+04  0.10777963863E+04  0.10100000000E+00 0.  1.
         -3   -1    0    0    0  501 -0.00000000000E+00 -0.00000000000E+00 -0.66298781372E+03  0.66298782141E+03  0.10100000000E+00 0. -1.
     200001    2    1    2    0    0  0.13963018162E+03  0.16959000734E+03 -0.22327100815E+03  0.76846589384E+03  0.70173536943E+03 0.  0.
    5000001    2    3    3    0    0 -0.56444829452E+02  0.59221389426E+02 -0.72921581711E+02  0.19993129347E+03  0.16721774216E+03 0.  0.
        -13    1    4    4    0    0 -0.88910195289E+02 -0.33307642775E+01  0.69811274145E+01  0.89246087427E+02  0.10566000000E+00 0. -1.
     200003    1    4    4    0    0  0.32465365836E+02  0.62552153703E+02 -0.79902709126E+02  0.11068520605E+03  0.30000000000E+02 0. -1.
     200000    1    3    3    0    0  0.19607501107E+03  0.11036861792E+03 -0.15034942644E+03  0.56853460037E+03  0.50000000000E+03 0. -1.
    -200001    1    1    2    0    0 -0.13963018162E+03 -0.16959000734E+03  0.63807957604E+03  0.97231831391E+03  0.70000000000E+03 0.  1.
<mgrwt>
<rscale>  0 0.16906400E+04</rscale>
<asrwt>0</asrwt>
<pdfrwt beam="1">  1        3 0.15397091E+00 0.16906400E+04</pdfrwt>
<pdfrwt beam="2">  1       -3 0.94712546E-01 0.16906400E+04</pdfrwt>
<totfact> 0.75180043E-01</totfact>
</mgrwt>
</event>
<event>
 8    1  0.1206249E-029  0.1599018E+04  0.7818608E-02  0.8821151E-01
          3   -1    0    0  501    0  0.00000000000E+00  0.00000000000E+00  0.50680916227E+03  0.50680917233E+03  0.10100000000E+00 0. -1.
         -3   -1    0    0    0  501 -0.00000000000E+00 -0.00000000000E+00 -0.12612532661E+04  0.12612532701E+04  0.10100000000E+00 0.  1.
     200001    2    1    2    0    0 -0.33698257069E+03  0.12580126946E+03 -0.22104876189E+03  0.81732914487E+03  0.69984367081E+03 0.  0.
    5000001    2    3    3    0    0 -0.17657705446E+03  0.20528512081E+01 -0.10350573972E+03  0.26518789236E+03  0.16860459585E+03 0.  0.
        -13    1    4    4    0    0 -0.13844922052E+01 -0.46820035295E+02 -0.59398106333E+02  0.75645083936E+02  0.10566000000E+00 0. -1.
     200003    1    4    4    0    0 -0.17519256225E+03  0.48872886503E+02 -0.44107633388E+02  0.18954280843E+03  0.30000000000E+02 0. -1.
     200000    1    3    3    0    0 -0.16040551623E+03  0.12374841825E+03 -0.11754302217E+03  0.55214125251E+03  0.50000000000E+03 0. -1.
    -200001    1    1    2    0    0  0.33698257069E+03 -0.12580126946E+03 -0.53339534192E+03  0.95073329758E+03  0.70000000000E+03 0.  1.
<mgrwt>
<rscale>  0 0.15990181E+04</rscale>
<asrwt>0</asrwt>
<pdfrwt beam="1">  1        3 0.72401310E-01 0.15990181E+04</pdfrwt>
<pdfrwt beam="2">  1       -3 0.18017904E+00 0.15990181E+04</pdfrwt>
<totfact> 0.90280256E-01</totfact>
</mgrwt>
</event>
<event>
 8    1  0.1206249E-029  0.1622497E+04  0.7818608E-02  0.8806845E-01
          3   -1    0    0  501    0  0.00000000000E+00  0.00000000000E+00  0.40844381122E+03  0.40844382370E+03  0.10100000000E+00 0.  1.
         -3   -1    0    0    0  501 -0.00000000000E+00 -0.00000000000E+00 -0.16112958712E+04  0.16112958743E+04  0.10100000000E+00 0. -1.
     200001    2    1    2    0    0  0.20918302826E+03 -0.24800347315E+01 -0.16337103328E+03  0.74919473830E+03  0.70059900906E+03 0.  0.
    5000001    2    3    3    0    0 -0.30121102843E+02 -0.27470863938E+02 -0.24979845143E+02  0.17731788997E+03  0.17075043847E+03 0.  0.
        -13    1    4    4    0    0  0.23574650543E+01 -0.82885389178E+02  0.29394281323E+02  0.87974884593E+02  0.10566000000E+00 0. -1.
     200003    1    4    4    0    0 -0.32478567897E+02  0.55414525240E+02 -0.54374126466E+02  0.89343005374E+02  0.30000000000E+02 0. -1.
     200000    1    3    3    0    0  0.23930413111E+03  0.24990829206E+02 -0.13839118813E+03  0.57187684834E+03  0.50000000000E+03 0.  1.
    -200001    1    1    2    0    0 -0.20918302826E+03  0.24800347315E+01 -0.10394810267E+04  0.12705449597E+04  0.70000000000E+03 0. -1.
<mgrwt>
<rscale>  0 0.16224966E+04</rscale>
<asrwt>0</asrwt>
<pdfrwt beam="1">  1        3 0.58349118E-01 0.16224966E+04</pdfrwt>
<pdfrwt beam="2">  1       -3 0.23018512E+00 0.16224966E+04</pdfrwt>
<totfact> 0.69446898E-01</totfact>
</mgrwt>
</event>
<event>
 8    1  0.1206249E-029  0.1657459E+04  0.7818608E-02  0.8786006E-01
          3   -1    0    0  501    0  0.00000000000E+00  0.00000000000E+00  0.10546973879E+04  0.10546973928E+04  0.10100000000E+00 0.  1.
         -3   -1    0    0    0  501 -0.00000000000E+00 -0.00000000000E+00 -0.65117529967E+03  0.65117530751E+03  0.10100000000E+00 0. -1.
     200001    2    1    2    0    0 -0.19772335401E+02  0.43937025703E+03  0.15655167971E+03  0.84306823187E+03  0.70201028993E+03 0.  0.
    5000001    2    3    3    0    0 -0.61626236182E+02  0.94212172493E+02 -0.39253369106E+02  0.20336090076E+03  0.16474556911E+03 0.  0.
        -13    1    4    4    0    0  0.33102219073E+02  0.93663901161E+02 -0.28879517676E+02  0.10345395591E+03  0.10566000000E+00 0. -1.
     200003    1    4    4    0    0 -0.94728455256E+02  0.54827133129E+00 -0.10373851429E+02  0.99906944854E+02  0.30000000000E+02 0. -1.
     200000    1    3    3    0    0  0.41853900781E+02  0.34515808454E+03  0.19580504881E+03  0.63970733111E+03  0.50000000000E+03 0.  1.
    -200001    1    1    2    0    0  0.19772335401E+02 -0.43937025703E+03  0.24697040856E+03  0.86280446841E+03  0.70000000000E+03 0. -1.
<mgrwt>
<rscale>  0 0.16574594E+04</rscale>
<asrwt>0</asrwt>
<pdfrwt beam="1">  1        3 0.15067106E+00 0.16574594E+04</pdfrwt>
<pdfrwt beam="2">  1       -3 0.93025044E-01 0.16574594E+04</pdfrwt>
<totfact> 0.83117457E-01</totfact>
</mgrwt>
</event>
<event>
 8    1  0.1206249E-029  0.1576493E+04  0.7818608E-02  0.8835121E-01
          3   -1    0    0  501    0  0.00000000000E+00  0.00000000000E+00  0.23968164998E+03  0.23968167126E+03  0.10100000000E+00 0.  1.
         -3   -1    0    0    0  501 -0.00000000000E+00 -0.00000000000E+00 -0.25923254195E+04  0.25923254215E+04  0.10100000000E+00 0. -1.
     200001    2    1    2    0    0 -0.14135222637E+03 -0.13803149402E+03 -0.62468200289E+03  0.95720443321E+03  0.69783922000E+03 0.  0.
    5000001    2    3    3    0    0 -0.46412100583E+02 -0.78802800828E+02 -0.14304864334E+03  0.25400292680E+03  0.18891958068E+03 0.  0.
        -13    1    4    4    0    0  0.64572924723E+02 -0.33514843880E+02 -0.11736003665E+02  0.73692959729E+02  0.10566000000E+00 0. -1.
     200003    1    4    4    0    0 -0.11098502531E+03 -0.45287956948E+02 -0.13131263968E+03  0.18030996707E+03  0.30000000000E+02 0. -1.
     200000    1    3    3    0    0 -0.94940125786E+02 -0.59228693197E+02 -0.48163335955E+03  0.70320150641E+03  0.50000000000E+03 0. -1.
    -200001    1    1    2    0    0  0.14135222637E+03  0.13803149402E+03 -0.17279617666E+04  0.18748026595E+04  0.70000000000E+03 0. -1.
<mgrwt>
<rscale>  0 0.15764934E+04</rscale>
<asrwt>0</asrwt>
<pdfrwt beam="1">  1        3 0.34240239E-01 0.15764934E+04</pdfrwt>
<pdfrwt beam="2">  1       -3 0.37033219E+00 0.15764934E+04</pdfrwt>
<totfact> 0.33117488E-01</totfact>
</mgrwt>
</event>
<event>
 8    1  0.1206249E-029  0.1928741E+04  0.7818608E-02  0.8640681E-01
         -3   -1    0    0    0  501 -0.00000000000E+00  0.00000000000E+00  0.44698100745E+03  0.44698101886E+03  0.10100000000E+00 0. -1.
          3   -1    0    0  501    0  0.00000000000E+00 -0.00000000000E+00 -0.20806481323E+04  0.20806481347E+04  0.10100000000E+00 0.  1.
     200001    2    1    2    0    0 -0.63849230536E+03 -0.17825332751E+03 -0.80213289961E+03  0.12544850767E+04  0.70062040101E+03 0.  0.
    5000001    2    3    3    0    0 -0.12208510660E+03 -0.32606980513E+02 -0.91970373306E+02  0.23359327683E+03  0.17360668473E+03 0.  0.
        -13    1    4    4    0    0 -0.18845972424E+02 -0.22693744279E+02 -0.11874740852E+03  0.12235658912E+03  0.10566000000E+00 0. -1.
     200003    1    4    4    0    0 -0.10323913418E+03 -0.99132362344E+01  0.26777035215E+02  0.11123668771E+03  0.30000000000E+02 0. -1.
     200000    1    3    3    0    0 -0.51640719876E+03 -0.14564634700E+03 -0.71016252630E+03  0.10208917999E+04  0.50000000000E+03 0.  1.
    -200001    1    1    2    0    0  0.63849230536E+03  0.17825332751E+03 -0.83153422523E+03  0.12731440769E+04  0.70000000000E+03 0. -1.
<mgrwt>
<rscale>  0 0.19287407E+04</rscale>
<asrwt>0</asrwt>
<pdfrwt beam="1">  1        3 0.29723544E+00 0.19287407E+04</pdfrwt>
<pdfrwt beam="2">  1       -3 0.63854432E-01 0.19287407E+04</pdfrwt>
<totfact> 0.23469709E-01</totfact>
</mgrwt>
</event>
<event>
 8    1  0.1206249E-029  0.1461560E+04  0.7818608E-02  0.8910425E-01
         -3   -1    0    0    0  501 -0.00000000000E+00  0.00000000000E+00  0.13438707337E+04  0.13438707375E+04  0.10100000000E+00 0. -1.
          3   -1    0    0  501    0  0.00000000000E+00 -0.00000000000E+00 -0.39738921032E+03  0.39738922316E+03  0.10100000000E+00 0.  1.
     200001    2    1    2    0    0 -0.19154868200E+02 -0.12751220402E+03  0.67048553498E+03  0.97784653611E+03  0.70000480314E+03 0.  0.
    5000001    2    3    3    0    0 -0.75868802580E+02 -0.16604583347E+03  0.24242689160E+03  0.31607957326E+03  0.88364047232E+02 0.  0.
        -13    1    4    4    0    0 -0.57121863253E+02 -0.67500988870E+02  0.63841378941E+02  0.10906430942E+03  0.10566000000E+00 0. -1.
     200003    1    4    4    0    0 -0.18746939327E+02 -0.98544844604E+02  0.17858551265E+03  0.20701526384E+03  0.30000000000E+02 0. -1.
     200000    1    3    3    0    0  0.56713934379E+02  0.38533629453E+02  0.42805864338E+03  0.66176696285E+03  0.50000000000E+03 0. -1.
    -200001    1    1    2    0    0  0.19154868200E+02  0.12751220402E+03  0.27599598840E+03  0.76341342454E+03  0.70000000000E+03 0.  1.
<mgrwt>
<rscale>  0 0.14615605E+04</rscale>
<asrwt>0</asrwt>
<pdfrwt beam="1">  1        3 0.56769888E-01 0.14615605E+04</pdfrwt>
<pdfrwt beam="2">  1       -3 0.19198153E+00 0.14615605E+04</pdfrwt>
<totfact> 0.12829959E+00</totfact>
</mgrwt>
</event>
<event>
 8    1  0.1206249E-029  0.1489569E+04  0.7818608E-02  0.8891419E-01
          3   -1    0    0  501    0  0.00000000000E+00  0.00000000000E+00  0.82187316014E+03  0.82187316635E+03  0.10100000000E+00 0.  1.
         -3   -1    0    0    0  501 -0.00000000000E+00 -0.00000000000E+00 -0.67492679929E+03  0.67492680685E+03  0.10100000000E+00 0. -1.
     200001    2    1    2    0    0  0.24048267295E+03  0.79704177214E+02  0.66970180265E+02  0.74808049214E+03  0.70068162943E+03 0.  0.
    5000001    2    3    3    0    0  0.50616738015E+02  0.43254971090E+02 -0.27722727285E+02  0.20370528641E+03  0.19051049160E+03 0.  0.
        -13    1    4    4    0    0  0.15497352358E+02 -0.17081505206E+02  0.73557999825E+02  0.77089144842E+02  0.10566000000E+00 0. -1.
     200003    1    4    4    0    0  0.35119385657E+02  0.60336476296E+02 -0.10128072711E+03  0.12661614156E+03  0.30000000000E+02 0. -1.
     200000    1    3    3    0    0  0.18986593494E+03  0.36449206124E+02  0.94692907549E+02  0.54437520573E+03  0.50000000000E+03 0. -1.
    -200001    1    1    2    0    0 -0.24048267295E+03 -0.79704177214E+02  0.79976180585E+02  0.74871948106E+03  0.70000000000E+03 0.  1.
<mgrwt>
<rscale>  0 0.14895694E+04</rscale>
<asrwt>0</asrwt>
<pdfrwt beam="1">  1        3 0.11741045E+00 0.14895694E+04</pdfrwt>
<pdfrwt beam="2">  1       -3 0.96418115E-01 0.14895694E+04</pdfrwt>
<totfact> 0.14476757E+00</totfact>
</mgrwt>
</event>
<event>
 8    1  0.1206249E-029  0.1620436E+04  0.7818608E-02  0.8808091E-01
          3   -1    0    0  501    0  0.00000000000E+00  0.00000000000E+00  0.34430187959E+03  0.34430189440E+03  0.10100000000E+00 0.  1.
         -3   -1    0    0    0  501 -0.00000000000E+00 -0.00000000000E+00 -0.19066211790E+04  0.19066211817E+04  0.10100000000E+00 0. -1.
     200001    2    1    2    0    0  0.34327003342E+02  0.79558899592E+02 -0.13347599605E+04  0.15097812446E+04  0.70024802227E+03 0.  0.
    5000001    2    3    3    0    0  0.59376631427E+02  0.99511940888E+02 -0.29921417846E+03  0.35939840638E+03  0.16189465458E+03 0.  0.
        -13    1    4    4    0    0  0.49454178181E+02 -0.23170650509E+02 -0.16950871093E+03  0.17808932879E+03  0.10566000000E+00 0. -1.
     200003    1    4    4    0    0  0.99224532458E+01  0.12268259140E+03 -0.12970546752E+03  0.18130907759E+03  0.30000000000E+02 0. -1.
     200000    1    3    3    0    0 -0.25049628085E+02 -0.19953041297E+02 -0.10355457820E+04  0.11503828382E+04  0.50000000000E+03 0. -1.
    -200001    1    1    2    0    0 -0.34327003342E+02 -0.79558899592E+02 -0.22755933891E+03  0.74114183149E+03  0.70000000000E+03 0.  1.
<mgrwt>
<rscale>  0 0.16204361E+04</rscale>
<asrwt>0</asrwt>
<pdfrwt beam="1">  1        3 0.49185985E-01 0.16204361E+04</pdfrwt>
<pdfrwt beam="2">  1       -3 0.27237445E+00 0.16204361E+04</pdfrwt>
<totfact> 0.56371693E-01</totfact>
</mgrwt>
</event>
<event>
 8    1  0.1206249E-029  0.1635262E+04  0.7818608E-02  0.8799173E-01
         -3   -1    0    0    0  501 -0.00000000000E+00  0.00000000000E+00  0.27559804750E+03  0.27559806601E+03  0.10100000000E+00 0.  1.
          3   -1    0    0  501    0  0.00000000000E+00 -0.00000000000E+00 -0.24257095213E+04  0.24257095234E+04  0.10100000000E+00 0. -1.
     200001    2    1    2    0    0 -0.26677701378E+03  0.26009069584E+03 -0.73301711231E+03  0.10774314936E+04  0.69622366475E+03 0.  0.
    5000001    2    3    3    0    0 -0.59846785284E+02  0.99929147747E+02 -0.14119852637E+03  0.25967781456E+03  0.18419574166E+03 0.  0.
        -13    1    4    4    0    0 -0.20633848498E+00  0.13951080128E+03 -0.10130836691E+03  0.17241433415E+03  0.10566000000E+00 0. -1.
     200003    1    4    4    0    0 -0.59640446799E+02 -0.39581653536E+02 -0.39890159457E+02  0.87263480405E+02  0.30000000000E+02 0. -1.
     200000    1    3    3    0    0 -0.20693022849E+03  0.16016154809E+03 -0.59181858594E+03  0.81775367906E+03  0.50000000000E+03 0.  1.
    -200001    1    1    2    0    0  0.26677701378E+03 -0.26009069584E+03 -0.14170943615E+04  0.16238760958E+04  0.70000000000E+03 0. -1.
<mgrwt>
<rscale>  0 0.16352625E+04</rscale>
<asrwt>0</asrwt>
<pdfrwt beam="1">  1        3 0.34652992E+00 0.16352625E+04</pdfrwt>
<pdfrwt beam="2">  1       -3 0.39371153E-01 0.16352625E+04</pdfrwt>
<totfact> 0.34964902E-01</totfact>
</mgrwt>
</event>
<event>
 8    1  0.1206249E-029  0.1697367E+04  0.7818608E-02  0.8762868E-01
          3   -1    0    0  501    0  0.00000000000E+00  0.00000000000E+00  0.10921436097E+04  0.10921436144E+04  0.10100000000E+00 0. -1.
         -3   -1    0    0    0  501 -0.00000000000E+00 -0.00000000000E+00 -0.65949519537E+03  0.65949520310E+03  0.10100000000E+00 0.  1.
     200001    2    1    2    0    0  0.31516123251E+03  0.22445114654E+03  0.51099184032E+03  0.94799548113E+03  0.69848253501E+03 0.  0.
    5000001    2    3    3    0    0  0.11513062404E+03  0.97323240102E+02  0.22289049348E+03  0.32415564995E+03  0.18074800041E+03 0.  0.
        -13    1    4    4    0    0 -0.35010503054E+02  0.29316291280E+02  0.42873785302E+00  0.45665908933E+02  0.10566000000E+00 0. -1.
     200003    1    4    4    0    0  0.15014112709E+03  0.68006948822E+02  0.22246175563E+03  0.27848974102E+03  0.30000000000E+02 0. -1.
     200000    1    3    3    0    0  0.20003060847E+03  0.12712790644E+03  0.28810134683E+03  0.62383983118E+03  0.50000000000E+03 0.  1.
    -200001    1    1    2    0    0 -0.31516123251E+03 -0.22445114654E+03 -0.78343425978E+02  0.80364333635E+03  0.70000000000E+03 0.  1.
<mgrwt>
<rscale>  0 0.16973668E+04</rscale>
<asrwt>0</asrwt>
<pdfrwt beam="1">  1        3 0.15602052E+00 0.16973668E+04</pdfrwt>
<pdfrwt beam="2">  1       -3 0.94213601E-01 0.16973668E+04</pdfrwt>
<totfact> 0.73471808E-01</totfact>
</mgrwt>
</event>
<event>
 8    1  0.1206249E-029  0.1568186E+04  0.7818608E-02  0.8840335E-01
          3   -1    0    0  501    0  0.00000000000E+00  0.00000000000E+00  0.11861659471E+04  0.11861659514E+04  0.10100000000E+00 0. -1.
         -3   -1    0    0    0  501 -0.00000000000E+00 -0.00000000000E+00 -0.51831001884E+03  0.51831002868E+03  0.10100000000E+00 0.  1.
     200001    2    1    2    0    0  0.31315051972E+03 -0.14549757380E+03  0.41570470750E+03  0.88422417113E+03  0.69986369315E+03 0.  0.
    5000001    2    3    3    0    0  0.24208681106E+02 -0.82603196305E+02  0.67510768069E+02  0.20696343236E+03  0.17568952800E+03 0.  0.
        -13    1    4    4    0    0  0.30039982898E+02 -0.12870438600E+03  0.19251295173E+02  0.13355838828E+03  0.10566000000E+00 0. -1.
     200003    1    4    4    0    0 -0.58313017918E+01  0.46101189700E+02  0.48259472896E+02  0.73405044081E+02  0.30000000000E+02 0. -1.
     200000    1    3    3    0    0  0.28894183862E+03 -0.62894377496E+02  0.34819393943E+03  0.67726073877E+03  0.50000000000E+03 0.  1.
    -200001    1    1    2    0    0 -0.31315051972E+03  0.14549757380E+03  0.25215122078E+03  0.82025180897E+03  0.70000000000E+03 0.  1.
<mgrwt>
<rscale>  0 0.15681858E+04</rscale>
<asrwt>0</asrwt>
<pdfrwt beam="1">  1        3 0.16945228E+00 0.15681858E+04</pdfrwt>
<pdfrwt beam="2">  1       -3 0.74044291E-01 0.15681858E+04</pdfrwt>
<totfact> 0.10238008E+00</totfact>
</mgrwt>
</event>
<event>
 8    1  0.1206249E-029  0.1409689E+04  0.7818608E-02  0.8946835E-01
         -3   -1    0    0    0  501 -0.00000000000E+00  0.00000000000E+00  0.62471847474E+03  0.62471848291E+03  0.10100000000E+00 0. -1.
          3   -1    0    0  501    0  0.00000000000E+00 -0.00000000000E+00 -0.79524745292E+03  0.79524745934E+03  0.10100000000E+00 0.  1.
     200001    2    1    2    0    0  0.57459414015E+02  0.34071747787E+02 -0.45671755171E+02  0.70578683698E+03  0.70113242813E+03 0.  0.
    5000001    2    3    3    0    0 -0.63035636845E+02 -0.34439993594E+02 -0.29970436663E+02  0.18669200230E+03  0.16969405405E+03 0.  0.
        -13    1    4    4    0    0 -0.28252790380E-01  0.54875174870E+02 -0.46778031056E+02  0.72107426585E+02  0.10566000000E+00 0. -1.
     200003    1    4    4    0    0 -0.63007384054E+02 -0.89315168463E+02  0.16807594393E+02  0.11458457572E+03  0.30000000000E+02 0. -1.
     200000    1    3    3    0    0  0.12049505086E+03  0.68511741380E+02 -0.15701318507E+02  0.51909483468E+03  0.50000000000E+03 0.  1.
    -200001    1    1    2    0    0 -0.57459414015E+02 -0.34071747787E+02 -0.12485722301E+03  0.71417910526E+03  0.70000000000E+03 0.  1.
<mgrwt>
<rscale>  0 0.14096890E+04</rscale>
<asrwt>0</asrwt>
<pdfrwt beam="1">  1        3 0.11360678E+00 0.14096890E+04</pdfrwt>
<pdfrwt beam="2">  1       -3 0.89245497E-01 0.14096890E+04</pdfrwt>
<totfact> 0.18824583E+00</totfact>
</mgrwt>
</event>
<event>
 8    1  0.1206249E-029  0.1610011E+04  0.7818608E-02  0.8814421E-01
         -3   -1    0    0    0  501 -0.00000000000E+00  0.00000000000E+00  0.34363209631E+03  0.34363211116E+03  0.10100000000E+00 0. -1.
          3   -1    0    0  501    0  0.00000000000E+00 -0.00000000000E+00 -0.18858368736E+04  0.18858368763E+04  0.10100000000E+00 0.  1.
     200001    2    1    2    0    0  0.12496115720E+03 -0.12180396343E+03 -0.27715647512E+03  0.77317275965E+03  0.70037768971E+03 0.  0.
    5000001    2    3    3    0    0  0.14304989347E+03 -0.39498355888E+02 -0.80666840152E+02  0.22938089500E+03  0.15519363309E+03 0.  0.
        -13    1    4    4    0    0  0.15501793268E+03  0.83807375124E+01 -0.71441182084E+02  0.17089368003E+03  0.10566000000E+00 0. -1.
     200003    1    4    4    0    0 -0.11968039213E+02 -0.47879093400E+02 -0.92256580681E+01  0.58487214964E+02  0.30000000000E+02 0. -1.
     200000    1    3    3    0    0 -0.18088736268E+02 -0.82305607542E+02 -0.19648963497E+03  0.54379186465E+03  0.50000000000E+03 0. -1.
    -200001    1    1    2    0    0 -0.12496115720E+03  0.12180396343E+03 -0.12650483021E+04  0.14562962278E+04  0.70000000000E+03 0.  1.
<mgrwt>
<rscale>  0 0.16100113E+04</rscale>
<asrwt>0</asrwt>
<pdfrwt beam="1">  1        3 0.26940527E+00 0.16100113E+04</pdfrwt>
<pdfrwt beam="2">  1       -3 0.49090301E-01 0.16100113E+04</pdfrwt>
<totfact> 0.59660935E-01</totfact>
</mgrwt>
</event>
<event>
 8    1  0.1206249E-029  0.1924823E+04  0.7818608E-02  0.8642598E-01
         -3   -1    0    0    0  501 -0.00000000000E+00  0.00000000000E+00  0.14446777713E+04  0.14446777748E+04  0.10100000000E+00 0. -1.
          3   -1    0    0  501    0  0.00000000000E+00 -0.00000000000E+00 -0.64113676443E+03  0.64113677239E+03  0.10100000000E+00 0.  1.
     200001    2    1    2    0    0 -0.13579395436E+03  0.64576001382E+03  0.37636917251E+03  0.10332359185E+04  0.70034042853E+03 0.  0.
    5000001    2    3    3    0    0  0.14284396089E+02  0.87754966387E+02  0.37418139323E+02  0.19730473288E+03  0.17211642098E+03 0.  0.
        -13    1    4    4    0    0 -0.35001009774E+02 -0.32977659328E+02 -0.19497987692E+02  0.51891997341E+02  0.10566000000E+00 0. -1.
     200003    1    4    4    0    0  0.49285405863E+02  0.12073262571E+03  0.56916127015E+02  0.14541273554E+03  0.30000000000E+02 0. -1.
     200000    1    3    3    0    0 -0.15007835045E+03  0.55800504744E+03  0.33895103318E+03  0.83593118565E+03  0.50000000000E+03 0. -1.
    -200001    1    1    2    0    0  0.13579395436E+03 -0.64576001382E+03  0.42717183435E+03  0.10525786287E+04  0.70000000000E+03 0.  1.
<mgrwt>
<rscale>  0 0.19248232E+04</rscale>
<asrwt>0</asrwt>
<pdfrwt beam="1">  1        3 0.91590967E-01 0.19248232E+04</pdfrwt>
<pdfrwt beam="2">  1       -3 0.20638254E+00 0.19248232E+04</pdfrwt>
<totfact> 0.35214822E-01</totfact>
</mgrwt>
</event>
<event>
 8    1  0.1206249E-029  0.1494458E+04  0.7818608E-02  0.8888147E-01
         -3   -1    0    0    0  501 -0.00000000000E+00  0.00000000000E+00  0.71341892673E+03  0.71341893388E+03  0.10100000000E+00 0. -1.
          3   -1    0    0  501    0  0.00000000000E+00 -0.00000000000E+00 -0.78264111533E+03  0.78264112185E+03  0.10100000000E+00 0.  1.
     200001    2    1    2    0    0  0.24543100662E+03  0.68522999050E+02 -0.95254453732E+02  0.75066790442E+03  0.69964070161E+03 0.  0.
    5000001    2    3    3    0    0  0.47821701965E+02 -0.54035509626E+02  0.14182477606E+02  0.18848780224E+03  0.17355044640E+03 0.  0.
        -13    1    4    4    0    0 -0.81928827358E+01 -0.60909792722E+02 -0.63178735799E+02  0.88140172443E+02  0.10566000000E+00 0. -1.
     200003    1    4    4    0    0  0.56014584700E+02  0.68742830962E+01  0.77361213406E+02  0.10034762980E+03  0.30000000000E+02 0. -1.
     200000    1    3    3    0    0  0.19760930466E+03  0.12255850868E+03 -0.10943693134E+03  0.56218010217E+03  0.50000000000E+03 0.  1.
    -200001    1    1    2    0    0 -0.24543100662E+03 -0.68522999050E+02  0.26032265138E+02  0.74539215131E+03  0.70000000000E+03 0. -1.
<mgrwt>
<rscale>  0 0.14944578E+04</rscale>
<asrwt>0</asrwt>
<pdfrwt beam="1">  1        3 0.11180587E+00 0.14944578E+04</pdfrwt>
<pdfrwt beam="2">  1       -3 0.10191699E+00 0.14944578E+04</pdfrwt>
<totfact> 0.14296571E+00</totfact>
</mgrwt>
</event>
<event>
 8    1  0.1206249E-029  0.1694678E+04  0.7818608E-02  0.8764405E-01
         -3   -1    0    0    0  501 -0.00000000000E+00  0.00000000000E+00  0.71163652366E+03  0.71163653083E+03  0.10100000000E+00 0. -1.
          3   -1    0    0  501    0  0.00000000000E+00 -0.00000000000E+00 -0.10089191989E+04  0.10089192040E+04  0.10100000000E+00 0.  1.
     200001    2    1    2    0    0 -0.28020958835E+03 -0.27826560146E+03  0.12354333544E+03  0.81333818117E+03  0.70021916773E+03 0.  0.
    5000001    2    3    3    0    0 -0.10990123689E+03 -0.26234090050E+02 -0.82814361153E+02  0.19276722128E+03  0.13241780030E+03 0.  0.
        -13    1    4    4    0    0 -0.79534094354E+02 -0.11149600038E+02  0.17955242626E+02  0.82294517725E+02  0.10566000000E+00 0. -1.
     200003    1    4    4    0    0 -0.30367142539E+02 -0.15084490012E+02 -0.10076960378E+03  0.11047270355E+03  0.30000000000E+02 0. -1.
     200000    1    3    3    0    0 -0.17030835146E+03 -0.25203151141E+03  0.20635769660E+03  0.62057095989E+03  0.50000000000E+03 0. -1.
    -200001    1    1    2    0    0  0.28020958835E+03  0.27826560146E+03 -0.42082601072E+03  0.90721755365E+03  0.70000000000E+03 0.  1.
<mgrwt>
<rscale>  0 0.16946784E+04</rscale>
<asrwt>0</asrwt>
<pdfrwt beam="1">  1        3 0.14413132E+00 0.16946784E+04</pdfrwt>
<pdfrwt beam="2">  1       -3 0.10166236E+00 0.16946784E+04</pdfrwt>
<totfact> 0.75593288E-01</totfact>
</mgrwt>
</event>
<event>
 8    1  0.1206249E-029  0.1568794E+04  0.7818608E-02  0.8839952E-01
         -3   -1    0    0    0  501 -0.00000000000E+00  0.00000000000E+00  0.56248811574E+03  0.56248812481E+03  0.10100000000E+00 0. -1.
          3   -1    0    0  501    0  0.00000000000E+00 -0.00000000000E+00 -0.10938519382E+04  0.10938519429E+04  0.10100000000E+00 0.  1.
     200001    2    1    2    0    0  0.12390944675E+03 -0.10493234665E+03  0.66092433662E+02  0.72182504566E+03  0.70021342346E+03 0.  0.
    5000001    2    3    3    0    0  0.41997018811E+01 -0.48109953002E+02  0.91894353458E+02  0.20392066598E+03  0.17551883301E+03 0.  0.
        -13    1    4    4    0    0  0.36315157982E+02 -0.10316336147E+03  0.40111341614E+02  0.11649206299E+03  0.10566000000E+00 0. -1.
     200003    1    4    4    0    0 -0.32115456101E+02  0.55053408469E+02  0.51783011844E+02  0.87428602987E+02  0.30000000000E+02 0. -1.
     200000    1    3    3    0    0  0.11970974487E+03 -0.56822393644E+02 -0.25801919796E+02  0.51790437969E+03  0.50000000000E+03 0. -1.
    -200001    1    1    2    0    0 -0.12390944675E+03  0.10493234665E+03 -0.59745625612E+03  0.93451502200E+03  0.70000000000E+03 0.  1.
<mgrwt>
<rscale>  0 0.15687941E+04</rscale>
<asrwt>0</asrwt>
<pdfrwt beam="1">  1        3 0.15626456E+00 0.15687941E+04</pdfrwt>
<pdfrwt beam="2">  1       -3 0.80355447E-01 0.15687941E+04</pdfrwt>
<totfact> 0.10602186E+00</totfact>
</mgrwt>
</event>
<event>
 8    1  0.1206249E-029  0.1578718E+04  0.7818608E-02  0.8833730E-01
         -3   -1    0    0    0  501 -0.00000000000E+00  0.00000000000E+00  0.94753845734E+03  0.94753846272E+03  0.10100000000E+00 0. -1.
          3   -1    0    0  501    0  0.00000000000E+00 -0.00000000000E+00 -0.65758517012E+03  0.65758517787E+03  0.10100000000E+00 0.  1.
     200001    2    1    2    0    0  0.95216718973E+02 -0.28249491341E+03 -0.67345158995E+02  0.76456919302E+03  0.70082885271E+03 0.  0.
    5000001    2    3    3    0    0  0.35065238219E+02 -0.12598177079E+02  0.27349827012E+02  0.18540635815E+03  0.17955283236E+03 0.  0.
        -13    1    4    4    0    0  0.70959018614E+02  0.62639946961E+02  0.10625937747E+02  0.95246348985E+02  0.10566000000E+00 0. -1.
     200003    1    4    4    0    0 -0.35893780396E+02 -0.75238124039E+02  0.16723889266E+02  0.90160009163E+02  0.30000000000E+02 0. -1.
     200000    1    3    3    0    0  0.60151480754E+02 -0.26989673633E+03 -0.94694986008E+02  0.57916283487E+03  0.50000000000E+03 0.  1.
    -200001    1    1    2    0    0 -0.95216718973E+02  0.28249491341E+03  0.35729844621E+03  0.84055444758E+03  0.70000000000E+03 0. -1.
<mgrwt>
<rscale>  0 0.15787175E+04</rscale>
<asrwt>0</asrwt>
<pdfrwt beam="1">  1        3 0.93940740E-01 0.15787175E+04</pdfrwt>
<pdfrwt beam="2">  1       -3 0.13536264E+00 0.15787175E+04</pdfrwt>
<totfact> 0.10733785E+00</totfact>
</mgrwt>
</event>
<event>
 8    1  0.1206249E-029  0.1494118E+04  0.7818608E-02  0.8888374E-01
          3   -1    0    0  501    0  0.00000000000E+00  0.00000000000E+00  0.71258998073E+03  0.71258998789E+03  0.10100000000E+00 0.  1.
         -3   -1    0    0    0  501 -0.00000000000E+00 -0.00000000000E+00 -0.78319494895E+03  0.78319495546E+03  0.10100000000E+00 0. -1.
     200001    2    1    2    0    0  0.23714081594E+03 -0.31189564215E+02 -0.13344703980E+03  0.75338499625E+03  0.70183494116E+03 0.  0.
    5000001    2    3    3    0    0  0.10136660058E+03 -0.11888017138E+01 -0.71807831357E+02  0.23076268968E+03  0.19446967203E+03 0.  0.
        -13    1    4    4    0    0  0.84865983690E+02  0.74137662500E+02 -0.92135568432E+02  0.14555961776E+03  0.10566000000E+00 0. -1.
     200003    1    4    4    0    0  0.16500616892E+02 -0.75326464214E+02  0.20327737075E+02  0.85203071913E+02  0.30000000000E+02 0. -1.
     200000    1    3    3    0    0  0.13577421536E+03 -0.30000762501E+02 -0.61639208448E+02  0.52262230657E+03  0.50000000000E+03 0. -1.
    -200001    1    1    2    0    0 -0.23714081594E+03  0.31189564215E+02  0.62842071588E+02  0.74239994711E+03  0.70000000000E+03 0.  1.
<mgrwt>
<rscale>  0 0.14941176E+04</rscale>
<asrwt>0</asrwt>
<pdfrwt beam="1">  1        3 0.10179857E+00 0.14941176E+04</pdfrwt>
<pdfrwt beam="2">  1       -3 0.11188499E+00 0.14941176E+04</pdfrwt>
<totfact> 0.14306534E+00</totfact>
</mgrwt>
</event>
<event>
 8    1  0.1206249E-029  0.1678133E+04  0.7818608E-02  0.8773935E-01
          3   -1    0    0  501    0  0.00000000000E+00  0.00000000000E+00  0.20877905434E+04  0.20877905459E+04  0.10100000000E+00 0. -1.
         -3   -1    0    0    0  501 -0.00000000000E+00 -0.00000000000E+00 -0.33721422748E+03  0.33721424261E+03  0.10100000000E+00 0.  1.
     200001    2    1    2    0    0 -0.83090314492E+02 -0.25494412216E+03  0.33120655332E+03  0.81985338477E+03  0.70040080366E+03 0.  0.
    5000001    2    3    3    0    0 -0.64042484907E+02 -0.79975553862E+02  0.18518807642E+02  0.20442634116E+03  0.17592513645E+03 0.  0.
        -13    1    4    4    0    0  0.34549649117E+02 -0.47440289692E+01  0.60730492457E+02  0.70031335437E+02  0.10566000000E+00 0. -1.
     200003    1    4    4    0    0 -0.98592134024E+02 -0.75231524893E+02 -0.42211684815E+02  0.13439500573E+03  0.30000000000E+02 0. -1.
     200000    1    3    3    0    0 -0.19047829586E+02 -0.17496856830E+03  0.31268774568E+03  0.61542704361E+03  0.50000000000E+03 0.  1.
    -200001    1    1    2    0    0  0.83090314492E+02  0.25494412216E+03  0.14193697626E+04  0.16051514037E+04  0.70000000000E+03 0. -1.
<mgrwt>
<rscale>  0 0.16781331E+04</rscale>
<asrwt>0</asrwt>
<pdfrwt beam="1">  1        3 0.29825579E+00 0.16781331E+04</pdfrwt>
<pdfrwt beam="2">  1       -3 0.48173463E-01 0.16781331E+04</pdfrwt>
<totfact> 0.42604595E-01</totfact>
</mgrwt>
</event>
<event>
 8    1  0.1206249E-029  0.1839609E+04  0.7818608E-02  0.8685515E-01
         -3   -1    0    0    0  501 -0.00000000000E+00  0.00000000000E+00  0.18509042509E+04  0.18509042536E+04  0.10100000000E+00 0. -1.
          3   -1    0    0  501    0  0.00000000000E+00 -0.00000000000E+00 -0.45709554499E+03  0.45709555615E+03  0.10100000000E+00 0.  1.
     200001    2    1    2    0    0  0.87556256591E+02  0.24037844616E+03  0.13723163354E+04  0.15624062090E+04  0.70172155600E+03 0.  0.
    5000001    2    3    3    0    0  0.69127832198E+02  0.71299578378E+02  0.56218928277E+03  0.59533169703E+03  0.16882165965E+03 0.  0.
        -13    1    4    4    0    0  0.87970058150E+02  0.15356800877E+02  0.48709368433E+03  0.49521190509E+03  0.10566000000E+00 0. -1.
     200003    1    4    4    0    0 -0.18842225953E+02  0.55942777501E+02  0.75095598440E+02  0.10011979194E+03  0.30000000000E+02 0. -1.
     200000    1    3    3    0    0  0.18428424394E+02  0.16907886778E+03  0.81012705265E+03  0.96707451202E+03  0.50000000000E+03 0. -1.
    -200001    1    1    2    0    0 -0.87556256591E+02 -0.24037844616E+03  0.21492370450E+02  0.74559360072E+03  0.70000000000E+03 0.  1.
<mgrwt>
<rscale>  0 0.18396088E+04</rscale>
<asrwt>0</asrwt>
<pdfrwt beam="1">  1        3 0.65299365E-01 0.18396088E+04</pdfrwt>
<pdfrwt beam="2">  1       -3 0.26441489E+00 0.18396088E+04</pdfrwt>
<totfact> 0.33958825E-01</totfact>
</mgrwt>
</event>
<event>
 8    1  0.1206249E-029  0.1517797E+04  0.7818608E-02  0.8872703E-01
          3   -1    0    0  501    0  0.00000000000E+00  0.00000000000E+00  0.69624584435E+03  0.69624585167E+03  0.10100000000E+00 0.  1.
         -3   -1    0    0    0  501 -0.00000000000E+00 -0.00000000000E+00 -0.82718936047E+03  0.82718936664E+03  0.10100000000E+00 0. -1.
     200001    2    1    2    0    0  0.24204496971E+03 -0.39401845828E+02  0.96987700796E+02  0.74749004469E+03  0.69942582165E+03 0.  0.
    5000001    2    3    3    0    0  0.13703853994E+03  0.23098989762E+02  0.13176991613E+03  0.23160003002E+03  0.13023877436E+03 0.  0.
        -13    1    4    4    0    0  0.10216830291E+03 -0.16429396767E+02  0.21410035444E+02  0.10567255073E+03  0.10566000000E+00 0. -1.
     200003    1    4    4    0    0  0.34870237039E+02  0.39528386529E+02  0.11035988069E+03  0.12592747928E+03  0.30000000000E+02 0. -1.
     200000    1    3    3    0    0  0.10500642977E+03 -0.62500835590E+02 -0.34782215338E+02  0.51589001468E+03  0.50000000000E+03 0.  1.
    -200001    1    1    2    0    0 -0.24204496971E+03  0.39401845828E+02 -0.22793121692E+03  0.77594517362E+03  0.70000000000E+03 0. -1.
<mgrwt>
<rscale>  0 0.15177973E+04</rscale>
<asrwt>0</asrwt>
<pdfrwt beam="1">  1        3 0.99463693E-01 0.15177973E+04</pdfrwt>
<pdfrwt beam="2">  1       -3 0.11816991E+00 0.15177973E+04</pdfrwt>
<totfact> 0.13221903E+00</totfact>
</mgrwt>
</event>
<event>
 8    1  0.1206249E-029  0.1510418E+04  0.7818608E-02  0.8877554E-01
          3   -1    0    0  501    0  0.00000000000E+00  0.00000000000E+00  0.15207003939E+04  0.15207003972E+04  0.10100000000E+00 0.  1.
         -3   -1    0    0    0  501 -0.00000000000E+00 -0.00000000000E+00 -0.37505149738E+03  0.37505151098E+03  0.10100000000E+00 0. -1.
     200001    2    1    2    0    0 -0.17438858977E+03  0.91336213546E+02  0.82713695131E+03  0.11018983050E+04  0.70090702245E+03 0.  0.
    5000001    2    3    3    0    0 -0.89624847504E+02  0.11763172821E+03  0.17173968026E+03  0.27278918730E+03  0.15182090160E+03 0.  0.
        -13    1    4    4    0    0  0.18365178293E+02 -0.24014426756E+02  0.15538479674E+02  0.33991586911E+02  0.10566000000E+00 0. -1.
     200003    1    4    4    0    0 -0.10799002580E+03  0.14164615496E+03  0.15620120059E+03  0.23879760039E+03  0.30000000000E+02 0. -1.
     200000    1    3    3    0    0 -0.84763742267E+02 -0.26295514660E+02  0.65539727105E+03  0.82910911767E+03  0.50000000000E+03 0.  1.
    -200001    1    1    2    0    0  0.17438858977E+03 -0.91336213546E+02  0.31851194517E+03  0.79385360323E+03  0.70000000000E+03 0.  1.
<mgrwt>
<rscale>  0 0.15104185E+04</rscale>
<asrwt>0</asrwt>
<pdfrwt beam="1">  1        3 0.21724292E+00 0.15104185E+04</pdfrwt>
<pdfrwt beam="2">  1       -3 0.53578785E-01 0.15104185E+04</pdfrwt>
<totfact> 0.10089361E+00</totfact>
</mgrwt>
</event>
<event>
 8    1  0.1206249E-029  0.1701287E+04  0.7818608E-02  0.8760630E-01
          3   -1    0    0  501    0  0.00000000000E+00  0.00000000000E+00  0.12953769748E+04  0.12953769787E+04  0.10100000000E+00 0.  1.
         -3   -1    0    0    0  501 -0.00000000000E+00 -0.00000000000E+00 -0.55859776652E+03  0.55859777565E+03  0.10100000000E+00 0. -1.
     200001    2    1    2    0    0 -0.34866869918E+03 -0.33135896944E+03  0.31482016996E+03  0.90559821606E+03  0.69973406456E+03 0.  0.
    5000001    2    3    3    0    0 -0.79454707937E+02 -0.59333797418E+01  0.18617897382E+03  0.23857007208E+03  0.12611428703E+03 0.  0.
        -13    1    4    4    0    0 -0.11496118287E+02 -0.46962404810E+02  0.20688863204E+02  0.52589622797E+02  0.10566000000E+00 0. -1.
     200003    1    4    4    0    0 -0.67958589651E+02  0.41029025068E+02  0.16549011061E+03  0.18598044929E+03  0.30000000000E+02 0. -1.
     200000    1    3    3    0    0 -0.26921399124E+03 -0.32542558970E+03  0.12864119614E+03  0.66702814397E+03  0.50000000000E+03 0. -1.
    -200001    1    1    2    0    0  0.34866869918E+03  0.33135896944E+03  0.42195903830E+03  0.94837653831E+03  0.70000000000E+03 0. -1.
<mgrwt>
<rscale>  0 0.17012874E+04</rscale>
<asrwt>0</asrwt>
<pdfrwt beam="1">  1        3 0.18505385E+00 0.17012874E+04</pdfrwt>
<pdfrwt beam="2">  1       -3 0.79799683E-01 0.17012874E+04</pdfrwt>
<totfact> 0.67366474E-01</totfact>
</mgrwt>
</event>
<event>
 8    1  0.1206249E-029  0.1479204E+04  0.7818608E-02  0.8898401E-01
          3   -1    0    0  501    0  0.00000000000E+00  0.00000000000E+00  0.13528078264E+04  0.13528078302E+04  0.10100000000E+00 0.  1.
         -3   -1    0    0    0  501 -0.00000000000E+00 -0.00000000000E+00 -0.40435241673E+03  0.40435242934E+03  0.10100000000E+00 0. -1.
     200001    2    1    2    0    0  0.33818603227E+02 -0.16398128042E+03  0.67480396638E+03  0.98714813580E+03  0.70076207853E+03 0.  0.
    5000001    2    3    3    0    0  0.63392257832E+02 -0.10668584973E+03  0.14123844413E+03  0.25308442333E+03  0.16941953354E+03 0.  0.
        -13    1    4    4    0    0  0.11433418220E+03 -0.68477727403E+02  0.61672390588E+02  0.14685026147E+03  0.10566000000E+00 0. -1.
     200003    1    4    4    0    0 -0.50941924365E+02 -0.38208122324E+02  0.79566053542E+02  0.10623416186E+03  0.30000000000E+02 0. -1.
     200000    1    3    3    0    0 -0.29573654605E+02 -0.57295430697E+02  0.53356552225E+03  0.73406371247E+03  0.50000000000E+03 0.  1.
    -200001    1    1    2    0    0 -0.33818603227E+02  0.16398128042E+03  0.27365144328E+03  0.77001212371E+03  0.70000000000E+03 0.  1.
<mgrwt>
<rscale>  0 0.14792040E+04</rscale>
<asrwt>0</asrwt>
<pdfrwt beam="1">  1        3 0.19325827E+00 0.14792040E+04</pdfrwt>
<pdfrwt beam="2">  1       -3 0.57764631E-01 0.14792040E+04</pdfrwt>
<totfact> 0.12192023E+00</totfact>
</mgrwt>
</event>
<event>
 8    1  0.1206249E-029  0.1433559E+04  0.7818608E-02  0.8929879E-01
         -3   -1    0    0    0  501 -0.00000000000E+00  0.00000000000E+00  0.25511336763E+03  0.25511338762E+03  0.10100000000E+00 0. -1.
          3   -1    0    0  501    0  0.00000000000E+00 -0.00000000000E+00 -0.20139009092E+04  0.20139009117E+04  0.10100000000E+00 0.  1.
     200001    2    1    2    0    0 -0.37713410909E+02 -0.69776176081E+02 -0.67083065503E+03  0.97288884127E+03  0.70014849397E+03 0.  0.
    5000001    2    3    3    0    0 -0.31404415072E+02 -0.60686081624E+02 -0.84041592600E+02  0.20188700142E+03  0.17037116619E+03 0.  0.
        -13    1    4    4    0    0 -0.72051585067E+02 -0.90601649400E+02 -0.24611579998E+02  0.11834623280E+03  0.10566000000E+00 0. -1.
     200003    1    4    4    0    0  0.40647169995E+02  0.29915567776E+02 -0.59430012602E+02  0.83540768622E+02  0.30000000000E+02 0. -1.
     200000    1    3    3    0    0 -0.63089958366E+01 -0.90900944571E+01 -0.58678906243E+03  0.77100183984E+03  0.50000000000E+03 0. -1.
    -200001    1    1    2    0    0  0.37713410909E+02  0.69776176081E+02 -0.10879568865E+04  0.12961254580E+04  0.70000000000E+03 0.  1.
<mgrwt>
<rscale>  0 0.14335593E+04</rscale>
<asrwt>0</asrwt>
<pdfrwt beam="1">  1        3 0.28770012E+00 0.14335593E+04</pdfrwt>
<pdfrwt beam="2">  1       -3 0.36444770E-01 0.14335593E+04</pdfrwt>
<totfact> 0.86723992E-01</totfact>
</mgrwt>
</event>
<event>
 8    1  0.1206249E-029  0.1666166E+04  0.7818608E-02  0.8780900E-01
         -3   -1    0    0    0  501 -0.00000000000E+00  0.00000000000E+00  0.89695364430E+03  0.89695364999E+03  0.10100000000E+00 0. -1.
          3   -1    0    0  501    0  0.00000000000E+00 -0.00000000000E+00 -0.77376066772E+03  0.77376067431E+03  0.10100000000E+00 0.  1.
     200001    2    1    2    0    0 -0.22750020951E+03 -0.39035881791E+03  0.84355313444E+02  0.83666113887E+03  0.69910635123E+03 0.  0.
    5000001    2    3    3    0    0 -0.91714875912E+00 -0.57754438658E+02  0.50404310557E+02  0.19391840097E+03  0.17812168696E+03 0.  0.
        -13    1    4    4    0    0 -0.25165695606E+02  0.12633994350E+01 -0.58777048370E+02  0.63950457329E+02  0.10566000000E+00 0. -1.
     200003    1    4    4    0    0  0.24248546847E+02 -0.59017838093E+02  0.10918135893E+03  0.12996794364E+03  0.30000000000E+02 0. -1.
     200000    1    3    3    0    0 -0.22658306075E+03 -0.33260437925E+03  0.33951002887E+02  0.64274273789E+03  0.50000000000E+03 0.  1.
    -200001    1    1    2    0    0  0.22750020951E+03  0.39035881791E+03  0.38837663142E+02  0.83405318543E+03  0.70000000000E+03 0.  1.
<mgrwt>
<rscale>  0 0.16661662E+04</rscale>
<asrwt>0</asrwt>
<pdfrwt beam="1">  1        3 0.11053724E+00 0.16661662E+04</pdfrwt>
<pdfrwt beam="2">  1       -3 0.12813624E+00 0.16661662E+04</pdfrwt>
<totfact> 0.83457124E-01</totfact>
</mgrwt>
</event>
<event>
 8    1  0.1206249E-029  0.1489458E+04  0.7818608E-02  0.8891494E-01
          3   -1    0    0  501    0  0.00000000000E+00  0.00000000000E+00  0.81594951063E+03  0.81594951689E+03  0.10100000000E+00 0. -1.
         -3   -1    0    0    0  501 -0.00000000000E+00 -0.00000000000E+00 -0.67972458071E+03  0.67972458821E+03  0.10100000000E+00 0.  1.
     200001    2    1    2    0    0 -0.19745274468E+03 -0.56245597874E+02 -0.80535190146E+02  0.73466418182E+03  0.70078127083E+03 0.  0.
    5000001    2    3    3    0    0 -0.29368903193E+02  0.73365713824E+02  0.81057638601E+02  0.16795128080E+03  0.12406543236E+03 0.  0.
        -13    1    4    4    0    0  0.16053572757E+01  0.54039367030E+01 -0.30150136262E+02  0.30672815073E+02  0.10566000000E+00 0. -1.
     200003    1    4    4    0    0 -0.30974260469E+02  0.67961777121E+02  0.11120777486E+03  0.13727846572E+03  0.30000000000E+02 0. -1.
     200000    1    3    3    0    0 -0.16808384149E+03 -0.12961131170E+03 -0.16159282875E+03  0.56671290103E+03  0.50000000000E+03 0.  1.
    -200001    1    1    2    0    0  0.19745274468E+03  0.56245597874E+02  0.21676012007E+03  0.76100992327E+03  0.70000000000E+03 0. -1.
<mgrwt>
<rscale>  0 0.14894576E+04</rscale>
<asrwt>0</asrwt>
<pdfrwt beam="1">  1        3 0.11656422E+00 0.14894576E+04</pdfrwt>
<pdfrwt beam="2">  1       -3 0.97103512E-01 0.14894576E+04</pdfrwt>
<totfact> 0.14491228E+00</totfact>
</mgrwt>
</event>
<event>
 8    1  0.1206249E-029  0.1918477E+04  0.7818608E-02  0.8645714E-01
         -3   -1    0    0    0  501 -0.00000000000E+00  0.00000000000E+00  0.85492894728E+03  0.85492895325E+03  0.10100000000E+00 0. -1.
          3   -1    0    0  501    0  0.00000000000E+00 -0.00000000000E+00 -0.10762742770E+04  0.10762742817E+04  0.10100000000E+00 0.  1.
     200001    2    1    2    0    0  0.16922522097E+03 -0.41512240433E+03 -0.59218505836E+03  0.10209912320E+04  0.70055418529E+03 0.  0.
    5000001    2    3    3    0    0  0.91058824855E+02 -0.86851157507E+02 -0.24700911217E+03  0.32599595808E+03  0.17153725556E+03 0.  0.
        -13    1    4    4    0    0  0.79753464259E+02 -0.13311749093E+03 -0.19634713494E+03  0.25026603848E+03  0.10566000000E+00 0. -1.
     200003    1    4    4    0    0  0.11305360596E+02  0.46266333420E+02 -0.50661977233E+02  0.75729919606E+02  0.30000000000E+02 0.  1.
     200000    1    3    3    0    0  0.78166396119E+02 -0.32827124683E+03 -0.34517594619E+03  0.69499527394E+03  0.50000000000E+03 0.  1.
    -200001    1    1    2    0    0 -0.16922522097E+03  0.41512240433E+03  0.37083972864E+03  0.91021200296E+03  0.70000000000E+03 0. -1.
<mgrwt>
<rscale>  0 0.19184765E+04</rscale>
<asrwt>0</asrwt>
<pdfrwt beam="1">  1        3 0.15375347E+00 0.19184765E+04</pdfrwt>
<pdfrwt beam="2">  1       -3 0.12213271E+00 0.19184765E+04</pdfrwt>
<totfact> 0.40471317E-01</totfact>
</mgrwt>
</event>
<event>
 8    1  0.1206249E-029  0.1711492E+04  0.7818608E-02  0.8754837E-01
          3   -1    0    0  501    0  0.00000000000E+00  0.00000000000E+00  0.68022081274E+03  0.68022082024E+03  0.10100000000E+00 0.  1.
         -3   -1    0    0    0  501 -0.00000000000E+00 -0.00000000000E+00 -0.10765639815E+04  0.10765639863E+04  0.10100000000E+00 0. -1.
     200001    2    1    2    0    0 -0.13432221242E+02 -0.49063735824E+03 -0.13930012824E+03  0.86404936610E+03  0.69733158502E+03 0.  0.
    5000001    2    3    3    0    0 -0.46491553555E+01 -0.47757207542E+02 -0.65717669190E+01  0.18299372371E+03  0.17646855040E+03 0.  0.
        -13    1    4    4    0    0 -0.42281472202E+02  0.53071103907E+02  0.14275170535E+02  0.69340151567E+02  0.10566000000E+00 0. -1.
     200003    1    4    4    0    0  0.37632316847E+02 -0.10082831145E+03 -0.20846937454E+02  0.11365357215E+03  0.30000000000E+02 0. -1.
     200000    1    3    3    0    0 -0.87830658864E+01 -0.44288015070E+03 -0.13272836132E+03  0.68105564239E+03  0.50000000000E+03 0. -1.
    -200001    1    1    2    0    0  0.13432221242E+02  0.49063735824E+03 -0.25704304055E+03  0.89273544041E+03  0.70000000000E+03 0.  1.
<mgrwt>
<rscale>  0 0.17114920E+04</rscale>
<asrwt>0</asrwt>
<pdfrwt beam="1">  1        3 0.97174403E-01 0.17114920E+04</pdfrwt>
<pdfrwt beam="2">  1       -3 0.15379486E+00 0.17114920E+04</pdfrwt>
<totfact> 0.70774137E-01</totfact>
</mgrwt>
</event>
<event>
 8    1  0.1206249E-029  0.1671151E+04  0.7818608E-02  0.8777991E-01
         -3   -1    0    0    0  501 -0.00000000000E+00  0.00000000000E+00  0.12582638358E+04  0.12582638399E+04  0.10100000000E+00 0. -1.
          3   -1    0    0  501    0  0.00000000000E+00 -0.00000000000E+00 -0.55488105870E+03  0.55488106790E+03  0.10100000000E+00 0.  1.
     200001    2    1    2    0    0  0.10967060636E+03  0.42879305600E+03  0.24842756260E+03  0.86822407828E+03  0.70441867484E+03 0.  0.
    5000001    2    3    3    0    0 -0.33415068864E+02  0.68654569352E+02  0.22376557968E+02  0.19645604040E+03  0.17962251736E+03 0.  0.
        -13    1    4    4    0    0 -0.97162449057E+02  0.72876203281E+02 -0.28889231243E+01  0.12149008006E+03  0.10566000000E+00 0. -1.
     200003    1    4    4    0    0  0.63747380193E+02 -0.42216339298E+01  0.25265481092E+02  0.74965960338E+02  0.30000000000E+02 0. -1.
     200000    1    3    3    0    0  0.14308567522E+03  0.36013848665E+03  0.22605100463E+03  0.67176803788E+03  0.50000000000E+03 0. -1.
    -200001    1    1    2    0    0 -0.10967060636E+03 -0.42879305600E+03  0.45495521449E+03  0.94492082947E+03  0.70000000000E+03 0.  1.
<mgrwt>
<rscale>  0 0.16711514E+04</rscale>
<asrwt>0</asrwt>
<pdfrwt beam="1">  1        3 0.79268724E-01 0.16711514E+04</pdfrwt>
<pdfrwt beam="2">  1       -3 0.17975198E+00 0.16711514E+04</pdfrwt>
<totfact> 0.74005197E-01</totfact>
</mgrwt>
</event>
<event>
 8    1  0.1206249E-029  0.1676131E+04  0.7818608E-02  0.8775096E-01
          3   -1    0    0  501    0  0.00000000000E+00  0.00000000000E+00  0.10718699028E+04  0.10718699076E+04  0.10100000000E+00 0. -1.
         -3   -1    0    0    0  501 -0.00000000000E+00 -0.00000000000E+00 -0.65526043913E+03  0.65526044692E+03  0.10100000000E+00 0.  1.
     200001    2    1    2    0    0 -0.12675851700E+03 -0.28399263072E+03  0.55772984920E+03  0.94826290805E+03  0.70101385305E+03 0.  0.
    5000001    2    3    3    0    0 -0.43835392387E+01 -0.96607825087E+02  0.12317866194E+03  0.24903230596E+03  0.19362804386E+03 0.  0.
        -13    1    4    4    0    0  0.31726868998E+02 -0.14061574291E+03  0.52409768495E+02  0.15338245131E+03  0.10566000000E+00 0. -1.
     200003    1    4    4    0    0 -0.36110408237E+02  0.44007917828E+02  0.70768893444E+02  0.95649854646E+02  0.30000000000E+02 0. -1.
     200000    1    3    3    0    0 -0.12237497776E+03 -0.18738480563E+03  0.43455118726E+03  0.69923060210E+03  0.50000000000E+03 0. -1.
    -200001    1    1    2    0    0  0.12675851700E+03  0.28399263072E+03 -0.14112038550E+03  0.77886744645E+03  0.70000000000E+03 0.  1.
<mgrwt>
<rscale>  0 0.16761312E+04</rscale>
<asrwt>0</asrwt>
<pdfrwt beam="1">  1        3 0.15312427E+00 0.16761312E+04</pdfrwt>
<pdfrwt beam="2">  1       -3 0.93608635E-01 0.16761312E+04</pdfrwt>
<totfact> 0.78447597E-01</totfact>
</mgrwt>
</event>
<event>
 8    1  0.1206249E-029  0.1507463E+04  0.7818608E-02  0.8879505E-01
          3   -1    0    0  501    0  0.00000000000E+00  0.00000000000E+00  0.65080894746E+03  0.65080895529E+03  0.10100000000E+00 0. -1.
         -3   -1    0    0    0  501 -0.00000000000E+00 -0.00000000000E+00 -0.87293063942E+03  0.87293064526E+03  0.10100000000E+00 0.  1.
     200001    2    1    2    0    0 -0.65343165867E+02  0.21497911150E+03  0.56846341816E+02  0.73741338862E+03  0.70004374966E+03 0.  0.
    5000001    2    3    3    0    0 -0.35037528832E+02  0.13716538841E+01  0.17936097221E+02  0.19146413757E+03  0.18736942795E+03 0.  0.
        -13    1    4    4    0    0 -0.10283875536E+02 -0.64455732759E+02  0.72484399533E+02  0.97541267786E+02  0.10566000000E+00 0. -1.
     200003    1    4    4    0    0 -0.24753653296E+02  0.65827386643E+02 -0.54548302312E+02  0.93922869787E+02  0.30000000000E+02 0. -1.
     200000    1    3    3    0    0 -0.30305637035E+02  0.21360745761E+03  0.38910244595E+02  0.54594925105E+03  0.50000000000E+03 0. -1.
    -200001    1    1    2    0    0  0.65343165867E+02 -0.21497911150E+03 -0.27896803377E+03  0.78632621193E+03  0.70000000000E+03 0.  1.
<mgrwt>
<rscale>  0 0.15074629E+04</rscale>
<asrwt>0</asrwt>
<pdfrwt beam="1">  1        3 0.92972708E-01 0.15074629E+04</pdfrwt>
<pdfrwt beam="2">  1       -3 0.12470438E+00 0.15074629E+04</pdfrwt>
<totfact> 0.13554558E+00</totfact>
</mgrwt>
</event>
<event>
 8    1  0.1206249E-029  0.1536727E+04  0.7818608E-02  0.8860391E-01
          3   -1    0    0  501    0  0.00000000000E+00  0.00000000000E+00  0.14979882491E+03  0.14979885895E+03  0.10100000000E+00 0. -1.
         -3   -1    0    0    0  501 -0.00000000000E+00 -0.00000000000E+00 -0.39411672020E+04  0.39411672033E+04  0.10100000000E+00 0.  1.
     200001    2    1    2    0    0  0.20882913034E+03 -0.10198909850E+03 -0.13215776826E+04  0.15133940543E+04  0.69984470446E+03 0.  0.
    5000001    2    3    3    0    0  0.63882584991E+02 -0.53350310066E+02 -0.45441557456E+03  0.50080067367E+03  0.19334052885E+03 0.  0.
        -13    1    4    4    0    0 -0.43384357893E+01 -0.11141053493E+03 -0.29666618765E+03  0.31692580736E+03  0.10566000000E+00 0. -1.
     200003    1    4    4    0    0  0.68221020780E+02  0.58060224859E+02 -0.15774938691E+03  0.18387486630E+03  0.30000000000E+02 0. -1.
     200000    1    3    3    0    0  0.14494654535E+03 -0.48638788431E+02 -0.86716210808E+03  0.10125933806E+04  0.50000000000E+03 0. -1.
    -200001    1    1    2    0    0 -0.20882913034E+03  0.10198909850E+03 -0.24697906945E+04  0.25775720080E+04  0.70000000000E+03 0.  1.
<mgrwt>
<rscale>  0 0.15367268E+04</rscale>
<asrwt>0</asrwt>
<pdfrwt beam="1">  1        3 0.21399837E-01 0.15367268E+04</pdfrwt>
<pdfrwt beam="2">  1       -3 0.56302382E+00 0.15367268E+04</pdfrwt>
<totfact> 0.74445739E-02</totfact>
</mgrwt>
</event>
<event>
 8    1  0.1206249E-029  0.2308430E+04  0.7818608E-02  0.8474605E-01
          3   -1    0    0  501    0  0.00000000000E+00  0.00000000000E+00  0.86839981673E+03  0.86839982261E+03  0.10100000000E+00 0.  1.
         -3   -1    0    0    0  501 -0.00000000000E+00 -0.00000000000E+00 -0.15341002993E+04  0.15341003026E+04  0.10100000000E+00 0. -1.
     200001    2    1    2    0    0 -0.87257935251E+03 -0.20804129371E+02 -0.62779159601E+03  0.12830071052E+04  0.70011242361E+03 0.  0.
    5000001    2    3    3    0    0 -0.19835093806E+03 -0.38067129428E+02 -0.17576661375E+03  0.32948282620E+03  0.19202299154E+03 0.  0.
        -13    1    4    4    0    0  0.29030495867E+02 -0.26654950404E+01  0.11441528863E+02  0.31317635620E+02  0.10566000000E+00 0. -1.
     200003    1    4    4    0    0 -0.22738143393E+03 -0.35401634388E+02 -0.18720814261E+03  0.29816519058E+03  0.30000000000E+02 0. -1.
     200000    1    3    3    0    0 -0.67422841445E+03  0.17263000057E+02 -0.45202498226E+03  0.95352427898E+03  0.50000000000E+03 0. -1.
    -200001    1    1    2    0    0  0.87257935251E+03  0.20804129371E+02 -0.37908886537E+02  0.11194930200E+04  0.70000000000E+03 0.  1.
<mgrwt>
<rscale>  0 0.23084301E+04</rscale>
<asrwt>0</asrwt>
<pdfrwt beam="1">  1        3 0.12405712E+00 0.23084301E+04</pdfrwt>
<pdfrwt beam="2">  1       -3 0.21915719E+00 0.23084301E+04</pdfrwt>
<totfact> 0.13861648E-01</totfact>
</mgrwt>
</event>
<event>
 8    1  0.1206249E-029  0.2320285E+04  0.7818608E-02  0.8469966E-01
         -3   -1    0    0    0  501 -0.00000000000E+00  0.00000000000E+00  0.65088454788E+03  0.65088455572E+03  0.10100000000E+00 0. -1.
          3   -1    0    0  501    0  0.00000000000E+00 -0.00000000000E+00 -0.20678476797E+04  0.20678476822E+04  0.10100000000E+00 0.  1.
     200001    2    1    2    0    0  0.48107068473E+03  0.46772412138E+03 -0.14546374934E+04  0.17483641557E+04  0.70043709655E+03 0.  0.
    5000001    2    3    3    0    0  0.23162752493E+03  0.98033529162E+02 -0.51567451551E+03  0.59487185064E+03  0.15713188597E+03 0.  0.
        -13    1    4    4    0    0  0.14461978270E+03 -0.17295544548E+02 -0.21151462908E+03  0.25681212372E+03  0.10566000000E+00 0. -1.
     200003    1    4    4    0    0  0.87007742230E+02  0.11532907371E+03 -0.30415988643E+03  0.33805972692E+03  0.30000000000E+02 0. -1.
     200000    1    3    3    0    0  0.24944315980E+03  0.36969059222E+03 -0.93896297793E+03  0.11534923051E+04  0.50000000000E+03 0.  1.
    -200001    1    1    2    0    0 -0.48107068473E+03 -0.46772412138E+03  0.37674361596E+02  0.97036808220E+03  0.70000000000E+03 0. -1.
<mgrwt>
<rscale>  0 0.23202846E+04</rscale>
<asrwt>0</asrwt>
<pdfrwt beam="1">  1        3 0.29540681E+00 0.23202846E+04</pdfrwt>
<pdfrwt beam="2">  1       -3 0.92983509E-01 0.23202846E+04</pdfrwt>
<totfact> 0.10100054E-01</totfact>
</mgrwt>
</event>
<event>
 8    1  0.1206249E-029  0.1510024E+04  0.7818608E-02  0.8877814E-01
          3   -1    0    0  501    0  0.00000000000E+00  0.00000000000E+00  0.12974141620E+04  0.12974141660E+04  0.10100000000E+00 0.  1.
         -3   -1    0    0    0  501 -0.00000000000E+00 -0.00000000000E+00 -0.43936860692E+03  0.43936861852E+03  0.10100000000E+00 0. -1.
     200001    2    1    2    0    0 -0.14068973926E+03 -0.24518367681E+03  0.43191928860E+03  0.86989626763E+03  0.70018326634E+03 0.  0.
    5000001    2    3    3    0    0  0.11306229237E+02 -0.30735138941E+02  0.15846051386E+02  0.16832097690E+03  0.16434224756E+03 0.  0.
        -13    1    4    4    0    0  0.70767651504E+02  0.27013207427E+02 -0.10130503653E+02  0.76422589220E+02  0.10566000000E+00 0. -1.
     200003    1    4    4    0    0 -0.59461422267E+02 -0.57748346367E+02  0.25976555039E+02  0.91898387678E+02  0.30000000000E+02 0. -1.
     200000    1    3    3    0    0 -0.15199596849E+03 -0.21444853787E+03  0.41607323721E+03  0.70157529073E+03  0.50000000000E+03 0.  1.
    -200001    1    1    2    0    0  0.14068973926E+03  0.24518367681E+03  0.42612626652E+03  0.86688651687E+03  0.70000000000E+03 0. -1.
<mgrwt>
<rscale>  0 0.15100239E+04</rscale>
<asrwt>0</asrwt>
<pdfrwt beam="1">  1        3 0.18534488E+00 0.15100239E+04</pdfrwt>
<pdfrwt beam="2">  1       -3 0.62766945E-01 0.15100239E+04</pdfrwt>
<totfact> 0.11485322E+00</totfact>
</mgrwt>
</event>
<event>
 8    1  0.1206249E-029  0.1459016E+04  0.7818608E-02  0.8912173E-01
          3   -1    0    0  501    0  0.00000000000E+00  0.00000000000E+00  0.93720358092E+03  0.93720358636E+03  0.10100000000E+00 0.  1.
         -3   -1    0    0    0  501 -0.00000000000E+00 -0.00000000000E+00 -0.56784052008E+03  0.56784052906E+03  0.10100000000E+00 0. -1.
     200001    2    1    2    0    0  0.15558932190E+03  0.12966677994E+03  0.15158698923E+03  0.74448647245E+03  0.70018567641E+03 0.  0.
    5000001    2    3    3    0    0 -0.25394363772E+01 -0.19112786154E+02  0.14240277521E+03  0.19930355520E+03  0.13809999781E+03 0.  0.
        -13    1    4    4    0    0 -0.22115969768E+02  0.16581632738E+01 -0.21116177377E+02  0.30623026226E+02  0.10566000000E+00 0. -1.
     200003    1    4    4    0    0  0.19576533391E+02 -0.20770949427E+02  0.16351895258E+03  0.16868052897E+03  0.30000000000E+02 0. -1.
     200000    1    3    3    0    0  0.15812875828E+03  0.14877956610E+03  0.91842140257E+01  0.54518291726E+03  0.50000000000E+03 0. -1.
    -200001    1    1    2    0    0 -0.15558932190E+03 -0.12966677994E+03  0.21777607161E+03  0.76055764297E+03  0.70000000000E+03 0. -1.
<mgrwt>
<rscale>  0 0.14590164E+04</rscale>
<asrwt>0</asrwt>
<pdfrwt beam="1">  1        3 0.13388623E+00 0.14590164E+04</pdfrwt>
<pdfrwt beam="2">  1       -3 0.81120076E-01 0.14590164E+04</pdfrwt>
<totfact> 0.15555413E+00</totfact>
</mgrwt>
</event>
<event>
 8    1  0.1206249E-029  0.1424558E+04  0.7818608E-02  0.8936231E-01
          3   -1    0    0  501    0  0.00000000000E+00  0.00000000000E+00  0.75292991774E+03  0.75292992451E+03  0.10100000000E+00 0. -1.
         -3   -1    0    0    0  501 -0.00000000000E+00 -0.00000000000E+00 -0.67382306980E+03  0.67382307737E+03  0.10100000000E+00 0.  1.
     200001    2    1    2    0    0 -0.78984666932E+02 -0.94365748044E+02  0.68514367982E+01  0.71235513203E+03  0.70161201524E+03 0.  0.
    5000001    2    3    3    0    0 -0.35763257723E+02 -0.22412386460E+02 -0.24919434835E+02  0.20436422193E+03  0.19839967567E+03 0.  0.
        -13    1    4    4    0    0 -0.10549489174E+03 -0.55282436055E+02 -0.46394213381E+01  0.11919251366E+03  0.10566000000E+00 0. -1.
     200003    1    4    4    0    0  0.69731634014E+02  0.32870049595E+02 -0.20280013497E+02  0.85171708272E+02  0.30000000000E+02 0. -1.
     200000    1    3    3    0    0 -0.43221409209E+02 -0.71953361584E+02  0.31770871633E+02  0.50799091010E+03  0.50000000000E+03 0.  1.
    -200001    1    1    2    0    0  0.78984666932E+02  0.94365748044E+02  0.72255411140E+02  0.71439786985E+03  0.70000000000E+03 0.  1.
<mgrwt>
<rscale>  0 0.14245583E+04</rscale>
<asrwt>0</asrwt>
<pdfrwt beam="1">  1        3 0.10756142E+00 0.14245583E+04</pdfrwt>
<pdfrwt beam="2">  1       -3 0.96260440E-01 0.14245583E+04</pdfrwt>
<totfact> 0.18005338E+00</totfact>
</mgrwt>
</event>
<event>
 8    1  0.1206249E-029  0.1459026E+04  0.7818608E-02  0.8912167E-01
         -3   -1    0    0    0  501 -0.00000000000E+00  0.00000000000E+00  0.10327891287E+04  0.10327891336E+04  0.10100000000E+00 0. -1.
          3   -1    0    0  501    0  0.00000000000E+00 -0.00000000000E+00 -0.51529286601E+03  0.51529287591E+03  0.10100000000E+00 0.  1.
     200001    2    1    2    0    0  0.59436159369E+02  0.19553947697E+03  0.24158295669E+03  0.76840483497E+03  0.70022519331E+03 0.  0.
    5000001    2    3    3    0    0  0.22127966548E+02  0.52639275966E+02  0.10620430567E+03  0.22975861726E+03  0.19557384126E+03 0.  0.
        -13    1    4    4    0    0 -0.29348551680E+02  0.96946020097E+02  0.13778522869E+01  0.10130043405E+03  0.10566000000E+00 0. -1.
     200003    1    4    4    0    0  0.51476518228E+02 -0.44306744131E+02  0.10482645338E+03  0.12845818321E+03  0.30000000000E+02 0. -1.
     200000    1    3    3    0    0  0.37308192821E+02  0.14290020100E+03  0.13537865102E+03  0.53864621771E+03  0.50000000000E+03 0. -1.
    -200001    1    1    2    0    0 -0.59436159369E+02 -0.19553947697E+03  0.27591330596E+03  0.77967717454E+03  0.70000000000E+03 0.  1.
<mgrwt>
<rscale>  0 0.14590255E+04</rscale>
<asrwt>0</asrwt>
<pdfrwt beam="1">  1        3 0.73613267E-01 0.14590255E+04</pdfrwt>
<pdfrwt beam="2">  1       -3 0.14754131E+00 0.14590255E+04</pdfrwt>
<totfact> 0.15025458E+00</totfact>
</mgrwt>
</event>
<event>
 8    1  0.1206249E-029  0.2701191E+04  0.7818608E-02  0.8334619E-01
         -3   -1    0    0    0  501 -0.00000000000E+00  0.00000000000E+00  0.72822407822E+03  0.72822408522E+03  0.10100000000E+00 0. -1.
          3   -1    0    0  501    0  0.00000000000E+00 -0.00000000000E+00 -0.25048726064E+04  0.25048726084E+04  0.10100000000E+00 0.  1.
     200001    2    1    2    0    0 -0.32802921902E+02  0.41293923720E+03 -0.21787850291E+04  0.23257331443E+04  0.70023968039E+03 0.  0.
    5000001    2    3    3    0    0 -0.79896745573E+02  0.12999756630E+03 -0.32929651191E+03  0.38849759003E+03  0.13860493320E+03 0.  0.
        -13    1    4    4    0    0 -0.73744157976E+02  0.14657096573E+03 -0.22450083995E+03  0.27806813398E+03  0.10566000000E+00 0. -1.
     200003    1    4    4    0    0 -0.61525875969E+01 -0.16573399435E+02 -0.10479567196E+03  0.11042945606E+03  0.30000000000E+02 0. -1.
     200000    1    3    3    0    0  0.47093823671E+02  0.28294167090E+03 -0.18494885172E+04  0.19372355542E+04  0.50000000000E+03 0.  1.
    -200001    1    1    2    0    0  0.32802921902E+02 -0.41293923720E+03  0.40213650095E+03  0.90736354936E+03  0.70000000000E+03 0. -1.
<mgrwt>
<rscale>  0 0.27011913E+04</rscale>
<asrwt>0</asrwt>
<pdfrwt beam="1">  1        3 0.35783894E+00 0.27011913E+04</pdfrwt>
<pdfrwt beam="2">  1       -3 0.10403201E+00 0.27011913E+04</pdfrwt>
<totfact> 0.34314479E-02</totfact>
</mgrwt>
</event>
<event>
 8    1  0.1206249E-029  0.1440797E+04  0.7818608E-02  0.8924806E-01
         -3   -1    0    0    0  501 -0.00000000000E+00  0.00000000000E+00  0.47914285229E+03  0.47914286294E+03  0.10100000000E+00 0. -1.
          3   -1    0    0  501    0  0.00000000000E+00 -0.00000000000E+00 -0.10831292585E+04  0.10831292632E+04  0.10100000000E+00 0.  1.
     200001    2    1    2    0    0 -0.86016995422E+02  0.93856595716E+02 -0.17485099237E+03  0.73138995192E+03  0.69867761391E+03 0.  0.
    5000001    2    3    3    0    0 -0.54861076578E+02 -0.35707580604E+02 -0.15481409659E+02  0.18995091476E+03  0.17764263829E+03 0.  0.
        -13    1    4    4    0    0 -0.69433406706E+02 -0.11574275300E+02  0.67369877755E+02  0.97435483313E+02  0.10566000000E+00 0. -1.
     200003    1    4    4    0    0  0.14572330128E+02 -0.24133305304E+02 -0.82851287415E+02  0.92515431451E+02  0.30000000000E+02 0. -1.
     200000    1    3    3    0    0 -0.31155918844E+02  0.12956417632E+03 -0.15936958271E+03  0.54143903716E+03  0.50000000000E+03 0. -1.
    -200001    1    1    2    0    0  0.86016995422E+02 -0.93856595716E+02 -0.42913541387E+03  0.83088217426E+03  0.70000000000E+03 0. -1.
<mgrwt>
<rscale>  0 0.14407965E+04</rscale>
<asrwt>0</asrwt>
<pdfrwt beam="1">  1        3 0.15473275E+00 0.14407965E+04</pdfrwt>
<pdfrwt beam="2">  1       -3 0.68448980E-01 0.14407965E+04</pdfrwt>
<totfact> 0.15625327E+00</totfact>
</mgrwt>
</event>
<event>
 8    1  0.1206249E-029  0.1430094E+04  0.7818608E-02  0.8932319E-01
          3   -1    0    0  501    0  0.00000000000E+00  0.00000000000E+00  0.19274024508E+04  0.19274024535E+04  0.10100000000E+00 0.  1.
         -3   -1    0    0    0  501 -0.00000000000E+00 -0.00000000000E+00 -0.26527514746E+03  0.26527516669E+03  0.10100000000E+00 0. -1.
     200001    2    1    2    0    0 -0.76710636765E+01  0.86892602417E+02  0.10118815449E+04  0.12332878579E+04  0.69963241056E+03 0.  0.
    5000001    2    3    3    0    0 -0.48248974122E+02 -0.72417410825E+02  0.28026621687E+03  0.33201806733E+03  0.15528876271E+03 0.  0.
        -13    1    4    4    0    0  0.42996367407E+02  0.10128386994E+02  0.36446552760E+02  0.57268090639E+02  0.10566000000E+00 0. -1.
     200003    1    4    4    0    0 -0.91245341528E+02 -0.82545797819E+02  0.24381966411E+03  0.27474997669E+03  0.30000000000E+02 0. -1.
     200000    1    3    3    0    0  0.40577910445E+02  0.15931001324E+03  0.73161532802E+03  0.90126979054E+03  0.50000000000E+03 0.  1.
    -200001    1    1    2    0    0  0.76710636765E+01 -0.86892602417E+02  0.65024575846E+03  0.95938976228E+03  0.70000000000E+03 0. -1.
<mgrwt>
<rscale>  0 0.14300937E+04</rscale>
<asrwt>0</asrwt>
<pdfrwt beam="1">  1        3 0.27534320E+00 0.14300937E+04</pdfrwt>
<pdfrwt beam="2">  1       -3 0.37896452E-01 0.14300937E+04</pdfrwt>
<totfact> 0.94138887E-01</totfact>
</mgrwt>
</event>
<event>
 8    1  0.1206249E-029  0.2241652E+04  0.7818608E-02  0.8501289E-01
         -3   -1    0    0    0  501 -0.00000000000E+00  0.00000000000E+00  0.53040641452E+03  0.53040642414E+03  0.10100000000E+00 0. -1.
          3   -1    0    0  501    0  0.00000000000E+00 -0.00000000000E+00 -0.23684688845E+04  0.23684688866E+04  0.10100000000E+00 0.  1.
     200001    2    1    2    0    0  0.57605738829E+03 -0.61525914811E+03 -0.61329177658E+03  0.12555709612E+04  0.69996121427E+03 0.  0.
    5000001    2    3    3    0    0  0.31828299486E+03 -0.19902087591E+03 -0.14071240559E+03  0.41115802962E+03  0.91310297151E+02 0.  0.
        -13    1    4    4    0    0  0.26644353623E+03 -0.15428479057E+03 -0.13499057787E+03  0.33618212606E+03  0.10566000000E+00 0. -1.
     200003    1    4    4    0    0  0.51839458634E+02 -0.44736085332E+02 -0.57218277149E+01  0.74975903560E+02  0.30000000000E+02 0.  1.
     200000    1    3    3    0    0  0.25777439342E+03 -0.41623827220E+03 -0.47257937099E+03  0.84441293159E+03  0.50000000000E+03 0. -1.
    -200001    1    1    2    0    0 -0.57605738829E+03  0.61525914811E+03 -0.12247706934E+04  0.16433043496E+04  0.70000000000E+03 0.  1.
<mgrwt>
<rscale>  0 0.22416522E+04</rscale>
<asrwt>0</asrwt>
<pdfrwt beam="1">  1        3 0.33835269E+00 0.22416522E+04</pdfrwt>
<pdfrwt beam="2">  1       -3 0.75772347E-01 0.22416522E+04</pdfrwt>
<totfact> 0.93828156E-02</totfact>
</mgrwt>
</event>
<event>
 8    1  0.1206249E-029  0.1445982E+04  0.7818608E-02  0.8921190E-01
          3   -1    0    0  501    0  0.00000000000E+00  0.00000000000E+00  0.38676776496E+03  0.38676777814E+03  0.10100000000E+00 0.  1.
         -3   -1    0    0    0  501 -0.00000000000E+00 -0.00000000000E+00 -0.13514992118E+04  0.13514992156E+04  0.10100000000E+00 0. -1.
     200001    2    1    2    0    0 -0.52677947673E+02  0.77180415341E+02 -0.29794309069E+03  0.76701085110E+03  0.70057389170E+03 0.  0.
    5000001    2    3    3    0    0  0.22339812048E+02  0.46813338317E+02 -0.17356185935E+02  0.18797817951E+03  0.17984438534E+03 0.  0.
        -13    1    4    4    0    0  0.58829467654E+02 -0.39801814363E+01  0.59968110965E+02  0.84100734869E+02  0.10566000000E+00 0. -1.
     200003    1    4    4    0    0 -0.36489655607E+02  0.50793519753E+02 -0.77324296900E+02  0.10387744465E+03  0.30000000000E+02 0. -1.
     200000    1    3    3    0    0 -0.75017759721E+02  0.30367077024E+02 -0.28058690475E+03  0.57903267158E+03  0.50000000000E+03 0.  1.
    -200001    1    1    2    0    0  0.52677947673E+02 -0.77180415341E+02 -0.66678835617E+03  0.97125614263E+03  0.70000000000E+03 0. -1.
<mgrwt>
<rscale>  0 0.14459825E+04</rscale>
<asrwt>0</asrwt>
<pdfrwt beam="1">  1        3 0.55252540E-01 0.14459825E+04</pdfrwt>
<pdfrwt beam="2">  1       -3 0.19307132E+00 0.14459825E+04</pdfrwt>
<totfact> 0.13372958E+00</totfact>
</mgrwt>
</event>
<event>
 8    1  0.1206249E-029  0.2008957E+04  0.7818608E-02  0.8602444E-01
          3   -1    0    0  501    0  0.00000000000E+00  0.00000000000E+00  0.11192552430E+04  0.11192552475E+04  0.10100000000E+00 0. -1.
         -3   -1    0    0    0  501 -0.00000000000E+00 -0.00000000000E+00 -0.90147210188E+03  0.90147210754E+03  0.10100000000E+00 0.  1.
     200001    2    1    2    0    0  0.12188036963E+03  0.20303365559E+03 -0.57543717399E+03  0.93662590314E+03  0.70004474959E+03 0.  0.
    5000001    2    3    3    0    0  0.61557633608E+02  0.64005345211E+02 -0.23439629716E+03  0.31270556910E+03  0.18696823888E+03 0.  0.
        -13    1    4    4    0    0  0.12042183812E+03  0.18270251058E+02 -0.17302518572E+03  0.21159618907E+03  0.10566000000E+00 0. -1.
     200003    1    4    4    0    0 -0.58864204515E+02  0.45735094153E+02 -0.61371111439E+02  0.10110938003E+03  0.30000000000E+02 0. -1.
     200000    1    3    3    0    0  0.60322736019E+02  0.13902831038E+03 -0.34104087683E+03  0.62392033405E+03  0.50000000000E+03 0.  1.
    -200001    1    1    2    0    0 -0.12188036963E+03 -0.20303365559E+03  0.79322031509E+03  0.10841014519E+04  0.70000000000E+03 0. -1.
<mgrwt>
<rscale>  0 0.20089573E+04</rscale>
<asrwt>0</asrwt>
<pdfrwt beam="1">  1        3 0.15989361E+00 0.20089573E+04</pdfrwt>
<pdfrwt beam="2">  1       -3 0.12878173E+00 0.20089573E+04</pdfrwt>
<totfact> 0.31787027E-01</totfact>
</mgrwt>
</event>
<event>
 8    1  0.1206249E-029  0.1464486E+04  0.7818608E-02  0.8908419E-01
          3   -1    0    0  501    0  0.00000000000E+00  0.00000000000E+00  0.23529402224E+04  0.23529402245E+04  0.10100000000E+00 0.  1.
         -3   -1    0    0    0  501 -0.00000000000E+00 -0.00000000000E+00 -0.22787651328E+03  0.22787653566E+03  0.10100000000E+00 0. -1.
     200001    2    1    2    0    0  0.16595518023E+03  0.22366534949E+02  0.13104991951E+04  0.14938224036E+04  0.69717705753E+03 0.  0.
    5000001    2    3    3    0    0  0.19727982385E+03 -0.30170447362E+01  0.33801913169E+03  0.39959069457E+03  0.80544139102E+02 0.  0.
        -13    1    4    4    0    0 -0.21901349104E+01  0.73088034013E+01  0.32211999379E+02  0.33103464564E+02  0.10566000000E+00 0. -1.
     200003    1    4    4    0    0  0.19946995876E+03 -0.10325848138E+02  0.30580713231E+03  0.36648723001E+03  0.30000000000E+02 0. -1.
     200000    1    3    3    0    0 -0.31324643618E+02  0.25383579686E+02  0.97248006338E+03  0.10942317090E+04  0.50000000000E+03 0.  1.
    -200001    1    1    2    0    0 -0.16595518023E+03 -0.22366534949E+02  0.81456451402E+03  0.10869943566E+04  0.70000000000E+03 0. -1.
<mgrwt>
<rscale>  0 0.14644860E+04</rscale>
<asrwt>0</asrwt>
<pdfrwt beam="1">  1        3 0.33613431E+00 0.14644860E+04</pdfrwt>
<pdfrwt beam="2">  1       -3 0.32553790E-01 0.14644860E+04</pdfrwt>
<totfact> 0.58498064E-01</totfact>
</mgrwt>
</event>
<event>
 8    1  0.1206249E-029  0.1609714E+04  0.7818608E-02  0.8814602E-01
         -3   -1    0    0    0  501 -0.00000000000E+00  0.00000000000E+00  0.21677100497E+04  0.21677100521E+04  0.10100000000E+00 0. -1.
          3   -1    0    0  501    0  0.00000000000E+00 -0.00000000000E+00 -0.29883841747E+03  0.29883843454E+03  0.10100000000E+00 0.  1.
     200001    2    1    2    0    0  0.19725730158E+02 -0.80065213082E+02  0.15288421633E+04  0.16839760730E+04  0.70115441339E+03 0.  0.
    5000001    2    3    3    0    0  0.10697825469E+03  0.41710602997E+02  0.39060509418E+03  0.43176763273E+03  0.14375961773E+03 0.  0.
        -13    1    4    4    0    0  0.13490107408E+03  0.17749522187E+02  0.30230908242E+03  0.33151792983E+03  0.10566000000E+00 0. -1.
     200003    1    4    4    0    0 -0.27922819388E+02  0.23961080810E+02  0.88296011767E+02  0.10024970289E+03  0.30000000000E+02 0. -1.
     200000    1    3    3    0    0 -0.87252524530E+02 -0.12177581608E+03  0.11382370691E+04  0.12522084403E+04  0.50000000000E+03 0. -1.
    -200001    1    1    2    0    0 -0.19725730158E+02  0.80065213082E+02  0.34002946897E+03  0.78257241361E+03  0.70000000000E+03 0.  1.
<mgrwt>
<rscale>  0 0.16097143E+04</rscale>
<asrwt>0</asrwt>
<pdfrwt beam="1">  1        3 0.42691204E-01 0.16097143E+04</pdfrwt>
<pdfrwt beam="2">  1       -3 0.30967287E+00 0.16097143E+04</pdfrwt>
<totfact> 0.46392962E-01</totfact>
</mgrwt>
</event>
<event>
 8    1  0.1206249E-029  0.1757119E+04  0.7818608E-02  0.8729442E-01
          3   -1    0    0  501    0  0.00000000000E+00  0.00000000000E+00  0.78710870983E+03  0.78710871631E+03  0.10100000000E+00 0.  1.
         -3   -1    0    0    0  501 -0.00000000000E+00 -0.00000000000E+00 -0.98063535622E+03  0.98063536142E+03  0.10100000000E+00 0. -1.
     200001    2    1    2    0    0 -0.20970486640E+03 -0.89288137315E+02  0.38617119523E+03  0.83072855489E+03  0.69930911436E+03 0.  0.
    5000001    2    3    3    0    0 -0.80362742020E+02  0.57640219704E+01  0.19373133781E+03  0.27144562394E+03  0.17221934053E+03 0.  0.
        -13    1    4    4    0    0  0.61015763235E+01 -0.55742904355E+02  0.97021297709E+01  0.56909077533E+02  0.10566000000E+00 0. -1.
     200003    1    4    4    0    0 -0.86464318344E+02  0.61506926325E+02  0.18402920804E+03  0.21453654641E+03  0.30000000000E+02 0. -1.
     200000    1    3    3    0    0 -0.12934212438E+03 -0.95052159285E+02  0.19243985742E+03  0.55928293095E+03  0.50000000000E+03 0.  1.
    -200001    1    1    2    0    0  0.20970486640E+03  0.89288137315E+02 -0.57969784163E+03  0.93701552284E+03  0.70000000000E+03 0. -1.
<mgrwt>
<rscale>  0 0.17571188E+04</rscale>
<asrwt>0</asrwt>
<pdfrwt beam="1">  1        3 0.11244410E+00 0.17571188E+04</pdfrwt>
<pdfrwt beam="2">  1       -3 0.14009077E+00 0.17571188E+04</pdfrwt>
<totfact> 0.63584536E-01</totfact>
</mgrwt>
</event>
<event>
 8    1  0.1206249E-029  0.1876658E+04  0.7818608E-02  0.8666563E-01
         -3   -1    0    0    0  501 -0.00000000000E+00  0.00000000000E+00  0.16223297545E+04  0.16223297576E+04  0.10100000000E+00 0. -1.
          3   -1    0    0  501    0  0.00000000000E+00 -0.00000000000E+00 -0.54271432662E+03  0.54271433601E+03  0.10100000000E+00 0.  1.
     200001    2    1    2    0    0  0.16455620593E+03  0.68642018055E+02  0.12307770294E+04  0.14270465995E+04  0.69989958541E+03 0.  0.
    5000001    2    3    3    0    0  0.11548025759E+03 -0.49063177890E+02  0.44870919219E+03  0.49008712132E+03  0.15199526970E+03 0.  0.
        -13    1    4    4    0    0  0.49085418776E+02 -0.51812907202E+02  0.39000390272E+03  0.39648078263E+03  0.10566000000E+00 0. -1.
     200003    1    4    4    0    0  0.66394838810E+02  0.27497293121E+01  0.58705289465E+02  0.93606338691E+02  0.30000000000E+02 0. -1.
     200000    1    3    3    0    0  0.49075948345E+02  0.11770519594E+03  0.78206783718E+03  0.93695947821E+03  0.50000000000E+03 0. -1.
    -200001    1    1    2    0    0 -0.16455620593E+03 -0.68642018055E+02 -0.15116160150E+03  0.73799749412E+03  0.70000000000E+03 0.  1.
<mgrwt>
<rscale>  0 0.18766583E+04</rscale>
<asrwt>0</asrwt>
<pdfrwt beam="1">  1        3 0.77530618E-01 0.18766583E+04</pdfrwt>
<pdfrwt beam="2">  1       -3 0.23176140E+00 0.18766583E+04</pdfrwt>
<totfact> 0.36062871E-01</totfact>
</mgrwt>
</event>
<event>
 8    1  0.1206249E-029  0.1646231E+04  0.7818608E-02  0.8792639E-01
          3   -1    0    0  501    0  0.00000000000E+00  0.00000000000E+00  0.49589979909E+03  0.49589980938E+03  0.10100000000E+00 0.  1.
         -3   -1    0    0    0  501 -0.00000000000E+00 -0.00000000000E+00 -0.13662424405E+04  0.13662424442E+04  0.10100000000E+00 0. -1.
     200001    2    1    2    0    0  0.37020747205E+03  0.12911947611E+03 -0.22806497174E+03  0.83440395208E+03  0.70035056396E+03 0.  0.
    5000001    2    3    3    0    0  0.21996022326E+03  0.36256937221E+02 -0.41272426737E+02  0.27218589672E+03  0.15061435473E+03 0.  0.
        -13    1    4    4    0    0  0.40756339663E+02  0.10031356415E+02  0.51547131953E+02  0.66474245470E+02  0.10566000000E+00 0. -1.
     200003    1    4    4    0    0  0.17920388360E+03  0.26225580806E+02 -0.92819558690E+02  0.20571165125E+03  0.30000000000E+02 0. -1.
     200000    1    3    3    0    0  0.15024724879E+03  0.92862538889E+02 -0.18679254500E+03  0.56221805535E+03  0.50000000000E+03 0. -1.
    -200001    1    1    2    0    0 -0.37020747205E+03 -0.12911947611E+03 -0.64227766967E+03  0.10277383015E+04  0.70000000000E+03 0. -1.
<mgrwt>
<rscale>  0 0.16462313E+04</rscale>
<asrwt>0</asrwt>
<pdfrwt beam="1">  1        3 0.70842830E-01 0.16462313E+04</pdfrwt>
<pdfrwt beam="2">  1       -3 0.19517749E+00 0.16462313E+04</pdfrwt>
<totfact> 0.75214783E-01</totfact>
</mgrwt>
</event>
<event>
 8    1  0.1206249E-029  0.1549149E+04  0.7818608E-02  0.8852411E-01
          3   -1    0    0  501    0  0.00000000000E+00  0.00000000000E+00  0.17355168087E+04  0.17355168117E+04  0.10100000000E+00 0.  1.
         -3   -1    0    0    0  501 -0.00000000000E+00 -0.00000000000E+00 -0.34569866238E+03  0.34569867714E+03  0.10100000000E+00 0. -1.
     200001    2    1    2    0    0 -0.13063560835E+03  0.12854797649E+03  0.32320510228E+03  0.79231920508E+03  0.69979849969E+03 0.  0.
    5000001    2    3    3    0    0 -0.38946961800E+02  0.49374319388E+01  0.75030653318E+01  0.18129207740E+03  0.17683121124E+03 0.  0.
        -13    1    4    4    0    0 -0.70312387882E+02  0.80343084394E+01 -0.65418967862E+02  0.96374449529E+02  0.10566000000E+00 0. -1.
     200003    1    4    4    0    0  0.31365426082E+02 -0.30968765006E+01  0.72922033194E+02  0.84917627866E+02  0.30000000000E+02 0. -1.
     200000    1    3    3    0    0 -0.91688646545E+02  0.12361054456E+03  0.31570203695E+03  0.61102712768E+03  0.50000000000E+03 0. -1.
    -200001    1    1    2    0    0  0.13063560835E+03 -0.12854797649E+03  0.10666130441E+04  0.12888962837E+04  0.70000000000E+03 0.  1.
<mgrwt>
<rscale>  0 0.15491493E+04</rscale>
<asrwt>0</asrwt>
<pdfrwt beam="1">  1        3 0.24793098E+00 0.15491493E+04</pdfrwt>
<pdfrwt beam="2">  1       -3 0.49385524E-01 0.15491493E+04</pdfrwt>
<totfact> 0.78453245E-01</totfact>
</mgrwt>
</event>
<event>
 8    1  0.1206249E-029  0.1478010E+04  0.7818608E-02  0.8899209E-01
          3   -1    0    0  501    0  0.00000000000E+00  0.00000000000E+00  0.64000933798E+03  0.64000934595E+03  0.10100000000E+00 0. -1.
         -3   -1    0    0    0  501 -0.00000000000E+00 -0.00000000000E+00 -0.85331278816E+03  0.85331279414E+03  0.10100000000E+00 0.  1.
     200001    2    1    2    0    0  0.11400100277E+03  0.24485459300E+01  0.10645504228E+03  0.71534545824E+03  0.69812908877E+03 0.  0.
    5000001    2    3    3    0    0 -0.54859364189E+02 -0.62951276316E+02  0.14396809021E+02  0.17565510388E+03  0.15386693725E+03 0.  0.
        -13    1    4    4    0    0  0.34936943548E+02 -0.53492694186E+02  0.42151868194E+02  0.76543121912E+02  0.10566000000E+00 0. -1.
     200003    1    4    4    0    0 -0.89796307738E+02 -0.94585821301E+01 -0.27755059172E+02  0.99111981964E+02  0.30000000000E+02 0. -1.
     200000    1    3    3    0    0  0.16886036696E+03  0.65399822246E+02  0.92058233254E+02  0.53969035436E+03  0.50000000000E+03 0. -1.
    -200001    1    1    2    0    0 -0.11400100277E+03 -0.24485459300E+01 -0.31975849245E+03  0.77797668185E+03  0.70000000000E+03 0.  1.
<mgrwt>
<rscale>  0 0.14780097E+04</rscale>
<asrwt>0</asrwt>
<pdfrwt beam="1">  1        3 0.91429907E-01 0.14780097E+04</pdfrwt>
<pdfrwt beam="2">  1       -3 0.12190183E+00 0.14780097E+04</pdfrwt>
<totfact> 0.14927594E+00</totfact>
</mgrwt>
</event>
<event>
 8    1  0.1206249E-029  0.1533906E+04  0.7818608E-02  0.8862214E-01
         -3   -1    0    0    0  501 -0.00000000000E+00  0.00000000000E+00  0.36334858002E+04  0.36334858017E+04  0.10100000000E+00 0. -1.
          3   -1    0    0  501    0  0.00000000000E+00 -0.00000000000E+00 -0.16188771379E+03  0.16188774530E+03  0.10100000000E+00 0.  1.
     200001    2    1    2    0    0  0.68628639399E+02  0.21126159833E+03  0.11897052085E+04  0.13982134648E+04  0.70018644439E+03 0.  0.
    5000001    2    3    3    0    0  0.56754537942E+02 -0.61324961003E+02  0.29391914269E+03  0.33666878730E+03  0.14133499737E+03 0.  0.
        -13    1    4    4    0    0  0.21283546779E+02 -0.45036728071E+02  0.28153252987E+03  0.28590535633E+03  0.10566000000E+00 0. -1.
     200003    1    4    4    0    0  0.35470991163E+02 -0.16288232932E+02  0.12386612816E+02  0.50763430963E+02  0.30000000000E+02 0. -1.
     200000    1    3    3    0    0  0.11874101457E+02  0.27258655933E+03  0.89578606582E+03  0.10615446775E+04  0.50000000000E+03 0.  1.
    -200001    1    1    2    0    0 -0.68628639399E+02 -0.21126159833E+03  0.22818928779E+04  0.23971600822E+04  0.70000000000E+03 0. -1.
<mgrwt>
<rscale>  0 0.15339058E+04</rscale>
<asrwt>0</asrwt>
<pdfrwt beam="1">  1        3 0.23126821E-01 0.15339058E+04</pdfrwt>
<pdfrwt beam="2">  1       -3 0.51906934E+00 0.15339058E+04</pdfrwt>
<totfact> 0.10936632E-01</totfact>
</mgrwt>
</event>
<event>
 8    1  0.1206249E-029  0.1668248E+04  0.7818608E-02  0.8779684E-01
          3   -1    0    0  501    0  0.00000000000E+00  0.00000000000E+00  0.11920335273E+04  0.11920335316E+04  0.10100000000E+00 0.  1.
         -3   -1    0    0    0  501 -0.00000000000E+00 -0.00000000000E+00 -0.58367734521E+03  0.58367735395E+03  0.10100000000E+00 0. -1.
     200001    2    1    2    0    0 -0.41517921194E+03 -0.16032385045E+03  0.21231356971E+03  0.85651163297E+03  0.70032678834E+03 0.  0.
    5000001    2    3    3    0    0 -0.16016543875E+03 -0.10679641938E+03  0.12350524120E+03  0.28573660758E+03  0.17127002465E+03 0.  0.
        -13    1    4    4    0    0 -0.10021964749E+03 -0.75553593883E+02 -0.17295394825E+02  0.12669437690E+03  0.10566000000E+00 0. -1.
     200003    1    4    4    0    0 -0.59945791255E+02 -0.31242825495E+02  0.14080063602E+03  0.15904223067E+03  0.30000000000E+02 0. -1.
     200000    1    3    3    0    0 -0.25501377320E+03 -0.53527431076E+02  0.88808328516E+02  0.57077502539E+03  0.50000000000E+03 0. -1.
    -200001    1    1    2    0    0  0.41517921194E+03  0.16032385045E+03  0.39604261235E+03  0.91919925253E+03  0.70000000000E+03 0. -1.
<mgrwt>
<rscale>  0 0.16682482E+04</rscale>
<asrwt>0</asrwt>
<pdfrwt beam="1">  1        3 0.17029051E+00 0.16682482E+04</pdfrwt>
<pdfrwt beam="2">  1       -3 0.83382478E-01 0.16682482E+04</pdfrwt>
<totfact> 0.76985396E-01</totfact>
</mgrwt>
</event>
<event>
 8    1  0.1206249E-029  0.1551815E+04  0.7818608E-02  0.8850709E-01
         -3   -1    0    0    0  501 -0.00000000000E+00  0.00000000000E+00  0.88943020479E+03  0.88943021052E+03  0.10100000000E+00 0. -1.
          3   -1    0    0  501    0  0.00000000000E+00 -0.00000000000E+00 -0.67687434959E+03  0.67687435713E+03  0.10100000000E+00 0.  1.
     200001    2    1    2    0    0  0.10840378567E+03  0.11765564633E+03 -0.19068030843E+03  0.74277944022E+03  0.69983432677E+03 0.  0.
    5000001    2    3    3    0    0 -0.29003415942E+01  0.25235456899E+02 -0.13530708534E+03  0.21933288708E+03  0.17074445158E+03 0.  0.
        -13    1    4    4    0    0 -0.66112045888E+02 -0.38460361204E+02 -0.46174866891E+02  0.89342775264E+02  0.10566000000E+00 0. -1.
     200003    1    4    4    0    0  0.63211704294E+02  0.63695818104E+02 -0.89132218451E+02  0.12999011181E+03  0.30000000000E+02 0. -1.
     200000    1    3    3    0    0  0.11130412726E+03  0.92420189432E+02 -0.55373223088E+02  0.52344655314E+03  0.50000000000E+03 0. -1.
    -200001    1    1    2    0    0 -0.10840378567E+03 -0.11765564633E+03  0.40323616362E+03  0.82352512743E+03  0.70000000000E+03 0. -1.
<mgrwt>
<rscale>  0 0.15518151E+04</rscale>
<asrwt>0</asrwt>
<pdfrwt beam="1">  1        3 0.96696337E-01 0.15518151E+04</pdfrwt>
<pdfrwt beam="2">  1       -3 0.12706146E+00 0.15518151E+04</pdfrwt>
<totfact> 0.11781506E+00</totfact>
</mgrwt>
</event>
<event>
 8    1  0.1206249E-029  0.2490714E+04  0.7818608E-02  0.8406301E-01
         -3   -1    0    0    0  501 -0.00000000000E+00  0.00000000000E+00  0.13988536701E+04  0.13988536738E+04  0.10100000000E+00 0. -1.
          3   -1    0    0  501    0  0.00000000000E+00 -0.00000000000E+00 -0.11087033085E+04  0.11087033131E+04  0.10100000000E+00 0.  1.
     200001    2    1    2    0    0  0.59387784046E+03 -0.33133929621E+03  0.92379050503E+03  0.13439520496E+04  0.70024395458E+03 0.  0.
    5000001    2    3    3    0    0  0.14142034435E+03 -0.92090417549E+02  0.27296344923E+03  0.37672215541E+03  0.19730732109E+03 0.  0.
        -13    1    4    4    0    0 -0.60767835282E+00 -0.28278767643E+02 -0.25929468482E+02  0.38371949028E+02  0.10566000000E+00 0. -1.
     200003    1    4    4    0    0  0.14202802270E+03 -0.63811649906E+02  0.29889291771E+03  0.33835020638E+03  0.30000000000E+02 0. -1.
     200000    1    3    3    0    0  0.45245749611E+03 -0.23924887866E+03  0.65082705580E+03  0.96722989423E+03  0.50000000000E+03 0. -1.
    -200001    1    1    2    0    0 -0.59387784046E+03  0.33133929621E+03 -0.63364014345E+03  0.11636049373E+04  0.70000000000E+03 0.  1.
<mgrwt>
<rscale>  0 0.24907137E+04</rscale>
<asrwt>0</asrwt>
<pdfrwt beam="1">  1        3 0.15838619E+00 0.24907137E+04</pdfrwt>
<pdfrwt beam="2">  1       -3 0.19983624E+00 0.24907137E+04</pdfrwt>
<totfact> 0.96672252E-02</totfact>
</mgrwt>
</event>
<event>
 8    1  0.1206249E-029  0.1753340E+04  0.7818608E-02  0.8731514E-01
          3   -1    0    0  501    0  0.00000000000E+00  0.00000000000E+00  0.33133928164E+03  0.33133929703E+03  0.10100000000E+00 0.  1.
         -3   -1    0    0    0  501 -0.00000000000E+00 -0.00000000000E+00 -0.23195262228E+04  0.23195262250E+04  0.10100000000E+00 0. -1.
     200001    2    1    2    0    0 -0.46936110219E+03  0.42984271218E+02 -0.63354133971E+03  0.10548667133E+04  0.69944382331E+03 0.  0.
    5000001    2    3    3    0    0 -0.17780467467E+03  0.56306529769E+02 -0.24485324515E+03  0.35754249330E+03  0.18193019328E+03 0.  0.
        -13    1    4    4    0    0 -0.36451745377E+02  0.57347038561E+02 -0.19200856536E+03  0.20367796373E+03  0.10566000000E+00 0. -1.
     200003    1    4    4    0    0 -0.14135292929E+03 -0.10405087925E+01 -0.52844679787E+02  0.15386452957E+03  0.30000000000E+02 0. -1.
     200000    1    3    3    0    0 -0.29155642753E+03 -0.13322258551E+02 -0.38868809455E+03  0.69732422004E+03  0.50000000000E+03 0.  1.
    -200001    1    1    2    0    0  0.46936110219E+03 -0.42984271218E+02 -0.13546456015E+04  0.15959988087E+04  0.70000000000E+03 0. -1.
<mgrwt>
<rscale>  0 0.17533399E+04</rscale>
<asrwt>0</asrwt>
<pdfrwt beam="1">  1        3 0.47334186E-01 0.17533399E+04</pdfrwt>
<pdfrwt beam="2">  1       -3 0.33136088E+00 0.17533399E+04</pdfrwt>
<totfact> 0.28200089E-01</totfact>
</mgrwt>
</event>
<event>
 8    1  0.1206249E-029  0.1754045E+04  0.7818608E-02  0.8731127E-01
         -3   -1    0    0    0  501 -0.00000000000E+00  0.00000000000E+00  0.29299853470E+04  0.29299853488E+04  0.10100000000E+00 0. -1.
          3   -1    0    0  501    0  0.00000000000E+00 -0.00000000000E+00 -0.26251619901E+03  0.26251621844E+03  0.10100000000E+00 0.  1.
     200001    2    1    2    0    0 -0.49568249448E+03 -0.17669317344E+03  0.13956764499E+04  0.16483583485E+04  0.70160592885E+03 0.  0.
    5000001    2    3    3    0    0 -0.14966507668E+03 -0.29592578970E+02  0.49486944838E+03  0.55162688989E+03  0.19005551506E+03 0.  0.
        -13    1    4    4    0    0  0.25547665388E+02  0.33154396343E+02  0.34795754971E+02  0.54430257502E+02  0.10566000000E+00 0. -1.
     200003    1    4    4    0    0 -0.17521274207E+03 -0.62746975313E+02  0.46007369340E+03  0.49719663239E+03  0.30000000000E+02 0. -1.
     200000    1    3    3    0    0 -0.34601741780E+03 -0.14710059447E+03  0.90080700151E+03  0.10967314586E+04  0.50000000000E+03 0. -1.
    -200001    1    1    2    0    0  0.49568249448E+03  0.17669317344E+03  0.12717926981E+04  0.15441432187E+04  0.70000000000E+03 0.  1.
<mgrwt>
<rscale>  0 0.17540452E+04</rscale>
<asrwt>0</asrwt>
<pdfrwt beam="1">  1        3 0.37502314E-01 0.17540452E+04</pdfrwt>
<pdfrwt beam="2">  1       -3 0.41856935E+00 0.17540452E+04</pdfrwt>
<totfact> 0.14804248E-01</totfact>
</mgrwt>
</event>
<event>
 8    1  0.1206249E-029  0.1575262E+04  0.7818608E-02  0.8835891E-01
          3   -1    0    0  501    0  0.00000000000E+00  0.00000000000E+00  0.68148182035E+03  0.68148182784E+03  0.10100000000E+00 0.  1.
         -3   -1    0    0    0  501 -0.00000000000E+00 -0.00000000000E+00 -0.91031453593E+03  0.91031454153E+03  0.10100000000E+00 0. -1.
     200001    2    1    2    0    0  0.14356318271E+03  0.26703920624E+03  0.91034610723E+02  0.76461112317E+03  0.69600470130E+03 0.  0.
    5000001    2    3    3    0    0  0.50994177877E+02 -0.45149125807E+01  0.20799338293E+02  0.18388429100E+03  0.17538537394E+03 0.  0.
        -13    1    4    4    0    0 -0.16972733468E+02  0.37989030165E+02  0.72714943032E+02  0.83777766731E+02  0.10566000000E+00 0. -1.
     200003    1    4    4    0    0  0.67966911346E+02 -0.42503942746E+02 -0.51915604738E+02  0.10010652427E+03  0.30000000000E+02 0. -1.
     200000    1    3    3    0    0  0.92569004831E+02  0.27155411882E+03  0.70235272430E+02  0.58072683216E+03  0.50000000000E+03 0.  1.
    -200001    1    1    2    0    0 -0.14356318271E+03 -0.26703920624E+03 -0.31986732630E+03  0.82718524620E+03  0.70000000000E+03 0. -1.
<mgrwt>
<rscale>  0 0.15752623E+04</rscale>
<asrwt>0</asrwt>
<pdfrwt beam="1">  1        3 0.97354547E-01 0.15752623E+04</pdfrwt>
<pdfrwt beam="2">  1       -3 0.13004493E+00 0.15752623E+04</pdfrwt>
<totfact> 0.10928609E+00</totfact>
</mgrwt>
</event>
<event>
 8    1  0.1206249E-029  0.1603888E+04  0.7818608E-02  0.8818163E-01
         -3   -1    0    0    0  501 -0.00000000000E+00  0.00000000000E+00  0.74959145841E+03  0.74959146521E+03  0.10100000000E+00 0.  1.
          3   -1    0    0  501    0  0.00000000000E+00 -0.00000000000E+00 -0.85795237780E+03  0.85795238375E+03  0.10100000000E+00 0. -1.
     200001    2    1    2    0    0  0.30636252681E+03  0.10391195543E+03  0.16703604550E+03  0.78870370547E+03  0.69964048069E+03 0.  0.
    5000001    2    3    3    0    0  0.16143547339E+03 -0.45747622126E+02  0.14713975181E+03  0.24667261553E+03  0.10508575397E+03 0.  0.
        -13    1    4    4    0    0  0.16061650171E+03 -0.32708961964E+02  0.11122538061E+03  0.19808743844E+03  0.10566000000E+00 0. -1.
     200003    1    4    4    0    0  0.81897168667E+00 -0.13038660162E+02  0.35914371202E+02  0.48585177084E+02  0.30000000000E+02 0. -1.
     200000    1    3    3    0    0  0.14492705342E+03  0.14965957756E+03  0.19896293691E+02  0.54203108995E+03  0.50000000000E+03 0.  1.
    -200001    1    1    2    0    0 -0.30636252681E+03 -0.10391195543E+03 -0.27539696489E+03  0.81884014349E+03  0.70000000000E+03 0. -1.
<mgrwt>
<rscale>  0 0.16038875E+04</rscale>
<asrwt>0</asrwt>
<pdfrwt beam="1">  1        3 0.12256463E+00 0.16038875E+04</pdfrwt>
<pdfrwt beam="2">  1       -3 0.10708450E+00 0.16038875E+04</pdfrwt>
<totfact> 0.10099807E+00</totfact>
</mgrwt>
</event>
<event>
 8    1  0.1206249E-029  0.1538024E+04  0.7818608E-02  0.8859554E-01
          3   -1    0    0  501    0  0.00000000000E+00  0.00000000000E+00  0.56845436753E+03  0.56845437650E+03  0.10100000000E+00 0.  1.
         -3   -1    0    0    0  501 -0.00000000000E+00 -0.00000000000E+00 -0.10403285880E+04  0.10403285929E+04  0.10100000000E+00 0. -1.
     200001    2    1    2    0    0 -0.26567196810E+03  0.12141786441E+03 -0.36704399781E+03  0.84307201351E+03  0.70051783074E+03 0.  0.
    5000001    2    3    3    0    0 -0.56576000899E+02  0.40485549403E+02 -0.13261158493E+03  0.24706050412E+03  0.19650225609E+03 0.  0.
        -13    1    4    4    0    0  0.23860171034E+02  0.36896214311E+02  0.36663617800E+02  0.57226483611E+02  0.10566000000E+00 0. -1.
     200003    1    4    4    0    0 -0.80436171933E+02  0.35893350924E+01 -0.16927520273E+03  0.18983402051E+03  0.30000000000E+02 0. -1.
     200000    1    3    3    0    0 -0.20909596720E+03  0.80932315009E+02 -0.23443241288E+03  0.59601150939E+03  0.50000000000E+03 0. -1.
    -200001    1    1    2    0    0  0.26567196810E+03 -0.12141786441E+03 -0.10483022268E+03  0.76571095592E+03  0.70000000000E+03 0. -1.
<mgrwt>
<rscale>  0 0.15380238E+04</rscale>
<asrwt>0</asrwt>
<pdfrwt beam="1">  1        3 0.81207768E-01 0.15380238E+04</pdfrwt>
<pdfrwt beam="2">  1       -3 0.14861837E+00 0.15380238E+04</pdfrwt>
<totfact> 0.11796540E+00</totfact>
</mgrwt>
</event>
<event>
 8    1  0.1206249E-029  0.1700971E+04  0.7818608E-02  0.8760811E-01
          3   -1    0    0  501    0  0.00000000000E+00  0.00000000000E+00  0.69426507173E+03  0.69426507908E+03  0.10100000000E+00 0.  1.
         -3   -1    0    0    0  501 -0.00000000000E+00 -0.00000000000E+00 -0.10418579858E+04  0.10418579907E+04  0.10100000000E+00 0. -1.
     200001    2    1    2    0    0  0.58116238167E+02 -0.47069646613E+03 -0.26863724487E+03  0.88690775079E+03  0.69964757465E+03 0.  0.
    5000001    2    3    3    0    0  0.52956668363E+02 -0.80047056374E+02 -0.89959305254E+02  0.22769656414E+03  0.18585238432E+03 0.  0.
        -13    1    4    4    0    0  0.16373918804E+02 -0.83510735777E+02 -0.13674891519E+03  0.16106652407E+03  0.10566000000E+00 0. -1.
     200003    1    4    4    0    0  0.36582749559E+02  0.34636794033E+01  0.46789609939E+02  0.66630040061E+02  0.30000000000E+02 0. -1.
     200000    1    3    3    0    0  0.51595698040E+01 -0.39064940975E+03 -0.17867793961E+03  0.65921118665E+03  0.50000000000E+03 0. -1.
    -200001    1    1    2    0    0 -0.58116238167E+02  0.47069646613E+03 -0.78955669245E+02  0.84921531903E+03  0.70000000000E+03 0.  1.
<mgrwt>
<rscale>  0 0.17009710E+04</rscale>
<asrwt>0</asrwt>
<pdfrwt beam="1">  1        3 0.99180726E-01 0.17009710E+04</pdfrwt>
<pdfrwt beam="2">  1       -3 0.14883685E+00 0.17009710E+04</pdfrwt>
<totfact> 0.73562638E-01</totfact>
</mgrwt>
</event>
<event>
 8    1  0.1206249E-029  0.3344174E+04  0.7818608E-02  0.8151745E-01
          3   -1    0    0  501    0  0.00000000000E+00  0.00000000000E+00  0.32804589436E+04  0.32804589452E+04  0.10100000000E+00 0.  1.
         -3   -1    0    0    0  501 -0.00000000000E+00 -0.00000000000E+00 -0.85228153847E+03  0.85228154445E+03  0.10100000000E+00 0. -1.
     200001    2    1    2    0    0  0.12443455455E+04 -0.86940728704E+02  0.14407444337E+03  0.14377301247E+04  0.70025419623E+03 0.  0.
    5000001    2    3    3    0    0  0.41939012488E+03  0.23063019403E+02 -0.13642693355E+02  0.45410063866E+03  0.17205024625E+03 0.  0.
        -13    1    4    4    0    0  0.32460541408E+03  0.99315945887E+01 -0.79220117431E+02  0.33428004665E+03  0.10566000000E+00 0. -1.
     200003    1    4    4    0    0  0.94784710798E+02  0.13131424814E+02  0.65577424076E+02  0.11982059200E+03  0.30000000000E+02 0. -1.
     200000    1    3    3    0    0  0.82495542064E+03 -0.11000374811E+03  0.15771713672E+03  0.98362948606E+03  0.50000000000E+03 0. -1.
    -200001    1    1    2    0    0 -0.12443455455E+04  0.86940728704E+02  0.22841029618E+04  0.26950103649E+04  0.70000000000E+03 0.  1.
<mgrwt>
<rscale>  0 0.33441738E+04</rscale>
<asrwt>0</asrwt>
<pdfrwt beam="1">  1        3 0.46863699E+00 0.33441738E+04</pdfrwt>
<pdfrwt beam="2">  1       -3 0.12175451E+00 0.33441738E+04</pdfrwt>
<totfact> 0.58363061E-03</totfact>
</mgrwt>
</event>
<event>
 8    1  0.1206249E-029  0.1444112E+04  0.7818608E-02  0.8922493E-01
          3   -1    0    0  501    0  0.00000000000E+00  0.00000000000E+00  0.15761025352E+04  0.15761025385E+04  0.10100000000E+00 0. -1.
         -3   -1    0    0    0  501 -0.00000000000E+00 -0.00000000000E+00 -0.33079360813E+03  0.33079362355E+03  0.10100000000E+00 0.  1.
     200001    2    1    2    0    0  0.14186448207E+03 -0.36536924813E+02  0.75763175327E+03  0.10412810605E+04  0.69914225675E+03 0.  0.
    5000001    2    3    3    0    0  0.54636261672E+02 -0.47371205587E+02  0.13255736114E+03  0.23602076728E+03  0.18139789521E+03 0.  0.
        -13    1    4    4    0    0  0.94754419169E+02 -0.78619997856E+02  0.46405258659E+02  0.13157873388E+03  0.10566000000E+00 0. -1.
     200003    1    4    4    0    0 -0.40118157497E+02  0.31248792269E+02  0.86152102477E+02  0.10444203340E+03  0.30000000000E+02 0. -1.
     200000    1    3    3    0    0  0.87228220396E+02  0.10834280774E+02  0.62507439213E+03  0.80526029318E+03  0.50000000000E+03 0. -1.
    -200001    1    1    2    0    0 -0.14186448207E+03  0.36536924813E+02  0.48767717383E+03  0.86561510154E+03  0.70000000000E+03 0.  1.
<mgrwt>
<rscale>  0 0.14441117E+04</rscale>
<asrwt>0</asrwt>
<pdfrwt beam="1">  1        3 0.22515751E+00 0.14441117E+04</pdfrwt>
<pdfrwt beam="2">  1       -3 0.47256231E-01 0.14441117E+04</pdfrwt>
<totfact> 0.11759367E+00</totfact>
</mgrwt>
</event>
<event>
 8    1  0.1206249E-029  0.1693024E+04  0.7818608E-02  0.8765353E-01
         -3   -1    0    0    0  501 -0.00000000000E+00  0.00000000000E+00  0.16971556951E+04  0.16971556981E+04  0.10100000000E+00 0. -1.
          3   -1    0    0  501    0  0.00000000000E+00 -0.00000000000E+00 -0.42222565956E+03  0.42222567164E+03  0.10100000000E+00 0.  1.
     200001    2    1    2    0    0  0.11350746407E+03  0.38726876259E+03  0.95314748082E+03  0.12496658695E+04  0.70022398291E+03 0.  0.
    5000001    2    3    3    0    0  0.26686259708E+02  0.20702879222E+03  0.25343168716E+03  0.36670122672E+03  0.16330674314E+03 0.  0.
        -13    1    4    4    0    0 -0.50211874374E+01 -0.20513397112E+02  0.64101887197E+02  0.67491294925E+02  0.10566000000E+00 0. -1.
     200003    1    4    4    0    0  0.31707447146E+02  0.22754218933E+03  0.18932979996E+03  0.29920993179E+03  0.30000000000E+02 0. -1.
     200000    1    3    3    0    0  0.86821204357E+02  0.18023997038E+03  0.69971579367E+03  0.88296464275E+03  0.50000000000E+03 0. -1.
    -200001    1    1    2    0    0 -0.11350746407E+03 -0.38726876259E+03  0.32178255471E+03  0.86971550026E+03  0.70000000000E+03 0.  1.
<mgrwt>
<rscale>  0 0.16930242E+04</rscale>
<asrwt>0</asrwt>
<pdfrwt beam="1">  1        3 0.60317952E-01 0.16930242E+04</pdfrwt>
<pdfrwt beam="2">  1       -3 0.24245082E+00 0.16930242E+04</pdfrwt>
<totfact> 0.54506916E-01</totfact>
</mgrwt>
</event>
<event>
 8    1  0.1206249E-029  0.1436091E+04  0.7818608E-02  0.8928101E-01
          3   -1    0    0  501    0  0.00000000000E+00  0.00000000000E+00  0.10362206237E+04  0.10362206286E+04  0.10100000000E+00 0.  1.
         -3   -1    0    0    0  501 -0.00000000000E+00 -0.00000000000E+00 -0.49756713494E+03  0.49756714519E+03  0.10100000000E+00 0. -1.
     200001    2    1    2    0    0 -0.47576711119E+02 -0.93113596823E+02  0.40025068681E+03  0.81261579640E+03  0.69943558311E+03 0.  0.
    5000001    2    3    3    0    0 -0.46948063550E+02 -0.17396345052E+01  0.17770758408E+03  0.25775092208E+03  0.18068869747E+03 0.  0.
        -13    1    4    4    0    0  0.54148860853E+02  0.44424187892E+02  0.51546139893E+02  0.86963344597E+02  0.10566000000E+00 0. -1.
     200003    1    4    4    0    0 -0.10109692440E+03 -0.46163822397E+02  0.12616144419E+03  0.17078757748E+03  0.30000000000E+02 0. -1.
     200000    1    3    3    0    0 -0.62864756917E+00 -0.91373962318E+02  0.22254310273E+03  0.55486487433E+03  0.50000000000E+03 0. -1.
    -200001    1    1    2    0    0  0.47576711119E+02  0.93113596823E+02  0.13840280190E+03  0.72117197736E+03  0.70000000000E+03 0. -1.
<mgrwt>
<rscale>  0 0.14360910E+04</rscale>
<asrwt>0</asrwt>
<pdfrwt beam="1">  1        3 0.14803152E+00 0.14360910E+04</pdfrwt>
<pdfrwt beam="2">  1       -3 0.71081020E-01 0.14360910E+04</pdfrwt>
<totfact> 0.16154721E+00</totfact>
</mgrwt>
</event>
<event>
 8    1  0.1206249E-029  0.1414118E+04  0.7818608E-02  0.8943662E-01
         -3   -1    0    0    0  501 -0.00000000000E+00  0.00000000000E+00  0.62454758016E+03  0.62454758833E+03  0.10100000000E+00 0. -1.
          3   -1    0    0  501    0  0.00000000000E+00 -0.00000000000E+00 -0.80047145045E+03  0.80047145682E+03  0.10100000000E+00 0.  1.
     200001    2    1    2    0    0  0.36002598555E+02  0.26872568804E+02  0.24812087824E+01  0.70124650194E+03  0.69980152760E+03 0.  0.
    5000001    2    3    3    0    0 -0.35384582609E+02  0.73562375390E+01 -0.29201865559E+02  0.19480713339E+03  0.18918479683E+03 0.  0.
        -13    1    4    4    0    0 -0.88895515087E+02 -0.47249659258E+02 -0.46473057406E+02  0.11088146433E+03  0.10566000000E+00 0. -1.
     200003    1    4    4    0    0  0.53510932478E+02  0.54605896797E+02  0.17271191847E+02  0.83925669062E+02  0.30000000000E+02 0. -1.
     200000    1    3    3    0    0  0.71387181164E+02  0.19516331265E+02  0.31683074341E+02  0.50643936855E+03  0.50000000000E+03 0. -1.
    -200001    1    1    2    0    0 -0.36002598555E+02 -0.26872568804E+02 -0.17840507907E+03  0.72377254320E+03  0.70000000000E+03 0.  1.
<mgrwt>
<rscale>  0 0.14141181E+04</rscale>
<asrwt>0</asrwt>
<pdfrwt beam="1">  1        3 0.11435307E+00 0.14141181E+04</pdfrwt>
<pdfrwt beam="2">  1       -3 0.89221084E-01 0.14141181E+04</pdfrwt>
<totfact> 0.18537055E+00</totfact>
</mgrwt>
</event>
<event>
 8    1  0.1206249E-029  0.1433084E+04  0.7818608E-02  0.8930213E-01
          3   -1    0    0  501    0  0.00000000000E+00  0.00000000000E+00  0.11285987828E+04  0.11285987873E+04  0.10100000000E+00 0.  1.
         -3   -1    0    0    0  501 -0.00000000000E+00 -0.00000000000E+00 -0.45492921685E+03  0.45492922806E+03  0.10100000000E+00 0. -1.
     200001    2    1    2    0    0 -0.27028771521E+02 -0.10035859110E+02  0.16881578611E+03  0.71998379995E+03  0.69931868958E+03 0.  0.
    5000001    2    3    3    0    0 -0.12220790898E+03 -0.48437221221E+02  0.14724609705E+02  0.18680669667E+03  0.13190523255E+03 0.  0.
        -13    1    4    4    0    0 -0.12148519964E+03 -0.66753778106E+02  0.39099916847E+02  0.14402616181E+03  0.10566000000E+00 0. -1.
     200003    1    4    4    0    0 -0.72270933554E+00  0.18316556885E+02 -0.24375307142E+02  0.42780534863E+02  0.30000000000E+02 0. -1.
     200000    1    3    3    0    0  0.95179137455E+02  0.38401362111E+02  0.15409117640E+03  0.53317710328E+03  0.50000000000E+03 0. -1.
    -200001    1    1    2    0    0  0.27028771521E+02  0.10035859110E+02  0.50485377980E+03  0.86354421539E+03  0.70000000000E+03 0.  1.
<mgrwt>
<rscale>  0 0.14330842E+04</rscale>
<asrwt>0</asrwt>
<pdfrwt beam="1">  1        3 0.16122840E+00 0.14330842E+04</pdfrwt>
<pdfrwt beam="2">  1       -3 0.64989889E-01 0.14330842E+04</pdfrwt>
<totfact> 0.15682425E+00</totfact>
</mgrwt>
</event>
<event>
 8    1  0.1206249E-029  0.1540844E+04  0.7818608E-02  0.8857737E-01
          3   -1    0    0  501    0  0.00000000000E+00  0.00000000000E+00  0.14375253865E+04  0.14375253900E+04  0.10100000000E+00 0.  1.
         -3   -1    0    0    0  501 -0.00000000000E+00 -0.00000000000E+00 -0.41289727617E+03  0.41289728852E+03  0.10100000000E+00 0. -1.
     200001    2    1    2    0    0 -0.19286467113E+03  0.17885575733E+03  0.29060012846E+03  0.80257572338E+03  0.70035219269E+03 0.  0.
    5000001    2    3    3    0    0 -0.78407249621E+02 -0.15162420639E+02 -0.11059752535E+02  0.17668257074E+03  0.15721582899E+03 0.  0.
        -13    1    4    4    0    0 -0.11016332032E+03 -0.21592522923E+02  0.30198587813E+02  0.11625041961E+03  0.10566000000E+00 0. -1.
     200003    1    4    4    0    0  0.31756070699E+02  0.64301022845E+01 -0.41258340348E+02  0.60432151128E+02  0.30000000000E+02 0. -1.
     200000    1    3    3    0    0 -0.11445742151E+03  0.19401817797E+03  0.30165988100E+03  0.62589315264E+03  0.50000000000E+03 0.  1.
    -200001    1    1    2    0    0  0.19286467113E+03 -0.17885575733E+03  0.73402798183E+03  0.10478469551E+04  0.70000000000E+03 0.  1.
<mgrwt>
<rscale>  0 0.15408444E+04</rscale>
<asrwt>0</asrwt>
<pdfrwt beam="1">  1        3 0.20536077E+00 0.15408444E+04</pdfrwt>
<pdfrwt beam="2">  1       -3 0.58985327E-01 0.15408444E+04</pdfrwt>
<totfact> 0.97385254E-01</totfact>
</mgrwt>
</event>
<event>
 8    1  0.1206249E-029  0.1837573E+04  0.7818608E-02  0.8686570E-01
         -3   -1    0    0    0  501 -0.00000000000E+00  0.00000000000E+00  0.48950308903E+03  0.48950309945E+03  0.10100000000E+00 0.  1.
          3   -1    0    0  501    0  0.00000000000E+00 -0.00000000000E+00 -0.17245427484E+04  0.17245427514E+04  0.10100000000E+00 0. -1.
     200001    2    1    2    0    0 -0.55795135001E+03 -0.18359329856E+03 -0.50314330988E+03  0.10432817949E+04  0.70019104893E+03 0.  0.
    5000001    2    3    3    0    0 -0.92829080652E+02 -0.60239448835E+02 -0.70639497073E+02  0.22559331766E+03  0.18345674426E+03 0.  0.
        -13    1    4    4    0    0  0.31121116298E+02 -0.79321774001E+02 -0.31334444392E+02  0.90787258356E+02  0.10566000000E+00 0. -1.
     200003    1    4    4    0    0 -0.12395019695E+03  0.19082325167E+02 -0.39305052681E+02  0.13480605930E+03  0.30000000000E+02 0. -1.
     200000    1    3    3    0    0 -0.46512226936E+03 -0.12335384972E+03 -0.43250381281E+03  0.81768847722E+03  0.50000000000E+03 0. -1.
    -200001    1    1    2    0    0  0.55795135001E+03  0.18359329856E+03 -0.73189634950E+03  0.11707640559E+04  0.70000000000E+03 0. -1.
<mgrwt>
<rscale>  0 0.18375734E+04</rscale>
<asrwt>0</asrwt>
<pdfrwt beam="1">  1        3 0.24636325E+00 0.18375734E+04</pdfrwt>
<pdfrwt beam="2">  1       -3 0.69929015E-01 0.18375734E+04</pdfrwt>
<totfact> 0.37596602E-01</totfact>
</mgrwt>
</event>
<event>
 8    1  0.1206249E-029  0.2408926E+04  0.7818608E-02  0.8436169E-01
         -3   -1    0    0    0  501 -0.00000000000E+00  0.00000000000E+00  0.72999513784E+03  0.72999514483E+03  0.10100000000E+00 0. -1.
          3   -1    0    0  501    0  0.00000000000E+00 -0.00000000000E+00 -0.19873159967E+04  0.19873159993E+04  0.10100000000E+00 0.  1.
     200001    2    1    2    0    0  0.65749389426E+03 -0.72366834520E+03 -0.55840915692E+03  0.13264582899E+04  0.70119662975E+03 0.  0.
    5000001    2    3    3    0    0  0.11617217913E+03 -0.65875799602E+02 -0.89629804458E+02  0.23308081001E+03  0.16869370459E+03 0.  0.
        -13    1    4    4    0    0  0.99840325259E+02 -0.11372549306E+03 -0.86267260600E+02  0.17419422991E+03  0.10566000000E+00 0. -1.
     200003    1    4    4    0    0  0.16331853873E+02  0.47849693453E+02 -0.33625438574E+01  0.58886580098E+02  0.30000000000E+02 0. -1.
     200000    1    3    3    0    0  0.54132171513E+03 -0.65779254560E+03 -0.46877935246E+03  0.10933774799E+04  0.50000000000E+03 0. -1.
    -200001    1    1    2    0    0 -0.65749389426E+03  0.72366834520E+03 -0.69891170196E+03  0.13908528542E+04  0.70000000000E+03 0.  1.
<mgrwt>
<rscale>  0 0.24089259E+04</rscale>
<asrwt>0</asrwt>
<pdfrwt beam="1">  1        3 0.28390228E+00 0.24089259E+04</pdfrwt>
<pdfrwt beam="2">  1       -3 0.10428502E+00 0.24089259E+04</pdfrwt>
<totfact> 0.88860213E-02</totfact>
</mgrwt>
</event>
<event>
 8    1  0.1206249E-029  0.2388420E+04  0.7818608E-02  0.8443852E-01
          3   -1    0    0  501    0  0.00000000000E+00  0.00000000000E+00  0.69669184874E+03  0.69669185606E+03  0.10100000000E+00 0.  1.
         -3   -1    0    0    0  501 -0.00000000000E+00 -0.00000000000E+00 -0.20470126668E+04  0.20470126693E+04  0.10100000000E+00 0. -1.
     200001    2    1    2    0    0 -0.35778364458E+03 -0.18954079378E+01  0.35735171598E+03  0.86376883166E+03  0.70027395835E+03 0.  0.
    5000001    2    3    3    0    0 -0.14545743881E+03 -0.44991667695E+02  0.15893909275E+03  0.28384877310E+03  0.17923831655E+03 0.  0.
        -13    1    4    4    0    0 -0.13450411348E+03  0.33720168995E+02  0.13952933336E+03  0.19671515542E+03  0.10566000000E+00 0. -1.
     200003    1    4    4    0    0 -0.10953325325E+02 -0.78711836689E+02  0.19409759393E+02  0.87133617682E+02  0.30000000000E+02 0.  1.
     200000    1    3    3    0    0 -0.21232620577E+03  0.43096259757E+02  0.19841262323E+03  0.57992005856E+03  0.50000000000E+03 0.  1.
    -200001    1    1    2    0    0  0.35778364458E+03  0.18954079378E+01 -0.17076725340E+04  0.18799356937E+04  0.70000000000E+03 0. -1.
<mgrwt>
<rscale>  0 0.23884196E+04</rscale>
<asrwt>0</asrwt>
<pdfrwt beam="1">  1        3 0.99527409E-01 0.23884196E+04</pdfrwt>
<pdfrwt beam="2">  1       -3 0.29243038E+00 0.23884196E+04</pdfrwt>
<totfact> 0.87727907E-02</totfact>
</mgrwt>
</event>
<event>
 8    1  0.1206249E-029  0.1436397E+04  0.7818608E-02  0.8927886E-01
          3   -1    0    0  501    0  0.00000000000E+00  0.00000000000E+00  0.97648694581E+03  0.97648695104E+03  0.10100000000E+00 0. -1.
         -3   -1    0    0    0  501 -0.00000000000E+00 -0.00000000000E+00 -0.52822914055E+03  0.52822915020E+03  0.10100000000E+00 0.  1.
     200001    2    1    2    0    0 -0.79430844531E+01 -0.10174071831E+03  0.35488168693E+03  0.79118028166E+03  0.69972205912E+03 0.  0.
    5000001    2    3    3    0    0  0.10971549310E+03 -0.93588948057E+02  0.61838787437E+02  0.19975477225E+03  0.12361857782E+03 0.  0.
        -13    1    4    4    0    0  0.99274674899E+02 -0.14539807347E+02  0.11984670863E+02  0.10104707108E+03  0.10566000000E+00 0. -1.
     200003    1    4    4    0    0  0.10440818201E+02 -0.79049140711E+02  0.49854116575E+02  0.98707701175E+02  0.30000000000E+02 0. -1.
     200000    1    3    3    0    0 -0.11765857755E+03 -0.81517702500E+01  0.29304289949E+03  0.59142550940E+03  0.50000000000E+03 0. -1.
    -200001    1    1    2    0    0  0.79430844531E+01  0.10174071831E+03  0.93376118333E+02  0.71353581958E+03  0.70000000000E+03 0. -1.
<mgrwt>
<rscale>  0 0.14363967E+04</rscale>
<asrwt>0</asrwt>
<pdfrwt beam="1">  1        3 0.13949813E+00 0.14363967E+04</pdfrwt>
<pdfrwt beam="2">  1       -3 0.75461308E-01 0.14363967E+04</pdfrwt>
<totfact> 0.16496522E+00</totfact>
</mgrwt>
</event>
<event>
 8    1  0.1206249E-029  0.1776203E+04  0.7818608E-02  0.8719058E-01
          3   -1    0    0  501    0  0.00000000000E+00  0.00000000000E+00  0.82864584124E+03  0.82864584739E+03  0.10100000000E+00 0.  1.
         -3   -1    0    0    0  501 -0.00000000000E+00 -0.00000000000E+00 -0.95182273473E+03  0.95182274008E+03  0.10100000000E+00 0. -1.
     200001    2    1    2    0    0  0.22982448934E+03  0.42472658674E+03 -0.31895570948E+03  0.90780524221E+03  0.69940377736E+03 0.  0.
    5000001    2    3    3    0    0  0.12315349392E+03  0.11945109990E+03 -0.13250797215E+03  0.28383842988E+03  0.18322266034E+03 0.  0.
        -13    1    4    4    0    0 -0.11842710811E+02  0.98037275592E+02 -0.12592010746E+02  0.99549621313E+02  0.10566000000E+00 0. -1.
     200003    1    4    4    0    0  0.13499620473E+03  0.21413824310E+02 -0.11991596141E+03  0.18428880857E+03  0.30000000000E+02 0. -1.
     200000    1    3    3    0    0  0.10667099542E+03  0.30527548684E+03 -0.18644773732E+03  0.62396681232E+03  0.50000000000E+03 0. -1.
    -200001    1    1    2    0    0 -0.22982448934E+03 -0.42472658674E+03  0.19577881599E+03  0.87266334527E+03  0.70000000000E+03 0.  1.
<mgrwt>
<rscale>  0 0.17762026E+04</rscale>
<asrwt>0</asrwt>
<pdfrwt beam="1">  1        3 0.11837798E+00 0.17762026E+04</pdfrwt>
<pdfrwt beam="2">  1       -3 0.13597468E+00 0.17762026E+04</pdfrwt>
<totfact> 0.60519713E-01</totfact>
</mgrwt>
</event>
<event>
 8    1  0.1206249E-029  0.1583364E+04  0.7818608E-02  0.8830834E-01
          3   -1    0    0  501    0  0.00000000000E+00  0.00000000000E+00  0.10571049329E+04  0.10571049377E+04  0.10100000000E+00 0.  1.
         -3   -1    0    0    0  501 -0.00000000000E+00 -0.00000000000E+00 -0.59290289357E+03  0.59290290217E+03  0.10100000000E+00 0. -1.
     200001    2    1    2    0    0  0.95395506844E+02  0.35118767799E+03  0.29820250459E+03  0.84378892828E+03  0.70044409758E+03 0.  0.
    5000001    2    3    3    0    0 -0.13881008985E+02  0.15592578422E+03  0.10003094884E+03  0.26125950449E+03  0.18369759215E+03 0.  0.
        -13    1    4    4    0    0 -0.95443714907E+02  0.69162880333E+02  0.39194496519E+02  0.12421443738E+03  0.10566000000E+00 0. -1.
     200003    1    4    4    0    0  0.81562705922E+02  0.86762903888E+02  0.60836452322E+02  0.13704506711E+03  0.30000000000E+02 0. -1.
     200000    1    3    3    0    0  0.10927651583E+03  0.19526189377E+03  0.19817155575E+03  0.58252942379E+03  0.50000000000E+03 0.  1.
    -200001    1    1    2    0    0 -0.95395506844E+02 -0.35118767799E+03  0.16599953474E+03  0.80621891161E+03  0.70000000000E+03 0.  1.
<mgrwt>
<rscale>  0 0.15833642E+04</rscale>
<asrwt>0</asrwt>
<pdfrwt beam="1">  1        3 0.15101499E+00 0.15833642E+04</pdfrwt>
<pdfrwt beam="2">  1       -3 0.84700415E-01 0.15833642E+04</pdfrwt>
<totfact> 0.10287986E+00</totfact>
</mgrwt>
</event>
<event>
 8    1  0.1206249E-029  0.1405201E+04  0.7818608E-02  0.8950062E-01
         -3   -1    0    0    0  501 -0.00000000000E+00  0.00000000000E+00  0.66511996345E+03  0.66511997112E+03  0.10100000000E+00 0.  1.
          3   -1    0    0  501    0  0.00000000000E+00 -0.00000000000E+00 -0.74219313525E+03  0.74219314212E+03  0.10100000000E+00 0. -1.
     200001    2    1    2    0    0  0.49319625683E+02  0.14436067066E+02 -0.76424884445E+02  0.70542904462E+03  0.69939155594E+03 0.  0.
    5000001    2    3    3    0    0  0.22442196356E+02  0.76030365582E+02 -0.80107531138E+01  0.19631535674E+03  0.17941928118E+03 0.  0.
        -13    1    4    4    0    0 -0.30177781226E+02  0.38254409625E+02 -0.80805874012E+02  0.94359412749E+02  0.10566000000E+00 0. -1.
     200003    1    4    4    0    0  0.52619977582E+02  0.37775955957E+02  0.72795120898E+02  0.10195594399E+03  0.30000000000E+02 0. -1.
     200000    1    3    3    0    0  0.26877429327E+02 -0.61594298516E+02 -0.68414131331E+02  0.50911368788E+03  0.50000000000E+03 0. -1.
    -200001    1    1    2    0    0 -0.49319625683E+02 -0.14436067066E+02 -0.64828735055E+00  0.70188406862E+03  0.70000000000E+03 0.  1.
<mgrwt>
<rscale>  0 0.14052010E+04</rscale>
<asrwt>0</asrwt>
<pdfrwt beam="1">  1        3 0.10602759E+00 0.14052010E+04</pdfrwt>
<pdfrwt beam="2">  1       -3 0.95017139E-01 0.14052010E+04</pdfrwt>
<totfact> 0.19224954E+00</totfact>
</mgrwt>
</event>
<event>
 8    1  0.1206249E-029  0.4477021E+04  0.7818608E-02  0.7914672E-01
         -3   -1    0    0    0  501 -0.00000000000E+00  0.00000000000E+00  0.23984441880E+04  0.23984441901E+04  0.10100000000E+00 0.  1.
          3   -1    0    0  501    0  0.00000000000E+00 -0.00000000000E+00 -0.20892416665E+04  0.20892416690E+04  0.10100000000E+00 0. -1.
     200001    2    1    2    0    0  0.55007501135E+03 -0.18863517109E+04  0.96869091341E+03  0.23000318109E+04  0.70062754040E+03 0.  0.
    5000001    2    3    3    0    0  0.13468605286E+03 -0.41816986127E+03  0.15150769127E+03  0.49839523580E+03  0.18010237322E+03 0.  0.
        -13    1    4    4    0    0 -0.14751121592E+02 -0.21410521812E+01  0.38288734584E+02  0.41087930743E+02  0.10566000000E+00 0. -1.
     200003    1    4    4    0    0  0.14943717445E+03 -0.41602880909E+03  0.11321895668E+03  0.45730730505E+03  0.30000000000E+02 0. -1.
     200000    1    3    3    0    0  0.41538895849E+03 -0.14681818496E+04  0.81718322215E+03  0.18016365751E+04  0.50000000000E+03 0.  1.
    -200001    1    1    2    0    0 -0.55007501135E+03  0.18863517109E+04 -0.65948839197E+03  0.21876540481E+04  0.70000000000E+03 0. -1.
<mgrwt>
<rscale>  0 0.44770211E+04</rscale>
<asrwt>0</asrwt>
<pdfrwt beam="1">  1        3 0.29846310E+00 0.44770211E+04</pdfrwt>
<pdfrwt beam="2">  1       -3 0.34263488E+00 0.44770211E+04</pdfrwt>
<totfact> 0.17150196E-03</totfact>
</mgrwt>
</event>
<event>
 8    1  0.1206249E-029  0.1513917E+04  0.7818608E-02  0.8875250E-01
         -3   -1    0    0    0  501 -0.00000000000E+00  0.00000000000E+00  0.12527032682E+04  0.12527032722E+04  0.10100000000E+00 0. -1.
          3   -1    0    0  501    0  0.00000000000E+00 -0.00000000000E+00 -0.45739993239E+03  0.45739994354E+03  0.10100000000E+00 0.  1.
     200001    2    1    2    0    0  0.61733977189E+02  0.23971257218E+03  0.56441235772E+03  0.93255331709E+03  0.69987225868E+03 0.  0.
    5000001    2    3    3    0    0  0.10618428691E+03  0.34553361770E+02  0.20368538004E+03  0.28125454995E+03  0.15857916077E+03 0.  0.
        -13    1    4    4    0    0  0.45841942168E+02 -0.35777858661E+02  0.16756462633E+03  0.17736813128E+03  0.10566000000E+00 0. -1.
     200003    1    4    4    0    0  0.60342344742E+02  0.70331220431E+02  0.36120753716E+02  0.10388641868E+03  0.30000000000E+02 0. -1.
     200000    1    3    3    0    0 -0.44450309721E+02  0.20515921041E+03  0.36072697767E+03  0.65129876713E+03  0.50000000000E+03 0. -1.
    -200001    1    1    2    0    0 -0.61733977189E+02 -0.23971257218E+03  0.23089097806E+03  0.77754989869E+03  0.70000000000E+03 0. -1.
<mgrwt>
<rscale>  0 0.15139173E+04</rscale>
<asrwt>0</asrwt>
<pdfrwt beam="1">  1        3 0.65342849E-01 0.15139173E+04</pdfrwt>
<pdfrwt beam="2">  1       -3 0.17895761E+00 0.15139173E+04</pdfrwt>
<totfact> 0.11562715E+00</totfact>
</mgrwt>
</event>
<event>
 8    1  0.1206249E-029  0.2571413E+04  0.7818608E-02  0.8377977E-01
          3   -1    0    0  501    0  0.00000000000E+00  0.00000000000E+00  0.17901393372E+04  0.17901393400E+04  0.10100000000E+00 0.  1.
         -3   -1    0    0    0  501 -0.00000000000E+00 -0.00000000000E+00 -0.92341480089E+03  0.92341480642E+03  0.10100000000E+00 0. -1.
     200001    2    1    2    0    0  0.68978965500E+02  0.48476380592E+03  0.14473640134E+04  0.16806474480E+04  0.69997086507E+03 0.  0.
    5000001    2    3    3    0    0 -0.27970580814E+01  0.10268348164E+03  0.48792302055E+03  0.53101090085E+03  0.18262524991E+03 0.  0.
        -13    1    4    4    0    0 -0.19480926741E+01  0.11022563849E+03  0.48776202938E+03  0.50006529066E+03  0.10566000000E+00 0. -1.
     200003    1    4    4    0    0 -0.84896540726E+00 -0.75421568545E+01  0.16099116946E+00  0.30945610197E+02  0.30000000000E+02 0. -1.
     200000    1    3    3    0    0  0.71776023581E+02  0.38208032428E+03  0.95944099288E+03  0.11496365472E+04  0.50000000000E+03 0.  1.
    -200001    1    1    2    0    0 -0.68978965500E+02 -0.48476380592E+03 -0.58063947715E+03  0.10329066984E+04  0.70000000000E+03 0. -1.
<mgrwt>
<rscale>  0 0.25714130E+04</rscale>
<asrwt>0</asrwt>
<pdfrwt beam="1">  1        3 0.25573419E+00 0.25714130E+04</pdfrwt>
<pdfrwt beam="2">  1       -3 0.13191640E+00 0.25714130E+04</pdfrwt>
<totfact> 0.71411369E-02</totfact>
</mgrwt>
</event>
<event>
 8    1  0.1206249E-029  0.1880582E+04  0.7818608E-02  0.8664583E-01
         -3   -1    0    0    0  501 -0.00000000000E+00  0.00000000000E+00  0.13883918388E+04  0.13883918425E+04  0.10100000000E+00 0. -1.
          3   -1    0    0  501    0  0.00000000000E+00 -0.00000000000E+00 -0.63681375226E+03  0.63681376027E+03  0.10100000000E+00 0.  1.
     200001    2    1    2    0    0 -0.83808567020E+02  0.40178674409E+02  0.10445349726E+04  0.12607044982E+04  0.69977447859E+03 0.  0.
    5000001    2    3    3    0    0 -0.77724322432E+02  0.49932897066E+02  0.20712501544E+03  0.28531350002E+03  0.17311457698E+03 0.  0.
        -13    1    4    4    0    0 -0.59510947975E+02 -0.56346785312E+02  0.10965511109E+03  0.13689692362E+03  0.10566000000E+00 0. -1.
     200003    1    4    4    0    0 -0.18213374456E+02  0.10627968238E+03  0.97469904350E+02  0.14841657640E+03  0.30000000000E+02 0. -1.
     200000    1    3    3    0    0 -0.60842445885E+01 -0.97542226572E+01  0.83740995717E+03  0.97539099815E+03  0.50000000000E+03 0. -1.
    -200001    1    1    2    0    0  0.83808567020E+02 -0.40178674409E+02 -0.29295688608E+03  0.76450110457E+03  0.70000000000E+03 0.  1.
<mgrwt>
<rscale>  0 0.18805819E+04</rscale>
<asrwt>0</asrwt>
<pdfrwt beam="1">  1        3 0.90973394E-01 0.18805819E+04</pdfrwt>
<pdfrwt beam="2">  1       -3 0.19834169E+00 0.18805819E+04</pdfrwt>
<totfact> 0.40336020E-01</totfact>
</mgrwt>
</event>
<event>
 8    1  0.1206249E-029  0.1657370E+04  0.7818608E-02  0.8786058E-01
         -3   -1    0    0    0  501 -0.00000000000E+00  0.00000000000E+00  0.77591416103E+03  0.77591416760E+03  0.10100000000E+00 0. -1.
          3   -1    0    0  501    0  0.00000000000E+00 -0.00000000000E+00 -0.88504466545E+03  0.88504467121E+03  0.10100000000E+00 0.  1.
     200001    2    1    2    0    0  0.17827808082E+03 -0.39641930832E+03  0.39570613003E+02  0.82367551494E+03  0.69853001252E+03 0.  0.
    5000001    2    3    3    0    0  0.28649035473E+02 -0.11713510390E+03 -0.15524548148E+02  0.22918077583E+03  0.19427150233E+03 0.  0.
        -13    1    4    4    0    0  0.39939545094E+02 -0.52682837043E+02  0.83659729543E+02  0.10662837377E+03  0.10566000000E+00 0. -1.
     200003    1    4    4    0    0 -0.11290509621E+02 -0.64452266857E+02 -0.99184277692E+02  0.12255240206E+03  0.30000000000E+02 0. -1.
     200000    1    3    3    0    0  0.14962904535E+03 -0.27928420442E+03  0.55095161151E+02  0.59449473911E+03  0.50000000000E+03 0. -1.
    -200001    1    1    2    0    0 -0.17827808082E+03  0.39641930832E+03 -0.14870111742E+03  0.83728332387E+03  0.70000000000E+03 0. -1.
<mgrwt>
<rscale>  0 0.16573698E+04</rscale>
<asrwt>0</asrwt>
<pdfrwt beam="1">  1        3 0.12643495E+00 0.16573698E+04</pdfrwt>
<pdfrwt beam="2">  1       -3 0.11084488E+00 0.16573698E+04</pdfrwt>
<totfact> 0.85809279E-01</totfact>
</mgrwt>
</event>
<event>
 8    1  0.1206249E-029  0.1491865E+04  0.7818608E-02  0.8889881E-01
          3   -1    0    0  501    0  0.00000000000E+00  0.00000000000E+00  0.50572780202E+03  0.50572781210E+03  0.10100000000E+00 0.  1.
         -3   -1    0    0    0  501 -0.00000000000E+00 -0.00000000000E+00 -0.11002269086E+04  0.11002269132E+04  0.10100000000E+00 0. -1.
     200001    2    1    2    0    0  0.11516084910E+03 -0.22119254769E+03 -0.37030426377E+03  0.82977723800E+03  0.69944038531E+03 0.  0.
    5000001    2    3    3    0    0  0.79486979706E+02  0.61208516941E+01 -0.19177833558E+03  0.25114478684E+03  0.14120598142E+03 0.  0.
        -13    1    4    4    0    0 -0.36730094498E+02 -0.15892073233E+02 -0.51365194316E+02  0.65115683093E+02  0.10566000000E+00 0. -1.
     200003    1    4    4    0    0  0.11621707420E+03  0.22012924927E+02 -0.14041314126E+03  0.18602910374E+03  0.30000000000E+02 0. -1.
     200000    1    3    3    0    0  0.35673869399E+02 -0.22731339939E+03 -0.17852592819E+03  0.57863245116E+03  0.50000000000E+03 0.  1.
    -200001    1    1    2    0    0 -0.11516084910E+03  0.22119254769E+03 -0.22419484282E+03  0.77617748735E+03  0.70000000000E+03 0.  1.
<mgrwt>
<rscale>  0 0.14918651E+04</rscale>
<asrwt>0</asrwt>
<pdfrwt beam="1">  1        3 0.72246830E-01 0.14918651E+04</pdfrwt>
<pdfrwt beam="2">  1       -3 0.15717527E+00 0.14918651E+04</pdfrwt>
<totfact> 0.13239582E+00</totfact>
</mgrwt>
</event>
<event>
 8    1  0.1206249E-029  0.1480988E+04  0.7818608E-02  0.8897195E-01
         -3   -1    0    0    0  501 -0.00000000000E+00  0.00000000000E+00  0.41905245439E+03  0.41905246656E+03  0.10100000000E+00 0. -1.
          3   -1    0    0  501    0  0.00000000000E+00 -0.00000000000E+00 -0.13085035945E+04  0.13085035984E+04  0.10100000000E+00 0.  1.
     200001    2    1    2    0    0 -0.72492676689E+02 -0.21851269908E+03 -0.51538145134E+03  0.90115959841E+03  0.70247248599E+03 0.  0.
    5000001    2    3    3    0    0 -0.32228284766E+02 -0.89677775807E+01 -0.22882206959E+03  0.28663004285E+03  0.16934626821E+03 0.  0.
        -13    1    4    4    0    0  0.55030209948E+01  0.31742999651E+02  0.14450033241E+02  0.35308864208E+02  0.10566000000E+00 0. -1.
     200003    1    4    4    0    0 -0.37731305761E+02 -0.40710777232E+02 -0.24327210283E+03  0.25132117864E+03  0.30000000000E+02 0. -1.
     200000    1    3    3    0    0 -0.40264391923E+02 -0.20954492150E+03 -0.28655938175E+03  0.61452955556E+03  0.50000000000E+03 0.  1.
    -200001    1    1    2    0    0  0.72492676689E+02  0.21851269908E+03 -0.37406968872E+03  0.82639646651E+03  0.70000000000E+03 0. -1.
<mgrwt>
<rscale>  0 0.14809884E+04</rscale>
<asrwt>0</asrwt>
<pdfrwt beam="1">  1        3 0.18692908E+00 0.14809884E+04</pdfrwt>
<pdfrwt beam="2">  1       -3 0.59864638E-01 0.14809884E+04</pdfrwt>
<totfact> 0.12425849E+00</totfact>
</mgrwt>
</event>
<event>
 8    1  0.1206249E-029  0.1636430E+04  0.7818608E-02  0.8798475E-01
          3   -1    0    0  501    0  0.00000000000E+00  0.00000000000E+00  0.64290016453E+03  0.64290017246E+03  0.10100000000E+00 0.  1.
         -3   -1    0    0    0  501 -0.00000000000E+00 -0.00000000000E+00 -0.10413369616E+04  0.10413369665E+04  0.10100000000E+00 0. -1.
     200001    2    1    2    0    0 -0.22618614481E+03  0.12698459173E+02  0.18153525887E+03  0.74738655929E+03  0.68870181925E+03 0.  0.
    5000001    2    3    3    0    0 -0.93987573558E+02  0.45425113617E+02 -0.19635455184E+02  0.19149344696E+03  0.15933324887E+03 0.  0.
        -13    1    4    4    0    0 -0.10765545928E+03 -0.21611514985E+02 -0.34958427220E+02  0.11523392856E+03  0.10566000000E+00 0. -1.
     200003    1    4    4    0    0  0.13667885723E+02  0.67036628602E+02  0.15322972035E+02  0.76259518399E+02  0.30000000000E+02 0. -1.
     200000    1    3    3    0    0 -0.13219857125E+03 -0.32726654444E+02  0.20117071405E+03  0.55589311234E+03  0.50000000000E+03 0.  1.
    -200001    1    1    2    0    0  0.22618614481E+03 -0.12698459173E+02 -0.57997205595E+03  0.93685057969E+03  0.70000000000E+03 0. -1.
<mgrwt>
<rscale>  0 0.16364299E+04</rscale>
<asrwt>0</asrwt>
<pdfrwt beam="1">  1        3 0.91842882E-01 0.16364299E+04</pdfrwt>
<pdfrwt beam="2">  1       -3 0.14876242E+00 0.16364299E+04</pdfrwt>
<totfact> 0.88410598E-01</totfact>
</mgrwt>
</event>
<event>
 8    1  0.1206249E-029  0.1855921E+04  0.7818608E-02  0.8677114E-01
          3   -1    0    0  501    0  0.00000000000E+00  0.00000000000E+00  0.44339454304E+03  0.44339455454E+03  0.10100000000E+00 0. -1.
         -3   -1    0    0    0  501 -0.00000000000E+00 -0.00000000000E+00 -0.19420872745E+04  0.19420872771E+04  0.10100000000E+00 0.  1.
     200001    2    1    2    0    0  0.31875606032E+03  0.11772491292E+03 -0.13991061025E+04  0.16010189085E+04  0.70021359468E+03 0.  0.
    5000001    2    3    3    0    0  0.31147834062E+02 -0.44872167006E+02 -0.26666926881E+03  0.31978142679E+03  0.16782122349E+03 0.  0.
        -13    1    4    4    0    0 -0.52712918395E+02  0.14016605508E+02 -0.15921500732E+03  0.16829898014E+03  0.10566000000E+00 0. -1.
     200003    1    4    4    0    0  0.83860752457E+02 -0.58888772514E+02 -0.10745426149E+03  0.15148244665E+03  0.30000000000E+02 0. -1.
     200000    1    3    3    0    0  0.28760822626E+03  0.16259707993E+03 -0.11324368337E+04  0.12812374817E+04  0.50000000000E+03 0.  1.
    -200001    1    1    2    0    0 -0.31875606032E+03 -0.11772491292E+03 -0.99586628914E+02  0.78446292314E+03  0.70000000000E+03 0. -1.
<mgrwt>
<rscale>  0 0.18559212E+04</rscale>
<asrwt>0</asrwt>
<pdfrwt beam="1">  1        3 0.63342080E-01 0.18559212E+04</pdfrwt>
<pdfrwt beam="2">  1       -3 0.27744104E+00 0.18559212E+04</pdfrwt>
<totfact> 0.30518857E-01</totfact>
</mgrwt>
</event>
<event>
 8    1  0.1206249E-029  0.1942245E+04  0.7818608E-02  0.8634110E-01
          3   -1    0    0  501    0  0.00000000000E+00  0.00000000000E+00  0.16770593858E+04  0.16770593888E+04  0.10100000000E+00 0.  1.
         -3   -1    0    0    0  501 -0.00000000000E+00 -0.00000000000E+00 -0.56234061798E+03  0.56234062705E+03  0.10100000000E+00 0. -1.
     200001    2    1    2    0    0  0.29799676999E+03 -0.55686838830E+03  0.82539971132E+03  0.12531901025E+04  0.70021159137E+03 0.  0.
    5000001    2    3    3    0    0  0.18733538531E+03 -0.22948813721E+03  0.35303413703E+03  0.48341545582E+03  0.14593851207E+03 0.  0.
        -13    1    4    4    0    0  0.13948479137E+03 -0.19713112358E+03  0.34000070812E+03  0.41703378711E+03  0.10566000000E+00 0. -1.
     200003    1    4    4    0    0  0.47850593933E+02 -0.32357013633E+02  0.13033428912E+02  0.66381668706E+02  0.30000000000E+02 0. -1.
     200000    1    3    3    0    0  0.11066138468E+03 -0.32738025109E+03  0.47236557429E+03  0.76977464665E+03  0.50000000000E+03 0.  1.
    -200001    1    1    2    0    0 -0.29799676999E+03  0.55686838830E+03  0.28931905645E+03  0.98620991337E+03  0.70000000000E+03 0. -1.
<mgrwt>
<rscale>  0 0.19422447E+04</rscale>
<asrwt>0</asrwt>
<pdfrwt beam="1">  1        3 0.23957991E+00 0.19422447E+04</pdfrwt>
<pdfrwt beam="2">  1       -3 0.80334376E-01 0.19422447E+04</pdfrwt>
<totfact> 0.30062048E-01</totfact>
</mgrwt>
</event>
<event>
 8    1  0.1206249E-029  0.1642384E+04  0.7818608E-02  0.8794925E-01
         -3   -1    0    0    0  501 -0.00000000000E+00  0.00000000000E+00  0.39579413415E+03  0.39579414704E+03  0.10100000000E+00 0. -1.
          3   -1    0    0  501    0  0.00000000000E+00 -0.00000000000E+00 -0.17038051711E+04  0.17038051741E+04  0.10100000000E+00 0.  1.
     200001    2    1    2    0    0 -0.29417832125E+03 -0.26186714681E+03 -0.87082656826E+03  0.11851346980E+04  0.70077817685E+03 0.  0.
    5000001    2    3    3    0    0 -0.11886081378E+03  0.29092452575E+02 -0.30900461178E+03  0.35988465851E+03  0.13805380647E+03 0.  0.
        -13    1    4    4    0    0 -0.39801043300E+02 -0.62037353797E+01 -0.24457320164E+03  0.24786825433E+03  0.10566000000E+00 0. -1.
     200003    1    4    4    0    0 -0.79059770479E+02  0.35296187954E+02 -0.64431410134E+02  0.11201640417E+03  0.30000000000E+02 0. -1.
     200000    1    3    3    0    0 -0.17531750748E+03 -0.29095959939E+03 -0.56182195649E+03  0.82525003950E+03  0.50000000000E+03 0. -1.
    -200001    1    1    2    0    0  0.29417832125E+03  0.26186714681E+03 -0.43718446867E+03  0.91446462311E+03  0.70000000000E+03 0.  1.
<mgrwt>
<rscale>  0 0.16423838E+04</rscale>
<asrwt>0</asrwt>
<pdfrwt beam="1">  1        3 0.24340074E+00 0.16423838E+04</pdfrwt>
<pdfrwt beam="2">  1       -3 0.56542021E-01 0.16423838E+04</pdfrwt>
<totfact> 0.62513406E-01</totfact>
</mgrwt>
</event>
<event>
 8    1  0.1206249E-029  0.1547278E+04  0.7818608E-02  0.8853609E-01
          3   -1    0    0  501    0  0.00000000000E+00  0.00000000000E+00  0.46972296815E+03  0.46972297901E+03  0.10100000000E+00 0.  1.
         -3   -1    0    0    0  501 -0.00000000000E+00 -0.00000000000E+00 -0.12741913241E+04  0.12741913281E+04  0.10100000000E+00 0. -1.
     200001    2    1    2    0    0  0.14095413508E+02  0.19886481058E+03 -0.69956411132E+03  0.10085567110E+04  0.69860632686E+03 0.  0.
    5000001    2    3    3    0    0 -0.92583128857E+02 -0.21837008179E+02 -0.13308779948E+03  0.21421105825E+03  0.13829506293E+03 0.  0.
        -13    1    4    4    0    0  0.34632608946E+02 -0.61782505046E+01 -0.38241766081E+02  0.51961834251E+02  0.10566000000E+00 0. -1.
     200003    1    4    4    0    0 -0.12721573780E+03 -0.15658757674E+02 -0.94846033396E+02  0.16224922400E+03  0.30000000000E+02 0. -1.
     200000    1    3    3    0    0  0.10667854237E+03  0.22070181876E+03 -0.56647631184E+03  0.79434565277E+03  0.50000000000E+03 0. -1.
    -200001    1    1    2    0    0 -0.14095413508E+02 -0.19886481058E+03 -0.10490424461E+03  0.73535759608E+03  0.70000000000E+03 0.  1.
<mgrwt>
<rscale>  0 0.15472775E+04</rscale>
<asrwt>0</asrwt>
<pdfrwt beam="1">  1        3 0.67103282E-01 0.15472775E+04</pdfrwt>
<pdfrwt beam="2">  1       -3 0.18202733E+00 0.15472775E+04</pdfrwt>
<totfact> 0.10388953E+00</totfact>
</mgrwt>
</event>
<event>
 8    1  0.1206249E-029  0.1514975E+04  0.7818608E-02  0.8874556E-01
         -3   -1    0    0    0  501 -0.00000000000E+00  0.00000000000E+00  0.96814074840E+03  0.96814075367E+03  0.10100000000E+00 0. -1.
          3   -1    0    0  501    0  0.00000000000E+00 -0.00000000000E+00 -0.59266899941E+03  0.59266900802E+03  0.10100000000E+00 0.  1.
     200001    2    1    2    0    0 -0.68027196469E+02 -0.15869624954E+03 -0.50489457557E+02  0.72339997636E+03  0.70067548937E+03 0.  0.
    5000001    2    3    3    0    0  0.62490035435E+02 -0.11821506714E+02  0.20774445875E+02  0.18147241493E+03  0.16868878810E+03 0.  0.
        -13    1    4    4    0    0 -0.47250724432E+02  0.32771249755E+02 -0.12601225718E+00  0.57503154809E+02  0.10566000000E+00 0. -1.
     200003    1    4    4    0    0  0.10974075987E+03 -0.44592756469E+02  0.20900458132E+02  0.12396926012E+03  0.30000000000E+02 0. -1.
     200000    1    3    3    0    0 -0.13051723190E+03 -0.14687474283E+03 -0.71263903432E+02  0.54192756143E+03  0.50000000000E+03 0. -1.
    -200001    1    1    2    0    0  0.68027196469E+02  0.15869624954E+03  0.42596120655E+03  0.83740978533E+03  0.70000000000E+03 0. -1.
<mgrwt>
<rscale>  0 0.15149746E+04</rscale>
<asrwt>0</asrwt>
<pdfrwt beam="1">  1        3 0.84667002E-01 0.15149746E+04</pdfrwt>
<pdfrwt beam="2">  1       -3 0.13830582E+00 0.15149746E+04</pdfrwt>
<totfact> 0.12942131E+00</totfact>
</mgrwt>
</event>
<event>
 8    1  0.1206249E-029  0.1692249E+04  0.7818608E-02  0.8765797E-01
         -3   -1    0    0    0  501 -0.00000000000E+00  0.00000000000E+00  0.57566350816E+03  0.57566351702E+03  0.10100000000E+00 0.  1.
          3   -1    0    0  501    0  0.00000000000E+00 -0.00000000000E+00 -0.12436554144E+04  0.12436554185E+04  0.10100000000E+00 0. -1.
     200001    2    1    2    0    0  0.95923583248E+02 -0.41133123753E+02  0.16445789107E+03  0.72667721350E+03  0.70008578545E+03 0.  0.
    5000001    2    3    3    0    0 -0.25435820002E+02 -0.30685444576E+02  0.15197472017E+02  0.19084521422E+03  0.18601708305E+03 0.  0.
        -13    1    4    4    0    0  0.51166401848E+02  0.20557766697E+02  0.62203989610E+02  0.83126228936E+02  0.10566000000E+00 0. -1.
     200003    1    4    4    0    0 -0.76602221850E+02 -0.51243211272E+02 -0.47006517593E+02  0.10771898528E+03  0.30000000000E+02 0. -1.
     200000    1    3    3    0    0  0.12135940325E+03 -0.10447679177E+02  0.14926041905E+03  0.53583199928E+03  0.50000000000E+03 0.  1.
    -200001    1    1    2    0    0 -0.95923583248E+02  0.41133123753E+02 -0.83244979732E+03  0.10926417220E+04  0.70000000000E+03 0. -1.
<mgrwt>
<rscale>  0 0.16922495E+04</rscale>
<asrwt>0</asrwt>
<pdfrwt beam="1">  1        3 0.17766506E+00 0.16922495E+04</pdfrwt>
<pdfrwt beam="2">  1       -3 0.82237646E-01 0.16922495E+04</pdfrwt>
<totfact> 0.70589862E-01</totfact>
</mgrwt>
</event>
<event>
 8    1  0.1206249E-029  0.1553252E+04  0.7818608E-02  0.8849793E-01
         -3   -1    0    0    0  501 -0.00000000000E+00  0.00000000000E+00  0.44616896369E+03  0.44616897512E+03  0.10100000000E+00 0.  1.
          3   -1    0    0  501    0  0.00000000000E+00 -0.00000000000E+00 -0.13518383256E+04  0.13518383294E+04  0.10100000000E+00 0. -1.
     200001    2    1    2    0    0  0.10211279801E+03 -0.29399987103E+03 -0.59935832269E+03  0.97296827488E+03  0.70040982094E+03 0.  0.
    5000001    2    3    3    0    0  0.97836445530E+02 -0.79712616912E+02 -0.27757987179E+03  0.34092501218E+03  0.15249002372E+03 0.  0.
        -13    1    4    4    0    0 -0.39104544325E+02 -0.85673303497E+01 -0.45398717162E+02  0.60527838390E+02  0.10566000000E+00 0. -1.
     200003    1    4    4    0    0  0.13694098985E+03 -0.71145286563E+02 -0.23218115463E+03  0.28039717379E+03  0.30000000000E+02 0. -1.
     200000    1    3    3    0    0  0.42763524837E+01 -0.21428725412E+03 -0.32177845089E+03  0.63204326270E+03  0.50000000000E+03 0.  1.
    -200001    1    1    2    0    0 -0.10211279801E+03  0.29399987103E+03 -0.30631103926E+03  0.82503902966E+03  0.70000000000E+03 0.  1.
<mgrwt>
<rscale>  0 0.15532525E+04</rscale>
<asrwt>0</asrwt>
<pdfrwt beam="1">  1        3 0.19311976E+00 0.15532525E+04</pdfrwt>
<pdfrwt beam="2">  1       -3 0.63738425E-01 0.15532525E+04</pdfrwt>
<totfact> 0.98632516E-01</totfact>
</mgrwt>
</event>
<event>
 8    1  0.1206249E-029  0.1853529E+04  0.7818608E-02  0.8678340E-01
         -3   -1    0    0    0  501 -0.00000000000E+00  0.00000000000E+00  0.30275195263E+04  0.30275195280E+04  0.10100000000E+00 0.  1.
          3   -1    0    0  501    0  0.00000000000E+00 -0.00000000000E+00 -0.28369494211E+03  0.28369496009E+03  0.10100000000E+00 0. -1.
     200001    2    1    2    0    0 -0.51190613199E+03  0.31220425045E+03  0.12051227697E+04  0.15175805634E+04  0.70086410542E+03 0.  0.
    5000001    2    3    3    0    0 -0.18537513348E+03  0.54736274252E+02  0.20240001176E+03  0.32243823667E+03  0.16012698672E+03 0.  0.
        -13    1    4    4    0    0 -0.81450731017E+02 -0.22045398529E+02  0.48961803249E+01  0.84523398686E+02  0.10566000000E+00 0. -1.
     200003    1    4    4    0    0 -0.10392440246E+03  0.76781672781E+02  0.19750383144E+03  0.23791483799E+03  0.30000000000E+02 0. -1.
     200000    1    3    3    0    0 -0.32653099852E+03  0.25746797620E+03  0.10027227579E+04  0.11951423267E+04  0.50000000000E+03 0.  1.
    -200001    1    1    2    0    0  0.51190613199E+03 -0.31220425045E+03  0.15387018145E+04  0.17936339247E+04  0.70000000000E+03 0. -1.
<mgrwt>
<rscale>  0 0.18535285E+04</rscale>
<asrwt>0</asrwt>
<pdfrwt beam="1">  1        3 0.40527851E-01 0.18535285E+04</pdfrwt>
<pdfrwt beam="2">  1       -3 0.43250278E+00 0.18535285E+04</pdfrwt>
<totfact> 0.10560680E-01</totfact>
</mgrwt>
</event>
<event>
 8    1  0.1206249E-029  0.1872702E+04  0.7818608E-02  0.8668565E-01
          3   -1    0    0  501    0  0.00000000000E+00  0.00000000000E+00  0.56807274535E+03  0.56807275433E+03  0.10100000000E+00 0.  1.
         -3   -1    0    0    0  501 -0.00000000000E+00 -0.00000000000E+00 -0.15433817517E+04  0.15433817550E+04  0.10100000000E+00 0. -1.
     200001    2    1    2    0    0  0.18723720350E+02  0.33167064154E+03  0.10543061077E+03  0.78165974615E+03  0.69965731105E+03 0.  0.
    5000001    2    3    3    0    0  0.25797795677E+02  0.39306805351E+02 -0.59839611811E+02  0.17929698027E+03  0.16234554747E+03 0.  0.
        -13    1    4    4    0    0 -0.28051366272E+02  0.58175229651E+02  0.27955825584E+02  0.70375960689E+02  0.10566000000E+00 0. -1.
     200003    1    4    4    0    0  0.53849161949E+02 -0.18868424301E+02 -0.87795437395E+02  0.10892101958E+03  0.30000000000E+02 0. -1.
     200000    1    3    3    0    0 -0.70740753266E+01  0.29236383619E+03  0.16527022258E+03  0.60236276588E+03  0.50000000000E+03 0.  1.
    -200001    1    1    2    0    0 -0.18723720350E+02 -0.33167064154E+03 -0.10807396171E+04  0.13297947631E+04  0.70000000000E+03 0. -1.
<mgrwt>
<rscale>  0 0.18727019E+04</rscale>
<asrwt>0</asrwt>
<pdfrwt beam="1">  1        3 0.81153251E-01 0.18727019E+04</pdfrwt>
<pdfrwt beam="2">  1       -3 0.22048311E+00 0.18727019E+04</pdfrwt>
<totfact> 0.38082671E-01</totfact>
</mgrwt>
</event>
<event>
 8    1  0.1206249E-029  0.1953805E+04  0.7818608E-02  0.8628528E-01
         -3   -1    0    0    0  501 -0.00000000000E+00  0.00000000000E+00  0.42360030096E+03  0.42360031300E+03  0.10100000000E+00 0. -1.
          3   -1    0    0  501    0  0.00000000000E+00 -0.00000000000E+00 -0.22529222840E+04  0.22529222863E+04  0.10100000000E+00 0.  1.
     200001    2    1    2    0    0 -0.32736511205E+03 -0.59322726581E+03 -0.10127454374E+04  0.14053484333E+04  0.70018882619E+03 0.  0.
    5000001    2    3    3    0    0 -0.59345696794E+02 -0.15345930591E+03 -0.22255597694E+03  0.33781405489E+03  0.19368919050E+03 0.  0.
        -13    1    4    4    0    0 -0.14290867953E+02  0.24727068965E+02 -0.12374254388E+03  0.12699561086E+03  0.10566000000E+00 0. -1.
     200003    1    4    4    0    0 -0.45054828841E+02 -0.17818637488E+03 -0.98813433053E+02  0.21081844404E+03  0.30000000000E+02 0. -1.
     200000    1    3    3    0    0 -0.26801941526E+03 -0.43976795990E+03 -0.79018946050E+03  0.10675343784E+04  0.50000000000E+03 0. -1.
    -200001    1    1    2    0    0  0.32736511205E+03  0.59322726581E+03 -0.81657654561E+03  0.12711741660E+04  0.70000000000E+03 0.  1.
<mgrwt>
<rscale>  0 0.19538051E+04</rscale>
<asrwt>0</asrwt>
<pdfrwt beam="1">  1        3 0.32184604E+00 0.19538051E+04</pdfrwt>
<pdfrwt beam="2">  1       -3 0.60514331E-01 0.19538051E+04</pdfrwt>
<totfact> 0.19238968E-01</totfact>
</mgrwt>
</event>
<event>
 8    1  0.1206249E-029  0.1403060E+04  0.7818608E-02  0.8951606E-01
         -3   -1    0    0    0  501 -0.00000000000E+00  0.00000000000E+00  0.15483435107E+04  0.15483435140E+04  0.10100000000E+00 0. -1.
          3   -1    0    0  501    0  0.00000000000E+00 -0.00000000000E+00 -0.31785237038E+03  0.31785238643E+03  0.10100000000E+00 0.  1.
     200001    2    1    2    0    0  0.19135691476E+02 -0.48686762631E+02  0.64067889342E+03  0.94934527893E+03  0.69860606827E+03 0.  0.
    5000001    2    3    3    0    0  0.99471350142E+02 -0.68164834617E+02  0.81996629053E+02  0.19505151265E+03  0.12954015298E+03 0.  0.
        -13    1    4    4    0    0  0.60743174623E+01 -0.75378788165E+02  0.18104370863E+02  0.77760134042E+02  0.10566000000E+00 0. -1.
     200003    1    4    4    0    0  0.93397032679E+02  0.72139535472E+01  0.63892258190E+02  0.11729137861E+03  0.30000000000E+02 0. -1.
     200000    1    3    3    0    0 -0.80335658666E+02  0.19478071987E+02  0.55868226436E+03  0.75429376628E+03  0.50000000000E+03 0.  1.
    -200001    1    1    2    0    0 -0.19135691476E+02  0.48686762631E+02  0.58981224694E+03  0.91685062152E+03  0.70000000000E+03 0. -1.
<mgrwt>
<rscale>  0 0.14030605E+04</rscale>
<asrwt>0</asrwt>
<pdfrwt beam="1">  1        3 0.45407484E-01 0.14030605E+04</pdfrwt>
<pdfrwt beam="2">  1       -3 0.22119193E+00 0.14030605E+04</pdfrwt>
<totfact> 0.13397811E+00</totfact>
</mgrwt>
</event>
<event>
 8    1  0.1206249E-029  0.1457455E+04  0.7818608E-02  0.8913248E-01
          3   -1    0    0  501    0  0.00000000000E+00  0.00000000000E+00  0.33729620863E+03  0.33729622375E+03  0.10100000000E+00 0.  1.
         -3   -1    0    0    0  501 -0.00000000000E+00 -0.00000000000E+00 -0.15744144366E+04  0.15744144399E+04  0.10100000000E+00 0. -1.
     200001    2    1    2    0    0 -0.18424121094E+03 -0.78883226875E+02 -0.66566546431E+03  0.98611590973E+03  0.69939022710E+03 0.  0.
    5000001    2    3    3    0    0 -0.11198119451E+03 -0.80073782585E+01 -0.26016894629E+03  0.33444703522E+03  0.17765987932E+03 0.  0.
        -13    1    4    4    0    0  0.24085589142E+02 -0.71290228046E+01 -0.16215636323E+03  0.16409032839E+03  0.10566000000E+00 0. -1.
     200003    1    4    4    0    0 -0.13606678366E+03 -0.87835545392E+00 -0.98012583061E+02  0.17035670683E+03  0.30000000000E+02 0. -1.
     200000    1    3    3    0    0 -0.72260016422E+02 -0.70875848617E+02 -0.40549651802E+03  0.65166887452E+03  0.50000000000E+03 0. -1.
    -200001    1    1    2    0    0  0.18424121094E+03  0.78883226875E+02 -0.57145276369E+03  0.92559475389E+03  0.70000000000E+03 0.  1.
<mgrwt>
<rscale>  0 0.14574554E+04</rscale>
<asrwt>0</asrwt>
<pdfrwt beam="1">  1        3 0.48185175E-01 0.14574554E+04</pdfrwt>
<pdfrwt beam="2">  1       -3 0.22491635E+00 0.14574554E+04</pdfrwt>
<totfact> 0.11235955E+00</totfact>
</mgrwt>
</event>
<event>
 8    1  0.1206249E-029  0.1437097E+04  0.7818608E-02  0.8927395E-01
          3   -1    0    0  501    0  0.00000000000E+00  0.00000000000E+00  0.19369973775E+03  0.19369976408E+03  0.10100000000E+00 0.  1.
         -3   -1    0    0    0  501 -0.00000000000E+00 -0.00000000000E+00 -0.26655289591E+04  0.26655289611E+04  0.10100000000E+00 0. -1.
     200001    2    1    2    0    0  0.24645635988E+02  0.15431038020E+03 -0.13088822758E+04  0.14928961525E+04  0.70081881354E+03 0.  0.
    5000001    2    3    3    0    0 -0.21155175019E+02  0.92340303993E+00 -0.49931489416E+03  0.52799997960E+03  0.17035322369E+03 0.  0.
        -13    1    4    4    0    0 -0.92330426808E+02  0.79705166152E+01 -0.23757946175E+03  0.25501460480E+03  0.10566000000E+00 0. -1.
     200003    1    4    4    0    0  0.71175251788E+02 -0.70471135752E+01 -0.26173543241E+03  0.27298537480E+03  0.30000000000E+02 0. -1.
     200000    1    3    3    0    0  0.45800811007E+02  0.15338697716E+03 -0.80956738162E+03  0.96489617288E+03  0.50000000000E+03 0.  1.
    -200001    1    1    2    0    0 -0.24645635988E+02 -0.15431038020E+03 -0.11629469456E+04  0.13663325727E+04  0.70000000000E+03 0.  1.
<mgrwt>
<rscale>  0 0.14370975E+04</rscale>
<asrwt>0</asrwt>
<pdfrwt beam="1">  1        3 0.27671395E-01 0.14370975E+04</pdfrwt>
<pdfrwt beam="2">  1       -3 0.38078983E+00 0.14370975E+04</pdfrwt>
<totfact> 0.44089651E-01</totfact>
</mgrwt>
</event>
<event>
 8    1  0.1206249E-029  0.2157427E+04  0.7818608E-02  0.8536360E-01
         -3   -1    0    0    0  501 -0.00000000000E+00  0.00000000000E+00  0.31921149938E+04  0.31921149954E+04  0.10100000000E+00 0.  1.
          3   -1    0    0  501    0  0.00000000000E+00 -0.00000000000E+00 -0.36453046514E+03  0.36453047913E+03  0.10100000000E+00 0. -1.
     200001    2    1    2    0    0 -0.64775840720E+03 -0.21055432490E+03  0.21685323224E+04  0.23783951241E+04  0.70021914779E+03 0.  0.
    5000001    2    3    3    0    0 -0.30589611025E+03 -0.64413086512E+02  0.67247461776E+03  0.75777309925E+03  0.15580912178E+03 0.  0.
        -13    1    4    4    0    0 -0.28219636314E+03 -0.44671867660E+02  0.46403955235E+03  0.54494319010E+03  0.10566000000E+00 0. -1.
     200003    1    4    4    0    0 -0.23699747114E+02 -0.19741218852E+02  0.20843506541E+03  0.21282990915E+03  0.30000000000E+02 0. -1.
     200000    1    3    3    0    0 -0.34186229695E+03 -0.14614123839E+03  0.14960577047E+04  0.16206220248E+04  0.50000000000E+03 0.  1.
    -200001    1    1    2    0    0  0.64775840720E+03  0.21055432490E+03  0.65905220623E+03  0.11782503505E+04  0.70000000000E+03 0. -1.
<mgrwt>
<rscale>  0 0.21574273E+04</rscale>
<asrwt>0</asrwt>
<pdfrwt beam="1">  1        3 0.52075778E-01 0.21574273E+04</pdfrwt>
<pdfrwt beam="2">  1       -3 0.45601646E+00 0.21574273E+04</pdfrwt>
<totfact> 0.46078664E-02</totfact>
</mgrwt>
</event>
<event>
 8    1  0.1206249E-029  0.1600278E+04  0.7818608E-02  0.8820377E-01
          3   -1    0    0  501    0  0.00000000000E+00  0.00000000000E+00  0.88998413693E+03  0.88998414266E+03  0.10100000000E+00 0.  1.
         -3   -1    0    0    0  501 -0.00000000000E+00 -0.00000000000E+00 -0.71936394181E+03  0.71936394890E+03  0.10100000000E+00 0. -1.
     200001    2    1    2    0    0 -0.28894926513E+03  0.91777084040E+02  0.32805388215E+03  0.83043854817E+03  0.70006722657E+03 0.  0.
    5000001    2    3    3    0    0  0.26170342868E+01  0.44381032273E+01  0.13950619670E+03  0.21546762673E+03  0.16412730919E+03 0.  0.
        -13    1    4    4    0    0 -0.68777970631E+02  0.25770601146E+02  0.29258869122E+02  0.79060898768E+02  0.10566000000E+00 0. -1.
     200003    1    4    4    0    0  0.71395004918E+02 -0.21332497919E+02  0.11024732758E+03  0.13640672796E+03  0.30000000000E+02 0. -1.
     200000    1    3    3    0    0 -0.29156629942E+03  0.87338980812E+02  0.18854768545E+03  0.61497092144E+03  0.50000000000E+03 0. -1.
    -200001    1    1    2    0    0  0.28894926513E+03 -0.91777084040E+02 -0.15743368704E+03  0.77890954339E+03  0.70000000000E+03 0. -1.
<mgrwt>
<rscale>  0 0.16002781E+04</rscale>
<asrwt>0</asrwt>
<pdfrwt beam="1">  1        3 0.12714059E+00 0.16002781E+04</pdfrwt>
<pdfrwt beam="2">  1       -3 0.10276628E+00 0.16002781E+04</pdfrwt>
<totfact> 0.10175787E+00</totfact>
</mgrwt>
</event>
<event>
 8    1  0.1206249E-029  0.1627127E+04  0.7818608E-02  0.8804054E-01
          3   -1    0    0  501    0  0.00000000000E+00  0.00000000000E+00  0.20826042253E+04  0.20826042277E+04  0.10100000000E+00 0.  1.
         -3   -1    0    0    0  501 -0.00000000000E+00 -0.00000000000E+00 -0.31781632003E+03  0.31781633608E+03  0.10100000000E+00 0. -1.
     200001    2    1    2    0    0  0.20024527093E+03  0.11924928060E+02  0.34706038894E+03  0.80662268360E+03  0.69996347597E+03 0.  0.
    5000001    2    3    3    0    0  0.39891126202E+02  0.12172922024E+03  0.14446127094E+03  0.23319715494E+03  0.13077671527E+03 0.  0.
        -13    1    4    4    0    0  0.53566556315E+02  0.13228334234E+03  0.90196081366E+02  0.16883010062E+03  0.10566000000E+00 0. -1.
     200003    1    4    4    0    0 -0.13675430113E+02 -0.10554122097E+02  0.54265189578E+02  0.64367054321E+02  0.30000000000E+02 0. -1.
     200000    1    3    3    0    0  0.16035414473E+03 -0.10980429218E+03  0.20259911799E+03  0.57342552867E+03  0.50000000000E+03 0. -1.
    -200001    1    1    2    0    0 -0.20024527093E+03 -0.11924928060E+02  0.14177275163E+04  0.15937978802E+04  0.70000000000E+03 0.  1.
<mgrwt>
<rscale>  0 0.16271271E+04</rscale>
<asrwt>0</asrwt>
<pdfrwt beam="1">  1        3 0.29751490E+00 0.16271271E+04</pdfrwt>
<pdfrwt beam="2">  1       -3 0.45402331E-01 0.16271271E+04</pdfrwt>
<totfact> 0.48705199E-01</totfact>
</mgrwt>
</event>
<event>
 8    1  0.1206249E-029  0.1677681E+04  0.7818608E-02  0.8774197E-01
         -3   -1    0    0    0  501 -0.00000000000E+00  0.00000000000E+00  0.12780571961E+04  0.12780572001E+04  0.10100000000E+00 0. -1.
          3   -1    0    0  501    0  0.00000000000E+00 -0.00000000000E+00 -0.55056487254E+03  0.55056488181E+03  0.10100000000E+00 0.  1.
     200001    2    1    2    0    0 -0.44808175391E+03 -0.94995241540E+02  0.43250979462E+03  0.94159556231E+03  0.69981149349E+03 0.  0.
    5000001    2    3    3    0    0  0.14219374542E+01 -0.84863027852E+02  0.17836899126E+03  0.22274663643E+03  0.10294081598E+03 0.  0.
        -13    1    4    4    0    0 -0.25379491584E+02 -0.52120952172E+02  0.29389190402E+02  0.64995753130E+02  0.10566000000E+00 0. -1.
     200003    1    4    4    0    0  0.26801429039E+02 -0.32742075680E+02  0.14897980086E+03  0.15775088330E+03  0.30000000000E+02 0. -1.
     200000    1    3    3    0    0 -0.44950369137E+03 -0.10132213688E+02  0.25414080336E+03  0.71884892588E+03  0.50000000000E+03 0. -1.
    -200001    1    1    2    0    0  0.44808175391E+03  0.94995241540E+02  0.29498252896E+03  0.88702651961E+03  0.70000000000E+03 0.  1.
<mgrwt>
<rscale>  0 0.16776810E+04</rscale>
<asrwt>0</asrwt>
<pdfrwt beam="1">  1        3 0.78652127E-01 0.16776810E+04</pdfrwt>
<pdfrwt beam="2">  1       -3 0.18257960E+00 0.16776810E+04</pdfrwt>
<totfact> 0.72054561E-01</totfact>
</mgrwt>
</event>
<event>
 8    1  0.1206249E-029  0.2244531E+04  0.7818608E-02  0.8500119E-01
          3   -1    0    0  501    0  0.00000000000E+00  0.00000000000E+00  0.90699117972E+03  0.90699118534E+03  0.10100000000E+00 0.  1.
         -3   -1    0    0    0  501 -0.00000000000E+00 -0.00000000000E+00 -0.13886348861E+04  0.13886348897E+04  0.10100000000E+00 0. -1.
     200001    2    1    2    0    0  0.31483004633E+03 -0.40598277198E+02  0.59745251843E+03  0.97078086128E+03  0.69620384275E+03 0.  0.
    5000001    2    3    3    0    0  0.19019905077E+03  0.10898572486E+02  0.29729892545E+03  0.37221842513E+03  0.11775163328E+03 0.  0.
        -13    1    4    4    0    0  0.12944770841E+03  0.24886917450E+02  0.26477003012E+03  0.29576890960E+03  0.10566000000E+00 0. -1.
     200003    1    4    4    0    0  0.60751342366E+02 -0.13988344964E+02  0.32528895325E+02  0.76449515533E+02  0.30000000000E+02 0. -1.
     200000    1    3    3    0    0  0.12463099556E+03 -0.51496849684E+02  0.30015359299E+03  0.59856243614E+03  0.50000000000E+03 0.  1.
    -200001    1    1    2    0    0 -0.31483004633E+03  0.40598277198E+02 -0.10790962248E+04  0.13248452138E+04  0.70000000000E+03 0. -1.
<mgrwt>
<rscale>  0 0.22445308E+04</rscale>
<asrwt>0</asrwt>
<pdfrwt beam="1">  1        3 0.12957017E+00 0.22445308E+04</pdfrwt>
<pdfrwt beam="2">  1       -3 0.19837641E+00 0.22445308E+04</pdfrwt>
<totfact> 0.16852093E-01</totfact>
</mgrwt>
</event>
<event>
 8    1  0.1206249E-029  0.1582143E+04  0.7818608E-02  0.8831594E-01
         -3   -1    0    0    0  501 -0.00000000000E+00  0.00000000000E+00  0.10288941188E+04  0.10288941237E+04  0.10100000000E+00 0.  1.
          3   -1    0    0  501    0  0.00000000000E+00 -0.00000000000E+00 -0.60822021612E+03  0.60822022451E+03  0.10100000000E+00 0. -1.
     200001    2    1    2    0    0  0.49040057677E+02  0.15113088268E+03 -0.13481998940E+03  0.72946962971E+03  0.69907370153E+03 0.  0.
    5000001    2    3    3    0    0 -0.29835182570E+02  0.12087288595E+03 -0.10249568212E+03  0.22135378590E+03  0.15163027733E+03 0.  0.
        -13    1    4    4    0    0  0.92334154165E+01 -0.57183665695E+01 -0.83490107134E+02  0.84193615136E+02  0.10566000000E+00 0. -1.
     200003    1    4    4    0    0 -0.39068597987E+02  0.12659125252E+03 -0.19005574981E+02  0.13716017076E+03  0.30000000000E+02 0.  1.
     200000    1    3    3    0    0  0.78875240248E+02  0.30257996726E+02 -0.32324307281E+02  0.50811584381E+03  0.50000000000E+03 0. -1.
    -200001    1    1    2    0    0 -0.49040057677E+02 -0.15113088268E+03  0.55549389204E+03  0.90764471851E+03  0.70000000000E+03 0.  1.
<mgrwt>
<rscale>  0 0.15821431E+04</rscale>
<asrwt>0</asrwt>
<pdfrwt beam="1">  1        3 0.86888603E-01 0.15821431E+04</pdfrwt>
<pdfrwt beam="2">  1       -3 0.14698487E+00 0.15821431E+04</pdfrwt>
<totfact> 0.10391278E+00</totfact>
</mgrwt>
</event>
<event>
 8    1  0.1206249E-029  0.1611868E+04  0.7818608E-02  0.8813290E-01
          3   -1    0    0  501    0  0.00000000000E+00  0.00000000000E+00  0.23156398240E+04  0.23156398262E+04  0.10100000000E+00 0. -1.
         -3   -1    0    0    0  501 -0.00000000000E+00 -0.00000000000E+00 -0.28049675558E+03  0.28049677376E+03  0.10100000000E+00 0.  1.
     200001    2    1    2    0    0  0.22616379640E+03  0.19530554379E+03  0.14436444027E+04  0.16322045537E+04  0.70049141718E+03 0.  0.
    5000001    2    3    3    0    0  0.74899579213E+01  0.12198950187E+03  0.12169703960E+03  0.20016463794E+03  0.10157841698E+03 0.  0.
        -13    1    4    4    0    0  0.31393441900E+02  0.48774408965E+02  0.98510905486E+02  0.11431929333E+03  0.10566000000E+00 0. -1.
     200003    1    4    4    0    0 -0.23903483979E+02  0.73215092901E+02  0.23186134117E+02  0.85845344603E+02  0.30000000000E+02 0. -1.
     200000    1    3    3    0    0  0.21867383848E+03  0.73316041925E+02  0.13219473631E+04  0.14320399158E+04  0.50000000000E+03 0. -1.
    -200001    1    1    2    0    0 -0.22616379640E+03 -0.19530554379E+03  0.59149866578E+03  0.96393204628E+03  0.70000000000E+03 0.  1.
<mgrwt>
<rscale>  0 0.16118678E+04</rscale>
<asrwt>0</asrwt>
<pdfrwt beam="1">  1        3 0.33080568E+00 0.16118678E+04</pdfrwt>
<pdfrwt beam="2">  1       -3 0.40070967E-01 0.16118678E+04</pdfrwt>
<totfact> 0.41168115E-01</totfact>
</mgrwt>
</event>
<event>
 8    1  0.1206249E-029  0.1698175E+04  0.7818608E-02  0.8762406E-01
          3   -1    0    0  501    0  0.00000000000E+00  0.00000000000E+00  0.49768482318E+03  0.49768483342E+03  0.10100000000E+00 0.  1.
         -3   -1    0    0    0  501 -0.00000000000E+00 -0.00000000000E+00 -0.14486065963E+04  0.14486065999E+04  0.10100000000E+00 0. -1.
     200001    2    1    2    0    0  0.21370798653E+03 -0.17049473537E+03 -0.23064014611E+02  0.75228155962E+03  0.70046844175E+03 0.  0.
    5000001    2    3    3    0    0 -0.18825955234E+02 -0.11615249408E+03 -0.11054464422E+02  0.19805295827E+03  0.15892436762E+03 0.  0.
        -13    1    4    4    0    0 -0.73443391005E+02 -0.22501083326E+02  0.23584269612E+02  0.80352096241E+02  0.10566000000E+00 0. -1.
     200003    1    4    4    0    0  0.54617435771E+02 -0.93651410757E+02 -0.34638734034E+02  0.11770086203E+03  0.30000000000E+02 0. -1.
     200000    1    3    3    0    0  0.23253394176E+03 -0.54342241286E+02 -0.12009550189E+02  0.55422860135E+03  0.50000000000E+03 0.  1.
    -200001    1    1    2    0    0 -0.21370798653E+03  0.17049473537E+03 -0.92785775855E+03  0.11940098737E+04  0.70000000000E+03 0. -1.
<mgrwt>
<rscale>  0 0.16981749E+04</rscale>
<asrwt>0</asrwt>
<pdfrwt beam="1">  1        3 0.71097833E-01 0.16981749E+04</pdfrwt>
<pdfrwt beam="2">  1       -3 0.20694380E+00 0.16981749E+04</pdfrwt>
<totfact> 0.62626139E-01</totfact>
</mgrwt>
</event>
<event>
 8    1  0.1206249E-029  0.1529160E+04  0.7818608E-02  0.8865290E-01
         -3   -1    0    0    0  501 -0.00000000000E+00  0.00000000000E+00  0.23976335243E+04  0.23976335264E+04  0.10100000000E+00 0.  1.
          3   -1    0    0  501    0  0.00000000000E+00 -0.00000000000E+00 -0.24381632910E+03  0.24381635002E+03  0.10100000000E+00 0. -1.
     200001    2    1    2    0    0 -0.11855927782E+03  0.18813782277E+03  0.71073028478E+03  0.10222056164E+04  0.70022470803E+03 0.  0.
    5000001    2    3    3    0    0 -0.95801048067E+02  0.19113628889E+03  0.17150145602E+03  0.28647831799E+03  0.83343599180E+02 0.  0.
        -13    1    4    4    0    0 -0.91532034619E+02  0.12740205632E+03  0.10011704387E+03  0.18609898160E+03  0.10566000000E+00 0. -1.
     200003    1    4    4    0    0 -0.42690134489E+01  0.63734232566E+02  0.71384412151E+02  0.10037933639E+03  0.30000000000E+02 0.  1.
     200000    1    3    3    0    0 -0.22758229752E+02 -0.29984661190E+01  0.53922882876E+03  0.73572729838E+03  0.50000000000E+03 0. -1.
    -200001    1    1    2    0    0  0.11855927782E+03 -0.18813782277E+03  0.14430869104E+04  0.16192442601E+04  0.70000000000E+03 0.  1.
<mgrwt>
<rscale>  0 0.15291596E+04</rscale>
<asrwt>0</asrwt>
<pdfrwt beam="1">  1        3 0.34830908E-01 0.15291596E+04</pdfrwt>
<pdfrwt beam="2">  1       -3 0.34251906E+00 0.15291596E+04</pdfrwt>
<totfact> 0.45838665E-01</totfact>
</mgrwt>
</event>
<event>
 8    1  0.1206249E-029  0.1830173E+04  0.7818608E-02  0.8690416E-01
          3   -1    0    0  501    0  0.00000000000E+00  0.00000000000E+00  0.23694343921E+03  0.23694346073E+03  0.10100000000E+00 0.  1.
         -3   -1    0    0    0  501 -0.00000000000E+00 -0.00000000000E+00 -0.35341056063E+04  0.35341056077E+04  0.10100000000E+00 0. -1.
     200001    2    1    2    0    0  0.27744798087E+03  0.23550457953E+03 -0.69330317688E+03  0.10502915581E+04  0.70000233784E+03 0.  0.
    5000001    2    3    3    0    0  0.39720787737E+02  0.43578484320E+02 -0.18188263938E+03  0.27253786285E+03  0.19421319962E+03 0.  0.
        -13    1    4    4    0    0  0.54340630304E+02  0.45189156442E+02  0.15493748331E+02  0.72353516591E+02  0.10566000000E+00 0. -1.
     200003    1    4    4    0    0 -0.14619842567E+02 -0.16106721221E+01 -0.19737638771E+03  0.20018434626E+03  0.30000000000E+02 0. -1.
     200000    1    3    3    0    0  0.23772719313E+03  0.19192609521E+03 -0.51142053750E+03  0.77775369530E+03  0.50000000000E+03 0.  1.
    -200001    1    1    2    0    0 -0.27744798087E+03 -0.23550457953E+03 -0.26038589902E+04  0.27207575103E+04  0.70000000000E+03 0. -1.
<mgrwt>
<rscale>  0 0.18301729E+04</rscale>
<asrwt>0</asrwt>
<pdfrwt beam="1">  1        3 0.33849067E-01 0.18301729E+04</pdfrwt>
<pdfrwt beam="2">  1       -3 0.50487220E+00 0.18301729E+04</pdfrwt>
<totfact> 0.61514730E-02</totfact>
</mgrwt>
</event>
<event>
 8    1  0.1206249E-029  0.2666551E+04  0.7818608E-02  0.8345940E-01
         -3   -1    0    0    0  501 -0.00000000000E+00  0.00000000000E+00  0.13621456794E+04  0.13621456831E+04  0.10100000000E+00 0. -1.
          3   -1    0    0  501    0  0.00000000000E+00 -0.00000000000E+00 -0.13050171611E+04  0.13050171650E+04  0.10100000000E+00 0.  1.
     200001    2    1    2    0    0  0.33568935455E+03  0.10671304892E+04 -0.15923162771E+03  0.13299020147E+04  0.70130580612E+03 0.  0.
    5000001    2    3    3    0    0  0.23518176530E+02  0.83061723175E+02 -0.12775740853E+03  0.18236865696E+03  0.97385918503E+02 0.  0.
        -13    1    4    4    0    0  0.24404935741E+02 -0.78276583522E+00  0.25358975857E+01  0.24549043800E+02  0.10566000000E+00 0. -1.
     200003    1    4    4    0    0 -0.88675921143E+00  0.83844489010E+02 -0.13029330611E+03  0.15781961316E+03  0.30000000000E+02 0. -1.
     200000    1    3    3    0    0  0.31217117802E+03  0.98406876603E+03 -0.31474219188E+02  0.11475333577E+04  0.50000000000E+03 0.  1.
    -200001    1    1    2    0    0 -0.33568935455E+03 -0.10671304892E+04  0.21636014598E+03  0.13372608334E+04  0.70000000000E+03 0. -1.
<mgrwt>
<rscale>  0 0.26665510E+04</rscale>
<asrwt>0</asrwt>
<pdfrwt beam="1">  1        3 0.18643102E+00 0.26665510E+04</pdfrwt>
<pdfrwt beam="2">  1       -3 0.19459224E+00 0.26665510E+04</pdfrwt>
<totfact> 0.65987675E-02</totfact>
</mgrwt>
</event>
<event>
 8    1  0.1206249E-029  0.1803193E+04  0.7818608E-02  0.8704603E-01
         -3   -1    0    0    0  501 -0.00000000000E+00  0.00000000000E+00  0.57932793184E+03  0.57932794065E+03  0.10100000000E+00 0. -1.
          3   -1    0    0  501    0  0.00000000000E+00 -0.00000000000E+00 -0.14031370886E+04  0.14031370923E+04  0.10100000000E+00 0.  1.
     200001    2    1    2    0    0 -0.32934667091E+03  0.20181174914E+03 -0.86937958975E+03  0.11816692562E+04  0.70094518197E+03 0.  0.
    5000001    2    3    3    0    0 -0.90629422261E+02 -0.96921144770E+01 -0.23100542320E+03  0.31032467125E+03  0.18609209218E+03 0.  0.
        -13    1    4    4    0    0 -0.18073491436E+02 -0.75941175500E+02 -0.17878611158E+03  0.19508510473E+03  0.10566000000E+00 0. -1.
     200003    1    4    4    0    0 -0.72555930825E+02  0.66249061023E+02 -0.52219311617E+02  0.11523956651E+03  0.30000000000E+02 0. -1.
     200000    1    3    3    0    0 -0.23871724865E+03  0.21150386362E+03 -0.63837416655E+03  0.87134458491E+03  0.50000000000E+03 0.  1.
    -200001    1    1    2    0    0  0.32934667091E+03 -0.20181174914E+03  0.45570432958E+02  0.80079577677E+03  0.70000000000E+03 0. -1.
<mgrwt>
<rscale>  0 0.18031933E+04</rscale>
<asrwt>0</asrwt>
<pdfrwt beam="1">  1        3 0.20044815E+00 0.18031933E+04</pdfrwt>
<pdfrwt beam="2">  1       -3 0.82761135E-01 0.18031933E+04</pdfrwt>
<totfact> 0.49027807E-01</totfact>
</mgrwt>
</event>
<event>
 8    1  0.1206249E-029  0.1589183E+04  0.7818608E-02  0.8827221E-01
         -3   -1    0    0    0  501 -0.00000000000E+00  0.00000000000E+00  0.39815010266E+03  0.39815011547E+03  0.10100000000E+00 0. -1.
          3   -1    0    0  501    0  0.00000000000E+00 -0.00000000000E+00 -0.15857730751E+04  0.15857730784E+04  0.10100000000E+00 0.  1.
     200001    2    1    2    0    0  0.20711895559E+03 -0.14641806294E+02 -0.98583768822E+03  0.12264075536E+04  0.69934747854E+03 0.  0.
    5000001    2    3    3    0    0  0.67583872456E+01  0.45410568523E+02 -0.24339449304E+03  0.30718367274E+03  0.18169516786E+03 0.  0.
        -13    1    4    4    0    0 -0.29545459605E+02 -0.60568426067E+02 -0.60182580683E+02  0.90351660755E+02  0.10566000000E+00 0. -1.
     200003    1    4    4    0    0  0.36303846851E+02  0.10597899459E+03 -0.18321191236E+03  0.21683201198E+03  0.30000000000E+02 0. -1.
     200000    1    3    3    0    0  0.20036056834E+03 -0.60052374818E+02 -0.74244319518E+03  0.91922388086E+03  0.50000000000E+03 0.  1.
    -200001    1    1    2    0    0 -0.20711895559E+03  0.14641806294E+02 -0.20178528425E+03  0.75751564023E+03  0.70000000000E+03 0. -1.
<mgrwt>
<rscale>  0 0.15891831E+04</rscale>
<asrwt>0</asrwt>
<pdfrwt beam="1">  1        3 0.22653901E+00 0.15891831E+04</pdfrwt>
<pdfrwt beam="2">  1       -3 0.56878588E-01 0.15891831E+04</pdfrwt>
<totfact> 0.77869784E-01</totfact>
</mgrwt>
</event>
<event>
 8    1  0.1206249E-029  0.2254096E+04  0.7818608E-02  0.8496244E-01
         -3   -1    0    0    0  501 -0.00000000000E+00  0.00000000000E+00  0.82980771540E+03  0.82980772154E+03  0.10100000000E+00 0.  1.
          3   -1    0    0  501    0  0.00000000000E+00 -0.00000000000E+00 -0.15307607713E+04  0.15307607746E+04  0.10100000000E+00 0. -1.
     200001    2    1    2    0    0 -0.36759082768E+03  0.36393516475E+03  0.39892102363E+03  0.95796562594E+03  0.70070559912E+03 0.  0.
    5000001    2    3    3    0    0 -0.14252405585E+03  0.17614303046E+03  0.26362812692E+02  0.26896594668E+03  0.14250687317E+03 0.  0.
        -13    1    4    4    0    0 -0.29777148430E+02  0.70775439169E+02  0.72007619904E+02  0.10526609068E+03  0.10566000000E+00 0. -1.
     200003    1    4    4    0    0 -0.11274690742E+03  0.10536759129E+03 -0.45644807213E+02  0.16369985600E+03  0.30000000000E+02 0. -1.
     200000    1    3    3    0    0 -0.22506677183E+03  0.18779213428E+03  0.37255821094E+03  0.68899967926E+03  0.50000000000E+03 0.  1.
    -200001    1    1    2    0    0  0.36759082768E+03 -0.36393516475E+03 -0.10998740795E+04  0.14026028702E+04  0.70000000000E+03 0. -1.
<mgrwt>
<rscale>  0 0.22540959E+04</rscale>
<asrwt>0</asrwt>
<pdfrwt beam="1">  1        3 0.21868011E+00 0.22540959E+04</pdfrwt>
<pdfrwt beam="2">  1       -3 0.11854396E+00 0.22540959E+04</pdfrwt>
<totfact> 0.15756798E-01</totfact>
</mgrwt>
</event>
<event>
 8    1  0.1206249E-029  0.1879869E+04  0.7818608E-02  0.8664942E-01
         -3   -1    0    0    0  501 -0.00000000000E+00  0.00000000000E+00  0.14080743994E+04  0.14080744030E+04  0.10100000000E+00 0. -1.
          3   -1    0    0  501    0  0.00000000000E+00 -0.00000000000E+00 -0.62743622578E+03  0.62743623391E+03  0.10100000000E+00 0.  1.
     200001    2    1    2    0    0  0.60946268468E+03 -0.92062545334E+02  0.26432419774E+03  0.96944291020E+03  0.70002285560E+03 0.  0.
    5000001    2    3    3    0    0  0.18801079951E+03  0.33857359221E+02  0.12802688692E+03  0.28969702326E+03  0.17617917018E+03 0.  0.
        -13    1    4    4    0    0  0.77589347914E+02  0.10028222764E+03  0.73808343127E+02  0.14671167223E+03  0.10566000000E+00 0. -1.
     200003    1    4    4    0    0  0.11042145159E+03 -0.66424868421E+02  0.54218543788E+02  0.14298535102E+03  0.30000000000E+02 0. -1.
     200000    1    3    3    0    0  0.42145188517E+03 -0.12591990456E+03  0.13629731082E+03  0.67974588694E+03  0.50000000000E+03 0.  1.
    -200001    1    1    2    0    0 -0.60946268468E+03  0.92062545334E+02  0.51631397586E+03  0.10660677267E+04  0.70000000000E+03 0.  1.
<mgrwt>
<rscale>  0 0.18798690E+04</rscale>
<asrwt>0</asrwt>
<pdfrwt beam="1">  1        3 0.89633748E-01 0.18798690E+04</pdfrwt>
<pdfrwt beam="2">  1       -3 0.20115348E+00 0.18798690E+04</pdfrwt>
<totfact> 0.40048413E-01</totfact>
</mgrwt>
</event>
<event>
 8    1  0.1206249E-029  0.1712560E+04  0.7818608E-02  0.8754233E-01
          3   -1    0    0  501    0  0.00000000000E+00  0.00000000000E+00  0.13397757283E+04  0.13397757322E+04  0.10100000000E+00 0.  1.
         -3   -1    0    0    0  501 -0.00000000000E+00 -0.00000000000E+00 -0.54726710040E+03  0.54726710972E+03  0.10100000000E+00 0. -1.
     200001    2    1    2    0    0 -0.37562478321E+03  0.21223090649E+03  0.65903610024E+03  0.10540057172E+04  0.70033101819E+03 0.  0.
    5000001    2    3    3    0    0 -0.13462558024E+03  0.88803417010E+02  0.17783829572E+03  0.30911224289E+03  0.19471472866E+03 0.  0.
        -13    1    4    4    0    0  0.22802255285E+02  0.79377980925E+01  0.11716767083E+03  0.11962953538E+03  0.10566000000E+00 0. -1.
     200003    1    4    4    0    0 -0.15742783552E+03  0.80865618918E+02  0.60670624888E+02  0.18948270751E+03  0.30000000000E+02 0. -1.
     200000    1    3    3    0    0 -0.24099920297E+03  0.12342748948E+03  0.48119780453E+03  0.74489347431E+03  0.50000000000E+03 0.  1.
    -200001    1    1    2    0    0  0.37562478321E+03 -0.21223090649E+03  0.13347252770E+03  0.83303712467E+03  0.70000000000E+03 0.  1.
<mgrwt>
<rscale>  0 0.17125597E+04</rscale>
<asrwt>0</asrwt>
<pdfrwt beam="1">  1        3 0.19139653E+00 0.17125597E+04</pdfrwt>
<pdfrwt beam="2">  1       -3 0.78181015E-01 0.17125597E+04</pdfrwt>
<totfact> 0.64055954E-01</totfact>
</mgrwt>
</event>
<event>
 8    1  0.1206249E-029  0.1649174E+04  0.7818608E-02  0.8790896E-01
         -3   -1    0    0    0  501 -0.00000000000E+00  0.00000000000E+00  0.15895077245E+04  0.15895077277E+04  0.10100000000E+00 0. -1.
          3   -1    0    0  501    0  0.00000000000E+00 -0.00000000000E+00 -0.42776976004E+03  0.42776977196E+03  0.10100000000E+00 0.  1.
     200001    2    1    2    0    0 -0.23376596561E+03 -0.32411903684E+03  0.36893758687E+03  0.88668822170E+03  0.70028664330E+03 0.  0.
    5000001    2    3    3    0    0 -0.49640520983E+02 -0.11230339968E+02  0.15427670905E+03  0.23256223349E+03  0.16641390456E+03 0.  0.
        -13    1    4    4    0    0  0.17187517999E+02  0.25621116459E+02 -0.22170376657E+02  0.37991961633E+02  0.10566000000E+00 0. -1.
     200003    1    4    4    0    0 -0.66828038982E+02 -0.36851456427E+02  0.17644708571E+03  0.19457027186E+03  0.30000000000E+02 0. -1.
     200000    1    3    3    0    0 -0.18412544462E+03 -0.31288869687E+03  0.21466087782E+03  0.65412598821E+03  0.50000000000E+03 0.  1.
    -200001    1    1    2    0    0  0.23376596561E+03  0.32411903684E+03  0.79280037754E+03  0.11305892779E+04  0.70000000000E+03 0. -1.
<mgrwt>
<rscale>  0 0.16491736E+04</rscale>
<asrwt>0</asrwt>
<pdfrwt beam="1">  1        3 0.61109967E-01 0.16491736E+04</pdfrwt>
<pdfrwt beam="2">  1       -3 0.22707253E+00 0.16491736E+04</pdfrwt>
<totfact> 0.65602981E-01</totfact>
</mgrwt>
</event>
<event>
 8    1  0.1206249E-029  0.2130581E+04  0.7818608E-02  0.8547891E-01
         -3   -1    0    0    0  501 -0.00000000000E+00  0.00000000000E+00  0.37435144530E+03  0.37435145892E+03  0.10100000000E+00 0. -1.
          3   -1    0    0  501    0  0.00000000000E+00 -0.00000000000E+00 -0.30314929451E+04  0.30314929467E+04  0.10100000000E+00 0.  1.
     200001    2    1    2    0    0 -0.26150462612E+03 -0.23512823059E+03 -0.24826050629E+04  0.26032654861E+04  0.69999524175E+03 0.  0.
    5000001    2    3    3    0    0 -0.73968909452E+02 -0.13286878331E+03 -0.47228856672E+03  0.52071919504E+03  0.15800783742E+03 0.  0.
        -13    1    4    4    0    0 -0.40675468372E-01  0.33654750665E+02 -0.56328353752E+02  0.65616602299E+02  0.10566000000E+00 0. -1.
     200003    1    4    4    0    0 -0.73928233983E+02 -0.16652353397E+03 -0.41596021296E+03  0.45510259274E+03  0.30000000000E+02 0. -1.
     200000    1    3    3    0    0 -0.18753571667E+03 -0.10225944728E+03 -0.20103164962E+04  0.20825462911E+04  0.50000000000E+03 0.  1.
    -200001    1    1    2    0    0  0.26150462612E+03  0.23512823059E+03 -0.17453643683E+03  0.80257891954E+03  0.70000000000E+03 0. -1.
<mgrwt>
<rscale>  0 0.21305809E+04</rscale>
<asrwt>0</asrwt>
<pdfrwt beam="1">  1        3 0.43307041E+00 0.21305809E+04</pdfrwt>
<pdfrwt beam="2">  1       -3 0.53478781E-01 0.21305809E+04</pdfrwt>
<totfact> 0.62451639E-02</totfact>
</mgrwt>
</event>
<event>
 8    1  0.1206249E-029  0.1537601E+04  0.7818608E-02  0.8859827E-01
         -3   -1    0    0    0  501 -0.00000000000E+00  0.00000000000E+00  0.13659312574E+04  0.13659312612E+04  0.10100000000E+00 0.  1.
          3   -1    0    0  501    0  0.00000000000E+00 -0.00000000000E+00 -0.43271161036E+03  0.43271162215E+03  0.10100000000E+00 0. -1.
     200001    2    1    2    0    0  0.12738114133E+02  0.31759157002E+03  0.48612448414E+03  0.90930563029E+03  0.69963779936E+03 0.  0.
    5000001    2    3    3    0    0  0.23221672051E+02  0.11576411010E+03  0.17403137507E+03  0.28621146622E+03  0.19413785990E+03 0.  0.
        -13    1    4    4    0    0  0.66202029664E+02  0.11024695183E+03  0.19151399936E+03  0.23068316418E+03  0.10566000000E+00 0. -1.
     200003    1    4    4    0    0 -0.42980357613E+02  0.55171582704E+01 -0.17482624287E+02  0.55528302044E+02  0.30000000000E+02 0. -1.
     200000    1    3    3    0    0 -0.10483557918E+02  0.20182745992E+03  0.31209310907E+03  0.62309416406E+03  0.50000000000E+03 0. -1.
    -200001    1    1    2    0    0 -0.12738114133E+02 -0.31759157002E+03  0.44709516291E+03  0.88933725301E+03  0.70000000000E+03 0. -1.
<mgrwt>
<rscale>  0 0.15376012E+04</rscale>
<asrwt>0</asrwt>
<pdfrwt beam="1">  1        3 0.61815945E-01 0.15376012E+04</pdfrwt>
<pdfrwt beam="2">  1       -3 0.19513304E+00 0.15376012E+04</pdfrwt>
<totfact> 0.10174045E+00</totfact>
</mgrwt>
</event>
<event>
 8    1  0.1206249E-029  0.1788152E+04  0.7818608E-02  0.8712625E-01
         -3   -1    0    0    0  501 -0.00000000000E+00  0.00000000000E+00  0.20395127836E+04  0.20395127861E+04  0.10100000000E+00 0. -1.
          3   -1    0    0  501    0  0.00000000000E+00 -0.00000000000E+00 -0.39194266161E+03  0.39194267462E+03  0.10100000000E+00 0.  1.
     200001    2    1    2    0    0  0.47806899877E+03  0.20640704148E+03  0.55956208900E+03  0.10368532543E+04  0.70057198423E+03 0.  0.
    5000001    2    3    3    0    0 -0.93848255394E+01  0.99333519350E+02  0.12678640986E+03  0.20837829483E+03  0.13187682515E+03 0.  0.
        -13    1    4    4    0    0 -0.47082397796E+02  0.49238261037E+01  0.60593444991E+01  0.47725497017E+02  0.10566000000E+00 0. -1.
     200003    1    4    4    0    0  0.37697572257E+02  0.94409693246E+02  0.12072706537E+03  0.16065279781E+03  0.30000000000E+02 0. -1.
     200000    1    3    3    0    0  0.48745382431E+03  0.10707352213E+03  0.43277567913E+03  0.82847495945E+03  0.50000000000E+03 0.  1.
    -200001    1    1    2    0    0 -0.47806899877E+03 -0.20640704148E+03  0.10880080330E+04  0.13946022064E+04  0.70000000000E+03 0. -1.
<mgrwt>
<rscale>  0 0.17881522E+04</rscale>
<asrwt>0</asrwt>
<pdfrwt beam="1">  1        3 0.55991810E-01 0.17881522E+04</pdfrwt>
<pdfrwt beam="2">  1       -3 0.29135897E+00 0.17881522E+04</pdfrwt>
<totfact> 0.33242781E-01</totfact>
</mgrwt>
</event>
<event>
 8    1  0.1206249E-029  0.2183229E+04  0.7818608E-02  0.8525441E-01
         -3   -1    0    0    0  501 -0.00000000000E+00  0.00000000000E+00  0.22104900138E+04  0.22104900161E+04  0.10100000000E+00 0. -1.
          3   -1    0    0  501    0  0.00000000000E+00 -0.00000000000E+00 -0.53907609509E+03  0.53907610455E+03  0.10100000000E+00 0.  1.
     200001    2    1    2    0    0 -0.25005080676E+03 -0.66609993837E+02  0.18390498767E+04  0.19846712836E+04  0.69989524770E+03 0.  0.
    5000001    2    3    3    0    0 -0.12736466684E+03  0.35811764014E+02  0.44006042195E+03  0.49044452709E+03  0.17140133716E+03 0.  0.
        -13    1    4    4    0    0 -0.12649611520E+03 -0.25589119499E+01  0.14960490651E+03  0.19593226995E+03  0.10566000000E+00 0. -1.
     200003    1    4    4    0    0 -0.86855164265E+00  0.38370675963E+02  0.29045551544E+03  0.29451225714E+03  0.30000000000E+02 0. -1.
     200000    1    3    3    0    0 -0.12268613992E+03 -0.10242175785E+03  0.13989894548E+04  0.14942267565E+04  0.50000000000E+03 0. -1.
    -200001    1    1    2    0    0  0.25005080676E+03  0.66609993837E+02 -0.16763595804E+03  0.76489483700E+03  0.70000000000E+03 0.  1.
<mgrwt>
<rscale>  0 0.21832291E+04</rscale>
<asrwt>0</asrwt>
<pdfrwt beam="1">  1        3 0.77010872E-01 0.21832291E+04</pdfrwt>
<pdfrwt beam="2">  1       -3 0.31578429E+00 0.21832291E+04</pdfrwt>
<totfact> 0.11830739E-01</totfact>
</mgrwt>
</event>
<event>
 8    1  0.1206249E-029  0.1660765E+04  0.7818608E-02  0.8784063E-01
          3   -1    0    0  501    0  0.00000000000E+00  0.00000000000E+00  0.52308896681E+03  0.52308897656E+03  0.10100000000E+00 0.  1.
         -3   -1    0    0    0  501 -0.00000000000E+00 -0.00000000000E+00 -0.13181991151E+04  0.13181991190E+04  0.10100000000E+00 0. -1.
     200001    2    1    2    0    0  0.30122050682E+03  0.26295711889E+02 -0.76205161903E+03  0.10780593457E+04  0.70004573044E+03 0.  0.
    5000001    2    3    3    0    0  0.10699646997E+03  0.26821802136E+02 -0.37736693071E+02  0.17675175940E+03  0.13285131836E+03 0.  0.
        -13    1    4    4    0    0  0.42802108773E+02 -0.15023101917E+02 -0.74021746443E+02  0.86815575890E+02  0.10566000000E+00 0. -1.
     200003    1    4    4    0    0  0.64194361201E+02  0.41844904054E+02  0.36285053372E+02  0.89936183505E+02  0.30000000000E+02 0. -1.
     200000    1    3    3    0    0  0.19422403684E+03 -0.52609024763E+00 -0.72431492596E+03  0.90130758635E+03  0.50000000000E+03 0. -1.
    -200001    1    1    2    0    0 -0.30122050682E+03 -0.26295711889E+02 -0.33058529293E+02  0.76322874982E+03  0.70000000000E+03 0.  1.
<mgrwt>
<rscale>  0 0.16607654E+04</rscale>
<asrwt>0</asrwt>
<pdfrwt beam="1">  1        3 0.74726996E-01 0.16607654E+04</pdfrwt>
<pdfrwt beam="2">  1       -3 0.18831416E+00 0.16607654E+04</pdfrwt>
<totfact> 0.74053170E-01</totfact>
</mgrwt>
</event>
<event>
 8    1  0.1206249E-029  0.1733676E+04  0.7818608E-02  0.8742387E-01
         -3   -1    0    0    0  501 -0.00000000000E+00  0.00000000000E+00  0.64399837129E+03  0.64399837921E+03  0.10100000000E+00 0. -1.
          3   -1    0    0  501    0  0.00000000000E+00 -0.00000000000E+00 -0.11667858959E+04  0.11667859003E+04  0.10100000000E+00 0.  1.
     200001    2    1    2    0    0  0.46022019897E+03  0.21638986077E+03 -0.20498631826E+03  0.88903333149E+03  0.69980973874E+03 0.  0.
    5000001    2    3    3    0    0  0.98430421401E+02  0.14463343217E+03 -0.37310696274E+02  0.24548384434E+03  0.16811559183E+03 0.  0.
        -13    1    4    4    0    0  0.78158242891E+02  0.58420554492E+02  0.56726138605E+02  0.11286956226E+03  0.10566000000E+00 0. -1.
     200003    1    4    4    0    0  0.20272178511E+02  0.86212877675E+02 -0.94036834878E+02  0.13261428208E+03  0.30000000000E+02 0. -1.
     200000    1    3    3    0    0  0.36178977757E+03  0.71756428605E+02 -0.16767562199E+03  0.64354948715E+03  0.50000000000E+03 0. -1.
    -200001    1    1    2    0    0 -0.46022019897E+03 -0.21638986077E+03 -0.31780120635E+03  0.92175094800E+03  0.70000000000E+03 0.  1.
<mgrwt>
<rscale>  0 0.17336761E+04</rscale>
<asrwt>0</asrwt>
<pdfrwt beam="1">  1        3 0.16668370E+00 0.17336761E+04</pdfrwt>
<pdfrwt beam="2">  1       -3 0.91999769E-01 0.17336761E+04</pdfrwt>
<totfact> 0.64901125E-01</totfact>
</mgrwt>
</event>
<event>
 8    1  0.1206249E-029  0.1566863E+04  0.7818608E-02  0.8841168E-01
         -3   -1    0    0    0  501 -0.00000000000E+00  0.00000000000E+00  0.25884142210E+03  0.25884144180E+03  0.10100000000E+00 0. -1.
          3   -1    0    0  501    0  0.00000000000E+00 -0.00000000000E+00 -0.23712015986E+04  0.23712016007E+04  0.10100000000E+00 0.  1.
     200001    2    1    2    0    0 -0.33486653865E+03 -0.83187399330E+02 -0.94808512294E+03  0.12284039512E+04  0.70075325530E+03 0.  0.
    5000001    2    3    3    0    0 -0.45566697342E+02  0.15660019647E+02 -0.98634888145E+02  0.19640060244E+03  0.16285820629E+03 0.  0.
        -13    1    4    4    0    0  0.55791549957E+02 -0.24736408987E+01 -0.88765069812E+01  0.56547497611E+02  0.10566000000E+00 0. -1.
     200003    1    4    4    0    0 -0.10135824730E+03  0.18133660545E+02 -0.89758381163E+02  0.13985310483E+03  0.30000000000E+02 0. -1.
     200000    1    3    3    0    0 -0.28929984131E+03 -0.98847418977E+02 -0.84945023479E+03  0.10320033487E+04  0.50000000000E+03 0. -1.
    -200001    1    1    2    0    0  0.33486653865E+03  0.83187399330E+02 -0.11642750535E+04  0.14016390914E+04  0.70000000000E+03 0.  1.
<mgrwt>
<rscale>  0 0.15668634E+04</rscale>
<asrwt>0</asrwt>
<pdfrwt beam="1">  1        3 0.33874307E+00 0.15668634E+04</pdfrwt>
<pdfrwt beam="2">  1       -3 0.36977349E-01 0.15668634E+04</pdfrwt>
<totfact> 0.43841484E-01</totfact>
</mgrwt>
</event>
<event>
 8    1  0.1206249E-029  0.1511122E+04  0.7818608E-02  0.8877091E-01
         -3   -1    0    0    0  501 -0.00000000000E+00  0.00000000000E+00  0.79410077086E+03  0.79410077729E+03  0.10100000000E+00 0. -1.
          3   -1    0    0  501    0  0.00000000000E+00 -0.00000000000E+00 -0.71889125605E+03  0.71889126315E+03  0.10100000000E+00 0.  1.
     200001    2    1    2    0    0 -0.16021077837E+03  0.23578764127E+03  0.26835392063E+02  0.75562597239E+03  0.69927617333E+03 0.  0.
    5000001    2    3    3    0    0 -0.14158327773E+02  0.10726537558E+03  0.15517145585E+03  0.20397441898E+03  0.76295896646E+02 0.  0.
        -13    1    4    4    0    0 -0.30881336935E+02  0.80376710858E+02  0.12127094051E+03  0.14873037617E+03  0.10566000000E+00 0. -1.
     200003    1    4    4    0    0  0.16723009162E+02  0.26888664721E+02  0.33900515337E+02  0.55244042810E+02  0.30000000000E+02 0. -1.
     200000    1    3    3    0    0 -0.14605245059E+03  0.12852226569E+03 -0.12833606379E+03  0.55165155340E+03  0.50000000000E+03 0.  1.
    -200001    1    1    2    0    0  0.16021077837E+03 -0.23578764127E+03  0.48374122746E+02  0.75736606805E+03  0.70000000000E+03 0. -1.
<mgrwt>
<rscale>  0 0.15111216E+04</rscale>
<asrwt>0</asrwt>
<pdfrwt beam="1">  1        3 0.10269875E+00 0.15111216E+04</pdfrwt>
<pdfrwt beam="2">  1       -3 0.11344297E+00 0.15111216E+04</pdfrwt>
<totfact> 0.13539103E+00</totfact>
</mgrwt>
</event>
<event>
 8    1  0.1206249E-029  0.1627976E+04  0.7818608E-02  0.8803543E-01
          3   -1    0    0  501    0  0.00000000000E+00  0.00000000000E+00  0.21848536442E+03  0.21848538776E+03  0.10100000000E+00 0.  1.
         -3   -1    0    0    0  501 -0.00000000000E+00 -0.00000000000E+00 -0.30325890942E+04  0.30325890958E+04  0.10100000000E+00 0. -1.
     200001    2    1    2    0    0  0.41203401001E+03  0.17690119949E+02 -0.13041455195E+04  0.15364145283E+04  0.69977789398E+03 0.  0.
    5000001    2    3    3    0    0  0.11486961861E+03  0.44345630108E+02 -0.58917326594E+03  0.61435025985E+03  0.12304283927E+03 0.  0.
        -13    1    4    4    0    0  0.44017548690E+02 -0.29862178190E+02 -0.96255470043E+02  0.10997463779E+03  0.10566000000E+00 0. -1.
     200003    1    4    4    0    0  0.70852069919E+02  0.74207808298E+02 -0.49291779589E+03  0.50437562206E+03  0.30000000000E+02 0. -1.
     200000    1    3    3    0    0  0.29716439140E+03 -0.26655510158E+02 -0.71497225357E+03  0.92206426843E+03  0.50000000000E+03 0.  1.
    -200001    1    1    2    0    0 -0.41203401001E+03 -0.17690119949E+02 -0.15099582102E+04  0.17146599553E+04  0.70000000000E+03 0. -1.
<mgrwt>
<rscale>  0 0.16279759E+04</rscale>
<asrwt>0</asrwt>
<pdfrwt beam="1">  1        3 0.31212199E-01 0.16279759E+04</pdfrwt>
<pdfrwt beam="2">  1       -3 0.43322699E+00 0.16279759E+04</pdfrwt>
<totfact> 0.17768865E-01</totfact>
</mgrwt>
</event>
<event>
 8    1  0.1206249E-029  0.1462012E+04  0.7818608E-02  0.8910115E-01
          3   -1    0    0  501    0  0.00000000000E+00  0.00000000000E+00  0.46301925430E+03  0.46301926531E+03  0.10100000000E+00 0.  1.
         -3   -1    0    0    0  501 -0.00000000000E+00 -0.00000000000E+00 -0.11540979384E+04  0.11540979429E+04  0.10100000000E+00 0. -1.
     200001    2    1    2    0    0 -0.15567670354E+03 -0.12815012443E+03 -0.40863649076E+03  0.83581618871E+03  0.70067626569E+03 0.  0.
    5000001    2    3    3    0    0 -0.38344149629E+02 -0.69348062083E+02 -0.65918935189E+02  0.21559047686E+03  0.18935289850E+03 0.  0.
        -13    1    4    4    0    0 -0.85773184004E+01  0.17259103408E+02  0.56554776829E+02  0.59748648416E+02  0.10566000000E+00 0. -1.
     200003    1    4    4    0    0 -0.29766831228E+02 -0.86607165491E+02 -0.12247371202E+03  0.15584182844E+03  0.30000000000E+02 0. -1.
     200000    1    3    3    0    0 -0.11733255391E+03 -0.58802062345E+02 -0.34271755557E+03  0.62022571185E+03  0.50000000000E+03 0. -1.
    -200001    1    1    2    0    0  0.15567670354E+03  0.12815012443E+03 -0.28244219338E+03  0.78130101947E+03  0.70000000000E+03 0. -1.
<mgrwt>
<rscale>  0 0.14620117E+04</rscale>
<asrwt>0</asrwt>
<pdfrwt beam="1">  1        3 0.66145609E-01 0.14620117E+04</pdfrwt>
<pdfrwt beam="2">  1       -3 0.16487113E+00 0.14620117E+04</pdfrwt>
<totfact> 0.14141419E+00</totfact>
</mgrwt>
</event>
<event>
 8    1  0.1206249E-029  0.1776737E+04  0.7818608E-02  0.8718769E-01
          3   -1    0    0  501    0  0.00000000000E+00  0.00000000000E+00  0.69117230421E+03  0.69117231159E+03  0.10100000000E+00 0.  1.
         -3   -1    0    0    0  501 -0.00000000000E+00 -0.00000000000E+00 -0.11418260492E+04  0.11418260536E+04  0.10100000000E+00 0. -1.
     200001    2    1    2    0    0  0.49108530312E+03 -0.23544708796E+03 -0.20963451577E+03  0.91392797892E+03  0.70336165255E+03 0.  0.
    5000001    2    3    3    0    0  0.27063996749E+03 -0.92929223486E+02  0.26425628659E+02  0.30185618616E+03  0.92395945225E+02 0.  0.
        -13    1    4    4    0    0  0.19836400302E+03 -0.30955342512E+02  0.21486417259E+02  0.20191133751E+03  0.10566000000E+00 0. -1.
     200003    1    4    4    0    0  0.72275964470E+02 -0.61973880974E+02  0.49392113993E+01  0.99944848653E+02  0.30000000000E+02 0. -1.
     200000    1    3    3    0    0  0.22044533563E+03 -0.14251786448E+03 -0.23606014443E+03  0.61207179275E+03  0.50000000000E+03 0. -1.
    -200001    1    1    2    0    0 -0.49108530312E+03  0.23544708796E+03 -0.24101922920E+03  0.91907038632E+03  0.70000000000E+03 0.  1.
<mgrwt>
<rscale>  0 0.17767370E+04</rscale>
<asrwt>0</asrwt>
<pdfrwt beam="1">  1        3 0.98738901E-01 0.17767370E+04</pdfrwt>
<pdfrwt beam="2">  1       -3 0.16311801E+00 0.17767370E+04</pdfrwt>
<totfact> 0.58043744E-01</totfact>
</mgrwt>
</event>
<event>
 8    1  0.1206249E-029  0.1586024E+04  0.7818608E-02  0.8829180E-01
          3   -1    0    0  501    0  0.00000000000E+00  0.00000000000E+00  0.12138979448E+04  0.12138979490E+04  0.10100000000E+00 0.  1.
         -3   -1    0    0    0  501 -0.00000000000E+00 -0.00000000000E+00 -0.51805687329E+03  0.51805688314E+03  0.10100000000E+00 0. -1.
     200001    2    1    2    0    0 -0.93939047262E+02 -0.19698644893E+03  0.67662316271E+03  0.99847168058E+03  0.70106960207E+03 0.  0.
    5000001    2    3    3    0    0 -0.59439212676E+02 -0.12588736412E+02  0.21626349945E+03  0.29340163121E+03  0.18874087982E+03 0.  0.
        -13    1    4    4    0    0  0.17263692525E+02  0.44481714308E+02  0.18098814826E+03  0.18717205711E+03  0.10566000000E+00 0. -1.
     200003    1    4    4    0    0 -0.76702905201E+02 -0.57070450720E+02  0.35275351187E+02  0.10622957410E+03  0.30000000000E+02 0. -1.
     200000    1    3    3    0    0 -0.34499834586E+02 -0.18439771252E+03  0.46035966326E+03  0.70507004938E+03  0.50000000000E+03 0.  1.
    -200001    1    1    2    0    0  0.93939047262E+02  0.19698644893E+03  0.19217908845E+02  0.73348315160E+03  0.70000000000E+03 0. -1.
<mgrwt>
<rscale>  0 0.15860242E+04</rscale>
<asrwt>0</asrwt>
<pdfrwt beam="1">  1        3 0.17341399E+00 0.15860242E+04</pdfrwt>
<pdfrwt beam="2">  1       -3 0.74008127E-01 0.15860242E+04</pdfrwt>
<totfact> 0.96128982E-01</totfact>
</mgrwt>
</event>
<event>
 8    1  0.1206249E-029  0.2043808E+04  0.7818608E-02  0.8586408E-01
          3   -1    0    0  501    0  0.00000000000E+00  0.00000000000E+00  0.43218055315E+03  0.43218056496E+03  0.10100000000E+00 0.  1.
         -3   -1    0    0    0  501 -0.00000000000E+00 -0.00000000000E+00 -0.24163238725E+04  0.24163238746E+04  0.10100000000E+00 0. -1.
     200001    2    1    2    0    0  0.58904093608E+03  0.45379285442E+03 -0.10695746936E+04  0.14776167891E+04  0.69746983522E+03 0.  0.
    5000001    2    3    3    0    0  0.27078928142E+03  0.21921538162E+03 -0.33265613927E+03  0.50326589634E+03  0.14571972055E+03 0.  0.
        -13    1    4    4    0    0  0.26991295133E+03  0.21904505717E+03 -0.30475980051E+03  0.46229026113E+03  0.10566000000E+00 0. -1.
     200003    1    4    4    0    0  0.87633008802E+00  0.17032445294E+00 -0.27896338759E+02  0.40975635212E+02  0.30000000000E+02 0.  1.
     200000    1    3    3    0    0  0.31825165466E+03  0.23457747280E+03 -0.73691855431E+03  0.97435089271E+03  0.50000000000E+03 0. -1.
    -200001    1    1    2    0    0 -0.58904093608E+03 -0.45379285442E+03 -0.91456862579E+03  0.13708876505E+04  0.70000000000E+03 0. -1.
<mgrwt>
<rscale>  0 0.20438084E+04</rscale>
<asrwt>0</asrwt>
<pdfrwt beam="1">  1        3 0.61740081E-01 0.20438084E+04</pdfrwt>
<pdfrwt beam="2">  1       -3 0.34518912E+00 0.20438084E+04</pdfrwt>
<totfact> 0.13270804E-01</totfact>
</mgrwt>
</event>
<event>
 8    1  0.1206249E-029  0.1684051E+04  0.7818608E-02  0.8770513E-01
          3   -1    0    0  501    0  0.00000000000E+00  0.00000000000E+00  0.52149330486E+03  0.52149331464E+03  0.10100000000E+00 0.  1.
         -3   -1    0    0    0  501 -0.00000000000E+00 -0.00000000000E+00 -0.13595713015E+04  0.13595713053E+04  0.10100000000E+00 0. -1.
     200001    2    1    2    0    0 -0.11194723664E+03  0.12966877846E+03  0.68597705056E+02  0.72287335592E+03  0.69892350630E+03 0.  0.
    5000001    2    3    3    0    0 -0.20327951261E+02  0.11099501669E+03  0.43591577035E+02  0.21359140133E+03  0.17603392230E+03 0.  0.
        -13    1    4    4    0    0 -0.86204663293E+02  0.39563442907E+02  0.57546164118E+02  0.11094179626E+03  0.10566000000E+00 0. -1.
     200003    1    4    4    0    0  0.65876712032E+02  0.71431573783E+02 -0.13954587082E+02  0.10264960507E+03  0.30000000000E+02 0. -1.
     200000    1    3    3    0    0 -0.91619285377E+02  0.18673761766E+02  0.25006128021E+02  0.50928195459E+03  0.50000000000E+03 0.  1.
    -200001    1    1    2    0    0  0.11194723664E+03 -0.12966877846E+03 -0.90667570170E+03  0.11581912640E+04  0.70000000000E+03 0. -1.
<mgrwt>
<rscale>  0 0.16840515E+04</rscale>
<asrwt>0</asrwt>
<pdfrwt beam="1">  1        3 0.74499045E-01 0.16840515E+04</pdfrwt>
<pdfrwt beam="2">  1       -3 0.19422447E+00 0.16840515E+04</pdfrwt>
<totfact> 0.68130448E-01</totfact>
</mgrwt>
</event>
<event>
 8    1  0.1206249E-029  0.2907234E+04  0.7818608E-02  0.8270728E-01
          3   -1    0    0  501    0  0.00000000000E+00  0.00000000000E+00  0.12938475691E+04  0.12938475731E+04  0.10100000000E+00 0. -1.
         -3   -1    0    0    0  501 -0.00000000000E+00 -0.00000000000E+00 -0.16331154215E+04  0.16331154246E+04  0.10100000000E+00 0.  1.
     200001    2    1    2    0    0  0.11015846026E+04  0.59027888945E+03 -0.41834673689E+03  0.14923301966E+04  0.70008400875E+03 0.  0.
    5000001    2    3    3    0    0  0.25897343808E+03  0.12173616459E+03 -0.22358990543E+03  0.38894627291E+03  0.13928324378E+03 0.  0.
        -13    1    4    4    0    0  0.90646738571E+02  0.11592087306E+03 -0.10572912311E+03  0.18119916850E+03  0.10566000000E+00 0. -1.
     200003    1    4    4    0    0  0.16832669951E+03  0.58152915282E+01 -0.11786078232E+03  0.20774710441E+03  0.30000000000E+02 0. -1.
     200000    1    3    3    0    0  0.84261116453E+03  0.46854272486E+03 -0.19475683146E+03  0.11033839237E+04  0.50000000000E+03 0. -1.
    -200001    1    1    2    0    0 -0.11015846026E+04 -0.59027888945E+03  0.79078884546E+02  0.14346328011E+04  0.70000000000E+03 0. -1.
<mgrwt>
<rscale>  0 0.29072340E+04</rscale>
<asrwt>0</asrwt>
<pdfrwt beam="1">  1        3 0.18483537E+00 0.29072340E+04</pdfrwt>
<pdfrwt beam="2">  1       -3 0.23330220E+00 0.29072340E+04</pdfrwt>
<totfact> 0.38251462E-02</totfact>
</mgrwt>
</event>
<event>
 8    1  0.1206249E-029  0.2079486E+04  0.7818608E-02  0.8570334E-01
          3   -1    0    0  501    0  0.00000000000E+00  0.00000000000E+00  0.11687412988E+04  0.11687413031E+04  0.10100000000E+00 0. -1.
         -3   -1    0    0    0  501 -0.00000000000E+00 -0.00000000000E+00 -0.92498248955E+03  0.92498249507E+03  0.10100000000E+00 0.  1.
     200001    2    1    2    0    0  0.46422449376E+03  0.10484077049E+03  0.72961868343E+03  0.11177341542E+04  0.70035009000E+03 0.  0.
    5000001    2    3    3    0    0  0.14509530119E+03  0.28517880522E+02  0.28403058166E+03  0.37193432753E+03  0.18919793005E+03 0.  0.
        -13    1    4    4    0    0  0.31038303877E+02  0.82919485423E+02  0.43657216360E+02  0.98716670703E+02  0.10566000000E+00 0. -1.
     200003    1    4    4    0    0  0.11405699732E+03 -0.54401604902E+02  0.24037336530E+03  0.27321765682E+03  0.30000000000E+02 0. -1.
     200000    1    3    3    0    0  0.31912919257E+03  0.76322889964E+02  0.44558810177E+03  0.74579982671E+03  0.50000000000E+03 0. -1.
    -200001    1    1    2    0    0 -0.46422449376E+03 -0.10484077049E+03 -0.48585987421E+03  0.97598964397E+03  0.70000000000E+03 0.  1.
<mgrwt>
<rscale>  0 0.20794858E+04</rscale>
<asrwt>0</asrwt>
<pdfrwt beam="1">  1        3 0.16696304E+00 0.20794858E+04</pdfrwt>
<pdfrwt beam="2">  1       -3 0.13214036E+00 0.20794858E+04</pdfrwt>
<totfact> 0.26404005E-01</totfact>
</mgrwt>
</event>
<event>
 8    1  0.1206249E-029  0.1936314E+04  0.7818608E-02  0.8636989E-01
         -3   -1    0    0    0  501 -0.00000000000E+00  0.00000000000E+00  0.24820658328E+04  0.24820658348E+04  0.10100000000E+00 0. -1.
          3   -1    0    0  501    0  0.00000000000E+00 -0.00000000000E+00 -0.37764031648E+03  0.37764032999E+03  0.10100000000E+00 0.  1.
     200001    2    1    2    0    0 -0.41698989660E+03 -0.25571241542E+03  0.37784660181E+03  0.93348079866E+03  0.69953479807E+03 0.  0.
    5000001    2    3    3    0    0 -0.14927847039E+03 -0.56887741392E+02  0.87066097622E+02  0.26583271745E+03  0.19382015239E+03 0.  0.
        -13    1    4    4    0    0 -0.68881912534E+02 -0.31905499779E+02  0.14193465441E+03  0.16096004497E+03  0.10566000000E+00 0. -1.
     200003    1    4    4    0    0 -0.80396557856E+02 -0.24982241613E+02 -0.54868556783E+02  0.10487267249E+03  0.30000000000E+02 0. -1.
     200000    1    3    3    0    0 -0.26771142621E+03 -0.19882467403E+03  0.29078050419E+03  0.66764808121E+03  0.50000000000E+03 0.  1.
    -200001    1    1    2    0    0  0.41698989660E+03  0.25571241542E+03  0.17265789145E+04  0.19262253661E+04  0.70000000000E+03 0. -1.
<mgrwt>
<rscale>  0 0.19363142E+04</rscale>
<asrwt>0</asrwt>
<pdfrwt beam="1">  1        3 0.53948616E-01 0.19363142E+04</pdfrwt>
<pdfrwt beam="2">  1       -3 0.35458085E+00 0.19363142E+04</pdfrwt>
<totfact> 0.15773800E-01</totfact>
</mgrwt>
</event>
<event>
 8    1  0.1206249E-029  0.3126118E+04  0.7818608E-02  0.8208606E-01
         -3   -1    0    0    0  501 -0.00000000000E+00  0.00000000000E+00  0.21388086249E+04  0.21388086273E+04  0.10100000000E+00 0. -1.
          3   -1    0    0  501    0  0.00000000000E+00 -0.00000000000E+00 -0.11422962110E+04  0.11422962154E+04  0.10100000000E+00 0.  1.
     200001    2    1    2    0    0  0.13452842981E+04  0.14896202259E+03  0.86348810303E+03  0.17515052238E+04  0.70012807271E+03 0.  0.
    5000001    2    3    3    0    0  0.84973658741E+02  0.95895975983E+02  0.48015633554E+02  0.16840880813E+03  0.98180775616E+02 0.  0.
        -13    1    4    4    0    0 -0.58175936802E+01  0.21650026953E+02 -0.19571880601E+02  0.29759666289E+02  0.10566000000E+00 0. -1.
     200003    1    4    4    0    0  0.90791252421E+02  0.74245949030E+02  0.67587514155E+02  0.13864914184E+03  0.30000000000E+02 0. -1.
     200000    1    3    3    0    0  0.12603106393E+04  0.53066046606E+02  0.81547246947E+03  0.15830964157E+04  0.50000000000E+03 0. -1.
    -200001    1    1    2    0    0 -0.13452842981E+04 -0.14896202259E+03  0.13302431088E+03  0.15295996189E+04  0.70000000000E+03 0.  1.
<mgrwt>
<rscale>  0 0.31261177E+04</rscale>
<asrwt>0</asrwt>
<pdfrwt beam="1">  1        3 0.16318518E+00 0.31261177E+04</pdfrwt>
<pdfrwt beam="2">  1       -3 0.30554409E+00 0.31261177E+04</pdfrwt>
<totfact> 0.20365275E-02</totfact>
</mgrwt>
</event>
<event>
 8    1  0.1206249E-029  0.1556245E+04  0.7818608E-02  0.8847889E-01
          3   -1    0    0  501    0  0.00000000000E+00  0.00000000000E+00  0.82208631049E+03  0.82208631670E+03  0.10100000000E+00 0.  1.
         -3   -1    0    0    0  501 -0.00000000000E+00 -0.00000000000E+00 -0.73650952762E+03  0.73650953454E+03  0.10100000000E+00 0. -1.
     200001    2    1    2    0    0  0.44424873969E+02 -0.16648170187E+03 -0.25034743038E+03  0.76327528472E+03  0.70016112280E+03 0.  0.
    5000001    2    3    3    0    0  0.73724775565E+02 -0.88136808262E+01 -0.12294431170E+03  0.22295200765E+03  0.17052645083E+03 0.  0.
        -13    1    4    4    0    0 -0.15468483209E+01  0.42888999555E+02 -0.11927631085E+03  0.12676240971E+03  0.10566000000E+00 0. -1.
     200003    1    4    4    0    0  0.75271623886E+02 -0.51702680381E+02 -0.36680008557E+01  0.96189597937E+02  0.30000000000E+02 0. -1.
     200000    1    3    3    0    0 -0.29299901596E+02 -0.15766802104E+03 -0.12740311867E+03  0.54032327707E+03  0.50000000000E+03 0. -1.
    -200001    1    1    2    0    0 -0.44424873969E+02  0.16648170187E+03  0.33592421325E+03  0.79532056652E+03  0.70000000000E+03 0.  1.
<mgrwt>
<rscale>  0 0.15562447E+04</rscale>
<asrwt>0</asrwt>
<pdfrwt beam="1">  1        3 0.11744090E+00 0.15562447E+04</pdfrwt>
<pdfrwt beam="2">  1       -3 0.10521565E+00 0.15562447E+04</pdfrwt>
<totfact> 0.11729433E+00</totfact>
</mgrwt>
</event>
<event>
 8    1  0.1206249E-029  0.1664931E+04  0.7818608E-02  0.8781622E-01
         -3   -1    0    0    0  501 -0.00000000000E+00  0.00000000000E+00  0.17449655876E+04  0.17449655905E+04  0.10100000000E+00 0. -1.
          3   -1    0    0  501    0  0.00000000000E+00 -0.00000000000E+00 -0.39714190791E+03  0.39714192076E+03  0.10100000000E+00 0.  1.
     200001    2    1    2    0    0  0.18418549892E+03  0.39789263924E+03  0.54026579987E+03  0.98694839686E+03  0.69995510797E+03 0.  0.
    5000001    2    3    3    0    0  0.78396687773E+02  0.71218873907E+02  0.85867078834E+02  0.22906633532E+03  0.18406537452E+03 0.  0.
        -13    1    4    4    0    0  0.50250506223E+02  0.82078558555E+02 -0.33846155536E+02  0.10201753064E+03  0.10566000000E+00 0. -1.
     200003    1    4    4    0    0  0.28146181549E+02 -0.10859684648E+02  0.11971323437E+03  0.12704880468E+03  0.30000000000E+02 0. -1.
     200000    1    3    3    0    0  0.10578881114E+03  0.32667376533E+03  0.45439872104E+03  0.75788206154E+03  0.50000000000E+03 0. -1.
    -200001    1    1    2    0    0 -0.18418549892E+03 -0.39789263924E+03  0.80755787981E+03  0.11551591144E+04  0.70000000000E+03 0. -1.
<mgrwt>
<rscale>  0 0.16649312E+04</rscale>
<asrwt>0</asrwt>
<pdfrwt beam="1">  1        3 0.56734561E-01 0.16649312E+04</pdfrwt>
<pdfrwt beam="2">  1       -3 0.24928079E+00 0.16649312E+04</pdfrwt>
<totfact> 0.56706328E-01</totfact>
</mgrwt>
</event>
<event>
 8    1  0.1206249E-029  0.1721653E+04  0.7818608E-02  0.8749110E-01
          3   -1    0    0  501    0  0.00000000000E+00  0.00000000000E+00  0.44479987715E+03  0.44479988861E+03  0.10100000000E+00 0. -1.
         -3   -1    0    0    0  501 -0.00000000000E+00 -0.00000000000E+00 -0.16659686649E+04  0.16659686679E+04  0.10100000000E+00 0.  1.
     200001    2    1    2    0    0  0.37441502456E+03  0.26051249787E+03 -0.86649819857E+03  0.12031097005E+04  0.69899960740E+03 0.  0.
    5000001    2    3    3    0    0  0.12926922506E+03  0.11309507546E+03 -0.35221086338E+03  0.43089222946E+03  0.17920544770E+03 0.  0.
        -13    1    4    4    0    0 -0.35760652470E+02 -0.41034034489E-01 -0.10795676175E+03  0.11372554472E+03  0.10566000000E+00 0. -1.
     200003    1    4    4    0    0  0.16502987753E+03  0.11313610949E+03 -0.24425410162E+03  0.31716668474E+03  0.30000000000E+02 0. -1.
     200000    1    3    3    0    0  0.24514579949E+03  0.14741742241E+03 -0.51428733520E+03  0.77221747104E+03  0.50000000000E+03 0.  1.
    -200001    1    1    2    0    0 -0.37441502456E+03 -0.26051249787E+03 -0.35467058916E+03  0.90765885606E+03  0.70000000000E+03 0.  1.
<mgrwt>
<rscale>  0 0.17216535E+04</rscale>
<asrwt>0</asrwt>
<pdfrwt beam="1">  1        3 0.63542841E-01 0.17216535E+04</pdfrwt>
<pdfrwt beam="2">  1       -3 0.23799552E+00 0.17216535E+04</pdfrwt>
<totfact> 0.51703206E-01</totfact>
</mgrwt>
</event>
<event>
 8    1  0.1206249E-029  0.1605948E+04  0.7818608E-02  0.8816902E-01
          3   -1    0    0  501    0  0.00000000000E+00  0.00000000000E+00  0.48888916483E+03  0.48888917526E+03  0.10100000000E+00 0.  1.
         -3   -1    0    0    0  501 -0.00000000000E+00 -0.00000000000E+00 -0.13188408704E+04  0.13188408742E+04  0.10100000000E+00 0. -1.
     200001    2    1    2    0    0 -0.83325855759E+02 -0.22976289330E+03 -0.75983528020E+03  0.10629814352E+04  0.70202969539E+03 0.  0.
    5000001    2    3    3    0    0 -0.37575284704E+02 -0.19982165311E+02 -0.25339438262E+03  0.31962186453E+03  0.19010058967E+03 0.  0.
        -13    1    4    4    0    0 -0.17396029866E+02  0.83332265088E+02 -0.10337024518E+03  0.13391156415E+03  0.10566000000E+00 0. -1.
     200003    1    4    4    0    0 -0.20179254838E+02 -0.10331443040E+03 -0.15002413744E+03  0.18571030038E+03  0.30000000000E+02 0. -1.
     200000    1    3    3    0    0 -0.45750571055E+02 -0.20978072799E+03 -0.50644089758E+03  0.74335957068E+03  0.50000000000E+03 0. -1.
    -200001    1    1    2    0    0  0.83325855759E+02  0.22976289330E+03 -0.70116425343E+02  0.74474861428E+03  0.70000000000E+03 0.  1.
<mgrwt>
<rscale>  0 0.16059477E+04</rscale>
<asrwt>0</asrwt>
<pdfrwt beam="1">  1        3 0.69841311E-01 0.16059477E+04</pdfrwt>
<pdfrwt beam="2">  1       -3 0.18840584E+00 0.16059477E+04</pdfrwt>
<totfact> 0.86090729E-01</totfact>
</mgrwt>
</event>
<event>
 8    1  0.1206249E-029  0.2076530E+04  0.7818608E-02  0.8571653E-01
          3   -1    0    0  501    0  0.00000000000E+00  0.00000000000E+00  0.55218441418E+03  0.55218442341E+03  0.10100000000E+00 0.  1.
         -3   -1    0    0    0  501 -0.00000000000E+00 -0.00000000000E+00 -0.19522358696E+04  0.19522358723E+04  0.10100000000E+00 0. -1.
     200001    2    1    2    0    0  0.14511311392E+02  0.63284387846E+03 -0.17870754728E+03  0.96092332621E+03  0.70052501649E+03 0.  0.
    5000001    2    3    3    0    0  0.89688638020E+00  0.21262005167E+03 -0.27047718003E+02  0.29027131436E+03  0.19574924295E+03 0.  0.
        -13    1    4    4    0    0 -0.32730453188E+02  0.17709892356E+01 -0.63632159518E+02  0.71578501366E+02  0.10566000000E+00 0. -1.
     200003    1    4    4    0    0  0.33627339568E+02  0.21084906243E+03  0.36584441515E+02  0.21869281300E+03  0.30000000000E+02 0. -1.
     200000    1    3    3    0    0  0.13614425012E+02  0.42022382680E+03 -0.15165982927E+03  0.67065201184E+03  0.50000000000E+03 0.  1.
    -200001    1    1    2    0    0 -0.14511311392E+02 -0.63284387846E+03 -0.12213439082E+04  0.15434969695E+04  0.70000000000E+03 0. -1.
<mgrwt>
<rscale>  0 0.20765300E+04</rscale>
<asrwt>0</asrwt>
<pdfrwt beam="1">  1        3 0.78883490E-01 0.20765300E+04</pdfrwt>
<pdfrwt beam="2">  1       -3 0.27889084E+00 0.20765300E+04</pdfrwt>
<totfact> 0.18229828E-01</totfact>
</mgrwt>
</event>
<event>
 8    1  0.1206249E-029  0.1883147E+04  0.7818608E-02  0.8663291E-01
         -3   -1    0    0    0  501 -0.00000000000E+00  0.00000000000E+00  0.87457526353E+03  0.87457526936E+03  0.10100000000E+00 0. -1.
          3   -1    0    0  501    0  0.00000000000E+00 -0.00000000000E+00 -0.10137040122E+04  0.10137040172E+04  0.10100000000E+00 0.  1.
     200001    2    1    2    0    0  0.16247246003E+03  0.41800736145E+03  0.37152083641E+03  0.91263055204E+03  0.70266587944E+03 0.  0.
    5000001    2    3    3    0    0  0.90975301426E+01  0.80281789832E+02  0.16628754668E+03  0.25711309684E+03  0.17868314290E+03 0.  0.
        -13    1    4    4    0    0 -0.72904222548E+02  0.58154838206E+01  0.30272520795E+02  0.79153535592E+02  0.10566000000E+00 0. -1.
     200003    1    4    4    0    0  0.82001752691E+02  0.74466306011E+02  0.13601502588E+03  0.17795956125E+03  0.30000000000E+02 0. -1.
     200000    1    3    3    0    0  0.15337492989E+03  0.33772557162E+03  0.20523328974E+03  0.65551745519E+03  0.50000000000E+03 0. -1.
    -200001    1    1    2    0    0 -0.16247246003E+03 -0.41800736145E+03 -0.51064958510E+03  0.97564873457E+03  0.70000000000E+03 0.  1.
<mgrwt>
<rscale>  0 0.18831468E+04</rscale>
<asrwt>0</asrwt>
<pdfrwt beam="1">  1        3 0.14481486E+00 0.18831468E+04</pdfrwt>
<pdfrwt beam="2">  1       -3 0.12493932E+00 0.18831468E+04</pdfrwt>
<totfact> 0.44810328E-01</totfact>
</mgrwt>
</event>
<event>
 8    1  0.1206249E-029  0.2271715E+04  0.7818608E-02  0.8489158E-01
          3   -1    0    0  501    0  0.00000000000E+00  0.00000000000E+00  0.13874915722E+04  0.13874915759E+04  0.10100000000E+00 0.  1.
         -3   -1    0    0    0  501 -0.00000000000E+00 -0.00000000000E+00 -0.92985939867E+03  0.92985940416E+03  0.10100000000E+00 0. -1.
     200001    2    1    2    0    0  0.86211438058E+03 -0.23486642281E+03  0.29675973470E+03  0.11709289882E+04  0.69613570050E+03 0.  0.
    5000001    2    3    3    0    0  0.27806400986E+03 -0.48995714922E+02  0.15352061591E+01  0.32664214250E+03  0.16423324491E+03 0.  0.
        -13    1    4    4    0    0  0.53685983425E+02  0.49514155105E+02  0.28280986508E+02  0.78317697450E+02  0.10566000000E+00 0. -1.
     200003    1    4    4    0    0  0.22437802644E+03 -0.98509870027E+02 -0.26745780349E+02  0.24832444505E+03  0.30000000000E+02 0. -1.
     200000    1    3    3    0    0  0.58405037072E+03 -0.18587070789E+03  0.29522452854E+03  0.84428684571E+03  0.50000000000E+03 0.  1.
    -200001    1    1    2    0    0 -0.86211438058E+03  0.23486642281E+03  0.16087243882E+03  0.11464219918E+04  0.70000000000E+03 0. -1.
<mgrwt>
<rscale>  0 0.22717148E+04</rscale>
<asrwt>0</asrwt>
<pdfrwt beam="1">  1        3 0.19821308E+00 0.22717148E+04</pdfrwt>
<pdfrwt beam="2">  1       -3 0.13283706E+00 0.22717148E+04</pdfrwt>
<totfact> 0.15896449E-01</totfact>
</mgrwt>
</event>
<event>
 8    1  0.1206249E-029  0.1821131E+04  0.7818608E-02  0.8695142E-01
          3   -1    0    0  501    0  0.00000000000E+00  0.00000000000E+00  0.19553795601E+04  0.19553795627E+04  0.10100000000E+00 0.  1.
         -3   -1    0    0    0  501 -0.00000000000E+00 -0.00000000000E+00 -0.42402482688E+03  0.42402483891E+03  0.10100000000E+00 0. -1.
     200001    2    1    2    0    0 -0.54424779448E+03  0.18722243175E+03  0.64947070456E+03  0.11148976437E+04  0.69994761173E+03 0.  0.
    5000001    2    3    3    0    0 -0.17464701978E+03  0.47223792334E+02  0.21526903204E+03  0.34370671787E+03  0.19764079457E+03 0.  0.
        -13    1    4    4    0    0 -0.70841415882E+02  0.95750448392E+02  0.28379849522E+02  0.12244215612E+03  0.10566000000E+00 0. -1.
     200003    1    4    4    0    0 -0.10380560390E+03 -0.48526656058E+02  0.18688918251E+03  0.22126456176E+03  0.30000000000E+02 0. -1.
     200000    1    3    3    0    0 -0.36960077470E+03  0.13999863942E+03  0.43420167252E+03  0.77119092585E+03  0.50000000000E+03 0. -1.
    -200001    1    1    2    0    0  0.54424779448E+03 -0.18722243175E+03  0.88188402867E+03  0.12645067579E+04  0.70000000000E+03 0. -1.
<mgrwt>
<rscale>  0 0.18211310E+04</rscale>
<asrwt>0</asrwt>
<pdfrwt beam="1">  1        3 0.27933994E+00 0.18211310E+04</pdfrwt>
<pdfrwt beam="2">  1       -3 0.60574975E-01 0.18211310E+04</pdfrwt>
<totfact> 0.33306465E-01</totfact>
</mgrwt>
</event>
<event>
 8    1  0.1206249E-029  0.2137877E+04  0.7818608E-02  0.8544739E-01
          3   -1    0    0  501    0  0.00000000000E+00  0.00000000000E+00  0.66009896174E+03  0.66009896947E+03  0.10100000000E+00 0. -1.
         -3   -1    0    0    0  501 -0.00000000000E+00 -0.00000000000E+00 -0.17309976245E+04  0.17309976275E+04  0.10100000000E+00 0.  1.
     200001    2    1    2    0    0  0.69629845620E+03 -0.35517160817E+03 -0.76157008480E+03  0.12971758592E+04  0.70121166864E+03 0.  0.
    5000001    2    3    3    0    0  0.12643896504E+03 -0.48939825555E+02 -0.77851220734E+02  0.23134790430E+03  0.17052601516E+03 0.  0.
        -13    1    4    4    0    0  0.69550370052E+02  0.26277646881E+02 -0.10506425070E+03  0.12871004871E+03  0.10566000000E+00 0. -1.
     200003    1    4    4    0    0  0.56888594993E+02 -0.75217472436E+02  0.27213029963E+02  0.10263785559E+03  0.30000000000E+02 0. -1.
     200000    1    3    3    0    0  0.56985949116E+03 -0.30623178262E+03 -0.68371886406E+03  0.10658279549E+04  0.50000000000E+03 0. -1.
    -200001    1    1    2    0    0 -0.69629845620E+03  0.35517160817E+03 -0.30932857801E+03  0.10939207378E+04  0.70000000000E+03 0.  1.
<mgrwt>
<rscale>  0 0.21378772E+04</rscale>
<asrwt>0</asrwt>
<pdfrwt beam="1">  1        3 0.94299853E-01 0.21378772E+04</pdfrwt>
<pdfrwt beam="2">  1       -3 0.24728537E+00 0.21378772E+04</pdfrwt>
<totfact> 0.18377342E-01</totfact>
</mgrwt>
</event>
<event>
 8    1  0.1206249E-029  0.1950924E+04  0.7818608E-02  0.8629915E-01
          3   -1    0    0  501    0  0.00000000000E+00  0.00000000000E+00  0.13985261688E+04  0.13985261724E+04  0.10100000000E+00 0. -1.
         -3   -1    0    0    0  501 -0.00000000000E+00 -0.00000000000E+00 -0.68037767745E+03  0.68037768495E+03  0.10100000000E+00 0.  1.
     200001    2    1    2    0    0  0.45448442127E+03  0.41858085890E+03  0.57703281715E+02  0.93524573559E+03  0.69970629024E+03 0.  0.
    5000001    2    3    3    0    0  0.22728320903E+03  0.13731878182E+03 -0.51601198653E+02  0.30860691116E+03  0.14853092934E+03 0.  0.
        -13    1    4    4    0    0 -0.20938823771E+02  0.11707525568E+02 -0.87564219591E+01  0.25537944032E+02  0.10566000000E+00 0. -1.
     200003    1    4    4    0    0  0.24822203280E+03  0.12561125625E+03 -0.42844776694E+02  0.28306896713E+03  0.30000000000E+02 0. -1.
     200000    1    3    3    0    0  0.22720121224E+03  0.28126207709E+03  0.10930448037E+03  0.62663882443E+03  0.50000000000E+03 0.  1.
    -200001    1    1    2    0    0 -0.45448442127E+03 -0.41858085890E+03  0.66044520961E+03  0.11436581218E+04  0.70000000000E+03 0. -1.
<mgrwt>
<rscale>  0 0.19509239E+04</rscale>
<asrwt>0</asrwt>
<pdfrwt beam="1">  1        3 0.19978945E+00 0.19509239E+04</pdfrwt>
<pdfrwt beam="2">  1       -3 0.97196813E-01 0.19509239E+04</pdfrwt>
<totfact> 0.33881666E-01</totfact>
</mgrwt>
</event>
<event>
 8    1  0.1206249E-029  0.1599805E+04  0.7818608E-02  0.8820668E-01
          3   -1    0    0  501    0  0.00000000000E+00  0.00000000000E+00  0.24790527951E+04  0.24790527972E+04  0.10100000000E+00 0.  1.
         -3   -1    0    0    0  501 -0.00000000000E+00 -0.00000000000E+00 -0.25810032567E+03  0.25810034543E+03  0.10100000000E+00 0. -1.
     200001    2    1    2    0    0  0.15733618399E+03 -0.19404174209E+03  0.16013273909E+04  0.17695054224E+04  0.71027681542E+03 0.  0.
    5000001    2    3    3    0    0  0.80407020760E+02 -0.96741598129E+02  0.57633726729E+03  0.62233927588E+03  0.19828591187E+03 0.  0.
        -13    1    4    4    0    0  0.11523094282E+03 -0.96574755455E+02  0.54820643340E+03  0.56844978526E+03  0.10566000000E+00 0. -1.
     200003    1    4    4    0    0 -0.34823922062E+02 -0.16684267368E+00  0.28130833882E+02  0.53889490619E+02  0.30000000000E+02 0. -1.
     200000    1    3    3    0    0  0.76929163229E+02 -0.97300143964E+02  0.10249901236E+04  0.11471661465E+04  0.50000000000E+03 0.  1.
    -200001    1    1    2    0    0 -0.15733618399E+03  0.19404174209E+03  0.61962507853E+03  0.96764772020E+03  0.70000000000E+03 0. -1.
<mgrwt>
<rscale>  0 0.15998054E+04</rscale>
<asrwt>0</asrwt>
<pdfrwt beam="1">  1        3 0.35415041E+00 0.15998054E+04</pdfrwt>
<pdfrwt beam="2">  1       -3 0.36871476E-01 0.15998054E+04</pdfrwt>
<totfact> 0.36294080E-01</totfact>
</mgrwt>
</event>
<event>
 8    1  0.1206249E-029  0.1699798E+04  0.7818608E-02  0.8761480E-01
          3   -1    0    0  501    0  0.00000000000E+00  0.00000000000E+00  0.91034330144E+03  0.91034330704E+03  0.10100000000E+00 0.  1.
         -3   -1    0    0    0  501 -0.00000000000E+00 -0.00000000000E+00 -0.79346783859E+03  0.79346784502E+03  0.10100000000E+00 0. -1.
     200001    2    1    2    0    0 -0.13866466876E+03  0.21928347810E+03 -0.34872646225E+03  0.82398259672E+03  0.70001717129E+03 0.  0.
    5000001    2    3    3    0    0 -0.46876798704E+02  0.10695575767E+03 -0.52165200151E+02  0.22482392655E+03  0.18489894939E+03 0.  0.
        -13    1    4    4    0    0 -0.93705085095E+02  0.12298540612E+03 -0.61119059403E+02  0.16625764246E+03  0.10566000000E+00 0. -1.
     200003    1    4    4    0    0  0.46828286391E+02 -0.16029648455E+02  0.89538592523E+01  0.58566284084E+02  0.30000000000E+02 0. -1.
     200000    1    3    3    0    0 -0.91787870055E+02  0.11232772043E+03 -0.29656126210E+03  0.59915867018E+03  0.50000000000E+03 0. -1.
    -200001    1    1    2    0    0  0.13866466876E+03 -0.21928347810E+03  0.46560192510E+03  0.87982855534E+03  0.70000000000E+03 0.  1.
<mgrwt>
<rscale>  0 0.16997978E+04</rscale>
<asrwt>0</asrwt>
<pdfrwt beam="1">  1        3 0.13004904E+00 0.16997978E+04</pdfrwt>
<pdfrwt beam="2">  1       -3 0.11335255E+00 0.16997978E+04</pdfrwt>
<totfact> 0.75597151E-01</totfact>
</mgrwt>
</event>
<event>
 8    1  0.1206249E-029  0.1563012E+04  0.7818608E-02  0.8843599E-01
          3   -1    0    0  501    0  0.00000000000E+00  0.00000000000E+00  0.43523290180E+03  0.43523291352E+03  0.10100000000E+00 0.  1.
         -3   -1    0    0    0  501 -0.00000000000E+00 -0.00000000000E+00 -0.14032750048E+04  0.14032750084E+04  0.10100000000E+00 0. -1.
     200001    2    1    2    0    0  0.17564648665E+03 -0.22269257584E+03 -0.71963850386E+03  0.10434305548E+04  0.70030284513E+03 0.  0.
    5000001    2    3    3    0    0  0.27556333833E+02 -0.70595381863E+02 -0.22103287430E+03  0.30608950510E+03  0.19771746038E+03 0.  0.
        -13    1    4    4    0    0  0.10606296074E+03 -0.34100509258E+02 -0.77169296642E+02  0.13552604134E+03  0.10566000000E+00 0. -1.
     200003    1    4    4    0    0 -0.78506626910E+02 -0.36494872605E+02 -0.14386357765E+03  0.17056346376E+03  0.30000000000E+02 0. -1.
     200000    1    3    3    0    0  0.14809015282E+03 -0.15209719398E+03 -0.49860562957E+03  0.73734104973E+03  0.50000000000E+03 0. -1.
    -200001    1    1    2    0    0 -0.17564648665E+03  0.22269257584E+03 -0.24840359911E+03  0.79507736709E+03  0.70000000000E+03 0.  1.
<mgrwt>
<rscale>  0 0.15630118E+04</rscale>
<asrwt>0</asrwt>
<pdfrwt beam="1">  1        3 0.62176131E-01 0.15630118E+04</pdfrwt>
<pdfrwt beam="2">  1       -3 0.20046786E+00 0.15630118E+04</pdfrwt>
<totfact> 0.92744288E-01</totfact>
</mgrwt>
</event>
<event>
 8    1  0.1206249E-029  0.2000566E+04  0.7818608E-02  0.8606356E-01
         -3   -1    0    0    0  501 -0.00000000000E+00  0.00000000000E+00  0.92600599704E+03  0.92600600255E+03  0.10100000000E+00 0. -1.
          3   -1    0    0  501    0  0.00000000000E+00 -0.00000000000E+00 -0.10805181470E+04  0.10805181517E+04  0.10100000000E+00 0.  1.
     200001    2    1    2    0    0  0.71377744540E+03 -0.12334538722E+02 -0.10898452331E+03  0.10056729430E+04  0.69990717919E+03 0.  0.
    5000001    2    3    3    0    0  0.79541944980E+02 -0.30926586828E+02 -0.73655743975E+02  0.19706397882E+03  0.16163436622E+03 0.  0.
        -13    1    4    4    0    0  0.32771093908E+02 -0.34212449345E+02 -0.11718682339E+03  0.12640094551E+03  0.10566000000E+00 0. -1.
     200003    1    4    4    0    0  0.46770851073E+02  0.32858625169E+01  0.43531079411E+02  0.70663033314E+02  0.30000000000E+02 0. -1.
     200000    1    3    3    0    0  0.63423550042E+03  0.18592048106E+02 -0.35328779332E+02  0.80860896414E+03  0.50000000000E+03 0.  1.
    -200001    1    1    2    0    0 -0.71377744540E+03  0.12334538722E+02 -0.45527626671E+02  0.10008512113E+04  0.70000000000E+03 0. -1.
<mgrwt>
<rscale>  0 0.20005662E+04</rscale>
<asrwt>0</asrwt>
<pdfrwt beam="1">  1        3 0.15435974E+00 0.20005662E+04</pdfrwt>
<pdfrwt beam="2">  1       -3 0.13228657E+00 0.20005662E+04</pdfrwt>
<totfact> 0.32646379E-01</totfact>
</mgrwt>
</event>
<event>
 8    1  0.1206249E-029  0.1681943E+04  0.7818608E-02  0.8771730E-01
          3   -1    0    0  501    0  0.00000000000E+00  0.00000000000E+00  0.29317833264E+04  0.29317833281E+04  0.10100000000E+00 0. -1.
         -3   -1    0    0    0  501 -0.00000000000E+00 -0.00000000000E+00 -0.24122977415E+03  0.24122979530E+03  0.10100000000E+00 0.  1.
     200001    2    1    2    0    0 -0.22651601772E+03  0.36734080194E+03  0.10128177010E+04  0.13045789240E+04  0.69991263913E+03 0.  0.
    5000001    2    3    3    0    0 -0.51097952818E+02  0.33325210819E+02  0.40086205540E+03  0.42889197948E+03  0.13977257293E+03 0.  0.
        -13    1    4    4    0    0 -0.35275921072E+02  0.74295241924E+02  0.13755793514E+03  0.16026967980E+03  0.10566000000E+00 0. -1.
     200003    1    4    4    0    0 -0.15822031746E+02 -0.40970031105E+02  0.26330412026E+03  0.26862229967E+03  0.30000000000E+02 0. -1.
     200000    1    3    3    0    0 -0.17541806490E+03  0.33401559112E+03  0.61195564555E+03  0.87568694448E+03  0.50000000000E+03 0. -1.
    -200001    1    1    2    0    0  0.22651601772E+03 -0.36734080194E+03  0.16777358512E+04  0.18684341994E+04  0.70000000000E+03 0. -1.
<mgrwt>
<rscale>  0 0.16819435E+04</rscale>
<asrwt>0</asrwt>
<pdfrwt beam="1">  1        3 0.41882615E+00 0.16819435E+04</pdfrwt>
<pdfrwt beam="2">  1       -3 0.34461402E-01 0.16819435E+04</pdfrwt>
<totfact> 0.18605823E-01</totfact>
</mgrwt>
</event>
<event>
 8    1  0.1206249E-029  0.1624618E+04  0.7818608E-02  0.8805565E-01
          3   -1    0    0  501    0  0.00000000000E+00  0.00000000000E+00  0.72114610864E+03  0.72114611571E+03  0.10100000000E+00 0.  1.
         -3   -1    0    0    0  501 -0.00000000000E+00 -0.00000000000E+00 -0.91499645936E+03  0.91499646493E+03  0.10100000000E+00 0. -1.
     200001    2    1    2    0    0  0.21472133363E+02 -0.13700300964E+02 -0.51081394557E+03  0.86730275908E+03  0.70045302352E+03 0.  0.
    5000001    2    3    3    0    0 -0.64602830443E+02 -0.16842631774E+01 -0.11062829206E+03  0.22100418889E+03  0.18007740019E+03 0.  0.
        -13    1    4    4    0    0  0.37910022056E+02 -0.43829069982E+02 -0.85780295757E+02  0.10352017896E+03  0.10566000000E+00 0. -1.
     200003    1    4    4    0    0 -0.10251285250E+03  0.42144806804E+02 -0.24847996299E+02  0.11748400993E+03  0.30000000000E+02 0. -1.
     200000    1    3    3    0    0  0.86074963806E+02 -0.12016037787E+02 -0.40018565352E+03  0.64629857020E+03  0.50000000000E+03 0. -1.
    -200001    1    1    2    0    0 -0.21472133363E+02  0.13700300964E+02  0.31696359486E+03  0.76883982156E+03  0.70000000000E+03 0.  1.
<mgrwt>
<rscale>  0 0.16246183E+04</rscale>
<asrwt>0</asrwt>
<pdfrwt beam="1">  1        3 0.10302087E+00 0.16246183E+04</pdfrwt>
<pdfrwt beam="2">  1       -3 0.13071378E+00 0.16246183E+04</pdfrwt>
<totfact> 0.94167074E-01</totfact>
</mgrwt>
</event>
<event>
 8    1  0.1206249E-029  0.1438204E+04  0.7818608E-02  0.8926619E-01
         -3   -1    0    0    0  501 -0.00000000000E+00  0.00000000000E+00  0.90817967287E+03  0.90817967849E+03  0.10100000000E+00 0. -1.
          3   -1    0    0  501    0  0.00000000000E+00 -0.00000000000E+00 -0.56938944756E+03  0.56938945652E+03  0.10100000000E+00 0.  1.
     200001    2    1    2    0    0  0.63874787600E+02 -0.15608428489E+03  0.17478674675E+03  0.73909812443E+03  0.69804966744E+03 0.  0.
    5000001    2    3    3    0    0  0.62145771774E+02 -0.55169403355E+02  0.69778247671E+02  0.21831641614E+03  0.18943941958E+03 0.  0.
        -13    1    4    4    0    0  0.91266619183E+02  0.16547267134E+02  0.93780482297E+02  0.13190222838E+03  0.10566000000E+00 0. -1.
     200003    1    4    4    0    0 -0.29120847409E+02 -0.71716670488E+02 -0.24002234626E+02  0.86414187763E+02  0.30000000000E+02 0. -1.
     200000    1    3    3    0    0  0.17290158262E+01 -0.10091488154E+03  0.10500849908E+03  0.52078170829E+03  0.50000000000E+03 0. -1.
    -200001    1    1    2    0    0 -0.63874787600E+02  0.15608428489E+03  0.16400347856E+03  0.73847101058E+03  0.70000000000E+03 0.  1.
<mgrwt>
<rscale>  0 0.14382043E+04</rscale>
<asrwt>0</asrwt>
<pdfrwt beam="1">  1        3 0.81341350E-01 0.14382043E+04</pdfrwt>
<pdfrwt beam="2">  1       -3 0.12973996E+00 0.14382043E+04</pdfrwt>
<totfact> 0.16716405E+00</totfact>
</mgrwt>
</event>
<event>
 8    1  0.1206249E-029  0.1543832E+04  0.7818608E-02  0.8855817E-01
          3   -1    0    0  501    0  0.00000000000E+00  0.00000000000E+00  0.31428295801E+03  0.31428297423E+03  0.10100000000E+00 0.  1.
         -3   -1    0    0    0  501 -0.00000000000E+00 -0.00000000000E+00 -0.18959175153E+04  0.18959175180E+04  0.10100000000E+00 0. -1.
     200001    2    1    2    0    0 -0.51203409752E+02 -0.30888065999E+03 -0.91478113942E+03  0.11939709255E+04  0.70050909110E+03 0.  0.
    5000001    2    3    3    0    0 -0.51071513801E+02 -0.57988557731E+02 -0.64156001609E+02  0.17587957923E+03  0.14438373003E+03 0.  0.
        -13    1    4    4    0    0  0.45209364542E+02 -0.29694170888E+01 -0.35291833999E+02  0.57430208002E+02  0.10566000000E+00 0. -1.
     200003    1    4    4    0    0 -0.96280878343E+02 -0.55019140642E+02 -0.28864167610E+02  0.11844937122E+03  0.30000000000E+02 0. -1.
     200000    1    3    3    0    0 -0.13189595051E+00 -0.25089210226E+03 -0.85062513781E+03  0.10180913463E+04  0.50000000000E+03 0. -1.
    -200001    1    1    2    0    0  0.51203409752E+02  0.30888065999E+03 -0.66685341791E+03  0.10162295667E+04  0.70000000000E+03 0.  1.
<mgrwt>
<rscale>  0 0.15438324E+04</rscale>
<asrwt>0</asrwt>
<pdfrwt beam="1">  1        3 0.44897568E-01 0.15438324E+04</pdfrwt>
<pdfrwt beam="2">  1       -3 0.27084536E+00 0.15438324E+04</pdfrwt>
<totfact> 0.69632523E-01</totfact>
</mgrwt>
</event>
<event>
 8    1  0.1206249E-029  0.1495956E+04  0.7818608E-02  0.8887147E-01
         -3   -1    0    0    0  501 -0.00000000000E+00  0.00000000000E+00  0.14853213570E+04  0.14853213605E+04  0.10100000000E+00 0. -1.
          3   -1    0    0  501    0  0.00000000000E+00 -0.00000000000E+00 -0.37666644884E+03  0.37666646238E+03  0.10100000000E+00 0.  1.
     200001    2    1    2    0    0  0.38476797804E+02  0.23521693372E+03  0.42469038679E+03  0.85470686086E+03  0.70239193011E+03 0.  0.
    5000001    2    3    3    0    0 -0.27193799599E+02  0.19124053955E+02  0.13170541309E+03  0.23273503283E+03  0.18898160623E+03 0.  0.
        -13    1    4    4    0    0 -0.18891856280E+01  0.82719654243E+02  0.13454412373E+03  0.15795012698E+03  0.10566000000E+00 0. -1.
     200003    1    4    4    0    0 -0.25304613971E+02 -0.63595600287E+02 -0.28387106373E+01  0.74784905845E+02  0.30000000000E+02 0. -1.
     200000    1    3    3    0    0  0.65670597403E+02  0.21609287976E+03  0.29298497370E+03  0.62197182803E+03  0.50000000000E+03 0.  1.
    -200001    1    1    2    0    0 -0.38476797804E+02 -0.23521693372E+03  0.68396452141E+03  0.10072809620E+04  0.70000000000E+03 0.  1.
<mgrwt>
<rscale>  0 0.14959555E+04</rscale>
<asrwt>0</asrwt>
<pdfrwt beam="1">  1        3 0.53809494E-01 0.14959555E+04</pdfrwt>
<pdfrwt beam="2">  1       -3 0.21218876E+00 0.14959555E+04</pdfrwt>
<totfact> 0.10670145E+00</totfact>
</mgrwt>
</event>
<event>
 8    1  0.1206249E-029  0.1418891E+04  0.7818608E-02  0.8940257E-01
          3   -1    0    0  501    0  0.00000000000E+00  0.00000000000E+00  0.36697758526E+03  0.36697759916E+03  0.10100000000E+00 0.  1.
         -3   -1    0    0    0  501 -0.00000000000E+00 -0.00000000000E+00 -0.13715085798E+04  0.13715085835E+04  0.10100000000E+00 0. -1.
     200001    2    1    2    0    0 -0.53089025271E+02 -0.23790307755E+02 -0.62082207622E+03  0.93810067723E+03  0.70087688430E+03 0.  0.
    5000001    2    3    3    0    0 -0.71579289780E+02  0.43668700261E+02 -0.12205644529E+03  0.22841077154E+03  0.17390559108E+03 0.  0.
        -13    1    4    4    0    0 -0.12300493872E+03  0.24400273878E+02 -0.55742091836E+02  0.13723257733E+03  0.10566000000E+00 0. -1.
     200003    1    4    4    0    0  0.51425648941E+02  0.19268426383E+02 -0.66314353454E+02  0.91178194204E+02  0.30000000000E+02 0. -1.
     200000    1    3    3    0    0  0.18490264509E+02 -0.67459008015E+02 -0.49876563093E+03  0.70968990570E+03  0.50000000000E+03 0. -1.
    -200001    1    1    2    0    0  0.53089025271E+02  0.23790307755E+02 -0.38370891833E+03  0.80038550546E+03  0.70000000000E+03 0.  1.
<mgrwt>
<rscale>  0 0.14188910E+04</rscale>
<asrwt>0</asrwt>
<pdfrwt beam="1">  1        3 0.52425371E-01 0.14188910E+04</pdfrwt>
<pdfrwt beam="2">  1       -3 0.19592980E+00 0.14188910E+04</pdfrwt>
<totfact> 0.14321548E+00</totfact>
</mgrwt>
</event>
<event>
 8    1  0.1206249E-029  0.1926238E+04  0.7818608E-02  0.8641905E-01
         -3   -1    0    0    0  501 -0.00000000000E+00  0.00000000000E+00  0.60196177296E+03  0.60196178143E+03  0.10100000000E+00 0.  1.
          3   -1    0    0  501    0  0.00000000000E+00 -0.00000000000E+00 -0.15409593851E+04  0.15409593884E+04  0.10100000000E+00 0. -1.
     200001    2    1    2    0    0  0.47624407527E+03  0.40056978226E+03 -0.21982492646E+03  0.96204271653E+03  0.69995615609E+03 0.  0.
    5000001    2    3    3    0    0  0.16702324582E+03  0.22878135244E+03 -0.66496659813E+02  0.33066458629E+03  0.15709739334E+03 0.  0.
        -13    1    4    4    0    0  0.19049129338E+01 -0.36515973404E+01 -0.42802830303E+02  0.43000654674E+02  0.10566000000E+00 0. -1.
     200003    1    4    4    0    0  0.16511833288E+03  0.23243294978E+03 -0.23693829510E+02  0.28766393162E+03  0.30000000000E+02 0. -1.
     200000    1    3    3    0    0  0.30922082946E+03  0.17178842982E+03 -0.15332826664E+03  0.63137813024E+03  0.50000000000E+03 0.  1.
    -200001    1    1    2    0    0 -0.47624407527E+03 -0.40056978226E+03 -0.71917268572E+03  0.11808784533E+04  0.70000000000E+03 0.  1.
<mgrwt>
<rscale>  0 0.19262385E+04</rscale>
<asrwt>0</asrwt>
<pdfrwt beam="1">  1        3 0.22013705E+00 0.19262385E+04</pdfrwt>
<pdfrwt beam="2">  1       -3 0.85994541E-01 0.19262385E+04</pdfrwt>
<totfact> 0.33677033E-01</totfact>
</mgrwt>
</event>
<event>
 8    1  0.1206249E-029  0.1962034E+04  0.7818608E-02  0.8624579E-01
         -3   -1    0    0    0  501 -0.00000000000E+00  0.00000000000E+00  0.40859461958E+03  0.40859463206E+03  0.10100000000E+00 0. -1.
          3   -1    0    0  501    0  0.00000000000E+00 -0.00000000000E+00 -0.23553780905E+04  0.23553780927E+04  0.10100000000E+00 0.  1.
     200001    2    1    2    0    0  0.39161392615E+03 -0.50768783255E+02 -0.18218109026E+03  0.82496253952E+03  0.70102375527E+03 0.  0.
    5000001    2    3    3    0    0  0.11161199715E+03 -0.70524543278E+02  0.36740730030E+02  0.21118885672E+03  0.16068572696E+03 0.  0.
        -13    1    4    4    0    0  0.35739978322E+02  0.20333474209E+02 -0.47508679228E+02  0.62832173207E+02  0.10566000000E+00 0. -1.
     200003    1    4    4    0    0  0.75872018823E+02 -0.90858017487E+02  0.84249409259E+02  0.14835668351E+03  0.30000000000E+02 0. -1.
     200000    1    3    3    0    0  0.28000192900E+03  0.19755760024E+02 -0.21892182029E+03  0.61377368280E+03  0.50000000000E+03 0. -1.
    -200001    1    1    2    0    0 -0.39161392615E+03  0.50768783255E+02 -0.17646023807E+04  0.19390101853E+04  0.70000000000E+03 0.  1.
<mgrwt>
<rscale>  0 0.19620345E+04</rscale>
<asrwt>0</asrwt>
<pdfrwt beam="1">  1        3 0.33648258E+00 0.19620345E+04</pdfrwt>
<pdfrwt beam="2">  1       -3 0.58370662E-01 0.19620345E+04</pdfrwt>
<totfact> 0.17268789E-01</totfact>
</mgrwt>
</event>
<event>
 8    1  0.1206249E-029  0.1589888E+04  0.7818608E-02  0.8826785E-01
          3   -1    0    0  501    0  0.00000000000E+00  0.00000000000E+00  0.25093187293E+03  0.25093189326E+03  0.10100000000E+00 0.  1.
         -3   -1    0    0    0  501 -0.00000000000E+00 -0.00000000000E+00 -0.25183557660E+04  0.25183557680E+04  0.10100000000E+00 0. -1.
     200001    2    1    2    0    0 -0.11468444057E+03  0.28919352296E+03 -0.76194523081E+03  0.10801306475E+04  0.69952574385E+03 0.  0.
    5000001    2    3    3    0    0 -0.32407067833E+02 -0.26557850216E+02 -0.19025090322E+03  0.25350927111E+03  0.16222209131E+03 0.  0.
        -13    1    4    4    0    0  0.29051716851E+02 -0.45720522528E+02 -0.17178592617E+03  0.18012435711E+03  0.10566000000E+00 0. -1.
     200003    1    4    4    0    0 -0.61458784684E+02  0.19162672312E+02 -0.18464977053E+02  0.73384913998E+02  0.30000000000E+02 0. -1.
     200000    1    3    3    0    0 -0.82277372736E+02  0.31575137317E+03 -0.57169432759E+03  0.82662137640E+03  0.50000000000E+03 0.  1.
    -200001    1    1    2    0    0  0.11468444057E+03 -0.28919352296E+03 -0.15054786622E+04  0.16891570137E+04  0.70000000000E+03 0.  1.
<mgrwt>
<rscale>  0 0.15898877E+04</rscale>
<asrwt>0</asrwt>
<pdfrwt beam="1">  1        3 0.35847414E-01 0.15898877E+04</pdfrwt>
<pdfrwt beam="2">  1       -3 0.35976509E+00 0.15898877E+04</pdfrwt>
<totfact> 0.34614212E-01</totfact>
</mgrwt>
</event>
<event>
 8    1  0.1206249E-029  0.1424383E+04  0.7818608E-02  0.8936356E-01
         -3   -1    0    0    0  501 -0.00000000000E+00  0.00000000000E+00  0.69717754482E+03  0.69717755213E+03  0.10100000000E+00 0.  1.
          3   -1    0    0  501    0  0.00000000000E+00 -0.00000000000E+00 -0.72752837594E+03  0.72752838295E+03  0.10100000000E+00 0. -1.
     200001    2    1    2    0    0 -0.12200240187E+03  0.59716435867E+02 -0.25326406843E+02  0.71163098558E+03  0.69808781251E+03 0.  0.
    5000001    2    3    3    0    0 -0.46779704615E+00  0.64581575090E+02  0.57296055779E+02  0.19045846033E+03  0.16976627588E+03 0.  0.
        -13    1    4    4    0    0 -0.80026006769E+02  0.10890196860E+02  0.19981518025E+02  0.83198740217E+02  0.10566000000E+00 0. -1.
     200003    1    4    4    0    0  0.79558209723E+02  0.53691378230E+02  0.37314537754E+02  0.10725972011E+03  0.30000000000E+02 0. -1.
     200000    1    3    3    0    0 -0.12153460482E+03 -0.48651392230E+01 -0.82622462621E+02  0.52117252525E+03  0.50000000000E+03 0. -1.
    -200001    1    1    2    0    0  0.12200240187E+03 -0.59716435867E+02 -0.50244242848E+01  0.71307494951E+03  0.70000000000E+03 0. -1.
<mgrwt>
<rscale>  0 0.14243826E+04</rscale>
<asrwt>0</asrwt>
<pdfrwt beam="1">  1        3 0.10393263E+00 0.14243826E+04</pdfrwt>
<pdfrwt beam="2">  1       -3 0.99596793E-01 0.14243826E+04</pdfrwt>
<totfact> 0.18042281E+00</totfact>
</mgrwt>
</event>
<event>
 8    1  0.1206249E-029  0.2295331E+04  0.7818608E-02  0.8479764E-01
          3   -1    0    0  501    0  0.00000000000E+00  0.00000000000E+00  0.16656557087E+04  0.16656557118E+04  0.10100000000E+00 0.  1.
         -3   -1    0    0    0  501 -0.00000000000E+00 -0.00000000000E+00 -0.79076136851E+03  0.79076137496E+03  0.10100000000E+00 0. -1.
     200001    2    1    2    0    0 -0.39349834236E+03 -0.64478329404E+03 -0.10479274872E+03  0.10350187492E+04  0.69978271582E+03 0.  0.
    5000001    2    3    3    0    0 -0.12937985127E+03 -0.19798434122E+03  0.69648794167E+02  0.29352179477E+03  0.15927066333E+03 0.  0.
        -13    1    4    4    0    0 -0.42221382726E+02 -0.14860950052E+03  0.10073425833E+03  0.18443110033E+03  0.10566000000E+00 0. -1.
     200003    1    4    4    0    0 -0.87158468540E+02 -0.49374840698E+02 -0.31085464159E+02  0.10909069444E+03  0.30000000000E+02 0. -1.
     200000    1    3    3    0    0 -0.26411849109E+03 -0.44679895282E+03 -0.17444154289E+03  0.74149695445E+03  0.50000000000E+03 0. -1.
    -200001    1    1    2    0    0  0.39349834236E+03  0.64478329404E+03  0.97968708896E+03  0.14213983375E+04  0.70000000000E+03 0.  1.
<mgrwt>
<rscale>  0 0.22953311E+04</rscale>
<asrwt>0</asrwt>
<pdfrwt beam="1">  1        3 0.23795081E+00 0.22953311E+04</pdfrwt>
<pdfrwt beam="2">  1       -3 0.11296591E+00 0.22953311E+04</pdfrwt>
<totfact> 0.13546291E-01</totfact>
</mgrwt>
</event>
<event>
 8    1  0.1206249E-029  0.1882365E+04  0.7818608E-02  0.8663685E-01
         -3   -1    0    0    0  501 -0.00000000000E+00  0.00000000000E+00  0.56441009560E+03  0.56441010463E+03  0.10100000000E+00 0. -1.
          3   -1    0    0  501    0  0.00000000000E+00 -0.00000000000E+00 -0.15694691086E+04  0.15694691119E+04  0.10100000000E+00 0.  1.
     200001    2    1    2    0    0 -0.47861865015E+03 -0.25097114792E+02 -0.96493230041E+03  0.12845760725E+04  0.69952531343E+03 0.  0.
    5000001    2    3    3    0    0 -0.12351818610E+03 -0.44135941738E+02 -0.29537257824E+03  0.37640811551E+03  0.19295954444E+03 0.  0.
        -13    1    4    4    0    0 -0.16758088733E+03 -0.13975207597E+02 -0.24472437207E+03  0.29693212975E+03  0.10566000000E+00 0. -1.
     200003    1    4    4    0    0  0.44062701230E+02 -0.30160734142E+02 -0.50648206167E+02  0.79475985754E+02  0.30000000000E+02 0. -1.
     200000    1    3    3    0    0 -0.35510046404E+03  0.19038826946E+02 -0.66955972216E+03  0.90816795695E+03  0.50000000000E+03 0.  1.
    -200001    1    1    2    0    0  0.47861865015E+03  0.25097114792E+02 -0.40126712629E+02  0.84930314406E+03  0.70000000000E+03 0. -1.
<mgrwt>
<rscale>  0 0.18823647E+04</rscale>
<asrwt>0</asrwt>
<pdfrwt beam="1">  1        3 0.22420987E+00 0.18823647E+04</pdfrwt>
<pdfrwt beam="2">  1       -3 0.80630015E-01 0.18823647E+04</pdfrwt>
<totfact> 0.36927564E-01</totfact>
</mgrwt>
</event>
<event>
 8    1  0.1206249E-029  0.2137527E+04  0.7818608E-02  0.8544890E-01
          3   -1    0    0  501    0  0.00000000000E+00  0.00000000000E+00  0.15676688293E+04  0.15676688326E+04  0.10100000000E+00 0.  1.
         -3   -1    0    0    0  501 -0.00000000000E+00 -0.00000000000E+00 -0.72863335362E+03  0.72863336062E+03  0.10100000000E+00 0. -1.
     200001    2    1    2    0    0  0.47853886221E+03  0.56073158861E+03  0.77401637544E+03  0.12776526752E+04  0.69991117429E+03 0.  0.
    5000001    2    3    3    0    0  0.16422311533E+03  0.20962916577E+03  0.38890146076E+03  0.49001011822E+03  0.13398489104E+03 0.  0.
        -13    1    4    4    0    0  0.38207053985E+02  0.50881664829E+02  0.20515025830E+03  0.21479143939E+03  0.10566000000E+00 0. -1.
     200003    1    4    4    0    0  0.12601606134E+03  0.15874750094E+03  0.18375120246E+03  0.27521867883E+03  0.30000000000E+02 0. -1.
     200000    1    3    3    0    0  0.31431574689E+03  0.35110242284E+03  0.38511491468E+03  0.78764255698E+03  0.50000000000E+03 0. -1.
    -200001    1    1    2    0    0 -0.47853886221E+03 -0.56073158861E+03  0.65019100262E+02  0.10186495180E+04  0.70000000000E+03 0. -1.
<mgrwt>
<rscale>  0 0.21375274E+04</rscale>
<asrwt>0</asrwt>
<pdfrwt beam="1">  1        3 0.22395269E+00 0.21375274E+04</pdfrwt>
<pdfrwt beam="2">  1       -3 0.10409048E+00 0.21375274E+04</pdfrwt>
<totfact> 0.20187602E-01</totfact>
</mgrwt>
</event>
<event>
 8    1  0.1206249E-029  0.1951820E+04  0.7818608E-02  0.8629483E-01
          3   -1    0    0  501    0  0.00000000000E+00  0.00000000000E+00  0.99019117415E+03  0.99019117930E+03  0.10100000000E+00 0.  1.
         -3   -1    0    0    0  501 -0.00000000000E+00 -0.00000000000E+00 -0.96183526084E+03  0.96183526614E+03  0.10100000000E+00 0. -1.
     200001    2    1    2    0    0  0.61449735644E+03  0.98119103708E+02  0.29182612865E+03  0.97906657270E+03  0.69726214930E+03 0.  0.
    5000001    2    3    3    0    0  0.22862860541E+03  0.51525960794E+01  0.83491119794E+02  0.30754521007E+03  0.18792472082E+03 0.  0.
        -13    1    4    4    0    0 -0.22322868166E+02 -0.13463960052E+02  0.43887741864E+02  0.51046387859E+02  0.10566000000E+00 0. -1.
     200003    1    4    4    0    0  0.25095147357E+03  0.18616556131E+02  0.39603377930E+02  0.25649882221E+03  0.30000000000E+02 0. -1.
     200000    1    3    3    0    0  0.38586875104E+03  0.92966507628E+02  0.20833500885E+03  0.67152136264E+03  0.50000000000E+03 0.  1.
    -200001    1    1    2    0    0 -0.61449735644E+03 -0.98119103708E+02 -0.26347021533E+03  0.97295987274E+03  0.70000000000E+03 0. -1.
<mgrwt>
<rscale>  0 0.19518205E+04</rscale>
<asrwt>0</asrwt>
<pdfrwt beam="1">  1        3 0.14145588E+00 0.19518205E+04</pdfrwt>
<pdfrwt beam="2">  1       -3 0.13740504E+00 0.19518205E+04</pdfrwt>
<totfact> 0.37324486E-01</totfact>
</mgrwt>
</event>
<event>
 8    1  0.1206249E-029  0.1560317E+04  0.7818608E-02  0.8845305E-01
         -3   -1    0    0    0  501 -0.00000000000E+00  0.00000000000E+00  0.54782937207E+03  0.54782938138E+03  0.10100000000E+00 0. -1.
          3   -1    0    0  501    0  0.00000000000E+00 -0.00000000000E+00 -0.11110159805E+04  0.11110159851E+04  0.10100000000E+00 0.  1.
     200001    2    1    2    0    0  0.15471919680E+03  0.30655989599E+03 -0.25533799283E+03  0.82058062917E+03  0.70017003557E+03 0.  0.
    5000001    2    3    3    0    0  0.35170158447E+01  0.39801523866E+02 -0.58344028179E+02  0.20184906320E+03  0.18905683798E+03 0.  0.
        -13    1    4    4    0    0 -0.43672647534E+02 -0.61491075570E+02 -0.37700020457E+02  0.84319364465E+02  0.10566000000E+00 0. -1.
     200003    1    4    4    0    0  0.47189663378E+02  0.10129259944E+03 -0.20644007722E+02  0.11752969874E+03  0.30000000000E+02 0. -1.
     200000    1    3    3    0    0  0.15120218096E+03  0.26675837212E+03 -0.19699396465E+03  0.61873156597E+03  0.50000000000E+03 0. -1.
    -200001    1    1    2    0    0 -0.15471919680E+03 -0.30655989599E+03 -0.30784861562E+03  0.83826473732E+03  0.70000000000E+03 0.  1.
<mgrwt>
<rscale>  0 0.15603169E+04</rscale>
<asrwt>0</asrwt>
<pdfrwt beam="1">  1        3 0.15871657E+00 0.15603169E+04</pdfrwt>
<pdfrwt beam="2">  1       -3 0.78261340E-01 0.15603169E+04</pdfrwt>
<totfact> 0.10798361E+00</totfact>
</mgrwt>
</event>
<event>
 8    1  0.1206249E-029  0.1827080E+04  0.7818608E-02  0.8692030E-01
         -3   -1    0    0    0  501 -0.00000000000E+00  0.00000000000E+00  0.13871571683E+04  0.13871571720E+04  0.10100000000E+00 0.  1.
          3   -1    0    0  501    0  0.00000000000E+00 -0.00000000000E+00 -0.60163006312E+03  0.60163007160E+03  0.10100000000E+00 0. -1.
     200001    2    1    2    0    0 -0.40864305136E+03  0.40088406711E+03  0.25224318639E+03  0.93898301578E+03  0.70026088007E+03 0.  0.
    5000001    2    3    3    0    0 -0.15480322559E+03  0.87082624718E+02  0.42357304142E+02  0.26299626594E+03  0.18927618049E+03 0.  0.
        -13    1    4    4    0    0 -0.18130769874E+03  0.82376451945E+02 -0.70060988845E+01  0.19926730300E+03  0.10566000000E+00 0. -1.
     200003    1    4    4    0    0  0.26504473149E+02  0.47061727727E+01  0.49363403027E+02  0.63728962941E+02  0.30000000000E+02 0. -1.
     200000    1    3    3    0    0 -0.25383982576E+03  0.31380144239E+03  0.20988588224E+03  0.67598674984E+03  0.50000000000E+03 0. -1.
    -200001    1    1    2    0    0  0.40864305136E+03 -0.40088406711E+03  0.53328391881E+03  0.10498042278E+04  0.70000000000E+03 0.  1.
<mgrwt>
<rscale>  0 0.18270801E+04</rscale>
<asrwt>0</asrwt>
<pdfrwt beam="1">  1        3 0.85947153E-01 0.18270801E+04</pdfrwt>
<pdfrwt beam="2">  1       -3 0.19816531E+00 0.18270801E+04</pdfrwt>
<totfact> 0.46217427E-01</totfact>
</mgrwt>
</event>
<event>
 8    1  0.1206249E-029  0.2568020E+04  0.7818608E-02  0.8379146E-01
         -3   -1    0    0    0  501 -0.00000000000E+00  0.00000000000E+00  0.90441697130E+03  0.90441697694E+03  0.10100000000E+00 0.  1.
          3   -1    0    0  501    0  0.00000000000E+00 -0.00000000000E+00 -0.18229226749E+04  0.18229226777E+04  0.10100000000E+00 0. -1.
     200001    2    1    2    0    0 -0.50649795239E+03 -0.88729099639E+03 -0.81957773839E+03  0.14849177334E+04  0.69960525854E+03 0.  0.
    5000001    2    3    3    0    0 -0.97743290659E+02 -0.31605646194E+03 -0.16815090110E+03  0.40429467651E+03  0.16041827175E+03 0.  0.
        -13    1    4    4    0    0  0.17132461353E+02  0.91261233751E+01  0.59076137327E-01  0.19411903922E+02  0.10566000000E+00 0. -1.
     200003    1    4    4    0    0 -0.11487575201E+03 -0.32518258532E+03 -0.16820997724E+03  0.38488277259E+03  0.30000000000E+02 0. -1.
     200000    1    3    3    0    0 -0.40875466174E+03 -0.57123453444E+03 -0.65142683728E+03  0.10806230569E+04  0.50000000000E+03 0. -1.
    -200001    1    1    2    0    0  0.50649795239E+03  0.88729099639E+03 -0.98927965243E+02  0.12424219212E+04  0.70000000000E+03 0.  1.
<mgrwt>
<rscale>  0 0.25680204E+04</rscale>
<asrwt>0</asrwt>
<pdfrwt beam="1">  1        3 0.26041752E+00 0.25680204E+04</pdfrwt>
<pdfrwt beam="2">  1       -3 0.12920243E+00 0.25680204E+04</pdfrwt>
<totfact> 0.70741021E-02</totfact>
</mgrwt>
</event>
<event>
 8    1  0.1206249E-029  0.1467070E+04  0.7818608E-02  0.8906651E-01
          3   -1    0    0  501    0  0.00000000000E+00  0.00000000000E+00  0.53416527304E+03  0.53416528259E+03  0.10100000000E+00 0.  1.
         -3   -1    0    0    0  501 -0.00000000000E+00 -0.00000000000E+00 -0.10073166549E+04  0.10073166600E+04  0.10100000000E+00 0. -1.
     200001    2    1    2    0    0  0.16265388293E+03 -0.41513760123E+02 -0.84576204506E+02  0.72345361398E+03  0.69860741429E+03 0.  0.
    5000001    2    3    3    0    0 -0.10567917780E+03  0.11665520365E+02 -0.39319876430E+02  0.15172045717E+03  0.10084082237E+03 0.  0.
        -13    1    4    4    0    0  0.83453121600E+01 -0.20008901785E+02 -0.17139641750E+02  0.27636549514E+02  0.10566000000E+00 0. -1.
     200003    1    4    4    0    0 -0.11402448996E+03  0.31674422150E+02 -0.22180234680E+02  0.12408390766E+03  0.30000000000E+02 0. -1.
     200000    1    3    3    0    0  0.26833306073E+03 -0.53179280489E+02 -0.45256328076E+02  0.57173315680E+03  0.50000000000E+03 0.  1.
    -200001    1    1    2    0    0 -0.16265388293E+03  0.41513760123E+02 -0.38857517736E+03  0.81802832859E+03  0.70000000000E+03 0. -1.
<mgrwt>
<rscale>  0 0.14670700E+04</rscale>
<asrwt>0</asrwt>
<pdfrwt beam="1">  1        3 0.76309326E-01 0.14670700E+04</pdfrwt>
<pdfrwt beam="2">  1       -3 0.14390238E+00 0.14670700E+04</pdfrwt>
<totfact> 0.14796450E+00</totfact>
</mgrwt>
</event>
<event>
 8    1  0.1206249E-029  0.1538743E+04  0.7818608E-02  0.8859090E-01
         -3   -1    0    0    0  501 -0.00000000000E+00  0.00000000000E+00  0.20726957995E+03  0.20726960456E+03  0.10100000000E+00 0. -1.
          3   -1    0    0  501    0  0.00000000000E+00 -0.00000000000E+00 -0.28558575848E+04  0.28558575866E+04  0.10100000000E+00 0.  1.
     200001    2    1    2    0    0  0.14662812425E+03  0.18242749613E+03 -0.17585886986E+04  0.19068926288E+04  0.69916070291E+03 0.  0.
    5000001    2    3    3    0    0 -0.72401767982E+00  0.11253407913E+03 -0.54654659985E+03  0.58566449075E+03  0.17783494241E+03 0.  0.
        -13    1    4    4    0    0  0.24910580724E+02  0.66919810740E+01 -0.39904890210E+03  0.39988167885E+03  0.10566000000E+00 0. -1.
     200003    1    4    4    0    0 -0.25634598404E+02  0.10584209805E+03 -0.14749769775E+03  0.18578281190E+03  0.30000000000E+02 0. -1.
     200000    1    3    3    0    0  0.14735214193E+03  0.69893417002E+02 -0.12120420988E+04  0.13212281380E+04  0.50000000000E+03 0.  1.
    -200001    1    1    2    0    0 -0.14662812425E+03 -0.18242749613E+03 -0.88999930619E+03  0.11562345624E+04  0.70000000000E+03 0. -1.
<mgrwt>
<rscale>  0 0.15387429E+04</rscale>
<asrwt>0</asrwt>
<pdfrwt beam="1">  1        3 0.40797963E+00 0.15387429E+04</pdfrwt>
<pdfrwt beam="2">  1       -3 0.29609944E-01 0.15387429E+04</pdfrwt>
<totfact> 0.28749961E-01</totfact>
</mgrwt>
</event>
<event>
 8    1  0.1206249E-029  0.1636616E+04  0.7818608E-02  0.8798364E-01
         -3   -1    0    0    0  501 -0.00000000000E+00  0.00000000000E+00  0.21115167344E+04  0.21115167368E+04  0.10100000000E+00 0. -1.
          3   -1    0    0  501    0  0.00000000000E+00 -0.00000000000E+00 -0.31713142511E+03  0.31713144119E+03  0.10100000000E+00 0.  1.
     200001    2    1    2    0    0  0.64404380211E+02 -0.80324986133E+02  0.28708239952E+03  0.76354695303E+03  0.69999115550E+03 0.  0.
    5000001    2    3    3    0    0  0.43134821338E+02 -0.30313828226E+02  0.57962398508E+02  0.21087210747E+03  0.19577503691E+03 0.  0.
        -13    1    4    4    0    0 -0.49943033203E+02 -0.73546693721E+02 -0.71987477037E+00  0.88904173729E+02  0.10566000000E+00 0. -1.
     200003    1    4    4    0    0  0.93077854541E+02  0.43232865495E+02  0.58682273279E+02  0.12196793374E+03  0.30000000000E+02 0. -1.
     200000    1    3    3    0    0  0.21269558874E+02 -0.50011157907E+02  0.22912000102E+03  0.55267484556E+03  0.50000000000E+03 0.  1.
    -200001    1    1    2    0    0 -0.64404380211E+02  0.80324986133E+02  0.15073029097E+04  0.16651012249E+04  0.70000000000E+03 0. -1.
<mgrwt>
<rscale>  0 0.16366164E+04</rscale>
<asrwt>0</asrwt>
<pdfrwt beam="1">  1        3 0.45304490E-01 0.16366164E+04</pdfrwt>
<pdfrwt beam="2">  1       -3 0.30164525E+00 0.16366164E+04</pdfrwt>
<totfact> 0.45542453E-01</totfact>
</mgrwt>
</event>
<event>
 8    1  0.1206249E-029  0.1676612E+04  0.7818608E-02  0.8774817E-01
         -3   -1    0    0    0  501 -0.00000000000E+00  0.00000000000E+00  0.12067649249E+04  0.12067649291E+04  0.10100000000E+00 0.  1.
          3   -1    0    0  501    0  0.00000000000E+00 -0.00000000000E+00 -0.58234788932E+03  0.58234789807E+03  0.10100000000E+00 0. -1.
     200001    2    1    2    0    0 -0.34351502038E+03  0.23629383807E+03  0.10434326702E+03  0.82251359695E+03  0.70128721125E+03 0.  0.
    5000001    2    3    3    0    0 -0.19293147643E+03  0.14159920480E+03  0.41002175617E+02  0.28804697391E+03  0.15497416358E+03 0.  0.
        -13    1    4    4    0    0 -0.10179118595E+03  0.69524573267E+02  0.95804434774E+02  0.15612050702E+03  0.10566000000E+00 0. -1.
     200003    1    4    4    0    0 -0.91140290475E+02  0.72074631528E+02 -0.54802259157E+02  0.13192646689E+03  0.30000000000E+02 0. -1.
     200000    1    3    3    0    0 -0.15058354395E+03  0.94694633271E+02  0.63341091404E+02  0.53446662304E+03  0.50000000000E+03 0. -1.
    -200001    1    1    2    0    0  0.34351502038E+03 -0.23629383807E+03  0.52007376852E+03  0.96659923021E+03  0.70000000000E+03 0. -1.
<mgrwt>
<rscale>  0 0.16766121E+04</rscale>
<asrwt>0</asrwt>
<pdfrwt beam="1">  1        3 0.83192557E-01 0.16766121E+04</pdfrwt>
<pdfrwt beam="2">  1       -3 0.17239499E+00 0.16766121E+04</pdfrwt>
<totfact> 0.74516674E-01</totfact>
</mgrwt>
</event>
<event>
 8    1  0.1206249E-029  0.1830682E+04  0.7818608E-02  0.8690151E-01
          3   -1    0    0  501    0  0.00000000000E+00  0.00000000000E+00  0.16693007568E+04  0.16693007598E+04  0.10100000000E+00 0.  1.
         -3   -1    0    0    0  501 -0.00000000000E+00 -0.00000000000E+00 -0.50191602562E+03  0.50191603578E+03  0.10100000000E+00 0. -1.
     200001    2    1    2    0    0 -0.53443837363E+03 -0.11858361408E+02  0.87823326697E+03  0.12441927586E+04  0.70068320476E+03 0.  0.
    5000001    2    3    3    0    0 -0.22671131947E+03  0.22096892149E+02  0.14068537908E+03  0.30088698314E+03  0.13731098178E+03 0.  0.
        -13    1    4    4    0    0 -0.11779279304E+03  0.75734174911E+02  0.86441332846E+02  0.16456889903E+03  0.10566000000E+00 0. -1.
     200003    1    4    4    0    0 -0.10891852644E+03 -0.53637282761E+02  0.54244046232E+02  0.13631808411E+03  0.30000000000E+02 0. -1.
     200000    1    3    3    0    0 -0.30772705416E+03 -0.33955253557E+02  0.73754788789E+03  0.94330577547E+03  0.50000000000E+03 0.  1.
    -200001    1    1    2    0    0  0.53443837363E+03  0.11858361408E+02  0.28915146421E+03  0.92702403701E+03  0.70000000000E+03 0. -1.
<mgrwt>
<rscale>  0 0.18306816E+04</rscale>
<asrwt>0</asrwt>
<pdfrwt beam="1">  1        3 0.23847154E+00 0.18306816E+04</pdfrwt>
<pdfrwt beam="2">  1       -3 0.71702291E-01 0.18306816E+04</pdfrwt>
<totfact> 0.39582860E-01</totfact>
</mgrwt>
</event>
<event>
 8    1  0.1206249E-029  0.1574079E+04  0.7818608E-02  0.8836633E-01
          3   -1    0    0  501    0  0.00000000000E+00  0.00000000000E+00  0.11231792882E+04  0.11231792928E+04  0.10100000000E+00 0.  1.
         -3   -1    0    0    0  501 -0.00000000000E+00 -0.00000000000E+00 -0.55149790442E+03  0.55149791367E+03  0.10100000000E+00 0. -1.
     200001    2    1    2    0    0  0.22968573775E+03  0.27391405914E+03  0.25893808986E+03  0.82875001227E+03  0.70142226835E+03 0.  0.
    5000001    2    3    3    0    0  0.62590653387E+02  0.12968395140E+03  0.17486737912E+03  0.27576630943E+03  0.15726709763E+03 0.  0.
        -13    1    4    4    0    0  0.88761671202E+02  0.14327780553E+03  0.12130420613E+03  0.20765809741E+03  0.10566000000E+00 0. -1.
     200003    1    4    4    0    0 -0.26171017815E+02 -0.13593854133E+02  0.53563172996E+02  0.68108212024E+02  0.30000000000E+02 0.  1.
     200000    1    3    3    0    0  0.16709508436E+03  0.14423010774E+03  0.84070710731E+02  0.55298370283E+03  0.50000000000E+03 0. -1.
    -200001    1    1    2    0    0 -0.22968573775E+03 -0.27391405914E+03  0.31274329396E+03  0.84592719417E+03  0.70000000000E+03 0.  1.
<mgrwt>
<rscale>  0 0.15740788E+04</rscale>
<asrwt>0</asrwt>
<pdfrwt beam="1">  1        3 0.16045418E+00 0.15740788E+04</pdfrwt>
<pdfrwt beam="2">  1       -3 0.78785417E-01 0.15740788E+04</pdfrwt>
<totfact> 0.10325816E+00</totfact>
</mgrwt>
</event>
<event>
 8    1  0.1206249E-029  0.1579143E+04  0.7818608E-02  0.8833465E-01
         -3   -1    0    0    0  501 -0.00000000000E+00  0.00000000000E+00  0.99655680778E+03  0.99655681290E+03  0.10100000000E+00 0.  1.
          3   -1    0    0  501    0  0.00000000000E+00 -0.00000000000E+00 -0.62557709347E+03  0.62557710163E+03  0.10100000000E+00 0. -1.
     200001    2    1    2    0    0  0.59587014904E+02 -0.28723868432E+03 -0.37961192440E+02  0.75999161808E+03  0.70006394944E+03 0.  0.
    5000001    2    3    3    0    0  0.32976608213E+02 -0.28007401098E+02 -0.21746171856E+02  0.19592433589E+03  0.18984619616E+03 0.  0.
        -13    1    4    4    0    0  0.82436593830E+01 -0.10242625895E+03  0.15769859889E+02  0.10396055063E+03  0.10566000000E+00 0. -1.
     200003    1    4    4    0    0  0.24732948830E+02  0.74418857849E+02 -0.37516031745E+02  0.91963785260E+02  0.30000000000E+02 0. -1.
     200000    1    3    3    0    0  0.26610406691E+02 -0.25923128322E+03 -0.16215020584E+02  0.56406728219E+03  0.50000000000E+03 0.  1.
    -200001    1    1    2    0    0 -0.59587014904E+02  0.28723868432E+03  0.40894090675E+03  0.86214229645E+03  0.70000000000E+03 0.  1.
<mgrwt>
<rscale>  0 0.15791430E+04</rscale>
<asrwt>0</asrwt>
<pdfrwt beam="1">  1        3 0.89368156E-01 0.15791430E+04</pdfrwt>
<pdfrwt beam="2">  1       -3 0.14236526E+00 0.15791430E+04</pdfrwt>
<totfact> 0.10584986E+00</totfact>
</mgrwt>
</event>
<event>
 8    1  0.1206249E-029  0.1829959E+04  0.7818608E-02  0.8690528E-01
          3   -1    0    0  501    0  0.00000000000E+00  0.00000000000E+00  0.28216485457E+04  0.28216485475E+04  0.10100000000E+00 0. -1.
         -3   -1    0    0    0  501 -0.00000000000E+00 -0.00000000000E+00 -0.29670146082E+03  0.29670147801E+03  0.10100000000E+00 0.  1.
     200001    2    1    2    0    0  0.16372577950E+03  0.15426671332E+03  0.21904666804E+04  0.23105867615E+04  0.70004468048E+03 0.  0.
    5000001    2    3    3    0    0 -0.44991050392E+02  0.12941957880E+03  0.63143933671E+03  0.65990618864E+03  0.13411532302E+03 0.  0.
        -13    1    4    4    0    0 -0.47085047962E+02  0.13580370589E+03  0.59555020946E+03  0.61264974612E+03  0.10566000000E+00 0. -1.
     200003    1    4    4    0    0  0.20939975700E+01 -0.63841270907E+01  0.35889127255E+02  0.47256442520E+02  0.30000000000E+02 0. -1.
     200000    1    3    3    0    0  0.20871682989E+03  0.24847134518E+02  0.15590273437E+04  0.16506805729E+04  0.50000000000E+03 0. -1.
    -200001    1    1    2    0    0 -0.16372577950E+03 -0.15426671332E+03  0.33448040442E+03  0.80776326399E+03  0.70000000000E+03 0.  1.
<mgrwt>
<rscale>  0 0.18299588E+04</rscale>
<asrwt>0</asrwt>
<pdfrwt beam="1">  1        3 0.40309267E+00 0.18299588E+04</pdfrwt>
<pdfrwt beam="2">  1       -3 0.42385922E-01 0.18299588E+04</pdfrwt>
<totfact> 0.14783465E-01</totfact>
</mgrwt>
</event>
<event>
 8    1  0.1206249E-029  0.2357653E+04  0.7818608E-02  0.8455530E-01
          3   -1    0    0  501    0  0.00000000000E+00  0.00000000000E+00  0.14811414949E+04  0.14811414983E+04  0.10100000000E+00 0.  1.
         -3   -1    0    0    0  501 -0.00000000000E+00 -0.00000000000E+00 -0.93821655297E+03  0.93821655840E+03  0.10100000000E+00 0. -1.
     200001    2    1    2    0    0  0.53644883433E+03 -0.16211450280E+03  0.10564721660E+04  0.13860191892E+04  0.70061208333E+03 0.  0.
    5000001    2    3    3    0    0  0.18351835421E+03  0.32684499885E+02  0.25446086070E+03  0.35853259116E+03  0.17043481577E+03 0.  0.
        -13    1    4    4    0    0  0.12562013875E+03  0.84148383988E+02  0.94540162670E+02  0.17832336726E+03  0.10566000000E+00 0. -1.
     200003    1    4    4    0    0  0.57898215460E+02 -0.51463884104E+02  0.15992069803E+03  0.18020922390E+03  0.30000000000E+02 0. -1.
     200000    1    3    3    0    0  0.35293048012E+03 -0.19479900268E+03  0.80201130532E+03  0.10274865980E+04  0.50000000000E+03 0.  1.
    -200001    1    1    2    0    0 -0.53644883433E+03  0.16211450280E+03 -0.51354722409E+03  0.10333388676E+04  0.70000000000E+03 0. -1.
<mgrwt>
<rscale>  0 0.23576526E+04</rscale>
<asrwt>0</asrwt>
<pdfrwt beam="1">  1        3 0.21159164E+00 0.23576526E+04</pdfrwt>
<pdfrwt beam="2">  1       -3 0.13403094E+00 0.23576526E+04</pdfrwt>
<totfact> 0.12735267E-01</totfact>
</mgrwt>
</event>
<event>
 8    1  0.1206249E-029  0.1700947E+04  0.7818608E-02  0.8760825E-01
         -3   -1    0    0    0  501 -0.00000000000E+00  0.00000000000E+00  0.96081620929E+03  0.96081621460E+03  0.10100000000E+00 0. -1.
          3   -1    0    0  501    0  0.00000000000E+00 -0.00000000000E+00 -0.75280244424E+03  0.75280245102E+03  0.10100000000E+00 0.  1.
     200001    2    1    2    0    0  0.42475859990E+03  0.30016801440E+02  0.33428231005E+03  0.88460441845E+03  0.69961377757E+03 0.  0.
    5000001    2    3    3    0    0  0.14013835965E+03  0.19825856447E+02  0.80239572535E+02  0.25559706634E+03  0.19712850350E+03 0.  0.
        -13    1    4    4    0    0 -0.29235968226E+02 -0.11569281520E+02 -0.34330110025E+02  0.46552741394E+02  0.10566000000E+00 0. -1.
     200003    1    4    4    0    0  0.16937432788E+03  0.31395137968E+02  0.11456968256E+03  0.20904432495E+03  0.30000000000E+02 0. -1.
     200000    1    3    3    0    0  0.28462024025E+03  0.10190944993E+02  0.25404273751E+03  0.62900735210E+03  0.50000000000E+03 0. -1.
    -200001    1    1    2    0    0 -0.42475859990E+03 -0.30016801440E+02 -0.12626854499E+03  0.82901424717E+03  0.70000000000E+03 0.  1.
<mgrwt>
<rscale>  0 0.17009466E+04</rscale>
<asrwt>0</asrwt>
<pdfrwt beam="1">  1        3 0.10754321E+00 0.17009466E+04</pdfrwt>
<pdfrwt beam="2">  1       -3 0.13725946E+00 0.17009466E+04</pdfrwt>
<totfact> 0.74811140E-01</totfact>
</mgrwt>
</event>
<event>
 8    1  0.1206249E-029  0.1547249E+04  0.7818608E-02  0.8853627E-01
          3   -1    0    0  501    0  0.00000000000E+00  0.00000000000E+00  0.92553344773E+03  0.92553345324E+03  0.10100000000E+00 0.  1.
         -3   -1    0    0    0  501 -0.00000000000E+00 -0.00000000000E+00 -0.64664839853E+03  0.64664840642E+03  0.10100000000E+00 0. -1.
     200001    2    1    2    0    0 -0.25676787480E+03 -0.97919267102E+02  0.32401746037E+03  0.81881949072E+03  0.69997151325E+03 0.  0.
    5000001    2    3    3    0    0  0.33289792870E+02  0.57444489591E+02  0.12111485477E+03  0.18680618799E+03  0.12577624630E+03 0.  0.
        -13    1    4    4    0    0  0.28774581652E+01  0.88119107491E+02  0.88503374062E+02  0.12492443818E+03  0.10566000000E+00 0. -1.
     200003    1    4    4    0    0  0.30412334705E+02 -0.30674617900E+02  0.32611480705E+02  0.61881749808E+02  0.30000000000E+02 0. -1.
     200000    1    3    3    0    0 -0.29005766767E+03 -0.15536375669E+03  0.20290260560E+03  0.63201330273E+03  0.50000000000E+03 0.  1.
    -200001    1    1    2    0    0  0.25676787480E+03  0.97919267102E+02 -0.45132411173E+02  0.75336236894E+03  0.70000000000E+03 0.  1.
<mgrwt>
<rscale>  0 0.15472488E+04</rscale>
<asrwt>0</asrwt>
<pdfrwt beam="1">  1        3 0.13221907E+00 0.15472488E+04</pdfrwt>
<pdfrwt beam="2">  1       -3 0.92378343E-01 0.15472488E+04</pdfrwt>
<totfact> 0.11878132E+00</totfact>
</mgrwt>
</event>
<event>
 8    1  0.1206249E-029  0.1446341E+04  0.7818608E-02  0.8920941E-01
          3   -1    0    0  501    0  0.00000000000E+00  0.00000000000E+00  0.41572863467E+03  0.41572864694E+03  0.10100000000E+00 0.  1.
         -3   -1    0    0    0  501 -0.00000000000E+00 -0.00000000000E+00 -0.12579727513E+04  0.12579727553E+04  0.10100000000E+00 0. -1.
     200001    2    1    2    0    0  0.12810922525E+03 -0.32565092217E+02 -0.56161346096E+03  0.90804741795E+03  0.70119039846E+03 0.  0.
    5000001    2    3    3    0    0 -0.68939121374E+02  0.55125732105E+02 -0.22232353730E+03  0.26645924484E+03  0.11739388880E+03 0.  0.
        -13    1    4    4    0    0 -0.17935370067E+02  0.12054601689E+02 -0.18124941712E+03  0.18253315670E+03  0.10566000000E+00 0. -1.
     200003    1    4    4    0    0 -0.51003751307E+02  0.43071130415E+02 -0.41074120171E+02  0.83926088140E+02  0.30000000000E+02 0. -1.
     200000    1    3    3    0    0  0.19704834662E+03 -0.87690824321E+02 -0.33928992366E+03  0.64158817311E+03  0.50000000000E+03 0. -1.
    -200001    1    1    2    0    0 -0.12810922525E+03  0.32565092217E+02 -0.28063065566E+03  0.76565398433E+03  0.70000000000E+03 0.  1.
<mgrwt>
<rscale>  0 0.14463406E+04</rscale>
<asrwt>0</asrwt>
<pdfrwt beam="1">  1        3 0.59389807E-01 0.14463406E+04</pdfrwt>
<pdfrwt beam="2">  1       -3 0.17971039E+00 0.14463406E+04</pdfrwt>
<totfact> 0.14072289E+00</totfact>
</mgrwt>
</event>
<event>
 8    1  0.1206249E-029  0.1486559E+04  0.7818608E-02  0.8893440E-01
          3   -1    0    0  501    0  0.00000000000E+00  0.00000000000E+00  0.25490094842E+03  0.25490096843E+03  0.10100000000E+00 0.  1.
         -3   -1    0    0    0  501 -0.00000000000E+00 -0.00000000000E+00 -0.21673693176E+04  0.21673693199E+04  0.10100000000E+00 0. -1.
     200001    2    1    2    0    0  0.15026924083E+03  0.19855686123E+03 -0.10036334884E+04  0.12483935860E+04  0.69942883457E+03 0.  0.
    5000001    2    3    3    0    0  0.50097593754E+02  0.68784738350E+02 -0.32531527668E+03  0.38991192684E+03  0.19738331317E+03 0.  0.
        -13    1    4    4    0    0  0.83806675529E+02 -0.40916238390E+02 -0.11117168139E+03  0.14510979062E+03  0.10566000000E+00 0. -1.
     200003    1    4    4    0    0 -0.33709081774E+02  0.10970097674E+03 -0.21414359529E+03  0.24480213621E+03  0.30000000000E+02 0. -1.
     200000    1    3    3    0    0  0.10017164707E+03  0.12977212288E+03 -0.67831821174E+03  0.85848165917E+03  0.50000000000E+03 0.  1.
    -200001    1    1    2    0    0 -0.15026924083E+03 -0.19855686123E+03 -0.90883488072E+03  0.11738767023E+04  0.70000000000E+03 0.  1.
<mgrwt>
<rscale>  0 0.14865591E+04</rscale>
<asrwt>0</asrwt>
<pdfrwt beam="1">  1        3 0.36414424E-01 0.14865591E+04</pdfrwt>
<pdfrwt beam="2">  1       -3 0.30962418E+00 0.14865591E+04</pdfrwt>
<totfact> 0.64213177E-01</totfact>
</mgrwt>
</event>
<event>
 8    1  0.1206249E-029  0.1629040E+04  0.7818608E-02  0.8802904E-01
         -3   -1    0    0    0  501 -0.00000000000E+00  0.00000000000E+00  0.13955125288E+04  0.13955125324E+04  0.10100000000E+00 0. -1.
          3   -1    0    0  501    0  0.00000000000E+00 -0.00000000000E+00 -0.47541168495E+03  0.47541169567E+03  0.10100000000E+00 0.  1.
     200001    2    1    2    0    0 -0.17069528613E+03  0.34939518704E+03  0.63251493628E+03  0.10200896192E+04  0.69949539614E+03 0.  0.
    5000001    2    3    3    0    0  0.14642140369E+02  0.90575431450E+01  0.58957840658E+02  0.16618832784E+03  0.15442183127E+03 0.  0.
        -13    1    4    4    0    0 -0.31403561601E+02  0.67930097692E+02  0.27798280569E+02  0.79833811260E+02  0.10566000000E+00 0. -1.
     200003    1    4    4    0    0  0.46045701970E+02 -0.58872554547E+02  0.31159560090E+02  0.86354516580E+02  0.30000000000E+02 0. -1.
     200000    1    3    3    0    0 -0.18533742650E+03  0.34033764390E+03  0.57355709562E+03  0.85390129140E+03  0.50000000000E+03 0.  1.
    -200001    1    1    2    0    0  0.17069528613E+03 -0.34939518704E+03  0.28758590756E+03  0.85083460888E+03  0.70000000000E+03 0.  1.
<mgrwt>
<rscale>  0 0.16290402E+04</rscale>
<asrwt>0</asrwt>
<pdfrwt beam="1">  1        3 0.67915956E-01 0.16290402E+04</pdfrwt>
<pdfrwt beam="2">  1       -3 0.19935893E+00 0.16290402E+04</pdfrwt>
<totfact> 0.77611149E-01</totfact>
</mgrwt>
</event>
<event>
 8    1  0.1206249E-029  0.1471786E+04  0.7818608E-02  0.8903435E-01
         -3   -1    0    0    0  501 -0.00000000000E+00  0.00000000000E+00  0.11173908153E+04  0.11173908198E+04  0.10100000000E+00 0. -1.
          3   -1    0    0  501    0  0.00000000000E+00 -0.00000000000E+00 -0.48464523002E+03  0.48464524054E+03  0.10100000000E+00 0.  1.
     200001    2    1    2    0    0 -0.10741359570E+01 -0.22188773768E+03  0.26307210826E+03  0.77990845381E+03  0.69986780201E+03 0.  0.
    5000001    2    3    3    0    0 -0.62691651100E+02  0.29514312880E+01 -0.30361098061E+02  0.15504653575E+03  0.13848710376E+03 0.  0.
        -13    1    4    4    0    0  0.34516094022E+01 -0.30322342196E+02  0.38811350545E+02  0.49372969719E+02  0.10566000000E+00 0. -1.
     200003    1    4    4    0    0 -0.66143260502E+02  0.33273773484E+02 -0.69172448606E+02  0.10567356603E+03  0.30000000000E+02 0. -1.
     200000    1    3    3    0    0  0.61617515143E+02 -0.22483916897E+03  0.29343320632E+03  0.62486191806E+03  0.50000000000E+03 0. -1.
    -200001    1    1    2    0    0  0.10741359570E+01  0.22188773768E+03  0.36967347701E+03  0.82212760658E+03  0.70000000000E+03 0. -1.
<mgrwt>
<rscale>  0 0.14717855E+04</rscale>
<asrwt>0</asrwt>
<pdfrwt beam="1">  1        3 0.69235033E-01 0.14717855E+04</pdfrwt>
<pdfrwt beam="2">  1       -3 0.15962726E+00 0.14717855E+04</pdfrwt>
<totfact> 0.13961059E+00</totfact>
</mgrwt>
</event>
<event>
 8    1  0.1206249E-029  0.1660914E+04  0.7818608E-02  0.8783976E-01
         -3   -1    0    0    0  501 -0.00000000000E+00  0.00000000000E+00  0.15147573172E+04  0.15147573205E+04  0.10100000000E+00 0. -1.
          3   -1    0    0  501    0  0.00000000000E+00 -0.00000000000E+00 -0.45529314870E+03  0.45529315991E+03  0.10100000000E+00 0.  1.
     200001    2    1    2    0    0 -0.15648333836E+03 -0.40255096871E+03  0.39712013450E+03  0.91400410980E+03  0.70083150180E+03 0.  0.
    5000001    2    3    3    0    0 -0.57912704850E+02 -0.15699980574E+03  0.46906712614E+02  0.24867638282E+03  0.17786760047E+03 0.  0.
        -13    1    4    4    0    0 -0.47457921254E+02  0.28115081491E+02  0.31183424004E+00  0.55161766665E+02  0.10566000000E+00 0. -1.
     200003    1    4    4    0    0 -0.10454783596E+02 -0.18511488723E+03  0.46594878374E+02  0.19351461615E+03  0.30000000000E+02 0. -1.
     200000    1    3    3    0    0 -0.98570633509E+02 -0.24555116297E+03  0.35021342188E+03  0.66532772698E+03  0.50000000000E+03 0.  1.
    -200001    1    1    2    0    0  0.15648333836E+03  0.40255096871E+03  0.66234403395E+03  0.10560463706E+04  0.70000000000E+03 0. -1.
<mgrwt>
<rscale>  0 0.16609138E+04</rscale>
<asrwt>0</asrwt>
<pdfrwt beam="1">  1        3 0.65041880E-01 0.16609138E+04</pdfrwt>
<pdfrwt beam="2">  1       -3 0.21639390E+00 0.16609138E+04</pdfrwt>
<totfact> 0.66573924E-01</totfact>
</mgrwt>
</event>
<event>
 8    1  0.1206249E-029  0.1565912E+04  0.7818608E-02  0.8841768E-01
         -3   -1    0    0    0  501 -0.00000000000E+00  0.00000000000E+00  0.46388098195E+03  0.46388099294E+03  0.10100000000E+00 0. -1.
          3   -1    0    0  501    0  0.00000000000E+00 -0.00000000000E+00 -0.13215031225E+04  0.13215031264E+04  0.10100000000E+00 0.  1.
     200001    2    1    2    0    0 -0.26261583879E+03  0.19932437170E+03 -0.56756442134E+03  0.95904837373E+03  0.69924754332E+03 0.  0.
    5000001    2    3    3    0    0  0.13666891384E+02  0.16142827439E+03 -0.94822084622E+02  0.21658384386E+03  0.10803454075E+03 0.  0.
        -13    1    4    4    0    0 -0.50045453799E+01  0.40138267109E+02  0.20662780040E+02  0.45421224158E+02  0.10566000000E+00 0. -1.
     200003    1    4    4    0    0  0.18671436764E+02  0.12129000728E+03 -0.11548486466E+03  0.17116261970E+03  0.30000000000E+02 0. -1.
     200000    1    3    3    0    0 -0.27628273018E+03  0.37896097303E+02 -0.47274233672E+03  0.74246452987E+03  0.50000000000E+03 0.  1.
    -200001    1    1    2    0    0  0.26261583879E+03 -0.19932437170E+03 -0.29005771921E+03  0.82633574557E+03  0.70000000000E+03 0. -1.
<mgrwt>
<rscale>  0 0.15659121E+04</rscale>
<asrwt>0</asrwt>
<pdfrwt beam="1">  1        3 0.18878616E+00 0.15659121E+04</pdfrwt>
<pdfrwt beam="2">  1       -3 0.66268713E-01 0.15659121E+04</pdfrwt>
<totfact> 0.96679881E-01</totfact>
</mgrwt>
</event>
<event>
 8    1  0.1206249E-029  0.1779301E+04  0.7818608E-02  0.8717385E-01
         -3   -1    0    0    0  501 -0.00000000000E+00  0.00000000000E+00  0.11410445832E+04  0.11410445876E+04  0.10100000000E+00 0. -1.
          3   -1    0    0  501    0  0.00000000000E+00 -0.00000000000E+00 -0.69364367338E+03  0.69364368073E+03  0.10100000000E+00 0.  1.
     200001    2    1    2    0    0  0.86638472463E+02 -0.30803281966E+03  0.68397532002E+03  0.10294815281E+04  0.69972818687E+03 0.  0.
    5000001    2    3    3    0    0  0.14034671838E+03 -0.40932778155E+02  0.16649847255E+03  0.26006012506E+03  0.13615004077E+03 0.  0.
        -13    1    4    4    0    0  0.90865889504E+02 -0.86779168125E+02  0.11169833929E+03  0.16811830376E+03  0.10566000000E+00 0. -1.
     200003    1    4    4    0    0  0.49480828875E+02  0.45846389970E+02  0.54800133254E+02  0.91941821300E+02  0.30000000000E+02 0. -1.
     200000    1    3    3    0    0 -0.53708245916E+02 -0.26710004150E+03  0.51747684747E+03  0.76942140308E+03  0.50000000000E+03 0. -1.
    -200001    1    1    2    0    0 -0.86638472463E+02  0.30803281966E+03 -0.23657441024E+03  0.80520674021E+03  0.70000000000E+03 0.  1.
<mgrwt>
<rscale>  0 0.17793014E+04</rscale>
<asrwt>0</asrwt>
<pdfrwt beam="1">  1        3 0.99091955E-01 0.17793014E+04</pdfrwt>
<pdfrwt beam="2">  1       -3 0.16300637E+00 0.17793014E+04</pdfrwt>
<totfact> 0.57657383E-01</totfact>
</mgrwt>
</event>
<event>
 8    1  0.1206249E-029  0.1774634E+04  0.7818608E-02  0.8719906E-01
          3   -1    0    0  501    0  0.00000000000E+00  0.00000000000E+00  0.31929661019E+03  0.31929662616E+03  0.10100000000E+00 0.  1.
         -3   -1    0    0    0  501 -0.00000000000E+00 -0.00000000000E+00 -0.24658308919E+04  0.24658308939E+04  0.10100000000E+00 0. -1.
     200001    2    1    2    0    0 -0.25430627303E+02 -0.11847522315E+03 -0.23958281758E+03  0.75014668929E+03  0.70045487626E+03 0.  0.
    5000001    2    3    3    0    0  0.62036718524E+02 -0.36031198975E+02 -0.13188339622E+03  0.22474520560E+03  0.16724346174E+03 0.  0.
        -13    1    4    4    0    0 -0.87031746762E+01  0.10273884786E+02 -0.13432647054E+03  0.13499966597E+03  0.10566000000E+00 0. -1.
     200003    1    4    4    0    0  0.70739893200E+02 -0.46305083760E+02  0.24430743193E+01  0.89745539634E+02  0.30000000000E+02 0. -1.
     200000    1    3    3    0    0 -0.87467345827E+02 -0.82444024177E+02 -0.10769942135E+03  0.52540148369E+03  0.50000000000E+03 0.  1.
    -200001    1    1    2    0    0  0.25430627303E+02  0.11847522315E+03 -0.19069514641E+04  0.20349808308E+04  0.70000000000E+03 0. -1.
<mgrwt>
<rscale>  0 0.17746340E+04</rscale>
<asrwt>0</asrwt>
<pdfrwt beam="1">  1        3 0.45613804E-01 0.17746340E+04</pdfrwt>
<pdfrwt beam="2">  1       -3 0.35226155E+00 0.17746340E+04</pdfrwt>
<totfact> 0.23236452E-01</totfact>
</mgrwt>
</event>
<event>
 8    1  0.1206249E-029  0.1510209E+04  0.7818608E-02  0.8877692E-01
          3   -1    0    0  501    0  0.00000000000E+00  0.00000000000E+00  0.30392277422E+03  0.30392279100E+03  0.10100000000E+00 0.  1.
         -3   -1    0    0    0  501 -0.00000000000E+00 -0.00000000000E+00 -0.18760782076E+04  0.18760782103E+04  0.10100000000E+00 0. -1.
     200001    2    1    2    0    0  0.20068713554E+03  0.16345174808E+03 -0.62092025024E+03  0.97093517434E+03  0.70012952751E+03 0.  0.
    5000001    2    3    3    0    0  0.33219994487E+02  0.27067054761E+02 -0.16968108227E+03  0.26364257957E+03  0.19717897097E+03 0.  0.
        -13    1    4    4    0    0  0.34561983711E+02 -0.53922783734E+02 -0.16516256792E+03  0.17714649962E+03  0.10566000000E+00 0. -1.
     200003    1    4    4    0    0 -0.13419892247E+01  0.80989838494E+02 -0.45185143543E+01  0.86496079948E+02  0.30000000000E+02 0. -1.
     200000    1    3    3    0    0  0.16746714105E+03  0.13638469332E+03 -0.45123916797E+03  0.70729259477E+03  0.50000000000E+03 0.  1.
    -200001    1    1    2    0    0 -0.20068713554E+03 -0.16345174808E+03 -0.95123518313E+03  0.12090658270E+04  0.70000000000E+03 0. -1.
<mgrwt>
<rscale>  0 0.15102091E+04</rscale>
<asrwt>0</asrwt>
<pdfrwt beam="1">  1        3 0.43417541E-01 0.15102091E+04</pdfrwt>
<pdfrwt beam="2">  1       -3 0.26801117E+00 0.15102091E+04</pdfrwt>
<totfact> 0.77505865E-01</totfact>
</mgrwt>
</event>
<event>
 8    1  0.1206249E-029  0.1567030E+04  0.7818608E-02  0.8841063E-01
          3   -1    0    0  501    0  0.00000000000E+00  0.00000000000E+00  0.19316643151E+04  0.19316643178E+04  0.10100000000E+00 0.  1.
         -3   -1    0    0    0  501 -0.00000000000E+00 -0.00000000000E+00 -0.31780651583E+03  0.31780653188E+03  0.10100000000E+00 0. -1.
     200001    2    1    2    0    0  0.17239894993E+03  0.30152019799E+03  0.71798364693E+03  0.10606788895E+04  0.69921624806E+03 0.  0.
    5000001    2    3    3    0    0  0.83556900338E+01  0.65236363919E+02  0.68134905202E+02  0.19174642460E+03  0.16672949741E+03 0.  0.
        -13    1    4    4    0    0  0.34526420890E+02  0.61024316489E+02 -0.36978038785E+02  0.79268073390E+02  0.10566000000E+00 0. -1.
     200003    1    4    4    0    0 -0.26170730856E+02  0.42120474302E+01  0.10511294399E+03  0.11247835121E+03  0.30000000000E+02 0. -1.
     200000    1    3    3    0    0  0.16404325989E+03  0.23628383407E+03  0.64984874173E+03  0.86893246486E+03  0.50000000000E+03 0.  1.
    -200001    1    1    2    0    0 -0.17239894993E+03 -0.30152019799E+03  0.89587415238E+03  0.11887919602E+04  0.70000000000E+03 0.  1.
<mgrwt>
<rscale>  0 0.15670297E+04</rscale>
<asrwt>0</asrwt>
<pdfrwt beam="1">  1        3 0.27595204E+00 0.15670297E+04</pdfrwt>
<pdfrwt beam="2">  1       -3 0.45400933E-01 0.15670297E+04</pdfrwt>
<totfact> 0.64476473E-01</totfact>
</mgrwt>
</event>
<event>
 8    1  0.1206249E-029  0.1470628E+04  0.7818608E-02  0.8904223E-01
         -3   -1    0    0    0  501 -0.00000000000E+00  0.00000000000E+00  0.50107278866E+03  0.50107279884E+03  0.10100000000E+00 0. -1.
          3   -1    0    0  501    0  0.00000000000E+00 -0.00000000000E+00 -0.10790578612E+04  0.10790578660E+04  0.10100000000E+00 0.  1.
     200001    2    1    2    0    0 -0.15759947469E+02  0.10823709788E+03 -0.75646817480E+02  0.71162196143E+03  0.69908492309E+03 0.  0.
    5000001    2    3    3    0    0 -0.69904994423E+02 -0.43647134958E+02  0.10294756927E+03  0.15673777417E+03  0.84715684494E+02 0.  0.
        -13    1    4    4    0    0 -0.51663396400E+02 -0.60012306499E+02  0.73971983969E+02  0.10836258134E+03  0.10566000000E+00 0. -1.
     200003    1    4    4    0    0 -0.18241598023E+02  0.16365171541E+02  0.28975585299E+02  0.48375192831E+02  0.30000000000E+02 0. -1.
     200000    1    3    3    0    0  0.54145046954E+02  0.15188423284E+03 -0.17859438675E+03  0.55488418726E+03  0.50000000000E+03 0.  1.
    -200001    1    1    2    0    0  0.15759947469E+02 -0.10823709788E+03 -0.50233825509E+03  0.86850870337E+03  0.70000000000E+03 0.  1.
<mgrwt>
<rscale>  0 0.14706278E+04</rscale>
<asrwt>0</asrwt>
<pdfrwt beam="1">  1        3 0.15415112E+00 0.14706278E+04</pdfrwt>
<pdfrwt beam="2">  1       -3 0.71581828E-01 0.14706278E+04</pdfrwt>
<totfact> 0.14286110E+00</totfact>
</mgrwt>
</event>
<event>
 8    1  0.1206249E-029  0.2363735E+04  0.7818608E-02  0.8453207E-01
          3   -1    0    0  501    0  0.00000000000E+00  0.00000000000E+00  0.20287491009E+04  0.20287491034E+04  0.10100000000E+00 0.  1.
         -3   -1    0    0    0  501 -0.00000000000E+00 -0.00000000000E+00 -0.68850810073E+03  0.68850810814E+03  0.10100000000E+00 0. -1.
     200001    2    1    2    0    0 -0.16374845189E+03  0.84789863399E+03  0.21204144420E+03  0.11334075068E+04  0.70278400201E+03 0.  0.
    5000001    2    3    3    0    0  0.98862287907E+02  0.23583711041E+03  0.14742039395E+03  0.29808745474E+03  0.41598840199E+02 0.  0.
        -13    1    4    4    0    0  0.58084326468E+01  0.80562800451E+01  0.50999831177E+00  0.99454914555E+01  0.10566000000E+00 0. -1.
     200003    1    4    4    0    0  0.93053855260E+02  0.22778083037E+03  0.14691039564E+03  0.28814196329E+03  0.30000000000E+02 0. -1.
     200000    1    3    3    0    0 -0.26261073980E+03  0.61206152358E+03  0.64621050252E+02  0.83532005210E+03  0.50000000000E+03 0. -1.
    -200001    1    1    2    0    0  0.16374845189E+03 -0.84789863399E+03  0.11281995560E+04  0.15838497047E+04  0.70000000000E+03 0.  1.
<mgrwt>
<rscale>  0 0.23637345E+04</rscale>
<asrwt>0</asrwt>
<pdfrwt beam="1">  1        3 0.28982130E+00 0.23637345E+04</pdfrwt>
<pdfrwt beam="2">  1       -3 0.98358302E-01 0.23637345E+04</pdfrwt>
<totfact> 0.94881589E-02</totfact>
</mgrwt>
</event>
<event>
 8    1  0.1206249E-029  0.1739495E+04  0.7818608E-02  0.8739154E-01
         -3   -1    0    0    0  501 -0.00000000000E+00  0.00000000000E+00  0.11444363451E+04  0.11444363496E+04  0.10100000000E+00 0.  1.
          3   -1    0    0  501    0  0.00000000000E+00 -0.00000000000E+00 -0.66098938099E+03  0.66098938871E+03  0.10100000000E+00 0. -1.
     200001    2    1    2    0    0  0.33884739200E+03  0.13745058929E+03  0.61954819706E+03  0.10040308512E+04  0.70037687142E+03 0.  0.
    5000001    2    3    3    0    0  0.10216745284E+03  0.87288592764E+02  0.26187960982E+03  0.34337932592E+03  0.17683592560E+03 0.  0.
        -13    1    4    4    0    0 -0.10300145280E+02  0.10327424705E+03  0.13760825034E+03  0.17235923190E+03  0.10566000000E+00 0. -1.
     200003    1    4    4    0    0  0.11246759812E+03 -0.15985654290E+02  0.12427135948E+03  0.17102009401E+03  0.30000000000E+02 0. -1.
     200000    1    3    3    0    0  0.23667993917E+03  0.50161996525E+02  0.35766858725E+03  0.66065152524E+03  0.50000000000E+03 0.  1.
    -200001    1    1    2    0    0 -0.33884739200E+03 -0.13745058929E+03 -0.13610123290E+03  0.80139488716E+03  0.70000000000E+03 0. -1.
<mgrwt>
<rscale>  0 0.17394945E+04</rscale>
<asrwt>0</asrwt>
<pdfrwt beam="1">  1        3 0.94427056E-01 0.17394945E+04</pdfrwt>
<pdfrwt beam="2">  1       -3 0.16349091E+00 0.17394945E+04</pdfrwt>
<totfact> 0.64162657E-01</totfact>
</mgrwt>
</event>
<event>
 8    1  0.1206249E-029  0.1449112E+04  0.7818608E-02  0.8919016E-01
         -3   -1    0    0    0  501 -0.00000000000E+00  0.00000000000E+00  0.96313355964E+03  0.96313356494E+03  0.10100000000E+00 0. -1.
          3   -1    0    0  501    0  0.00000000000E+00 -0.00000000000E+00 -0.54507634498E+03  0.54507635434E+03  0.10100000000E+00 0.  1.
     200001    2    1    2    0    0 -0.12990373554E+03  0.12307571171E+03  0.26805498418E+03  0.77029171212E+03  0.69962363874E+03 0.  0.
    5000001    2    3    3    0    0  0.40642016855E+02 -0.65779808354E+02  0.12249006016E+03  0.19068718468E+03  0.12401222054E+03 0.  0.
        -13    1    4    4    0    0  0.54228999673E+02 -0.57550674148E+02  0.13336189999E+03  0.15504280710E+03  0.10566000000E+00 0. -1.
     200003    1    4    4    0    0 -0.13586982819E+02 -0.82291342061E+01 -0.10871839830E+02  0.35644377582E+02  0.30000000000E+02 0. -1.
     200000    1    3    3    0    0 -0.17054575239E+03  0.18885552006E+03  0.14556492403E+03  0.57960452744E+03  0.50000000000E+03 0. -1.
    -200001    1    1    2    0    0  0.12990373554E+03 -0.12307571171E+03  0.15000223048E+03  0.73791820717E+03  0.70000000000E+03 0.  1.
<mgrwt>
<rscale>  0 0.14491119E+04</rscale>
<asrwt>0</asrwt>
<pdfrwt beam="1">  1        3 0.77868051E-01 0.14491119E+04</pdfrwt>
<pdfrwt beam="2">  1       -3 0.13759051E+00 0.14491119E+04</pdfrwt>
<totfact> 0.15886929E+00</totfact>
</mgrwt>
</event>
<event>
 8    1  0.1206249E-029  0.1471453E+04  0.7818608E-02  0.8903661E-01
          3   -1    0    0  501    0  0.00000000000E+00  0.00000000000E+00  0.52968258429E+03  0.52968259392E+03  0.10100000000E+00 0.  1.
         -3   -1    0    0    0  501 -0.00000000000E+00 -0.00000000000E+00 -0.10219211374E+04  0.10219211424E+04  0.10100000000E+00 0. -1.
     200001    2    1    2    0    0 -0.12138995297E+03 -0.18975759584E+03 -0.28727948898E+03  0.78822199447E+03  0.69858495684E+03 0.  0.
    5000001    2    3    3    0    0 -0.12437843359E+03  0.17632623625E+02 -0.10569819915E+02  0.18028460041E+03  0.12887944713E+03 0.  0.
        -13    1    4    4    0    0 -0.38822017212E+02  0.95172227082E+01 -0.63466490863E+02  0.75004887673E+02  0.10566000000E+00 0. -1.
     200003    1    4    4    0    0 -0.85556416380E+02  0.81154009171E+01  0.52896670947E+02  0.10527971273E+03  0.30000000000E+02 0. -1.
     200000    1    3    3    0    0  0.29884806254E+01 -0.20739021946E+03 -0.27670966907E+03  0.60793739406E+03  0.50000000000E+03 0.  1.
    -200001    1    1    2    0    0  0.12138995297E+03  0.18975759584E+03 -0.20495906417E+03  0.76338174189E+03  0.70000000000E+03 0.  1.
<mgrwt>
<rscale>  0 0.14714535E+04</rscale>
<asrwt>0</asrwt>
<pdfrwt beam="1">  1        3 0.75668942E-01 0.14714535E+04</pdfrwt>
<pdfrwt beam="2">  1       -3 0.14598873E+00 0.14714535E+04</pdfrwt>
<totfact> 0.14521276E+00</totfact>
</mgrwt>
</event>
<event>
 8    1  0.1206249E-029  0.1856286E+04  0.7818608E-02  0.8676927E-01
         -3   -1    0    0    0  501 -0.00000000000E+00  0.00000000000E+00  0.67302015939E+03  0.67302016697E+03  0.10100000000E+00 0. -1.
          3   -1    0    0  501    0  0.00000000000E+00 -0.00000000000E+00 -0.12799759806E+04  0.12799759846E+04  0.10100000000E+00 0.  1.
     200001    2    1    2    0    0 -0.30162926261E+03  0.51390079553E+03 -0.43715525690E+03  0.10181665033E+04  0.70034567897E+03 0.  0.
    5000001    2    3    3    0    0 -0.10043566072E+03  0.39343288833E+02 -0.16013115528E+03  0.24847432748E+03  0.15640424612E+03 0.  0.
        -13    1    4    4    0    0 -0.11815448164E+03 -0.89894277499E+00 -0.15513872102E+03  0.19501108572E+03  0.10566000000E+00 0. -1.
     200003    1    4    4    0    0  0.17718820919E+02  0.40242231608E+02 -0.49924342615E+01  0.53463241759E+02  0.30000000000E+02 0. -1.
     200000    1    3    3    0    0 -0.20119360189E+03  0.47455750670E+03 -0.27702410162E+03  0.76969217579E+03  0.50000000000E+03 0. -1.
    -200001    1    1    2    0    0  0.30162926261E+03 -0.51390079553E+03 -0.16980056433E+03  0.93482964831E+03  0.70000000000E+03 0. -1.
<mgrwt>
<rscale>  0 0.18562862E+04</rscale>
<asrwt>0</asrwt>
<pdfrwt beam="1">  1        3 0.18285371E+00 0.18562862E+04</pdfrwt>
<pdfrwt beam="2">  1       -3 0.96145738E-01 0.18562862E+04</pdfrwt>
<totfact> 0.45054376E-01</totfact>
</mgrwt>
</event>
<event>
 8    1  0.1206249E-029  0.1420079E+04  0.7818608E-02  0.8939411E-01
          3   -1    0    0  501    0  0.00000000000E+00  0.00000000000E+00  0.42168681484E+03  0.42168682693E+03  0.10100000000E+00 0.  1.
         -3   -1    0    0    0  501 -0.00000000000E+00 -0.00000000000E+00 -0.11955695680E+04  0.11955695723E+04  0.10100000000E+00 0. -1.
     200001    2    1    2    0    0  0.11021242975E+03 -0.35197319008E+02 -0.41265405559E+03  0.82109573523E+03  0.70037790219E+03 0.  0.
    5000001    2    3    3    0    0  0.71694704645E+02  0.29601962769E+02 -0.18756633770E+03  0.26760947270E+03  0.17440553880E+03 0.  0.
        -13    1    4    4    0    0  0.34730861307E+02 -0.27742246327E+02 -0.18789259276E+03  0.19307900595E+03  0.10566000000E+00 0. -1.
     200003    1    4    4    0    0  0.36963843338E+02  0.57344209096E+02  0.32625506700E+00  0.74530466747E+02  0.30000000000E+02 0. -1.
     200000    1    3    3    0    0  0.38517725109E+02 -0.64799281777E+02 -0.22508771789E+03  0.55348626253E+03  0.50000000000E+03 0.  1.
    -200001    1    1    2    0    0 -0.11021242975E+03  0.35197319008E+02 -0.36122869761E+03  0.79616066401E+03  0.70000000000E+03 0. -1.
<mgrwt>
<rscale>  0 0.14200788E+04</rscale>
<asrwt>0</asrwt>
<pdfrwt beam="1">  1        3 0.60240975E-01 0.14200788E+04</pdfrwt>
<pdfrwt beam="2">  1       -3 0.17079565E+00 0.14200788E+04</pdfrwt>
<totfact> 0.15736984E+00</totfact>
</mgrwt>
</event>
<event>
 8    1  0.1206249E-029  0.1890221E+04  0.7818608E-02  0.8659739E-01
          3   -1    0    0  501    0  0.00000000000E+00  0.00000000000E+00  0.68631061888E+03  0.68631062631E+03  0.10100000000E+00 0.  1.
         -3   -1    0    0    0  501 -0.00000000000E+00 -0.00000000000E+00 -0.13015006073E+04  0.13015006113E+04  0.10100000000E+00 0. -1.
     200001    2    1    2    0    0  0.40031789755E+03 -0.77837526293E+02 -0.82018818847E+03  0.11521454182E+04  0.69886858612E+03 0.  0.
    5000001    2    3    3    0    0  0.99567479943E+02  0.81864044478E+02 -0.12389823737E+03  0.22977071054E+03  0.14432048142E+03 0.  0.
        -13    1    4    4    0    0  0.11627124826E+03  0.38418762822E+02 -0.39198387795E+02  0.12857499476E+03  0.10566000000E+00 0. -1.
     200003    1    4    4    0    0 -0.16703768313E+02  0.43445281656E+02 -0.84699849572E+02  0.10119571578E+03  0.30000000000E+02 0. -1.
     200000    1    3    3    0    0  0.30075041760E+03 -0.15970157077E+03 -0.69628995110E+03  0.92237470770E+03  0.50000000000E+03 0. -1.
    -200001    1    1    2    0    0 -0.40031789755E+03  0.77837526293E+02  0.20499820002E+03  0.83566581933E+03  0.70000000000E+03 0.  1.
<mgrwt>
<rscale>  0 0.18902208E+04</rscale>
<asrwt>0</asrwt>
<pdfrwt beam="1">  1        3 0.98044375E-01 0.18902208E+04</pdfrwt>
<pdfrwt beam="2">  1       -3 0.18592866E+00 0.18902208E+04</pdfrwt>
<totfact> 0.40813200E-01</totfact>
</mgrwt>
</event>
<event>
 8    1  0.1206249E-029  0.1518953E+04  0.7818608E-02  0.8871946E-01
         -3   -1    0    0    0  501 -0.00000000000E+00  0.00000000000E+00  0.12921568024E+04  0.12921568063E+04  0.10100000000E+00 0. -1.
          3   -1    0    0  501    0  0.00000000000E+00 -0.00000000000E+00 -0.44638897188E+03  0.44638898330E+03  0.10100000000E+00 0.  1.
     200001    2    1    2    0    0 -0.27088126117E+02  0.20626557670E+03  0.18346615942E+03  0.75268436011E+03  0.69971041123E+03 0.  0.
    5000001    2    3    3    0    0 -0.45850774620E+00  0.84258960175E+02  0.58310790301E+02  0.22234614965E+03  0.19732683396E+03 0.  0.
        -13    1    4    4    0    0  0.20254819056E+02  0.61191430594E+02 -0.65100388784E+02  0.91611793220E+02  0.10566000000E+00 0. -1.
     200003    1    4    4    0    0 -0.20713326802E+02  0.23067529581E+02  0.12341117908E+03  0.13073435643E+03  0.30000000000E+02 0. -1.
     200000    1    3    3    0    0 -0.26629618371E+02  0.12200661653E+03  0.12515536912E+03  0.53033821046E+03  0.50000000000E+03 0.  1.
    -200001    1    1    2    0    0  0.27088126117E+02 -0.20626557670E+03  0.66230167109E+03  0.98586142953E+03  0.70000000000E+03 0.  1.
<mgrwt>
<rscale>  0 0.15189530E+04</rscale>
<asrwt>0</asrwt>
<pdfrwt beam="1">  1        3 0.63769854E-01 0.15189530E+04</pdfrwt>
<pdfrwt beam="2">  1       -3 0.18459383E+00 0.15189530E+04</pdfrwt>
<totfact> 0.11166768E+00</totfact>
</mgrwt>
</event>
<event>
 8    1  0.1206249E-029  0.1956289E+04  0.7818608E-02  0.8627334E-01
         -3   -1    0    0    0  501 -0.00000000000E+00  0.00000000000E+00  0.23721675895E+04  0.23721675917E+04  0.10100000000E+00 0. -1.
          3   -1    0    0  501    0  0.00000000000E+00 -0.00000000000E+00 -0.40333021958E+03  0.40333023222E+03  0.10100000000E+00 0.  1.
     200001    2    1    2    0    0 -0.59250217567E+03 -0.26235630218E+01  0.14646864442E+04  0.17289636070E+04  0.70209904087E+03 0.  0.
    5000001    2    3    3    0    0 -0.12250712820E+03 -0.36446833404E+02  0.19486542572E+03  0.28518911723E+03  0.16438956878E+03 0.  0.
        -13    1    4    4    0    0 -0.31032400602E+02 -0.66298601706E+02  0.16429417394E+03  0.17986411880E+03  0.10566000000E+00 0. -1.
     200003    1    4    4    0    0 -0.91474727602E+02  0.29851768302E+02  0.30571251772E+02  0.10532499844E+03  0.30000000000E+02 0. -1.
     200000    1    3    3    0    0 -0.46999504747E+03  0.33823270382E+02  0.12698210185E+04  0.14437744898E+04  0.50000000000E+03 0. -1.
    -200001    1    1    2    0    0  0.59250217567E+03  0.26235630218E+01  0.50415092576E+03  0.10465342169E+04  0.70000000000E+03 0. -1.
<mgrwt>
<rscale>  0 0.19562892E+04</rscale>
<asrwt>0</asrwt>
<pdfrwt beam="1">  1        3 0.57618602E-01 0.19562892E+04</pdfrwt>
<pdfrwt beam="2">  1       -3 0.33888110E+00 0.19562892E+04</pdfrwt>
<totfact> 0.16772063E-01</totfact>
</mgrwt>
</event>
<event>
 8    1  0.1206249E-029  0.1886635E+04  0.7818608E-02  0.8661538E-01
          3   -1    0    0  501    0  0.00000000000E+00  0.00000000000E+00  0.51822487465E+04  0.51822487475E+04  0.10100000000E+00 0.  1.
         -3   -1    0    0    0  501 -0.00000000000E+00 -0.00000000000E+00 -0.17171073695E+03  0.17171076666E+03  0.10100000000E+00 0. -1.
     200001    2    1    2    0    0  0.41679757885E+03 -0.19104880567E+03  0.12711708136E+04  0.15221078868E+04  0.70051217961E+03 0.  0.
    5000001    2    3    3    0    0  0.67875807625E+02  0.31851603297E+02  0.17663558249E+03  0.24953633010E+03  0.15951990830E+03 0.  0.
        -13    1    4    4    0    0  0.83466313548E+02  0.12347427808E+02  0.19031253648E+03  0.20817770577E+03  0.10566000000E+00 0. -1.
     200003    1    4    4    0    0 -0.15590505923E+02  0.19504175489E+02 -0.13676953990E+02  0.41358624335E+02  0.30000000000E+02 0. -1.
     200000    1    3    3    0    0  0.34892177123E+03 -0.22290040897E+03  0.10945352311E+04  0.12725715567E+04  0.50000000000E+03 0. -1.
    -200001    1    1    2    0    0 -0.41679757885E+03  0.19104880567E+03  0.37393671960E+04  0.38318516274E+04  0.70000000000E+03 0.  1.
<mgrwt>
<rscale>  0 0.18866349E+04</rscale>
<asrwt>0</asrwt>
<pdfrwt beam="1">  1        3 0.74032133E+00 0.18866349E+04</pdfrwt>
<pdfrwt beam="2">  1       -3 0.24530105E-01 0.18866349E+04</pdfrwt>
<totfact> 0.73320273E-03</totfact>
</mgrwt>
</event>
<event>
 8    1  0.1206249E-029  0.1467032E+04  0.7818608E-02  0.8906677E-01
         -3   -1    0    0    0  501 -0.00000000000E+00  0.00000000000E+00  0.55057337093E+03  0.55057338019E+03  0.10100000000E+00 0.  1.
          3   -1    0    0  501    0  0.00000000000E+00 -0.00000000000E+00 -0.97724603367E+03  0.97724603889E+03  0.10100000000E+00 0. -1.
     200001    2    1    2    0    0  0.73613151276E+02  0.96446688960E+02 -0.40846933902E+03  0.81714915739E+03  0.69725510730E+03 0.  0.
    5000001    2    3    3    0    0  0.38974009425E+02  0.37221921432E+02 -0.18960840164E+03  0.26705139050E+03  0.18016840552E+03 0.  0.
        -13    1    4    4    0    0  0.28108915602E+02  0.66403514106E+02 -0.20793940812E+03  0.22008713373E+03  0.10566000000E+00 0. -1.
     200003    1    4    4    0    0  0.10865093823E+02 -0.29181592674E+02  0.18331006478E+02  0.46964256763E+02  0.30000000000E+02 0. -1.
     200000    1    3    3    0    0  0.34639141851E+02  0.59224767528E+02 -0.21886093737E+03  0.55009776690E+03  0.50000000000E+03 0. -1.
    -200001    1    1    2    0    0 -0.73613151276E+02 -0.96446688960E+02 -0.18203323724E+02  0.71067026169E+03  0.70000000000E+03 0.  1.
<mgrwt>
<rscale>  0 0.14670319E+04</rscale>
<asrwt>0</asrwt>
<pdfrwt beam="1">  1        3 0.13960658E+00 0.14670319E+04</pdfrwt>
<pdfrwt beam="2">  1       -3 0.78653340E-01 0.14670319E+04</pdfrwt>
<totfact> 0.14987864E+00</totfact>
</mgrwt>
</event>
<event>
 8    1  0.1206249E-029  0.1749408E+04  0.7818608E-02  0.8733676E-01
          3   -1    0    0  501    0  0.00000000000E+00  0.00000000000E+00  0.30993686243E+03  0.30993687888E+03  0.10100000000E+00 0.  1.
         -3   -1    0    0    0  501 -0.00000000000E+00 -0.00000000000E+00 -0.24685887531E+04  0.24685887552E+04  0.10100000000E+00 0. -1.
     200001    2    1    2    0    0 -0.30007737287E+03 -0.28533246886E+03 -0.56713877765E+03  0.99124416869E+03  0.69961243654E+03 0.  0.
    5000001    2    3    3    0    0 -0.86932494537E+02 -0.68569458939E+02 -0.17691997797E+03  0.28790381492E+03  0.19831515003E+03 0.  0.
        -13    1    4    4    0    0 -0.12578466904E+03 -0.70285621946E+02 -0.18867238990E+03  0.23740078664E+03  0.10566000000E+00 0. -1.
     200003    1    4    4    0    0  0.38852174507E+02  0.17161630064E+01  0.11752411930E+02  0.50503028281E+02  0.30000000000E+02 0. -1.
     200000    1    3    3    0    0 -0.21314487833E+03 -0.21676300992E+03 -0.39021879968E+03  0.70334035378E+03  0.50000000000E+03 0.  1.
    -200001    1    1    2    0    0  0.30007737287E+03  0.28533246886E+03 -0.15915131130E+04  0.17872814654E+04  0.70000000000E+03 0. -1.
<mgrwt>
<rscale>  0 0.17494075E+04</rscale>
<asrwt>0</asrwt>
<pdfrwt beam="1">  1        3 0.44276698E-01 0.17494075E+04</pdfrwt>
<pdfrwt beam="2">  1       -3 0.35265553E+00 0.17494075E+04</pdfrwt>
<totfact> 0.24603337E-01</totfact>
</mgrwt>
</event>
<event>
 8    1  0.1206249E-029  0.1573177E+04  0.7818608E-02  0.8837198E-01
          3   -1    0    0  501    0  0.00000000000E+00  0.00000000000E+00  0.82236382451E+03  0.82236383071E+03  0.10100000000E+00 0.  1.
         -3   -1    0    0    0  501 -0.00000000000E+00 -0.00000000000E+00 -0.75236925558E+03  0.75236926236E+03  0.10100000000E+00 0. -1.
     200001    2    1    2    0    0 -0.16321210459E+03  0.24707756007E+02 -0.28361068209E+03  0.77330602974E+03  0.70022748614E+03 0.  0.
    5000001    2    3    3    0    0 -0.46149712900E+02  0.98858966456E+01 -0.16870649127E+03  0.24687819601E+03  0.17395239726E+03 0.  0.
        -13    1    4    4    0    0 -0.10604728572E+03 -0.18003863895E+02 -0.10500061499E+03  0.15031735175E+03  0.10566000000E+00 0. -1.
     200003    1    4    4    0    0  0.59897572815E+02  0.27889760540E+02 -0.63705876278E+02  0.96560844261E+02  0.30000000000E+02 0. -1.
     200000    1    3    3    0    0 -0.11706239169E+03  0.14821859361E+02 -0.11490419082E+03  0.52642783374E+03  0.50000000000E+03 0. -1.
    -200001    1    1    2    0    0  0.16321210459E+03 -0.24707756007E+02  0.35360525102E+03  0.80142706333E+03  0.70000000000E+03 0.  1.
<mgrwt>
<rscale>  0 0.15731767E+04</rscale>
<asrwt>0</asrwt>
<pdfrwt beam="1">  1        3 0.11748055E+00 0.15731767E+04</pdfrwt>
<pdfrwt beam="2">  1       -3 0.10748132E+00 0.15731767E+04</pdfrwt>
<totfact> 0.11127305E+00</totfact>
</mgrwt>
</event>
<event>
 8    1  0.1206249E-029  0.1642728E+04  0.7818608E-02  0.8794720E-01
          3   -1    0    0  501    0  0.00000000000E+00  0.00000000000E+00  0.99401822475E+03  0.99401822988E+03  0.10100000000E+00 0.  1.
         -3   -1    0    0    0  501 -0.00000000000E+00 -0.00000000000E+00 -0.67869885376E+03  0.67869886127E+03  0.10100000000E+00 0. -1.
     200001    2    1    2    0    0  0.17791135262E+03  0.26226521540E+02 -0.24097861771E+03  0.76068215100E+03  0.69873196638E+03 0.  0.
    5000001    2    3    3    0    0  0.85521256598E+02 -0.86485769937E+02 -0.36805804557E+02  0.20128378836E+03  0.15609875873E+03 0.  0.
        -13    1    4    4    0    0  0.10341050523E+03 -0.89652879798E+02 -0.69357309830E+02  0.15343343521E+03  0.10566000000E+00 0. -1.
     200003    1    4    4    0    0 -0.17889248633E+02  0.31671098610E+01  0.32551505274E+02  0.47850353155E+02  0.30000000000E+02 0. -1.
     200000    1    3    3    0    0  0.92390096023E+02  0.11271229148E+03 -0.20417281315E+03  0.55939836264E+03  0.50000000000E+03 0. -1.
    -200001    1    1    2    0    0 -0.17791135262E+03 -0.26226521540E+02  0.55629798870E+03  0.91203494015E+03  0.70000000000E+03 0.  1.
<mgrwt>
<rscale>  0 0.16427283E+04</rscale>
<asrwt>0</asrwt>
<pdfrwt beam="1">  1        3 0.14200260E+00 0.16427283E+04</pdfrwt>
<pdfrwt beam="2">  1       -3 0.96956980E-01 0.16427283E+04</pdfrwt>
<totfact> 0.88077411E-01</totfact>
</mgrwt>
</event>
<event>
 8    1  0.1206249E-029  0.1813970E+04  0.7818608E-02  0.8698906E-01
          3   -1    0    0  501    0  0.00000000000E+00  0.00000000000E+00  0.80899263952E+03  0.80899264582E+03  0.10100000000E+00 0. -1.
         -3   -1    0    0    0  501 -0.00000000000E+00 -0.00000000000E+00 -0.10168468716E+04  0.10168468767E+04  0.10100000000E+00 0.  1.
     200001    2    1    2    0    0 -0.98899503984E+02 -0.34369601990E+03  0.35156191326E+03  0.86103151583E+03  0.69990815569E+03 0.  0.
    5000001    2    3    3    0    0  0.21669868037E+02 -0.69846989037E+02  0.18890323351E+02  0.19006158214E+03  0.17440864552E+03 0.  0.
        -13    1    4    4    0    0  0.88075510527E+02 -0.75523387874E+02  0.12543175707E+02  0.11669798666E+03  0.10566000000E+00 0. -1.
     200003    1    4    4    0    0 -0.66405642490E+02  0.56763988375E+01  0.63471476445E+01  0.73363595478E+02  0.30000000000E+02 0. -1.
     200000    1    3    3    0    0 -0.12056937202E+03 -0.27384903087E+03  0.33267158991E+03  0.67096993369E+03  0.50000000000E+03 0. -1.
    -200001    1    1    2    0    0  0.98899503984E+02  0.34369601990E+03 -0.55941614539E+03  0.96480800665E+03  0.70000000000E+03 0.  1.
<mgrwt>
<rscale>  0 0.18139698E+04</rscale>
<asrwt>0</asrwt>
<pdfrwt beam="1">  1        3 0.11557038E+00 0.18139698E+04</pdfrwt>
<pdfrwt beam="2">  1       -3 0.14526384E+00 0.18139698E+04</pdfrwt>
<totfact> 0.54009576E-01</totfact>
</mgrwt>
</event>
<event>
 8    1  0.1206249E-029  0.1594359E+04  0.7818608E-02  0.8824021E-01
          3   -1    0    0  501    0  0.00000000000E+00  0.00000000000E+00  0.24931696848E+04  0.24931696868E+04  0.10100000000E+00 0.  1.
         -3   -1    0    0    0  501 -0.00000000000E+00 -0.00000000000E+00 -0.25489442960E+03  0.25489444961E+03  0.10100000000E+00 0. -1.
     200001    2    1    2    0    0 -0.19777934442E+03  0.15077264098E+02  0.16801164409E+04  0.18310661784E+04  0.70047705312E+03 0.  0.
    5000001    2    3    3    0    0 -0.95298017233E+02  0.79494999464E+02  0.59208248481E+03  0.62754220419E+03  0.16687235297E+03 0.  0.
        -13    1    4    4    0    0 -0.12084179444E+03  0.86787148663E+01  0.27955417083E+03  0.30467787082E+03  0.10566000000E+00 0. -1.
     200003    1    4    4    0    0  0.25543777209E+02  0.70816284598E+02  0.31252831399E+03  0.32286433337E+03  0.30000000000E+02 0. -1.
     200000    1    3    3    0    0 -0.10248132718E+03 -0.64417735366E+02  0.10880339560E+04  0.12035239742E+04  0.50000000000E+03 0.  1.
    -200001    1    1    2    0    0  0.19777934442E+03 -0.15077264098E+02  0.55815881431E+03  0.91699795799E+03  0.70000000000E+03 0. -1.
<mgrwt>
<rscale>  0 0.15943589E+04</rscale>
<asrwt>0</asrwt>
<pdfrwt beam="1">  1        3 0.35616708E+00 0.15943589E+04</pdfrwt>
<pdfrwt beam="2">  1       -3 0.36413494E-01 0.15943589E+04</pdfrwt>
<totfact> 0.36290049E-01</totfact>
</mgrwt>
</event>
<event>
 8    1  0.1206249E-029  0.1525606E+04  0.7818608E-02  0.8867602E-01
         -3   -1    0    0    0  501 -0.00000000000E+00  0.00000000000E+00  0.30680568349E+03  0.30680570011E+03  0.10100000000E+00 0.  1.
          3   -1    0    0  501    0  0.00000000000E+00 -0.00000000000E+00 -0.18965362800E+04  0.18965362827E+04  0.10100000000E+00 0. -1.
     200001    2    1    2    0    0 -0.17501848715E+03 -0.24754554458E+03 -0.84716586463E+03  0.11387704030E+04  0.69799553086E+03 0.  0.
    5000001    2    3    3    0    0 -0.50124865199E+02  0.44096566119E+02 -0.29997662831E+03  0.33250146656E+03  0.12694187048E+03 0.  0.
        -13    1    4    4    0    0 -0.13390460812E+02  0.24361721121E+02  0.36153063655E+00  0.27801794280E+02  0.10566000000E+00 0. -1.
     200003    1    4    4    0    0 -0.36734404388E+02  0.19734844998E+02 -0.30033815894E+03  0.30469967228E+03  0.30000000000E+02 0. -1.
     200000    1    3    3    0    0 -0.12489362195E+03 -0.29164211070E+03 -0.54718923632E+03  0.80626893645E+03  0.50000000000E+03 0.  1.
    -200001    1    1    2    0    0  0.17501848715E+03  0.24754554458E+03 -0.74256473191E+03  0.10645715798E+04  0.70000000000E+03 0. -1.
<mgrwt>
<rscale>  0 0.15256056E+04</rscale>
<asrwt>0</asrwt>
<pdfrwt beam="1">  1        3 0.27093375E+00 0.15256056E+04</pdfrwt>
<pdfrwt beam="2">  1       -3 0.43829386E-01 0.15256056E+04</pdfrwt>
<totfact> 0.74091476E-01</totfact>
</mgrwt>
</event>
<event>
 8    1  0.1206249E-029  0.1730825E+04  0.7818608E-02  0.8743976E-01
          3   -1    0    0  501    0  0.00000000000E+00  0.00000000000E+00  0.84639375199E+03  0.84639375802E+03  0.10100000000E+00 0.  1.
         -3   -1    0    0    0  501 -0.00000000000E+00 -0.00000000000E+00 -0.88485868694E+03  0.88485869271E+03  0.10100000000E+00 0. -1.
     200001    2    1    2    0    0  0.36634927906E+03 -0.62599548917E+02 -0.36659624359E+03  0.87346421724E+03  0.70029739054E+03 0.  0.
    5000001    2    3    3    0    0  0.68931248743E+02  0.22774074074E+02 -0.35436940355E+02  0.19862155085E+03  0.18145128332E+03 0.  0.
        -13    1    4    4    0    0  0.23638449444E+02  0.34632147161E+02 -0.10294730146E+03  0.11115898502E+03  0.10566000000E+00 0. -1.
     200003    1    4    4    0    0  0.45292799300E+02 -0.11858073088E+02  0.67510361104E+02  0.87462565834E+02  0.30000000000E+02 0. -1.
     200000    1    3    3    0    0  0.29741803032E+03 -0.85373622991E+02 -0.33115930323E+03  0.67484266639E+03  0.50000000000E+03 0. -1.
    -200001    1    1    2    0    0 -0.36634927906E+03  0.62599548917E+02  0.32813130863E+03  0.85778823348E+03  0.70000000000E+03 0.  1.
<mgrwt>
<rscale>  0 0.17308251E+04</rscale>
<asrwt>0</asrwt>
<pdfrwt beam="1">  1        3 0.12091339E+00 0.17308251E+04</pdfrwt>
<pdfrwt beam="2">  1       -3 0.12640838E+00 0.17308251E+04</pdfrwt>
<totfact> 0.69183087E-01</totfact>
</mgrwt>
</event>
<event>
 8    1  0.1206249E-029  0.1425437E+04  0.7818608E-02  0.8935609E-01
         -3   -1    0    0    0  501 -0.00000000000E+00  0.00000000000E+00  0.44821699254E+03  0.44821700392E+03  0.10100000000E+00 0. -1.
          3   -1    0    0  501    0  0.00000000000E+00 -0.00000000000E+00 -0.11333071774E+04  0.11333071819E+04  0.10100000000E+00 0.  1.
     200001    2    1    2    0    0 -0.68283027556E+01 -0.12507416377E+03 -0.28188242157E+03  0.76404839259E+03  0.69901507456E+03 0.  0.
    5000001    2    3    3    0    0  0.18606160626E+02 -0.55146329527E+02 -0.37555389151E+02  0.20259268401E+03  0.19038403685E+03 0.  0.
        -13    1    4    4    0    0 -0.51594411892E+02 -0.55308154610E+02  0.46702134819E+02  0.88893621062E+02  0.10566000000E+00 0. -1.
     200003    1    4    4    0    0  0.70200572517E+02  0.16182508347E+00 -0.84257523971E+02  0.11369906295E+03  0.30000000000E+02 0. -1.
     200000    1    3    3    0    0 -0.25434463381E+02 -0.69927834241E+02 -0.24432703242E+03  0.56145570858E+03  0.50000000000E+03 0.  1.
    -200001    1    1    2    0    0  0.68283027556E+01  0.12507416377E+03 -0.40320776333E+03  0.81747579326E+03  0.70000000000E+03 0. -1.
<mgrwt>
<rscale>  0 0.14254368E+04</rscale>
<asrwt>0</asrwt>
<pdfrwt beam="1">  1        3 0.16190103E+00 0.14254368E+04</pdfrwt>
<pdfrwt beam="2">  1       -3 0.64031000E-01 0.14254368E+04</pdfrwt>
<totfact> 0.16019996E+00</totfact>
</mgrwt>
</event>
<event>
 8    1  0.1206249E-029  0.1581885E+04  0.7818608E-02  0.8831754E-01
          3   -1    0    0  501    0  0.00000000000E+00  0.00000000000E+00  0.25803254365E+03  0.25803256342E+03  0.10100000000E+00 0.  1.
         -3   -1    0    0    0  501 -0.00000000000E+00 -0.00000000000E+00 -0.24244628672E+04  0.24244628693E+04  0.10100000000E+00 0. -1.
     200001    2    1    2    0    0  0.26274198940E+03  0.16814051904E+03 -0.14168978144E+04  0.16105329476E+04  0.69922269119E+03 0.  0.
    5000001    2    3    3    0    0  0.16737563753E+03  0.41764801746E+01 -0.50931866350E+03  0.55711998861E+03  0.15147651205E+03 0.  0.
        -13    1    4    4    0    0  0.91571209732E+02 -0.33443177614E+02 -0.41737348125E+03  0.42860747380E+03  0.10566000000E+00 0. -1.
     200003    1    4    4    0    0  0.75804427797E+02  0.37619657788E+02 -0.91945182243E+02  0.12851251481E+03  0.30000000000E+02 0. -1.
     200000    1    3    3    0    0  0.95366351871E+02  0.16396403886E+03 -0.90757915089E+03  0.10534129590E+04  0.50000000000E+03 0.  1.
    -200001    1    1    2    0    0 -0.26274198940E+03 -0.16814051904E+03 -0.74953250916E+03  0.10719624851E+04  0.70000000000E+03 0. -1.
<mgrwt>
<rscale>  0 0.15818854E+04</rscale>
<asrwt>0</asrwt>
<pdfrwt beam="1">  1        3 0.36861795E-01 0.15818854E+04</pdfrwt>
<pdfrwt beam="2">  1       -3 0.34635183E+00 0.15818854E+04</pdfrwt>
<totfact> 0.38912698E-01</totfact>
</mgrwt>
</event>
<event>
 8    1  0.1206249E-029  0.1487042E+04  0.7818608E-02  0.8893116E-01
         -3   -1    0    0    0  501 -0.00000000000E+00  0.00000000000E+00  0.42557256212E+03  0.42557257411E+03  0.10100000000E+00 0. -1.
          3   -1    0    0  501    0  0.00000000000E+00 -0.00000000000E+00 -0.12990103823E+04  0.12990103862E+04  0.10100000000E+00 0.  1.
     200001    2    1    2    0    0  0.20491089651E+03 -0.37102290692E+02 -0.60746446977E+03  0.94733983321E+03  0.69647298733E+03 0.  0.
    5000001    2    3    3    0    0  0.51207737727E+02  0.61878672893E+02 -0.23033658953E+03  0.29492330198E+03  0.16575164256E+03 0.  0.
        -13    1    4    4    0    0  0.61973045841E+02  0.10376490257E+03 -0.10937014266E+03  0.16300200210E+03  0.10566000000E+00 0. -1.
     200003    1    4    4    0    0 -0.10765308114E+02 -0.41886229681E+02 -0.12096644687E+03  0.13192129989E+03  0.30000000000E+02 0. -1.
     200000    1    3    3    0    0  0.15370315878E+03 -0.98980963585E+02 -0.37712788023E+03  0.65241653123E+03  0.50000000000E+03 0.  1.
    -200001    1    1    2    0    0 -0.20491089651E+03  0.37102290692E+02 -0.26597335037E+03  0.77724312708E+03  0.70000000000E+03 0. -1.
<mgrwt>
<rscale>  0 0.14870416E+04</rscale>
<asrwt>0</asrwt>
<pdfrwt beam="1">  1        3 0.18557291E+00 0.14870416E+04</pdfrwt>
<pdfrwt beam="2">  1       -3 0.60796082E-01 0.14870416E+04</pdfrwt>
<totfact> 0.12269477E+00</totfact>
</mgrwt>
</event>
<event>
 8    1  0.1206249E-029  0.1449674E+04  0.7818608E-02  0.8918626E-01
          3   -1    0    0  501    0  0.00000000000E+00  0.00000000000E+00  0.70058493733E+03  0.70058494461E+03  0.10100000000E+00 0. -1.
         -3   -1    0    0    0  501 -0.00000000000E+00 -0.00000000000E+00 -0.74992886458E+03  0.74992887138E+03  0.10100000000E+00 0.  1.
     200001    2    1    2    0    0 -0.10738133158E+02  0.60300926439E+01  0.16225881181E+03  0.71912651182E+03  0.70047366008E+03 0.  0.
    5000001    2    3    3    0    0  0.22373912851E+02 -0.13423376705E+02  0.35652951653E+02  0.20191873067E+03  0.19702604349E+03 0.  0.
        -13    1    4    4    0    0 -0.83028156759E+02  0.17359593683E+02  0.12171890930E+02  0.85692452413E+02  0.10566000000E+00 0. -1.
     200003    1    4    4    0    0  0.10540206961E+03 -0.30782970388E+02  0.23481060723E+02  0.11622627825E+03  0.30000000000E+02 0. -1.
     200000    1    3    3    0    0 -0.33112046009E+02  0.19453469349E+02  0.12660586016E+03  0.51720778116E+03  0.50000000000E+03 0. -1.
    -200001    1    1    2    0    0  0.10738133158E+02 -0.60300926439E+01 -0.21160273906E+03  0.73138730417E+03  0.70000000000E+03 0.  1.
<mgrwt>
<rscale>  0 0.14496743E+04</rscale>
<asrwt>0</asrwt>
<pdfrwt beam="1">  1        3 0.10008356E+00 0.14496743E+04</pdfrwt>
<pdfrwt beam="2">  1       -3 0.10713270E+00 0.14496743E+04</pdfrwt>
<totfact> 0.16567362E+00</totfact>
</mgrwt>
</event>
<event>
 8    1  0.1206249E-029  0.4429806E+04  0.7818608E-02  0.7923042E-01
          3   -1    0    0  501    0  0.00000000000E+00  0.00000000000E+00  0.35292704109E+04  0.35292704123E+04  0.10100000000E+00 0.  1.
         -3   -1    0    0    0  501 -0.00000000000E+00 -0.00000000000E+00 -0.13900308652E+04  0.13900308689E+04  0.10100000000E+00 0. -1.
     200001    2    1    2    0    0  0.19554279075E+04 -0.11293962507E+02  0.19245787780E+04  0.28312627039E+04  0.69872682143E+03 0.  0.
    5000001    2    3    3    0    0  0.34602831323E+03  0.51085372205E+02  0.27181860748E+03  0.46997610196E+03  0.15699322352E+03 0.  0.
        -13    1    4    4    0    0  0.20816836658E+03  0.86615844140E+02  0.22139679245E+03  0.31599513315E+03  0.10566000000E+00 0. -1.
     200003    1    4    4    0    0  0.13785994665E+03 -0.35530471935E+02  0.50421815028E+02  0.15398096881E+03  0.30000000000E+02 0. -1.
     200000    1    3    3    0    0  0.16093995943E+04 -0.62379334712E+02  0.16527601705E+04  0.23612866020E+04  0.50000000000E+03 0.  1.
    -200001    1    1    2    0    0 -0.19554279075E+04  0.11293962507E+02  0.21466076771E+03  0.20880385773E+04  0.70000000000E+03 0. -1.
<mgrwt>
<rscale>  0 0.44298058E+04</rscale>
<asrwt>0</asrwt>
<pdfrwt beam="1">  1        3 0.50418148E+00 0.44298058E+04</pdfrwt>
<pdfrwt beam="2">  1       -3 0.19857584E+00 0.44298058E+04</pdfrwt>
<totfact> 0.97365364E-04</totfact>
</mgrwt>
</event>
<event>
 8    1  0.1206249E-029  0.2124963E+04  0.7818608E-02  0.8550326E-01
         -3   -1    0    0    0  501 -0.00000000000E+00  0.00000000000E+00  0.24877479519E+04  0.24877479540E+04  0.10100000000E+00 0. -1.
          3   -1    0    0  501    0  0.00000000000E+00 -0.00000000000E+00 -0.45377055199E+03  0.45377056323E+03  0.10100000000E+00 0.  1.
     200001    2    1    2    0    0 -0.72983336046E+03  0.13080351219E+03  0.60574246300E+03  0.11866335273E+04  0.70100563742E+03 0.  0.
    5000001    2    3    3    0    0 -0.22582672645E+03  0.74916325028E+02  0.17600261968E+03  0.35487490978E+03  0.19582929638E+03 0.  0.
        -13    1    4    4    0    0 -0.13702483302E+03  0.12257317848E+03  0.16861865795E+03  0.24946392909E+03  0.10566000000E+00 0. -1.
     200003    1    4    4    0    0 -0.88801893435E+02 -0.47656853451E+02  0.73839617300E+01  0.10541098069E+03  0.30000000000E+02 0. -1.
     200000    1    3    3    0    0 -0.50400663400E+03  0.55887187166E+02  0.42973984332E+03  0.83175861748E+03  0.50000000000E+03 0. -1.
    -200001    1    1    2    0    0  0.72983336046E+03 -0.13080351219E+03  0.14282349369E+04  0.17548849899E+04  0.70000000000E+03 0. -1.
<mgrwt>
<rscale>  0 0.21249629E+04</rscale>
<asrwt>0</asrwt>
<pdfrwt beam="1">  1        3 0.64824363E-01 0.21249629E+04</pdfrwt>
<pdfrwt beam="2">  1       -3 0.35539258E+00 0.21249629E+04</pdfrwt>
<totfact> 0.10424179E-01</totfact>
</mgrwt>
</event>
<event>
 8    1  0.1206249E-029  0.1704710E+04  0.7818608E-02  0.8758683E-01
          3   -1    0    0  501    0  0.00000000000E+00  0.00000000000E+00  0.11937078741E+04  0.11937078784E+04  0.10100000000E+00 0.  1.
         -3   -1    0    0    0  501 -0.00000000000E+00 -0.00000000000E+00 -0.60861553090E+03  0.60861553928E+03  0.10100000000E+00 0. -1.
     200001    2    1    2    0    0  0.42447694673E+03  0.14337944136E+03  0.47705947751E+03  0.96422471074E+03  0.70809971417E+03 0.  0.
    5000001    2    3    3    0    0  0.12490237012E+03  0.10107497913E+03  0.16849878286E+03  0.30335838783E+03  0.19446778184E+03 0.  0.
        -13    1    4    4    0    0  0.12533908917E+03  0.29778692451E+02  0.12748191281E+02  0.12945727227E+03  0.10566000000E+00 0. -1.
     200003    1    4    4    0    0 -0.43671904291E+00  0.71296286676E+02  0.15575059158E+03  0.17390111556E+03  0.30000000000E+02 0. -1.
     200000    1    3    3    0    0  0.29957457661E+03  0.42304462234E+02  0.30856069466E+03  0.66086632291E+03  0.50000000000E+03 0.  1.
    -200001    1    1    2    0    0 -0.42447694673E+03 -0.14337944136E+03  0.10803286573E+03  0.83809870695E+03  0.70000000000E+03 0. -1.
<mgrwt>
<rscale>  0 0.17047101E+04</rscale>
<asrwt>0</asrwt>
<pdfrwt beam="1">  1        3 0.17052969E+00 0.17047101E+04</pdfrwt>
<pdfrwt beam="2">  1       -3 0.86945079E-01 0.17047101E+04</pdfrwt>
<totfact> 0.69580806E-01</totfact>
</mgrwt>
</event>
<event>
 8    1  0.1206249E-029  0.1568188E+04  0.7818608E-02  0.8840333E-01
          3   -1    0    0  501    0  0.00000000000E+00  0.00000000000E+00  0.79763062097E+03  0.79763062737E+03  0.10100000000E+00 0.  1.
         -3   -1    0    0    0  501 -0.00000000000E+00 -0.00000000000E+00 -0.77078692563E+03  0.77078693224E+03  0.10100000000E+00 0. -1.
     200001    2    1    2    0    0  0.26396917093E+03  0.21722066667E+03  0.14020066293E+03  0.78119818527E+03  0.68829487689E+03 0.  0.
    5000001    2    3    3    0    0  0.15587829294E+02  0.91439846497E+02  0.19652961153E+02  0.19635132155E+03  0.17194003793E+03 0.  0.
        -13    1    4    4    0    0  0.19388133456E+02  0.16429064727E+02 -0.70676072552E+02  0.75106140110E+02  0.10566000000E+00 0. -1.
     200003    1    4    4    0    0 -0.38003041623E+01  0.75010781770E+02  0.90329033706E+02  0.12124518144E+03  0.30000000000E+02 0. -1.
     200000    1    3    3    0    0  0.24838134163E+03  0.12578082017E+03  0.12054770178E+03  0.58484686372E+03  0.50000000000E+03 0. -1.
    -200001    1    1    2    0    0 -0.26396917093E+03 -0.21722066667E+03 -0.11335696759E+03  0.78721937434E+03  0.70000000000E+03 0. -1.
<mgrwt>
<rscale>  0 0.15681878E+04</rscale>
<asrwt>0</asrwt>
<pdfrwt beam="1">  1        3 0.11394723E+00 0.15681878E+04</pdfrwt>
<pdfrwt beam="2">  1       -3 0.11011242E+00 0.15681878E+04</pdfrwt>
<totfact> 0.11308276E+00</totfact>
</mgrwt>
</event>
<event>
 8    1  0.1206249E-029  0.1515796E+04  0.7818608E-02  0.8874016E-01
         -3   -1    0    0    0  501 -0.00000000000E+00  0.00000000000E+00  0.39808104687E+03  0.39808105968E+03  0.10100000000E+00 0.  1.
          3   -1    0    0  501    0  0.00000000000E+00 -0.00000000000E+00 -0.14429466889E+04  0.14429466925E+04  0.10100000000E+00 0. -1.
     200001    2    1    2    0    0 -0.41262246067E+02  0.27976543676E+03 -0.59728112735E+03  0.96335858305E+03  0.70095915851E+03 0.  0.
    5000001    2    3    3    0    0  0.21071338157E+02  0.17493015744E+03 -0.27740915689E+03  0.35739324659E+03  0.14046184930E+03 0.  0.
        -13    1    4    4    0    0  0.37676059377E+01  0.18286374366E+03 -0.25983704683E+03  0.31775563830E+03  0.10566000000E+00 0. -1.
     200003    1    4    4    0    0  0.17303732219E+02 -0.79335862219E+01 -0.17572110054E+02  0.39637608288E+02  0.30000000000E+02 0. -1.
     200000    1    3    3    0    0 -0.62333584224E+02  0.10483527932E+03 -0.31987197046E+03  0.60596533647E+03  0.50000000000E+03 0.  1.
    -200001    1    1    2    0    0  0.41262246067E+02 -0.27976543676E+03 -0.44758451471E+03  0.87766916908E+03  0.70000000000E+03 0. -1.
<mgrwt>
<rscale>  0 0.15157965E+04</rscale>
<asrwt>0</asrwt>
<pdfrwt beam="1">  1        3 0.20613524E+00 0.15157965E+04</pdfrwt>
<pdfrwt beam="2">  1       -3 0.56868723E-01 0.15157965E+04</pdfrwt>
<totfact> 0.10419676E+00</totfact>
</mgrwt>
</event>
<event>
 8    1  0.1206249E-029  0.1625196E+04  0.7818608E-02  0.8805217E-01
         -3   -1    0    0    0  501 -0.00000000000E+00  0.00000000000E+00  0.72070447027E+03  0.72070447735E+03  0.10100000000E+00 0. -1.
          3   -1    0    0  501    0  0.00000000000E+00 -0.00000000000E+00 -0.91620791654E+03  0.91620792211E+03  0.10100000000E+00 0.  1.
     200001    2    1    2    0    0 -0.26986167078E+03 -0.88658511193E+02 -0.39937449185E+03  0.85444894588E+03  0.69992668431E+03 0.  0.
    5000001    2    3    3    0    0 -0.71103677966E+02  0.99605120914E+01 -0.64295492693E+02  0.21295975101E+03  0.18990260753E+03 0.  0.
        -13    1    4    4    0    0 -0.83557297098E+02 -0.36643310428E+02  0.35683925479E+02  0.97968912411E+02  0.10566000000E+00 0. -1.
     200003    1    4    4    0    0  0.12453619132E+02  0.46603822519E+02 -0.99979418172E+02  0.11499083860E+03  0.30000000000E+02 0. -1.
     200000    1    3    3    0    0 -0.19875799281E+03 -0.98619023285E+02 -0.33507899916E+03  0.64148919487E+03  0.50000000000E+03 0.  1.
    -200001    1    1    2    0    0  0.26986167078E+03  0.88658511193E+02  0.20387104558E+03  0.78246345358E+03  0.70000000000E+03 0. -1.
<mgrwt>
<rscale>  0 0.16251956E+04</rscale>
<asrwt>0</asrwt>
<pdfrwt beam="1">  1        3 0.13088685E+00 0.16251956E+04</pdfrwt>
<pdfrwt beam="2">  1       -3 0.10295778E+00 0.16251956E+04</pdfrwt>
<totfact> 0.94091338E-01</totfact>
</mgrwt>
</event>
<event>
 8    1  0.1206249E-029  0.1610658E+04  0.7818608E-02  0.8814027E-01
          3   -1    0    0  501    0  0.00000000000E+00  0.00000000000E+00  0.33315899564E+03  0.33315901095E+03  0.10100000000E+00 0.  1.
         -3   -1    0    0    0  501 -0.00000000000E+00 -0.00000000000E+00 -0.19466814558E+04  0.19466814584E+04  0.10100000000E+00 0. -1.
     200001    2    1    2    0    0  0.84992095708E+02 -0.35395760567E+03 -0.57778210999E+03  0.97781600113E+03  0.69984449879E+03 0.  0.
    5000001    2    3    3    0    0  0.11600596268E+03 -0.96449583885E+02 -0.28274722999E+03  0.34195609388E+03  0.11928146739E+03 0.  0.
        -13    1    4    4    0    0  0.50212339228E+02 -0.93350179334E+01 -0.18230396674E+02  0.54228959952E+02  0.10566000000E+00 0. -1.
     200003    1    4    4    0    0  0.65793623456E+02 -0.87114565951E+02 -0.26451683332E+03  0.28772713393E+03  0.30000000000E+02 0. -1.
     200000    1    3    3    0    0 -0.31013866976E+02 -0.25750802179E+03 -0.29503488000E+03  0.63585990725E+03  0.50000000000E+03 0.  1.
    -200001    1    1    2    0    0 -0.84992095708E+02  0.35395760567E+03 -0.10357403502E+04  0.13020244682E+04  0.70000000000E+03 0. -1.
<mgrwt>
<rscale>  0 0.16106576E+04</rscale>
<asrwt>0</asrwt>
<pdfrwt beam="1">  1        3 0.47594145E-01 0.16106576E+04</pdfrwt>
<pdfrwt beam="2">  1       -3 0.27809734E+00 0.16106576E+04</pdfrwt>
<totfact> 0.55993930E-01</totfact>
</mgrwt>
</event>
<event>
 8    1  0.1206249E-029  0.1494389E+04  0.7818608E-02  0.8888193E-01
          3   -1    0    0  501    0  0.00000000000E+00  0.00000000000E+00  0.37591015805E+03  0.37591017162E+03  0.10100000000E+00 0.  1.
         -3   -1    0    0    0  501 -0.00000000000E+00 -0.00000000000E+00 -0.14851933074E+04  0.14851933109E+04  0.10100000000E+00 0. -1.
     200001    2    1    2    0    0  0.84798082340E+01 -0.17809666113E+03 -0.79244529586E+03  0.10723217933E+04  0.70008153347E+03 0.  0.
    5000001    2    3    3    0    0 -0.52943041613E+02 -0.23315925908E+02 -0.25555908071E+03  0.32000759660E+03  0.18370579764E+03 0.  0.
        -13    1    4    4    0    0 -0.10557420606E+03 -0.57837499694E+02 -0.18571049872E+03  0.22131310367E+03  0.10566000000E+00 0. -1.
     200003    1    4    4    0    0  0.52631164447E+02  0.34521573786E+02 -0.69848581988E+02  0.98694492924E+02  0.30000000000E+02 0. -1.
     200000    1    3    3    0    0  0.61422849847E+02 -0.15478073522E+03 -0.53688621515E+03  0.75231419666E+03  0.50000000000E+03 0. -1.
    -200001    1    1    2    0    0 -0.84798082340E+01  0.17809666113E+03 -0.31683785352E+03  0.78878168924E+03  0.70000000000E+03 0. -1.
<mgrwt>
<rscale>  0 0.14943885E+04</rscale>
<asrwt>0</asrwt>
<pdfrwt beam="1">  1        3 0.53701453E-01 0.14943885E+04</pdfrwt>
<pdfrwt beam="2">  1       -3 0.21217047E+00 0.14943885E+04</pdfrwt>
<totfact> 0.10718733E+00</totfact>
</mgrwt>
</event>
<event>
 8    1  0.1206249E-029  0.1521747E+04  0.7818608E-02  0.8870119E-01
          3   -1    0    0  501    0  0.00000000000E+00  0.00000000000E+00  0.22395367821E+04  0.22395367843E+04  0.10100000000E+00 0.  1.
         -3   -1    0    0    0  501 -0.00000000000E+00 -0.00000000000E+00 -0.25850371639E+03  0.25850373612E+03  0.10100000000E+00 0. -1.
     200001    2    1    2    0    0 -0.16958040692E+03 -0.24752787048E+03  0.96203900448E+03  0.12258862618E+04  0.69803332275E+03 0.  0.
    5000001    2    3    3    0    0 -0.61284642105E+02 -0.13126660694E+03  0.30232897098E+03  0.38299719296E+03  0.18519533921E+03 0.  0.
        -13    1    4    4    0    0 -0.39490596067E+02 -0.15713423365E+02 -0.13548803237E+02  0.44609416997E+02  0.10566000000E+00 0. -1.
     200003    1    4    4    0    0 -0.21794046038E+02 -0.11555318357E+03  0.31587777422E+03  0.33838777597E+03  0.30000000000E+02 0. -1.
     200000    1    3    3    0    0 -0.10829576481E+03 -0.11626126354E+03  0.65971003349E+03  0.84288906884E+03  0.50000000000E+03 0. -1.
    -200001    1    1    2    0    0  0.16958040692E+03  0.24752787048E+03  0.10189940612E+04  0.12721542586E+04  0.70000000000E+03 0.  1.
<mgrwt>
<rscale>  0 0.15217472E+04</rscale>
<asrwt>0</asrwt>
<pdfrwt beam="1">  1        3 0.31993381E+00 0.15217472E+04</pdfrwt>
<pdfrwt beam="2">  1       -3 0.36929106E-01 0.15217472E+04</pdfrwt>
<totfact> 0.55825722E-01</totfact>
</mgrwt>
</event>
<event>
 8    1  0.1206249E-029  0.1630006E+04  0.7818608E-02  0.8802323E-01
          3   -1    0    0  501    0  0.00000000000E+00  0.00000000000E+00  0.41864040419E+03  0.41864041638E+03  0.10100000000E+00 0.  1.
         -3   -1    0    0    0  501 -0.00000000000E+00 -0.00000000000E+00 -0.15866361117E+04  0.15866361149E+04  0.10100000000E+00 0. -1.
     200001    2    1    2    0    0  0.25843820873E+03  0.27861440318E+03 -0.35307713528E+03  0.86575532799E+03  0.69314683228E+03 0.  0.
    5000001    2    3    3    0    0  0.13103587429E+02 -0.32399798389E+02 -0.25614750372E+02  0.14871242585E+03  0.14225968939E+03 0.  0.
        -13    1    4    4    0    0 -0.47906611218E+02 -0.15057520545E+02 -0.53348899122E+02  0.73265875583E+02  0.10566000000E+00 0. -1.
     200003    1    4    4    0    0  0.61010198647E+02 -0.17342277844E+02  0.27734148750E+02  0.75446550263E+02  0.30000000000E+02 0. -1.
     200000    1    3    3    0    0  0.24533462130E+03  0.31101420157E+03 -0.32746238491E+03  0.71704290215E+03  0.50000000000E+03 0.  1.
    -200001    1    1    2    0    0 -0.25843820873E+03 -0.27861440318E+03 -0.81491857219E+03  0.11395212033E+04  0.70000000000E+03 0.  1.
<mgrwt>
<rscale>  0 0.16300061E+04</rscale>
<asrwt>0</asrwt>
<pdfrwt beam="1">  1        3 0.59805774E-01 0.16300061E+04</pdfrwt>
<pdfrwt beam="2">  1       -3 0.22666230E+00 0.16300061E+04</pdfrwt>
<totfact> 0.69160355E-01</totfact>
</mgrwt>
</event>
<event>
 8    1  0.1206249E-029  0.2164486E+04  0.7818608E-02  0.8533357E-01
          3   -1    0    0  501    0  0.00000000000E+00  0.00000000000E+00  0.91380492288E+03  0.91380492846E+03  0.10100000000E+00 0.  1.
         -3   -1    0    0    0  501 -0.00000000000E+00 -0.00000000000E+00 -0.12817286223E+04  0.12817286263E+04  0.10100000000E+00 0. -1.
     200001    2    1    2    0    0 -0.26618115692E+03  0.62603659908E+03 -0.65633021542E+03  0.11777160121E+04  0.70247521081E+03 0.  0.
    5000001    2    3    3    0    0 -0.75411589624E+02  0.77592453673E+02 -0.24761777297E+03  0.30925192588E+03  0.15038183219E+03 0.  0.
        -13    1    4    4    0    0 -0.78898077608E+02  0.11356994825E+03 -0.18554364312E+03  0.23140763700E+03  0.10566000000E+00 0. -1.
     200003    1    4    4    0    0  0.34864879842E+01 -0.35977494579E+02 -0.62074129854E+02  0.77844288884E+02  0.30000000000E+02 0. -1.
     200000    1    3    3    0    0 -0.19076956730E+03  0.54844414540E+03 -0.40871244244E+03  0.86846408621E+03  0.50000000000E+03 0. -1.
    -200001    1    1    2    0    0  0.26618115692E+03 -0.62603659908E+03  0.28840651598E+03  0.10178175427E+04  0.70000000000E+03 0. -1.
<mgrwt>
<rscale>  0 0.21644860E+04</rscale>
<asrwt>0</asrwt>
<pdfrwt beam="1">  1        3 0.13054356E+00 0.21644860E+04</pdfrwt>
<pdfrwt beam="2">  1       -3 0.18310409E+00 0.21644860E+04</pdfrwt>
<totfact> 0.20931450E-01</totfact>
</mgrwt>
</event>
<event>
 8    1  0.1206249E-029  0.1548328E+04  0.7818608E-02  0.8852937E-01
          3   -1    0    0  501    0  0.00000000000E+00  0.00000000000E+00  0.13517681492E+04  0.13517681530E+04  0.10100000000E+00 0.  1.
         -3   -1    0    0    0  501 -0.00000000000E+00 -0.00000000000E+00 -0.44336710667E+03  0.44336711818E+03  0.10100000000E+00 0. -1.
     200001    2    1    2    0    0 -0.23423015137E+03 -0.15584609534E+03  0.25114737427E+03  0.79456835502E+03  0.69936549669E+03 0.  0.
    5000001    2    3    3    0    0 -0.15575910752E+03 -0.66554239099E+02  0.15831623849E+03  0.27231519794E+03  0.14283266203E+03 0.  0.
        -13    1    4    4    0    0 -0.96083292757E+02 -0.77850509384E+02  0.16278164455E+03  0.20442743438E+03  0.10566000000E+00 0. -1.
     200003    1    4    4    0    0 -0.59675814767E+02  0.11296270285E+02 -0.44654060636E+01  0.67887763565E+02  0.30000000000E+02 0. -1.
     200000    1    3    3    0    0 -0.78471043843E+02 -0.89291856240E+02  0.92831135785E+02  0.52225315708E+03  0.50000000000E+03 0. -1.
    -200001    1    1    2    0    0  0.23423015137E+03  0.15584609534E+03  0.65725366830E+03  0.10005669162E+04  0.70000000000E+03 0.  1.
<mgrwt>
<rscale>  0 0.15483275E+04</rscale>
<asrwt>0</asrwt>
<pdfrwt beam="1">  1        3 0.19310974E+00 0.15483275E+04</pdfrwt>
<pdfrwt beam="2">  1       -3 0.63338159E-01 0.15483275E+04</pdfrwt>
<totfact> 0.10002090E+00</totfact>
</mgrwt>
</event>
<event>
 8    1  0.1206249E-029  0.2034064E+04  0.7818608E-02  0.8590858E-01
          3   -1    0    0  501    0  0.00000000000E+00  0.00000000000E+00  0.14134018504E+04  0.14134018540E+04  0.10100000000E+00 0.  1.
         -3   -1    0    0    0  501 -0.00000000000E+00 -0.00000000000E+00 -0.73181869699E+03  0.73181870396E+03  0.10100000000E+00 0. -1.
     200001    2    1    2    0    0  0.95233258031E+02 -0.69220092789E+03  0.90666918604E+02  0.99309491615E+03  0.69986107503E+03 0.  0.
    5000001    2    3    3    0    0  0.76432285545E+02 -0.60684307314E+02 -0.21099935728E+02  0.17967095021E+03  0.14937189707E+03 0.  0.
        -13    1    4    4    0    0  0.47091647785E+02 -0.72423433796E+02 -0.72149421602E+02  0.11255366389E+03  0.10566000000E+00 0. -1.
     200003    1    4    4    0    0  0.29340637760E+02  0.11739126482E+02  0.51049485874E+02  0.67117286318E+02  0.30000000000E+02 0. -1.
     200000    1    3    3    0    0  0.18800972486E+02 -0.63151662058E+03  0.11176685433E+03  0.81342396594E+03  0.50000000000E+03 0. -1.
    -200001    1    1    2    0    0 -0.95233258031E+02  0.69220092789E+03  0.59091623483E+03  0.11521256418E+04  0.70000000000E+03 0. -1.
<mgrwt>
<rscale>  0 0.20340638E+04</rscale>
<asrwt>0</asrwt>
<pdfrwt beam="1">  1        3 0.20191455E+00 0.20340638E+04</pdfrwt>
<pdfrwt beam="2">  1       -3 0.10454553E+00 0.20340638E+04</pdfrwt>
<totfact> 0.27498905E-01</totfact>
</mgrwt>
</event>
<event>
 8    1  0.1206249E-029  0.1541010E+04  0.7818608E-02  0.8857631E-01
         -3   -1    0    0    0  501 -0.00000000000E+00  0.00000000000E+00  0.48640606214E+03  0.48640607263E+03  0.10100000000E+00 0. -1.
          3   -1    0    0  501    0  0.00000000000E+00 -0.00000000000E+00 -0.12205396866E+04  0.12205396908E+04  0.10100000000E+00 0.  1.
     200001    2    1    2    0    0 -0.18044632766E+03 -0.70400653035E+02 -0.82890678839E+02  0.73142820676E+03  0.70042788915E+03 0.  0.
    5000001    2    3    3    0    0 -0.78804269082E+02 -0.78777546357E+01 -0.12700779204E+02  0.21261528971E+03  0.19690550978E+03 0.  0.
        -13    1    4    4    0    0  0.55235180214E+02 -0.27739844658E+02  0.28186860797E+02  0.67933308477E+02  0.10566000000E+00 0. -1.
     200003    1    4    4    0    0 -0.13403944930E+03  0.19862090022E+02 -0.40887640001E+02  0.14468198123E+03  0.30000000000E+02 0. -1.
     200000    1    3    3    0    0 -0.10164205857E+03 -0.62522898399E+02 -0.70189899636E+02  0.51881291706E+03  0.50000000000E+03 0. -1.
    -200001    1    1    2    0    0  0.18044632766E+03  0.70400653035E+02 -0.65124294563E+03  0.97551755666E+03  0.70000000000E+03 0.  1.
<mgrwt>
<rscale>  0 0.15410099E+04</rscale>
<asrwt>0</asrwt>
<pdfrwt beam="1">  1        3 0.17436281E+00 0.15410099E+04</pdfrwt>
<pdfrwt beam="2">  1       -3 0.69486582E-01 0.15410099E+04</pdfrwt>
<totfact> 0.10905607E+00</totfact>
</mgrwt>
</event>
<event>
 8    1  0.1206249E-029  0.2177563E+04  0.7818608E-02  0.8527825E-01
          3   -1    0    0  501    0  0.00000000000E+00  0.00000000000E+00  0.10428042030E+04  0.10428042079E+04  0.10100000000E+00 0.  1.
         -3   -1    0    0    0  501 -0.00000000000E+00 -0.00000000000E+00 -0.11367856342E+04  0.11367856387E+04  0.10100000000E+00 0. -1.
     200001    2    1    2    0    0  0.71753139336E+03  0.42507928185E+03 -0.80337419224E+02  0.10906776117E+04  0.69826918549E+03 0.  0.
    5000001    2    3    3    0    0  0.17984893702E+03  0.21168854488E+03 -0.10179591318E+02  0.32284940741E+03  0.16422678102E+03 0.  0.
        -13    1    4    4    0    0  0.30135383547E+02  0.97486072023E+02 -0.69154245779E+02  0.12326393006E+03  0.10566000000E+00 0. -1.
     200003    1    4    4    0    0  0.14971355348E+03  0.11420247285E+03  0.58974654462E+02  0.19958547735E+03  0.30000000000E+02 0. -1.
     200000    1    3    3    0    0  0.53768245634E+03  0.21339073697E+03 -0.70157827906E+02  0.76782820429E+03  0.50000000000E+03 0. -1.
    -200001    1    1    2    0    0 -0.71753139336E+03 -0.42507928185E+03 -0.13644011932E+02  0.10889122349E+04  0.70000000000E+03 0. -1.
<mgrwt>
<rscale>  0 0.21775627E+04</rscale>
<asrwt>0</asrwt>
<pdfrwt beam="1">  1        3 0.14897203E+00 0.21775627E+04</pdfrwt>
<pdfrwt beam="2">  1       -3 0.16239795E+00 0.21775627E+04</pdfrwt>
<totfact> 0.20771303E-01</totfact>
</mgrwt>
</event>
<event>
 8    1  0.1206249E-029  0.1838546E+04  0.7818608E-02  0.8686065E-01
         -3   -1    0    0    0  501 -0.00000000000E+00  0.00000000000E+00  0.62208392628E+03  0.62208393448E+03  0.10100000000E+00 0.  1.
          3   -1    0    0  501    0  0.00000000000E+00 -0.00000000000E+00 -0.13584391427E+04  0.13584391464E+04  0.10100000000E+00 0. -1.
     200001    2    1    2    0    0 -0.23591213657E+02 -0.40272830694E+03  0.10446957118E+03  0.81444720089E+03  0.69975975675E+03 0.  0.
    5000001    2    3    3    0    0  0.36396205746E+02 -0.66716127267E+02 -0.13786244733E+02  0.19761082602E+03  0.18189077103E+03 0.  0.
        -13    1    4    4    0    0  0.75816173692E+02 -0.10754883006E+03 -0.20067642803E+02  0.13310734199E+03  0.10566000000E+00 0. -1.
     200003    1    4    4    0    0 -0.39419967947E+02  0.40832702789E+02  0.62813980701E+01  0.64503484027E+02  0.30000000000E+02 0. -1.
     200000    1    3    3    0    0 -0.59987419402E+02 -0.33601217967E+03  0.11825581591E+03  0.61683637488E+03  0.50000000000E+03 0.  1.
    -200001    1    1    2    0    0  0.23591213657E+02  0.40272830694E+03 -0.84082478759E+03  0.11660758800E+04  0.70000000000E+03 0. -1.
<mgrwt>
<rscale>  0 0.18385463E+04</rscale>
<asrwt>0</asrwt>
<pdfrwt beam="1">  1        3 0.19406273E+00 0.18385463E+04</pdfrwt>
<pdfrwt beam="2">  1       -3 0.88869134E-01 0.18385463E+04</pdfrwt>
<totfact> 0.45695403E-01</totfact>
</mgrwt>
</event>
<event>
 8    1  0.1206249E-029  0.1820555E+04  0.7818608E-02  0.8695445E-01
         -3   -1    0    0    0  501 -0.00000000000E+00  0.00000000000E+00  0.31968990796E+03  0.31968992391E+03  0.10100000000E+00 0. -1.
          3   -1    0    0  501    0  0.00000000000E+00 -0.00000000000E+00 -0.25919014921E+04  0.25919014941E+04  0.10100000000E+00 0.  1.
     200001    2    1    2    0    0 -0.39401424851E+03 -0.12064943374E+03 -0.17936114586E+04  0.19687968518E+04  0.69951087579E+03 0.  0.
    5000001    2    3    3    0    0 -0.98049326361E+02 -0.50442295737E+02 -0.60960232139E+03  0.64803876859E+03  0.19021345839E+03 0.  0.
        -13    1    4    4    0    0 -0.10087377697E+03 -0.85816872845E+02 -0.57512422929E+03  0.59017619811E+03  0.10566000000E+00 0. -1.
     200003    1    4    4    0    0  0.28244506062E+01  0.35374577108E+02 -0.34478092100E+02  0.57862570472E+02  0.30000000000E+02 0. -1.
     200000    1    3    3    0    0 -0.29596492215E+03 -0.70207138000E+02 -0.11840091372E+04  0.13207580832E+04  0.50000000000E+03 0.  1.
    -200001    1    1    2    0    0  0.39401424851E+03  0.12064943374E+03 -0.47860012559E+03  0.94279456623E+03  0.70000000000E+03 0. -1.
<mgrwt>
<rscale>  0 0.18205546E+04</rscale>
<asrwt>0</asrwt>
<pdfrwt beam="1">  1        3 0.37027163E+00 0.18205546E+04</pdfrwt>
<pdfrwt beam="2">  1       -3 0.45669990E-01 0.18205546E+04</pdfrwt>
<totfact> 0.19050845E-01</totfact>
</mgrwt>
</event>
<event>
 8    1  0.1206249E-029  0.1545400E+04  0.7818608E-02  0.8854811E-01
         -3   -1    0    0    0  501 -0.00000000000E+00  0.00000000000E+00  0.17322141301E+04  0.17322141330E+04  0.10100000000E+00 0. -1.
          3   -1    0    0  501    0  0.00000000000E+00 -0.00000000000E+00 -0.34468324268E+03  0.34468325748E+03  0.10100000000E+00 0.  1.
     200001    2    1    2    0    0 -0.64661156080E+02 -0.12941332463E+03  0.10986430419E+04  0.13059336683E+04  0.69102629380E+03 0.  0.
    5000001    2    3    3    0    0  0.11104420401E+03 -0.14069936075E+02  0.27307799071E+03  0.31814111688E+03  0.11879984382E+03 0.  0.
        -13    1    4    4    0    0  0.95721644933E+02  0.24025367181E+02  0.23415064490E+03  0.25409916813E+03  0.10566000000E+00 0. -1.
     200003    1    4    4    0    0  0.15322559082E+02 -0.38095303256E+02  0.38927345813E+02  0.64041948745E+02  0.30000000000E+02 0. -1.
     200000    1    3    3    0    0 -0.17570536009E+03 -0.11534338855E+03  0.82556505122E+03  0.98779255142E+03  0.50000000000E+03 0. -1.
    -200001    1    1    2    0    0  0.64661156080E+02  0.12941332463E+03  0.28888784548E+03  0.77096372221E+03  0.70000000000E+03 0.  1.
<mgrwt>
<rscale>  0 0.15453999E+04</rscale>
<asrwt>0</asrwt>
<pdfrwt beam="1">  1        3 0.49240465E-01 0.15453999E+04</pdfrwt>
<pdfrwt beam="2">  1       -3 0.24745916E+00 0.15453999E+04</pdfrwt>
<totfact> 0.78624860E-01</totfact>
</mgrwt>
</event>
<event>
 8    1  0.1206249E-029  0.1636992E+04  0.7818608E-02  0.8798139E-01
         -3   -1    0    0    0  501 -0.00000000000E+00  0.00000000000E+00  0.10200645099E+04  0.10200645149E+04  0.10100000000E+00 0. -1.
          3   -1    0    0  501    0  0.00000000000E+00 -0.00000000000E+00 -0.65675822909E+03  0.65675823686E+03  0.10100000000E+00 0.  1.
     200001    2    1    2    0    0 -0.11700012904E+03 -0.17876721188E+03 -0.19308971380E+03  0.75746251274E+03  0.70058480885E+03 0.  0.
    5000001    2    3    3    0    0 -0.33034485212E+02 -0.48712851944E+02 -0.72401153473E+02  0.22031253883E+03  0.19957822672E+03 0.  0.
        -13    1    4    4    0    0 -0.27397094521E+02  0.61967499942E+02 -0.80496022468E+02  0.10521498294E+03  0.10566000000E+00 0. -1.
     200003    1    4    4    0    0 -0.56373906909E+01 -0.11068035189E+03  0.80948689953E+01  0.11509755589E+03  0.30000000000E+02 0. -1.
     200000    1    3    3    0    0 -0.83965643831E+02 -0.13005435994E+03 -0.12068856033E+03  0.53714997391E+03  0.50000000000E+03 0.  1.
    -200001    1    1    2    0    0  0.11700012904E+03  0.17876721188E+03  0.55639599456E+03  0.91936023897E+03  0.70000000000E+03 0. -1.
<mgrwt>
<rscale>  0 0.16369921E+04</rscale>
<asrwt>0</asrwt>
<pdfrwt beam="1">  1        3 0.93822606E-01 0.16369921E+04</pdfrwt>
<pdfrwt beam="2">  1       -3 0.14572350E+00 0.16369921E+04</pdfrwt>
<totfact> 0.88794183E-01</totfact>
</mgrwt>
</event>
<event>
 8    1  0.1206249E-029  0.1422946E+04  0.7818608E-02  0.8937375E-01
          3   -1    0    0  501    0  0.00000000000E+00  0.00000000000E+00  0.12472545058E+04  0.12472545099E+04  0.10100000000E+00 0.  1.
         -3   -1    0    0    0  501 -0.00000000000E+00 -0.00000000000E+00 -0.40584638351E+03  0.40584639607E+03  0.10100000000E+00 0. -1.
     200001    2    1    2    0    0 -0.89082948998E+01 -0.12398397154E+03  0.45531329400E+03  0.84407643206E+03  0.69978814262E+03 0.  0.
    5000001    2    3    3    0    0 -0.86499555911E+02 -0.10312481131E+03  0.19147179309E+03  0.27305292471E+03  0.14063979615E+03 0.  0.
        -13    1    4    4    0    0 -0.11924939074E+03 -0.63863601617E+02  0.12872173488E+03  0.18673048224E+03  0.10566000000E+00 0. -1.
     200003    1    4    4    0    0  0.32749834829E+02 -0.39261209691E+02  0.62750058215E+02  0.86322442469E+02  0.30000000000E+02 0. -1.
     200000    1    3    3    0    0  0.77591261011E+02 -0.20859160227E+02  0.26384150091E+03  0.57102350736E+03  0.50000000000E+03 0. -1.
    -200001    1    1    2    0    0  0.89082948998E+01  0.12398397154E+03  0.38609482827E+03  0.80902447388E+03  0.70000000000E+03 0. -1.
<mgrwt>
<rscale>  0 0.14229459E+04</rscale>
<asrwt>0</asrwt>
<pdfrwt beam="1">  1        3 0.17817922E+00 0.14229459E+04</pdfrwt>
<pdfrwt beam="2">  1       -3 0.57978055E-01 0.14229459E+04</pdfrwt>
<totfact> 0.15257307E+00</totfact>
</mgrwt>
</event>
<event>
 8    1  0.1206249E-029  0.1501941E+04  0.7818608E-02  0.8883163E-01
          3   -1    0    0  501    0  0.00000000000E+00  0.00000000000E+00  0.39936245587E+03  0.39936246864E+03  0.10100000000E+00 0.  1.
         -3   -1    0    0    0  501 -0.00000000000E+00 -0.00000000000E+00 -0.14121431630E+04  0.14121431666E+04  0.10100000000E+00 0. -1.
     200001    2    1    2    0    0  0.18710420823E+03 -0.27492526038E+02 -0.74406998637E+03  0.10382209043E+04  0.69892680424E+03 0.  0.
    5000001    2    3    3    0    0  0.39321943682E+01 -0.42546556722E+02 -0.27524927575E+03  0.32859320665E+03  0.17431483016E+03 0.  0.
        -13    1    4    4    0    0  0.45936569213E+02 -0.11234690138E+02 -0.26271013384E+03  0.26693259868E+03  0.10566000000E+00 0. -1.
     200003    1    4    4    0    0 -0.42004374845E+02 -0.31311866583E+02 -0.12539141912E+02  0.61660607968E+02  0.30000000000E+02 0. -1.
     200000    1    3    3    0    0  0.18317201386E+03  0.15054030683E+02 -0.46882071062E+03  0.70962769760E+03  0.50000000000E+03 0. -1.
    -200001    1    1    2    0    0 -0.18710420823E+03  0.27492526038E+02 -0.26871072075E+03  0.77328473098E+03  0.70000000000E+03 0. -1.
<mgrwt>
<rscale>  0 0.15019414E+04</rscale>
<asrwt>0</asrwt>
<pdfrwt beam="1">  1        3 0.57051781E-01 0.15019414E+04</pdfrwt>
<pdfrwt beam="2">  1       -3 0.20173474E+00 0.15019414E+04</pdfrwt>
<totfact> 0.10967555E+00</totfact>
</mgrwt>
</event>
<event>
 8    1  0.1206249E-029  0.1646615E+04  0.7818608E-02  0.8792411E-01
          3   -1    0    0  501    0  0.00000000000E+00  0.00000000000E+00  0.37744653433E+04  0.37744653447E+04  0.10100000000E+00 0.  1.
         -3   -1    0    0    0  501 -0.00000000000E+00 -0.00000000000E+00 -0.17958443432E+03  0.17958446272E+03  0.10100000000E+00 0. -1.
     200001    2    1    2    0    0  0.13566873712E+03 -0.15994905853E+03  0.27078367840E+04  0.28047730839E+04  0.70027301510E+03 0.  0.
    5000001    2    3    3    0    0 -0.16303516824E+02 -0.31726373291E+02  0.68618964726E+03  0.71274206870E+03  0.18940078420E+03 0.  0.
        -13    1    4    4    0    0  0.49532230332E+02 -0.87049190881E+02  0.31482142131E+03  0.33036879689E+03  0.10566000000E+00 0. -1.
     200003    1    4    4    0    0 -0.65835747156E+02  0.55322817591E+02  0.37136822595E+03  0.38237327181E+03  0.30000000000E+02 0. -1.
     200000    1    3    3    0    0  0.15197225394E+03 -0.12822268524E+03  0.20216471367E+04  0.20920310152E+04  0.50000000000E+03 0. -1.
    -200001    1    1    2    0    0 -0.13566873712E+03  0.15994905853E+03  0.88704412503E+03  0.11492767236E+04  0.70000000000E+03 0. -1.
<mgrwt>
<rscale>  0 0.16466151E+04</rscale>
<asrwt>0</asrwt>
<pdfrwt beam="1">  1        3 0.53920932E+00 0.16466151E+04</pdfrwt>
<pdfrwt beam="2">  1       -3 0.25654922E-01 0.16466151E+04</pdfrwt>
<totfact> 0.81939882E-02</totfact>
</mgrwt>
</event>
<event>
 8    1  0.1206249E-029  0.1504520E+04  0.7818608E-02  0.8881453E-01
          3   -1    0    0  501    0  0.00000000000E+00  0.00000000000E+00  0.72796727689E+03  0.72796728390E+03  0.10100000000E+00 0.  1.
         -3   -1    0    0    0  501 -0.00000000000E+00 -0.00000000000E+00 -0.77736291595E+03  0.77736292251E+03  0.10100000000E+00 0. -1.
     200001    2    1    2    0    0  0.16385711683E+03 -0.17445662559E+03 -0.16052147554E+03  0.75724383406E+03  0.70026195896E+03 0.  0.
    5000001    2    3    3    0    0  0.24650543522E+02 -0.30756749490E+02 -0.17114718982E+02  0.19993456421E+03  0.19526210442E+03 0.  0.
        -13    1    4    4    0    0 -0.55724044067E+02  0.54605095475E+02 -0.28183612807E+01  0.78069455380E+02  0.10566000000E+00 0. -1.
     200003    1    4    4    0    0  0.80374587589E+02 -0.85361844965E+02 -0.14296357702E+02  0.12186510883E+03  0.30000000000E+02 0. -1.
     200000    1    3    3    0    0  0.13920657331E+03 -0.14369987610E+03 -0.14340675656E+03  0.55730926986E+03  0.50000000000E+03 0.  1.
    -200001    1    1    2    0    0 -0.16385711683E+03  0.17445662559E+03  0.11112583648E+03  0.74808637234E+03  0.70000000000E+03 0.  1.
<mgrwt>
<rscale>  0 0.15045196E+04</rscale>
<asrwt>0</asrwt>
<pdfrwt beam="1">  1        3 0.10399533E+00 0.15045196E+04</pdfrwt>
<pdfrwt beam="2">  1       -3 0.11105185E+00 0.15045196E+04</pdfrwt>
<totfact> 0.13839374E+00</totfact>
</mgrwt>
</event>
