<event>
 4    1  0.1805887E-005  0.9454105E+03  0.7818608E-02  0.9370531E-01
         -2   -1    0    0    0  501 -0.00000000000E+00  0.00000000000E+00  0.34683116386E+03  0.34683116386E+03  0.25500000000E-02 0.  1.
          2   -1    0    0  501    0  0.00000000000E+00 -0.00000000000E+00 -0.64426227274E+03  0.64426227275E+03  0.25500000000E-02 0. -1.
   -5000001    1    1    2    0    0  0.75685069302E+02 -0.39191167188E+03 -0.19100390572E+03  0.50823762186E+03  0.25000000000E+03 0.  0.
    5000001    1    1    2    0    0 -0.75685069302E+02  0.39191167188E+03 -0.10642720316E+03  0.48285581475E+03  0.25000000000E+03 0.  0.
<mgrwt>
<rscale>  0 0.94541046E+03</rscale>
<asrwt>0</asrwt>
<pdfrwt beam="1">  1        2 0.99117272E-01 0.94541046E+03</pdfrwt>
<pdfrwt beam="2">  1       -2 0.53358641E-01 0.94541046E+03</pdfrwt>
<totfact> 0.15071916E+02</totfact>
</mgrwt>
</event>
<event>
 4    1  0.1805887E-005  0.6926019E+03  0.7818608E-02  0.9729968E-01
          2   -1    0    0  501    0  0.00000000000E+00  0.00000000000E+00  0.25253383720E+04  0.25253383720E+04  0.25500000000E-02 0.  1.
         -2   -1    0    0    0  501 -0.00000000000E+00 -0.00000000000E+00 -0.47488432106E+02  0.47488432175E+02  0.25500000000E-02 0. -1.
   -5000001    1    1    2    0    0 -0.16956612899E+03 -0.14521212568E+03  0.91539966024E+03  0.97483115026E+03  0.25000000000E+03 0.  0.
    5000001    1    1    2    0    0  0.16956612899E+03  0.14521212568E+03  0.15624502796E+04  0.15979956539E+04  0.25000000000E+03 0.  0.
<mgrwt>
<rscale>  0 0.69260193E+03</rscale>
<asrwt>0</asrwt>
<pdfrwt beam="1">  1        2 0.38851354E+00 0.69260193E+03</pdfrwt>
<pdfrwt beam="2">  1       -2 0.73059137E-02 0.69260193E+03</pdfrwt>
<totfact> 0.39960175E+02</totfact>
</mgrwt>
</event>
<event>
 4    1  0.1805887E-005  0.1058409E+04  0.7818608E-02  0.9246705E-01
          2   -1    0    0  501    0  0.00000000000E+00  0.00000000000E+00  0.15326814037E+04  0.15326814037E+04  0.25500000000E-02 0.  1.
         -2   -1    0    0    0  501 -0.00000000000E+00 -0.00000000000E+00 -0.18272389082E+03  0.18272389084E+03  0.25500000000E-02 0. -1.
   -5000001    1    1    2    0    0 -0.36075811289E+03  0.29230934018E+03  0.60310955964E+03  0.80114437357E+03  0.25000000000E+03 0.  0.
    5000001    1    1    2    0    0  0.36075811289E+03 -0.29230934018E+03  0.74684795327E+03  0.91426092100E+03  0.25000000000E+03 0.  0.
<mgrwt>
<rscale>  0 0.10584092E+04</rscale>
<asrwt>0</asrwt>
<pdfrwt beam="1">  1        2 0.23579715E+00 0.10584092E+04</pdfrwt>
<pdfrwt beam="2">  1       -2 0.28111367E-01 0.10584092E+04</pdfrwt>
<totfact> 0.14001263E+02</totfact>
</mgrwt>
</event>
<event>
 4    1  0.1805887E-005  0.1258481E+04  0.7818608E-02  0.9063154E-01
          2   -1    0    0  501    0  0.00000000000E+00  0.00000000000E+00  0.12068885076E+04  0.12068885076E+04  0.25500000000E-02 0.  1.
         -2   -1    0    0    0  501 -0.00000000000E+00 -0.00000000000E+00 -0.32806998097E+03  0.32806998098E+03  0.25500000000E-02 0. -1.
   -5000001    1    1    2    0    0 -0.42969701784E+03  0.38081071795E+03  0.51447289264E+03  0.81045585155E+03  0.25000000000E+03 0.  0.
    5000001    1    1    2    0    0  0.42969701784E+03 -0.38081071795E+03  0.36434563398E+03  0.72450263702E+03  0.25000000000E+03 0.  0.
<mgrwt>
<rscale>  0 0.12584814E+04</rscale>
<asrwt>0</asrwt>
<pdfrwt beam="1">  1        2 0.18567516E+00 0.12584814E+04</pdfrwt>
<pdfrwt beam="2">  1       -2 0.50472305E-01 0.12584814E+04</pdfrwt>
<totfact> 0.68443024E+01</totfact>
</mgrwt>
</event>
<event>
 4    1  0.1805887E-005  0.7001139E+03  0.7818608E-02  0.9717037E-01
         -2   -1    0    0    0  501 -0.00000000000E+00  0.00000000000E+00  0.17063244664E+03  0.17063244666E+03  0.25500000000E-02 0. -1.
          2   -1    0    0  501    0  0.00000000000E+00 -0.00000000000E+00 -0.71815097598E+03  0.71815097598E+03  0.25500000000E-02 0.  1.
   -5000001    1    1    2    0    0  0.19874514784E+03  0.12108481921E+03 -0.37109393790E+03  0.50435292998E+03  0.25000000000E+03 0.  0.
    5000001    1    1    2    0    0 -0.19874514784E+03 -0.12108481921E+03 -0.17642459143E+03  0.38443049267E+03  0.25000000000E+03 0.  0.
<mgrwt>
<rscale>  0 0.70011387E+03</rscale>
<asrwt>0</asrwt>
<pdfrwt beam="1">  1        2 0.11048476E+00 0.70011387E+03</pdfrwt>
<pdfrwt beam="2">  1       -2 0.26251146E-01 0.70011387E+03</pdfrwt>
<totfact> 0.52320781E+02</totfact>
</mgrwt>
</event>
<event>
 4    1  0.1805887E-005  0.1226657E+04  0.7818608E-02  0.9089838E-01
         -2   -1    0    0    0  501 -0.00000000000E+00  0.00000000000E+00  0.13900814420E+03  0.13900814423E+03  0.25500000000E-02 0. -1.
          2   -1    0    0  501    0  0.00000000000E+00 -0.00000000000E+00 -0.27061149776E+04  0.27061149776E+04  0.25500000000E-02 0.  1.
   -5000001    1    1    2    0    0  0.35495121134E+03  0.38218177264E+03 -0.81037781062E+03  0.99562315447E+03  0.25000000000E+03 0.  0.
    5000001    1    1    2    0    0 -0.35495121134E+03 -0.38218177264E+03 -0.17567290228E+04  0.18494999674E+04  0.25000000000E+03 0.  0.
<mgrwt>
<rscale>  0 0.12266573E+04</rscale>
<asrwt>0</asrwt>
<pdfrwt beam="1">  1        2 0.41632534E+00 0.12266573E+04</pdfrwt>
<pdfrwt beam="2">  1       -2 0.21385870E-01 0.12266573E+04</pdfrwt>
<totfact> 0.49684499E+01</totfact>
</mgrwt>
</event>
<event>
 4    1  0.1805887E-005  0.8707042E+03  0.7818608E-02  0.9462962E-01
         -2   -1    0    0    0  501 -0.00000000000E+00  0.00000000000E+00  0.78251236849E+03  0.78251236849E+03  0.25500000000E-02 0. -1.
          2   -1    0    0  501    0  0.00000000000E+00 -0.00000000000E+00 -0.24220886644E+03  0.24220886646E+03  0.25500000000E-02 0.  1.
   -5000001    1    1    2    0    0 -0.30630534567E+03 -0.18221036461E+03  0.27344955798E+03  0.51409944808E+03  0.25000000000E+03 0.  0.
    5000001    1    1    2    0    0  0.30630534567E+03  0.18221036461E+03  0.26685394407E+03  0.51062178687E+03  0.25000000000E+03 0.  0.
<mgrwt>
<rscale>  0 0.87070416E+03</rscale>
<asrwt>0</asrwt>
<pdfrwt beam="1">  1        2 0.37262903E-01 0.87070416E+03</pdfrwt>
<pdfrwt beam="2">  1       -2 0.12038652E+00 0.87070416E+03</pdfrwt>
<totfact> 0.73754703E+01</totfact>
</mgrwt>
</event>
<event>
 4    1  0.1805887E-005  0.1276060E+04  0.7818608E-02  0.9048768E-01
          2   -1    0    0  501    0  0.00000000000E+00  0.00000000000E+00  0.18333077879E+03  0.18333077881E+03  0.25500000000E-02 0.  1.
         -2   -1    0    0    0  501 -0.00000000000E+00 -0.00000000000E+00 -0.22204795655E+04  0.22204795655E+04  0.25500000000E-02 0. -1.
   -5000001    1    1    2    0    0 -0.29743003893E+03  0.22872576684E+03 -0.16815433365E+03  0.48120264380E+03  0.25000000000E+03 0.  0.
    5000001    1    1    2    0    0  0.29743003893E+03 -0.22872576684E+03 -0.18689944530E+04  0.19226077005E+04  0.25000000000E+03 0.  0.
<mgrwt>
<rscale>  0 0.12760599E+04</rscale>
<asrwt>0</asrwt>
<pdfrwt beam="1">  1        2 0.28204737E-01 0.12760599E+04</pdfrwt>
<pdfrwt beam="2">  1       -2 0.34161222E+00 0.12760599E+04</pdfrwt>
<totfact> 0.33319057E+00</totfact>
</mgrwt>
</event>
<event>
 4    1  0.1805887E-005  0.1087619E+04  0.7818608E-02  0.9217344E-01
          2   -1    0    0  501    0  0.00000000000E+00  0.00000000000E+00  0.13193907224E+04  0.13193907224E+04  0.25500000000E-02 0.  1.
         -2   -1    0    0    0  501 -0.00000000000E+00 -0.00000000000E+00 -0.22414052894E+03  0.22414052896E+03  0.25500000000E-02 0. -1.
   -5000001    1    1    2    0    0  0.40837008729E+03 -0.18979627723E+03  0.79523164489E+03  0.94746088261E+03  0.25000000000E+03 0.  0.
    5000001    1    1    2    0    0 -0.40837008729E+03  0.18979627723E+03  0.30001854861E+03  0.59607036879E+03  0.25000000000E+03 0.  0.
<mgrwt>
<rscale>  0 0.10876193E+04</rscale>
<asrwt>0</asrwt>
<pdfrwt beam="1">  1        2 0.20298319E+00 0.10876193E+04</pdfrwt>
<pdfrwt beam="2">  1       -2 0.34483159E-01 0.10876193E+04</pdfrwt>
<totfact> 0.12601293E+02</totfact>
</mgrwt>
</event>
<event>
 4    1  0.1805887E-005  0.9284927E+03  0.7818608E-02  0.9390649E-01
         -2   -1    0    0    0  501 -0.00000000000E+00  0.00000000000E+00  0.16038404565E+03  0.16038404567E+03  0.25500000000E-02 0. -1.
          2   -1    0    0  501    0  0.00000000000E+00 -0.00000000000E+00 -0.13438036453E+04  0.13438036453E+04  0.25500000000E-02 0.  1.
   -5000001    1    1    2    0    0 -0.33490844339E+03  0.17330333122E+03 -0.42314118660E+03  0.61947249645E+03  0.25000000000E+03 0.  0.
    5000001    1    1    2    0    0  0.33490844339E+03 -0.17330333122E+03 -0.76027841306E+03  0.88471519453E+03  0.25000000000E+03 0.  0.
<mgrwt>
<rscale>  0 0.92849268E+03</rscale>
<asrwt>0</asrwt>
<pdfrwt beam="1">  1        2 0.20673902E+00 0.92849268E+03</pdfrwt>
<pdfrwt beam="2">  1       -2 0.24674469E-01 0.92849268E+03</pdfrwt>
<totfact> 0.22911424E+02</totfact>
</mgrwt>
</event>
<event>
 4    1  0.1805887E-005  0.6590249E+03  0.7818608E-02  0.9789991E-01
          2   -1    0    0  501    0  0.00000000000E+00  0.00000000000E+00  0.42131161023E+03  0.42131161023E+03  0.25500000000E-02 0.  1.
         -2   -1    0    0    0  501 -0.00000000000E+00 -0.00000000000E+00 -0.25771528027E+03  0.25771528029E+03  0.25500000000E-02 0. -1.
   -5000001    1    1    2    0    0 -0.70338932437E+02 -0.18314969581E+03 -0.79492670984E+01  0.31789081040E+03  0.25000000000E+03 0.  0.
    5000001    1    1    2    0    0  0.70338932437E+02  0.18314969581E+03  0.17154559705E+03  0.36113608011E+03  0.25000000000E+03 0.  0.
<mgrwt>
<rscale>  0 0.65902485E+03</rscale>
<asrwt>0</asrwt>
<pdfrwt beam="1">  1        2 0.64817171E-01 0.65902485E+03</pdfrwt>
<pdfrwt beam="2">  1       -2 0.39648505E-01 0.65902485E+03</pdfrwt>
<totfact> 0.45481234E+02</totfact>
</mgrwt>
</event>
<event>
 4    1  0.1805887E-005  0.6522593E+03  0.7818608E-02  0.9802549E-01
          2   -1    0    0  501    0  0.00000000000E+00  0.00000000000E+00  0.13979102926E+04  0.13979102926E+04  0.25500000000E-02 0.  1.
         -2   -1    0    0    0  501 -0.00000000000E+00 -0.00000000000E+00 -0.76085383446E+02  0.76085383488E+02  0.25500000000E-02 0. -1.
   -5000001    1    1    2    0    0  0.48493968813E+02  0.20281581405E+03  0.70465178547E+03  0.77622165533E+03  0.25000000000E+03 0.  0.
    5000001    1    1    2    0    0 -0.48493968813E+02 -0.20281581405E+03  0.61717312366E+03  0.69777402073E+03  0.25000000000E+03 0.  0.
<mgrwt>
<rscale>  0 0.65225928E+03</rscale>
<asrwt>0</asrwt>
<pdfrwt beam="1">  1        2 0.21506312E+00 0.65225928E+03</pdfrwt>
<pdfrwt beam="2">  1       -2 0.11705444E-01 0.65225928E+03</pdfrwt>
<totfact> 0.78076617E+02</totfact>
</mgrwt>
</event>
<event>
 4    1  0.1805887E-005  0.8204176E+03  0.7818608E-02  0.9530925E-01
         -2   -1    0    0    0  501 -0.00000000000E+00  0.00000000000E+00  0.44452673012E+03  0.44452673012E+03  0.25500000000E-02 0. -1.
          2   -1    0    0  501    0  0.00000000000E+00 -0.00000000000E+00 -0.37854029590E+03  0.37854029591E+03  0.25500000000E-02 0.  1.
   -5000001    1    1    2    0    0 -0.26547350859E+03 -0.17949669951E+03 -0.22647864917E+02  0.40707268968E+03  0.25000000000E+03 0.  0.
    5000001    1    1    2    0    0  0.26547350859E+03  0.17949669951E+03  0.88634299137E+02  0.41599433635E+03  0.25000000000E+03 0.  0.
<mgrwt>
<rscale>  0 0.82041765E+03</rscale>
<asrwt>0</asrwt>
<pdfrwt beam="1">  1        2 0.58236969E-01 0.82041765E+03</pdfrwt>
<pdfrwt beam="2">  1       -2 0.68388727E-01 0.82041765E+03</pdfrwt>
<totfact> 0.16667410E+02</totfact>
</mgrwt>
</event>
<event>
 4    1  0.1805887E-005  0.8978225E+03  0.7818608E-02  0.9428307E-01
          2   -1    0    0  501    0  0.00000000000E+00  0.00000000000E+00  0.17693407404E+04  0.17693407404E+04  0.25500000000E-02 0.  1.
         -2   -1    0    0    0  501 -0.00000000000E+00 -0.00000000000E+00 -0.11389627867E+03  0.11389627870E+03  0.25500000000E-02 0. -1.
   -5000001    1    1    2    0    0  0.25064205359E+03 -0.26383325383E+03  0.99802426127E+03  0.10913211493E+04  0.25000000000E+03 0.  0.
    5000001    1    1    2    0    0 -0.25064205359E+03  0.26383325383E+03  0.65742020043E+03  0.79191586977E+03  0.25000000000E+03 0.  0.
<mgrwt>
<rscale>  0 0.89782253E+03</rscale>
<asrwt>0</asrwt>
<pdfrwt beam="1">  1        2 0.27220623E+00 0.89782253E+03</pdfrwt>
<pdfrwt beam="2">  1       -2 0.17522507E-01 0.89782253E+03</pdfrwt>
<totfact> 0.24295366E+02</totfact>
</mgrwt>
</event>
<event>
 4    1  0.1805887E-005  0.1097640E+04  0.7818608E-02  0.9207496E-01
         -2   -1    0    0    0  501 -0.00000000000E+00  0.00000000000E+00  0.13524013777E+03  0.13524013780E+03  0.25500000000E-02 0. -1.
          2   -1    0    0  501    0  0.00000000000E+00 -0.00000000000E+00 -0.22271726795E+04  0.22271726795E+04  0.25500000000E-02 0.  1.
   -5000001    1    1    2    0    0 -0.40239223595E+03  0.15946982613E+03 -0.55823683217E+03  0.74931868907E+03  0.25000000000E+03 0.  0.
    5000001    1    1    2    0    0  0.40239223595E+03 -0.15946982613E+03 -0.15336957096E+04  0.16130941283E+04  0.25000000000E+03 0.  0.
<mgrwt>
<rscale>  0 0.10976395E+04</rscale>
<asrwt>0</asrwt>
<pdfrwt beam="1">  1        2 0.34264192E+00 0.10976395E+04</pdfrwt>
<pdfrwt beam="2">  1       -2 0.20806177E-01 0.10976395E+04</pdfrwt>
<totfact> 0.99155961E+01</totfact>
</mgrwt>
</event>
<event>
 4    1  0.1805887E-005  0.5380980E+03  0.7818608E-02  0.1004287E+00
          2   -1    0    0  501    0  0.00000000000E+00  0.00000000000E+00  0.12958909194E+04  0.12958909194E+04  0.25500000000E-02 0.  1.
         -2   -1    0    0    0  501 -0.00000000000E+00 -0.00000000000E+00 -0.55859158265E+02  0.55859158323E+02  0.25500000000E-02 0. -1.
   -5000001    1    1    2    0    0  0.94018054855E+02 -0.99508924072E+01  0.69740130990E+03  0.74686478157E+03  0.25000000000E+03 0.  0.
    5000001    1    1    2    0    0 -0.94018054855E+02  0.99508924072E+01  0.54263045123E+03  0.60488529615E+03  0.25000000000E+03 0.  0.
<mgrwt>
<rscale>  0 0.53809804E+03</rscale>
<asrwt>0</asrwt>
<pdfrwt beam="1">  1        2 0.19936783E+00 0.53809804E+03</pdfrwt>
<pdfrwt beam="2">  1       -2 0.85937169E-02 0.53809804E+03</pdfrwt>
<totfact> 0.14787624E+03</totfact>
</mgrwt>
</event>
<event>
 4    1  0.1805887E-005  0.7964219E+03  0.7818608E-02  0.9565211E-01
          2   -1    0    0  501    0  0.00000000000E+00  0.00000000000E+00  0.11420218889E+04  0.11420218889E+04  0.25500000000E-02 0. -1.
         -2   -1    0    0    0  501 -0.00000000000E+00 -0.00000000000E+00 -0.13885194401E+03  0.13885194403E+03  0.25500000000E-02 0.  1.
   -5000001    1    1    2    0    0 -0.11865325415E+03  0.25251623993E+03  0.28444311395E+03  0.47037318293E+03  0.25000000000E+03 0.  0.
    5000001    1    1    2    0    0  0.11865325415E+03 -0.25251623993E+03  0.71872683096E+03  0.81050065002E+03  0.25000000000E+03 0.  0.
<mgrwt>
<rscale>  0 0.79642190E+03</rscale>
<asrwt>0</asrwt>
<pdfrwt beam="1">  1        2 0.17569568E+00 0.79642190E+03</pdfrwt>
<pdfrwt beam="2">  1       -2 0.21361837E-01 0.79642190E+03</pdfrwt>
<totfact> 0.39225359E+02</totfact>
</mgrwt>
</event>
<event>
 4    1  0.1805887E-005  0.6153255E+03  0.7818608E-02  0.9874111E-01
         -2   -1    0    0    0  501 -0.00000000000E+00  0.00000000000E+00  0.16379655521E+03  0.16379655523E+03  0.25500000000E-02 0. -1.
          2   -1    0    0  501    0  0.00000000000E+00 -0.00000000000E+00 -0.57788990061E+03  0.57788990061E+03  0.25500000000E-02 0.  1.
   -5000001    1    1    2    0    0  0.12758422298E+03 -0.53292536552E+02 -0.34468202863E+03  0.44768686519E+03  0.25000000000E+03 0.  0.
    5000001    1    1    2    0    0 -0.12758422298E+03  0.53292536552E+02 -0.69411316774E+02  0.29399959065E+03  0.25000000000E+03 0.  0.
<mgrwt>
<rscale>  0 0.61532552E+03</rscale>
<asrwt>0</asrwt>
<pdfrwt beam="1">  1        2 0.88906138E-01 0.61532552E+03</pdfrwt>
<pdfrwt beam="2">  1       -2 0.25199470E-01 0.61532552E+03</pdfrwt>
<totfact> 0.73700923E+02</totfact>
</mgrwt>
</event>
<event>
 4    1  0.1805887E-005  0.1026572E+04  0.7818608E-02  0.9279872E-01
          2   -1    0    0  501    0  0.00000000000E+00  0.00000000000E+00  0.10155007275E+04  0.10155007275E+04  0.25500000000E-02 0.  1.
         -2   -1    0    0    0  501 -0.00000000000E+00 -0.00000000000E+00 -0.25944110374E+03  0.25944110375E+03  0.25500000000E-02 0. -1.
   -5000001    1    1    2    0    0 -0.17542025486E+03  0.46128559890E+02  0.88716873456E+03  0.93939793135E+03  0.25000000000E+03 0.  0.
    5000001    1    1    2    0    0  0.17542025486E+03 -0.46128559890E+02 -0.13110911077E+03  0.33554389993E+03  0.25000000000E+03 0.  0.
<mgrwt>
<rscale>  0 0.10265722E+04</rscale>
<asrwt>0</asrwt>
<pdfrwt beam="1">  1        2 0.15623088E+00 0.10265722E+04</pdfrwt>
<pdfrwt beam="2">  1       -2 0.39914017E-01 0.10265722E+04</pdfrwt>
<totfact> 0.14564924E+02</totfact>
</mgrwt>
</event>
<event>
 4    1  0.1805887E-005  0.5853972E+03  0.7818608E-02  0.9936174E-01
         -2   -1    0    0    0  501 -0.00000000000E+00  0.00000000000E+00  0.12928303344E+03  0.12928303347E+03  0.25500000000E-02 0. -1.
          2   -1    0    0  501    0  0.00000000000E+00 -0.00000000000E+00 -0.66267384386E+03  0.66267384387E+03  0.25500000000E-02 0.  1.
   -5000001    1    1    2    0    0  0.29954046144E+02 -0.22646926816E+02 -0.46626933923E+03  0.53039346233E+03  0.25000000000E+03 0.  0.
    5000001    1    1    2    0    0 -0.29954046144E+02  0.22646926816E+02 -0.67121471193E+02  0.26156341501E+03  0.25000000000E+03 0.  0.
<mgrwt>
<rscale>  0 0.58539725E+03</rscale>
<asrwt>0</asrwt>
<pdfrwt beam="1">  1        2 0.10194982E+00 0.58539725E+03</pdfrwt>
<pdfrwt beam="2">  1       -2 0.19889698E-01 0.58539725E+03</pdfrwt>
<totfact> 0.94989842E+02</totfact>
</mgrwt>
</event>
<event>
 4    1  0.1805887E-005  0.9941781E+03  0.7818608E-02  0.9314953E-01
         -2   -1    0    0    0  501 -0.00000000000E+00  0.00000000000E+00  0.33723744017E+03  0.33723744018E+03  0.25500000000E-02 0. -1.
          2   -1    0    0  501    0  0.00000000000E+00 -0.00000000000E+00 -0.73271080153E+03  0.73271080154E+03  0.25500000000E-02 0.  1.
   -5000001    1    1    2    0    0 -0.19507661659E+03 -0.33126530877E+03 -0.40420691328E+03  0.61128947306E+03  0.25000000000E+03 0.  0.
    5000001    1    1    2    0    0  0.19507661659E+03  0.33126530877E+03  0.87335519089E+01  0.45865876865E+03  0.25000000000E+03 0.  0.
<mgrwt>
<rscale>  0 0.99417808E+03</rscale>
<asrwt>0</asrwt>
<pdfrwt beam="1">  1        2 0.11272474E+00 0.99417808E+03</pdfrwt>
<pdfrwt beam="2">  1       -2 0.51882683E-01 0.99417808E+03</pdfrwt>
<totfact> 0.13542736E+02</totfact>
</mgrwt>
</event>
<event>
 4    1  0.1805887E-005  0.1068437E+04  0.7818608E-02  0.9236513E-01
          2   -1    0    0  501    0  0.00000000000E+00  0.00000000000E+00  0.39055074262E+04  0.39055074262E+04  0.25500000000E-02 0.  1.
         -2   -1    0    0    0  501 -0.00000000000E+00 -0.00000000000E+00 -0.73073602940E+02  0.73073602985E+02  0.25500000000E-02 0. -1.
   -5000001    1    1    2    0    0  0.33207711270E+03  0.29712773342E+03  0.13353924224E+04  0.14298017417E+04  0.25000000000E+03 0.  0.
    5000001    1    1    2    0    0 -0.33207711270E+03 -0.29712773342E+03  0.24970414009E+04  0.25487792875E+04  0.25000000000E+03 0.  0.
<mgrwt>
<rscale>  0 0.10684372E+04</rscale>
<asrwt>0</asrwt>
<pdfrwt beam="1">  1        2 0.60084726E+00 0.10684372E+04</pdfrwt>
<pdfrwt beam="2">  1       -2 0.11242093E-01 0.10684372E+04</pdfrwt>
<totfact> 0.24114393E+01</totfact>
</mgrwt>
</event>
<event>
 4    1  0.1805887E-005  0.8264747E+03  0.7818608E-02  0.9522467E-01
         -2   -1    0    0    0  501 -0.00000000000E+00  0.00000000000E+00  0.22234421640E+03  0.22234421642E+03  0.25500000000E-02 0. -1.
          2   -1    0    0  501    0  0.00000000000E+00 -0.00000000000E+00 -0.76802134413E+03  0.76802134414E+03  0.25500000000E-02 0.  1.
   -5000001    1    1    2    0    0 -0.18535491560E+03 -0.27103548154E+03 -0.24746322630E+03  0.48120133558E+03  0.25000000000E+03 0.  0.
    5000001    1    1    2    0    0  0.18535491560E+03  0.27103548154E+03 -0.29821390143E+03  0.50916422498E+03  0.25000000000E+03 0.  0.
<mgrwt>
<rscale>  0 0.82647469E+03</rscale>
<asrwt>0</asrwt>
<pdfrwt beam="1">  1        2 0.11815713E+00 0.82647469E+03</pdfrwt>
<pdfrwt beam="2">  1       -2 0.34206803E-01 0.82647469E+03</pdfrwt>
<totfact> 0.29221354E+02</totfact>
</mgrwt>
</event>
<event>
 4    1  0.1805887E-005  0.9362556E+03  0.7818608E-02  0.9381362E-01
          2   -1    0    0  501    0  0.00000000000E+00  0.00000000000E+00  0.31106559060E+03  0.31106559061E+03  0.25500000000E-02 0.  1.
         -2   -1    0    0    0  501 -0.00000000000E+00 -0.00000000000E+00 -0.70449333100E+03  0.70449333100E+03  0.25500000000E-02 0. -1.
   -5000001    1    1    2    0    0 -0.37844967784E+03  0.88905447394E+02 -0.27726936075E+03  0.53898667483E+03  0.25000000000E+03 0.  0.
    5000001    1    1    2    0    0  0.37844967784E+03 -0.88905447394E+02 -0.11615837965E+03  0.47657224678E+03  0.25000000000E+03 0.  0.
<mgrwt>
<rscale>  0 0.93625559E+03</rscale>
<asrwt>0</asrwt>
<pdfrwt beam="1">  1        2 0.47856245E-01 0.93625559E+03</pdfrwt>
<pdfrwt beam="2">  1       -2 0.10838359E+00 0.93625559E+03</pdfrwt>
<totfact> 0.71911426E+01</totfact>
</mgrwt>
</event>
<event>
 4    1  0.1805887E-005  0.5800921E+03  0.7818608E-02  0.9947592E-01
         -2   -1    0    0    0  501 -0.00000000000E+00  0.00000000000E+00  0.11820589460E+03  0.11820589463E+03  0.25500000000E-02 0. -1.
          2   -1    0    0  501    0  0.00000000000E+00 -0.00000000000E+00 -0.71169644096E+03  0.71169644096E+03  0.25500000000E-02 0.  1.
   -5000001    1    1    2    0    0  0.69664906039E+02  0.75017875042E+02 -0.14570724462E+03  0.30693888943E+03  0.25000000000E+03 0.  0.
    5000001    1    1    2    0    0 -0.69664906039E+02 -0.75017875042E+02 -0.44778330174E+03  0.52296344616E+03  0.25000000000E+03 0.  0.
<mgrwt>
<rscale>  0 0.58009211E+03</rscale>
<asrwt>0</asrwt>
<pdfrwt beam="1">  1        2 0.10949176E+00 0.58009211E+03</pdfrwt>
<pdfrwt beam="2">  1       -2 0.18185523E-01 0.58009211E+03</pdfrwt>
<totfact> 0.10150087E+03</totfact>
</mgrwt>
</event>
<event>
 4    1  0.1805887E-005  0.6132954E+03  0.7818608E-02  0.9878200E-01
         -2   -1    0    0    0  501 -0.00000000000E+00  0.00000000000E+00  0.43207766672E+02  0.43207766747E+02  0.25500000000E-02 0. -1.
          2   -1    0    0  501    0  0.00000000000E+00 -0.00000000000E+00 -0.21762941412E+04  0.21762941412E+04  0.25500000000E-02 0.  1.
   -5000001    1    1    2    0    0 -0.39282601725E+02  0.16156186647E+03 -0.12921842995E+04  0.13266068082E+04  0.25000000000E+03 0.  0.
    5000001    1    1    2    0    0  0.39282601725E+02 -0.16156186647E+03 -0.84090207501E+03  0.89289509981E+03  0.25000000000E+03 0.  0.
<mgrwt>
<rscale>  0 0.61329539E+03</rscale>
<asrwt>0</asrwt>
<pdfrwt beam="1">  1        2 0.33481440E+00 0.61329539E+03</pdfrwt>
<pdfrwt beam="2">  1       -2 0.66473504E-02 0.61329539E+03</pdfrwt>
<totfact> 0.73041096E+02</totfact>
</mgrwt>
</event>
<event>
 4    1  0.1805887E-005  0.5557057E+03  0.7818608E-02  0.1000182E+00
         -2   -1    0    0    0  501 -0.00000000000E+00  0.00000000000E+00  0.89092027720E+02  0.89092027756E+02  0.25500000000E-02 0. -1.
          2   -1    0    0  501    0  0.00000000000E+00 -0.00000000000E+00 -0.86654456208E+03  0.86654456209E+03  0.25500000000E-02 0.  1.
   -5000001    1    1    2    0    0  0.27400835379E+02  0.11002173911E+03 -0.46262501139E+03  0.53793818420E+03  0.25000000000E+03 0.  0.
    5000001    1    1    2    0    0 -0.27400835379E+02 -0.11002173911E+03 -0.31482752298E+03  0.41769840565E+03  0.25000000000E+03 0.  0.
<mgrwt>
<rscale>  0 0.55570572E+03</rscale>
<asrwt>0</asrwt>
<pdfrwt beam="1">  1        2 0.13331454E+00 0.55570572E+03</pdfrwt>
<pdfrwt beam="2">  1       -2 0.13706466E-01 0.55570572E+03</pdfrwt>
<totfact> 0.12674919E+03</totfact>
</mgrwt>
</event>
<event>
 4    1  0.1805887E-005  0.7132741E+03  0.7818608E-02  0.9694797E-01
          2   -1    0    0  501    0  0.00000000000E+00  0.00000000000E+00  0.45874893989E+03  0.45874893990E+03  0.25500000000E-02 0.  1.
         -2   -1    0    0    0  501 -0.00000000000E+00 -0.00000000000E+00 -0.27725402320E+03  0.27725402321E+03  0.25500000000E-02 0. -1.
   -5000001    1    1    2    0    0 -0.46205158982E+02 -0.18634408923E+03  0.26288957558E+03  0.41045092917E+03  0.25000000000E+03 0.  0.
    5000001    1    1    2    0    0  0.46205158982E+02  0.18634408923E+03 -0.81394658883E+02  0.32555203394E+03  0.25000000000E+03 0.  0.
<mgrwt>
<rscale>  0 0.71327411E+03</rscale>
<asrwt>0</asrwt>
<pdfrwt beam="1">  1        2 0.70576759E-01 0.71327411E+03</pdfrwt>
<pdfrwt beam="2">  1       -2 0.42654465E-01 0.71327411E+03</pdfrwt>
<totfact> 0.35737626E+02</totfact>
</mgrwt>
</event>
<event>
 4    1  0.1805887E-005  0.6021652E+03  0.7818608E-02  0.9900924E-01
          2   -1    0    0  501    0  0.00000000000E+00  0.00000000000E+00  0.25558206214E+04  0.25558206214E+04  0.25500000000E-02 0.  1.
         -2   -1    0    0    0  501 -0.00000000000E+00 -0.00000000000E+00 -0.35468341013E+02  0.35468341105E+02  0.25500000000E-02 0. -1.
   -5000001    1    1    2    0    0 -0.13766184039E+03  0.68716278016E+02  0.15481431090E+04  0.15757283380E+04  0.25000000000E+03 0.  0.
    5000001    1    1    2    0    0  0.13766184039E+03 -0.68716278016E+02  0.97220917141E+03  0.10155606246E+04  0.25000000000E+03 0.  0.
<mgrwt>
<rscale>  0 0.60216515E+03</rscale>
<asrwt>0</asrwt>
<pdfrwt beam="1">  1        2 0.39320319E+00 0.60216515E+03</pdfrwt>
<pdfrwt beam="2">  1       -2 0.54566676E-02 0.60216515E+03</pdfrwt>
<totfact> 0.61288809E+02</totfact>
</mgrwt>
</event>
<event>
 4    1  0.1805887E-005  0.7576262E+03  0.7818608E-02  0.9623461E-01
         -2   -1    0    0    0  501 -0.00000000000E+00  0.00000000000E+00  0.44439958423E+02  0.44439958496E+02  0.25500000000E-02 0. -1.
          2   -1    0    0  501    0  0.00000000000E+00 -0.00000000000E+00 -0.32290616444E+04  0.32290616444E+04  0.25500000000E-02 0.  1.
   -5000001    1    1    2    0    0  0.18087502895E+03  0.15848976093E+03 -0.22499230003E+04  0.22765079152E+04  0.25000000000E+03 0.  0.
    5000001    1    1    2    0    0 -0.18087502895E+03 -0.15848976093E+03 -0.93469868563E+03  0.99699368771E+03  0.25000000000E+03 0.  0.
<mgrwt>
<rscale>  0 0.75762620E+03</rscale>
<asrwt>0</asrwt>
<pdfrwt beam="1">  1        2 0.49677853E+00 0.75762620E+03</pdfrwt>
<pdfrwt beam="2">  1       -2 0.68369192E-02 0.75762620E+03</pdfrwt>
<totfact> 0.16677866E+02</totfact>
</mgrwt>
</event>
<event>
 4    1  0.1805887E-005  0.8366545E+03  0.7818608E-02  0.9508426E-01
         -2   -1    0    0    0  501 -0.00000000000E+00  0.00000000000E+00  0.35885960570E+03  0.35885960571E+03  0.25500000000E-02 0.  1.
          2   -1    0    0  501    0  0.00000000000E+00 -0.00000000000E+00 -0.48764944852E+03  0.48764944853E+03  0.25500000000E-02 0. -1.
   -5000001    1    1    2    0    0  0.32342494783E+02 -0.33079058802E+03 -0.18817261159E+02  0.41632023661E+03  0.25000000000E+03 0.  0.
    5000001    1    1    2    0    0 -0.32342494783E+02  0.33079058802E+03 -0.10997258166E+03  0.43018881763E+03  0.25000000000E+03 0.  0.
<mgrwt>
<rscale>  0 0.83665450E+03</rscale>
<asrwt>0</asrwt>
<pdfrwt beam="1">  1        2 0.75022992E-01 0.83665450E+03</pdfrwt>
<pdfrwt beam="2">  1       -2 0.55209170E-01 0.83665450E+03</pdfrwt>
<totfact> 0.19676224E+02</totfact>
</mgrwt>
</event>
<event>
 4    1  0.1805887E-005  0.8213411E+03  0.7818608E-02  0.9529630E-01
          2   -1    0    0  501    0  0.00000000000E+00  0.00000000000E+00  0.23225875197E+04  0.23225875197E+04  0.25500000000E-02 0.  1.
         -2   -1    0    0    0  501 -0.00000000000E+00 -0.00000000000E+00 -0.72613112853E+02  0.72613112898E+02  0.25500000000E-02 0. -1.
   -5000001    1    1    2    0    0 -0.29486083081E+03  0.11292309914E+03  0.13592980997E+04  0.14177044331E+04  0.25000000000E+03 0.  0.
    5000001    1    1    2    0    0  0.29486083081E+03 -0.11292309914E+03  0.89067630715E+03  0.97749619947E+03  0.25000000000E+03 0.  0.
<mgrwt>
<rscale>  0 0.82134112E+03</rscale>
<asrwt>0</asrwt>
<pdfrwt beam="1">  1        2 0.35732110E+00 0.82134112E+03</pdfrwt>
<pdfrwt beam="2">  1       -2 0.11171250E-01 0.82134112E+03</pdfrwt>
<totfact> 0.25862153E+02</totfact>
</mgrwt>
</event>
<event>
 4    1  0.1805887E-005  0.1180294E+04  0.7818608E-02  0.9130282E-01
         -2   -1    0    0    0  501 -0.00000000000E+00  0.00000000000E+00  0.20965332224E+03  0.20965332226E+03  0.25500000000E-02 0. -1.
          2   -1    0    0  501    0  0.00000000000E+00 -0.00000000000E+00 -0.16611883225E+04  0.16611883225E+04  0.25500000000E-02 0.  1.
   -5000001    1    1    2    0    0 -0.12152416136E+03 -0.49785028249E+03 -0.48459483363E+03  0.74830152904E+03  0.25000000000E+03 0.  0.
    5000001    1    1    2    0    0  0.12152416136E+03  0.49785028249E+03 -0.96694016659E+03  0.11225401157E+04  0.25000000000E+03 0.  0.
<mgrwt>
<rscale>  0 0.11802943E+04</rscale>
<asrwt>0</asrwt>
<pdfrwt beam="1">  1        2 0.25556743E+00 0.11802943E+04</pdfrwt>
<pdfrwt beam="2">  1       -2 0.32254358E-01 0.11802943E+04</pdfrwt>
<totfact> 0.91112808E+01</totfact>
</mgrwt>
</event>
<event>
 4    1  0.1805887E-005  0.6596506E+03  0.7818608E-02  0.9788837E-01
          2   -1    0    0  501    0  0.00000000000E+00  0.00000000000E+00  0.23909357834E+04  0.23909357834E+04  0.25500000000E-02 0.  1.
         -2   -1    0    0    0  501 -0.00000000000E+00 -0.00000000000E+00 -0.45498806920E+02  0.45498806991E+02  0.25500000000E-02 0. -1.
   -5000001    1    1    2    0    0 -0.14858706319E+03  0.15097266717E+03  0.13116000623E+04  0.13519118259E+04  0.25000000000E+03 0.  0.
    5000001    1    1    2    0    0  0.14858706319E+03 -0.15097266717E+03  0.10338369141E+04  0.10845227644E+04  0.25000000000E+03 0.  0.
<mgrwt>
<rscale>  0 0.65965059E+03</rscale>
<asrwt>0</asrwt>
<pdfrwt beam="1">  1        2 0.36783639E+00 0.65965059E+03</pdfrwt>
<pdfrwt beam="2">  1       -2 0.69998143E-02 0.65965059E+03</pdfrwt>
<totfact> 0.51051032E+02</totfact>
</mgrwt>
</event>
<event>
 4    1  0.1805887E-005  0.8549576E+03  0.7818608E-02  0.9483707E-01
          2   -1    0    0  501    0  0.00000000000E+00  0.00000000000E+00  0.95384771250E+03  0.95384771251E+03  0.25500000000E-02 0.  1.
         -2   -1    0    0    0  501 -0.00000000000E+00 -0.00000000000E+00 -0.19157997317E+03  0.19157997319E+03  0.25500000000E-02 0. -1.
   -5000001    1    1    2    0    0  0.33073935926E+03  0.41402612457E+02  0.25308158156E+03  0.48749665333E+03  0.25000000000E+03 0.  0.
    5000001    1    1    2    0    0 -0.33073935926E+03 -0.41402612457E+02  0.50918615777E+03  0.65793103237E+03  0.25000000000E+03 0.  0.
<mgrwt>
<rscale>  0 0.85495759E+03</rscale>
<asrwt>0</asrwt>
<pdfrwt beam="1">  1        2 0.14674580E+00 0.85495759E+03</pdfrwt>
<pdfrwt beam="2">  1       -2 0.29473843E-01 0.85495759E+03</pdfrwt>
<totfact> 0.28683117E+02</totfact>
</mgrwt>
</event>
<event>
 4    1  0.1805887E-005  0.8936900E+03  0.7818608E-02  0.9433504E-01
         -2   -1    0    0    0  501 -0.00000000000E+00  0.00000000000E+00  0.11845633436E+03  0.11845633439E+03  0.25500000000E-02 0. -1.
          2   -1    0    0  501    0  0.00000000000E+00 -0.00000000000E+00 -0.16856036902E+04  0.16856036902E+04  0.25500000000E-02 0.  1.
   -5000001    1    1    2    0    0  0.34500089594E+03 -0.13454461016E+03 -0.79674366995E+03  0.91347049538E+03  0.25000000000E+03 0.  0.
    5000001    1    1    2    0    0 -0.34500089594E+03  0.13454461016E+03 -0.77040368591E+03  0.89058952924E+03  0.25000000000E+03 0.  0.
<mgrwt>
<rscale>  0 0.89368996E+03</rscale>
<asrwt>0</asrwt>
<pdfrwt beam="1">  1        2 0.25932363E+00 0.89368996E+03</pdfrwt>
<pdfrwt beam="2">  1       -2 0.18224053E-01 0.89368996E+03</pdfrwt>
<totfact> 0.25245667E+02</totfact>
</mgrwt>
</event>
<event>
 4    1  0.1805887E-005  0.1197011E+04  0.7818608E-02  0.9115477E-01
          2   -1    0    0  501    0  0.00000000000E+00  0.00000000000E+00  0.78988683554E+03  0.78988683554E+03  0.25500000000E-02 0.  1.
         -2   -1    0    0    0  501 -0.00000000000E+00 -0.00000000000E+00 -0.45349366833E+03  0.45349366833E+03  0.25500000000E-02 0. -1.
   -5000001    1    1    2    0    0 -0.34827500927E+03  0.35959309796E+03 -0.52412385794E+02  0.56200510351E+03  0.25000000000E+03 0.  0.
    5000001    1    1    2    0    0  0.34827500927E+03 -0.35959309796E+03  0.38880555301E+03  0.68137540037E+03  0.25000000000E+03 0.  0.
<mgrwt>
<rscale>  0 0.11970107E+04</rscale>
<asrwt>0</asrwt>
<pdfrwt beam="1">  1        2 0.12152105E+00 0.11970107E+04</pdfrwt>
<pdfrwt beam="2">  1       -2 0.69768258E-01 0.11970107E+04</pdfrwt>
<totfact> 0.64770969E+01</totfact>
</mgrwt>
</event>
<event>
 4    1  0.1805887E-005  0.6932893E+03  0.7818608E-02  0.9728778E-01
          2   -1    0    0  501    0  0.00000000000E+00  0.00000000000E+00  0.29301051958E+03  0.29301051959E+03  0.25500000000E-02 0.  1.
         -2   -1    0    0    0  501 -0.00000000000E+00 -0.00000000000E+00 -0.41009625892E+03  0.41009625892E+03  0.25500000000E-02 0. -1.
   -5000001    1    1    2    0    0  0.12832378641E+03 -0.18545100275E+03  0.25108172608E+02  0.33762329438E+03  0.25000000000E+03 0.  0.
    5000001    1    1    2    0    0 -0.12832378641E+03  0.18545100275E+03 -0.14219391194E+03  0.36548348413E+03  0.25000000000E+03 0.  0.
<mgrwt>
<rscale>  0 0.69328931E+03</rscale>
<asrwt>0</asrwt>
<pdfrwt beam="1">  1        2 0.45078542E-01 0.69328931E+03</pdfrwt>
<pdfrwt beam="2">  1       -2 0.63091732E-01 0.69328931E+03</pdfrwt>
<totfact> 0.26491253E+02</totfact>
</mgrwt>
</event>
<event>
 4    1  0.1805887E-005  0.7270167E+03  0.7818608E-02  0.9672114E-01
         -2   -1    0    0    0  501 -0.00000000000E+00  0.00000000000E+00  0.14333888375E+03  0.14333888377E+03  0.25500000000E-02 0. -1.
          2   -1    0    0  501    0  0.00000000000E+00 -0.00000000000E+00 -0.92185957284E+03  0.92185957284E+03  0.25500000000E-02 0.  1.
   -5000001    1    1    2    0    0  0.18790609884E+03 -0.18526002263E+03 -0.38502802692E+03  0.52950595793E+03  0.25000000000E+03 0.  0.
    5000001    1    1    2    0    0 -0.18790609884E+03  0.18526002263E+03 -0.39349266217E+03  0.53569249869E+03  0.25000000000E+03 0.  0.
<mgrwt>
<rscale>  0 0.72701670E+03</rscale>
<asrwt>0</asrwt>
<pdfrwt beam="1">  1        2 0.14182455E+00 0.72701670E+03</pdfrwt>
<pdfrwt beam="2">  1       -2 0.22052137E-01 0.72701670E+03</pdfrwt>
<totfact> 0.51200659E+02</totfact>
</mgrwt>
</event>
<event>
 4    1  0.1805887E-005  0.1130828E+04  0.7818608E-02  0.9175655E-01
          2   -1    0    0  501    0  0.00000000000E+00  0.00000000000E+00  0.49047336807E+03  0.49047336808E+03  0.25500000000E-02 0.  1.
         -2   -1    0    0    0  501 -0.00000000000E+00 -0.00000000000E+00 -0.65180518670E+03  0.65180518670E+03  0.25500000000E-02 0. -1.
   -5000001    1    1    2    0    0  0.50520041699E+03  0.40612659694E+02 -0.98628994238E+02  0.57367632682E+03  0.25000000000E+03 0.  0.
    5000001    1    1    2    0    0 -0.50520041699E+03 -0.40612659694E+02 -0.62702824390E+02  0.56860222796E+03  0.25000000000E+03 0.  0.
<mgrwt>
<rscale>  0 0.11308282E+04</rscale>
<asrwt>0</asrwt>
<pdfrwt beam="1">  1        2 0.75457441E-01 0.11308282E+04</pdfrwt>
<pdfrwt beam="2">  1       -2 0.10027772E+00 0.11308282E+04</pdfrwt>
<totfact> 0.51223578E+01</totfact>
</mgrwt>
</event>
<event>
 4    1  0.1805887E-005  0.8131662E+03  0.7818608E-02  0.9541153E-01
         -2   -1    0    0    0  501 -0.00000000000E+00  0.00000000000E+00  0.94720174273E+03  0.94720174273E+03  0.25500000000E-02 0. -1.
          2   -1    0    0  501    0  0.00000000000E+00 -0.00000000000E+00 -0.17452441695E+03  0.17452441697E+03  0.25500000000E-02 0.  1.
   -5000001    1    1    2    0    0 -0.24551215167E+03 -0.62410509243E+02  0.11518349587E+03  0.37408358157E+03  0.25000000000E+03 0.  0.
    5000001    1    1    2    0    0  0.24551215167E+03  0.62410509243E+02  0.65749382990E+03  0.74764257814E+03  0.25000000000E+03 0.  0.
<mgrwt>
<rscale>  0 0.81316624E+03</rscale>
<asrwt>0</asrwt>
<pdfrwt beam="1">  1        2 0.26849911E-01 0.81316624E+03</pdfrwt>
<pdfrwt beam="2">  1       -2 0.14572334E+00 0.81316624E+03</pdfrwt>
<totfact> 0.65793131E+01</totfact>
</mgrwt>
</event>
<event>
 4    1  0.1805887E-005  0.1516071E+04  0.7818608E-02  0.8873836E-01
         -2   -1    0    0    0  501 -0.00000000000E+00  0.00000000000E+00  0.23442017557E+03  0.23442017558E+03  0.25500000000E-02 0. -1.
          2   -1    0    0  501    0  0.00000000000E+00 -0.00000000000E+00 -0.24512301165E+04  0.24512301165E+04  0.25500000000E-02 0.  1.
   -5000001    1    1    2    0    0  0.38801412397E+03 -0.42917449247E+03 -0.36234700714E+03  0.72700829361E+03  0.25000000000E+03 0.  0.
    5000001    1    1    2    0    0 -0.38801412397E+03  0.42917449247E+03 -0.18544629338E+04  0.19586419985E+04  0.25000000000E+03 0.  0.
<mgrwt>
<rscale>  0 0.15160710E+04</rscale>
<asrwt>0</asrwt>
<pdfrwt beam="1">  1        2 0.37711231E+00 0.15160710E+04</pdfrwt>
<pdfrwt beam="2">  1       -2 0.36064644E-01 0.15160710E+04</pdfrwt>
<totfact> 0.25987909E+01</totfact>
</mgrwt>
</event>
<event>
 4    1  0.1805887E-005  0.7267805E+03  0.7818608E-02  0.9672499E-01
         -2   -1    0    0    0  501 -0.00000000000E+00  0.00000000000E+00  0.10178872880E+03  0.10178872883E+03  0.25500000000E-02 0. -1.
          2   -1    0    0  501    0  0.00000000000E+00 -0.00000000000E+00 -0.12973192998E+04  0.12973192998E+04  0.25500000000E-02 0.  1.
   -5000001    1    1    2    0    0 -0.12706526753E+03  0.17754768977E+03 -0.88254465448E+03  0.94289651156E+03  0.25000000000E+03 0.  0.
    5000001    1    1    2    0    0  0.12706526753E+03 -0.17754768977E+03 -0.31298591648E+03  0.45621151703E+03  0.25000000000E+03 0.  0.
<mgrwt>
<rscale>  0 0.72678052E+03</rscale>
<asrwt>0</asrwt>
<pdfrwt beam="1">  1        2 0.19958757E+00 0.72678052E+03</pdfrwt>
<pdfrwt beam="2">  1       -2 0.15659805E-01 0.72678052E+03</pdfrwt>
<totfact> 0.54572376E+02</totfact>
</mgrwt>
</event>
<event>
 4    1  0.1805887E-005  0.9969278E+03  0.7818608E-02  0.9311921E-01
          2   -1    0    0  501    0  0.00000000000E+00  0.00000000000E+00  0.21789097523E+04  0.21789097523E+04  0.25500000000E-02 0.  1.
         -2   -1    0    0    0  501 -0.00000000000E+00 -0.00000000000E+00 -0.11403238329E+03  0.11403238332E+03  0.25500000000E-02 0. -1.
   -5000001    1    1    2    0    0  0.22780715313E+02  0.42641564801E+03  0.11707647437E+04  0.12710386898E+04  0.25000000000E+03 0.  0.
    5000001    1    1    2    0    0 -0.22780715313E+02 -0.42641564801E+03  0.89411262532E+03  0.10219034458E+04  0.25000000000E+03 0.  0.
<mgrwt>
<rscale>  0 0.99692783E+03</rscale>
<asrwt>0</asrwt>
<pdfrwt beam="1">  1        2 0.33521684E+00 0.99692783E+03</pdfrwt>
<pdfrwt beam="2">  1       -2 0.17543446E-01 0.99692783E+03</pdfrwt>
<totfact> 0.14325789E+02</totfact>
</mgrwt>
</event>
<event>
 4    1  0.1805887E-005  0.5736505E+03  0.7818608E-02  0.9961633E-01
          2   -1    0    0  501    0  0.00000000000E+00  0.00000000000E+00  0.12341400602E+04  0.12341400602E+04  0.25500000000E-02 0.  1.
         -2   -1    0    0    0  501 -0.00000000000E+00 -0.00000000000E+00 -0.66660764484E+02  0.66660764533E+02  0.25500000000E-02 0. -1.
   -5000001    1    1    2    0    0  0.12356313907E+02 -0.13521951511E+03  0.50098915698E+03  0.57613117531E+03  0.25000000000E+03 0.  0.
    5000001    1    1    2    0    0 -0.12356313907E+02  0.13521951511E+03  0.66649013875E+03  0.72466964943E+03  0.25000000000E+03 0.  0.
<mgrwt>
<rscale>  0 0.57365049E+03</rscale>
<asrwt>0</asrwt>
<pdfrwt beam="1">  1        2 0.18986770E+00 0.57365049E+03</pdfrwt>
<pdfrwt beam="2">  1       -2 0.10255502E-01 0.57365049E+03</pdfrwt>
<totfact> 0.12057533E+03</totfact>
</mgrwt>
</event>
<event>
 4    1  0.1805887E-005  0.5477909E+03  0.7818608E-02  0.1002007E+00
          2   -1    0    0  501    0  0.00000000000E+00  0.00000000000E+00  0.13800483066E+04  0.13800483066E+04  0.25500000000E-02 0.  1.
         -2   -1    0    0    0  501 -0.00000000000E+00 -0.00000000000E+00 -0.54359478439E+02  0.54359478498E+02  0.25500000000E-02 0. -1.
   -5000001    1    1    2    0    0 -0.13943314652E+02 -0.11079987246E+03  0.68092526731E+03  0.73391433248E+03  0.25000000000E+03 0.  0.
    5000001    1    1    2    0    0  0.13943314652E+02  0.11079987246E+03  0.64476356086E+03  0.70049345262E+03  0.25000000000E+03 0.  0.
<mgrwt>
<rscale>  0 0.54779086E+03</rscale>
<asrwt>0</asrwt>
<pdfrwt beam="1">  1        2 0.21231511E+00 0.54779086E+03</pdfrwt>
<pdfrwt beam="2">  1       -2 0.83629974E-02 0.54779086E+03</pdfrwt>
<totfact> 0.13837536E+03</totfact>
</mgrwt>
</event>
<event>
 4    1  0.1805887E-005  0.7490013E+03  0.7818608E-02  0.9636918E-01
         -2   -1    0    0    0  501 -0.00000000000E+00  0.00000000000E+00  0.17149931758E+03  0.17149931759E+03  0.25500000000E-02 0. -1.
          2   -1    0    0  501    0  0.00000000000E+00 -0.00000000000E+00 -0.81779186912E+03  0.81779186912E+03  0.25500000000E-02 0.  1.
   -5000001    1    1    2    0    0  0.13939471523E+03  0.16875202223E+03 -0.55131703965E+03  0.64370692854E+03  0.25000000000E+03 0.  0.
    5000001    1    1    2    0    0 -0.13939471523E+03 -0.16875202223E+03 -0.94975511895E+02  0.34558425818E+03  0.25000000000E+03 0.  0.
<mgrwt>
<rscale>  0 0.74900133E+03</rscale>
<asrwt>0</asrwt>
<pdfrwt beam="1">  1        2 0.12581413E+00 0.74900133E+03</pdfrwt>
<pdfrwt beam="2">  1       -2 0.26384511E-01 0.74900133E+03</pdfrwt>
<totfact> 0.43699195E+02</totfact>
</mgrwt>
</event>
<event>
 4    1  0.1805887E-005  0.8121866E+03  0.7818608E-02  0.9542543E-01
         -2   -1    0    0    0  501 -0.00000000000E+00  0.00000000000E+00  0.60749651901E+02  0.60749651955E+02  0.25500000000E-02 0. -1.
          2   -1    0    0  501    0  0.00000000000E+00 -0.00000000000E+00 -0.27146126009E+04  0.27146126009E+04  0.25500000000E-02 0.  1.
   -5000001    1    1    2    0    0 -0.28033545101E+03 -0.13554364789E+03 -0.10746235874E+04  0.11464187282E+04  0.25000000000E+03 0.  0.
    5000001    1    1    2    0    0  0.28033545101E+03  0.13554364789E+03 -0.15792393616E+04  0.16289435247E+04  0.25000000000E+03 0.  0.
<mgrwt>
<rscale>  0 0.81218661E+03</rscale>
<asrwt>0</asrwt>
<pdfrwt beam="1">  1        2 0.41763261E+00 0.81218661E+03</pdfrwt>
<pdfrwt beam="2">  1       -2 0.93461024E-02 0.81218661E+03</pdfrwt>
<totfact> 0.20703794E+02</totfact>
</mgrwt>
</event>
<event>
 4    1  0.1805887E-005  0.6621565E+03  0.7818608E-02  0.9784232E-01
          2   -1    0    0  501    0  0.00000000000E+00  0.00000000000E+00  0.64063071403E+03  0.64063071404E+03  0.25500000000E-02 0.  1.
         -2   -1    0    0    0  501 -0.00000000000E+00 -0.00000000000E+00 -0.17110140932E+03  0.17110140934E+03  0.25500000000E-02 0. -1.
   -5000001    1    1    2    0    0  0.20800428061E+03  0.30019006296E+02  0.30130128400E+03  0.44435277115E+03  0.25000000000E+03 0.  0.
    5000001    1    1    2    0    0 -0.20800428061E+03 -0.30019006296E+02  0.16822802071E+03  0.36737935223E+03  0.25000000000E+03 0.  0.
<mgrwt>
<rscale>  0 0.66215653E+03</rscale>
<asrwt>0</asrwt>
<pdfrwt beam="1">  1        2 0.98558570E-01 0.66215653E+03</pdfrwt>
<pdfrwt beam="2">  1       -2 0.26323294E-01 0.66215653E+03</pdfrwt>
<totfact> 0.60090190E+02</totfact>
</mgrwt>
</event>
<event>
 4    1  0.1805887E-005  0.8832048E+03  0.7818608E-02  0.9446823E-01
         -2   -1    0    0    0  501 -0.00000000000E+00  0.00000000000E+00  0.86730492715E+02  0.86730492753E+02  0.25500000000E-02 0. -1.
          2   -1    0    0  501    0  0.00000000000E+00 -0.00000000000E+00 -0.22484903887E+04  0.22484903887E+04  0.25500000000E-02 0.  1.
   -5000001    1    1    2    0    0  0.63310083562E+02 -0.35708788064E+03 -0.99757164750E+03  0.10904903086E+04  0.25000000000E+03 0.  0.
    5000001    1    1    2    0    0 -0.63310083562E+02  0.35708788064E+03 -0.11641882485E+04  0.12447305729E+04  0.25000000000E+03 0.  0.
<mgrwt>
<rscale>  0 0.88320480E+03</rscale>
<asrwt>0</asrwt>
<pdfrwt beam="1">  1        2 0.34592155E+00 0.88320480E+03</pdfrwt>
<pdfrwt beam="2">  1       -2 0.13343154E-01 0.88320480E+03</pdfrwt>
<totfact> 0.21067151E+02</totfact>
</mgrwt>
</event>
<event>
 4    1  0.1805887E-005  0.7477245E+03  0.7818608E-02  0.9638927E-01
         -2   -1    0    0    0  501 -0.00000000000E+00  0.00000000000E+00  0.22147763012E+03  0.22147763014E+03  0.25500000000E-02 0. -1.
          2   -1    0    0  501    0  0.00000000000E+00 -0.00000000000E+00 -0.63109298050E+03  0.63109298050E+03  0.25500000000E-02 0.  1.
   -5000001    1    1    2    0    0 -0.17347482683E+03 -0.11566781801E+03 -0.41443591576E+03  0.52700065269E+03  0.25000000000E+03 0.  0.
    5000001    1    1    2    0    0  0.17347482683E+03  0.11566781801E+03  0.48205653830E+01  0.32556995795E+03  0.25000000000E+03 0.  0.
<mgrwt>
<rscale>  0 0.74772449E+03</rscale>
<asrwt>0</asrwt>
<pdfrwt beam="1">  1        2 0.97091227E-01 0.74772449E+03</pdfrwt>
<pdfrwt beam="2">  1       -2 0.34073482E-01 0.74772449E+03</pdfrwt>
<totfact> 0.37835744E+02</totfact>
</mgrwt>
</event>
<event>
 4    1  0.1805887E-005  0.8192048E+03  0.7818608E-02  0.9532628E-01
          2   -1    0    0  501    0  0.00000000000E+00  0.00000000000E+00  0.12830498802E+04  0.12830498802E+04  0.25500000000E-02 0.  1.
         -2   -1    0    0    0  501 -0.00000000000E+00 -0.00000000000E+00 -0.13076197459E+03  0.13076197461E+03  0.25500000000E-02 0. -1.
   -5000001    1    1    2    0    0  0.20131298271E+03  0.25443156463E+03  0.58207182461E+03  0.71173727392E+03  0.25000000000E+03 0.  0.
    5000001    1    1    2    0    0 -0.20131298271E+03 -0.25443156463E+03  0.57021608096E+03  0.70207458085E+03  0.25000000000E+03 0.  0.
<mgrwt>
<rscale>  0 0.81920482E+03</rscale>
<asrwt>0</asrwt>
<pdfrwt beam="1">  1        2 0.19739230E+00 0.81920482E+03</pdfrwt>
<pdfrwt beam="2">  1       -2 0.20117226E-01 0.81920482E+03</pdfrwt>
<totfact> 0.35937703E+02</totfact>
</mgrwt>
</event>
<event>
 4    1  0.1805887E-005  0.8435911E+03  0.7818608E-02  0.9498979E-01
         -2   -1    0    0    0  501 -0.00000000000E+00  0.00000000000E+00  0.13697822289E+03  0.13697822291E+03  0.25500000000E-02 0. -1.
          2   -1    0    0  501    0  0.00000000000E+00 -0.00000000000E+00 -0.12988303748E+04  0.12988303749E+04  0.25500000000E-02 0.  1.
   -5000001    1    1    2    0    0 -0.29327229113E+03  0.39326976900E+02 -0.29685584013E+03  0.48803548813E+03  0.25000000000E+03 0.  0.
    5000001    1    1    2    0    0  0.29327229113E+03 -0.39326976900E+02 -0.86499631183E+03  0.94777310963E+03  0.25000000000E+03 0.  0.
<mgrwt>
<rscale>  0 0.84359108E+03</rscale>
<asrwt>0</asrwt>
<pdfrwt beam="1">  1        2 0.19982005E+00 0.84359108E+03</pdfrwt>
<pdfrwt beam="2">  1       -2 0.21073574E-01 0.84359108E+03</pdfrwt>
<totfact> 0.32385638E+02</totfact>
</mgrwt>
</event>
<event>
 4    1  0.1805887E-005  0.7827693E+03  0.7818608E-02  0.9585298E-01
          2   -1    0    0  501    0  0.00000000000E+00  0.00000000000E+00  0.75047804604E+03  0.75047804605E+03  0.25500000000E-02 0.  1.
         -2   -1    0    0    0  501 -0.00000000000E+00 -0.00000000000E+00 -0.20411250922E+03  0.20411250923E+03  0.25500000000E-02 0. -1.
   -5000001    1    1    2    0    0 -0.11068137973E+03 -0.26258914502E+03  0.39191095362E+03  0.54525005499E+03  0.25000000000E+03 0.  0.
    5000001    1    1    2    0    0  0.11068137973E+03  0.26258914502E+03  0.15445458321E+03  0.40934050029E+03  0.25000000000E+03 0.  0.
<mgrwt>
<rscale>  0 0.78276933E+03</rscale>
<asrwt>0</asrwt>
<pdfrwt beam="1">  1        2 0.11545816E+00 0.78276933E+03</pdfrwt>
<pdfrwt beam="2">  1       -2 0.31401925E-01 0.78276933E+03</pdfrwt>
<totfact> 0.35443614E+02</totfact>
</mgrwt>
</event>
<event>
 4    1  0.1805887E-005  0.6881112E+03  0.7818608E-02  0.9737782E-01
         -2   -1    0    0    0  501 -0.00000000000E+00  0.00000000000E+00  0.24155537644E+03  0.24155537645E+03  0.25500000000E-02 0. -1.
          2   -1    0    0  501    0  0.00000000000E+00 -0.00000000000E+00 -0.49005018193E+03  0.49005018194E+03  0.25500000000E-02 0.  1.
   -5000001    1    1    2    0    0  0.15341620675E+03 -0.24679017970E+00 -0.31544070887E+03  0.43074288643E+03  0.25000000000E+03 0.  0.
    5000001    1    1    2    0    0 -0.15341620675E+03  0.24679017970E+00  0.66945903377E+02  0.30086267196E+03  0.25000000000E+03 0.  0.
<mgrwt>
<rscale>  0 0.68811120E+03</rscale>
<asrwt>0</asrwt>
<pdfrwt beam="1">  1        2 0.75392336E-01 0.68811120E+03</pdfrwt>
<pdfrwt beam="2">  1       -2 0.37162366E-01 0.68811120E+03</pdfrwt>
<totfact> 0.43351681E+02</totfact>
</mgrwt>
</event>
<event>
 4    1  0.1805887E-005  0.6992093E+03  0.7818608E-02  0.9718585E-01
         -2   -1    0    0    0  501 -0.00000000000E+00  0.00000000000E+00  0.19434649622E+03  0.19434649624E+03  0.25500000000E-02 0. -1.
          2   -1    0    0  501    0  0.00000000000E+00 -0.00000000000E+00 -0.62889442711E+03  0.62889442711E+03  0.25500000000E-02 0.  1.
   -5000001    1    1    2    0    0 -0.18362544472E+03  0.10771554523E+03 -0.35857275847E+03  0.48620506553E+03  0.25000000000E+03 0.  0.
    5000001    1    1    2    0    0  0.18362544472E+03 -0.10771554523E+03 -0.75975172412E+02  0.33703585782E+03  0.25000000000E+03 0.  0.
<mgrwt>
<rscale>  0 0.69920935E+03</rscale>
<asrwt>0</asrwt>
<pdfrwt beam="1">  1        2 0.96752988E-01 0.69920935E+03</pdfrwt>
<pdfrwt beam="2">  1       -2 0.29899461E-01 0.69920935E+03</pdfrwt>
<totfact> 0.48613176E+02</totfact>
</mgrwt>
</event>
<event>
 4    1  0.1805887E-005  0.8713607E+03  0.7818608E-02  0.9462107E-01
          2   -1    0    0  501    0  0.00000000000E+00  0.00000000000E+00  0.13175335539E+03  0.13175335542E+03  0.25500000000E-02 0.  1.
         -2   -1    0    0    0  501 -0.00000000000E+00 -0.00000000000E+00 -0.14407022987E+04  0.14407022987E+04  0.25500000000E-02 0. -1.
   -5000001    1    1    2    0    0 -0.12680119070E+03  0.32806351026E+03 -0.54600097590E+03  0.69593194668E+03  0.25000000000E+03 0.  0.
    5000001    1    1    2    0    0  0.12680119070E+03 -0.32806351026E+03 -0.76294796741E+03  0.87652370744E+03  0.25000000000E+03 0.  0.
<mgrwt>
<rscale>  0 0.87136069E+03</rscale>
<asrwt>0</asrwt>
<pdfrwt beam="1">  1        2 0.20269748E-01 0.87136069E+03</pdfrwt>
<pdfrwt beam="2">  1       -2 0.22164650E+00 0.87136069E+03</pdfrwt>
<totfact> 0.27318256E+01</totfact>
</mgrwt>
</event>
<event>
 4    1  0.1805887E-005  0.6516723E+03  0.7818608E-02  0.9803646E-01
         -2   -1    0    0    0  501 -0.00000000000E+00  0.00000000000E+00  0.22295586161E+03  0.22295586163E+03  0.25500000000E-02 0. -1.
          2   -1    0    0  501    0  0.00000000000E+00 -0.00000000000E+00 -0.47618933850E+03  0.47618933850E+03  0.25500000000E-02 0.  1.
   -5000001    1    1    2    0    0 -0.29508514267E+02  0.17155526399E+03 -0.25775177280E+01  0.30464504692E+03  0.25000000000E+03 0.  0.
    5000001    1    1    2    0    0  0.29508514267E+02 -0.17155526399E+03 -0.25065595916E+03  0.39450015320E+03  0.25000000000E+03 0.  0.
<mgrwt>
<rscale>  0 0.65167232E+03</rscale>
<asrwt>0</asrwt>
<pdfrwt beam="1">  1        2 0.73259898E-01 0.65167232E+03</pdfrwt>
<pdfrwt beam="2">  1       -2 0.34300902E-01 0.65167232E+03</pdfrwt>
<totfact> 0.52250554E+02</totfact>
</mgrwt>
</event>
<event>
 4    1  0.1805887E-005  0.7304899E+03  0.7818608E-02  0.9666466E-01
          2   -1    0    0  501    0  0.00000000000E+00  0.00000000000E+00  0.59940322052E+03  0.59940322053E+03  0.25500000000E-02 0.  1.
         -2   -1    0    0    0  501 -0.00000000000E+00 -0.00000000000E+00 -0.22256115285E+03  0.22256115287E+03  0.25500000000E-02 0. -1.
   -5000001    1    1    2    0    0 -0.23110126547E+03 -0.12792599337E+03  0.22626297175E+03  0.42833139865E+03  0.25000000000E+03 0.  0.
    5000001    1    1    2    0    0  0.23110126547E+03  0.12792599337E+03  0.15057909592E+03  0.39363297475E+03  0.25000000000E+03 0.  0.
<mgrwt>
<rscale>  0 0.73048990E+03</rscale>
<asrwt>0</asrwt>
<pdfrwt beam="1">  1        2 0.92215878E-01 0.73048990E+03</pdfrwt>
<pdfrwt beam="2">  1       -2 0.34240178E-01 0.73048990E+03</pdfrwt>
<totfact> 0.39930395E+02</totfact>
</mgrwt>
</event>
<event>
 4    1  0.1805887E-005  0.6263471E+03  0.7818608E-02  0.9852203E-01
          2   -1    0    0  501    0  0.00000000000E+00  0.00000000000E+00  0.29077507611E+03  0.29077507612E+03  0.25500000000E-02 0.  1.
         -2   -1    0    0    0  501 -0.00000000000E+00 -0.00000000000E+00 -0.33729738932E+03  0.33729738933E+03  0.25500000000E-02 0. -1.
   -5000001    1    1    2    0    0  0.13324707993E+03 -0.13349412128E+03 -0.24751633355E+02  0.31414663468E+03  0.25000000000E+03 0.  0.
    5000001    1    1    2    0    0 -0.13324707993E+03  0.13349412128E+03 -0.21770679862E+02  0.31392583077E+03  0.25000000000E+03 0.  0.
<mgrwt>
<rscale>  0 0.62634711E+03</rscale>
<asrwt>0</asrwt>
<pdfrwt beam="1">  1        2 0.44734627E-01 0.62634711E+03</pdfrwt>
<pdfrwt beam="2">  1       -2 0.51891906E-01 0.62634711E+03</pdfrwt>
<totfact> 0.40239807E+02</totfact>
</mgrwt>
</event>
<event>
 4    1  0.1805887E-005  0.1042089E+04  0.7818608E-02  0.9263550E-01
         -2   -1    0    0    0  501 -0.00000000000E+00  0.00000000000E+00  0.77296254719E+03  0.77296254719E+03  0.25500000000E-02 0.  1.
          2   -1    0    0  501    0  0.00000000000E+00 -0.00000000000E+00 -0.35122961657E+03  0.35122961658E+03  0.25500000000E-02 0. -1.
   -5000001    1    1    2    0    0  0.45275253957E+03  0.59742785790E+01  0.27881108909E+03  0.58758503852E+03  0.25000000000E+03 0.  0.
    5000001    1    1    2    0    0 -0.45275253957E+03 -0.59742785790E+01  0.14292184152E+03  0.53660712525E+03  0.25000000000E+03 0.  0.
<mgrwt>
<rscale>  0 0.10420889E+04</rscale>
<asrwt>0</asrwt>
<pdfrwt beam="1">  1        2 0.54035326E-01 0.10420889E+04</pdfrwt>
<pdfrwt beam="2">  1       -2 0.11891731E+00 0.10420889E+04</pdfrwt>
<totfact> 0.49778859E+01</totfact>
</mgrwt>
</event>
<event>
 4    1  0.1805887E-005  0.9662730E+03  0.7818608E-02  0.9346330E-01
          2   -1    0    0  501    0  0.00000000000E+00  0.00000000000E+00  0.21976879480E+04  0.21976879480E+04  0.25500000000E-02 0.  1.
         -2   -1    0    0    0  501 -0.00000000000E+00 -0.00000000000E+00 -0.10621203061E+03  0.10621203065E+03  0.25500000000E-02 0. -1.
   -5000001    1    1    2    0    0 -0.10415864070E+03  0.21798552284E+03  0.18456543339E+04  0.18781125181E+04  0.25000000000E+03 0.  0.
    5000001    1    1    2    0    0  0.10415864070E+03 -0.21798552284E+03  0.24582158347E+03  0.42578746048E+03  0.25000000000E+03 0.  0.
<mgrwt>
<rscale>  0 0.96627305E+03</rscale>
<asrwt>0</asrwt>
<pdfrwt beam="1">  1        2 0.33810584E+00 0.96627305E+03</pdfrwt>
<pdfrwt beam="2">  1       -2 0.16340312E-01 0.96627305E+03</pdfrwt>
<totfact> 0.15843326E+02</totfact>
</mgrwt>
</event>
<event>
 4    1  0.1805887E-005  0.6640912E+03  0.7818608E-02  0.9780692E-01
          2   -1    0    0  501    0  0.00000000000E+00  0.00000000000E+00  0.15625237719E+04  0.15625237719E+04  0.25500000000E-02 0.  1.
         -2   -1    0    0    0  501 -0.00000000000E+00 -0.00000000000E+00 -0.70561664787E+02  0.70561664833E+02  0.25500000000E-02 0. -1.
   -5000001    1    1    2    0    0  0.20150041202E+03 -0.80743536068E+02  0.80781940213E+03  0.87303729653E+03  0.25000000000E+03 0.  0.
    5000001    1    1    2    0    0 -0.20150041202E+03  0.80743536068E+02  0.68414270499E+03  0.76004814022E+03  0.25000000000E+03 0.  0.
<mgrwt>
<rscale>  0 0.66409119E+03</rscale>
<asrwt>0</asrwt>
<pdfrwt beam="1">  1        2 0.24038827E+00 0.66409119E+03</pdfrwt>
<pdfrwt beam="2">  1       -2 0.10855641E-01 0.66409119E+03</pdfrwt>
<totfact> 0.71520440E+02</totfact>
</mgrwt>
</event>
<event>
 4    1  0.1805887E-005  0.9759915E+03  0.7818608E-02  0.9335276E-01
          2   -1    0    0  501    0  0.00000000000E+00  0.00000000000E+00  0.65306748848E+03  0.65306748848E+03  0.25500000000E-02 0.  1.
         -2   -1    0    0    0  501 -0.00000000000E+00 -0.00000000000E+00 -0.36464815369E+03  0.36464815369E+03  0.25500000000E-02 0. -1.
   -5000001    1    1    2    0    0  0.10435257639E+03  0.40530897258E+03  0.16693661655E+03  0.51529860994E+03  0.25000000000E+03 0.  0.
    5000001    1    1    2    0    0 -0.10435257639E+03 -0.40530897258E+03  0.12148271824E+03  0.50241703224E+03  0.25000000000E+03 0.  0.
<mgrwt>
<rscale>  0 0.97599150E+03</rscale>
<asrwt>0</asrwt>
<pdfrwt beam="1">  1        2 0.10047192E+00 0.97599150E+03</pdfrwt>
<pdfrwt beam="2">  1       -2 0.56099716E-01 0.97599150E+03</pdfrwt>
<totfact> 0.13335954E+02</totfact>
</mgrwt>
</event>
<event>
 4    1  0.1805887E-005  0.5953501E+03  0.7818608E-02  0.9915100E-01
         -2   -1    0    0    0  501 -0.00000000000E+00  0.00000000000E+00  0.52969075380E+02  0.52969075441E+02  0.25500000000E-02 0. -1.
          2   -1    0    0  501    0  0.00000000000E+00 -0.00000000000E+00 -0.16728711703E+04  0.16728711703E+04  0.25500000000E-02 0.  1.
   -5000001    1    1    2    0    0  0.12591418177E+03  0.46617929366E+02 -0.54932982056E+03  0.61829674450E+03  0.25000000000E+03 0.  0.
    5000001    1    1    2    0    0 -0.12591418177E+03 -0.46617929366E+02 -0.10705722744E+04  0.11075435013E+04  0.25000000000E+03 0.  0.
<mgrwt>
<rscale>  0 0.59535011E+03</rscale>
<asrwt>0</asrwt>
<pdfrwt beam="1">  1        2 0.25736476E+00 0.59535011E+03</pdfrwt>
<pdfrwt beam="2">  1       -2 0.81490898E-02 0.59535011E+03</pdfrwt>
<totfact> 0.99278196E+02</totfact>
</mgrwt>
</event>
<event>
 4    1  0.1805887E-005  0.5944556E+03  0.7818608E-02  0.9916976E-01
          2   -1    0    0  501    0  0.00000000000E+00  0.00000000000E+00  0.18877755748E+04  0.18877755748E+04  0.25500000000E-02 0.  1.
         -2   -1    0    0    0  501 -0.00000000000E+00 -0.00000000000E+00 -0.46798133002E+02  0.46798133071E+02  0.25500000000E-02 0. -1.
   -5000001    1    1    2    0    0 -0.17590101175E+01 -0.14017449213E+03  0.66439732028E+03  0.72358536577E+03  0.25000000000E+03 0.  0.
    5000001    1    1    2    0    0  0.17590101175E+01  0.14017449213E+03  0.11765801216E+04  0.12109883421E+04  0.25000000000E+03 0.  0.
<mgrwt>
<rscale>  0 0.59445562E+03</rscale>
<asrwt>0</asrwt>
<pdfrwt beam="1">  1        2 0.29042705E+00 0.59445562E+03</pdfrwt>
<pdfrwt beam="2">  1       -2 0.71997118E-02 0.59445562E+03</pdfrwt>
<totfact> 0.92467788E+02</totfact>
</mgrwt>
</event>
<event>
 4    1  0.1805887E-005  0.6149228E+03  0.7818608E-02  0.9874921E-01
          2   -1    0    0  501    0  0.00000000000E+00  0.00000000000E+00  0.58355923673E+03  0.58355923673E+03  0.25500000000E-02 0.  1.
         -2   -1    0    0    0  501 -0.00000000000E+00 -0.00000000000E+00 -0.16199300633E+03  0.16199300635E+03  0.25500000000E-02 0. -1.
   -5000001    1    1    2    0    0  0.12562674673E+03 -0.12562286063E+03  0.23704934915E+03  0.38762814209E+03  0.25000000000E+03 0.  0.
    5000001    1    1    2    0    0 -0.12562674673E+03  0.12562286063E+03  0.18451688124E+03  0.35792410099E+03  0.25000000000E+03 0.  0.
<mgrwt>
<rscale>  0 0.61492281E+03</rscale>
<asrwt>0</asrwt>
<pdfrwt beam="1">  1        2 0.89778345E-01 0.61492281E+03</pdfrwt>
<pdfrwt beam="2">  1       -2 0.24922001E-01 0.61492281E+03</pdfrwt>
<totfact> 0.74315255E+02</totfact>
</mgrwt>
</event>
<event>
 4    1  0.1805887E-005  0.6380336E+03  0.7818608E-02  0.9829496E-01
          2   -1    0    0  501    0  0.00000000000E+00  0.00000000000E+00  0.22710170467E+04  0.22710170467E+04  0.25500000000E-02 0.  1.
         -2   -1    0    0    0  501 -0.00000000000E+00 -0.00000000000E+00 -0.44813276464E+02  0.44813276537E+02  0.25500000000E-02 0. -1.
   -5000001    1    1    2    0    0  0.97932945289E+02  0.17113496630E+03  0.10410852411E+04  0.10886856836E+04  0.25000000000E+03 0.  0.
    5000001    1    1    2    0    0 -0.97932945289E+02 -0.17113496630E+03  0.11851185291E+04  0.12271446396E+04  0.25000000000E+03 0.  0.
<mgrwt>
<rscale>  0 0.63803359E+03</rscale>
<asrwt>0</asrwt>
<pdfrwt beam="1">  1        2 0.34938722E+00 0.63803359E+03</pdfrwt>
<pdfrwt beam="2">  1       -2 0.68943506E-02 0.63803359E+03</pdfrwt>
<totfact> 0.61054733E+02</totfact>
</mgrwt>
</event>
<event>
 4    1  0.1805887E-005  0.8113695E+03  0.7818608E-02  0.9543704E-01
          2   -1    0    0  501    0  0.00000000000E+00  0.00000000000E+00  0.16032657192E+04  0.16032657192E+04  0.25500000000E-02 0.  1.
         -2   -1    0    0    0  501 -0.00000000000E+00 -0.00000000000E+00 -0.10265304994E+03  0.10265304998E+03  0.25500000000E-02 0. -1.
   -5000001    1    1    2    0    0 -0.12911022180E+03 -0.28684767419E+03  0.63269534809E+03  0.74950279590E+03  0.25000000000E+03 0.  0.
    5000001    1    1    2    0    0  0.12911022180E+03  0.28684767419E+03  0.86791732115E+03  0.95641597326E+03  0.25000000000E+03 0.  0.
<mgrwt>
<rscale>  0 0.81136950E+03</rscale>
<asrwt>0</asrwt>
<pdfrwt beam="1">  1        2 0.24665626E+00 0.81136950E+03</pdfrwt>
<pdfrwt beam="2">  1       -2 0.15792777E-01 0.81136950E+03</pdfrwt>
<totfact> 0.36032737E+02</totfact>
</mgrwt>
</event>
<event>
 4    1  0.1805887E-005  0.5890513E+03  0.7818608E-02  0.9928385E-01
         -2   -1    0    0    0  501 -0.00000000000E+00  0.00000000000E+00  0.34678204529E+02  0.34678204623E+02  0.25500000000E-02 0. -1.
          2   -1    0    0  501    0  0.00000000000E+00 -0.00000000000E+00 -0.25014376690E+04  0.25014376690E+04  0.25500000000E-02 0.  1.
   -5000001    1    1    2    0    0  0.11931467143E+03 -0.15937771644E+02 -0.16586232357E+04  0.16816720969E+04  0.25000000000E+03 0.  0.
    5000001    1    1    2    0    0 -0.11931467143E+03  0.15937771644E+02 -0.80813622874E+03  0.85444377673E+03  0.25000000000E+03 0.  0.
<mgrwt>
<rscale>  0 0.58905133E+03</rscale>
<asrwt>0</asrwt>
<pdfrwt beam="1">  1        2 0.38483642E+00 0.58905133E+03</pdfrwt>
<pdfrwt beam="2">  1       -2 0.53351104E-02 0.58905133E+03</pdfrwt>
<totfact> 0.68211696E+02</totfact>
</mgrwt>
</event>
<event>
 4    1  0.1805887E-005  0.1446023E+04  0.7818608E-02  0.8921162E-01
          2   -1    0    0  501    0  0.00000000000E+00  0.00000000000E+00  0.27489914299E+04  0.27489914299E+04  0.25500000000E-02 0. -1.
         -2   -1    0    0    0  501 -0.00000000000E+00 -0.00000000000E+00 -0.19015900465E+03  0.19015900467E+03  0.25500000000E-02 0.  1.
   -5000001    1    1    2    0    0  0.45195904621E+03  0.22898400338E+02  0.23067301182E+04  0.23639575196E+04  0.25000000000E+03 0.  0.
    5000001    1    1    2    0    0 -0.45195904621E+03 -0.22898400338E+02  0.25210230699E+03  0.57519291493E+03  0.25000000000E+03 0.  0.
<mgrwt>
<rscale>  0 0.14460228E+04</rscale>
<asrwt>0</asrwt>
<pdfrwt beam="1">  1        2 0.42292174E+00 0.14460228E+04</pdfrwt>
<pdfrwt beam="2">  1       -2 0.29255233E-01 0.14460228E+04</pdfrwt>
<totfact> 0.26017841E+01</totfact>
</mgrwt>
</event>
<event>
 4    1  0.1805887E-005  0.8898511E+03  0.7818608E-02  0.9438358E-01
          2   -1    0    0  501    0  0.00000000000E+00  0.00000000000E+00  0.15414546826E+04  0.15414546826E+04  0.25500000000E-02 0.  1.
         -2   -1    0    0    0  501 -0.00000000000E+00 -0.00000000000E+00 -0.12842333301E+03  0.12842333304E+03  0.25500000000E-02 0. -1.
   -5000001    1    1    2    0    0  0.35719770575E+03 -0.29393468981E+02  0.54945835779E+03  0.70203893336E+03  0.25000000000E+03 0.  0.
    5000001    1    1    2    0    0 -0.35719770575E+03  0.29393468981E+02  0.86357299179E+03  0.96783908227E+03  0.25000000000E+03 0.  0.
<mgrwt>
<rscale>  0 0.88985111E+03</rscale>
<asrwt>0</asrwt>
<pdfrwt beam="1">  1        2 0.23714688E+00 0.88985111E+03</pdfrwt>
<pdfrwt beam="2">  1       -2 0.19757435E-01 0.88985111E+03</pdfrwt>
<totfact> 0.26360636E+02</totfact>
</mgrwt>
</event>
<event>
 4    1  0.1805887E-005  0.8566179E+03  0.7818608E-02  0.9481497E-01
          2   -1    0    0  501    0  0.00000000000E+00  0.00000000000E+00  0.14795862802E+03  0.14795862805E+03  0.25500000000E-02 0.  1.
         -2   -1    0    0    0  501 -0.00000000000E+00 -0.00000000000E+00 -0.12398637760E+04  0.12398637760E+04  0.25500000000E-02 0. -1.
   -5000001    1    1    2    0    0 -0.33811363162E+03 -0.80568669232E+02 -0.52703080433E+03  0.67902401066E+03  0.25000000000E+03 0.  0.
    5000001    1    1    2    0    0  0.33811363162E+03  0.80568669232E+02 -0.56487434363E+03  0.70879839337E+03  0.25000000000E+03 0.  0.
<mgrwt>
<rscale>  0 0.85661787E+03</rscale>
<asrwt>0</asrwt>
<pdfrwt beam="1">  1        2 0.22762867E-01 0.85661787E+03</pdfrwt>
<pdfrwt beam="2">  1       -2 0.19074827E+00 0.85661787E+03</pdfrwt>
<totfact> 0.37754424E+01</totfact>
</mgrwt>
</event>
<event>
 4    1  0.1805887E-005  0.5249807E+03  0.7818608E-02  0.1007457E+00
          2   -1    0    0  501    0  0.00000000000E+00  0.00000000000E+00  0.90517817262E+03  0.90517817262E+03  0.25500000000E-02 0.  1.
         -2   -1    0    0    0  501 -0.00000000000E+00 -0.00000000000E+00 -0.76118904408E+02  0.76118904450E+02  0.25500000000E-02 0. -1.
   -5000001    1    1    2    0    0  0.36246434893E+02  0.69819120007E+02  0.44178784269E+03  0.51367792585E+03  0.25000000000E+03 0.  0.
    5000001    1    1    2    0    0 -0.36246434893E+02 -0.69819120007E+02  0.38727142552E+03  0.46761915122E+03  0.25000000000E+03 0.  0.
<mgrwt>
<rscale>  0 0.52498065E+03</rscale>
<asrwt>0</asrwt>
<pdfrwt beam="1">  1        2 0.13925818E+00 0.52498065E+03</pdfrwt>
<pdfrwt beam="2">  1       -2 0.11710601E-01 0.52498065E+03</pdfrwt>
<totfact> 0.15493261E+03</totfact>
</mgrwt>
</event>
<event>
 4    1  0.1805887E-005  0.8328561E+03  0.7818608E-02  0.9513640E-01
         -2   -1    0    0    0  501 -0.00000000000E+00  0.00000000000E+00  0.71802323597E+02  0.71802323642E+02  0.25500000000E-02 0. -1.
          2   -1    0    0  501    0  0.00000000000E+00 -0.00000000000E+00 -0.24151353061E+04  0.24151353061E+04  0.25500000000E-02 0.  1.
   -5000001    1    1    2    0    0  0.15689672219E+03  0.21700571117E+03 -0.58042952099E+03  0.68637197564E+03  0.25000000000E+03 0.  0.
    5000001    1    1    2    0    0 -0.15689672219E+03 -0.21700571117E+03 -0.17629034615E+04  0.18005656541E+04  0.25000000000E+03 0.  0.
<mgrwt>
<rscale>  0 0.83285611E+03</rscale>
<asrwt>0</asrwt>
<pdfrwt beam="1">  1        2 0.37155922E+00 0.83285611E+03</pdfrwt>
<pdfrwt beam="2">  1       -2 0.11046513E-01 0.83285611E+03</pdfrwt>
<totfact> 0.23354362E+02</totfact>
</mgrwt>
</event>
<event>
 4    1  0.1805887E-005  0.7678111E+03  0.7818608E-02  0.9607815E-01
          2   -1    0    0  501    0  0.00000000000E+00  0.00000000000E+00  0.68836459189E+03  0.68836459190E+03  0.25500000000E-02 0.  1.
         -2   -1    0    0    0  501 -0.00000000000E+00 -0.00000000000E+00 -0.21410671639E+03  0.21410671641E+03  0.25500000000E-02 0. -1.
   -5000001    1    1    2    0    0  0.28345195624E+03  0.52615105654E+02  0.28658056127E+03  0.47722298660E+03  0.25000000000E+03 0.  0.
    5000001    1    1    2    0    0 -0.28345195624E+03 -0.52615105654E+02  0.18767731423E+03  0.42524832171E+03  0.25000000000E+03 0.  0.
<mgrwt>
<rscale>  0 0.76781113E+03</rscale>
<asrwt>0</asrwt>
<pdfrwt beam="1">  1        2 0.10590225E+00 0.76781113E+03</pdfrwt>
<pdfrwt beam="2">  1       -2 0.32939494E-01 0.76781113E+03</pdfrwt>
<totfact> 0.36192948E+02</totfact>
</mgrwt>
</event>
<event>
 4    1  0.1805887E-005  0.7228275E+03  0.7818608E-02  0.9678971E-01
          2   -1    0    0  501    0  0.00000000000E+00  0.00000000000E+00  0.81060647207E+03  0.81060647207E+03  0.25500000000E-02 0.  1.
         -2   -1    0    0    0  501 -0.00000000000E+00 -0.00000000000E+00 -0.16113847491E+03  0.16113847493E+03  0.25500000000E-02 0. -1.
   -5000001    1    1    2    0    0 -0.25412490786E+02 -0.20337232963E+03  0.10748759094E+03  0.34067533130E+03  0.25000000000E+03 0.  0.
    5000001    1    1    2    0    0  0.25412490786E+02  0.20337232963E+03  0.54198040622E+03  0.63106961571E+03  0.25000000000E+03 0.  0.
<mgrwt>
<rscale>  0 0.72282748E+03</rscale>
<asrwt>0</asrwt>
<pdfrwt beam="1">  1        2 0.12470869E+00 0.72282748E+03</pdfrwt>
<pdfrwt beam="2">  1       -2 0.24790535E-01 0.72282748E+03</pdfrwt>
<totfact> 0.49540943E+02</totfact>
</mgrwt>
</event>
<event>
 4    1  0.1805887E-005  0.1162881E+04  0.7818608E-02  0.9145982E-01
         -2   -1    0    0    0  501 -0.00000000000E+00  0.00000000000E+00  0.10457404189E+03  0.10457404192E+03  0.25500000000E-02 0. -1.
          2   -1    0    0  501    0  0.00000000000E+00 -0.00000000000E+00 -0.32328594678E+04  0.32328594678E+04  0.25500000000E-02 0.  1.
   -5000001    1    1    2    0    0  0.39650280679E+03 -0.19055548761E+03 -0.23862139335E+04  0.24392709579E+04  0.25000000000E+03 0.  0.
    5000001    1    1    2    0    0 -0.39650280679E+03  0.19055548761E+03 -0.74207149244E+03  0.89816255185E+03  0.25000000000E+03 0.  0.
<mgrwt>
<rscale>  0 0.11628812E+04</rscale>
<asrwt>0</asrwt>
<pdfrwt beam="1">  1        2 0.49736292E+00 0.11628812E+04</pdfrwt>
<pdfrwt beam="2">  1       -2 0.16088317E-01 0.11628812E+04</pdfrwt>
<totfact> 0.38856151E+01</totfact>
</mgrwt>
</event>
<event>
 4    1  0.1805887E-005  0.6234950E+03  0.7818608E-02  0.9857826E-01
         -2   -1    0    0    0  501 -0.00000000000E+00  0.00000000000E+00  0.40481188496E+03  0.40481188497E+03  0.25500000000E-02 0. -1.
          2   -1    0    0  501    0  0.00000000000E+00 -0.00000000000E+00 -0.24007817852E+03  0.24007817853E+03  0.25500000000E-02 0.  1.
   -5000001    1    1    2    0    0 -0.70833013821E+02 -0.17158765607E+03  0.66788121754E+02  0.31846552839E+03  0.25000000000E+03 0.  0.
    5000001    1    1    2    0    0  0.70833013821E+02  0.17158765607E+03  0.97945584684E+02  0.32642453511E+03  0.25000000000E+03 0.  0.
<mgrwt>
<rscale>  0 0.62349499E+03</rscale>
<asrwt>0</asrwt>
<pdfrwt beam="1">  1        2 0.36935105E-01 0.62349499E+03</pdfrwt>
<pdfrwt beam="2">  1       -2 0.62278751E-01 0.62349499E+03</pdfrwt>
<totfact> 0.34030823E+02</totfact>
</mgrwt>
</event>
<event>
 4    1  0.1805887E-005  0.7796161E+03  0.7818608E-02  0.9590000E-01
         -2   -1    0    0    0  501 -0.00000000000E+00  0.00000000000E+00  0.19878948339E+03  0.19878948341E+03  0.25500000000E-02 0. -1.
          2   -1    0    0  501    0  0.00000000000E+00 -0.00000000000E+00 -0.76437811970E+03  0.76437811970E+03  0.25500000000E-02 0.  1.
   -5000001    1    1    2    0    0 -0.27348486444E+03 -0.14052076643E+02 -0.13423884196E+03  0.39434946257E+03  0.25000000000E+03 0.  0.
    5000001    1    1    2    0    0  0.27348486444E+03  0.14052076643E+02 -0.43134979434E+03  0.56881814055E+03  0.25000000000E+03 0.  0.
<mgrwt>
<rscale>  0 0.77961614E+03</rscale>
<asrwt>0</asrwt>
<pdfrwt beam="1">  1        2 0.11759663E+00 0.77961614E+03</pdfrwt>
<pdfrwt beam="2">  1       -2 0.30582998E-01 0.77961614E+03</pdfrwt>
<totfact> 0.36363185E+02</totfact>
</mgrwt>
</event>
<event>
 4    1  0.1805887E-005  0.1834894E+04  0.7818608E-02  0.8687960E-01
          2   -1    0    0  501    0  0.00000000000E+00  0.00000000000E+00  0.33537275799E+04  0.33537275799E+04  0.25500000000E-02 0.  1.
         -2   -1    0    0    0  501 -0.00000000000E+00 -0.00000000000E+00 -0.25097701680E+03  0.25097701681E+03  0.25500000000E-02 0. -1.
   -5000001    1    1    2    0    0 -0.54597095599E+03  0.55905099033E+03  0.74475360175E+03  0.11080524455E+04  0.25000000000E+03 0.  0.
    5000001    1    1    2    0    0  0.54597095599E+03 -0.55905099033E+03  0.23579969613E+04  0.24966521512E+04  0.25000000000E+03 0.  0.
<mgrwt>
<rscale>  0 0.18348935E+04</rscale>
<asrwt>0</asrwt>
<pdfrwt beam="1">  1        2 0.51595811E+00 0.18348935E+04</pdfrwt>
<pdfrwt beam="2">  1       -2 0.38611847E-01 0.18348935E+04</pdfrwt>
<totfact> 0.61537352E+00</totfact>
</mgrwt>
</event>
<event>
 4    1  0.1805887E-005  0.6851996E+03  0.7818608E-02  0.9742883E-01
         -2   -1    0    0    0  501 -0.00000000000E+00  0.00000000000E+00  0.32814864597E+03  0.32814864598E+03  0.25500000000E-02 0. -1.
          2   -1    0    0  501    0  0.00000000000E+00 -0.00000000000E+00 -0.35768734773E+03  0.35768734774E+03  0.25500000000E-02 0.  1.
   -5000001    1    1    2    0    0 -0.57991154462E+02 -0.11606742287E+03  0.18045025178E+03  0.33450996101E+03  0.25000000000E+03 0.  0.
    5000001    1    1    2    0    0  0.57991154462E+02  0.11606742287E+03 -0.20998895355E+03  0.35132603271E+03  0.25000000000E+03 0.  0.
<mgrwt>
<rscale>  0 0.68519959E+03</rscale>
<asrwt>0</asrwt>
<pdfrwt beam="1">  1        2 0.55028823E-01 0.68519959E+03</pdfrwt>
<pdfrwt beam="2">  1       -2 0.50484407E-01 0.68519959E+03</pdfrwt>
<totfact> 0.33774520E+02</totfact>
</mgrwt>
</event>
<event>
 4    1  0.1805887E-005  0.7403066E+03  0.7818608E-02  0.9650682E-01
          2   -1    0    0  501    0  0.00000000000E+00  0.00000000000E+00  0.12242088583E+04  0.12242088583E+04  0.25500000000E-02 0.  1.
         -2   -1    0    0    0  501 -0.00000000000E+00 -0.00000000000E+00 -0.11192002003E+03  0.11192002006E+03  0.25500000000E-02 0. -1.
   -5000001    1    1    2    0    0  0.19642653129E+03  0.15796821297E+03  0.36705747015E+03  0.51065499596E+03  0.25000000000E+03 0.  0.
    5000001    1    1    2    0    0 -0.19642653129E+03 -0.15796821297E+03  0.74523136808E+03  0.82547388237E+03  0.25000000000E+03 0.  0.
<mgrwt>
<rscale>  0 0.74030664E+03</rscale>
<asrwt>0</asrwt>
<pdfrwt beam="1">  1        2 0.18833982E+00 0.74030664E+03</pdfrwt>
<pdfrwt beam="2">  1       -2 0.17218465E-01 0.74030664E+03</pdfrwt>
<totfact> 0.51151239E+02</totfact>
</mgrwt>
</event>
<event>
 4    1  0.1805887E-005  0.1004105E+04  0.7818608E-02  0.9304054E-01
          2   -1    0    0  501    0  0.00000000000E+00  0.00000000000E+00  0.19586741578E+04  0.19586741578E+04  0.25500000000E-02 0.  1.
         -2   -1    0    0    0  501 -0.00000000000E+00 -0.00000000000E+00 -0.12868750756E+03  0.12868750759E+03  0.25500000000E-02 0. -1.
   -5000001    1    1    2    0    0 -0.33907683178E+03  0.26161515558E+03  0.75208290745E+03  0.90085752878E+03  0.25000000000E+03 0.  0.
    5000001    1    1    2    0    0  0.33907683178E+03 -0.26161515558E+03  0.10779037428E+04  0.11865041366E+04  0.25000000000E+03 0.  0.
<mgrwt>
<rscale>  0 0.10041054E+04</rscale>
<asrwt>0</asrwt>
<pdfrwt beam="1">  1        2 0.30133449E+00 0.10041054E+04</pdfrwt>
<pdfrwt beam="2">  1       -2 0.19798078E-01 0.10041054E+04</pdfrwt>
<totfact> 0.15347611E+02</totfact>
</mgrwt>
</event>
<event>
 4    1  0.1805887E-005  0.9487942E+03  0.7818608E-02  0.9366561E-01
         -2   -1    0    0    0  501 -0.00000000000E+00  0.00000000000E+00  0.28322466807E+03  0.28322466808E+03  0.25500000000E-02 0. -1.
          2   -1    0    0  501    0  0.00000000000E+00 -0.00000000000E+00 -0.79460803554E+03  0.79460803555E+03  0.25500000000E-02 0.  1.
   -5000001    1    1    2    0    0  0.17020518649E+03 -0.32547747697E+03 -0.44457993763E+03  0.62853537249E+03  0.25000000000E+03 0.  0.
    5000001    1    1    2    0    0 -0.17020518649E+03  0.32547747697E+03 -0.66803429844E+02  0.44929733113E+03  0.25000000000E+03 0.  0.
<mgrwt>
<rscale>  0 0.94879418E+03</rscale>
<asrwt>0</asrwt>
<pdfrwt beam="1">  1        2 0.12224739E+00 0.94879418E+03</pdfrwt>
<pdfrwt beam="2">  1       -2 0.43573026E-01 0.94879418E+03</pdfrwt>
<totfact> 0.17367397E+02</totfact>
</mgrwt>
</event>
<event>
 4    1  0.1805887E-005  0.5269707E+03  0.7818608E-02  0.1006969E+00
         -2   -1    0    0    0  501 -0.00000000000E+00  0.00000000000E+00  0.13797388821E+03  0.13797388823E+03  0.25500000000E-02 0. -1.
          2   -1    0    0  501    0  0.00000000000E+00 -0.00000000000E+00 -0.50317142199E+03  0.50317142200E+03  0.25500000000E-02 0.  1.
   -5000001    1    1    2    0    0 -0.20405494932E+02  0.80232560190E+02 -0.19284112663E+03  0.32640672183E+03  0.25000000000E+03 0.  0.
    5000001    1    1    2    0    0  0.20405494932E+02 -0.80232560190E+02 -0.17235640716E+03  0.31473858840E+03  0.25000000000E+03 0.  0.
<mgrwt>
<rscale>  0 0.52697065E+03</rscale>
<asrwt>0</asrwt>
<pdfrwt beam="1">  1        2 0.77410987E-01 0.52697065E+03</pdfrwt>
<pdfrwt beam="2">  1       -2 0.21226752E-01 0.52697065E+03</pdfrwt>
<totfact> 0.11760738E+03</totfact>
</mgrwt>
</event>
<event>
 4    1  0.1805887E-005  0.7307170E+03  0.7818608E-02  0.9666098E-01
         -2   -1    0    0    0  501 -0.00000000000E+00  0.00000000000E+00  0.16209157407E+03  0.16209157409E+03  0.25500000000E-02 0. -1.
          2   -1    0    0  501    0  0.00000000000E+00 -0.00000000000E+00 -0.82352736334E+03  0.82352736334E+03  0.25500000000E-02 0.  1.
   -5000001    1    1    2    0    0  0.21643956249E+03  0.91064883530E+02 -0.50052128008E+03  0.60676226731E+03  0.25000000000E+03 0.  0.
    5000001    1    1    2    0    0 -0.21643956249E+03 -0.91064883530E+02 -0.16091450919E+03  0.37885667012E+03  0.25000000000E+03 0.  0.
<mgrwt>
<rscale>  0 0.73071704E+03</rscale>
<asrwt>0</asrwt>
<pdfrwt beam="1">  1        2 0.12669651E+00 0.73071704E+03</pdfrwt>
<pdfrwt beam="2">  1       -2 0.24937166E-01 0.73071704E+03</pdfrwt>
<totfact> 0.47979866E+02</totfact>
</mgrwt>
</event>
<event>
 4    1  0.1805887E-005  0.7240904E+03  0.7818608E-02  0.9676899E-01
         -2   -1    0    0    0  501 -0.00000000000E+00  0.00000000000E+00  0.10602492066E+03  0.10602492069E+03  0.25500000000E-02 0. -1.
          2   -1    0    0  501    0  0.00000000000E+00 -0.00000000000E+00 -0.12362823874E+04  0.12362823874E+04  0.25500000000E-02 0.  1.
   -5000001    1    1    2    0    0 -0.22483945695E+03  0.34626128323E+02 -0.80558526124E+03  0.87362426894E+03  0.25000000000E+03 0.  0.
    5000001    1    1    2    0    0  0.22483945695E+03 -0.34626128323E+02 -0.32467220553E+03  0.46868303917E+03  0.25000000000E+03 0.  0.
<mgrwt>
<rscale>  0 0.72409044E+03</rscale>
<asrwt>0</asrwt>
<pdfrwt beam="1">  1        2 0.19019728E+00 0.72409044E+03</pdfrwt>
<pdfrwt beam="2">  1       -2 0.16311527E-01 0.72409044E+03</pdfrwt>
<totfact> 0.55249045E+02</totfact>
</mgrwt>
</event>
<event>
 4    1  0.1805887E-005  0.6348068E+03  0.7818608E-02  0.9835713E-01
          2   -1    0    0  501    0  0.00000000000E+00  0.00000000000E+00  0.20069662039E+04  0.20069662039E+04  0.25500000000E-02 0.  1.
         -2   -1    0    0    0  501 -0.00000000000E+00 -0.00000000000E+00 -0.50197621928E+02  0.50197621993E+02  0.25500000000E-02 0. -1.
   -5000001    1    1    2    0    0 -0.76206236253E+02 -0.17260395635E+03  0.81170787430E+03  0.87003976311E+03  0.25000000000E+03 0.  0.
    5000001    1    1    2    0    0  0.76206236253E+02  0.17260395635E+03  0.11450607077E+04  0.11871240628E+04  0.25000000000E+03 0.  0.
<mgrwt>
<rscale>  0 0.63480684E+03</rscale>
<asrwt>0</asrwt>
<pdfrwt beam="1">  1        2 0.30876404E+00 0.63480684E+03</pdfrwt>
<pdfrwt beam="2">  1       -2 0.77227108E-02 0.63480684E+03</pdfrwt>
<totfact> 0.71110589E+02</totfact>
</mgrwt>
</event>
<event>
 4    1  0.1805887E-005  0.8655487E+03  0.7818608E-02  0.9469702E-01
         -2   -1    0    0    0  501 -0.00000000000E+00  0.00000000000E+00  0.20318083169E+03  0.20318083171E+03  0.25500000000E-02 0.  1.
          2   -1    0    0  501    0  0.00000000000E+00 -0.00000000000E+00 -0.92180769417E+03  0.92180769418E+03  0.25500000000E-02 0. -1.
   -5000001    1    1    2    0    0 -0.11021412337E+03  0.31069635792E+03 -0.19432179094E+03  0.45709992151E+03  0.25000000000E+03 0.  0.
    5000001    1    1    2    0    0  0.11021412337E+03 -0.31069635792E+03 -0.52430507154E+03  0.66788860438E+03  0.25000000000E+03 0.  0.
<mgrwt>
<rscale>  0 0.86554874E+03</rscale>
<asrwt>0</asrwt>
<pdfrwt beam="1">  1        2 0.14181657E+00 0.86554874E+03</pdfrwt>
<pdfrwt beam="2">  1       -2 0.31258590E-01 0.86554874E+03</pdfrwt>
<totfact> 0.26979514E+02</totfact>
</mgrwt>
</event>
<event>
 4    1  0.1805887E-005  0.7380761E+03  0.7818608E-02  0.9654245E-01
         -2   -1    0    0    0  501 -0.00000000000E+00  0.00000000000E+00  0.15795524811E+03  0.15795524813E+03  0.25500000000E-02 0. -1.
          2   -1    0    0  501    0  0.00000000000E+00 -0.00000000000E+00 -0.86220033028E+03  0.86220033028E+03  0.25500000000E-02 0.  1.
   -5000001    1    1    2    0    0 -0.18707659812E+03 -0.24558477375E+02 -0.62187229372E+03  0.69629442197E+03  0.25000000000E+03 0.  0.
    5000001    1    1    2    0    0  0.18707659812E+03  0.24558477375E+02 -0.82372788442E+02  0.32386115644E+03  0.25000000000E+03 0.  0.
<mgrwt>
<rscale>  0 0.73807606E+03</rscale>
<asrwt>0</asrwt>
<pdfrwt beam="1">  1        2 0.13264620E+00 0.73807606E+03</pdfrwt>
<pdfrwt beam="2">  1       -2 0.24300808E-01 0.73807606E+03</pdfrwt>
<totfact> 0.47225714E+02</totfact>
</mgrwt>
</event>
<event>
 4    1  0.1805887E-005  0.6407551E+03  0.7818608E-02  0.9824283E-01
          2   -1    0    0  501    0  0.00000000000E+00  0.00000000000E+00  0.98767560306E+03  0.98767560307E+03  0.25500000000E-02 0.  1.
         -2   -1    0    0    0  501 -0.00000000000E+00 -0.00000000000E+00 -0.10392256235E+03  0.10392256238E+03  0.25500000000E-02 0. -1.
   -5000001    1    1    2    0    0  0.12291730765E+03  0.13392852064E+03  0.29836536278E+03  0.42961308507E+03  0.25000000000E+03 0.  0.
    5000001    1    1    2    0    0 -0.12291730765E+03 -0.13392852064E+03  0.58538767793E+03  0.66198508037E+03  0.25000000000E+03 0.  0.
<mgrwt>
<rscale>  0 0.64075512E+03</rscale>
<asrwt>0</asrwt>
<pdfrwt beam="1">  1        2 0.15195009E+00 0.64075512E+03</pdfrwt>
<pdfrwt beam="2">  1       -2 0.15988087E-01 0.64075512E+03</pdfrwt>
<totfact> 0.81259062E+02</totfact>
</mgrwt>
</event>
<event>
 4    1  0.1805887E-005  0.7528046E+03  0.7818608E-02  0.9630961E-01
         -2   -1    0    0    0  501 -0.00000000000E+00  0.00000000000E+00  0.61854004348E+03  0.61854004349E+03  0.25500000000E-02 0. -1.
          2   -1    0    0  501    0  0.00000000000E+00 -0.00000000000E+00 -0.22905341386E+03  0.22905341388E+03  0.25500000000E-02 0.  1.
   -5000001    1    1    2    0    0  0.12905809547E+03 -0.23362490803E+02  0.47504148793E+03  0.55259950528E+03  0.25000000000E+03 0.  0.
    5000001    1    1    2    0    0 -0.12905809547E+03  0.23362490803E+02 -0.85554858315E+02  0.29499395208E+03  0.25000000000E+03 0.  0.
<mgrwt>
<rscale>  0 0.75280465E+03</rscale>
<asrwt>0</asrwt>
<pdfrwt beam="1">  1        2 0.35238987E-01 0.75280465E+03</pdfrwt>
<pdfrwt beam="2">  1       -2 0.95160005E-01 0.75280465E+03</pdfrwt>
<totfact> 0.13901455E+02</totfact>
</mgrwt>
</event>
<event>
 4    1  0.1805887E-005  0.7289679E+03  0.7818608E-02  0.9668937E-01
          2   -1    0    0  501    0  0.00000000000E+00  0.00000000000E+00  0.54655765392E+03  0.54655765392E+03  0.25500000000E-02 0.  1.
         -2   -1    0    0    0  501 -0.00000000000E+00 -0.00000000000E+00 -0.24306412530E+03  0.24306412531E+03  0.25500000000E-02 0. -1.
   -5000001    1    1    2    0    0  0.20014764351E+03  0.54699710055E+02 -0.27219637289E+02  0.32602460971E+03  0.25000000000E+03 0.  0.
    5000001    1    1    2    0    0 -0.20014764351E+03 -0.54699710055E+02  0.33071316591E+03  0.46359716952E+03  0.25000000000E+03 0.  0.
<mgrwt>
<rscale>  0 0.72896792E+03</rscale>
<asrwt>0</asrwt>
<pdfrwt beam="1">  1        2 0.84085794E-01 0.72896792E+03</pdfrwt>
<pdfrwt beam="2">  1       -2 0.37394481E-01 0.72896792E+03</pdfrwt>
<totfact> 0.37670893E+02</totfact>
</mgrwt>
</event>
<event>
 4    1  0.1805887E-005  0.7473559E+03  0.7818608E-02  0.9639508E-01
         -2   -1    0    0    0  501 -0.00000000000E+00  0.00000000000E+00  0.95678545987E+02  0.95678546021E+02  0.25500000000E-02 0. -1.
          2   -1    0    0  501    0  0.00000000000E+00 -0.00000000000E+00 -0.14594201544E+04  0.14594201544E+04  0.25500000000E-02 0.  1.
   -5000001    1    1    2    0    0  0.53904299568E+02  0.24974826598E+03 -0.45530868096E+03  0.57886601630E+03  0.25000000000E+03 0.  0.
    5000001    1    1    2    0    0 -0.53904299568E+02 -0.24974826598E+03 -0.90843292747E+03  0.97623268413E+03  0.25000000000E+03 0.  0.
<mgrwt>
<rscale>  0 0.74735587E+03</rscale>
<asrwt>0</asrwt>
<pdfrwt beam="1">  1        2 0.22452616E+00 0.74735587E+03</pdfrwt>
<pdfrwt beam="2">  1       -2 0.14719777E-01 0.74735587E+03</pdfrwt>
<totfact> 0.48983833E+02</totfact>
</mgrwt>
</event>
<event>
 4    1  0.1805887E-005  0.6734015E+03  0.7818608E-02  0.9763832E-01
         -2   -1    0    0    0  501 -0.00000000000E+00  0.00000000000E+00  0.23616246340E+03  0.23616246342E+03  0.25500000000E-02 0. -1.
          2   -1    0    0  501    0  0.00000000000E+00 -0.00000000000E+00 -0.48003982682E+03  0.48003982683E+03  0.25500000000E-02 0.  1.
   -5000001    1    1    2    0    0  0.31692353107E+02 -0.13931292643E+03 -0.30754389327E+03  0.42130243650E+03  0.25000000000E+03 0.  0.
    5000001    1    1    2    0    0 -0.31692353107E+02  0.13931292643E+03  0.63666529849E+02  0.29489985374E+03  0.25000000000E+03 0.  0.
<mgrwt>
<rscale>  0 0.67340148E+03</rscale>
<asrwt>0</asrwt>
<pdfrwt beam="1">  1        2 0.73852281E-01 0.67340148E+03</pdfrwt>
<pdfrwt beam="2">  1       -2 0.36332687E-01 0.67340148E+03</pdfrwt>
<totfact> 0.46375842E+02</totfact>
</mgrwt>
</event>
<event>
 4    1  0.1805887E-005  0.6039602E+03  0.7818608E-02  0.9897224E-01
         -2   -1    0    0    0  501 -0.00000000000E+00  0.00000000000E+00  0.82526432621E+02  0.82526432660E+02  0.25500000000E-02 0. -1.
          2   -1    0    0  501    0  0.00000000000E+00 -0.00000000000E+00 -0.11050031433E+04  0.11050031433E+04  0.25500000000E-02 0.  1.
   -5000001    1    1    2    0    0 -0.97203456070E+02  0.12767920694E+03 -0.61787802239E+03  0.68558277568E+03  0.25000000000E+03 0.  0.
    5000001    1    1    2    0    0  0.97203456070E+02 -0.12767920694E+03 -0.40459868832E+03  0.50194680031E+03  0.25000000000E+03 0.  0.
<mgrwt>
<rscale>  0 0.60396016E+03</rscale>
<asrwt>0</asrwt>
<pdfrwt beam="1">  1        2 0.17000047E+00 0.60396016E+03</pdfrwt>
<pdfrwt beam="2">  1       -2 0.12696375E-01 0.60396016E+03</pdfrwt>
<totfact> 0.10124396E+03</totfact>
</mgrwt>
</event>
<event>
 4    1  0.1805887E-005  0.1582248E+04  0.7818608E-02  0.8831529E-01
          2   -1    0    0  501    0  0.00000000000E+00  0.00000000000E+00  0.22051004123E+04  0.22051004123E+04  0.25500000000E-02 0.  1.
         -2   -1    0    0    0  501 -0.00000000000E+00 -0.00000000000E+00 -0.28383158788E+03  0.28383158789E+03  0.25500000000E-02 0. -1.
   -5000001    1    1    2    0    0  0.67414499580E+03  0.32169422551E+03  0.84484253849E+03  0.11550833584E+04  0.25000000000E+03 0.  0.
    5000001    1    1    2    0    0 -0.67414499580E+03 -0.32169422551E+03  0.10764262860E+04  0.13338486418E+04  0.25000000000E+03 0.  0.
<mgrwt>
<rscale>  0 0.15822480E+04</rscale>
<asrwt>0</asrwt>
<pdfrwt beam="1">  1        2 0.33924621E+00 0.15822480E+04</pdfrwt>
<pdfrwt beam="2">  1       -2 0.43666399E-01 0.15822480E+04</pdfrwt>
<totfact> 0.24517383E+01</totfact>
</mgrwt>
</event>
<event>
 4    1  0.1805887E-005  0.1273058E+04  0.7818608E-02  0.9051208E-01
          2   -1    0    0  501    0  0.00000000000E+00  0.00000000000E+00  0.13294800630E+04  0.13294800630E+04  0.25500000000E-02 0.  1.
         -2   -1    0    0    0  501 -0.00000000000E+00 -0.00000000000E+00 -0.30475750485E+03  0.30475750486E+03  0.25500000000E-02 0. -1.
   -5000001    1    1    2    0    0 -0.12693342671E+03 -0.46431129199E+03  0.93999672475E+03  0.10852607582E+04  0.25000000000E+03 0.  0.
    5000001    1    1    2    0    0  0.12693342671E+03  0.46431129199E+03  0.84725833355E+02  0.54897680964E+03  0.25000000000E+03 0.  0.
<mgrwt>
<rscale>  0 0.12730578E+04</rscale>
<asrwt>0</asrwt>
<pdfrwt beam="1">  1        2 0.20453539E+00 0.12730578E+04</pdfrwt>
<pdfrwt beam="2">  1       -2 0.46885771E-01 0.12730578E+04</pdfrwt>
<totfact> 0.67264191E+01</totfact>
</mgrwt>
</event>
<event>
 4    1  0.1805887E-005  0.1296546E+04  0.7818608E-02  0.9032309E-01
         -2   -1    0    0    0  501 -0.00000000000E+00  0.00000000000E+00  0.29126420004E+03  0.29126420006E+03  0.25500000000E-02 0. -1.
          2   -1    0    0  501    0  0.00000000000E+00 -0.00000000000E+00 -0.14428750740E+04  0.14428750740E+04  0.25500000000E-02 0.  1.
   -5000001    1    1    2    0    0  0.43116722985E+03 -0.40285885296E+03 -0.70656286373E+03  0.95390330532E+03  0.25000000000E+03 0.  0.
    5000001    1    1    2    0    0 -0.43116722985E+03  0.40285885296E+03 -0.44504801023E+03  0.78023596874E+03  0.25000000000E+03 0.  0.
<mgrwt>
<rscale>  0 0.12965460E+04</rscale>
<asrwt>0</asrwt>
<pdfrwt beam="1">  1        2 0.22198078E+00 0.12965460E+04</pdfrwt>
<pdfrwt beam="2">  1       -2 0.44809878E-01 0.12965460E+04</pdfrwt>
<totfact> 0.63308406E+01</totfact>
</mgrwt>
</event>
<event>
 4    1  0.1805887E-005  0.8282870E+03  0.7818608E-02  0.9519952E-01
         -2   -1    0    0    0  501 -0.00000000000E+00  0.00000000000E+00  0.15844398673E+03  0.15844398675E+03  0.25500000000E-02 0. -1.
          2   -1    0    0  501    0  0.00000000000E+00 -0.00000000000E+00 -0.10824951193E+04  0.10824951193E+04  0.25500000000E-02 0.  1.
   -5000001    1    1    2    0    0 -0.12109920939E+03  0.23133706357E+03 -0.15928180988E+03  0.39503487245E+03  0.25000000000E+03 0.  0.
    5000001    1    1    2    0    0  0.12109920939E+03 -0.23133706357E+03 -0.76476932266E+03  0.84590423357E+03  0.25000000000E+03 0.  0.
<mgrwt>
<rscale>  0 0.82828701E+03</rscale>
<asrwt>0</asrwt>
<pdfrwt beam="1">  1        2 0.16653771E+00 0.82828701E+03</pdfrwt>
<pdfrwt beam="2">  1       -2 0.24375999E-01 0.82828701E+03</pdfrwt>
<totfact> 0.33654379E+02</totfact>
</mgrwt>
</event>
<event>
 4    1  0.1805887E-005  0.1106210E+04  0.7818608E-02  0.9199161E-01
          2   -1    0    0  501    0  0.00000000000E+00  0.00000000000E+00  0.14519203915E+04  0.14519203915E+04  0.25500000000E-02 0.  1.
         -2   -1    0    0    0  501 -0.00000000000E+00 -0.00000000000E+00 -0.21070368955E+03  0.21070368957E+03  0.25500000000E-02 0. -1.
   -5000001    1    1    2    0    0  0.39969395145E+03 -0.68380382791E+02  0.19817981916E+03  0.51595190890E+03  0.25000000000E+03 0.  0.
    5000001    1    1    2    0    0 -0.39969395145E+03  0.68380382791E+02  0.10430368828E+04  0.11466721722E+04  0.25000000000E+03 0.  0.
<mgrwt>
<rscale>  0 0.11062097E+04</rscale>
<asrwt>0</asrwt>
<pdfrwt beam="1">  1        2 0.22337237E+00 0.11062097E+04</pdfrwt>
<pdfrwt beam="2">  1       -2 0.32415952E-01 0.11062097E+04</pdfrwt>
<totfact> 0.11882181E+02</totfact>
</mgrwt>
</event>
<event>
 4    1  0.1805887E-005  0.6442773E+03  0.7818608E-02  0.9817577E-01
          2   -1    0    0  501    0  0.00000000000E+00  0.00000000000E+00  0.26638008793E+04  0.26638008793E+04  0.25500000000E-02 0.  1.
         -2   -1    0    0    0  501 -0.00000000000E+00 -0.00000000000E+00 -0.38956859176E+02  0.38956859259E+02  0.25500000000E-02 0. -1.
   -5000001    1    1    2    0    0  0.49204167009E+02 -0.18054125479E+03  0.16442565259E+04  0.16736474294E+04  0.25000000000E+03 0.  0.
    5000001    1    1    2    0    0 -0.49204167009E+02  0.18054125479E+03  0.98058749417E+03  0.10291103092E+04  0.25000000000E+03 0.  0.
<mgrwt>
<rscale>  0 0.64427732E+03</rscale>
<asrwt>0</asrwt>
<pdfrwt beam="1">  1        2 0.40981577E+00 0.64427732E+03</pdfrwt>
<pdfrwt beam="2">  1       -2 0.59933593E-02 0.64427732E+03</pdfrwt>
<totfact> 0.45734067E+02</totfact>
</mgrwt>
</event>
<event>
 4    1  0.1805887E-005  0.7976699E+03  0.7818608E-02  0.9563396E-01
          2   -1    0    0  501    0  0.00000000000E+00  0.00000000000E+00  0.15632646353E+03  0.15632646355E+03  0.25500000000E-02 0.  1.
         -2   -1    0    0    0  501 -0.00000000000E+00 -0.00000000000E+00 -0.10175456315E+04  0.10175456315E+04  0.25500000000E-02 0. -1.
   -5000001    1    1    2    0    0  0.21856613439E+03  0.19336506349E+03 -0.27342701561E+03  0.47161799769E+03  0.25000000000E+03 0.  0.
    5000001    1    1    2    0    0 -0.21856613439E+03 -0.19336506349E+03 -0.58779215238E+03  0.70225409738E+03  0.25000000000E+03 0.  0.
<mgrwt>
<rscale>  0 0.79766988E+03</rscale>
<asrwt>0</asrwt>
<pdfrwt beam="1">  1        2 0.24050226E-01 0.79766988E+03</pdfrwt>
<pdfrwt beam="2">  1       -2 0.15654548E+00 0.79766988E+03</pdfrwt>
<totfact> 0.61799885E+01</totfact>
</mgrwt>
</event>
<event>
 4    1  0.1805887E-005  0.6597460E+03  0.7818608E-02  0.9788661E-01
          2   -1    0    0  501    0  0.00000000000E+00  0.00000000000E+00  0.17953900306E+04  0.17953900306E+04  0.25500000000E-02 0.  1.
         -2   -1    0    0    0  501 -0.00000000000E+00 -0.00000000000E+00 -0.60608671461E+02  0.60608671514E+02  0.25500000000E-02 0. -1.
   -5000001    1    1    2    0    0  0.21039328186E+03 -0.40977585471E+02  0.81315283506E+03  0.87730384060E+03  0.25000000000E+03 0.  0.
    5000001    1    1    2    0    0 -0.21039328186E+03  0.40977585471E+02  0.92162852409E+03  0.97869486153E+03  0.25000000000E+03 0.  0.
<mgrwt>
<rscale>  0 0.65974603E+03</rscale>
<asrwt>0</asrwt>
<pdfrwt beam="1">  1        2 0.27621384E+00 0.65974603E+03</pdfrwt>
<pdfrwt beam="2">  1       -2 0.93244112E-02 0.65974603E+03</pdfrwt>
<totfact> 0.68349407E+02</totfact>
</mgrwt>
</event>
<event>
 4    1  0.1805887E-005  0.7695679E+03  0.7818608E-02  0.9605142E-01
          2   -1    0    0  501    0  0.00000000000E+00  0.00000000000E+00  0.15764237689E+03  0.15764237691E+03  0.25500000000E-02 0.  1.
         -2   -1    0    0    0  501 -0.00000000000E+00 -0.00000000000E+00 -0.93920621810E+03  0.93920621811E+03  0.25500000000E-02 0. -1.
   -5000001    1    1    2    0    0  0.59977869963E+02  0.15601247895E+03 -0.73291247252E+03  0.79221078688E+03  0.25000000000E+03 0.  0.
    5000001    1    1    2    0    0 -0.59977869963E+02 -0.15601247895E+03 -0.48651368698E+02  0.30463780814E+03  0.25000000000E+03 0.  0.
<mgrwt>
<rscale>  0 0.76956793E+03</rscale>
<asrwt>0</asrwt>
<pdfrwt beam="1">  1        2 0.24252674E-01 0.76956793E+03</pdfrwt>
<pdfrwt beam="2">  1       -2 0.14449326E+00 0.76956793E+03</pdfrwt>
<totfact> 0.75772227E+01</totfact>
</mgrwt>
</event>
<event>
 4    1  0.1805887E-005  0.6677656E+03  0.7818608E-02  0.9774003E-01
         -2   -1    0    0    0  501 -0.00000000000E+00  0.00000000000E+00  0.20460033636E+03  0.20460033637E+03  0.25500000000E-02 0. -1.
          2   -1    0    0  501    0  0.00000000000E+00 -0.00000000000E+00 -0.54485608903E+03  0.54485608904E+03  0.25500000000E-02 0.  1.
   -5000001    1    1    2    0    0 -0.13378746281E+03 -0.17628724471E+03 -0.17148457271E+03  0.37534415745E+03  0.25000000000E+03 0.  0.
    5000001    1    1    2    0    0  0.13378746281E+03  0.17628724471E+03 -0.16877117997E+03  0.37411226796E+03  0.25000000000E+03 0.  0.
<mgrwt>
<rscale>  0 0.66776564E+03</rscale>
<asrwt>0</asrwt>
<pdfrwt beam="1">  1        2 0.83824013E-01 0.66776564E+03</pdfrwt>
<pdfrwt beam="2">  1       -2 0.31476975E-01 0.66776564E+03</pdfrwt>
<totfact> 0.52499246E+02</totfact>
</mgrwt>
</event>
<event>
 4    1  0.1805887E-005  0.8020980E+03  0.7818608E-02  0.9556985E-01
          2   -1    0    0  501    0  0.00000000000E+00  0.00000000000E+00  0.15585801278E+04  0.15585801278E+04  0.25500000000E-02 0.  1.
         -2   -1    0    0    0  501 -0.00000000000E+00 -0.00000000000E+00 -0.10319667939E+03  0.10319667943E+03  0.25500000000E-02 0. -1.
   -5000001    1    1    2    0    0 -0.23832095434E+03  0.31344335464E+02  0.31043886298E+03  0.46545851833E+03  0.25000000000E+03 0.  0.
    5000001    1    1    2    0    0  0.23832095434E+03 -0.31344335464E+02  0.11449445854E+04  0.11963182889E+04  0.25000000000E+03 0.  0.
<mgrwt>
<rscale>  0 0.80209798E+03</rscale>
<asrwt>0</asrwt>
<pdfrwt beam="1">  1        2 0.23978154E+00 0.80209798E+03</pdfrwt>
<pdfrwt beam="2">  1       -2 0.15876414E-01 0.80209798E+03</pdfrwt>
<totfact> 0.37823355E+02</totfact>
</mgrwt>
</event>
<event>
 4    1  0.1805887E-005  0.6518050E+03  0.7818608E-02  0.9803398E-01
         -2   -1    0    0    0  501 -0.00000000000E+00  0.00000000000E+00  0.38921255435E+03  0.38921255436E+03  0.25500000000E-02 0. -1.
          2   -1    0    0  501    0  0.00000000000E+00 -0.00000000000E+00 -0.27289060412E+03  0.27289060413E+03  0.25500000000E-02 0.  1.
   -5000001    1    1    2    0    0  0.80235068444E+02 -0.12451501900E+03 -0.91719505119E+02  0.30471974630E+03  0.25000000000E+03 0.  0.
    5000001    1    1    2    0    0 -0.80235068444E+02  0.12451501900E+03  0.20804145535E+03  0.35738341219E+03  0.25000000000E+03 0.  0.
<mgrwt>
<rscale>  0 0.65180503E+03</rscale>
<asrwt>0</asrwt>
<pdfrwt beam="1">  1        2 0.41983170E-01 0.65180503E+03</pdfrwt>
<pdfrwt beam="2">  1       -2 0.59878854E-01 0.65180503E+03</pdfrwt>
<totfact> 0.32055942E+02</totfact>
</mgrwt>
</event>
<event>
 4    1  0.1805887E-005  0.7146820E+03  0.7818608E-02  0.9692448E-01
          2   -1    0    0  501    0  0.00000000000E+00  0.00000000000E+00  0.20729743458E+04  0.20729743458E+04  0.25500000000E-02 0.  1.
         -2   -1    0    0    0  501 -0.00000000000E+00 -0.00000000000E+00 -0.61598724590E+02  0.61598724643E+02  0.25500000000E-02 0. -1.
   -5000001    1    1    2    0    0  0.60738257493E+02  0.24638688233E+03  0.92137139188E+03  0.98783646090E+03  0.25000000000E+03 0.  0.
    5000001    1    1    2    0    0 -0.60738257493E+02 -0.24638688233E+03  0.10900042293E+04  0.11467366095E+04  0.25000000000E+03 0.  0.
<mgrwt>
<rscale>  0 0.71468196E+03</rscale>
<asrwt>0</asrwt>
<pdfrwt beam="1">  1        2 0.31891908E+00 0.71468196E+03</pdfrwt>
<pdfrwt beam="2">  1       -2 0.94767284E-02 0.71468196E+03</pdfrwt>
<totfact> 0.46851638E+02</totfact>
</mgrwt>
</event>
<event>
 4    1  0.1805887E-005  0.6144108E+03  0.7818608E-02  0.9875951E-01
          2   -1    0    0  501    0  0.00000000000E+00  0.00000000000E+00  0.13441826838E+04  0.13441826838E+04  0.25500000000E-02 0.  1.
         -2   -1    0    0    0  501 -0.00000000000E+00 -0.00000000000E+00 -0.70210064837E+02  0.70210064883E+02  0.25500000000E-02 0. -1.
   -5000001    1    1    2    0    0  0.10832736281E+03 -0.13837111981E+03  0.56441684282E+03  0.64183156419E+03  0.25000000000E+03 0.  0.
    5000001    1    1    2    0    0 -0.10832736281E+03  0.13837111981E+03  0.70955577615E+03  0.77256118450E+03  0.25000000000E+03 0.  0.
<mgrwt>
<rscale>  0 0.61441079E+03</rscale>
<asrwt>0</asrwt>
<pdfrwt beam="1">  1        2 0.20679733E+00 0.61441079E+03</pdfrwt>
<pdfrwt beam="2">  1       -2 0.10801549E-01 0.61441079E+03</pdfrwt>
<totfact> 0.95678093E+02</totfact>
</mgrwt>
</event>
<event>
 4    1  0.1805887E-005  0.6832726E+03  0.7818608E-02  0.9746274E-01
         -2   -1    0    0    0  501 -0.00000000000E+00  0.00000000000E+00  0.99288649713E+02  0.99288649746E+02  0.25500000000E-02 0. -1.
          2   -1    0    0  501    0  0.00000000000E+00 -0.00000000000E+00 -0.11755157051E+04  0.11755157051E+04  0.25500000000E-02 0.  1.
   -5000001    1    1    2    0    0  0.52192676922E+02 -0.17471580367E+03 -0.26796413594E+03  0.40933417366E+03  0.25000000000E+03 0.  0.
    5000001    1    1    2    0    0 -0.52192676922E+02  0.17471580367E+03 -0.80826291948E+03  0.86547018122E+03  0.25000000000E+03 0.  0.
<mgrwt>
<rscale>  0 0.68327262E+03</rscale>
<asrwt>0</asrwt>
<pdfrwt beam="1">  1        2 0.18084856E+00 0.68327262E+03</pdfrwt>
<pdfrwt beam="2">  1       -2 0.15275178E-01 0.68327262E+03</pdfrwt>
<totfact> 0.67199019E+02</totfact>
</mgrwt>
</event>
<event>
 4    1  0.1805887E-005  0.6441210E+03  0.7818608E-02  0.9817874E-01
          2   -1    0    0  501    0  0.00000000000E+00  0.00000000000E+00  0.17384177990E+03  0.17384177992E+03  0.25500000000E-02 0.  1.
         -2   -1    0    0    0  501 -0.00000000000E+00 -0.00000000000E+00 -0.59665152163E+03  0.59665152163E+03  0.25500000000E-02 0. -1.
   -5000001    1    1    2    0    0 -0.76485488239E+01  0.19982368941E+03 -0.16936832278E+03  0.36217901086E+03  0.25000000000E+03 0.  0.
    5000001    1    1    2    0    0  0.76485488239E+01 -0.19982368941E+03 -0.25344141894E+03  0.40831429069E+03  0.25000000000E+03 0.  0.
<mgrwt>
<rscale>  0 0.64412099E+03</rscale>
<asrwt>0</asrwt>
<pdfrwt beam="1">  1        2 0.26744889E-01 0.64412099E+03</pdfrwt>
<pdfrwt beam="2">  1       -2 0.91792541E-01 0.64412099E+03</pdfrwt>
<totfact> 0.20706883E+02</totfact>
</mgrwt>
</event>
<event>
 4    1  0.1805887E-005  0.1022018E+04  0.7818608E-02  0.9284720E-01
          2   -1    0    0  501    0  0.00000000000E+00  0.00000000000E+00  0.13593405958E+04  0.13593405959E+04  0.25500000000E-02 0.  1.
         -2   -1    0    0    0  501 -0.00000000000E+00 -0.00000000000E+00 -0.19210080075E+03  0.19210080076E+03  0.25500000000E-02 0. -1.
   -5000001    1    1    2    0    0  0.11691653913E+03 -0.39800446193E+03  0.83098396896E+03  0.96182710790E+03  0.25000000000E+03 0.  0.
    5000001    1    1    2    0    0 -0.11691653913E+03  0.39800446193E+03  0.33625582615E+03  0.58961428871E+03  0.25000000000E+03 0.  0.
<mgrwt>
<rscale>  0 0.10220184E+04</rscale>
<asrwt>0</asrwt>
<pdfrwt beam="1">  1        2 0.20912931E+00 0.10220184E+04</pdfrwt>
<pdfrwt beam="2">  1       -2 0.29553971E-01 0.10220184E+04</pdfrwt>
<totfact> 0.16039075E+02</totfact>
</mgrwt>
</event>
<event>
 4    1  0.1805887E-005  0.6333743E+03  0.7818608E-02  0.9838486E-01
          2   -1    0    0  501    0  0.00000000000E+00  0.00000000000E+00  0.22962094504E+04  0.22962094504E+04  0.25500000000E-02 0.  1.
         -2   -1    0    0    0  501 -0.00000000000E+00 -0.00000000000E+00 -0.43676657925E+02  0.43676657999E+02  0.25500000000E-02 0. -1.
   -5000001    1    1    2    0    0 -0.89320947258E+02 -0.84145943475E+01  0.17633806150E+04  0.17832723377E+04  0.25000000000E+03 0.  0.
    5000001    1    1    2    0    0  0.89320947258E+02  0.84145943475E+01  0.48915217750E+03  0.55661377073E+03  0.25000000000E+03 0.  0.
<mgrwt>
<rscale>  0 0.63337431E+03</rscale>
<asrwt>0</asrwt>
<pdfrwt beam="1">  1        2 0.35326297E+00 0.63337431E+03</pdfrwt>
<pdfrwt beam="2">  1       -2 0.67194864E-02 0.63337431E+03</pdfrwt>
<totfact> 0.61603806E+02</totfact>
</mgrwt>
</event>
<event>
 4    1  0.1805887E-005  0.7408655E+03  0.7818608E-02  0.9649791E-01
         -2   -1    0    0    0  501 -0.00000000000E+00  0.00000000000E+00  0.49536771792E+02  0.49536771857E+02  0.25500000000E-02 0. -1.
          2   -1    0    0  501    0  0.00000000000E+00 -0.00000000000E+00 -0.27700722932E+04  0.27700722932E+04  0.25500000000E-02 0.  1.
   -5000001    1    1    2    0    0 -0.10310427600E+03 -0.25111804377E+03 -0.14823913859E+04  0.15276370592E+04  0.25000000000E+03 0.  0.
    5000001    1    1    2    0    0  0.10310427600E+03  0.25111804377E+03 -0.12381441355E+04  0.12919720059E+04  0.25000000000E+03 0.  0.
<mgrwt>
<rscale>  0 0.74086555E+03</rscale>
<asrwt>0</asrwt>
<pdfrwt beam="1">  1        2 0.42616485E+00 0.74086555E+03</pdfrwt>
<pdfrwt beam="2">  1       -2 0.76210440E-02 0.74086555E+03</pdfrwt>
<totfact> 0.26860750E+02</totfact>
</mgrwt>
</event>
<event>
 4    1  0.1805887E-005  0.7159178E+03  0.7818608E-02  0.9690391E-01
          2   -1    0    0  501    0  0.00000000000E+00  0.00000000000E+00  0.68076509898E+03  0.68076509898E+03  0.25500000000E-02 0.  1.
         -2   -1    0    0    0  501 -0.00000000000E+00 -0.00000000000E+00 -0.18822139605E+03  0.18822139607E+03  0.25500000000E-02 0. -1.
   -5000001    1    1    2    0    0  0.13801982472E+03 -0.11366315101E+03  0.23559556571E+02  0.30825936582E+03  0.25000000000E+03 0.  0.
    5000001    1    1    2    0    0 -0.13801982472E+03  0.11366315101E+03  0.46898414636E+03  0.56072712922E+03  0.25000000000E+03 0.  0.
<mgrwt>
<rscale>  0 0.71591775E+03</rscale>
<asrwt>0</asrwt>
<pdfrwt beam="1">  1        2 0.10473309E+00 0.71591775E+03</pdfrwt>
<pdfrwt beam="2">  1       -2 0.28957138E-01 0.71591775E+03</pdfrwt>
<totfact> 0.46748004E+02</totfact>
</mgrwt>
</event>
<event>
 4    1  0.1805887E-005  0.9453512E+03  0.7818608E-02  0.9370601E-01
          2   -1    0    0  501    0  0.00000000000E+00  0.00000000000E+00  0.19141001882E+04  0.19141001882E+04  0.25500000000E-02 0.  1.
         -2   -1    0    0    0  501 -0.00000000000E+00 -0.00000000000E+00 -0.11672440605E+03  0.11672440607E+03  0.25500000000E-02 0. -1.
   -5000001    1    1    2    0    0 -0.39713026777E+03  0.48224964575E+02  0.83481264257E+03  0.95887968222E+03  0.25000000000E+03 0.  0.
    5000001    1    1    2    0    0  0.39713026777E+03 -0.48224964575E+02  0.96256313955E+03  0.10719449120E+04  0.25000000000E+03 0.  0.
<mgrwt>
<rscale>  0 0.94535117E+03</rscale>
<asrwt>0</asrwt>
<pdfrwt beam="1">  1        2 0.29447693E+00 0.94535117E+03</pdfrwt>
<pdfrwt beam="2">  1       -2 0.17957602E-01 0.94535117E+03</pdfrwt>
<totfact> 0.19331259E+02</totfact>
</mgrwt>
</event>
<event>
 4    1  0.1805887E-005  0.1052937E+04  0.7818608E-02  0.9252317E-01
         -2   -1    0    0    0  501 -0.00000000000E+00  0.00000000000E+00  0.12194505101E+03  0.12194505104E+03  0.25500000000E-02 0.  1.
          2   -1    0    0  501    0  0.00000000000E+00 -0.00000000000E+00 -0.22729012904E+04  0.22729012904E+04  0.25500000000E-02 0. -1.
   -5000001    1    1    2    0    0  0.55286286673E+02  0.38668793789E+03 -0.16421979046E+04  0.17064284611E+04  0.25000000000E+03 0.  0.
    5000001    1    1    2    0    0 -0.55286286673E+02 -0.38668793789E+03 -0.50875833476E+03  0.68841788036E+03  0.25000000000E+03 0.  0.
<mgrwt>
<rscale>  0 0.10529370E+04</rscale>
<asrwt>0</asrwt>
<pdfrwt beam="1">  1        2 0.34967709E+00 0.10529370E+04</pdfrwt>
<pdfrwt beam="2">  1       -2 0.18760779E-01 0.10529370E+04</pdfrwt>
<totfact> 0.11251467E+02</totfact>
</mgrwt>
</event>
<event>
 4    1  0.1805887E-005  0.1041443E+04  0.7818608E-02  0.9264224E-01
         -2   -1    0    0    0  501 -0.00000000000E+00  0.00000000000E+00  0.38463743719E+03  0.38463743720E+03  0.25500000000E-02 0. -1.
          2   -1    0    0  501    0  0.00000000000E+00 -0.00000000000E+00 -0.70495154721E+03  0.70495154721E+03  0.25500000000E-02 0.  1.
   -5000001    1    1    2    0    0 -0.40208802048E+03  0.48851762171E+02  0.60767266109E+02  0.47984782120E+03  0.25000000000E+03 0.  0.
    5000001    1    1    2    0    0  0.40208802048E+03 -0.48851762171E+02 -0.38108137612E+03  0.60974116321E+03  0.25000000000E+03 0.  0.
<mgrwt>
<rscale>  0 0.10414428E+04</rscale>
<asrwt>0</asrwt>
<pdfrwt beam="1">  1        2 0.10845408E+00 0.10414428E+04</pdfrwt>
<pdfrwt beam="2">  1       -2 0.59174990E-01 0.10414428E+04</pdfrwt>
<totfact> 0.10793269E+02</totfact>
</mgrwt>
</event>
<event>
 4    1  0.1805887E-005  0.6637461E+03  0.7818608E-02  0.9781322E-01
         -2   -1    0    0    0  501 -0.00000000000E+00  0.00000000000E+00  0.11697897813E+03  0.11697897816E+03  0.25500000000E-02 0. -1.
          2   -1    0    0  501    0  0.00000000000E+00 -0.00000000000E+00 -0.94153440821E+03  0.94153440822E+03  0.25500000000E-02 0.  1.
   -5000001    1    1    2    0    0  0.48026093517E+02 -0.21020346073E+03 -0.35825024002E+03  0.48717064263E+03  0.25000000000E+03 0.  0.
    5000001    1    1    2    0    0 -0.48026093517E+02  0.21020346073E+03 -0.46630519006E+03  0.57134274375E+03  0.25000000000E+03 0.  0.
<mgrwt>
<rscale>  0 0.66374614E+03</rscale>
<asrwt>0</asrwt>
<pdfrwt beam="1">  1        2 0.14485144E+00 0.66374614E+03</pdfrwt>
<pdfrwt beam="2">  1       -2 0.17996766E-01 0.66374614E+03</pdfrwt>
<totfact> 0.71032448E+02</totfact>
</mgrwt>
</event>
<event>
 4    1  0.1805887E-005  0.8556045E+03  0.7818608E-02  0.9482845E-01
         -2   -1    0    0    0  501 -0.00000000000E+00  0.00000000000E+00  0.13892329598E+04  0.13892329598E+04  0.25500000000E-02 0. -1.
          2   -1    0    0  501    0  0.00000000000E+00 -0.00000000000E+00 -0.13173800411E+03  0.13173800414E+03  0.25500000000E-02 0.  1.
   -5000001    1    1    2    0    0 -0.36348672518E+01 -0.33607763201E+03  0.78324403807E+03  0.88821878508E+03  0.25000000000E+03 0.  0.
    5000001    1    1    2    0    0  0.36348672518E+01  0.33607763201E+03  0.47425091761E+03  0.63275217886E+03  0.25000000000E+03 0.  0.
<mgrwt>
<rscale>  0 0.85560453E+03</rscale>
<asrwt>0</asrwt>
<pdfrwt beam="1">  1        2 0.20267386E-01 0.85560453E+03</pdfrwt>
<pdfrwt beam="2">  1       -2 0.21372814E+00 0.85560453E+03</pdfrwt>
<totfact> 0.30680897E+01</totfact>
</mgrwt>
</event>
<event>
 4    1  0.1805887E-005  0.9011974E+03  0.7818608E-02  0.9424086E-01
          2   -1    0    0  501    0  0.00000000000E+00  0.00000000000E+00  0.50811392583E+03  0.50811392584E+03  0.25500000000E-02 0. -1.
         -2   -1    0    0    0  501 -0.00000000000E+00 -0.00000000000E+00 -0.39959384450E+03  0.39959384451E+03  0.25500000000E-02 0.  1.
   -5000001    1    1    2    0    0  0.41938814531E+02  0.36978479045E+03  0.99747575847E+02  0.45929210128E+03  0.25000000000E+03 0.  0.
    5000001    1    1    2    0    0 -0.41938814531E+02 -0.36978479045E+03  0.87725054884E+01  0.44841566907E+03  0.25000000000E+03 0.  0.
<mgrwt>
<rscale>  0 0.90119742E+03</rscale>
<asrwt>0</asrwt>
<pdfrwt beam="1">  1        2 0.78171373E-01 0.90119742E+03</pdfrwt>
<pdfrwt beam="2">  1       -2 0.61475976E-01 0.90119742E+03</pdfrwt>
<totfact> 0.14922747E+02</totfact>
</mgrwt>
</event>
<event>
 4    1  0.1805887E-005  0.8899242E+03  0.7818608E-02  0.9438265E-01
          2   -1    0    0  501    0  0.00000000000E+00  0.00000000000E+00  0.39622637440E+03  0.39622637441E+03  0.25500000000E-02 0.  1.
         -2   -1    0    0    0  501 -0.00000000000E+00 -0.00000000000E+00 -0.49969232124E+03  0.49969232125E+03  0.25500000000E-02 0. -1.
   -5000001    1    1    2    0    0 -0.20280148671E+03 -0.13244222741E+03 -0.33076758059E+03  0.48018390121E+03  0.25000000000E+03 0.  0.
    5000001    1    1    2    0    0  0.20280148671E+03  0.13244222741E+03  0.22730163375E+03  0.41573479445E+03  0.25000000000E+03 0.  0.
<mgrwt>
<rscale>  0 0.88992421E+03</rscale>
<asrwt>0</asrwt>
<pdfrwt beam="1">  1        2 0.60957904E-01 0.88992421E+03</pdfrwt>
<pdfrwt beam="2">  1       -2 0.76875742E-01 0.88992421E+03</pdfrwt>
<totfact> 0.12201600E+02</totfact>
</mgrwt>
</event>
<event>
 4    1  0.1805887E-005  0.6060409E+03  0.7818608E-02  0.9892952E-01
          2   -1    0    0  501    0  0.00000000000E+00  0.00000000000E+00  0.22799546774E+04  0.22799546774E+04  0.25500000000E-02 0.  1.
         -2   -1    0    0    0  501 -0.00000000000E+00 -0.00000000000E+00 -0.40273336954E+02  0.40273337035E+02  0.25500000000E-02 0. -1.
   -5000001    1    1    2    0    0  0.68164151581E+02 -0.12148303189E+03  0.15010967869E+04  0.15281348247E+04  0.25000000000E+03 0.  0.
    5000001    1    1    2    0    0 -0.68164151581E+02  0.12148303189E+03  0.73858455350E+03  0.79209318976E+03  0.25000000000E+03 0.  0.
<mgrwt>
<rscale>  0 0.60604087E+03</rscale>
<asrwt>0</asrwt>
<pdfrwt beam="1">  1        2 0.35076230E+00 0.60604087E+03</pdfrwt>
<pdfrwt beam="2">  1       -2 0.61958972E-02 0.60604087E+03</pdfrwt>
<totfact> 0.71610845E+02</totfact>
</mgrwt>
</event>
<event>
 4    1  0.1805887E-005  0.6091694E+03  0.7818608E-02  0.9886563E-01
         -2   -1    0    0    0  501 -0.00000000000E+00  0.00000000000E+00  0.34468410346E+02  0.34468410440E+02  0.25500000000E-02 0. -1.
          2   -1    0    0  501    0  0.00000000000E+00 -0.00000000000E+00 -0.26915030358E+04  0.26915030358E+04  0.25500000000E-02 0.  1.
   -5000001    1    1    2    0    0 -0.92832360383E+02 -0.14033675000E+03 -0.15266083456E+04  0.15560672516E+04  0.25000000000E+03 0.  0.
    5000001    1    1    2    0    0  0.92832360383E+02  0.14033675000E+03 -0.11304262798E+04  0.11699041946E+04  0.25000000000E+03 0.  0.
<mgrwt>
<rscale>  0 0.60916937E+03</rscale>
<asrwt>0</asrwt>
<pdfrwt beam="1">  1        2 0.41407723E+00 0.60916937E+03</pdfrwt>
<pdfrwt beam="2">  1       -2 0.53028345E-02 0.60916937E+03</pdfrwt>
<totfact> 0.53554067E+02</totfact>
</mgrwt>
</event>
<event>
 4    1  0.1805887E-005  0.8930402E+03  0.7818608E-02  0.9434324E-01
         -2   -1    0    0    0  501 -0.00000000000E+00  0.00000000000E+00  0.23125259208E+03  0.23125259210E+03  0.25500000000E-02 0. -1.
          2   -1    0    0  501    0  0.00000000000E+00 -0.00000000000E+00 -0.86217501183E+03  0.86217501183E+03  0.25500000000E-02 0.  1.
   -5000001    1    1    2    0    0 -0.11033920334E+03  0.35075450153E+03 -0.26532486362E+03  0.51778445650E+03  0.25000000000E+03 0.  0.
    5000001    1    1    2    0    0  0.11033920334E+03 -0.35075450153E+03 -0.36559755613E+03  0.57564314743E+03  0.25000000000E+03 0.  0.
<mgrwt>
<rscale>  0 0.89304021E+03</rscale>
<asrwt>0</asrwt>
<pdfrwt beam="1">  1        2 0.13264231E+00 0.89304021E+03</pdfrwt>
<pdfrwt beam="2">  1       -2 0.35577322E-01 0.89304021E+03</pdfrwt>
<totfact> 0.23153716E+02</totfact>
</mgrwt>
</event>
<event>
 4    1  0.1805887E-005  0.6159077E+03  0.7818608E-02  0.9872941E-01
          2   -1    0    0  501    0  0.00000000000E+00  0.00000000000E+00  0.17382622654E+04  0.17382622654E+04  0.25500000000E-02 0.  1.
         -2   -1    0    0    0  501 -0.00000000000E+00 -0.00000000000E+00 -0.54557689383E+02  0.54557689442E+02  0.25500000000E-02 0. -1.
   -5000001    1    1    2    0    0 -0.89872982760E+02  0.14758380089E+03  0.98673706232E+03  0.10324767123E+04  0.25000000000E+03 0.  0.
    5000001    1    1    2    0    0  0.89872982760E+02 -0.14758380089E+03  0.69696751371E+03  0.76034324254E+03  0.25000000000E+03 0.  0.
<mgrwt>
<rscale>  0 0.61590770E+03</rscale>
<asrwt>0</asrwt>
<pdfrwt beam="1">  1        2 0.26742493E+00 0.61590770E+03</pdfrwt>
<pdfrwt beam="2">  1       -2 0.83934917E-02 0.61590770E+03</pdfrwt>
<totfact> 0.87163076E+02</totfact>
</mgrwt>
</event>
<event>
 4    1  0.1805887E-005  0.7150219E+03  0.7818608E-02  0.9691882E-01
          2   -1    0    0  501    0  0.00000000000E+00  0.00000000000E+00  0.38259472278E+04  0.38259472278E+04  0.25500000000E-02 0.  1.
         -2   -1    0    0    0  501 -0.00000000000E+00 -0.00000000000E+00 -0.33407175497E+02  0.33407175594E+02  0.25500000000E-02 0. -1.
   -5000001    1    1    2    0    0 -0.18003088926E+03  0.10289288863E+03  0.10899569568E+04  0.11373232765E+04  0.25000000000E+03 0.  0.
    5000001    1    1    2    0    0  0.18003088926E+03 -0.10289288863E+03  0.27025830955E+04  0.27220311269E+04  0.25000000000E+03 0.  0.
<mgrwt>
<rscale>  0 0.71502193E+03</rscale>
<asrwt>0</asrwt>
<pdfrwt beam="1">  1        2 0.58860738E+00 0.71502193E+03</pdfrwt>
<pdfrwt beam="2">  1       -2 0.51395645E-02 0.71502193E+03</pdfrwt>
<totfact> 0.10190786E+02</totfact>
</mgrwt>
</event>
<event>
 4    1  0.1805887E-005  0.5201211E+03  0.7818608E-02  0.1008656E+00
         -2   -1    0    0    0  501 -0.00000000000E+00  0.00000000000E+00  0.15810562914E+03  0.15810562916E+03  0.25500000000E-02 0. -1.
          2   -1    0    0  501    0  0.00000000000E+00 -0.00000000000E+00 -0.42776135485E+03  0.42776135486E+03  0.25500000000E-02 0.  1.
   -5000001    1    1    2    0    0 -0.55731879872E+02  0.41270806396E+02 -0.11461034363E+03  0.28362801830E+03  0.25000000000E+03 0.  0.
    5000001    1    1    2    0    0  0.55731879872E+02 -0.41270806396E+02 -0.15504538208E+03  0.30223896572E+03  0.25000000000E+03 0.  0.
<mgrwt>
<rscale>  0 0.52012106E+03</rscale>
<asrwt>0</asrwt>
<pdfrwt beam="1">  1        2 0.65809439E-01 0.52012106E+03</pdfrwt>
<pdfrwt beam="2">  1       -2 0.24323943E-01 0.52012106E+03</pdfrwt>
<totfact> 0.11114230E+03</totfact>
</mgrwt>
</event>
<event>
 4    1  0.1805887E-005  0.7051289E+03  0.7818608E-02  0.9708501E-01
          2   -1    0    0  501    0  0.00000000000E+00  0.00000000000E+00  0.27855254993E+04  0.27855254993E+04  0.25500000000E-02 0.  1.
         -2   -1    0    0    0  501 -0.00000000000E+00 -0.00000000000E+00 -0.44624145956E+02  0.44624146029E+02  0.25500000000E-02 0. -1.
   -5000001    1    1    2    0    0  0.19772044049E+03 -0.10230133109E+03  0.92635088181E+03  0.98497963997E+03  0.25000000000E+03 0.  0.
    5000001    1    1    2    0    0 -0.19772044049E+03  0.10230133109E+03  0.18145504716E+04  0.18451700054E+04  0.25000000000E+03 0.  0.
<mgrwt>
<rscale>  0 0.70512891E+03</rscale>
<asrwt>0</asrwt>
<pdfrwt beam="1">  1        2 0.42854226E+00 0.70512891E+03</pdfrwt>
<pdfrwt beam="2">  1       -2 0.68652552E-02 0.70512891E+03</pdfrwt>
<totfact> 0.31167784E+02</totfact>
</mgrwt>
</event>
<event>
 4    1  0.1805887E-005  0.7510022E+03  0.7818608E-02  0.9633779E-01
         -2   -1    0    0    0  501 -0.00000000000E+00  0.00000000000E+00  0.19686730838E+03  0.19686730839E+03  0.25500000000E-02 0. -1.
          2   -1    0    0  501    0  0.00000000000E+00 -0.00000000000E+00 -0.71622396720E+03  0.71622396720E+03  0.25500000000E-02 0.  1.
   -5000001    1    1    2    0    0 -0.14790903268E+03 -0.21617988203E+03 -0.38059240318E+03  0.52532028392E+03  0.25000000000E+03 0.  0.
    5000001    1    1    2    0    0  0.14790903268E+03  0.21617988203E+03 -0.13876425565E+03  0.38777099168E+03  0.25000000000E+03 0.  0.
<mgrwt>
<rscale>  0 0.75100222E+03</rscale>
<asrwt>0</asrwt>
<pdfrwt beam="1">  1        2 0.11018830E+00 0.75100222E+03</pdfrwt>
<pdfrwt beam="2">  1       -2 0.30287279E-01 0.75100222E+03</pdfrwt>
<totfact> 0.40303626E+02</totfact>
</mgrwt>
</event>
<event>
 4    1  0.1805887E-005  0.6177240E+03  0.7818608E-02  0.9869302E-01
          2   -1    0    0  501    0  0.00000000000E+00  0.00000000000E+00  0.11177930006E+04  0.11177930006E+04  0.25500000000E-02 0.  1.
         -2   -1    0    0    0  501 -0.00000000000E+00 -0.00000000000E+00 -0.85342941940E+02  0.85342941978E+02  0.25500000000E-02 0. -1.
   -5000001    1    1    2    0    0  0.17483268717E+03  0.47923234205E+02  0.52735217930E+03  0.61111654035E+03  0.25000000000E+03 0.  0.
    5000001    1    1    2    0    0 -0.17483268717E+03 -0.47923234205E+02  0.50509787936E+03  0.59201940222E+03  0.25000000000E+03 0.  0.
<mgrwt>
<rscale>  0 0.61772403E+03</rscale>
<asrwt>0</asrwt>
<pdfrwt beam="1">  1        2 0.17196815E+00 0.61772403E+03</pdfrwt>
<pdfrwt beam="2">  1       -2 0.13129683E-01 0.61772403E+03</pdfrwt>
<totfact> 0.94026826E+02</totfact>
</mgrwt>
</event>
<event>
 4    1  0.1805887E-005  0.8600921E+03  0.7818608E-02  0.9476891E-01
         -2   -1    0    0    0  501 -0.00000000000E+00  0.00000000000E+00  0.35188381379E+03  0.35188381380E+03  0.25500000000E-02 0. -1.
          2   -1    0    0  501    0  0.00000000000E+00 -0.00000000000E+00 -0.52557009827E+03  0.52557009827E+03  0.25500000000E-02 0.  1.
   -5000001    1    1    2    0    0 -0.26547769006E+03  0.22538367140E+03 -0.12164041850E+03  0.44561485014E+03  0.25000000000E+03 0.  0.
    5000001    1    1    2    0    0  0.26547769006E+03 -0.22538367140E+03 -0.52045865971E+02  0.43183906194E+03  0.25000000000E+03 0.  0.
<mgrwt>
<rscale>  0 0.86009211E+03</rscale>
<asrwt>0</asrwt>
<pdfrwt beam="1">  1        2 0.80856938E-01 0.86009211E+03</pdfrwt>
<pdfrwt beam="2">  1       -2 0.54135971E-01 0.86009211E+03</pdfrwt>
<totfact> 0.18762054E+02</totfact>
</mgrwt>
</event>
<event>
 4    1  0.1805887E-005  0.6625927E+03  0.7818608E-02  0.9783433E-01
          2   -1    0    0  501    0  0.00000000000E+00  0.00000000000E+00  0.16410038940E+04  0.16410038940E+04  0.25500000000E-02 0.  1.
         -2   -1    0    0    0  501 -0.00000000000E+00 -0.00000000000E+00 -0.66884215538E+02  0.66884215587E+02  0.25500000000E-02 0. -1.
   -5000001    1    1    2    0    0  0.32499573523E+01  0.12166955682E+03  0.32278544051E+03  0.42603343048E+03  0.25000000000E+03 0.  0.
    5000001    1    1    2    0    0 -0.32499573523E+01 -0.12166955682E+03  0.12513342379E+04  0.12818546791E+04  0.25000000000E+03 0.  0.
<mgrwt>
<rscale>  0 0.66259266E+03</rscale>
<asrwt>0</asrwt>
<pdfrwt beam="1">  1        2 0.25246214E+00 0.66259266E+03</pdfrwt>
<pdfrwt beam="2">  1       -2 0.10289879E-01 0.66259266E+03</pdfrwt>
<totfact> 0.70687459E+02</totfact>
</mgrwt>
</event>
<event>
 4    1  0.1805887E-005  0.6758606E+03  0.7818608E-02  0.9759428E-01
         -2   -1    0    0    0  501 -0.00000000000E+00  0.00000000000E+00  0.16173912135E+03  0.16173912137E+03  0.25500000000E-02 0. -1.
          2   -1    0    0  501    0  0.00000000000E+00 -0.00000000000E+00 -0.70605597247E+03  0.70605597248E+03  0.25500000000E-02 0.  1.
   -5000001    1    1    2    0    0 -0.54919303787E+02 -0.19285337608E+03 -0.40978056794E+03  0.52021982705E+03  0.25000000000E+03 0.  0.
    5000001    1    1    2    0    0  0.54919303787E+02  0.19285337608E+03 -0.13453628318E+03  0.34757526680E+03  0.25000000000E+03 0.  0.
<mgrwt>
<rscale>  0 0.67586056E+03</rscale>
<asrwt>0</asrwt>
<pdfrwt beam="1">  1        2 0.10862399E+00 0.67586056E+03</pdfrwt>
<pdfrwt beam="2">  1       -2 0.24882942E-01 0.67586056E+03</pdfrwt>
<totfact> 0.58929435E+02</totfact>
</mgrwt>
</event>
<event>
 4    1  0.1805887E-005  0.1389534E+04  0.7818608E-02  0.8961430E-01
         -2   -1    0    0    0  501 -0.00000000000E+00  0.00000000000E+00  0.29839959790E+03  0.29839959792E+03  0.25500000000E-02 0. -1.
          2   -1    0    0  501    0  0.00000000000E+00 -0.00000000000E+00 -0.16176324323E+04  0.16176324323E+04  0.25500000000E-02 0.  1.
   -5000001    1    1    2    0    0 -0.75085532979E+02 -0.64345020241E+03 -0.62772625843E+03  0.93605889546E+03  0.25000000000E+03 0.  0.
    5000001    1    1    2    0    0  0.75085532979E+02  0.64345020241E+03 -0.69150657598E+03  0.97997313477E+03  0.25000000000E+03 0.  0.
<mgrwt>
<rscale>  0 0.13895335E+04</rscale>
<asrwt>0</asrwt>
<pdfrwt beam="1">  1        2 0.24886652E+00 0.13895335E+04</pdfrwt>
<pdfrwt beam="2">  1       -2 0.45907631E-01 0.13895335E+04</pdfrwt>
<totfact> 0.47764640E+01</totfact>
</mgrwt>
</event>
<event>
 4    1  0.1805887E-005  0.6100708E+03  0.7818608E-02  0.9884730E-01
          2   -1    0    0  501    0  0.00000000000E+00  0.00000000000E+00  0.21836134949E+04  0.21836134949E+04  0.25500000000E-02 0.  1.
         -2   -1    0    0    0  501 -0.00000000000E+00 -0.00000000000E+00 -0.42611290561E+02  0.42611290637E+02  0.25500000000E-02 0. -1.
   -5000001    1    1    2    0    0  0.87106159551E+02  0.76021776628E+02  0.15487982441E+04  0.15730997408E+04  0.25000000000E+03 0.  0.
    5000001    1    1    2    0    0 -0.87106159551E+02 -0.76021776628E+02  0.59220396025E+03  0.65312504476E+03  0.25000000000E+03 0.  0.
<mgrwt>
<rscale>  0 0.61007078E+03</rscale>
<asrwt>0</asrwt>
<pdfrwt beam="1">  1        2 0.33594054E+00 0.61007078E+03</pdfrwt>
<pdfrwt beam="2">  1       -2 0.65555832E-02 0.61007078E+03</pdfrwt>
<totfact> 0.73991552E+02</totfact>
</mgrwt>
</event>
<event>
 4    1  0.1805887E-005  0.1271518E+04  0.7818608E-02  0.9052461E-01
         -2   -1    0    0    0  501 -0.00000000000E+00  0.00000000000E+00  0.42720386946E+03  0.42720386947E+03  0.25500000000E-02 0. -1.
          2   -1    0    0  501    0  0.00000000000E+00 -0.00000000000E+00 -0.94612864186E+03  0.94612864186E+03  0.25500000000E-02 0.  1.
   -5000001    1    1    2    0    0  0.16296041237E+03 -0.55745175270E+03 -0.18797116026E+03  0.65965271900E+03  0.25000000000E+03 0.  0.
    5000001    1    1    2    0    0 -0.16296041237E+03  0.55745175270E+03 -0.33095361213E+03  0.71367979233E+03  0.25000000000E+03 0.  0.
<mgrwt>
<rscale>  0 0.12715185E+04</rscale>
<asrwt>0</asrwt>
<pdfrwt beam="1">  1        2 0.14555825E+00 0.12715185E+04</pdfrwt>
<pdfrwt beam="2">  1       -2 0.65723672E-01 0.12715185E+04</pdfrwt>
<totfact> 0.57187600E+01</totfact>
</mgrwt>
</event>
<event>
 4    1  0.1805887E-005  0.5477818E+03  0.7818608E-02  0.1002009E+00
         -2   -1    0    0    0  501 -0.00000000000E+00  0.00000000000E+00  0.53467963130E+02  0.53467963191E+02  0.25500000000E-02 0. -1.
          2   -1    0    0  501    0  0.00000000000E+00 -0.00000000000E+00 -0.14030126801E+04  0.14030126801E+04  0.25500000000E-02 0.  1.
   -5000001    1    1    2    0    0 -0.42111256444E+02 -0.76976080911E+02 -0.85932083308E+03  0.89923910564E+03  0.25000000000E+03 0.  0.
    5000001    1    1    2    0    0  0.42111256444E+02  0.76976080911E+02 -0.49022388392E+03  0.55724153768E+03  0.25000000000E+03 0.  0.
<mgrwt>
<rscale>  0 0.54778182E+03</rscale>
<asrwt>0</asrwt>
<pdfrwt beam="1">  1        2 0.21584808E+00 0.54778182E+03</pdfrwt>
<pdfrwt beam="2">  1       -2 0.82258415E-02 0.54778182E+03</pdfrwt>
<totfact> 0.13793093E+03</totfact>
</mgrwt>
</event>
<event>
 4    1  0.1805887E-005  0.6572043E+03  0.7818608E-02  0.9793354E-01
         -2   -1    0    0    0  501 -0.00000000000E+00  0.00000000000E+00  0.25066762850E+03  0.25066762851E+03  0.25500000000E-02 0. -1.
          2   -1    0    0  501    0  0.00000000000E+00 -0.00000000000E+00 -0.43076711607E+03  0.43076711608E+03  0.25500000000E-02 0.  1.
   -5000001    1    1    2    0    0  0.12936194668E+03  0.72568014499E+02  0.68827349950E+02  0.29872702268E+03  0.25000000000E+03 0.  0.
    5000001    1    1    2    0    0 -0.12936194668E+03 -0.72568014499E+02 -0.24892683752E+03  0.38270772192E+03  0.25000000000E+03 0.  0.
<mgrwt>
<rscale>  0 0.65720430E+03</rscale>
<asrwt>0</asrwt>
<pdfrwt beam="1">  1        2 0.66271864E-01 0.65720430E+03</pdfrwt>
<pdfrwt beam="2">  1       -2 0.38564251E-01 0.65720430E+03</pdfrwt>
<totfact> 0.46805196E+02</totfact>
</mgrwt>
</event>
<event>
 4    1  0.1805887E-005  0.1754148E+04  0.7818608E-02  0.8731071E-01
          2   -1    0    0  501    0  0.00000000000E+00  0.00000000000E+00  0.19746359816E+04  0.19746359816E+04  0.25500000000E-02 0.  1.
         -2   -1    0    0    0  501 -0.00000000000E+00 -0.00000000000E+00 -0.38956978107E+03  0.38956978108E+03  0.25500000000E-02 0. -1.
   -5000001    1    1    2    0    0  0.15430827900E+03 -0.82367900592E+03  0.88294854426E+03  0.12427213210E+04  0.25000000000E+03 0.  0.
    5000001    1    1    2    0    0 -0.15430827900E+03  0.82367900592E+03  0.70211765628E+03  0.11214844417E+04  0.25000000000E+03 0.  0.
<mgrwt>
<rscale>  0 0.17541477E+04</rscale>
<asrwt>0</asrwt>
<pdfrwt beam="1">  1        2 0.30379015E+00 0.17541477E+04</pdfrwt>
<pdfrwt beam="2">  1       -2 0.59933813E-01 0.17541477E+04</pdfrwt>
<totfact> 0.16977055E+01</totfact>
</mgrwt>
</event>
<event>
 4    1  0.1805887E-005  0.6534623E+03  0.7818608E-02  0.9800304E-01
          2   -1    0    0  501    0  0.00000000000E+00  0.00000000000E+00  0.16595050066E+04  0.16595050066E+04  0.25500000000E-02 0.  1.
         -2   -1    0    0    0  501 -0.00000000000E+00 -0.00000000000E+00 -0.64328368491E+02  0.64328368542E+02  0.25500000000E-02 0. -1.
   -5000001    1    1    2    0    0 -0.17947110122E+03  0.80950383415E+02  0.60211968366E+03  0.68103667610E+03  0.25000000000E+03 0.  0.
    5000001    1    1    2    0    0  0.17947110122E+03 -0.80950383415E+02  0.99305695440E+03  0.10427966990E+04  0.25000000000E+03 0.  0.
<mgrwt>
<rscale>  0 0.65346232E+03</rscale>
<asrwt>0</asrwt>
<pdfrwt beam="1">  1        2 0.25530844E+00 0.65346232E+03</pdfrwt>
<pdfrwt beam="2">  1       -2 0.98966729E-02 0.65346232E+03</pdfrwt>
<totfact> 0.73614852E+02</totfact>
</mgrwt>
</event>
<event>
 4    1  0.1805887E-005  0.8045717E+03  0.7818608E-02  0.9553423E-01
          2   -1    0    0  501    0  0.00000000000E+00  0.00000000000E+00  0.15712854010E+03  0.15712854012E+03  0.25500000000E-02 0. -1.
         -2   -1    0    0    0  501 -0.00000000000E+00 -0.00000000000E+00 -0.10299459683E+04  0.10299459683E+04  0.25500000000E-02 0.  1.
   -5000001    1    1    2    0    0  0.79428957039E+02 -0.24777911573E+03 -0.69880999932E+03  0.78647241818E+03  0.25000000000E+03 0.  0.
    5000001    1    1    2    0    0 -0.79428957039E+02  0.24777911573E+03 -0.17400742890E+03  0.40060209026E+03  0.25000000000E+03 0.  0.
<mgrwt>
<rscale>  0 0.80457170E+03</rscale>
<asrwt>0</asrwt>
<pdfrwt beam="1">  1        2 0.24173622E-01 0.80457170E+03</pdfrwt>
<pdfrwt beam="2">  1       -2 0.15845322E+00 0.80457170E+03</pdfrwt>
<totfact> 0.59438742E+01</totfact>
</mgrwt>
</event>
<event>
 4    1  0.1805887E-005  0.7177774E+03  0.7818608E-02  0.9687304E-01
          2   -1    0    0  501    0  0.00000000000E+00  0.00000000000E+00  0.10413694272E+04  0.10413694272E+04  0.25500000000E-02 0.  1.
         -2   -1    0    0    0  501 -0.00000000000E+00 -0.00000000000E+00 -0.12368435409E+03  0.12368435411E+03  0.25500000000E-02 0. -1.
   -5000001    1    1    2    0    0  0.17240610834E+02  0.23030197876E+03  0.64365879833E+03  0.72810225158E+03  0.25000000000E+03 0.  0.
    5000001    1    1    2    0    0 -0.17240610834E+02 -0.23030197876E+03  0.27402627482E+03  0.43695152978E+03  0.25000000000E+03 0.  0.
<mgrwt>
<rscale>  0 0.71777742E+03</rscale>
<asrwt>0</asrwt>
<pdfrwt beam="1">  1        2 0.16021069E+00 0.71777742E+03</pdfrwt>
<pdfrwt beam="2">  1       -2 0.19028362E-01 0.71777742E+03</pdfrwt>
<totfact> 0.55578867E+02</totfact>
</mgrwt>
</event>
<event>
 4    1  0.1805887E-005  0.6903050E+03  0.7818608E-02  0.9733957E-01
          2   -1    0    0  501    0  0.00000000000E+00  0.00000000000E+00  0.19333574694E+04  0.19333574694E+04  0.25500000000E-02 0.  1.
         -2   -1    0    0    0  501 -0.00000000000E+00 -0.00000000000E+00 -0.61618316806E+02  0.61618316859E+02  0.25500000000E-02 0. -1.
   -5000001    1    1    2    0    0 -0.84944584360E+02 -0.22154013565E+03  0.98873502601E+03  0.10470876591E+04  0.25000000000E+03 0.  0.
    5000001    1    1    2    0    0  0.84944584360E+02  0.22154013565E+03  0.88300412663E+03  0.94788812724E+03  0.25000000000E+03 0.  0.
<mgrwt>
<rscale>  0 0.69030496E+03</rscale>
<asrwt>0</asrwt>
<pdfrwt beam="1">  1        2 0.29743964E+00 0.69030496E+03</pdfrwt>
<pdfrwt beam="2">  1       -2 0.94797400E-02 0.69030496E+03</pdfrwt>
<totfact> 0.55889416E+02</totfact>
</mgrwt>
</event>
<event>
 4    1  0.1805887E-005  0.7805716E+03  0.7818608E-02  0.9588573E-01
          2   -1    0    0  501    0  0.00000000000E+00  0.00000000000E+00  0.12893846620E+03  0.12893846623E+03  0.25500000000E-02 0.  1.
         -2   -1    0    0    0  501 -0.00000000000E+00 -0.00000000000E+00 -0.11813619347E+04  0.11813619347E+04  0.25500000000E-02 0. -1.
   -5000001    1    1    2    0    0 -0.25859191103E+03 -0.13407271155E+03 -0.40777847003E+03  0.56002548965E+03  0.25000000000E+03 0.  0.
    5000001    1    1    2    0    0  0.25859191103E+03  0.13407271155E+03 -0.64464499843E+03  0.75027491124E+03  0.25000000000E+03 0.  0.
<mgrwt>
<rscale>  0 0.78057157E+03</rscale>
<asrwt>0</asrwt>
<pdfrwt beam="1">  1        2 0.19836688E-01 0.78057157E+03</pdfrwt>
<pdfrwt beam="2">  1       -2 0.18174798E+00 0.78057157E+03</pdfrwt>
<totfact> 0.51235682E+01</totfact>
</mgrwt>
</event>
<event>
 4    1  0.1805887E-005  0.6312585E+03  0.7818608E-02  0.9842596E-01
          2   -1    0    0  501    0  0.00000000000E+00  0.00000000000E+00  0.23947390559E+03  0.23947390560E+03  0.25500000000E-02 0.  1.
         -2   -1    0    0    0  501 -0.00000000000E+00 -0.00000000000E+00 -0.41600283586E+03  0.41600283587E+03  0.25500000000E-02 0. -1.
   -5000001    1    1    2    0    0 -0.16450579614E+03  0.10564612503E+02 -0.19183093028E+03  0.35563024873E+03  0.25000000000E+03 0.  0.
    5000001    1    1    2    0    0  0.16450579614E+03 -0.10564612503E+02  0.15302000011E+02  0.29984649273E+03  0.25000000000E+03 0.  0.
<mgrwt>
<rscale>  0 0.63125850E+03</rscale>
<asrwt>0</asrwt>
<pdfrwt beam="1">  1        2 0.36842140E-01 0.63125850E+03</pdfrwt>
<pdfrwt beam="2">  1       -2 0.64000436E-01 0.63125850E+03</pdfrwt>
<totfact> 0.32196414E+02</totfact>
</mgrwt>
</event>
<event>
 4    1  0.1805887E-005  0.7021465E+03  0.7818608E-02  0.9713568E-01
          2   -1    0    0  501    0  0.00000000000E+00  0.00000000000E+00  0.86862396174E+03  0.86862396174E+03  0.25500000000E-02 0.  1.
         -2   -1    0    0    0  501 -0.00000000000E+00 -0.00000000000E+00 -0.14189387077E+03  0.14189387079E+03  0.25500000000E-02 0. -1.
   -5000001    1    1    2    0    0  0.15657023848E+03 -0.19026767133E+03  0.35468331279E+03  0.49901530909E+03  0.25000000000E+03 0.  0.
    5000001    1    1    2    0    0 -0.15657023848E+03  0.19026767133E+03  0.37204677818E+03  0.51150252344E+03  0.25000000000E+03 0.  0.
<mgrwt>
<rscale>  0 0.70214647E+03</rscale>
<asrwt>0</asrwt>
<pdfrwt beam="1">  1        2 0.13363446E+00 0.70214647E+03</pdfrwt>
<pdfrwt beam="2">  1       -2 0.21829826E-01 0.70214647E+03</pdfrwt>
<totfact> 0.56665373E+02</totfact>
</mgrwt>
</event>
<event>
 4    1  0.1805887E-005  0.6970616E+03  0.7818608E-02  0.9722271E-01
         -2   -1    0    0    0  501 -0.00000000000E+00  0.00000000000E+00  0.10212109336E+03  0.10212109340E+03  0.25500000000E-02 0. -1.
          2   -1    0    0  501    0  0.00000000000E+00 -0.00000000000E+00 -0.11895065094E+04  0.11895065094E+04  0.25500000000E-02 0.  1.
   -5000001    1    1    2    0    0 -0.11422622225E+03  0.20323352682E+03 -0.66966962470E+03  0.75187026974E+03  0.25000000000E+03 0.  0.
    5000001    1    1    2    0    0  0.11422622225E+03 -0.20323352682E+03 -0.41771579139E+03  0.53975733311E+03  0.25000000000E+03 0.  0.
<mgrwt>
<rscale>  0 0.69706156E+03</rscale>
<asrwt>0</asrwt>
<pdfrwt beam="1">  1        2 0.18300099E+00 0.69706156E+03</pdfrwt>
<pdfrwt beam="2">  1       -2 0.15710938E-01 0.69706156E+03</pdfrwt>
<totfact> 0.62821228E+02</totfact>
</mgrwt>
</event>
<event>
 4    1  0.1805887E-005  0.5396012E+03  0.7818608E-02  0.1003930E+00
          2   -1    0    0  501    0  0.00000000000E+00  0.00000000000E+00  0.43668999737E+03  0.43668999738E+03  0.25500000000E-02 0.  1.
         -2   -1    0    0    0  501 -0.00000000000E+00 -0.00000000000E+00 -0.16669114549E+03  0.16669114551E+03  0.25500000000E-02 0. -1.
   -5000001    1    1    2    0    0  0.20358526007E+02 -0.98314204310E+02  0.11871039806E+03  0.29440161507E+03  0.25000000000E+03 0.  0.
    5000001    1    1    2    0    0 -0.20358526007E+02  0.98314204310E+02  0.15128845383E+03  0.30897952782E+03  0.25000000000E+03 0.  0.
<mgrwt>
<rscale>  0 0.53960117E+03</rscale>
<asrwt>0</asrwt>
<pdfrwt beam="1">  1        2 0.67183077E-01 0.53960117E+03</pdfrwt>
<pdfrwt beam="2">  1       -2 0.25644792E-01 0.53960117E+03</pdfrwt>
<totfact> 0.98766521E+02</totfact>
</mgrwt>
</event>
<event>
 4    1  0.1805887E-005  0.8231555E+03  0.7818608E-02  0.9527092E-01
         -2   -1    0    0    0  501 -0.00000000000E+00  0.00000000000E+00  0.26518280107E+03  0.26518280108E+03  0.25500000000E-02 0. -1.
          2   -1    0    0  501    0  0.00000000000E+00 -0.00000000000E+00 -0.63879045815E+03  0.63879045816E+03  0.25500000000E-02 0.  1.
   -5000001    1    1    2    0    0 -0.21252539895E+03  0.16470865520E+03 -0.39107795472E+03  0.53641211113E+03  0.25000000000E+03 0.  0.
    5000001    1    1    2    0    0  0.21252539895E+03 -0.16470865520E+03  0.17470297646E+02  0.36756114811E+03  0.25000000000E+03 0.  0.
<mgrwt>
<rscale>  0 0.82315550E+03</rscale>
<asrwt>0</asrwt>
<pdfrwt beam="1">  1        2 0.98275455E-01 0.82315550E+03</pdfrwt>
<pdfrwt beam="2">  1       -2 0.40797354E-01 0.82315550E+03</pdfrwt>
<totfact> 0.26275860E+02</totfact>
</mgrwt>
</event>
<event>
 4    1  0.1805887E-005  0.1698010E+04  0.7818608E-02  0.8762500E-01
         -2   -1    0    0    0  501 -0.00000000000E+00  0.00000000000E+00  0.16952978802E+04  0.16952978802E+04  0.25500000000E-02 0. -1.
          2   -1    0    0  501    0  0.00000000000E+00 -0.00000000000E+00 -0.42518152224E+03  0.42518152225E+03  0.25500000000E-02 0.  1.
   -5000001    1    1    2    0    0 -0.46736532828E+03 -0.62614913773E+03  0.36198340931E+03  0.89667445674E+03  0.25000000000E+03 0.  0.
    5000001    1    1    2    0    0  0.46736532828E+03  0.62614913773E+03  0.90813294868E+03  0.12238049457E+04  0.25000000000E+03 0.  0.
<mgrwt>
<rscale>  0 0.16980098E+04</rscale>
<asrwt>0</asrwt>
<pdfrwt beam="1">  1        2 0.65412542E-01 0.16980098E+04</pdfrwt>
<pdfrwt beam="2">  1       -2 0.26081506E+00 0.16980098E+04</pdfrwt>
<totfact> 0.38967776E+00</totfact>
</mgrwt>
</event>
<event>
 4    1  0.1805887E-005  0.6631041E+03  0.7818608E-02  0.9782496E-01
          2   -1    0    0  501    0  0.00000000000E+00  0.00000000000E+00  0.12202621205E+03  0.12202621208E+03  0.25500000000E-02 0.  1.
         -2   -1    0    0    0  501 -0.00000000000E+00 -0.00000000000E+00 -0.90084540373E+03  0.90084540373E+03  0.25500000000E-02 0. -1.
   -5000001    1    1    2    0    0 -0.56631433950E+02  0.20777214811E+03 -0.33941649696E+03  0.47337083059E+03  0.25000000000E+03 0.  0.
    5000001    1    1    2    0    0  0.56631433950E+02 -0.20777214811E+03 -0.43940269471E+03  0.54950078522E+03  0.25000000000E+03 0.  0.
<mgrwt>
<rscale>  0 0.66310407E+03</rscale>
<asrwt>0</asrwt>
<pdfrwt beam="1">  1        2 0.18773264E-01 0.66310407E+03</pdfrwt>
<pdfrwt beam="2">  1       -2 0.13859160E+00 0.66310407E+03</pdfrwt>
<totfact> 0.11443039E+02</totfact>
</mgrwt>
</event>
<event>
 4    1  0.1805887E-005  0.6574516E+03  0.7818608E-02  0.9792896E-01
         -2   -1    0    0    0  501 -0.00000000000E+00  0.00000000000E+00  0.71751381050E+02  0.71751381095E+02  0.25500000000E-02 0. -1.
          2   -1    0    0  501    0  0.00000000000E+00 -0.00000000000E+00 -0.15060426737E+04  0.15060426737E+04  0.25500000000E-02 0.  1.
   -5000001    1    1    2    0    0  0.57323381126E+01  0.20407319196E+03 -0.56762212146E+03  0.65297289389E+03  0.25000000000E+03 0.  0.
    5000001    1    1    2    0    0 -0.57323381126E+01 -0.20407319196E+03 -0.86666917119E+03  0.92482116091E+03  0.25000000000E+03 0.  0.
<mgrwt>
<rscale>  0 0.65745157E+03</rscale>
<asrwt>0</asrwt>
<pdfrwt beam="1">  1        2 0.23169885E+00 0.65745157E+03</pdfrwt>
<pdfrwt beam="2">  1       -2 0.11038675E-01 0.65745157E+03</pdfrwt>
<totfact> 0.74797487E+02</totfact>
</mgrwt>
</event>
<event>
 4    1  0.1805887E-005  0.6484228E+03  0.7818608E-02  0.9809743E-01
         -2   -1    0    0    0  501 -0.00000000000E+00  0.00000000000E+00  0.23572533476E+03  0.23572533477E+03  0.25500000000E-02 0. -1.
          2   -1    0    0  501    0  0.00000000000E+00 -0.00000000000E+00 -0.44591319450E+03  0.44591319451E+03  0.25500000000E-02 0.  1.
   -5000001    1    1    2    0    0  0.84658104218E+02 -0.17676739913E+03 -0.36972179891E+02  0.31981346140E+03  0.25000000000E+03 0.  0.
    5000001    1    1    2    0    0 -0.84658104218E+02  0.17676739913E+03 -0.17321567986E+03  0.36182506789E+03  0.25000000000E+03 0.  0.
<mgrwt>
<rscale>  0 0.64842282E+03</rscale>
<asrwt>0</asrwt>
<pdfrwt beam="1">  1        2 0.68602030E-01 0.64842282E+03</pdfrwt>
<pdfrwt beam="2">  1       -2 0.36265436E-01 0.64842282E+03</pdfrwt>
<totfact> 0.50660547E+02</totfact>
</mgrwt>
</event>
<event>
 4    1  0.1805887E-005  0.7553435E+03  0.7818608E-02  0.9627004E-01
         -2   -1    0    0    0  501 -0.00000000000E+00  0.00000000000E+00  0.17739467345E+03  0.17739467347E+03  0.25500000000E-02 0. -1.
          2   -1    0    0  501    0  0.00000000000E+00 -0.00000000000E+00 -0.80406001207E+03  0.80406001208E+03  0.25500000000E-02 0.  1.
   -5000001    1    1    2    0    0  0.20482001042E+03  0.19327928686E+03 -0.35071789109E+03  0.51459805531E+03  0.25000000000E+03 0.  0.
    5000001    1    1    2    0    0 -0.20482001042E+03 -0.19327928686E+03 -0.27594744753E+03  0.46685663024E+03  0.25000000000E+03 0.  0.
<mgrwt>
<rscale>  0 0.75534353E+03</rscale>
<asrwt>0</asrwt>
<pdfrwt beam="1">  1        2 0.12370154E+00 0.75534353E+03</pdfrwt>
<pdfrwt beam="2">  1       -2 0.27291489E-01 0.75534353E+03</pdfrwt>
<totfact> 0.42015511E+02</totfact>
</mgrwt>
</event>
<event>
 4    1  0.1805887E-005  0.1013564E+04  0.7818608E-02  0.9293792E-01
          2   -1    0    0  501    0  0.00000000000E+00  0.00000000000E+00  0.25467933612E+04  0.25467933612E+04  0.25500000000E-02 0.  1.
         -2   -1    0    0    0  501 -0.00000000000E+00 -0.00000000000E+00 -0.10084361080E+03  0.10084361083E+03  0.25500000000E-02 0. -1.
   -5000001    1    1    2    0    0 -0.27044983653E+02  0.43950068251E+03  0.11684581030E+04  0.12734546005E+04  0.25000000000E+03 0.  0.
    5000001    1    1    2    0    0  0.27044983653E+02 -0.43950068251E+03  0.12774916474E+04  0.13741823715E+04  0.25000000000E+03 0.  0.
<mgrwt>
<rscale>  0 0.10135637E+04</rscale>
<asrwt>0</asrwt>
<pdfrwt beam="1">  1        2 0.39181434E+00 0.10135637E+04</pdfrwt>
<pdfrwt beam="2">  1       -2 0.15514403E-01 0.10135637E+04</pdfrwt>
<totfact> 0.10955922E+02</totfact>
</mgrwt>
</event>
<event>
 4    1  0.1805887E-005  0.1006626E+04  0.7818608E-02  0.9301307E-01
          2   -1    0    0  501    0  0.00000000000E+00  0.00000000000E+00  0.18330259849E+04  0.18330259849E+04  0.25500000000E-02 0.  1.
         -2   -1    0    0    0  501 -0.00000000000E+00 -0.00000000000E+00 -0.13819990416E+03  0.13819990419E+03  0.25500000000E-02 0. -1.
   -5000001    1    1    2    0    0  0.20091992086E+03 -0.30041927319E+03  0.13278970588E+04  0.13987248311E+04  0.25000000000E+03 0.  0.
    5000001    1    1    2    0    0 -0.20091992086E+03  0.30041927319E+03  0.36692902197E+03  0.57250105805E+03  0.25000000000E+03 0.  0.
<mgrwt>
<rscale>  0 0.10066261E+04</rscale>
<asrwt>0</asrwt>
<pdfrwt beam="1">  1        2 0.28200400E+00 0.10066261E+04</pdfrwt>
<pdfrwt beam="2">  1       -2 0.21261524E-01 0.10066261E+04</pdfrwt>
<totfact> 0.15865103E+02</totfact>
</mgrwt>
</event>
<event>
 4    1  0.1805887E-005  0.7269607E+03  0.7818608E-02  0.9672205E-01
         -2   -1    0    0    0  501 -0.00000000000E+00  0.00000000000E+00  0.14668350989E+04  0.14668350989E+04  0.25500000000E-02 0. -1.
          2   -1    0    0  501    0  0.00000000000E+00 -0.00000000000E+00 -0.90070090294E+02  0.90070090330E+02  0.25500000000E-02 0.  1.
   -5000001    1    1    2    0    0  0.14837101260E+03  0.19388256063E+03  0.47407094888E+03  0.58893774651E+03  0.25000000000E+03 0.  0.
    5000001    1    1    2    0    0 -0.14837101260E+03 -0.19388256063E+03  0.90269405972E+03  0.96796744271E+03  0.25000000000E+03 0.  0.
<mgrwt>
<rscale>  0 0.72696071E+03</rscale>
<asrwt>0</asrwt>
<pdfrwt beam="1">  1        2 0.13856937E-01 0.72696071E+03</pdfrwt>
<pdfrwt beam="2">  1       -2 0.22566694E+00 0.72696071E+03</pdfrwt>
<totfact> 0.41174000E+01</totfact>
</mgrwt>
</event>
<event>
 4    1  0.1805887E-005  0.6704780E+03  0.7818608E-02  0.9769095E-01
          2   -1    0    0  501    0  0.00000000000E+00  0.00000000000E+00  0.72484685296E+03  0.72484685297E+03  0.25500000000E-02 0.  1.
         -2   -1    0    0    0  501 -0.00000000000E+00 -0.00000000000E+00 -0.15504682213E+03  0.15504682215E+03  0.25500000000E-02 0. -1.
   -5000001    1    1    2    0    0  0.47167376022E+02  0.21630203633E+03  0.24610564074E+03  0.41482444321E+03  0.25000000000E+03 0.  0.
    5000001    1    1    2    0    0 -0.47167376022E+02 -0.21630203633E+03  0.32369439009E+03  0.46506923190E+03  0.25000000000E+03 0.  0.
<mgrwt>
<rscale>  0 0.67047804E+03</rscale>
<asrwt>0</asrwt>
<pdfrwt beam="1">  1        2 0.11151490E+00 0.67047804E+03</pdfrwt>
<pdfrwt beam="2">  1       -2 0.23853357E-01 0.67047804E+03</pdfrwt>
<totfact> 0.61498993E+02</totfact>
</mgrwt>
</event>
<event>
 4    1  0.1805887E-005  0.7939715E+03  0.7818608E-02  0.9568784E-01
         -2   -1    0    0    0  501 -0.00000000000E+00  0.00000000000E+00  0.98903585409E+02  0.98903585442E+02  0.25500000000E-02 0. -1.
          2   -1    0    0  501    0  0.00000000000E+00 -0.00000000000E+00 -0.15934476045E+04  0.15934476045E+04  0.25500000000E-02 0.  1.
   -5000001    1    1    2    0    0 -0.23683208498E+03  0.19686784493E+03 -0.71348274437E+03  0.81633572221E+03  0.25000000000E+03 0.  0.
    5000001    1    1    2    0    0  0.23683208498E+03 -0.19686784493E+03 -0.78106127472E+03  0.87601546774E+03  0.25000000000E+03 0.  0.
<mgrwt>
<rscale>  0 0.79397149E+03</rscale>
<asrwt>0</asrwt>
<pdfrwt beam="1">  1        2 0.24514577E+00 0.79397149E+03</pdfrwt>
<pdfrwt beam="2">  1       -2 0.15215937E-01 0.79397149E+03</pdfrwt>
<totfact> 0.38908131E+02</totfact>
</mgrwt>
</event>
<event>
 4    1  0.1805887E-005  0.6722424E+03  0.7818608E-02  0.9765915E-01
          2   -1    0    0  501    0  0.00000000000E+00  0.00000000000E+00  0.22912120717E+04  0.22912120717E+04  0.25500000000E-02 0.  1.
         -2   -1    0    0    0  501 -0.00000000000E+00 -0.00000000000E+00 -0.49309041174E+02  0.49309041240E+02  0.25500000000E-02 0. -1.
   -5000001    1    1    2    0    0  0.30049675401E+02 -0.21987274564E+03  0.99882190863E+03  0.10532768926E+04  0.25000000000E+03 0.  0.
    5000001    1    1    2    0    0 -0.30049675401E+02  0.21987274564E+03  0.12430811219E+04  0.12872442204E+04  0.25000000000E+03 0.  0.
<mgrwt>
<rscale>  0 0.67224243E+03</rscale>
<asrwt>0</asrwt>
<pdfrwt beam="1">  1        2 0.35249414E+00 0.67224243E+03</pdfrwt>
<pdfrwt beam="2">  1       -2 0.75860069E-02 0.67224243E+03</pdfrwt>
<totfact> 0.50989014E+02</totfact>
</mgrwt>
</event>
<event>
 4    1  0.1805887E-005  0.1109468E+04  0.7818608E-02  0.9196013E-01
          2   -1    0    0  501    0  0.00000000000E+00  0.00000000000E+00  0.18309474425E+04  0.18309474425E+04  0.25500000000E-02 0.  1.
         -2   -1    0    0    0  501 -0.00000000000E+00 -0.00000000000E+00 -0.16807131587E+03  0.16807131589E+03  0.25500000000E-02 0. -1.
   -5000001    1    1    2    0    0 -0.32400659865E+03  0.28004236288E+03  0.12794471409E+04  0.13721840209E+04  0.25000000000E+03 0.  0.
    5000001    1    1    2    0    0  0.32400659865E+03 -0.28004236288E+03  0.38342898572E+03  0.62683473744E+03  0.25000000000E+03 0.  0.
<mgrwt>
<rscale>  0 0.11094679E+04</rscale>
<asrwt>0</asrwt>
<pdfrwt beam="1">  1        2 0.28168421E+00 0.11094679E+04</pdfrwt>
<pdfrwt beam="2">  1       -2 0.25857126E-01 0.11094679E+04</pdfrwt>
<totfact> 0.11112549E+02</totfact>
</mgrwt>
</event>
<event>
 4    1  0.1805887E-005  0.2454569E+04  0.7818608E-02  0.8419352E-01
          2   -1    0    0  501    0  0.00000000000E+00  0.00000000000E+00  0.26001613348E+04  0.26001613348E+04  0.25500000000E-02 0.  1.
         -2   -1    0    0    0  501 -0.00000000000E+00 -0.00000000000E+00 -0.57928224989E+03  0.57928224989E+03  0.25500000000E-02 0. -1.
   -5000001    1    1    2    0    0  0.45282265436E+03 -0.75788316550E+03  0.20661757093E+04  0.22607559158E+04  0.25000000000E+03 0.  0.
    5000001    1    1    2    0    0 -0.45282265436E+03  0.75788316550E+03 -0.45296624424E+02  0.91868766892E+03  0.25000000000E+03 0.  0.
<mgrwt>
<rscale>  0 0.24545691E+04</rscale>
<asrwt>0</asrwt>
<pdfrwt beam="1">  1        2 0.40002482E+00 0.24545691E+04</pdfrwt>
<pdfrwt beam="2">  1       -2 0.89120346E-01 0.24545691E+04</pdfrwt>
<totfact> 0.29441242E+00</totfact>
</mgrwt>
</event>
<event>
 4    1  0.1805887E-005  0.7439353E+03  0.7818608E-02  0.9644913E-01
          2   -1    0    0  501    0  0.00000000000E+00  0.00000000000E+00  0.45620738094E+03  0.45620738094E+03  0.25500000000E-02 0.  1.
         -2   -1    0    0    0  501 -0.00000000000E+00 -0.00000000000E+00 -0.30328294006E+03  0.30328294007E+03  0.25500000000E-02 0. -1.
   -5000001    1    1    2    0    0  0.23615910329E+03 -0.75638721298E+02  0.19883332449E+03  0.40438475386E+03  0.25000000000E+03 0.  0.
    5000001    1    1    2    0    0 -0.23615910329E+03  0.75638721298E+02 -0.45908883611E+02  0.35510556715E+03  0.25000000000E+03 0.  0.
<mgrwt>
<rscale>  0 0.74393525E+03</rscale>
<asrwt>0</asrwt>
<pdfrwt beam="1">  1        2 0.70185751E-01 0.74393525E+03</pdfrwt>
<pdfrwt beam="2">  1       -2 0.46658914E-01 0.74393525E+03</pdfrwt>
<totfact> 0.30057506E+02</totfact>
</mgrwt>
</event>
<event>
 4    1  0.1805887E-005  0.6361502E+03  0.7818608E-02  0.9833120E-01
         -2   -1    0    0    0  501 -0.00000000000E+00  0.00000000000E+00  0.69895273211E+02  0.69895273258E+02  0.25500000000E-02 0.  1.
          2   -1    0    0  501    0  0.00000000000E+00 -0.00000000000E+00 -0.14474764277E+04  0.14474764277E+04  0.25500000000E-02 0. -1.
   -5000001    1    1    2    0    0  0.17126063836E+03 -0.54114773549E+02 -0.87980575460E+03  0.93210341743E+03  0.25000000000E+03 0.  0.
    5000001    1    1    2    0    0 -0.17126063836E+03  0.54114773549E+02 -0.49777539990E+03  0.58526828353E+03  0.25000000000E+03 0.  0.
<mgrwt>
<rscale>  0 0.63615017E+03</rscale>
<asrwt>0</asrwt>
<pdfrwt beam="1">  1        2 0.22268866E+00 0.63615017E+03</pdfrwt>
<pdfrwt beam="2">  1       -2 0.10753120E-01 0.63615017E+03</pdfrwt>
<totfact> 0.84238085E+02</totfact>
</mgrwt>
</event>
<event>
 4    1  0.1805887E-005  0.7256067E+03  0.7818608E-02  0.9674416E-01
          2   -1    0    0  501    0  0.00000000000E+00  0.00000000000E+00  0.13976819988E+04  0.13976819988E+04  0.25500000000E-02 0.  1.
         -2   -1    0    0    0  501 -0.00000000000E+00 -0.00000000000E+00 -0.94174682208E+02  0.94174682242E+02  0.25500000000E-02 0. -1.
   -5000001    1    1    2    0    0  0.20876142322E+03  0.15982616234E+03  0.65026521899E+03  0.74462781913E+03  0.25000000000E+03 0.  0.
    5000001    1    1    2    0    0 -0.20876142322E+03 -0.15982616234E+03  0.65324209760E+03  0.74722886191E+03  0.25000000000E+03 0.  0.
<mgrwt>
<rscale>  0 0.72560667E+03</rscale>
<asrwt>0</asrwt>
<pdfrwt beam="1">  1        2 0.21502798E+00 0.72560667E+03</pdfrwt>
<pdfrwt beam="2">  1       -2 0.14488414E-01 0.72560667E+03</pdfrwt>
<totfact> 0.54559132E+02</totfact>
</mgrwt>
</event>
<event>
 4    1  0.1805887E-005  0.7378706E+03  0.7818608E-02  0.9654574E-01
         -2   -1    0    0    0  501 -0.00000000000E+00  0.00000000000E+00  0.41686371577E+02  0.41686371655E+02  0.25500000000E-02 0. -1.
          2   -1    0    0  501    0  0.00000000000E+00 -0.00000000000E+00 -0.32651743769E+04  0.32651743769E+04  0.25500000000E-02 0.  1.
   -5000001    1    1    2    0    0  0.16647497429E+03 -0.55996605885E+02 -0.68497074984E+03  0.75002297636E+03  0.25000000000E+03 0.  0.
    5000001    1    1    2    0    0 -0.16647497429E+03  0.55996605885E+02 -0.25385172555E+04  0.25568377722E+04  0.25000000000E+03 0.  0.
<mgrwt>
<rscale>  0 0.73787065E+03</rscale>
<asrwt>0</asrwt>
<pdfrwt beam="1">  1        2 0.50233432E+00 0.73787065E+03</pdfrwt>
<pdfrwt beam="2">  1       -2 0.64132905E-02 0.73787065E+03</pdfrwt>
<totfact> 0.17534284E+02</totfact>
</mgrwt>
</event>
<event>
 4    1  0.1805887E-005  0.6402702E+03  0.7818608E-02  0.9825210E-01
          2   -1    0    0  501    0  0.00000000000E+00  0.00000000000E+00  0.88124602752E+03  0.88124602753E+03  0.25500000000E-02 0.  1.
         -2   -1    0    0    0  501 -0.00000000000E+00 -0.00000000000E+00 -0.11629724031E+03  0.11629724034E+03  0.25500000000E-02 0. -1.
   -5000001    1    1    2    0    0  0.30289122278E+02 -0.19720237703E+03  0.40339302832E+03  0.51481272685E+03  0.25000000000E+03 0.  0.
    5000001    1    1    2    0    0 -0.30289122278E+02  0.19720237703E+03  0.36155575890E+03  0.48273054101E+03  0.25000000000E+03 0.  0.
<mgrwt>
<rscale>  0 0.64027020E+03</rscale>
<asrwt>0</asrwt>
<pdfrwt beam="1">  1        2 0.13557632E+00 0.64027020E+03</pdfrwt>
<pdfrwt beam="2">  1       -2 0.17891882E-01 0.64027020E+03</pdfrwt>
<totfact> 0.78749934E+02</totfact>
</mgrwt>
</event>
<event>
 4    1  0.1805887E-005  0.7603404E+03  0.7818608E-02  0.9619266E-01
         -2   -1    0    0    0  501 -0.00000000000E+00  0.00000000000E+00  0.14314048787E+03  0.14314048789E+03  0.25500000000E-02 0. -1.
          2   -1    0    0  501    0  0.00000000000E+00 -0.00000000000E+00 -0.10097030597E+04  0.10097030597E+04  0.25500000000E-02 0.  1.
   -5000001    1    1    2    0    0  0.28452371131E+03  0.30642254424E+02 -0.41555392025E+03  0.56309657314E+03  0.25000000000E+03 0.  0.
    5000001    1    1    2    0    0 -0.28452371131E+03 -0.30642254424E+02 -0.45100865156E+03  0.58974697442E+03  0.25000000000E+03 0.  0.
<mgrwt>
<rscale>  0 0.76034042E+03</rscale>
<asrwt>0</asrwt>
<pdfrwt beam="1">  1        2 0.15533893E+00 0.76034042E+03</pdfrwt>
<pdfrwt beam="2">  1       -2 0.22021614E-01 0.76034042E+03</pdfrwt>
<totfact> 0.44952790E+02</totfact>
</mgrwt>
</event>
<event>
 4    1  0.1805887E-005  0.6841067E+03  0.7818608E-02  0.9744805E-01
         -2   -1    0    0    0  501 -0.00000000000E+00  0.00000000000E+00  0.72014951773E+02  0.72014951818E+02  0.25500000000E-02 0. -1.
          2   -1    0    0  501    0  0.00000000000E+00 -0.00000000000E+00 -0.16246696405E+04  0.16246696405E+04  0.25500000000E-02 0.  1.
   -5000001    1    1    2    0    0  0.41948575501E+02  0.18083089971E+03 -0.42522232549E+03  0.52704224059E+03  0.25000000000E+03 0.  0.
    5000001    1    1    2    0    0 -0.41948575501E+02 -0.18083089971E+03 -0.11274323632E+04  0.11696423517E+04  0.25000000000E+03 0.  0.
<mgrwt>
<rscale>  0 0.68410673E+03</rscale>
<asrwt>0</asrwt>
<pdfrwt beam="1">  1        2 0.24994915E+00 0.68410673E+03</pdfrwt>
<pdfrwt beam="2">  1       -2 0.11079225E-01 0.68410673E+03</pdfrwt>
<totfact> 0.63871191E+02</totfact>
</mgrwt>
</event>
<event>
 4    1  0.1805887E-005  0.7908034E+03  0.7818608E-02  0.9573425E-01
          2   -1    0    0  501    0  0.00000000000E+00  0.00000000000E+00  0.33042222954E+03  0.33042222955E+03  0.25500000000E-02 0.  1.
         -2   -1    0    0    0  501 -0.00000000000E+00 -0.00000000000E+00 -0.47315979998E+03  0.47315979998E+03  0.25500000000E-02 0. -1.
   -5000001    1    1    2    0    0  0.23645122836E+03 -0.19004368339E+03 -0.11468066090E+03  0.40948435742E+03  0.25000000000E+03 0.  0.
    5000001    1    1    2    0    0 -0.23645122836E+03  0.19004368339E+03 -0.28056909536E+02  0.39409767211E+03  0.25000000000E+03 0.  0.
<mgrwt>
<rscale>  0 0.79080343E+03</rscale>
<asrwt>0</asrwt>
<pdfrwt beam="1">  1        2 0.50834189E-01 0.79080343E+03</pdfrwt>
<pdfrwt beam="2">  1       -2 0.72793815E-01 0.79080343E+03</pdfrwt>
<totfact> 0.16947372E+02</totfact>
</mgrwt>
</event>
<event>
 4    1  0.1805887E-005  0.8478415E+03  0.7818608E-02  0.9493239E-01
         -2   -1    0    0    0  501 -0.00000000000E+00  0.00000000000E+00  0.55389465146E+02  0.55389465205E+02  0.25500000000E-02 0. -1.
          2   -1    0    0  501    0  0.00000000000E+00 -0.00000000000E+00 -0.32444581079E+04  0.32444581079E+04  0.25500000000E-02 0.  1.
   -5000001    1    1    2    0    0 -0.79082812871E+02 -0.31290794336E+03 -0.20390359993E+04  0.20795031327E+04  0.25000000000E+03 0.  0.
    5000001    1    1    2    0    0  0.79082812871E+02  0.31290794336E+03 -0.11500326434E+04  0.12203444404E+04  0.25000000000E+03 0.  0.
<mgrwt>
<rscale>  0 0.84784149E+03</rscale>
<asrwt>0</asrwt>
<pdfrwt beam="1">  1        2 0.49914725E+00 0.84784149E+03</pdfrwt>
<pdfrwt beam="2">  1       -2 0.85214588E-02 0.84784149E+03</pdfrwt>
<totfact> 0.11344024E+02</totfact>
</mgrwt>
</event>
<event>
 4    1  0.1805887E-005  0.6465025E+03  0.7818608E-02  0.9813364E-01
         -2   -1    0    0    0  501 -0.00000000000E+00  0.00000000000E+00  0.72294084005E+02  0.72294084050E+02  0.25500000000E-02 0. -1.
          2   -1    0    0  501    0  0.00000000000E+00 -0.00000000000E+00 -0.14453656338E+04  0.14453656338E+04  0.25500000000E-02 0.  1.
   -5000001    1    1    2    0    0 -0.64693378861E+02  0.18474233348E+03 -0.82887245121E+03  0.88760605193E+03  0.25000000000E+03 0.  0.
    5000001    1    1    2    0    0  0.64693378861E+02 -0.18474233348E+03 -0.54419909862E+03  0.63005366596E+03  0.25000000000E+03 0.  0.
<mgrwt>
<rscale>  0 0.64650254E+03</rscale>
<asrwt>0</asrwt>
<pdfrwt beam="1">  1        2 0.22236392E+00 0.64650254E+03</pdfrwt>
<pdfrwt beam="2">  1       -2 0.11122168E-01 0.64650254E+03</pdfrwt>
<totfact> 0.79891302E+02</totfact>
</mgrwt>
</event>
<event>
 4    1  0.1805887E-005  0.1287584E+04  0.7818608E-02  0.9039470E-01
          2   -1    0    0  501    0  0.00000000000E+00  0.00000000000E+00  0.72591998373E+03  0.72591998374E+03  0.25500000000E-02 0.  1.
         -2   -1    0    0    0  501 -0.00000000000E+00 -0.00000000000E+00 -0.57095563860E+03  0.57095563861E+03  0.25500000000E-02 0. -1.
   -5000001    1    1    2    0    0  0.20930374011E+03 -0.35490994592E+03 -0.35244584248E+03  0.59706548822E+03  0.25000000000E+03 0.  0.
    5000001    1    1    2    0    0 -0.20930374011E+03  0.35490994592E+03  0.50741018761E+03  0.69981013413E+03  0.25000000000E+03 0.  0.
<mgrwt>
<rscale>  0 0.12875840E+04</rscale>
<asrwt>0</asrwt>
<pdfrwt beam="1">  1        2 0.11168000E+00 0.12875840E+04</pdfrwt>
<pdfrwt beam="2">  1       -2 0.87839330E-01 0.12875840E+04</pdfrwt>
<totfact> 0.42903651E+01</totfact>
</mgrwt>
</event>
<event>
 4    1  0.1805887E-005  0.6484127E+03  0.7818608E-02  0.9809762E-01
         -2   -1    0    0    0  501 -0.00000000000E+00  0.00000000000E+00  0.29740775838E+03  0.29740775839E+03  0.25500000000E-02 0. -1.
          2   -1    0    0  501    0  0.00000000000E+00 -0.00000000000E+00 -0.35341963933E+03  0.35341963934E+03  0.25500000000E-02 0.  1.
   -5000001    1    1    2    0    0 -0.14180326404E+03  0.13384943982E+03 -0.95977439365E+02  0.33126350100E+03  0.25000000000E+03 0.  0.
    5000001    1    1    2    0    0  0.14180326404E+03 -0.13384943982E+03  0.39965558407E+02  0.31956389672E+03  0.25000000000E+03 0.  0.
<mgrwt>
<rscale>  0 0.64841265E+03</rscale>
<asrwt>0</asrwt>
<pdfrwt beam="1">  1        2 0.54372252E-01 0.64841265E+03</pdfrwt>
<pdfrwt beam="2">  1       -2 0.45755040E-01 0.64841265E+03</pdfrwt>
<totfact> 0.41772241E+02</totfact>
</mgrwt>
</event>
<event>
 4    1  0.1805887E-005  0.6180645E+03  0.7818608E-02  0.9868621E-01
          2   -1    0    0  501    0  0.00000000000E+00  0.00000000000E+00  0.36180133506E+03  0.36180133507E+03  0.25500000000E-02 0. -1.
         -2   -1    0    0    0  501 -0.00000000000E+00 -0.00000000000E+00 -0.26395958497E+03  0.26395958499E+03  0.25500000000E-02 0.  1.
   -5000001    1    1    2    0    0 -0.15111762823E+03  0.97922770484E+02  0.24632064312E+02  0.30908274804E+03  0.25000000000E+03 0.  0.
    5000001    1    1    2    0    0  0.15111762823E+03 -0.97922770484E+02  0.73209685773E+02  0.31667817202E+03  0.25000000000E+03 0.  0.
<mgrwt>
<rscale>  0 0.61806450E+03</rscale>
<asrwt>0</asrwt>
<pdfrwt beam="1">  1        2 0.55661744E-01 0.61806450E+03</pdfrwt>
<pdfrwt beam="2">  1       -2 0.40609167E-01 0.61806450E+03</pdfrwt>
<totfact> 0.51523789E+02</totfact>
</mgrwt>
</event>
<event>
 4    1  0.1805887E-005  0.6383949E+03  0.7818608E-02  0.9828802E-01
         -2   -1    0    0    0  501 -0.00000000000E+00  0.00000000000E+00  0.10303304158E+03  0.10303304162E+03  0.25500000000E-02 0. -1.
          2   -1    0    0  501    0  0.00000000000E+00 -0.00000000000E+00 -0.98887714862E+03  0.98887714863E+03  0.25500000000E-02 0.  1.
   -5000001    1    1    2    0    0 -0.44485082405E+02  0.15036799549E+03 -0.65098397389E+03  0.71475141895E+03  0.25000000000E+03 0.  0.
    5000001    1    1    2    0    0  0.44485082405E+02 -0.15036799549E+03 -0.23486013315E+03  0.37715877130E+03  0.25000000000E+03 0.  0.
<mgrwt>
<rscale>  0 0.63839493E+03</rscale>
<asrwt>0</asrwt>
<pdfrwt beam="1">  1        2 0.15213494E+00 0.63839493E+03</pdfrwt>
<pdfrwt beam="2">  1       -2 0.15851238E-01 0.63839493E+03</pdfrwt>
<totfact> 0.82314253E+02</totfact>
</mgrwt>
</event>
<event>
 4    1  0.1805887E-005  0.6145222E+03  0.7818608E-02  0.9875727E-01
         -2   -1    0    0    0  501 -0.00000000000E+00  0.00000000000E+00  0.61432561720E+02  0.61432561773E+02  0.25500000000E-02 0. -1.
          2   -1    0    0  501    0  0.00000000000E+00 -0.00000000000E+00 -0.15367968846E+04  0.15367968846E+04  0.25500000000E-02 0.  1.
   -5000001    1    1    2    0    0 -0.88909948907E+02  0.98331168411E+02 -0.10490731674E+04  0.10865673050E+04  0.25000000000E+03 0.  0.
    5000001    1    1    2    0    0  0.88909948907E+02 -0.98331168411E+02 -0.42629115548E+03  0.51166214139E+03  0.25000000000E+03 0.  0.
<mgrwt>
<rscale>  0 0.61452215E+03</rscale>
<asrwt>0</asrwt>
<pdfrwt beam="1">  1        2 0.23643026E+00 0.61452215E+03</pdfrwt>
<pdfrwt beam="2">  1       -2 0.94511645E-02 0.61452215E+03</pdfrwt>
<totfact> 0.92790043E+02</totfact>
</mgrwt>
</event>
<event>
 4    1  0.1805887E-005  0.6006028E+03  0.7818608E-02  0.9904156E-01
         -2   -1    0    0    0  501 -0.00000000000E+00  0.00000000000E+00  0.10180754313E+03  0.10180754316E+03  0.25500000000E-02 0. -1.
          2   -1    0    0  501    0  0.00000000000E+00 -0.00000000000E+00 -0.88579815116E+03  0.88579815116E+03  0.25500000000E-02 0.  1.
   -5000001    1    1    2    0    0 -0.13536196977E+03  0.61777314092E+02 -0.26958579672E+03  0.39663056008E+03  0.25000000000E+03 0.  0.
    5000001    1    1    2    0    0  0.13536196977E+03 -0.61777314092E+02 -0.51440481131E+03  0.59097513424E+03  0.25000000000E+03 0.  0.
<mgrwt>
<rscale>  0 0.60060281E+03</rscale>
<asrwt>0</asrwt>
<pdfrwt beam="1">  1        2 0.13627663E+00 0.60060281E+03</pdfrwt>
<pdfrwt beam="2">  1       -2 0.15662700E-01 0.60060281E+03</pdfrwt>
<totfact> 0.98228462E+02</totfact>
</mgrwt>
</event>
<event>
 4    1  0.1805887E-005  0.1136621E+04  0.7818608E-02  0.9170216E-01
          2   -1    0    0  501    0  0.00000000000E+00  0.00000000000E+00  0.17462552716E+04  0.17462552716E+04  0.25500000000E-02 0.  1.
         -2   -1    0    0    0  501 -0.00000000000E+00 -0.00000000000E+00 -0.18495393153E+03  0.18495393155E+03  0.25500000000E-02 0. -1.
   -5000001    1    1    2    0    0 -0.39772807476E+03  0.24641992905E+03  0.43424518989E+03  0.68555035397E+03  0.25000000000E+03 0.  0.
    5000001    1    1    2    0    0  0.39772807476E+03 -0.24641992905E+03  0.11270561502E+04  0.12456588492E+04  0.25000000000E+03 0.  0.
<mgrwt>
<rscale>  0 0.11366209E+04</rscale>
<asrwt>0</asrwt>
<pdfrwt beam="1">  1        2 0.26865466E+00 0.11366209E+04</pdfrwt>
<pdfrwt beam="2">  1       -2 0.28454451E-01 0.11366209E+04</pdfrwt>
<totfact> 0.10361957E+02</totfact>
</mgrwt>
</event>
<event>
 4    1  0.1805887E-005  0.6057554E+03  0.7818608E-02  0.9893537E-01
         -2   -1    0    0    0  501 -0.00000000000E+00  0.00000000000E+00  0.48036980470E+02  0.48036980537E+02  0.25500000000E-02 0. -1.
          2   -1    0    0  501    0  0.00000000000E+00 -0.00000000000E+00 -0.19096725607E+04  0.19096725607E+04  0.25500000000E-02 0.  1.
   -5000001    1    1    2    0    0 -0.94608063861E+02 -0.12479559974E+03 -0.70901135590E+03  0.76793341525E+03  0.25000000000E+03 0.  0.
    5000001    1    1    2    0    0  0.94608063861E+02  0.12479559974E+03 -0.11526242243E+04  0.11897761260E+04  0.25000000000E+03 0.  0.
<mgrwt>
<rscale>  0 0.60575541E+03</rscale>
<asrwt>0</asrwt>
<pdfrwt beam="1">  1        2 0.29379572E+00 0.60575541E+03</pdfrwt>
<pdfrwt beam="2">  1       -2 0.73903062E-02 0.60575541E+03</pdfrwt>
<totfact> 0.86269936E+02</totfact>
</mgrwt>
</event>
<event>
 4    1  0.1805887E-005  0.8004226E+03  0.7818608E-02  0.9559406E-01
         -2   -1    0    0    0  501 -0.00000000000E+00  0.00000000000E+00  0.18782513081E+03  0.18782513083E+03  0.25500000000E-02 0. -1.
          2   -1    0    0  501    0  0.00000000000E+00 -0.00000000000E+00 -0.85275639039E+03  0.85275639039E+03  0.25500000000E-02 0.  1.
   -5000001    1    1    2    0    0 -0.31027589884E+03 -0.36831475522E+02 -0.34082940524E+03  0.52563521046E+03  0.25000000000E+03 0.  0.
    5000001    1    1    2    0    0  0.31027589884E+03  0.36831475522E+02 -0.32410185433E+03  0.51494631077E+03  0.25000000000E+03 0.  0.
<mgrwt>
<rscale>  0 0.80042259E+03</rscale>
<asrwt>0</asrwt>
<pdfrwt beam="1">  1        2 0.13119329E+00 0.80042259E+03</pdfrwt>
<pdfrwt beam="2">  1       -2 0.28896174E-01 0.80042259E+03</pdfrwt>
<totfact> 0.34889089E+02</totfact>
</mgrwt>
</event>
<event>
 4    1  0.1805887E-005  0.6427984E+03  0.7818608E-02  0.9820387E-01
          2   -1    0    0  501    0  0.00000000000E+00  0.00000000000E+00  0.33048552232E+04  0.33048552232E+04  0.25500000000E-02 0.  1.
         -2   -1    0    0    0  501 -0.00000000000E+00 -0.00000000000E+00 -0.31256266109E+02  0.31256266213E+02  0.25500000000E-02 0. -1.
   -5000001    1    1    2    0    0  0.41779265716E+02  0.12833296128E+03  0.85687499021E+03  0.90274559253E+03  0.25000000000E+03 0.  0.
    5000001    1    1    2    0    0 -0.41779265716E+02 -0.12833296128E+03  0.24167239669E+04  0.24333658969E+04  0.25000000000E+03 0.  0.
<mgrwt>
<rscale>  0 0.64279836E+03</rscale>
<asrwt>0</asrwt>
<pdfrwt beam="1">  1        2 0.50843904E+00 0.64279836E+03</pdfrwt>
<pdfrwt beam="2">  1       -2 0.48086584E-02 0.64279836E+03</pdfrwt>
<totfact> 0.26242963E+02</totfact>
</mgrwt>
</event>
<event>
 4    1  0.1805887E-005  0.6885022E+03  0.7818608E-02  0.9737100E-01
          2   -1    0    0  501    0  0.00000000000E+00  0.00000000000E+00  0.22633599926E+03  0.22633599928E+03  0.25500000000E-02 0.  1.
         -2   -1    0    0    0  501 -0.00000000000E+00 -0.00000000000E+00 -0.52359680114E+03  0.52359680115E+03  0.25500000000E-02 0. -1.
   -5000001    1    1    2    0    0  0.56665580511E+02 -0.22221316782E+03 -0.84939917112E+02  0.34972055914E+03  0.25000000000E+03 0.  0.
    5000001    1    1    2    0    0 -0.56665580511E+02  0.22221316782E+03 -0.21232088476E+03  0.40021224128E+03  0.25000000000E+03 0.  0.
<mgrwt>
<rscale>  0 0.68850216E+03</rscale>
<asrwt>0</asrwt>
<pdfrwt beam="1">  1        2 0.34820923E-01 0.68850216E+03</pdfrwt>
<pdfrwt beam="2">  1       -2 0.80553354E-01 0.68850216E+03</pdfrwt>
<totfact> 0.20683356E+02</totfact>
</mgrwt>
</event>
<event>
 4    1  0.1805887E-005  0.7058354E+03  0.7818608E-02  0.9707305E-01
         -2   -1    0    0    0  501 -0.00000000000E+00  0.00000000000E+00  0.89729656823E+02  0.89729656859E+02  0.25500000000E-02 0. -1.
          2   -1    0    0  501    0  0.00000000000E+00 -0.00000000000E+00 -0.13880685099E+04  0.13880685099E+04  0.25500000000E-02 0.  1.
   -5000001    1    1    2    0    0  0.33507041474E+02 -0.23538475152E+03 -0.80475454461E+03  0.87559041803E+03  0.25000000000E+03 0.  0.
    5000001    1    1    2    0    0 -0.33507041474E+02  0.23538475152E+03 -0.49358430851E+03  0.60220774877E+03  0.25000000000E+03 0.  0.
<mgrwt>
<rscale>  0 0.70583542E+03</rscale>
<asrwt>0</asrwt>
<pdfrwt beam="1">  1        2 0.21354899E+00 0.70583542E+03</pdfrwt>
<pdfrwt beam="2">  1       -2 0.13804564E-01 0.70583542E+03</pdfrwt>
<totfact> 0.59980243E+02</totfact>
</mgrwt>
</event>
<event>
 4    1  0.1805887E-005  0.8673114E+03  0.7818608E-02  0.9467392E-01
         -2   -1    0    0    0  501 -0.00000000000E+00  0.00000000000E+00  0.10146795946E+04  0.10146795946E+04  0.25500000000E-02 0. -1.
          2   -1    0    0  501    0  0.00000000000E+00 -0.00000000000E+00 -0.18533659306E+03  0.18533659308E+03  0.25500000000E-02 0.  1.
   -5000001    1    1    2    0    0  0.16802921136E+03  0.13038279225E+03  0.22537859877E+02  0.32900067403E+03  0.25000000000E+03 0.  0.
    5000001    1    1    2    0    0 -0.16802921136E+03 -0.13038279225E+03  0.80680514162E+03  0.87101551360E+03  0.25000000000E+03 0.  0.
<mgrwt>
<rscale>  0 0.86731138E+03</rscale>
<asrwt>0</asrwt>
<pdfrwt beam="1">  1        2 0.28513322E-01 0.86731138E+03</pdfrwt>
<pdfrwt beam="2">  1       -2 0.15610455E+00 0.86731138E+03</pdfrwt>
<totfact> 0.51041055E+01</totfact>
</mgrwt>
</event>
<event>
 4    1  0.1805887E-005  0.1157758E+04  0.7818608E-02  0.9150656E-01
         -2   -1    0    0    0  501 -0.00000000000E+00  0.00000000000E+00  0.11844285217E+03  0.11844285220E+03  0.25500000000E-02 0. -1.
          2   -1    0    0  501    0  0.00000000000E+00 -0.00000000000E+00 -0.28292192466E+04  0.28292192466E+04  0.25500000000E-02 0.  1.
   -5000001    1    1    2    0    0 -0.11800648280E+02  0.52189713687E+03 -0.13319261654E+04  0.14522545186E+04  0.25000000000E+03 0.  0.
    5000001    1    1    2    0    0  0.11800648280E+02 -0.52189713687E+03 -0.13788502291E+04  0.14954075802E+04  0.25000000000E+03 0.  0.
<mgrwt>
<rscale>  0 0.11577578E+04</rscale>
<asrwt>0</asrwt>
<pdfrwt beam="1">  1        2 0.43526445E+00 0.11577578E+04</pdfrwt>
<pdfrwt beam="2">  1       -2 0.18221979E-01 0.11577578E+04</pdfrwt>
<totfact> 0.55954484E+01</totfact>
</mgrwt>
</event>
<event>
 4    1  0.1805887E-005  0.8105005E+03  0.7818608E-02  0.9544941E-01
          2   -1    0    0  501    0  0.00000000000E+00  0.00000000000E+00  0.88234732876E+02  0.88234732912E+02  0.25500000000E-02 0.  1.
         -2   -1    0    0    0  501 -0.00000000000E+00 -0.00000000000E+00 -0.18612596418E+04  0.18612596418E+04  0.25500000000E-02 0. -1.
   -5000001    1    1    2    0    0  0.25852545128E+03  0.30275887886E+02 -0.44315604949E+03  0.57152368503E+03  0.25000000000E+03 0.  0.
    5000001    1    1    2    0    0 -0.25852545128E+03 -0.30275887886E+02 -0.13298688594E+04  0.13779706897E+04  0.25000000000E+03 0.  0.
<mgrwt>
<rscale>  0 0.81050046E+03</rscale>
<asrwt>0</asrwt>
<pdfrwt beam="1">  1        2 0.13574576E-01 0.81050046E+03</pdfrwt>
<pdfrwt beam="2">  1       -2 0.28634761E+00 0.81050046E+03</pdfrwt>
<totfact> 0.17998221E+01</totfact>
</mgrwt>
</event>
<event>
 4    1  0.1805887E-005  0.1008953E+04  0.7818608E-02  0.9298780E-01
         -2   -1    0    0    0  501 -0.00000000000E+00  0.00000000000E+00  0.18868381224E+03  0.18868381225E+03  0.25500000000E-02 0. -1.
          2   -1    0    0  501    0  0.00000000000E+00 -0.00000000000E+00 -0.13487984248E+04  0.13487984248E+04  0.25500000000E-02 0.  1.
   -5000001    1    1    2    0    0 -0.22069921681E+03  0.32800509858E+03 -0.29213249612E+03  0.55148606899E+03  0.25000000000E+03 0.  0.
    5000001    1    1    2    0    0  0.22069921681E+03 -0.32800509858E+03 -0.86798211649E+03  0.98599616811E+03  0.25000000000E+03 0.  0.
<mgrwt>
<rscale>  0 0.10089528E+04</rscale>
<asrwt>0</asrwt>
<pdfrwt beam="1">  1        2 0.20750744E+00 0.10089528E+04</pdfrwt>
<pdfrwt beam="2">  1       -2 0.29028280E-01 0.10089528E+04</pdfrwt>
<totfact> 0.16828695E+02</totfact>
</mgrwt>
</event>
<event>
 4    1  0.1805887E-005  0.6243221E+03  0.7818608E-02  0.9856192E-01
         -2   -1    0    0    0  501 -0.00000000000E+00  0.00000000000E+00  0.80298285796E+02  0.80298285836E+02  0.25500000000E-02 0. -1.
          2   -1    0    0  501    0  0.00000000000E+00 -0.00000000000E+00 -0.12135318556E+04  0.12135318556E+04  0.25500000000E-02 0.  1.
   -5000001    1    1    2    0    0 -0.17300989725E+03 -0.56848730209E+01 -0.42037419907E+03  0.51882483515E+03  0.25000000000E+03 0.  0.
    5000001    1    1    2    0    0  0.17300989725E+03  0.56848730209E+01 -0.71285937073E+03  0.77500530628E+03  0.25000000000E+03 0.  0.
<mgrwt>
<rscale>  0 0.62432212E+03</rscale>
<asrwt>0</asrwt>
<pdfrwt beam="1">  1        2 0.18669720E+00 0.62432212E+03</pdfrwt>
<pdfrwt beam="2">  1       -2 0.12353583E-01 0.62432212E+03</pdfrwt>
<totfact> 0.91224401E+02</totfact>
</mgrwt>
</event>
<event>
 4    1  0.1805887E-005  0.6572821E+03  0.7818608E-02  0.9793210E-01
         -2   -1    0    0    0  501 -0.00000000000E+00  0.00000000000E+00  0.10294264246E+03  0.10294264250E+03  0.25500000000E-02 0. -1.
          2   -1    0    0  501    0  0.00000000000E+00 -0.00000000000E+00 -0.10491760372E+04  0.10491760372E+04  0.25500000000E-02 0.  1.
   -5000001    1    1    2    0    0 -0.55175934570E+02  0.12974629978E+03 -0.75371804877E+03  0.80651682134E+03  0.25000000000E+03 0.  0.
    5000001    1    1    2    0    0  0.55175934570E+02 -0.12974629978E+03 -0.19251534594E+03  0.34560185833E+03  0.25000000000E+03 0.  0.
<mgrwt>
<rscale>  0 0.65728214E+03</rscale>
<asrwt>0</asrwt>
<pdfrwt beam="1">  1        2 0.16141169E+00 0.65728214E+03</pdfrwt>
<pdfrwt beam="2">  1       -2 0.15837330E-01 0.65728214E+03</pdfrwt>
<totfact> 0.75490761E+02</totfact>
</mgrwt>
</event>
<event>
 4    1  0.1805887E-005  0.8211242E+03  0.7818608E-02  0.9529934E-01
         -2   -1    0    0    0  501 -0.00000000000E+00  0.00000000000E+00  0.52113060805E+03  0.52113060805E+03  0.25500000000E-02 0. -1.
          2   -1    0    0  501    0  0.00000000000E+00 -0.00000000000E+00 -0.32345298253E+03  0.32345298254E+03  0.25500000000E-02 0.  1.
   -5000001    1    1    2    0    0 -0.12095557948E+03 -0.27205900899E+03 -0.36896915231E+02  0.39052239236E+03  0.25000000000E+03 0.  0.
    5000001    1    1    2    0    0  0.12095557948E+03  0.27205900899E+03  0.23457454075E+03  0.45406119824E+03  0.25000000000E+03 0.  0.
<mgrwt>
<rscale>  0 0.82112423E+03</rscale>
<asrwt>0</asrwt>
<pdfrwt beam="1">  1        2 0.49761997E-01 0.82112423E+03</pdfrwt>
<pdfrwt beam="2">  1       -2 0.80173940E-01 0.82112423E+03</pdfrwt>
<totfact> 0.13981021E+02</totfact>
</mgrwt>
</event>
<event>
 4    1  0.1805887E-005  0.7467953E+03  0.7818608E-02  0.9640391E-01
         -2   -1    0    0    0  501 -0.00000000000E+00  0.00000000000E+00  0.62083130309E+02  0.62083130362E+02  0.25500000000E-02 0. -1.
          2   -1    0    0  501    0  0.00000000000E+00 -0.00000000000E+00 -0.22457924201E+04  0.22457924201E+04  0.25500000000E-02 0.  1.
   -5000001    1    1    2    0    0  0.82288552812E+02 -0.23822807095E+03 -0.73409412788E+03  0.81542517026E+03  0.25000000000E+03 0.  0.
    5000001    1    1    2    0    0 -0.82288552812E+02  0.23822807095E+03 -0.14496151619E+04  0.14924503802E+04  0.25000000000E+03 0.  0.
<mgrwt>
<rscale>  0 0.74679535E+03</rscale>
<asrwt>0</asrwt>
<pdfrwt beam="1">  1        2 0.34550646E+00 0.74679535E+03</pdfrwt>
<pdfrwt beam="2">  1       -2 0.95512526E-02 0.74679535E+03</pdfrwt>
<totfact> 0.37083406E+02</totfact>
</mgrwt>
</event>
<event>
 4    1  0.1805887E-005  0.8768910E+03  0.7818608E-02  0.9454939E-01
         -2   -1    0    0    0  501 -0.00000000000E+00  0.00000000000E+00  0.48010235874E+02  0.48010235941E+02  0.25500000000E-02 0. -1.
          2   -1    0    0  501    0  0.00000000000E+00 -0.00000000000E+00 -0.40040309329E+04  0.40040309329E+04  0.25500000000E-02 0.  1.
   -5000001    1    1    2    0    0 -0.25780645782E+03 -0.21438891389E+03 -0.25859322928E+04  0.26195367146E+04  0.25000000000E+03 0.  0.
    5000001    1    1    2    0    0  0.25780645782E+03  0.21438891389E+03 -0.13700884043E+04  0.14325044543E+04  0.25000000000E+03 0.  0.
<mgrwt>
<rscale>  0 0.87689103E+03</rscale>
<asrwt>0</asrwt>
<pdfrwt beam="1">  1        2 0.61600450E+00 0.87689103E+03</pdfrwt>
<pdfrwt beam="2">  1       -2 0.73861933E-02 0.87689103E+03</pdfrwt>
<totfact> 0.40985734E+01</totfact>
</mgrwt>
</event>
<event>
 4    1  0.1805887E-005  0.8604718E+03  0.7818608E-02  0.9476389E-01
          2   -1    0    0  501    0  0.00000000000E+00  0.00000000000E+00  0.20212211906E+04  0.20212211906E+04  0.25500000000E-02 0.  1.
         -2   -1    0    0    0  501 -0.00000000000E+00 -0.00000000000E+00 -0.91579749661E+02  0.91579749697E+02  0.25500000000E-02 0. -1.
   -5000001    1    1    2    0    0 -0.29037600321E+03 -0.17089697320E+03  0.11987794853E+04  0.12700772627E+04  0.25000000000E+03 0.  0.
    5000001    1    1    2    0    0  0.29037600321E+03  0.17089697320E+03  0.73086195562E+03  0.84272367765E+03  0.25000000000E+03 0.  0.
<mgrwt>
<rscale>  0 0.86047180E+03</rscale>
<asrwt>0</asrwt>
<pdfrwt beam="1">  1        2 0.31095713E+00 0.86047180E+03</pdfrwt>
<pdfrwt beam="2">  1       -2 0.14089191E-01 0.86047180E+03</pdfrwt>
<totfact> 0.25708181E+02</totfact>
</mgrwt>
</event>
<event>
 4    1  0.1805887E-005  0.9683054E+03  0.7818608E-02  0.9344007E-01
          2   -1    0    0  501    0  0.00000000000E+00  0.00000000000E+00  0.26762195640E+04  0.26762195640E+04  0.25500000000E-02 0.  1.
         -2   -1    0    0    0  501 -0.00000000000E+00 -0.00000000000E+00 -0.87587664274E+02  0.87587664311E+02  0.25500000000E-02 0. -1.
   -5000001    1    1    2    0    0 -0.30560136515E+03  0.77826396664E+02  0.20626120450E+04  0.21015036499E+04  0.25000000000E+03 0.  0.
    5000001    1    1    2    0    0  0.30560136515E+03 -0.77826396664E+02  0.52601985473E+03  0.66230357841E+03  0.25000000000E+03 0.  0.
<mgrwt>
<rscale>  0 0.96830537E+03</rscale>
<asrwt>0</asrwt>
<pdfrwt beam="1">  1        2 0.41172607E+00 0.96830537E+03</pdfrwt>
<pdfrwt beam="2">  1       -2 0.13475026E-01 0.96830537E+03</pdfrwt>
<totfact> 0.11748629E+02</totfact>
</mgrwt>
</event>
<event>
 4    1  0.1805887E-005  0.1119334E+04  0.7818608E-02  0.9186550E-01
          2   -1    0    0  501    0  0.00000000000E+00  0.00000000000E+00  0.10483149242E+04  0.10483149242E+04  0.25500000000E-02 0.  1.
         -2   -1    0    0    0  501 -0.00000000000E+00 -0.00000000000E+00 -0.29879090370E+03  0.29879090371E+03  0.25500000000E-02 0. -1.
   -5000001    1    1    2    0    0 -0.49249402287E+03  0.87759062656E+02  0.34853401162E+03  0.65895976576E+03  0.25000000000E+03 0.  0.
    5000001    1    1    2    0    0  0.49249402287E+03 -0.87759062656E+02  0.40099000890E+03  0.68814606216E+03  0.25000000000E+03 0.  0.
<mgrwt>
<rscale>  0 0.11193337E+04</rscale>
<asrwt>0</asrwt>
<pdfrwt beam="1">  1        2 0.16127922E+00 0.11193337E+04</pdfrwt>
<pdfrwt beam="2">  1       -2 0.45967832E-01 0.11193337E+04</pdfrwt>
<totfact> 0.10438423E+02</totfact>
</mgrwt>
</event>
<event>
 4    1  0.1805887E-005  0.5790305E+03  0.7818608E-02  0.9949892E-01
         -2   -1    0    0    0  501 -0.00000000000E+00  0.00000000000E+00  0.15926946255E+04  0.15926946255E+04  0.25500000000E-02 0. -1.
          2   -1    0    0  501    0  0.00000000000E+00 -0.00000000000E+00 -0.52627205002E+02  0.52627205063E+02  0.25500000000E-02 0.  1.
   -5000001    1    1    2    0    0 -0.60157704915E+02 -0.95925174173E+02  0.10319846944E+04  0.10678543899E+04  0.25000000000E+03 0.  0.
    5000001    1    1    2    0    0  0.60157704915E+02  0.95925174173E+02  0.50808272612E+03  0.57746744071E+03  0.25000000000E+03 0.  0.
<mgrwt>
<rscale>  0 0.57903045E+03</rscale>
<asrwt>0</asrwt>
<pdfrwt beam="1">  1        2 0.80964949E-02 0.57903045E+03</pdfrwt>
<pdfrwt beam="2">  1       -2 0.24502989E+00 0.57903045E+03</pdfrwt>
<totfact> 0.62514461E+01</totfact>
</mgrwt>
</event>
<event>
 4    1  0.1805887E-005  0.1167986E+04  0.7818608E-02  0.9141349E-01
          2   -1    0    0  501    0  0.00000000000E+00  0.00000000000E+00  0.33949557925E+03  0.33949557926E+03  0.25500000000E-02 0.  1.
         -2   -1    0    0    0  501 -0.00000000000E+00 -0.00000000000E+00 -0.10045730201E+04  0.10045730201E+04  0.25500000000E-02 0. -1.
   -5000001    1    1    2    0    0  0.39252716368E+03  0.92776189424E+02 -0.72424109276E+03  0.86585804610E+03  0.25000000000E+03 0.  0.
    5000001    1    1    2    0    0 -0.39252716368E+03 -0.92776189424E+02  0.59163651909E+02  0.47821055327E+03  0.25000000000E+03 0.  0.
<mgrwt>
<rscale>  0 0.11679865E+04</rscale>
<asrwt>0</asrwt>
<pdfrwt beam="1">  1        2 0.52230089E-01 0.11679865E+04</pdfrwt>
<pdfrwt beam="2">  1       -2 0.15454969E+00 0.11679865E+04</pdfrwt>
<totfact> 0.26127911E+01</totfact>
</mgrwt>
</event>
<event>
 4    1  0.1805887E-005  0.7665763E+03  0.7818608E-02  0.9609698E-01
         -2   -1    0    0    0  501 -0.00000000000E+00  0.00000000000E+00  0.10246129467E+03  0.10246129471E+03  0.25500000000E-02 0. -1.
          2   -1    0    0  501    0  0.00000000000E+00 -0.00000000000E+00 -0.14338076682E+04  0.14338076682E+04  0.25500000000E-02 0.  1.
   -5000001    1    1    2    0    0 -0.27090262304E+03  0.80793229759E+02 -0.53132585417E+03  0.65170771091E+03  0.25000000000E+03 0.  0.
    5000001    1    1    2    0    0  0.27090262304E+03 -0.80793229759E+02 -0.80002051933E+03  0.88456125198E+03  0.25000000000E+03 0.  0.
<mgrwt>
<rscale>  0 0.76657626E+03</rscale>
<asrwt>0</asrwt>
<pdfrwt beam="1">  1        2 0.22058578E+00 0.76657626E+03</pdfrwt>
<pdfrwt beam="2">  1       -2 0.15763277E-01 0.76657626E+03</pdfrwt>
<totfact> 0.45036906E+02</totfact>
</mgrwt>
</event>
<event>
 4    1  0.1805887E-005  0.9134351E+03  0.7818608E-02  0.9408941E-01
          2   -1    0    0  501    0  0.00000000000E+00  0.00000000000E+00  0.12897775116E+04  0.12897775116E+04  0.25500000000E-02 0.  1.
         -2   -1    0    0    0  501 -0.00000000000E+00 -0.00000000000E+00 -0.16172628874E+03  0.16172628876E+03  0.25500000000E-02 0. -1.
   -5000001    1    1    2    0    0  0.15401073380E+03 -0.33148251434E+03  0.74162378638E+03  0.86377416259E+03  0.25000000000E+03 0.  0.
    5000001    1    1    2    0    0 -0.15401073380E+03  0.33148251434E+03  0.38642743644E+03  0.58772963774E+03  0.25000000000E+03 0.  0.
<mgrwt>
<rscale>  0 0.91343512E+03</rscale>
<asrwt>0</asrwt>
<pdfrwt beam="1">  1        2 0.19842731E+00 0.91343512E+03</pdfrwt>
<pdfrwt beam="2">  1       -2 0.24880968E-01 0.91343512E+03</pdfrwt>
<totfact> 0.24272838E+02</totfact>
</mgrwt>
</event>
<event>
 4    1  0.1805887E-005  0.8500202E+03  0.7818608E-02  0.9490310E-01
          2   -1    0    0  501    0  0.00000000000E+00  0.00000000000E+00  0.21579359344E+04  0.21579359344E+04  0.25500000000E-02 0.  1.
         -2   -1    0    0    0  501 -0.00000000000E+00 -0.00000000000E+00 -0.83706651607E+02  0.83706651646E+02  0.25500000000E-02 0. -1.
   -5000001    1    1    2    0    0  0.31467355008E+03  0.36937971978E+01  0.14015827480E+04  0.14580697126E+04  0.25000000000E+03 0.  0.
    5000001    1    1    2    0    0 -0.31467355008E+03 -0.36937971978E+01  0.67264653478E+03  0.78357287345E+03  0.25000000000E+03 0.  0.
<mgrwt>
<rscale>  0 0.85002022E+03</rscale>
<asrwt>0</asrwt>
<pdfrwt beam="1">  1        2 0.33199012E+00 0.85002022E+03</pdfrwt>
<pdfrwt beam="2">  1       -2 0.12877947E-01 0.85002022E+03</pdfrwt>
<totfact> 0.25158256E+02</totfact>
</mgrwt>
</event>
<event>
 4    1  0.1805887E-005  0.7905089E+03  0.7818608E-02  0.9573858E-01
         -2   -1    0    0    0  501 -0.00000000000E+00  0.00000000000E+00  0.43649968395E+03  0.43649968395E+03  0.25500000000E-02 0. -1.
          2   -1    0    0  501    0  0.00000000000E+00 -0.00000000000E+00 -0.35790652300E+03  0.35790652301E+03  0.25500000000E-02 0.  1.
   -5000001    1    1    2    0    0  0.12167746336E+03  0.26601039150E+03  0.13006992494E+03  0.40618360239E+03  0.25000000000E+03 0.  0.
    5000001    1    1    2    0    0 -0.12167746336E+03 -0.26601039150E+03 -0.51476763999E+02  0.38822260458E+03  0.25000000000E+03 0.  0.
<mgrwt>
<rscale>  0 0.79050891E+03</rscale>
<asrwt>0</asrwt>
<pdfrwt beam="1">  1        2 0.55062542E-01 0.79050891E+03</pdfrwt>
<pdfrwt beam="2">  1       -2 0.67153797E-01 0.79050891E+03</pdfrwt>
<totfact> 0.18484492E+02</totfact>
</mgrwt>
</event>
<event>
 4    1  0.1805887E-005  0.6465466E+03  0.7818608E-02  0.9813281E-01
         -2   -1    0    0    0  501 -0.00000000000E+00  0.00000000000E+00  0.70415244238E+02  0.70415244284E+02  0.25500000000E-02 0. -1.
          2   -1    0    0  501    0  0.00000000000E+00 -0.00000000000E+00 -0.14841333250E+04  0.14841333250E+04  0.25500000000E-02 0.  1.
   -5000001    1    1    2    0    0  0.16194388185E+03 -0.96479054567E+02 -0.90028275409E+03  0.95317525469E+03  0.25000000000E+03 0.  0.
    5000001    1    1    2    0    0 -0.16194388185E+03  0.96479054567E+02 -0.51343532670E+03  0.60137331463E+03  0.25000000000E+03 0.  0.
<mgrwt>
<rscale>  0 0.64654655E+03</rscale>
<asrwt>0</asrwt>
<pdfrwt beam="1">  1        2 0.22832818E+00 0.64654655E+03</pdfrwt>
<pdfrwt beam="2">  1       -2 0.10833116E-01 0.64654655E+03</pdfrwt>
<totfact> 0.79365706E+02</totfact>
</mgrwt>
</event>
<event>
 4    1  0.1805887E-005  0.7640300E+03  0.7818608E-02  0.9613593E-01
          2   -1    0    0  501    0  0.00000000000E+00  0.00000000000E+00  0.13885672780E+04  0.13885672780E+04  0.25500000000E-02 0.  1.
         -2   -1    0    0    0  501 -0.00000000000E+00 -0.00000000000E+00 -0.10509785907E+03  0.10509785911E+03  0.25500000000E-02 0. -1.
   -5000001    1    1    2    0    0  0.25964571917E+03 -0.53302718697E+02  0.86616097330E+03  0.93967649272E+03  0.25000000000E+03 0.  0.
    5000001    1    1    2    0    0 -0.25964571917E+03  0.53302718697E+02  0.41730844558E+03  0.55398864434E+03  0.25000000000E+03 0.  0.
<mgrwt>
<rscale>  0 0.76402997E+03</rscale>
<asrwt>0</asrwt>
<pdfrwt beam="1">  1        2 0.21362573E+00 0.76402997E+03</pdfrwt>
<pdfrwt beam="2">  1       -2 0.16168902E-01 0.76402997E+03</pdfrwt>
<totfact> 0.45748062E+02</totfact>
</mgrwt>
</event>
<event>
 4    1  0.1805887E-005  0.7021055E+03  0.7818608E-02  0.9713638E-01
         -2   -1    0    0    0  501 -0.00000000000E+00  0.00000000000E+00  0.47969355242E+02  0.47969355310E+02  0.25500000000E-02 0. -1.
          2   -1    0    0  501    0  0.00000000000E+00 -0.00000000000E+00 -0.25690993689E+04  0.25690993689E+04  0.25500000000E-02 0.  1.
   -5000001    1    1    2    0    0 -0.13067364804E+03  0.19640819862E+03 -0.99473015651E+03  0.10524447097E+04  0.25000000000E+03 0.  0.
    5000001    1    1    2    0    0  0.13067364804E+03 -0.19640819862E+03 -0.15263998572E+04  0.15646240145E+04  0.25000000000E+03 0.  0.
<mgrwt>
<rscale>  0 0.70210552E+03</rscale>
<asrwt>0</asrwt>
<pdfrwt beam="1">  1        2 0.39524595E+00 0.70210552E+03</pdfrwt>
<pdfrwt beam="2">  1       -2 0.73799029E-02 0.70210552E+03</pdfrwt>
<totfact> 0.37100695E+02</totfact>
</mgrwt>
</event>
<event>
 4    1  0.1805887E-005  0.1033221E+04  0.7818608E-02  0.9272841E-01
         -2   -1    0    0    0  501 -0.00000000000E+00  0.00000000000E+00  0.21595846683E+03  0.21595846685E+03  0.25500000000E-02 0. -1.
          2   -1    0    0  501    0  0.00000000000E+00 -0.00000000000E+00 -0.12358234350E+04  0.12358234350E+04  0.25500000000E-02 0.  1.
   -5000001    1    1    2    0    0 -0.32197491689E+03  0.16873053467E+03 -0.13225329798E+03  0.46057439710E+03  0.25000000000E+03 0.  0.
    5000001    1    1    2    0    0  0.32197491689E+03 -0.16873053467E+03 -0.88761167020E+03  0.99120750476E+03  0.25000000000E+03 0.  0.
<mgrwt>
<rscale>  0 0.10332212E+04</rscale>
<asrwt>0</asrwt>
<pdfrwt beam="1">  1        2 0.19012668E+00 0.10332212E+04</pdfrwt>
<pdfrwt beam="2">  1       -2 0.33224380E-01 0.10332212E+04</pdfrwt>
<totfact> 0.15186445E+02</totfact>
</mgrwt>
</event>
<event>
 4    1  0.1805887E-005  0.9275876E+03  0.7818608E-02  0.9391738E-01
         -2   -1    0    0    0  501 -0.00000000000E+00  0.00000000000E+00  0.37747900156E+03  0.37747900157E+03  0.25500000000E-02 0. -1.
          2   -1    0    0  501    0  0.00000000000E+00 -0.00000000000E+00 -0.56984544257E+03  0.56984544257E+03  0.25500000000E-02 0.  1.
   -5000001    1    1    2    0    0  0.22456323688E+03 -0.30827707217E+03 -0.98789894597E+01  0.45613703535E+03  0.25000000000E+03 0.  0.
    5000001    1    1    2    0    0 -0.22456323688E+03  0.30827707217E+03 -0.18248745155E+03  0.49118740879E+03  0.25000000000E+03 0.  0.
<mgrwt>
<rscale>  0 0.92758760E+03</rscale>
<asrwt>0</asrwt>
<pdfrwt beam="1">  1        2 0.87668530E-01 0.92758760E+03</pdfrwt>
<pdfrwt beam="2">  1       -2 0.58073693E-01 0.92758760E+03</pdfrwt>
<totfact> 0.14679761E+02</totfact>
</mgrwt>
</event>
<event>
 4    1  0.1805887E-005  0.8575737E+03  0.7818608E-02  0.9480228E-01
          2   -1    0    0  501    0  0.00000000000E+00  0.00000000000E+00  0.10084609140E+04  0.10084609140E+04  0.25500000000E-02 0.  1.
         -2   -1    0    0    0  501 -0.00000000000E+00 -0.00000000000E+00 -0.18231561407E+03  0.18231561409E+03  0.25500000000E-02 0. -1.
   -5000001    1    1    2    0    0  0.97200479813E+00 -0.26379386924E+03  0.97137482379E+02  0.37619654534E+03  0.25000000000E+03 0.  0.
    5000001    1    1    2    0    0 -0.97200479813E+00  0.26379386924E+03  0.72900781756E+03  0.81457998276E+03  0.25000000000E+03 0.  0.
<mgrwt>
<rscale>  0 0.85757372E+03</rscale>
<asrwt>0</asrwt>
<pdfrwt beam="1">  1        2 0.15514784E+00 0.85757372E+03</pdfrwt>
<pdfrwt beam="2">  1       -2 0.28048555E-01 0.85757372E+03</pdfrwt>
<totfact> 0.28974726E+02</totfact>
</mgrwt>
</event>
<event>
 4    1  0.1805887E-005  0.6296516E+03  0.7818608E-02  0.9845729E-01
          2   -1    0    0  501    0  0.00000000000E+00  0.00000000000E+00  0.80692036863E+03  0.80692036863E+03  0.25500000000E-02 0.  1.
         -2   -1    0    0    0  501 -0.00000000000E+00 -0.00000000000E+00 -0.12283155625E+03  0.12283155628E+03  0.25500000000E-02 0. -1.
   -5000001    1    1    2    0    0 -0.63628508453E+02 -0.10117976699E+02  0.75990305520E+02  0.26911983776E+03  0.25000000000E+03 0.  0.
    5000001    1    1    2    0    0  0.63628508453E+02  0.10117976699E+02  0.60809850685E+03  0.66063208715E+03  0.25000000000E+03 0.  0.
<mgrwt>
<rscale>  0 0.62965160E+03</rscale>
<asrwt>0</asrwt>
<pdfrwt beam="1">  1        2 0.12414160E+00 0.62965160E+03</pdfrwt>
<pdfrwt beam="2">  1       -2 0.18897163E-01 0.62965160E+03</pdfrwt>
<totfact> 0.80713371E+02</totfact>
</mgrwt>
</event>
<event>
 4    1  0.1805887E-005  0.9297415E+03  0.7818608E-02  0.9389148E-01
         -2   -1    0    0    0  501 -0.00000000000E+00  0.00000000000E+00  0.38649730717E+03  0.38649730718E+03  0.25500000000E-02 0. -1.
          2   -1    0    0  501    0  0.00000000000E+00 -0.00000000000E+00 -0.55913662943E+03  0.55913662943E+03  0.25500000000E-02 0.  1.
   -5000001    1    1    2    0    0 -0.12047031494E+03 -0.36684551141E+03 -0.15467012201E+03  0.48529534581E+03  0.25000000000E+03 0.  0.
    5000001    1    1    2    0    0  0.12047031494E+03  0.36684551141E+03 -0.17969200245E+02  0.46033859080E+03  0.25000000000E+03 0.  0.
<mgrwt>
<rscale>  0 0.92974147E+03</rscale>
<asrwt>0</asrwt>
<pdfrwt beam="1">  1        2 0.86021019E-01 0.92974147E+03</pdfrwt>
<pdfrwt beam="2">  1       -2 0.59461124E-01 0.92974147E+03</pdfrwt>
<totfact> 0.14286318E+02</totfact>
</mgrwt>
</event>
<event>
 4    1  0.1805887E-005  0.7054674E+03  0.7818608E-02  0.9707928E-01
         -2   -1    0    0    0  501 -0.00000000000E+00  0.00000000000E+00  0.53902848039E+03  0.53902848040E+03  0.25500000000E-02 0. -1.
          2   -1    0    0  501    0  0.00000000000E+00 -0.00000000000E+00 -0.23082465551E+03  0.23082465552E+03  0.25500000000E-02 0.  1.
   -5000001    1    1    2    0    0 -0.13494448174E+03 -0.27025160965E+02 -0.72137169110E+02  0.29435377294E+03  0.25000000000E+03 0.  0.
    5000001    1    1    2    0    0  0.13494448174E+03  0.27025160965E+02  0.38034099400E+03  0.47549936298E+03  0.25000000000E+03 0.  0.
<mgrwt>
<rscale>  0 0.70546740E+03</rscale>
<asrwt>0</asrwt>
<pdfrwt beam="1">  1        2 0.35511486E-01 0.70546740E+03</pdfrwt>
<pdfrwt beam="2">  1       -2 0.82927458E-01 0.70546740E+03</pdfrwt>
<totfact> 0.18940781E+02</totfact>
</mgrwt>
</event>
<event>
 4    1  0.1805887E-005  0.8458883E+03  0.7818608E-02  0.9495872E-01
          2   -1    0    0  501    0  0.00000000000E+00  0.00000000000E+00  0.11826207554E+04  0.11826207554E+04  0.25500000000E-02 0.  1.
         -2   -1    0    0    0  501 -0.00000000000E+00 -0.00000000000E+00 -0.15125878082E+03  0.15125878084E+03  0.25500000000E-02 0. -1.
   -5000001    1    1    2    0    0 -0.11041565849E+03  0.32039957417E+03  0.45391430064E+03  0.61918147348E+03  0.25000000000E+03 0.  0.
    5000001    1    1    2    0    0  0.11041565849E+03 -0.32039957417E+03  0.57744767391E+03  0.71469806273E+03  0.25000000000E+03 0.  0.
<mgrwt>
<rscale>  0 0.84588835E+03</rscale>
<asrwt>0</asrwt>
<pdfrwt beam="1">  1        2 0.18194166E+00 0.84588835E+03</pdfrwt>
<pdfrwt beam="2">  1       -2 0.23270581E-01 0.84588835E+03</pdfrwt>
<totfact> 0.31772778E+02</totfact>
</mgrwt>
</event>
<event>
 4    1  0.1805887E-005  0.1119651E+04  0.7818608E-02  0.9186248E-01
          2   -1    0    0  501    0  0.00000000000E+00  0.00000000000E+00  0.24724218128E+04  0.24724218129E+04  0.25500000000E-02 0.  1.
         -2   -1    0    0    0  501 -0.00000000000E+00 -0.00000000000E+00 -0.12676011949E+03  0.12676011952E+03  0.25500000000E-02 0. -1.
   -5000001    1    1    2    0    0  0.97960375276E+02 -0.46640310889E+03  0.15307846923E+04  0.16226305400E+04  0.25000000000E+03 0.  0.
    5000001    1    1    2    0    0 -0.97960375276E+02  0.46640310889E+03  0.81487700104E+03  0.97655139236E+03  0.25000000000E+03 0.  0.
<mgrwt>
<rscale>  0 0.11196508E+04</rscale>
<asrwt>0</asrwt>
<pdfrwt beam="1">  1        2 0.38037254E+00 0.11196508E+04</pdfrwt>
<pdfrwt beam="2">  1       -2 0.19501559E-01 0.11196508E+04</pdfrwt>
<totfact> 0.80653567E+01</totfact>
</mgrwt>
</event>
<event>
 4    1  0.1805887E-005  0.6459813E+03  0.7818608E-02  0.9814349E-01
         -2   -1    0    0    0  501 -0.00000000000E+00  0.00000000000E+00  0.31610080627E+02  0.31610080730E+02  0.25500000000E-02 0. -1.
          2   -1    0    0  501    0  0.00000000000E+00 -0.00000000000E+00 -0.33003066114E+04  0.33003066114E+04  0.25500000000E-02 0.  1.
   -5000001    1    1    2    0    0 -0.17922847249E+03  0.92703631300E+01 -0.11286049350E+04  0.11698110464E+04  0.25000000000E+03 0.  0.
    5000001    1    1    2    0    0  0.17922847249E+03 -0.92703631300E+01 -0.21400915957E+04  0.21621056457E+04  0.25000000000E+03 0.  0.
<mgrwt>
<rscale>  0 0.64598129E+03</rscale>
<asrwt>0</asrwt>
<pdfrwt beam="1">  1        2 0.50773921E+00 0.64598129E+03</pdfrwt>
<pdfrwt beam="2">  1       -2 0.48630920E-02 0.64598129E+03</pdfrwt>
<totfact> 0.25953834E+02</totfact>
</mgrwt>
</event>
<event>
 4    1  0.1805887E-005  0.8309454E+03  0.7818608E-02  0.9516274E-01
         -2   -1    0    0    0  501 -0.00000000000E+00  0.00000000000E+00  0.38503011504E+03  0.38503011505E+03  0.25500000000E-02 0. -1.
          2   -1    0    0  501    0  0.00000000000E+00 -0.00000000000E+00 -0.44832227247E+03  0.44832227248E+03  0.25500000000E-02 0.  1.
   -5000001    1    1    2    0    0  0.31724262159E+03  0.94969055928E+02 -0.53052075912E+02  0.41830195469E+03  0.25000000000E+03 0.  0.
    5000001    1    1    2    0    0 -0.31724262159E+03 -0.94969055928E+02 -0.10240081523E+02  0.41505043284E+03  0.25000000000E+03 0.  0.
<mgrwt>
<rscale>  0 0.83094543E+03</rscale>
<asrwt>0</asrwt>
<pdfrwt beam="1">  1        2 0.68972657E-01 0.83094543E+03</pdfrwt>
<pdfrwt beam="2">  1       -2 0.59235402E-01 0.83094543E+03</pdfrwt>
<totfact> 0.18709737E+02</totfact>
</mgrwt>
</event>
<event>
 4    1  0.1805887E-005  0.6203119E+03  0.7818608E-02  0.9864139E-01
          2   -1    0    0  501    0  0.00000000000E+00  0.00000000000E+00  0.13657928304E+03  0.13657928307E+03  0.25500000000E-02 0.  1.
         -2   -1    0    0    0  501 -0.00000000000E+00 -0.00000000000E+00 -0.70432871436E+03  0.70432871437E+03  0.25500000000E-02 0. -1.
   -5000001    1    1    2    0    0  0.87574920354E+02  0.15997568182E+03 -0.31215251394E+03  0.43954610385E+03  0.25000000000E+03 0.  0.
    5000001    1    1    2    0    0 -0.87574920354E+02 -0.15997568182E+03 -0.25559691738E+03  0.40136189359E+03  0.25000000000E+03 0.  0.
<mgrwt>
<rscale>  0 0.62031189E+03</rscale>
<asrwt>0</asrwt>
<pdfrwt beam="1">  1        2 0.21012198E-01 0.62031189E+03</pdfrwt>
<pdfrwt beam="2">  1       -2 0.10835826E+00 0.62031189E+03</pdfrwt>
<totfact> 0.18497357E+02</totfact>
</mgrwt>
</event>
<event>
 4    1  0.1805887E-005  0.6271322E+03  0.7818608E-02  0.9850661E-01
          2   -1    0    0  501    0  0.00000000000E+00  0.00000000000E+00  0.63749610105E+03  0.63749610105E+03  0.25500000000E-02 0.  1.
         -2   -1    0    0    0  501 -0.00000000000E+00 -0.00000000000E+00 -0.15423421711E+03  0.15423421713E+03  0.25500000000E-02 0. -1.
   -5000001    1    1    2    0    0  0.17767006351E+03 -0.17022096503E+02  0.32114907072E+03  0.44440199017E+03  0.25000000000E+03 0.  0.
    5000001    1    1    2    0    0 -0.17767006351E+03  0.17022096503E+02  0.16211281321E+03  0.34732832802E+03  0.25000000000E+03 0.  0.
<mgrwt>
<rscale>  0 0.62713224E+03</rscale>
<asrwt>0</asrwt>
<pdfrwt beam="1">  1        2 0.98076323E-01 0.62713224E+03</pdfrwt>
<pdfrwt beam="2">  1       -2 0.23728341E-01 0.62713224E+03</pdfrwt>
<totfact> 0.72923256E+02</totfact>
</mgrwt>
</event>
<event>
 4    1  0.1805887E-005  0.8355069E+03  0.7818608E-02  0.9509998E-01
          2   -1    0    0  501    0  0.00000000000E+00  0.00000000000E+00  0.13360182994E+04  0.13360182994E+04  0.25500000000E-02 0.  1.
         -2   -1    0    0    0  501 -0.00000000000E+00 -0.00000000000E+00 -0.13062542149E+03  0.13062542151E+03  0.25500000000E-02 0. -1.
   -5000001    1    1    2    0    0  0.32992668961E+03 -0.55713925162E+02  0.58884199775E+03  0.72193528815E+03  0.25000000000E+03 0.  0.
    5000001    1    1    2    0    0 -0.32992668961E+03  0.55713925162E+02  0.61655088013E+03  0.74470843272E+03  0.25000000000E+03 0.  0.
<mgrwt>
<rscale>  0 0.83550692E+03</rscale>
<asrwt>0</asrwt>
<pdfrwt beam="1">  1        2 0.20554128E+00 0.83550692E+03</pdfrwt>
<pdfrwt beam="2">  1       -2 0.20096218E-01 0.83550692E+03</pdfrwt>
<totfact> 0.33526743E+02</totfact>
</mgrwt>
</event>
<event>
 4    1  0.1805887E-005  0.6736785E+03  0.7818608E-02  0.9763335E-01
         -2   -1    0    0    0  501 -0.00000000000E+00  0.00000000000E+00  0.55507145988E+02  0.55507146047E+02  0.25500000000E-02 0. -1.
          2   -1    0    0  501    0  0.00000000000E+00 -0.00000000000E+00 -0.20440735766E+04  0.20440735766E+04  0.25500000000E-02 0.  1.
   -5000001    1    1    2    0    0 -0.19808120475E+03 -0.10011939644E+03 -0.86575892764E+03  0.92806173178E+03  0.25000000000E+03 0.  0.
    5000001    1    1    2    0    0  0.19808120475E+03  0.10011939644E+03 -0.11228075029E+04  0.11715189908E+04  0.25000000000E+03 0.  0.
<mgrwt>
<rscale>  0 0.67367853E+03</rscale>
<asrwt>0</asrwt>
<pdfrwt beam="1">  1        2 0.31447280E+00 0.67367853E+03</pdfrwt>
<pdfrwt beam="2">  1       -2 0.85395625E-02 0.67367853E+03</pdfrwt>
<totfact> 0.57642772E+02</totfact>
</mgrwt>
</event>
<event>
 4    1  0.1805887E-005  0.8182123E+03  0.7818608E-02  0.9534023E-01
          2   -1    0    0  501    0  0.00000000000E+00  0.00000000000E+00  0.11227840476E+04  0.11227840476E+04  0.25500000000E-02 0.  1.
         -2   -1    0    0    0  501 -0.00000000000E+00 -0.00000000000E+00 -0.14906504476E+03  0.14906504478E+03  0.25500000000E-02 0. -1.
   -5000001    1    1    2    0    0  0.27069622455E+03 -0.14207623727E+03  0.65286845436E+03  0.76301986991E+03  0.25000000000E+03 0.  0.
    5000001    1    1    2    0    0 -0.27069622455E+03  0.14207623727E+03  0.32085054850E+03  0.50882922248E+03  0.25000000000E+03 0.  0.
<mgrwt>
<rscale>  0 0.81821233E+03</rscale>
<asrwt>0</asrwt>
<pdfrwt beam="1">  1        2 0.17273601E+00 0.81821233E+03</pdfrwt>
<pdfrwt beam="2">  1       -2 0.22933084E-01 0.81821233E+03</pdfrwt>
<totfact> 0.35485074E+02</totfact>
</mgrwt>
</event>
<event>
 4    1  0.1805887E-005  0.7466211E+03  0.7818608E-02  0.9640666E-01
          2   -1    0    0  501    0  0.00000000000E+00  0.00000000000E+00  0.15426353604E+04  0.15426353604E+04  0.25500000000E-02 0.  1.
         -2   -1    0    0    0  501 -0.00000000000E+00 -0.00000000000E+00 -0.90339399886E+02  0.90339399922E+02  0.25500000000E-02 0. -1.
   -5000001    1    1    2    0    0  0.22186562275E+03 -0.67986074080E+02  0.10579492499E+04  0.11115768422E+04  0.25000000000E+03 0.  0.
    5000001    1    1    2    0    0 -0.22186562275E+03  0.67986074080E+02  0.39434671066E+03  0.52139791814E+03  0.25000000000E+03 0.  0.
<mgrwt>
<rscale>  0 0.74662106E+03</rscale>
<asrwt>0</asrwt>
<pdfrwt beam="1">  1        2 0.23732852E+00 0.74662106E+03</pdfrwt>
<pdfrwt beam="2">  1       -2 0.13898369E-01 0.74662106E+03</pdfrwt>
<totfact> 0.48495832E+02</totfact>
</mgrwt>
</event>
<event>
 4    1  0.1805887E-005  0.1107423E+04  0.7818608E-02  0.9197987E-01
         -2   -1    0    0    0  501 -0.00000000000E+00  0.00000000000E+00  0.18581756943E+03  0.18581756945E+03  0.25500000000E-02 0. -1.
          2   -1    0    0  501    0  0.00000000000E+00 -0.00000000000E+00 -0.16499848989E+04  0.16499848989E+04  0.25500000000E-02 0.  1.
   -5000001    1    1    2    0    0 -0.45658396391E+03  0.14028019669E+03 -0.94143497658E+03  0.10848720039E+04  0.25000000000E+03 0.  0.
    5000001    1    1    2    0    0  0.45658396391E+03 -0.14028019669E+03 -0.52273235285E+03  0.75093046442E+03  0.25000000000E+03 0.  0.
<mgrwt>
<rscale>  0 0.11074226E+04</rscale>
<asrwt>0</asrwt>
<pdfrwt beam="1">  1        2 0.25384382E+00 0.11074226E+04</pdfrwt>
<pdfrwt beam="2">  1       -2 0.28587320E-01 0.11074226E+04</pdfrwt>
<totfact> 0.11638286E+02</totfact>
</mgrwt>
</event>
<event>
 4    1  0.1805887E-005  0.6858040E+03  0.7818608E-02  0.9741822E-01
          2   -1    0    0  501    0  0.00000000000E+00  0.00000000000E+00  0.40359201753E+04  0.40359201753E+04  0.25500000000E-02 0.  1.
         -2   -1    0    0    0  501 -0.00000000000E+00 -0.00000000000E+00 -0.29133822093E+02  0.29133822205E+02  0.25500000000E-02 0. -1.
   -5000001    1    1    2    0    0 -0.22806375273E+03 -0.11392303070E+02  0.16820565409E+04  0.17157963360E+04  0.25000000000E+03 0.  0.
    5000001    1    1    2    0    0  0.22806375273E+03  0.11392303070E+02  0.23247298123E+04  0.23492576615E+04  0.25000000000E+03 0.  0.
<mgrwt>
<rscale>  0 0.68580400E+03</rscale>
<asrwt>0</asrwt>
<pdfrwt beam="1">  1        2 0.62091118E+00 0.68580400E+03</pdfrwt>
<pdfrwt beam="2">  1       -2 0.44821237E-02 0.68580400E+03</pdfrwt>
<totfact> 0.87274351E+01</totfact>
</mgrwt>
</event>
<event>
 4    1  0.1805887E-005  0.5274945E+03  0.7818608E-02  0.1006842E+00
         -2   -1    0    0    0  501 -0.00000000000E+00  0.00000000000E+00  0.65623295194E+02  0.65623295244E+02  0.25500000000E-02 0. -1.
          2   -1    0    0  501    0  0.00000000000E+00 -0.00000000000E+00 -0.10600291546E+04  0.10600291546E+04  0.25500000000E-02 0.  1.
   -5000001    1    1    2    0    0  0.45170775136E+02 -0.23928169271E+02 -0.35485559952E+03  0.43707602625E+03  0.25000000000E+03 0.  0.
    5000001    1    1    2    0    0 -0.45170775136E+02  0.23928169271E+02 -0.63955025986E+03  0.68857642357E+03  0.25000000000E+03 0.  0.
<mgrwt>
<rscale>  0 0.52749448E+03</rscale>
<asrwt>0</asrwt>
<pdfrwt beam="1">  1        2 0.16308139E+00 0.52749448E+03</pdfrwt>
<pdfrwt beam="2">  1       -2 0.10095892E-01 0.52749448E+03</pdfrwt>
<totfact> 0.15723176E+03</totfact>
</mgrwt>
</event>
<event>
 4    1  0.1805887E-005  0.8258569E+03  0.7818608E-02  0.9523326E-01
          2   -1    0    0  501    0  0.00000000000E+00  0.00000000000E+00  0.50888342926E+03  0.50888342926E+03  0.25500000000E-02 0.  1.
         -2   -1    0    0    0  501 -0.00000000000E+00 -0.00000000000E+00 -0.33506672535E+03  0.33506672536E+03  0.25500000000E-02 0. -1.
   -5000001    1    1    2    0    0  0.52645526337E+02  0.29300136339E+03 -0.55385031025E+02  0.39266888348E+03  0.25000000000E+03 0.  0.
    5000001    1    1    2    0    0 -0.52645526337E+02 -0.29300136339E+03  0.22920173493E+03  0.45128127114E+03  0.25000000000E+03 0.  0.
<mgrwt>
<rscale>  0 0.82585690E+03</rscale>
<asrwt>0</asrwt>
<pdfrwt beam="1">  1        2 0.78289758E-01 0.82585690E+03</pdfrwt>
<pdfrwt beam="2">  1       -2 0.51548727E-01 0.82585690E+03</pdfrwt>
<totfact> 0.21582377E+02</totfact>
</mgrwt>
</event>
<event>
 4    1  0.1805887E-005  0.1003623E+04  0.7818608E-02  0.9304580E-01
          2   -1    0    0  501    0  0.00000000000E+00  0.00000000000E+00  0.41865668317E+03  0.41865668318E+03  0.25500000000E-02 0.  1.
         -2   -1    0    0    0  501 -0.00000000000E+00 -0.00000000000E+00 -0.60148278639E+03  0.60148278639E+03  0.25500000000E-02 0. -1.
   -5000001    1    1    2    0    0  0.41716912369E+03  0.70204893856E+02  0.12026019901E+02  0.49153171824E+03  0.25000000000E+03 0.  0.
    5000001    1    1    2    0    0 -0.41716912369E+03 -0.70204893856E+02 -0.19485212312E+03  0.52860775133E+03  0.25000000000E+03 0.  0.
<mgrwt>
<rscale>  0 0.10036230E+04</rscale>
<asrwt>0</asrwt>
<pdfrwt beam="1">  1        2 0.64408721E-01 0.10036230E+04</pdfrwt>
<pdfrwt beam="2">  1       -2 0.92535813E-01 0.10036230E+04</pdfrwt>
<totfact> 0.74731724E+01</totfact>
</mgrwt>
</event>
<event>
 4    1  0.1805887E-005  0.5852865E+03  0.7818608E-02  0.9936411E-01
          2   -1    0    0  501    0  0.00000000000E+00  0.00000000000E+00  0.10591734899E+04  0.10591734899E+04  0.25500000000E-02 0.  1.
         -2   -1    0    0    0  501 -0.00000000000E+00 -0.00000000000E+00 -0.80855558823E+02  0.80855558864E+02  0.25500000000E-02 0. -1.
   -5000001    1    1    2    0    0 -0.14459485554E+03 -0.47190835176E+02  0.48462542354E+03  0.56612405735E+03  0.25000000000E+03 0.  0.
    5000001    1    1    2    0    0  0.14459485554E+03  0.47190835176E+02  0.49369250756E+03  0.57390499143E+03  0.25000000000E+03 0.  0.
<mgrwt>
<rscale>  0 0.58528647E+03</rscale>
<asrwt>0</asrwt>
<pdfrwt beam="1">  1        2 0.16294976E+00 0.58528647E+03</pdfrwt>
<pdfrwt beam="2">  1       -2 0.12439317E-01 0.58528647E+03</pdfrwt>
<totfact> 0.11176433E+03</totfact>
</mgrwt>
</event>
<event>
 4    1  0.1805887E-005  0.9616200E+03  0.7818608E-02  0.9351671E-01
          2   -1    0    0  501    0  0.00000000000E+00  0.00000000000E+00  0.64972764220E+03  0.64972764220E+03  0.25500000000E-02 0.  1.
         -2   -1    0    0    0  501 -0.00000000000E+00 -0.00000000000E+00 -0.35580794872E+03  0.35580794873E+03  0.25500000000E-02 0. -1.
   -5000001    1    1    2    0    0 -0.25869328956E+03 -0.52201255244E+02 -0.18210363858E+03  0.40658200194E+03  0.25000000000E+03 0.  0.
    5000001    1    1    2    0    0  0.25869328956E+03  0.52201255244E+02  0.47602333206E+03  0.59895358900E+03  0.25000000000E+03 0.  0.
<mgrwt>
<rscale>  0 0.96162001E+03</rscale>
<asrwt>0</asrwt>
<pdfrwt beam="1">  1        2 0.99958097E-01 0.96162001E+03</pdfrwt>
<pdfrwt beam="2">  1       -2 0.54739685E-01 0.96162001E+03</pdfrwt>
<totfact> 0.14134911E+02</totfact>
</mgrwt>
</event>
<event>
 4    1  0.1805887E-005  0.7012960E+03  0.7818608E-02  0.9715018E-01
         -2   -1    0    0    0  501 -0.00000000000E+00  0.00000000000E+00  0.21631592159E+04  0.21631592159E+04  0.25500000000E-02 0.  1.
          2   -1    0    0  501    0  0.00000000000E+00 -0.00000000000E+00 -0.56840021363E+02  0.56840021420E+02  0.25500000000E-02 0. -1.
   -5000001    1    1    2    0    0  0.14288438503E+03  0.12124657407E+03  0.15570452041E+04  0.15880826323E+04  0.25000000000E+03 0.  0.
    5000001    1    1    2    0    0 -0.14288438503E+03 -0.12124657407E+03  0.54927399043E+03  0.63191660508E+03  0.25000000000E+03 0.  0.
<mgrwt>
<rscale>  0 0.70129599E+03</rscale>
<asrwt>0</asrwt>
<pdfrwt beam="1">  1        2 0.87446197E-02 0.70129599E+03</pdfrwt>
<pdfrwt beam="2">  1       -2 0.33279369E+00 0.70129599E+03</pdfrwt>
<totfact> 0.16616850E+01</totfact>
</mgrwt>
</event>
<event>
 4    1  0.1805887E-005  0.6643230E+03  0.7818608E-02  0.9780268E-01
          2   -1    0    0  501    0  0.00000000000E+00  0.00000000000E+00  0.37082200881E+03  0.37082200882E+03  0.25500000000E-02 0.  1.
         -2   -1    0    0    0  501 -0.00000000000E+00 -0.00000000000E+00 -0.29753162376E+03  0.29753162377E+03  0.25500000000E-02 0. -1.
   -5000001    1    1    2    0    0 -0.89545979932E+02  0.11614127015E+03  0.19987629666E+03  0.35207642796E+03  0.25000000000E+03 0.  0.
    5000001    1    1    2    0    0  0.89545979932E+02 -0.11614127015E+03 -0.12658591161E+03  0.31627720464E+03  0.25000000000E+03 0.  0.
<mgrwt>
<rscale>  0 0.66432304E+03</rscale>
<asrwt>0</asrwt>
<pdfrwt beam="1">  1        2 0.57049539E-01 0.66432304E+03</pdfrwt>
<pdfrwt beam="2">  1       -2 0.45774096E-01 0.66432304E+03</pdfrwt>
<totfact> 0.39544603E+02</totfact>
</mgrwt>
</event>
<event>
 4    1  0.1805887E-005  0.1265888E+04  0.7818608E-02  0.9057062E-01
         -2   -1    0    0    0  501 -0.00000000000E+00  0.00000000000E+00  0.17913500296E+03  0.17913500298E+03  0.25500000000E-02 0. -1.
          2   -1    0    0  501    0  0.00000000000E+00 -0.00000000000E+00 -0.22364041034E+04  0.22364041034E+04  0.25500000000E-02 0.  1.
   -5000001    1    1    2    0    0 -0.87056723021E+02  0.51628995244E+03 -0.15113093582E+04  0.16188545840E+04  0.25000000000E+03 0.  0.
    5000001    1    1    2    0    0  0.87056723021E+02 -0.51628995244E+03 -0.54595974225E+03  0.79668452236E+03  0.25000000000E+03 0.  0.
<mgrwt>
<rscale>  0 0.12658882E+04</rscale>
<asrwt>0</asrwt>
<pdfrwt beam="1">  1        2 0.34406215E+00 0.12658882E+04</pdfrwt>
<pdfrwt beam="2">  1       -2 0.27559233E-01 0.12658882E+04</pdfrwt>
<totfact> 0.58238987E+01</totfact>
</mgrwt>
</event>
<event>
 4    1  0.1805887E-005  0.1102865E+04  0.7818608E-02  0.9202404E-01
         -2   -1    0    0    0  501 -0.00000000000E+00  0.00000000000E+00  0.18088770741E+03  0.18088770743E+03  0.25500000000E-02 0. -1.
          2   -1    0    0  501    0  0.00000000000E+00 -0.00000000000E+00 -0.16810307273E+04  0.16810307273E+04  0.25500000000E-02 0.  1.
   -5000001    1    1    2    0    0 -0.45066497893E+03 -0.62374253675E+02 -0.43609073297E+03  0.67798569170E+03  0.25000000000E+03 0.  0.
    5000001    1    1    2    0    0  0.45066497893E+03  0.62374253675E+02 -0.10640522870E+04  0.11839327431E+04  0.25000000000E+03 0.  0.
<mgrwt>
<rscale>  0 0.11028650E+04</rscale>
<asrwt>0</asrwt>
<pdfrwt beam="1">  1        2 0.25862010E+00 0.11028650E+04</pdfrwt>
<pdfrwt beam="2">  1       -2 0.27828879E-01 0.11028650E+04</pdfrwt>
<totfact> 0.11758841E+02</totfact>
</mgrwt>
</event>
<event>
 4    1  0.1805887E-005  0.5646775E+03  0.7818608E-02  0.9981526E-01
          2   -1    0    0  501    0  0.00000000000E+00  0.00000000000E+00  0.38452621290E+03  0.38452621291E+03  0.25500000000E-02 0.  1.
         -2   -1    0    0    0  501 -0.00000000000E+00 -0.00000000000E+00 -0.20730749784E+03  0.20730749786E+03  0.25500000000E-02 0. -1.
   -5000001    1    1    2    0    0  0.10138668553E+03  0.80611930822E+02  0.66683851679E+02  0.28935148085E+03  0.25000000000E+03 0.  0.
    5000001    1    1    2    0    0 -0.10138668553E+03 -0.80611930822E+02  0.11053486338E+03  0.30248222992E+03  0.25000000000E+03 0.  0.
<mgrwt>
<rscale>  0 0.56467749E+03</rscale>
<asrwt>0</asrwt>
<pdfrwt beam="1">  1        2 0.59157878E-01 0.56467749E+03</pdfrwt>
<pdfrwt beam="2">  1       -2 0.31893461E-01 0.56467749E+03</pdfrwt>
<totfact> 0.76361580E+02</totfact>
</mgrwt>
</event>
<event>
 4    1  0.1805887E-005  0.9212598E+03  0.7818608E-02  0.9399389E-01
         -2   -1    0    0    0  501 -0.00000000000E+00  0.00000000000E+00  0.23905645135E+03  0.23905645137E+03  0.25500000000E-02 0. -1.
          2   -1    0    0  501    0  0.00000000000E+00 -0.00000000000E+00 -0.88757232786E+03  0.88757232787E+03  0.25500000000E-02 0.  1.
   -5000001    1    1    2    0    0  0.40792076163E+02 -0.38199998109E+03 -0.26832463869E+03  0.53111777485E+03  0.25000000000E+03 0.  0.
    5000001    1    1    2    0    0 -0.40792076163E+02  0.38199998109E+03 -0.38019123783E+03  0.59551100439E+03  0.25000000000E+03 0.  0.
<mgrwt>
<rscale>  0 0.92125977E+03</rscale>
<asrwt>0</asrwt>
<pdfrwt beam="1">  1        2 0.13654959E+00 0.92125977E+03</pdfrwt>
<pdfrwt beam="2">  1       -2 0.36777916E-01 0.92125977E+03</pdfrwt>
<totfact> 0.20841507E+02</totfact>
</mgrwt>
</event>
<event>
 4    1  0.1805887E-005  0.7195216E+03  0.7818608E-02  0.9684418E-01
         -2   -1    0    0    0  501 -0.00000000000E+00  0.00000000000E+00  0.44034486556E+02  0.44034486630E+02  0.25500000000E-02 0. -1.
          2   -1    0    0  501    0  0.00000000000E+00 -0.00000000000E+00 -0.29392379780E+04  0.29392379780E+04  0.25500000000E-02 0.  1.
   -5000001    1    1    2    0    0 -0.25801993003E+03 -0.13553668427E+02 -0.13935660523E+04  0.14391957228E+04  0.25000000000E+03 0.  0.
    5000001    1    1    2    0    0  0.25801993003E+03  0.13553668427E+02 -0.15016374390E+04  0.15440767418E+04  0.25000000000E+03 0.  0.
<mgrwt>
<rscale>  0 0.71952161E+03</rscale>
<asrwt>0</asrwt>
<pdfrwt beam="1">  1        2 0.45219030E+00 0.71952161E+03</pdfrwt>
<pdfrwt beam="2">  1       -2 0.67745387E-02 0.71952161E+03</pdfrwt>
<totfact> 0.25734477E+02</totfact>
</mgrwt>
</event>
<event>
 4    1  0.1805887E-005  0.1339398E+04  0.7818608E-02  0.8998892E-01
          2   -1    0    0  501    0  0.00000000000E+00  0.00000000000E+00  0.38444147605E+04  0.38444147605E+04  0.25500000000E-02 0.  1.
         -2   -1    0    0    0  501 -0.00000000000E+00 -0.00000000000E+00 -0.11666195466E+03  0.11666195469E+03  0.25500000000E-02 0. -1.
   -5000001    1    1    2    0    0 -0.11810450108E+03  0.52504873591E+03  0.94579929303E+03  0.11165398116E+04  0.25000000000E+03 0.  0.
    5000001    1    1    2    0    0  0.11810450108E+03 -0.52504873591E+03  0.27819535128E+04  0.28445369036E+04  0.25000000000E+03 0.  0.
<mgrwt>
<rscale>  0 0.13393983E+04</rscale>
<asrwt>0</asrwt>
<pdfrwt beam="1">  1        2 0.59144849E+00 0.13393983E+04</pdfrwt>
<pdfrwt beam="2">  1       -2 0.17947991E-01 0.13393983E+04</pdfrwt>
<totfact> 0.11778975E+01</totfact>
</mgrwt>
</event>
<event>
 4    1  0.1805887E-005  0.6144683E+03  0.7818608E-02  0.9875835E-01
          2   -1    0    0  501    0  0.00000000000E+00  0.00000000000E+00  0.15675662307E+04  0.15675662307E+04  0.25500000000E-02 0.  1.
         -2   -1    0    0    0  501 -0.00000000000E+00 -0.00000000000E+00 -0.60216163703E+02  0.60216163757E+02  0.25500000000E-02 0. -1.
   -5000001    1    1    2    0    0 -0.46118047021E+02  0.17239956175E+03  0.73603486215E+03  0.79755614314E+03  0.25000000000E+03 0.  0.
    5000001    1    1    2    0    0  0.46118047021E+02 -0.17239956175E+03  0.77131520481E+03  0.83022625129E+03  0.25000000000E+03 0.  0.
<mgrwt>
<rscale>  0 0.61446831E+03</rscale>
<asrwt>0</asrwt>
<pdfrwt beam="1">  1        2 0.24116403E+00 0.61446831E+03</pdfrwt>
<pdfrwt beam="2">  1       -2 0.92640255E-02 0.61446831E+03</pdfrwt>
<totfact> 0.92173166E+02</totfact>
</mgrwt>
</event>
<event>
 4    1  0.1805887E-005  0.5802231E+03  0.7818608E-02  0.9947308E-01
          2   -1    0    0  501    0  0.00000000000E+00  0.00000000000E+00  0.24283106184E+04  0.24283106184E+04  0.25500000000E-02 0.  1.
         -2   -1    0    0    0  501 -0.00000000000E+00 -0.00000000000E+00 -0.34659774105E+02  0.34659774199E+02  0.25500000000E-02 0. -1.
   -5000001    1    1    2    0    0 -0.10919289320E+03  0.71102685005E+02  0.90624511266E+03  0.94908318073E+03  0.25000000000E+03 0.  0.
    5000001    1    1    2    0    0  0.10919289320E+03 -0.71102685005E+02  0.14874057317E+04  0.15138872119E+04  0.25000000000E+03 0.  0.
<mgrwt>
<rscale>  0 0.58022305E+03</rscale>
<asrwt>0</asrwt>
<pdfrwt beam="1">  1        2 0.37358623E+00 0.58022305E+03</pdfrwt>
<pdfrwt beam="2">  1       -2 0.53322732E-02 0.58022305E+03</pdfrwt>
<totfact> 0.75081933E+02</totfact>
</mgrwt>
</event>
<event>
 4    1  0.1805887E-005  0.6432447E+03  0.7818608E-02  0.9819538E-01
         -2   -1    0    0    0  501 -0.00000000000E+00  0.00000000000E+00  0.19812403168E+03  0.19812403170E+03  0.25500000000E-02 0. -1.
          2   -1    0    0  501    0  0.00000000000E+00 -0.00000000000E+00 -0.52210199243E+03  0.52210199243E+03  0.25500000000E-02 0.  1.
   -5000001    1    1    2    0    0 -0.21300800852E+02  0.14414843410E+03 -0.31917679180E+03  0.43082051901E+03  0.25000000000E+03 0.  0.
    5000001    1    1    2    0    0  0.21300800852E+02 -0.14414843410E+03 -0.48011689428E+01  0.28940550512E+03  0.25000000000E+03 0.  0.
<mgrwt>
<rscale>  0 0.64324475E+03</rscale>
<asrwt>0</asrwt>
<pdfrwt beam="1">  1        2 0.80323383E-01 0.64324475E+03</pdfrwt>
<pdfrwt beam="2">  1       -2 0.30480620E-01 0.64324475E+03</pdfrwt>
<totfact> 0.58625993E+02</totfact>
</mgrwt>
</event>
<event>
 4    1  0.1805887E-005  0.7214646E+03  0.7818608E-02  0.9681213E-01
          2   -1    0    0  501    0  0.00000000000E+00  0.00000000000E+00  0.10794183918E+04  0.10794183918E+04  0.25500000000E-02 0.  1.
         -2   -1    0    0    0  501 -0.00000000000E+00 -0.00000000000E+00 -0.12055360870E+03  0.12055360873E+03  0.25500000000E-02 0. -1.
   -5000001    1    1    2    0    0  0.23248087146E+03 -0.11399471909E+03  0.51968259548E+03  0.63214883660E+03  0.25000000000E+03 0.  0.
    5000001    1    1    2    0    0 -0.23248087146E+03  0.11399471909E+03  0.43918218764E+03  0.56782316395E+03  0.25000000000E+03 0.  0.
<mgrwt>
<rscale>  0 0.72146457E+03</rscale>
<asrwt>0</asrwt>
<pdfrwt beam="1">  1        2 0.16606436E+00 0.72146457E+03</pdfrwt>
<pdfrwt beam="2">  1       -2 0.18546710E-01 0.72146457E+03</pdfrwt>
<totfact> 0.55023744E+02</totfact>
</mgrwt>
</event>
<event>
 4    1  0.1805887E-005  0.7551895E+03  0.7818608E-02  0.9627244E-01
         -2   -1    0    0    0  501 -0.00000000000E+00  0.00000000000E+00  0.37778487709E+03  0.37778487710E+03  0.25500000000E-02 0. -1.
          2   -1    0    0  501    0  0.00000000000E+00 -0.00000000000E+00 -0.37740468811E+03  0.37740468812E+03  0.25500000000E-02 0.  1.
   -5000001    1    1    2    0    0  0.75766026245E+02 -0.23024135288E+03  0.14622508282E+03  0.37766830176E+03  0.25000000000E+03 0.  0.
    5000001    1    1    2    0    0 -0.75766026245E+02  0.23024135288E+03 -0.14584489384E+03  0.37752126346E+03  0.25000000000E+03 0.  0.
<mgrwt>
<rscale>  0 0.75518947E+03</rscale>
<asrwt>0</asrwt>
<pdfrwt beam="1">  1        2 0.58062260E-01 0.75518947E+03</pdfrwt>
<pdfrwt beam="2">  1       -2 0.58120750E-01 0.75518947E+03</pdfrwt>
<totfact> 0.23723547E+02</totfact>
</mgrwt>
</event>
<event>
 4    1  0.1805887E-005  0.5600429E+03  0.7818608E-02  0.9991957E-01
          2   -1    0    0  501    0  0.00000000000E+00  0.00000000000E+00  0.70464109706E+02  0.70464109752E+02  0.25500000000E-02 0.  1.
         -2   -1    0    0    0  501 -0.00000000000E+00 -0.00000000000E+00 -0.11127938253E+04  0.11127938253E+04  0.25500000000E-02 0. -1.
   -5000001    1    1    2    0    0  0.77587227190E+01  0.11429719546E+03 -0.40960630197E+03  0.49335724306E+03  0.25000000000E+03 0.  0.
    5000001    1    1    2    0    0 -0.77587227190E+01 -0.11429719546E+03 -0.63272341366E+03  0.68990069203E+03  0.25000000000E+03 0.  0.
<mgrwt>
<rscale>  0 0.56004295E+03</rscale>
<asrwt>0</asrwt>
<pdfrwt beam="1">  1        2 0.10840633E-01 0.56004295E+03</pdfrwt>
<pdfrwt beam="2">  1       -2 0.17119904E+00 0.56004295E+03</pdfrwt>
<totfact> 0.12801685E+02</totfact>
</mgrwt>
</event>
<event>
 4    1  0.1805887E-005  0.5702033E+03  0.7818608E-02  0.9969229E-01
          2   -1    0    0  501    0  0.00000000000E+00  0.00000000000E+00  0.52274371725E+03  0.52274371725E+03  0.25500000000E-02 0.  1.
         -2   -1    0    0    0  501 -0.00000000000E+00 -0.00000000000E+00 -0.15549294529E+03  0.15549294531E+03  0.25500000000E-02 0. -1.
   -5000001    1    1    2    0    0 -0.11892874246E+03  0.67123851611E+02  0.16989219476E+03  0.33168209943E+03  0.25000000000E+03 0.  0.
    5000001    1    1    2    0    0  0.11892874246E+03 -0.67123851611E+02  0.19735857720E+03  0.34655456314E+03  0.25000000000E+03 0.  0.
<mgrwt>
<rscale>  0 0.57020333E+03</rscale>
<asrwt>0</asrwt>
<pdfrwt beam="1">  1        2 0.80422109E-01 0.57020333E+03</pdfrwt>
<pdfrwt beam="2">  1       -2 0.23921992E-01 0.57020333E+03</pdfrwt>
<totfact> 0.91073986E+02</totfact>
</mgrwt>
</event>
<event>
 4    1  0.1805887E-005  0.5256318E+03  0.7818608E-02  0.1007297E+00
          2   -1    0    0  501    0  0.00000000000E+00  0.00000000000E+00  0.75219617395E+03  0.75219617395E+03  0.25500000000E-02 0.  1.
         -2   -1    0    0    0  501 -0.00000000000E+00 -0.00000000000E+00 -0.91827356823E+02  0.91827356858E+02  0.25500000000E-02 0. -1.
   -5000001    1    1    2    0    0 -0.59483773772E+02 -0.54215582268E+02  0.31457179335E+03  0.40979636635E+03  0.25000000000E+03 0.  0.
    5000001    1    1    2    0    0  0.59483773772E+02  0.54215582268E+02  0.34579702377E+03  0.43422716446E+03  0.25000000000E+03 0.  0.
<mgrwt>
<rscale>  0 0.52563176E+03</rscale>
<asrwt>0</asrwt>
<pdfrwt beam="1">  1        2 0.11572248E+00 0.52563176E+03</pdfrwt>
<pdfrwt beam="2">  1       -2 0.14127286E-01 0.52563176E+03</pdfrwt>
<totfact> 0.14523119E+03</totfact>
</mgrwt>
</event>
<event>
 4    1  0.1805887E-005  0.7098032E+03  0.7818608E-02  0.9700613E-01
         -2   -1    0    0    0  501 -0.00000000000E+00  0.00000000000E+00  0.15285573313E+03  0.15285573315E+03  0.25500000000E-02 0. -1.
          2   -1    0    0  501    0  0.00000000000E+00 -0.00000000000E+00 -0.82401314750E+03  0.82401314751E+03  0.25500000000E-02 0.  1.
   -5000001    1    1    2    0    0  0.22856509950E+03 -0.10216685377E+03 -0.37389353370E+03  0.51475862816E+03  0.25000000000E+03 0.  0.
    5000001    1    1    2    0    0 -0.22856509950E+03  0.10216685377E+03 -0.29726388067E+03  0.46211025250E+03  0.25000000000E+03 0.  0.
<mgrwt>
<rscale>  0 0.70980317E+03</rscale>
<asrwt>0</asrwt>
<pdfrwt beam="1">  1        2 0.12677125E+00 0.70980317E+03</pdfrwt>
<pdfrwt beam="2">  1       -2 0.23516267E-01 0.70980317E+03</pdfrwt>
<totfact> 0.53303471E+02</totfact>
</mgrwt>
</event>
<event>
 4    1  0.1805887E-005  0.1101359E+04  0.7818608E-02  0.9203868E-01
         -2   -1    0    0    0  501 -0.00000000000E+00  0.00000000000E+00  0.47943582119E+03  0.47943582120E+03  0.25500000000E-02 0. -1.
          2   -1    0    0  501    0  0.00000000000E+00 -0.00000000000E+00 -0.63250996410E+03  0.63250996411E+03  0.25500000000E-02 0.  1.
   -5000001    1    1    2    0    0  0.40458515230E+03  0.12381982590E+03  0.17430121339E+03  0.52144166283E+03  0.25000000000E+03 0.  0.
    5000001    1    1    2    0    0 -0.40458515230E+03 -0.12381982590E+03 -0.32737535630E+03  0.59050412248E+03  0.25000000000E+03 0.  0.
<mgrwt>
<rscale>  0 0.11013590E+04</rscale>
<asrwt>0</asrwt>
<pdfrwt beam="1">  1        2 0.97309225E-01 0.11013590E+04</pdfrwt>
<pdfrwt beam="2">  1       -2 0.73759357E-01 0.11013590E+04</pdfrwt>
<totfact> 0.76543802E+01</totfact>
</mgrwt>
</event>
<event>
 4    1  0.1805887E-005  0.7179012E+03  0.7818608E-02  0.9687099E-01
         -2   -1    0    0    0  501 -0.00000000000E+00  0.00000000000E+00  0.31365330716E+03  0.31365330718E+03  0.25500000000E-02 0. -1.
          2   -1    0    0  501    0  0.00000000000E+00 -0.00000000000E+00 -0.41078964362E+03  0.41078964363E+03  0.25500000000E-02 0.  1.
   -5000001    1    1    2    0    0  0.25555920128E+03  0.21046991177E+02 -0.24014387521E+02  0.35892920194E+03  0.25000000000E+03 0.  0.
    5000001    1    1    2    0    0 -0.25555920128E+03 -0.21046991177E+02 -0.73121948938E+02  0.36551374887E+03  0.25000000000E+03 0.  0.
<mgrwt>
<rscale>  0 0.71790119E+03</rscale>
<asrwt>0</asrwt>
<pdfrwt beam="1">  1        2 0.63198407E-01 0.71790119E+03</pdfrwt>
<pdfrwt beam="2">  1       -2 0.48254355E-01 0.71790119E+03</pdfrwt>
<totfact> 0.31667311E+02</totfact>
</mgrwt>
</event>
<event>
 4    1  0.1805887E-005  0.6688319E+03  0.7818608E-02  0.9772070E-01
          2   -1    0    0  501    0  0.00000000000E+00  0.00000000000E+00  0.36572389848E+04  0.36572389848E+04  0.25500000000E-02 0.  1.
         -2   -1    0    0    0  501 -0.00000000000E+00 -0.00000000000E+00 -0.30578814921E+02  0.30578815027E+02  0.25500000000E-02 0. -1.
   -5000001    1    1    2    0    0  0.17531248212E+03  0.18454012383E+02  0.25583899414E+04  0.25766129142E+04  0.25000000000E+03 0.  0.
    5000001    1    1    2    0    0 -0.17531248212E+03 -0.18454012383E+02  0.10682702284E+04  0.11112048857E+04  0.25000000000E+03 0.  0.
<mgrwt>
<rscale>  0 0.66883192E+03</rscale>
<asrwt>0</asrwt>
<pdfrwt beam="1">  1        2 0.56265202E+00 0.66883192E+03</pdfrwt>
<pdfrwt beam="2">  1       -2 0.47044342E-02 0.66883192E+03</pdfrwt>
<totfact> 0.15615456E+02</totfact>
</mgrwt>
</event>
<event>
 4    1  0.1805887E-005  0.7598606E+03  0.7818608E-02  0.9620006E-01
          2   -1    0    0  501    0  0.00000000000E+00  0.00000000000E+00  0.11197663620E+04  0.11197663620E+04  0.25500000000E-02 0. -1.
         -2   -1    0    0    0  501 -0.00000000000E+00 -0.00000000000E+00 -0.12890817249E+03  0.12890817251E+03  0.25500000000E-02 0.  1.
   -5000001    1    1    2    0    0 -0.26127499413E+03  0.20405604604E+02  0.68398608949E+03  0.77396251968E+03  0.25000000000E+03 0.  0.
    5000001    1    1    2    0    0  0.26127499413E+03 -0.20405604604E+02  0.30687210003E+03  0.47471201484E+03  0.25000000000E+03 0.  0.
<mgrwt>
<rscale>  0 0.75986061E+03</rscale>
<asrwt>0</asrwt>
<pdfrwt beam="1">  1        2 0.17227174E+00 0.75986061E+03</pdfrwt>
<pdfrwt beam="2">  1       -2 0.19832027E-01 0.75986061E+03</pdfrwt>
<totfact> 0.46185252E+02</totfact>
</mgrwt>
</event>
<event>
 4    1  0.1805887E-005  0.8301957E+03  0.7818608E-02  0.9517310E-01
          2   -1    0    0  501    0  0.00000000000E+00  0.00000000000E+00  0.55885795391E+03  0.55885795392E+03  0.25500000000E-02 0.  1.
         -2   -1    0    0    0  501 -0.00000000000E+00 -0.00000000000E+00 -0.30831845993E+03  0.30831845994E+03  0.25500000000E-02 0. -1.
   -5000001    1    1    2    0    0 -0.17453286418E+03  0.27594125213E+03  0.66172812012E+02  0.41651426909E+03  0.25000000000E+03 0.  0.
    5000001    1    1    2    0    0  0.17453286418E+03 -0.27594125213E+03  0.18436668197E+03  0.45066214477E+03  0.25000000000E+03 0.  0.
<mgrwt>
<rscale>  0 0.83019570E+03</rscale>
<asrwt>0</asrwt>
<pdfrwt beam="1">  1        2 0.85978146E-01 0.83019570E+03</pdfrwt>
<pdfrwt beam="2">  1       -2 0.47433610E-01 0.83019570E+03</pdfrwt>
<totfact> 0.22885227E+02</totfact>
</mgrwt>
</event>
<event>
 4    1  0.1805887E-005  0.6786505E+03  0.7818608E-02  0.9754456E-01
         -2   -1    0    0    0  501 -0.00000000000E+00  0.00000000000E+00  0.11637846064E+04  0.11637846064E+04  0.25500000000E-02 0. -1.
          2   -1    0    0  501    0  0.00000000000E+00 -0.00000000000E+00 -0.98937220233E+02  0.98937220266E+02  0.25500000000E-02 0.  1.
   -5000001    1    1    2    0    0 -0.14125141583E+03 -0.16177248166E+03  0.68265572443E+03  0.75805087982E+03  0.25000000000E+03 0.  0.
    5000001    1    1    2    0    0  0.14125141583E+03  0.16177248166E+03  0.38219166175E+03  0.50467094687E+03  0.25000000000E+03 0.  0.
<mgrwt>
<rscale>  0 0.67865047E+03</rscale>
<asrwt>0</asrwt>
<pdfrwt beam="1">  1        2 0.15221110E-01 0.67865047E+03</pdfrwt>
<pdfrwt beam="2">  1       -2 0.17904379E+00 0.67865047E+03</pdfrwt>
<totfact> 0.73822894E+01</totfact>
</mgrwt>
</event>
<event>
 4    1  0.1805887E-005  0.5669563E+03  0.7818608E-02  0.9976437E-01
          2   -1    0    0  501    0  0.00000000000E+00  0.00000000000E+00  0.50132151456E+03  0.50132151457E+03  0.25500000000E-02 0.  1.
         -2   -1    0    0    0  501 -0.00000000000E+00 -0.00000000000E+00 -0.16029605884E+03  0.16029605886E+03  0.25500000000E-02 0. -1.
   -5000001    1    1    2    0    0 -0.64696481597E+01 -0.13285620236E+03  0.15542157140E+03  0.32303017152E+03  0.25000000000E+03 0.  0.
    5000001    1    1    2    0    0  0.64696481597E+01  0.13285620236E+03  0.18560388432E+03  0.33858740191E+03  0.25000000000E+03 0.  0.
<mgrwt>
<rscale>  0 0.56695631E+03</rscale>
<asrwt>0</asrwt>
<pdfrwt beam="1">  1        2 0.77126387E-01 0.56695631E+03</pdfrwt>
<pdfrwt beam="2">  1       -2 0.24660932E-01 0.56695631E+03</pdfrwt>
<totfact> 0.90531981E+02</totfact>
</mgrwt>
</event>
<event>
 4    1  0.1805887E-005  0.5646716E+03  0.7818608E-02  0.9981539E-01
         -2   -1    0    0    0  501 -0.00000000000E+00  0.00000000000E+00  0.10607888981E+03  0.10607888984E+03  0.25500000000E-02 0. -1.
          2   -1    0    0  501    0  0.00000000000E+00 -0.00000000000E+00 -0.75145495787E+03  0.75145495788E+03  0.25500000000E-02 0.  1.
   -5000001    1    1    2    0    0  0.53541173081E+02  0.49865999617E+02 -0.48807524281E+03  0.55323658391E+03  0.25000000000E+03 0.  0.
    5000001    1    1    2    0    0 -0.53541173081E+02 -0.49865999617E+02 -0.15730082526E+03  0.30429726381E+03  0.25000000000E+03 0.  0.
<mgrwt>
<rscale>  0 0.56467161E+03</rscale>
<asrwt>0</asrwt>
<pdfrwt beam="1">  1        2 0.11560845E+00 0.56467161E+03</pdfrwt>
<pdfrwt beam="2">  1       -2 0.16319830E-01 0.56467161E+03</pdfrwt>
<totfact> 0.11400873E+03</totfact>
</mgrwt>
</event>
<event>
 4    1  0.1805887E-005  0.6483886E+03  0.7818608E-02  0.9809808E-01
         -2   -1    0    0    0  501 -0.00000000000E+00  0.00000000000E+00  0.39413103966E+02  0.39413104049E+02  0.25500000000E-02 0. -1.
          2   -1    0    0  501    0  0.00000000000E+00 -0.00000000000E+00 -0.26666748955E+04  0.26666748955E+04  0.25500000000E-02 0.  1.
   -5000001    1    1    2    0    0 -0.18113507666E+03  0.26370029313E+02 -0.91557223155E+03  0.96658047033E+03  0.25000000000E+03 0.  0.
    5000001    1    1    2    0    0  0.18113507666E+03 -0.26370029313E+02 -0.17116895600E+04  0.17395075292E+04  0.25000000000E+03 0.  0.
<mgrwt>
<rscale>  0 0.64838857E+03</rscale>
<asrwt>0</asrwt>
<pdfrwt beam="1">  1        2 0.41025753E+00 0.64838857E+03</pdfrwt>
<pdfrwt beam="2">  1       -2 0.60635566E-02 0.64838857E+03</pdfrwt>
<totfact> 0.44717339E+02</totfact>
</mgrwt>
</event>
<event>
 4    1  0.1805887E-005  0.1081782E+04  0.7818608E-02  0.9223133E-01
         -2   -1    0    0    0  501 -0.00000000000E+00  0.00000000000E+00  0.16804855222E+03  0.16804855224E+03  0.25500000000E-02 0. -1.
          2   -1    0    0  501    0  0.00000000000E+00 -0.00000000000E+00 -0.17409426942E+04  0.17409426942E+04  0.25500000000E-02 0.  1.
   -5000001    1    1    2    0    0 -0.97381417529E+01 -0.41248652345E+03 -0.12180637084E+04  0.13101218115E+04  0.25000000000E+03 0.  0.
    5000001    1    1    2    0    0  0.97381417529E+01  0.41248652345E+03 -0.35483043360E+03  0.59886943489E+03  0.25000000000E+03 0.  0.
<mgrwt>
<rscale>  0 0.10817817E+04</rscale>
<asrwt>0</asrwt>
<pdfrwt beam="1">  1        2 0.26783732E+00 0.10817817E+04</pdfrwt>
<pdfrwt beam="2">  1       -2 0.25853625E-01 0.10817817E+04</pdfrwt>
<totfact> 0.12485673E+02</totfact>
</mgrwt>
</event>
<event>
 4    1  0.1805887E-005  0.7825611E+03  0.7818608E-02  0.9585608E-01
         -2   -1    0    0    0  501 -0.00000000000E+00  0.00000000000E+00  0.98673606339E+02  0.98673606372E+02  0.25500000000E-02 0. -1.
          2   -1    0    0  501    0  0.00000000000E+00 -0.00000000000E+00 -0.15515848193E+04  0.15515848193E+04  0.25500000000E-02 0.  1.
   -5000001    1    1    2    0    0 -0.28326403335E+03  0.29089677784E+02 -0.52074572118E+03  0.64401927616E+03  0.25000000000E+03 0.  0.
    5000001    1    1    2    0    0  0.28326403335E+03 -0.29089677784E+02 -0.93216549182E+03  0.10062391495E+04  0.25000000000E+03 0.  0.
<mgrwt>
<rscale>  0 0.78256110E+03</rscale>
<asrwt>0</asrwt>
<pdfrwt beam="1">  1        2 0.23870534E+00 0.78256110E+03</pdfrwt>
<pdfrwt beam="2">  1       -2 0.15180556E-01 0.78256110E+03</pdfrwt>
<totfact> 0.41230138E+02</totfact>
</mgrwt>
</event>
<event>
 4    1  0.1805887E-005  0.7127571E+03  0.7818608E-02  0.9695661E-01
         -2   -1    0    0    0  501 -0.00000000000E+00  0.00000000000E+00  0.73935394775E+02  0.73935394819E+02  0.25500000000E-02 0. -1.
          2   -1    0    0  501    0  0.00000000000E+00 -0.00000000000E+00 -0.17177925911E+04  0.17177925911E+04  0.25500000000E-02 0.  1.
   -5000001    1    1    2    0    0 -0.15665850511E+03 -0.13929680958E+03 -0.46147942795E+03  0.56516258793E+03  0.25000000000E+03 0.  0.
    5000001    1    1    2    0    0  0.15665850511E+03  0.13929680958E+03 -0.11823777684E+04  0.12265653980E+04  0.25000000000E+03 0.  0.
<mgrwt>
<rscale>  0 0.71275711E+03</rscale>
<asrwt>0</asrwt>
<pdfrwt beam="1">  1        2 0.26427575E+00 0.71275711E+03</pdfrwt>
<pdfrwt beam="2">  1       -2 0.11374677E-01 0.71275711E+03</pdfrwt>
<totfact> 0.54307511E+02</totfact>
</mgrwt>
</event>
<event>
 4    1  0.1805887E-005  0.7303761E+03  0.7818608E-02  0.9666650E-01
          2   -1    0    0  501    0  0.00000000000E+00  0.00000000000E+00  0.17641517740E+04  0.17641517741E+04  0.25500000000E-02 0.  1.
         -2   -1    0    0    0  501 -0.00000000000E+00 -0.00000000000E+00 -0.75595714269E+02  0.75595714312E+02  0.25500000000E-02 0. -1.
   -5000001    1    1    2    0    0  0.21685704935E+03 -0.61552271467E+02  0.12009201090E+04  0.12472067873E+04  0.25000000000E+03 0.  0.
    5000001    1    1    2    0    0 -0.21685704935E+03  0.61552271467E+02  0.48763595077E+03  0.59254070110E+03  0.25000000000E+03 0.  0.
<mgrwt>
<rscale>  0 0.73037610E+03</rscale>
<asrwt>0</asrwt>
<pdfrwt beam="1">  1        2 0.27140795E+00 0.73037610E+03</pdfrwt>
<pdfrwt beam="2">  1       -2 0.11630110E-01 0.73037610E+03</pdfrwt>
<totfact> 0.49340740E+02</totfact>
</mgrwt>
</event>
<event>
 4    1  0.1805887E-005  0.7472125E+03  0.7818608E-02  0.9639734E-01
         -2   -1    0    0    0  501 -0.00000000000E+00  0.00000000000E+00  0.64890810979E+02  0.64890811029E+02  0.25500000000E-02 0. -1.
          2   -1    0    0  501    0  0.00000000000E+00 -0.00000000000E+00 -0.21510232493E+04  0.21510232493E+04  0.25500000000E-02 0.  1.
   -5000001    1    1    2    0    0  0.65137421122E+02 -0.26920229105E+03 -0.98610820342E+03  0.10543349307E+04  0.25000000000E+03 0.  0.
    5000001    1    1    2    0    0 -0.65137421122E+02  0.26920229105E+03 -0.11000242349E+04  0.11615791297E+04  0.25000000000E+03 0.  0.
<mgrwt>
<rscale>  0 0.74721254E+03</rscale>
<asrwt>0</asrwt>
<pdfrwt beam="1">  1        2 0.33092660E+00 0.74721254E+03</pdfrwt>
<pdfrwt beam="2">  1       -2 0.99832034E-02 0.74721254E+03</pdfrwt>
<totfact> 0.38919913E+02</totfact>
</mgrwt>
</event>
<event>
 4    1  0.1805887E-005  0.9844114E+03  0.7818608E-02  0.9325809E-01
          2   -1    0    0  501    0  0.00000000000E+00  0.00000000000E+00  0.21038037674E+04  0.21038037674E+04  0.25500000000E-02 0.  1.
         -2   -1    0    0    0  501 -0.00000000000E+00 -0.00000000000E+00 -0.11515638563E+03  0.11515638565E+03  0.25500000000E-02 0. -1.
   -5000001    1    1    2    0    0  0.15026224144E+03  0.24889987977E+03  0.29869946190E+03  0.48605684842E+03  0.25000000000E+03 0.  0.
    5000001    1    1    2    0    0 -0.15026224144E+03 -0.24889987977E+03  0.16899479199E+04  0.17329033047E+04  0.25000000000E+03 0.  0.
<mgrwt>
<rscale>  0 0.98441137E+03</rscale>
<asrwt>0</asrwt>
<pdfrwt beam="1">  1        2 0.32366205E+00 0.98441137E+03</pdfrwt>
<pdfrwt beam="2">  1       -2 0.17716371E-01 0.98441137E+03</pdfrwt>
<totfact> 0.15515563E+02</totfact>
</mgrwt>
</event>
<event>
 4    1  0.1805887E-005  0.6816024E+03  0.7818608E-02  0.9749222E-01
         -2   -1    0    0    0  501 -0.00000000000E+00  0.00000000000E+00  0.69071477079E+02  0.69071477126E+02  0.25500000000E-02 0. -1.
          2   -1    0    0  501    0  0.00000000000E+00 -0.00000000000E+00 -0.16815253828E+04  0.16815253828E+04  0.25500000000E-02 0.  1.
   -5000001    1    1    2    0    0 -0.19737095481E+03 -0.11001962464E+03 -0.67562337338E+03  0.75500102932E+03  0.25000000000E+03 0.  0.
    5000001    1    1    2    0    0  0.19737095481E+03  0.11001962464E+03 -0.93683053233E+03  0.99559583061E+03  0.25000000000E+03 0.  0.
<mgrwt>
<rscale>  0 0.68160235E+03</rscale>
<asrwt>0</asrwt>
<pdfrwt beam="1">  1        2 0.25869618E+00 0.68160235E+03</pdfrwt>
<pdfrwt beam="2">  1       -2 0.10626382E-01 0.68160235E+03</pdfrwt>
<totfact> 0.63668513E+02</totfact>
</mgrwt>
</event>
<event>
 4    1  0.1805887E-005  0.6825517E+03  0.7818608E-02  0.9747545E-01
          2   -1    0    0  501    0  0.00000000000E+00  0.00000000000E+00  0.22334331441E+04  0.22334331441E+04  0.25500000000E-02 0.  1.
         -2   -1    0    0    0  501 -0.00000000000E+00 -0.00000000000E+00 -0.52148054937E+02  0.52148054999E+02  0.25500000000E-02 0. -1.
   -5000001    1    1    2    0    0 -0.62024385243E+02 -0.15614663707E+02  0.18384971504E+04  0.18565189507E+04  0.25000000000E+03 0.  0.
    5000001    1    1    2    0    0  0.62024385243E+02  0.15614663707E+02  0.34278793877E+03  0.42906224846E+03  0.25000000000E+03 0.  0.
<mgrwt>
<rscale>  0 0.68255167E+03</rscale>
<asrwt>0</asrwt>
<pdfrwt beam="1">  1        2 0.34360516E+00 0.68255167E+03</pdfrwt>
<pdfrwt beam="2">  1       -2 0.80227762E-02 0.68255167E+03</pdfrwt>
<totfact> 0.50143459E+02</totfact>
</mgrwt>
</event>
<event>
 4    1  0.1805887E-005  0.7079636E+03  0.7818608E-02  0.9703709E-01
         -2   -1    0    0    0  501 -0.00000000000E+00  0.00000000000E+00  0.31110830013E+03  0.31110830014E+03  0.25500000000E-02 0. -1.
          2   -1    0    0  501    0  0.00000000000E+00 -0.00000000000E+00 -0.40276364529E+03  0.40276364530E+03  0.25500000000E-02 0.  1.
   -5000001    1    1    2    0    0 -0.20135159353E+03  0.13947893622E+03  0.75887152223E+01  0.35007774346E+03  0.25000000000E+03 0.  0.
    5000001    1    1    2    0    0  0.20135159353E+03 -0.13947893622E+03 -0.99244060383E+02  0.36379420197E+03  0.25000000000E+03 0.  0.
<mgrwt>
<rscale>  0 0.70796360E+03</rscale>
<asrwt>0</asrwt>
<pdfrwt beam="1">  1        2 0.61963638E-01 0.70796360E+03</pdfrwt>
<pdfrwt beam="2">  1       -2 0.47862815E-01 0.70796360E+03</pdfrwt>
<totfact> 0.32924934E+02</totfact>
</mgrwt>
</event>
<event>
 4    1  0.1805887E-005  0.5383867E+03  0.7818608E-02  0.1004218E+00
         -2   -1    0    0    0  501 -0.00000000000E+00  0.00000000000E+00  0.43735661510E+02  0.43735661584E+02  0.25500000000E-02 0.  1.
          2   -1    0    0  501    0  0.00000000000E+00 -0.00000000000E+00 -0.16568872078E+04  0.16568872078E+04  0.25500000000E-02 0. -1.
   -5000001    1    1    2    0    0 -0.93546494726E+02  0.25889638046E+02 -0.88023862302E+03  0.92018544516E+03  0.25000000000E+03 0.  0.
    5000001    1    1    2    0    0  0.93546494726E+02 -0.25889638046E+02 -0.73291292330E+03  0.78043742425E+03  0.25000000000E+03 0.  0.
<mgrwt>
<rscale>  0 0.53838669E+03</rscale>
<asrwt>0</asrwt>
<pdfrwt beam="1">  1        2 0.25490568E+00 0.53838669E+03</pdfrwt>
<pdfrwt beam="2">  1       -2 0.67285646E-02 0.53838669E+03</pdfrwt>
<totfact> 0.13758526E+03</totfact>
</mgrwt>
</event>
<event>
 4    1  0.1805887E-005  0.5527447E+03  0.7818608E-02  0.1000861E+00
         -2   -1    0    0    0  501 -0.00000000000E+00  0.00000000000E+00  0.34872183489E+02  0.34872183582E+02  0.25500000000E-02 0. -1.
          2   -1    0    0  501    0  0.00000000000E+00 -0.00000000000E+00 -0.21903325232E+04  0.21903325232E+04  0.25500000000E-02 0.  1.
   -5000001    1    1    2    0    0 -0.10030763664E+03 -0.59003645979E+02 -0.10036494423E+04  0.10408435307E+04  0.25000000000E+03 0.  0.
    5000001    1    1    2    0    0  0.10030763664E+03  0.59003645979E+02 -0.11518108974E+04  0.11843611762E+04  0.25000000000E+03 0.  0.
<mgrwt>
<rscale>  0 0.55274471E+03</rscale>
<asrwt>0</asrwt>
<pdfrwt beam="1">  1        2 0.33697413E+00 0.55274471E+03</pdfrwt>
<pdfrwt beam="2">  1       -2 0.53649530E-02 0.55274471E+03</pdfrwt>
<totfact> 0.10081801E+03</totfact>
</mgrwt>
</event>
<event>
 4    1  0.1805887E-005  0.6421585E+03  0.7818608E-02  0.9821605E-01
         -2   -1    0    0    0  501 -0.00000000000E+00  0.00000000000E+00  0.95705171463E+02  0.95705171497E+02  0.25500000000E-02 0. -1.
          2   -1    0    0  501    0  0.00000000000E+00 -0.00000000000E+00 -0.10771820224E+04  0.10771820224E+04  0.25500000000E-02 0.  1.
   -5000001    1    1    2    0    0  0.25352023230E+02  0.13612444611E+03 -0.22342754457E+03  0.36275674713E+03  0.25000000000E+03 0.  0.
    5000001    1    1    2    0    0 -0.25352023230E+02 -0.13612444611E+03 -0.75804930638E+03  0.81013044679E+03  0.25000000000E+03 0.  0.
<mgrwt>
<rscale>  0 0.64215852E+03</rscale>
<asrwt>0</asrwt>
<pdfrwt beam="1">  1        2 0.16572030E+00 0.64215852E+03</pdfrwt>
<pdfrwt beam="2">  1       -2 0.14723873E-01 0.64215852E+03</pdfrwt>
<totfact> 0.82100454E+02</totfact>
</mgrwt>
</event>
<event>
 4    1  0.1805887E-005  0.6799234E+03  0.7818608E-02  0.9752196E-01
         -2   -1    0    0    0  501 -0.00000000000E+00  0.00000000000E+00  0.24316232313E+03  0.24316232315E+03  0.25500000000E-02 0. -1.
          2   -1    0    0  501    0  0.00000000000E+00 -0.00000000000E+00 -0.47529547743E+03  0.47529547744E+03  0.25500000000E-02 0.  1.
   -5000001    1    1    2    0    0  0.27705360421E+02  0.14976223865E+03  0.66581208630E+02  0.30021554334E+03  0.25000000000E+03 0.  0.
    5000001    1    1    2    0    0 -0.27705360421E+02 -0.14976223865E+03 -0.29871436293E+03  0.41824225724E+03  0.25000000000E+03 0.  0.
<mgrwt>
<rscale>  0 0.67992339E+03</rscale>
<asrwt>0</asrwt>
<pdfrwt beam="1">  1        2 0.73122381E-01 0.67992339E+03</pdfrwt>
<pdfrwt beam="2">  1       -2 0.37409588E-01 0.67992339E+03</pdfrwt>
<totfact> 0.44344818E+02</totfact>
</mgrwt>
</event>
<event>
 4    1  0.1805887E-005  0.6769563E+03  0.7818608E-02  0.9757472E-01
         -2   -1    0    0    0  501 -0.00000000000E+00  0.00000000000E+00  0.13137063817E+03  0.13137063820E+03  0.25500000000E-02 0.  1.
          2   -1    0    0  501    0  0.00000000000E+00 -0.00000000000E+00 -0.87209327682E+03  0.87209327682E+03  0.25500000000E-02 0. -1.
   -5000001    1    1    2    0    0 -0.21622117862E+03  0.34774956734E+02 -0.27537086987E+03  0.43161326633E+03  0.25000000000E+03 0.  0.
    5000001    1    1    2    0    0  0.21622117862E+03 -0.34774956734E+02 -0.46535176877E+03  0.57185064868E+03  0.25000000000E+03 0.  0.
<mgrwt>
<rscale>  0 0.67695628E+03</rscale>
<asrwt>0</asrwt>
<pdfrwt beam="1">  1        2 0.13416819E+00 0.67695628E+03</pdfrwt>
<pdfrwt beam="2">  1       -2 0.20210868E-01 0.67695628E+03</pdfrwt>
<totfact> 0.64589924E+02</totfact>
</mgrwt>
</event>
<event>
 4    1  0.1805887E-005  0.8793894E+03  0.7818608E-02  0.9451719E-01
          2   -1    0    0  501    0  0.00000000000E+00  0.00000000000E+00  0.77088714731E+03  0.77088714731E+03  0.25500000000E-02 0.  1.
         -2   -1    0    0    0  501 -0.00000000000E+00 -0.00000000000E+00 -0.25079081991E+03  0.25079081993E+03  0.25500000000E-02 0. -1.
   -5000001    1    1    2    0    0  0.24628698829E+03  0.15279462084E+03  0.51145978717E+03  0.63882281632E+03  0.25000000000E+03 0.  0.
    5000001    1    1    2    0    0 -0.24628698829E+03 -0.15279462084E+03  0.86365402210E+01  0.38285515092E+03  0.25000000000E+03 0.  0.
<mgrwt>
<rscale>  0 0.87938938E+03</rscale>
<asrwt>0</asrwt>
<pdfrwt beam="1">  1        2 0.11859802E+00 0.87938938E+03</pdfrwt>
<pdfrwt beam="2">  1       -2 0.38583203E-01 0.87938938E+03</pdfrwt>
<totfact> 0.23026533E+02</totfact>
</mgrwt>
</event>
<event>
 4    1  0.1805887E-005  0.5496371E+03  0.7818608E-02  0.1001578E+00
          2   -1    0    0  501    0  0.00000000000E+00  0.00000000000E+00  0.37268258899E+03  0.37268258900E+03  0.25500000000E-02 0.  1.
         -2   -1    0    0    0  501 -0.00000000000E+00 -0.00000000000E+00 -0.20265295629E+03  0.20265295630E+03  0.25500000000E-02 0. -1.
   -5000001    1    1    2    0    0 -0.10908193027E+03  0.28068841978E+02  0.10427343706E+03  0.29335929690E+03  0.25000000000E+03 0.  0.
    5000001    1    1    2    0    0  0.10908193027E+03 -0.28068841978E+02  0.65756195645E+02  0.28197624841E+03  0.25000000000E+03 0.  0.
<mgrwt>
<rscale>  0 0.54963707E+03</rscale>
<asrwt>0</asrwt>
<pdfrwt beam="1">  1        2 0.57335782E-01 0.54963707E+03</pdfrwt>
<pdfrwt beam="2">  1       -2 0.31177378E-01 0.54963707E+03</pdfrwt>
<totfact> 0.82486709E+02</totfact>
</mgrwt>
</event>
<event>
 4    1  0.1805887E-005  0.6095771E+03  0.7818608E-02  0.9885733E-01
         -2   -1    0    0    0  501 -0.00000000000E+00  0.00000000000E+00  0.85037116931E+03  0.85037116931E+03  0.25500000000E-02 0. -1.
          2   -1    0    0  501    0  0.00000000000E+00 -0.00000000000E+00 -0.10924179107E+03  0.10924179110E+03  0.25500000000E-02 0.  1.
   -5000001    1    1    2    0    0  0.12846334656E+03 -0.10410300938E+03  0.28354249674E+03  0.41259740114E+03  0.25000000000E+03 0.  0.
    5000001    1    1    2    0    0 -0.12846334656E+03  0.10410300938E+03  0.45758688150E+03  0.54701555928E+03  0.25000000000E+03 0.  0.
<mgrwt>
<rscale>  0 0.60957713E+03</rscale>
<asrwt>0</asrwt>
<pdfrwt beam="1">  1        2 0.16806429E-01 0.60957713E+03</pdfrwt>
<pdfrwt beam="2">  1       -2 0.13082633E+00 0.60957713E+03</pdfrwt>
<totfact> 0.15149514E+02</totfact>
</mgrwt>
</event>
<event>
 4    1  0.1805887E-005  0.7261639E+03  0.7818608E-02  0.9673506E-01
          2   -1    0    0  501    0  0.00000000000E+00  0.00000000000E+00  0.13525983074E+03  0.13525983077E+03  0.25500000000E-02 0.  1.
         -2   -1    0    0    0  501 -0.00000000000E+00 -0.00000000000E+00 -0.97463155406E+03  0.97463155406E+03  0.25500000000E-02 0. -1.
   -5000001    1    1    2    0    0  0.23416021419E+03  0.10738907125E+03 -0.33645889296E+03  0.49200407029E+03  0.25000000000E+03 0.  0.
    5000001    1    1    2    0    0 -0.23416021419E+03 -0.10738907125E+03 -0.50291283035E+03  0.61788731454E+03  0.25000000000E+03 0.  0.
<mgrwt>
<rscale>  0 0.72616389E+03</rscale>
<asrwt>0</asrwt>
<pdfrwt beam="1">  1        2 0.20809205E-01 0.72616389E+03</pdfrwt>
<pdfrwt beam="2">  1       -2 0.14994331E+00 0.72616389E+03</pdfrwt>
<totfact> 0.82316704E+01</totfact>
</mgrwt>
</event>
<event>
 4    1  0.1805887E-005  0.8542277E+03  0.7818608E-02  0.9484680E-01
         -2   -1    0    0    0  501 -0.00000000000E+00  0.00000000000E+00  0.10106070222E+04  0.10106070222E+04  0.25500000000E-02 0. -1.
          2   -1    0    0  501    0  0.00000000000E+00 -0.00000000000E+00 -0.18051155117E+03  0.18051155119E+03  0.25500000000E-02 0.  1.
   -5000001    1    1    2    0    0  0.81733985133E+02 -0.30196994134E+03  0.20794605548E+03  0.45122926743E+03  0.25000000000E+03 0.  0.
    5000001    1    1    2    0    0 -0.81733985133E+02  0.30196994134E+03  0.62214941555E+03  0.73988930595E+03  0.25000000000E+03 0.  0.
<mgrwt>
<rscale>  0 0.85422770E+03</rscale>
<asrwt>0</asrwt>
<pdfrwt beam="1">  1        2 0.27771008E-01 0.85422770E+03</pdfrwt>
<pdfrwt beam="2">  1       -2 0.15547800E+00 0.85422770E+03</pdfrwt>
<totfact> 0.53207391E+01</totfact>
</mgrwt>
</event>
<event>
 4    1  0.1805887E-005  0.7943233E+03  0.7818608E-02  0.9568270E-01
         -2   -1    0    0    0  501 -0.00000000000E+00  0.00000000000E+00  0.11289296369E+03  0.11289296372E+03  0.25500000000E-02 0. -1.
          2   -1    0    0  501    0  0.00000000000E+00 -0.00000000000E+00 -0.13972294266E+04  0.13972294266E+04  0.25500000000E-02 0.  1.
   -5000001    1    1    2    0    0 -0.70414842818E+02  0.21438667821E+03 -0.10423915114E+04  0.10954450972E+04  0.25000000000E+03 0.  0.
    5000001    1    1    2    0    0  0.70414842818E+02 -0.21438667821E+03 -0.24194495146E+03  0.41467729311E+03  0.25000000000E+03 0.  0.
<mgrwt>
<rscale>  0 0.79432329E+03</rscale>
<asrwt>0</asrwt>
<pdfrwt beam="1">  1        2 0.21495836E+00 0.79432329E+03</pdfrwt>
<pdfrwt beam="2">  1       -2 0.17368149E-01 0.79432329E+03</pdfrwt>
<totfact> 0.39950552E+02</totfact>
</mgrwt>
</event>
<event>
 4    1  0.1805887E-005  0.6474198E+03  0.7818608E-02  0.9811633E-01
         -2   -1    0    0    0  501 -0.00000000000E+00  0.00000000000E+00  0.46479395416E+02  0.46479395486E+02  0.25500000000E-02 0. -1.
          2   -1    0    0  501    0  0.00000000000E+00 -0.00000000000E+00 -0.22545068322E+04  0.22545068322E+04  0.25500000000E-02 0.  1.
   -5000001    1    1    2    0    0  0.23124168711E+02  0.15079561250E+03 -0.61393531756E+03  0.68021365620E+03  0.25000000000E+03 0.  0.
    5000001    1    1    2    0    0 -0.23124168711E+02 -0.15079561250E+03 -0.15940921192E+04  0.16207725715E+04  0.25000000000E+03 0.  0.
<mgrwt>
<rscale>  0 0.64741985E+03</rscale>
<asrwt>0</asrwt>
<pdfrwt beam="1">  1        2 0.34684712E+00 0.64741985E+03</pdfrwt>
<pdfrwt beam="2">  1       -2 0.71506780E-02 0.64741985E+03</pdfrwt>
<totfact> 0.58801910E+02</totfact>
</mgrwt>
</event>
<event>
 4    1  0.1805887E-005  0.5848360E+03  0.7818608E-02  0.9937376E-01
          2   -1    0    0  501    0  0.00000000000E+00  0.00000000000E+00  0.10166183434E+03  0.10166183438E+03  0.25500000000E-02 0.  1.
         -2   -1    0    0    0  501 -0.00000000000E+00 -0.00000000000E+00 -0.84110520769E+03  0.84110520769E+03  0.25500000000E-02 0. -1.
   -5000001    1    1    2    0    0 -0.26260045072E+02 -0.13614002010E+03 -0.46889171657E+03  0.54916585556E+03  0.25000000000E+03 0.  0.
    5000001    1    1    2    0    0  0.26260045072E+02  0.13614002010E+03 -0.27055165677E+03  0.39360118651E+03  0.25000000000E+03 0.  0.
<mgrwt>
<rscale>  0 0.58483604E+03</rscale>
<asrwt>0</asrwt>
<pdfrwt beam="1">  1        2 0.15640283E-01 0.58483604E+03</pdfrwt>
<pdfrwt beam="2">  1       -2 0.12940080E+00 0.58483604E+03</pdfrwt>
<totfact> 0.16993348E+02</totfact>
</mgrwt>
</event>
<event>
 4    1  0.1805887E-005  0.1273315E+04  0.7818608E-02  0.9050998E-01
          2   -1    0    0  501    0  0.00000000000E+00  0.00000000000E+00  0.34154531327E+03  0.34154531328E+03  0.25500000000E-02 0.  1.
         -2   -1    0    0    0  501 -0.00000000000E+00 -0.00000000000E+00 -0.11867619213E+04  0.11867619213E+04  0.25500000000E-02 0. -1.
   -5000001    1    1    2    0    0 -0.58376521949E+03 -0.60225115989E+01 -0.47648466181E+03  0.79394945373E+03  0.25000000000E+03 0.  0.
    5000001    1    1    2    0    0  0.58376521949E+03  0.60225115989E+01 -0.36873194619E+03  0.73435778084E+03  0.25000000000E+03 0.  0.
<mgrwt>
<rscale>  0 0.12733153E+04</rscale>
<asrwt>0</asrwt>
<pdfrwt beam="1">  1        2 0.52545433E-01 0.12733153E+04</pdfrwt>
<pdfrwt beam="2">  1       -2 0.18257875E+00 0.12733153E+04</pdfrwt>
<totfact> 0.16214903E+01</totfact>
</mgrwt>
</event>
<event>
 4    1  0.1805887E-005  0.7129791E+03  0.7818608E-02  0.9695290E-01
          2   -1    0    0  501    0  0.00000000000E+00  0.00000000000E+00  0.31811535844E+04  0.31811535844E+04  0.25500000000E-02 0.  1.
         -2   -1    0    0    0  501 -0.00000000000E+00 -0.00000000000E+00 -0.39949284826E+02  0.39949284908E+02  0.25500000000E-02 0. -1.
   -5000001    1    1    2    0    0  0.25518499213E+02 -0.12646692797E+03  0.25597827299E+04  0.25751956628E+04  0.25000000000E+03 0.  0.
    5000001    1    1    2    0    0 -0.25518499213E+02  0.12646692797E+03  0.58142156968E+03  0.64590720647E+03  0.25000000000E+03 0.  0.
<mgrwt>
<rscale>  0 0.71297913E+03</rscale>
<asrwt>0</asrwt>
<pdfrwt beam="1">  1        2 0.48940853E+00 0.71297913E+03</pdfrwt>
<pdfrwt beam="2">  1       -2 0.61460402E-02 0.71297913E+03</pdfrwt>
<totfact> 0.21282241E+02</totfact>
</mgrwt>
</event>
<event>
 4    1  0.1805887E-005  0.1093975E+04  0.7818608E-02  0.9211085E-01
         -2   -1    0    0    0  501 -0.00000000000E+00  0.00000000000E+00  0.12329873179E+03  0.12329873182E+03  0.25500000000E-02 0. -1.
          2   -1    0    0  501    0  0.00000000000E+00 -0.00000000000E+00 -0.24265868081E+04  0.24265868081E+04  0.25500000000E-02 0.  1.
   -5000001    1    1    2    0    0 -0.18942385774E+03 -0.31994428728E+03 -0.18829849259E+04  0.19355562446E+04  0.25000000000E+03 0.  0.
    5000001    1    1    2    0    0  0.18942385774E+03  0.31994428728E+03 -0.42030315043E+03  0.61432929534E+03  0.25000000000E+03 0.  0.
<mgrwt>
<rscale>  0 0.10939745E+04</rscale>
<asrwt>0</asrwt>
<pdfrwt beam="1">  1        2 0.37332101E+00 0.10939745E+04</pdfrwt>
<pdfrwt beam="2">  1       -2 0.18969037E-01 0.10939745E+04</pdfrwt>
<totfact> 0.90101022E+01</totfact>
</mgrwt>
</event>
<event>
 4    1  0.1805887E-005  0.6908998E+03  0.7818608E-02  0.9732922E-01
          2   -1    0    0  501    0  0.00000000000E+00  0.00000000000E+00  0.34218005302E+03  0.34218005303E+03  0.25500000000E-02 0.  1.
         -2   -1    0    0    0  501 -0.00000000000E+00 -0.00000000000E+00 -0.34875104182E+03  0.34875104183E+03  0.25500000000E-02 0. -1.
   -5000001    1    1    2    0    0 -0.23626028027E+03 -0.22057579435E+02  0.19741470311E+02  0.34524655319E+03  0.25000000000E+03 0.  0.
    5000001    1    1    2    0    0  0.23626028027E+03  0.22057579435E+02 -0.26312459114E+02  0.34568454167E+03  0.25000000000E+03 0.  0.
<mgrwt>
<rscale>  0 0.69089985E+03</rscale>
<asrwt>0</asrwt>
<pdfrwt beam="1">  1        2 0.52643085E-01 0.69089985E+03</pdfrwt>
<pdfrwt beam="2">  1       -2 0.53654006E-01 0.69089985E+03</pdfrwt>
<totfact> 0.31318033E+02</totfact>
</mgrwt>
</event>
<event>
 4    1  0.1805887E-005  0.6555130E+03  0.7818608E-02  0.9796489E-01
          2   -1    0    0  501    0  0.00000000000E+00  0.00000000000E+00  0.23227718825E+03  0.23227718826E+03  0.25500000000E-02 0.  1.
         -2   -1    0    0    0  501 -0.00000000000E+00 -0.00000000000E+00 -0.46248336882E+03  0.46248336882E+03  0.25500000000E-02 0. -1.
   -5000001    1    1    2    0    0  0.51297229490E+01  0.15837572534E+03  0.34091310353E+02  0.29794530014E+03  0.25000000000E+03 0.  0.
    5000001    1    1    2    0    0 -0.51297229490E+01 -0.15837572534E+03 -0.26429749092E+03  0.39681525694E+03  0.25000000000E+03 0.  0.
<mgrwt>
<rscale>  0 0.65551304E+03</rscale>
<asrwt>0</asrwt>
<pdfrwt beam="1">  1        2 0.35734952E-01 0.65551304E+03</pdfrwt>
<pdfrwt beam="2">  1       -2 0.71151288E-01 0.65551304E+03</pdfrwt>
<totfact> 0.26481940E+02</totfact>
</mgrwt>
</event>
<event>
 4    1  0.1805887E-005  0.1076355E+04  0.7818608E-02  0.9228550E-01
          2   -1    0    0  501    0  0.00000000000E+00  0.00000000000E+00  0.60327466702E+03  0.60327466702E+03  0.25500000000E-02 0.  1.
         -2   -1    0    0    0  501 -0.00000000000E+00 -0.00000000000E+00 -0.48010444384E+03  0.48010444385E+03  0.25500000000E-02 0. -1.
   -5000001    1    1    2    0    0  0.30044734379E+03 -0.36678299239E+03  0.11023770087E+03  0.54722090657E+03  0.25000000000E+03 0.  0.
    5000001    1    1    2    0    0 -0.30044734379E+03  0.36678299239E+03  0.12932522303E+02  0.53615820429E+03  0.25000000000E+03 0.  0.
<mgrwt>
<rscale>  0 0.10763547E+04</rscale>
<asrwt>0</asrwt>
<pdfrwt beam="1">  1        2 0.92811487E-01 0.10763547E+04</pdfrwt>
<pdfrwt beam="2">  1       -2 0.73862222E-01 0.10763547E+04</pdfrwt>
<totfact> 0.80970716E+01</totfact>
</mgrwt>
</event>
<event>
 4    1  0.1805887E-005  0.6214993E+03  0.7818608E-02  0.9861779E-01
         -2   -1    0    0    0  501 -0.00000000000E+00  0.00000000000E+00  0.18527446115E+03  0.18527446117E+03  0.25500000000E-02 0. -1.
          2   -1    0    0  501    0  0.00000000000E+00 -0.00000000000E+00 -0.52120166988E+03  0.52120166989E+03  0.25500000000E-02 0.  1.
   -5000001    1    1    2    0    0 -0.17459293739E+03 -0.40507150759E+01 -0.23584692918E+03  0.38551637589E+03  0.25000000000E+03 0.  0.
    5000001    1    1    2    0    0  0.17459293739E+03  0.40507150759E+01 -0.10008027955E+03  0.32095975517E+03  0.25000000000E+03 0.  0.
<mgrwt>
<rscale>  0 0.62149934E+03</rscale>
<asrwt>0</asrwt>
<pdfrwt beam="1">  1        2 0.80184871E-01 0.62149934E+03</pdfrwt>
<pdfrwt beam="2">  1       -2 0.28503764E-01 0.62149934E+03</pdfrwt>
<totfact> 0.66511794E+02</totfact>
</mgrwt>
</event>
<event>
 4    1  0.1805887E-005  0.6887209E+03  0.7818608E-02  0.9736718E-01
          2   -1    0    0  501    0  0.00000000000E+00  0.00000000000E+00  0.62347075335E+03  0.62347075336E+03  0.25500000000E-02 0.  1.
         -2   -1    0    0    0  501 -0.00000000000E+00 -0.00000000000E+00 -0.19019995968E+03  0.19019995970E+03  0.25500000000E-02 0. -1.
   -5000001    1    1    2    0    0 -0.10670952346E+03  0.17814106493E+03  0.35114626356E+03  0.47846092821E+03  0.25000000000E+03 0.  0.
    5000001    1    1    2    0    0  0.10670952346E+03 -0.17814106493E+03  0.82124530116E+02  0.33520978485E+03  0.25000000000E+03 0.  0.
<mgrwt>
<rscale>  0 0.68872088E+03</rscale>
<asrwt>0</asrwt>
<pdfrwt beam="1">  1        2 0.95918575E-01 0.68872088E+03</pdfrwt>
<pdfrwt beam="2">  1       -2 0.29261533E-01 0.68872088E+03</pdfrwt>
<totfact> 0.51142955E+02</totfact>
</mgrwt>
</event>
<event>
 4    1  0.1805887E-005  0.2067910E+04  0.7818608E-02  0.8575513E-01
         -2   -1    0    0    0  501 -0.00000000000E+00  0.00000000000E+00  0.16763651336E+04  0.16763651336E+04  0.25500000000E-02 0. -1.
          2   -1    0    0  501    0  0.00000000000E+00 -0.00000000000E+00 -0.63772676038E+03  0.63772676038E+03  0.25500000000E-02 0.  1.
   -5000001    1    1    2    0    0 -0.79459414483E+03  0.60322050508E+03  0.40032019544E+03  0.11036353980E+04  0.25000000000E+03 0.  0.
    5000001    1    1    2    0    0  0.79459414483E+03 -0.60322050508E+03  0.63831817782E+03  0.12104564961E+04  0.25000000000E+03 0.  0.
<mgrwt>
<rscale>  0 0.20679100E+04</rscale>
<asrwt>0</asrwt>
<pdfrwt beam="1">  1        2 0.98111811E-01 0.20679100E+04</pdfrwt>
<pdfrwt beam="2">  1       -2 0.25790232E+00 0.20679100E+04</pdfrwt>
<totfact> 0.24441557E+00</totfact>
</mgrwt>
</event>
<event>
 4    1  0.1805887E-005  0.1506088E+04  0.7818608E-02  0.8880415E-01
          2   -1    0    0  501    0  0.00000000000E+00  0.00000000000E+00  0.85142079844E+03  0.85142079844E+03  0.25500000000E-02 0.  1.
         -2   -1    0    0    0  501 -0.00000000000E+00 -0.00000000000E+00 -0.66603389730E+03  0.66603389731E+03  0.25500000000E-02 0. -1.
   -5000001    1    1    2    0    0  0.16198521677E+03 -0.58064167740E+03 -0.28589658040E+03  0.71247513828E+03  0.25000000000E+03 0.  0.
    5000001    1    1    2    0    0 -0.16198521677E+03  0.58064167740E+03  0.47128348153E+03  0.80497955747E+03  0.25000000000E+03 0.  0.
<mgrwt>
<rscale>  0 0.15060878E+04</rscale>
<asrwt>0</asrwt>
<pdfrwt beam="1">  1        2 0.13098781E+00 0.15060878E+04</pdfrwt>
<pdfrwt beam="2">  1       -2 0.10246675E+00 0.15060878E+04</pdfrwt>
<totfact> 0.23839812E+01</totfact>
</mgrwt>
</event>
<event>
 4    1  0.1805887E-005  0.5533871E+03  0.7818608E-02  0.1000713E+00
          2   -1    0    0  501    0  0.00000000000E+00  0.00000000000E+00  0.60603474115E+03  0.60603474116E+03  0.25500000000E-02 0.  1.
         -2   -1    0    0    0  501 -0.00000000000E+00 -0.00000000000E+00 -0.12632825158E+03  0.12632825161E+03  0.25500000000E-02 0. -1.
   -5000001    1    1    2    0    0 -0.16703961067E+02 -0.11709198356E+03  0.25090631641E+03  0.37342139004E+03  0.25000000000E+03 0.  0.
    5000001    1    1    2    0    0  0.16703961067E+02  0.11709198356E+03  0.22880017316E+03  0.35894160273E+03  0.25000000000E+03 0.  0.
<mgrwt>
<rscale>  0 0.55338706E+03</rscale>
<asrwt>0</asrwt>
<pdfrwt beam="1">  1        2 0.93236116E-01 0.55338706E+03</pdfrwt>
<pdfrwt beam="2">  1       -2 0.19435115E-01 0.55338706E+03</pdfrwt>
<totfact> 0.11025747E+03</totfact>
</mgrwt>
</event>
<event>
 4    1  0.1805887E-005  0.1064462E+04  0.7818608E-02  0.9240539E-01
          2   -1    0    0  501    0  0.00000000000E+00  0.00000000000E+00  0.34440367273E+04  0.34440367273E+04  0.25500000000E-02 0. -1.
         -2   -1    0    0    0  501 -0.00000000000E+00 -0.00000000000E+00 -0.82249328597E+02  0.82249328636E+02  0.25500000000E-02 0.  1.
   -5000001    1    1    2    0    0 -0.19337451611E+03  0.38263348270E+03  0.23178332828E+04  0.23703698472E+04  0.25000000000E+03 0.  0.
    5000001    1    1    2    0    0  0.19337451611E+03 -0.38263348270E+03  0.10439541159E+04  0.11559162088E+04  0.25000000000E+03 0.  0.
<mgrwt>
<rscale>  0 0.10644618E+04</rscale>
<asrwt>0</asrwt>
<pdfrwt beam="1">  1        2 0.52985177E+00 0.10644618E+04</pdfrwt>
<pdfrwt beam="2">  1       -2 0.12653744E-01 0.10644618E+04</pdfrwt>
<totfact> 0.42700788E+01</totfact>
</mgrwt>
</event>
<event>
 4    1  0.1805887E-005  0.7095316E+03  0.7818608E-02  0.9701069E-01
          2   -1    0    0  501    0  0.00000000000E+00  0.00000000000E+00  0.26726564848E+04  0.26726564848E+04  0.25500000000E-02 0.  1.
         -2   -1    0    0    0  501 -0.00000000000E+00 -0.00000000000E+00 -0.47091261609E+02  0.47091261678E+02  0.25500000000E-02 0. -1.
   -5000001    1    1    2    0    0  0.21528107990E+03 -0.32085341447E+02  0.82817431458E+03  0.89204714440E+03  0.25000000000E+03 0.  0.
    5000001    1    1    2    0    0 -0.21528107990E+03  0.32085341447E+02  0.17973909086E+04  0.18277006021E+04  0.25000000000E+03 0.  0.
<mgrwt>
<rscale>  0 0.70953158E+03</rscale>
<asrwt>0</asrwt>
<pdfrwt beam="1">  1        2 0.41117796E+00 0.70953158E+03</pdfrwt>
<pdfrwt beam="2">  1       -2 0.72448088E-02 0.70953158E+03</pdfrwt>
<totfact> 0.33289892E+02</totfact>
</mgrwt>
</event>
<event>
 4    1  0.1805887E-005  0.8445750E+03  0.7818608E-02  0.9497647E-01
          2   -1    0    0  501    0  0.00000000000E+00  0.00000000000E+00  0.10642343806E+03  0.10642343809E+03  0.25500000000E-02 0.  1.
         -2   -1    0    0    0  501 -0.00000000000E+00 -0.00000000000E+00 -0.16756339925E+04  0.16756339925E+04  0.25500000000E-02 0. -1.
   -5000001    1    1    2    0    0 -0.33083603822E+03 -0.49907090069E+02 -0.91609649013E+03  0.10068147700E+04  0.25000000000E+03 0.  0.
    5000001    1    1    2    0    0  0.33083603822E+03  0.49907090069E+02 -0.65311406429E+03  0.77524266059E+03  0.25000000000E+03 0.  0.
<mgrwt>
<rscale>  0 0.84457499E+03</rscale>
<asrwt>0</asrwt>
<pdfrwt beam="1">  1        2 0.16372838E-01 0.84457499E+03</pdfrwt>
<pdfrwt beam="2">  1       -2 0.25778983E+00 0.84457499E+03</pdfrwt>
<totfact> 0.21200810E+01</totfact>
</mgrwt>
</event>
<event>
 4    1  0.1805887E-005  0.9170680E+03  0.7818608E-02  0.9404494E-01
          2   -1    0    0  501    0  0.00000000000E+00  0.00000000000E+00  0.66695070628E+03  0.66695070628E+03  0.25500000000E-02 0.  1.
         -2   -1    0    0    0  501 -0.00000000000E+00 -0.00000000000E+00 -0.31524582281E+03  0.31524582282E+03  0.25500000000E-02 0. -1.
   -5000001    1    1    2    0    0 -0.28568981796E+03 -0.11903387185E+03  0.42000158660E+03  0.57852317799E+03  0.25000000000E+03 0.  0.
    5000001    1    1    2    0    0  0.28568981796E+03  0.11903387185E+03 -0.68296703130E+02  0.40367335110E+03  0.25000000000E+03 0.  0.
<mgrwt>
<rscale>  0 0.91706799E+03</rscale>
<asrwt>0</asrwt>
<pdfrwt beam="1">  1        2 0.10260780E+00 0.91706799E+03</pdfrwt>
<pdfrwt beam="2">  1       -2 0.48499358E-01 0.91706799E+03</pdfrwt>
<totfact> 0.17576436E+02</totfact>
</mgrwt>
</event>
<event>
 4    1  0.1805887E-005  0.7962877E+03  0.7818608E-02  0.9565406E-01
         -2   -1    0    0    0  501 -0.00000000000E+00  0.00000000000E+00  0.51027038111E+03  0.51027038111E+03  0.25500000000E-02 0. -1.
          2   -1    0    0  501    0  0.00000000000E+00 -0.00000000000E+00 -0.31065593898E+03  0.31065593900E+03  0.25500000000E-02 0.  1.
   -5000001    1    1    2    0    0  0.27899939115E+03 -0.49013640301E+02 -0.29679762686E+02  0.37897742085E+03  0.25000000000E+03 0.  0.
    5000001    1    1    2    0    0 -0.27899939115E+03  0.49013640301E+02  0.22929420481E+03  0.44194889926E+03  0.25000000000E+03 0.  0.
<mgrwt>
<rscale>  0 0.79628770E+03</rscale>
<asrwt>0</asrwt>
<pdfrwt beam="1">  1        2 0.47793221E-01 0.79628770E+03</pdfrwt>
<pdfrwt beam="2">  1       -2 0.78503135E-01 0.79628770E+03</pdfrwt>
<totfact> 0.15346921E+02</totfact>
</mgrwt>
</event>
<event>
 4    1  0.1805887E-005  0.1156745E+04  0.7818608E-02  0.9151583E-01
          2   -1    0    0  501    0  0.00000000000E+00  0.00000000000E+00  0.14190379219E+04  0.14190379219E+04  0.25500000000E-02 0.  1.
         -2   -1    0    0    0  501 -0.00000000000E+00 -0.00000000000E+00 -0.23573349933E+03  0.23573349934E+03  0.25500000000E-02 0. -1.
   -5000001    1    1    2    0    0  0.49236100436E+03 -0.14960699656E+03  0.47015585974E+03  0.74050533049E+03  0.25000000000E+03 0.  0.
    5000001    1    1    2    0    0 -0.49236100436E+03  0.14960699656E+03  0.71314856283E+03  0.91426609075E+03  0.25000000000E+03 0.  0.
<mgrwt>
<rscale>  0 0.11567450E+04</rscale>
<asrwt>0</asrwt>
<pdfrwt beam="1">  1        2 0.21831353E+00 0.11567450E+04</pdfrwt>
<pdfrwt beam="2">  1       -2 0.36266692E-01 0.11567450E+04</pdfrwt>
<totfact> 0.99834200E+01</totfact>
</mgrwt>
</event>
<event>
 4    1  0.1805887E-005  0.1070807E+04  0.7818608E-02  0.9234122E-01
         -2   -1    0    0    0  501 -0.00000000000E+00  0.00000000000E+00  0.82058029241E+03  0.82058029241E+03  0.25500000000E-02 0. -1.
          2   -1    0    0  501    0  0.00000000000E+00 -0.00000000000E+00 -0.34933432657E+03  0.34933432658E+03  0.25500000000E-02 0.  1.
   -5000001    1    1    2    0    0  0.29370273495E+03 -0.21179042354E+03  0.56887957302E+03  0.71919430519E+03  0.25000000000E+03 0.  0.
    5000001    1    1    2    0    0 -0.29370273495E+03  0.21179042354E+03 -0.97633607186E+02  0.45072031380E+03  0.25000000000E+03 0.  0.
<mgrwt>
<rscale>  0 0.10708069E+04</rscale>
<asrwt>0</asrwt>
<pdfrwt beam="1">  1        2 0.53743743E-01 0.10708069E+04</pdfrwt>
<pdfrwt beam="2">  1       -2 0.12624312E+00 0.10708069E+04</pdfrwt>
<totfact> 0.43050368E+01</totfact>
</mgrwt>
</event>
<event>
 4    1  0.1805887E-005  0.5769796E+03  0.7818608E-02  0.9954352E-01
         -2   -1    0    0    0  501 -0.00000000000E+00  0.00000000000E+00  0.31179453652E+03  0.31179453653E+03  0.25500000000E-02 0. -1.
          2   -1    0    0  501    0  0.00000000000E+00 -0.00000000000E+00 -0.26692697352E+03  0.26692697353E+03  0.25500000000E-02 0.  1.
   -5000001    1    1    2    0    0  0.13313958221E+03 -0.53545882083E+02  0.34003863313E+02  0.29025776916E+03  0.25000000000E+03 0.  0.
    5000001    1    1    2    0    0 -0.13313958221E+03  0.53545882083E+02  0.10863699685E+02  0.28846374089E+03  0.25000000000E+03 0.  0.
<mgrwt>
<rscale>  0 0.57697963E+03</rscale>
<asrwt>0</asrwt>
<pdfrwt beam="1">  1        2 0.41065688E-01 0.57697963E+03</pdfrwt>
<pdfrwt beam="2">  1       -2 0.47968390E-01 0.57697963E+03</pdfrwt>
<totfact> 0.51918763E+02</totfact>
</mgrwt>
</event>
<event>
 4    1  0.1805887E-005  0.6755576E+03  0.7818608E-02  0.9759970E-01
         -2   -1    0    0    0  501 -0.00000000000E+00  0.00000000000E+00  0.33385833508E+03  0.33385833509E+03  0.25500000000E-02 0. -1.
          2   -1    0    0  501    0  0.00000000000E+00 -0.00000000000E+00 -0.34174533604E+03  0.34174533605E+03  0.25500000000E-02 0.  1.
   -5000001    1    1    2    0    0 -0.49708175770E+02  0.21031222402E+03 -0.73893921804E+02  0.33861843717E+03  0.25000000000E+03 0.  0.
    5000001    1    1    2    0    0  0.49708175770E+02 -0.21031222402E+03  0.66006920841E+02  0.33698523397E+03  0.25000000000E+03 0.  0.
<mgrwt>
<rscale>  0 0.67555763E+03</rscale>
<asrwt>0</asrwt>
<pdfrwt beam="1">  1        2 0.52576206E-01 0.67555763E+03</pdfrwt>
<pdfrwt beam="2">  1       -2 0.51362821E-01 0.67555763E+03</pdfrwt>
<totfact> 0.34314509E+02</totfact>
</mgrwt>
</event>
<event>
 4    1  0.1805887E-005  0.7875245E+03  0.7818608E-02  0.9578253E-01
         -2   -1    0    0    0  501 -0.00000000000E+00  0.00000000000E+00  0.74587410094E+02  0.74587410138E+02  0.25500000000E-02 0. -1.
          2   -1    0    0  501    0  0.00000000000E+00 -0.00000000000E+00 -0.20787516315E+04  0.20787516315E+04  0.25500000000E-02 0.  1.
   -5000001    1    1    2    0    0  0.34777525754E+01 -0.29337862860E+03 -0.78221903474E+03  0.87203769001E+03  0.25000000000E+03 0.  0.
    5000001    1    1    2    0    0 -0.34777525754E+01  0.29337862860E+03 -0.12219451866E+04  0.12813013516E+04  0.25000000000E+03 0.  0.
<mgrwt>
<rscale>  0 0.78752448E+03</rscale>
<asrwt>0</asrwt>
<pdfrwt beam="1">  1        2 0.31980790E+00 0.78752448E+03</pdfrwt>
<pdfrwt beam="2">  1       -2 0.11474988E-01 0.78752448E+03</pdfrwt>
<totfact> 0.33838224E+02</totfact>
</mgrwt>
</event>
<event>
 4    1  0.1805887E-005  0.6386025E+03  0.7818608E-02  0.9828404E-01
          2   -1    0    0  501    0  0.00000000000E+00  0.00000000000E+00  0.26347544616E+03  0.26347544617E+03  0.25500000000E-02 0.  1.
         -2   -1    0    0    0  501 -0.00000000000E+00 -0.00000000000E+00 -0.38695555232E+03  0.38695555233E+03  0.25500000000E-02 0. -1.
   -5000001    1    1    2    0    0 -0.11842058593E+03 -0.37507292636E+02  0.96124539812E+02  0.29524593025E+03  0.25000000000E+03 0.  0.
    5000001    1    1    2    0    0  0.11842058593E+03  0.37507292636E+02 -0.21960464598E+03  0.35518506825E+03  0.25000000000E+03 0.  0.
<mgrwt>
<rscale>  0 0.63860250E+03</rscale>
<asrwt>0</asrwt>
<pdfrwt beam="1">  1        2 0.40534684E-01 0.63860250E+03</pdfrwt>
<pdfrwt beam="2">  1       -2 0.59531624E-01 0.63860250E+03</pdfrwt>
<totfact> 0.33748567E+02</totfact>
</mgrwt>
</event>
<event>
 4    1  0.1805887E-005  0.8679200E+03  0.7818608E-02  0.9466596E-01
          2   -1    0    0  501    0  0.00000000000E+00  0.00000000000E+00  0.10065611766E+04  0.10065611766E+04  0.25500000000E-02 0.  1.
         -2   -1    0    0    0  501 -0.00000000000E+00 -0.00000000000E+00 -0.18709371756E+03  0.18709371758E+03  0.25500000000E-02 0. -1.
   -5000001    1    1    2    0    0 -0.27132579023E+03  0.22822469810E+03  0.42461471240E+03  0.60704353324E+03  0.25000000000E+03 0.  0.
    5000001    1    1    2    0    0  0.27132579023E+03 -0.22822469810E+03  0.39485274666E+03  0.58661136096E+03  0.25000000000E+03 0.  0.
<mgrwt>
<rscale>  0 0.86791998E+03</rscale>
<asrwt>0</asrwt>
<pdfrwt beam="1">  1        2 0.15485556E+00 0.86791998E+03</pdfrwt>
<pdfrwt beam="2">  1       -2 0.28783649E-01 0.86791998E+03</pdfrwt>
<totfact> 0.27688859E+02</totfact>
</mgrwt>
</event>
<event>
 4    1  0.1805887E-005  0.1033608E+04  0.7818608E-02  0.9272433E-01
          2   -1    0    0  501    0  0.00000000000E+00  0.00000000000E+00  0.96210819245E+03  0.96210819245E+03  0.25500000000E-02 0.  1.
         -2   -1    0    0    0  501 -0.00000000000E+00 -0.00000000000E+00 -0.27760546294E+03  0.27760546295E+03  0.25500000000E-02 0. -1.
   -5000001    1    1    2    0    0 -0.30363832838E+03  0.30723616922E+03  0.50315125142E+03  0.70869702973E+03  0.25000000000E+03 0.  0.
    5000001    1    1    2    0    0  0.30363832838E+03 -0.30723616922E+03  0.18135147809E+03  0.53101662568E+03  0.25000000000E+03 0.  0.
<mgrwt>
<rscale>  0 0.10336082E+04</rscale>
<asrwt>0</asrwt>
<pdfrwt beam="1">  1        2 0.14801665E+00 0.10336082E+04</pdfrwt>
<pdfrwt beam="2">  1       -2 0.42708533E-01 0.10336082E+04</pdfrwt>
<totfact> 0.13798984E+02</totfact>
</mgrwt>
</event>
<event>
 4    1  0.1805887E-005  0.1031452E+04  0.7818608E-02  0.9274706E-01
         -2   -1    0    0    0  501 -0.00000000000E+00  0.00000000000E+00  0.11005800820E+03  0.11005800822E+03  0.25500000000E-02 0. -1.
          2   -1    0    0  501    0  0.00000000000E+00 -0.00000000000E+00 -0.24166636239E+04  0.24166636239E+04  0.25500000000E-02 0.  1.
   -5000001    1    1    2    0    0  0.16564364521E+03 -0.41558773551E+03 -0.12944985122E+04  0.13922562197E+04  0.25000000000E+03 0.  0.
    5000001    1    1    2    0    0 -0.16564364521E+03  0.41558773551E+03 -0.10121071035E+04  0.11344654124E+04  0.25000000000E+03 0.  0.
<mgrwt>
<rscale>  0 0.10314518E+04</rscale>
<asrwt>0</asrwt>
<pdfrwt beam="1">  1        2 0.37179436E+00 0.10314518E+04</pdfrwt>
<pdfrwt beam="2">  1       -2 0.16932003E-01 0.10314518E+04</pdfrwt>
<totfact> 0.11173627E+02</totfact>
</mgrwt>
</event>
<event>
 4    1  0.1805887E-005  0.1652181E+04  0.7818608E-02  0.8789117E-01
          2   -1    0    0  501    0  0.00000000000E+00  0.00000000000E+00  0.25016302262E+04  0.25016302262E+04  0.25500000000E-02 0.  1.
         -2   -1    0    0    0  501 -0.00000000000E+00 -0.00000000000E+00 -0.27279239665E+03  0.27279239666E+03  0.25500000000E-02 0. -1.
   -5000001    1    1    2    0    0 -0.44010326047E+03 -0.61702569310E+03  0.75616742601E+03  0.10994092787E+04  0.25000000000E+03 0.  0.
    5000001    1    1    2    0    0  0.44010326047E+03  0.61702569310E+03  0.14726704035E+04  0.16750133442E+04  0.25000000000E+03 0.  0.
<mgrwt>
<rscale>  0 0.16521812E+04</rscale>
<asrwt>0</asrwt>
<pdfrwt beam="1">  1        2 0.38486620E+00 0.16521812E+04</pdfrwt>
<pdfrwt beam="2">  1       -2 0.41968060E-01 0.16521812E+04</pdfrwt>
<totfact> 0.17884040E+01</totfact>
</mgrwt>
</event>
<event>
 4    1  0.1805887E-005  0.6510700E+03  0.7818608E-02  0.9804774E-01
          2   -1    0    0  501    0  0.00000000000E+00  0.00000000000E+00  0.24300245202E+04  0.24300245202E+04  0.25500000000E-02 0.  1.
         -2   -1    0    0    0  501 -0.00000000000E+00 -0.00000000000E+00 -0.43609856854E+02  0.43609856929E+02  0.25500000000E-02 0. -1.
   -5000001    1    1    2    0    0  0.19879958476E+03  0.43361724644E+02  0.10202849895E+04  0.10699920438E+04  0.25000000000E+03 0.  0.
    5000001    1    1    2    0    0 -0.19879958476E+03 -0.43361724644E+02  0.13661296738E+04  0.14036423333E+04  0.25000000000E+03 0.  0.
<mgrwt>
<rscale>  0 0.65106995E+03</rscale>
<asrwt>0</asrwt>
<pdfrwt beam="1">  1        2 0.37384989E+00 0.65106995E+03</pdfrwt>
<pdfrwt beam="2">  1       -2 0.67092094E-02 0.65106995E+03</pdfrwt>
<totfact> 0.51951710E+02</totfact>
</mgrwt>
</event>
<event>
 4    1  0.1805887E-005  0.5601727E+03  0.7818608E-02  0.9991664E-01
         -2   -1    0    0    0  501 -0.00000000000E+00  0.00000000000E+00  0.64612702746E+03  0.64612702747E+03  0.25500000000E-02 0. -1.
          2   -1    0    0  501    0  0.00000000000E+00 -0.00000000000E+00 -0.12141321092E+03  0.12141321095E+03  0.25500000000E-02 0.  1.
   -5000001    1    1    2    0    0  0.52383446840E+02 -0.10111952566E+03  0.33714407839E+03  0.43489689993E+03  0.25000000000E+03 0.  0.
    5000001    1    1    2    0    0 -0.52383446840E+02  0.10111952566E+03  0.18756973815E+03  0.33264333849E+03  0.25000000000E+03 0.  0.
<mgrwt>
<rscale>  0 0.56017268E+03</rscale>
<asrwt>0</asrwt>
<pdfrwt beam="1">  1        2 0.18678955E-01 0.56017268E+03</pdfrwt>
<pdfrwt beam="2">  1       -2 0.99404161E-01 0.56017268E+03</pdfrwt>
<totfact> 0.26123766E+02</totfact>
</mgrwt>
</event>
<event>
 4    1  0.1805887E-005  0.7857145E+03  0.7818608E-02  0.9580928E-01
          2   -1    0    0  501    0  0.00000000000E+00  0.00000000000E+00  0.31000483774E+03  0.31000483775E+03  0.25500000000E-02 0.  1.
         -2   -1    0    0    0  501 -0.00000000000E+00 -0.00000000000E+00 -0.49785291586E+03  0.49785291586E+03  0.25500000000E-02 0. -1.
   -5000001    1    1    2    0    0 -0.11477295184E+03 -0.28043859907E+03 -0.98307290440E+02  0.40494809751E+03  0.25000000000E+03 0.  0.
    5000001    1    1    2    0    0  0.11477295184E+03  0.28043859907E+03 -0.89540787674E+02  0.40290965610E+03  0.25000000000E+03 0.  0.
<mgrwt>
<rscale>  0 0.78571448E+03</rscale>
<asrwt>0</asrwt>
<pdfrwt beam="1">  1        2 0.47693052E-01 0.78571448E+03</pdfrwt>
<pdfrwt beam="2">  1       -2 0.76592756E-01 0.78571448E+03</pdfrwt>
<totfact> 0.16259378E+02</totfact>
</mgrwt>
</event>
<event>
 4    1  0.1805887E-005  0.2092488E+04  0.7818608E-02  0.8564560E-01
         -2   -1    0    0    0  501 -0.00000000000E+00  0.00000000000E+00  0.11812802973E+04  0.11812802973E+04  0.25500000000E-02 0. -1.
          2   -1    0    0  501    0  0.00000000000E+00 -0.00000000000E+00 -0.92664395466E+03  0.92664395466E+03  0.25500000000E-02 0.  1.
   -5000001    1    1    2    0    0  0.47211408310E+03 -0.54407621687E+03 -0.59435739976E+03  0.96678402752E+03  0.25000000000E+03 0.  0.
    5000001    1    1    2    0    0 -0.47211408310E+03  0.54407621687E+03  0.84899374244E+03  0.11411402245E+04  0.25000000000E+03 0.  0.
<mgrwt>
<rscale>  0 0.20924878E+04</rscale>
<asrwt>0</asrwt>
<pdfrwt beam="1">  1        2 0.14256061E+00 0.20924878E+04</pdfrwt>
<pdfrwt beam="2">  1       -2 0.18173543E+00 0.20924878E+04</pdfrwt>
<totfact> 0.45751764E+00</totfact>
</mgrwt>
</event>
<event>
 4    1  0.1805887E-005  0.6284744E+03  0.7818608E-02  0.9848030E-01
          2   -1    0    0  501    0  0.00000000000E+00  0.00000000000E+00  0.31986528918E+04  0.31986528918E+04  0.25500000000E-02 0.  1.
         -2   -1    0    0    0  501 -0.00000000000E+00 -0.00000000000E+00 -0.30870813438E+02  0.30870813544E+02  0.25500000000E-02 0. -1.
   -5000001    1    1    2    0    0  0.15645863900E+02  0.11577806528E+03  0.23563286913E+04  0.23724321392E+04  0.25000000000E+03 0.  0.
    5000001    1    1    2    0    0 -0.15645863900E+02 -0.11577806528E+03  0.81145338705E+03  0.85709156618E+03  0.25000000000E+03 0.  0.
<mgrwt>
<rscale>  0 0.62847440E+03</rscale>
<asrwt>0</asrwt>
<pdfrwt beam="1">  1        2 0.49210029E+00 0.62847440E+03</pdfrwt>
<pdfrwt beam="2">  1       -2 0.47493574E-02 0.62847440E+03</pdfrwt>
<totfact> 0.31346767E+02</totfact>
</mgrwt>
</event>
<event>
 4    1  0.1805887E-005  0.1008482E+04  0.7818608E-02  0.9299291E-01
         -2   -1    0    0    0  501 -0.00000000000E+00  0.00000000000E+00  0.14405082119E+03  0.14405082122E+03  0.25500000000E-02 0. -1.
          2   -1    0    0  501    0  0.00000000000E+00 -0.00000000000E+00 -0.17650633634E+04  0.17650633634E+04  0.25500000000E-02 0.  1.
   -5000001    1    1    2    0    0 -0.21676393391E+03  0.35623446973E+03 -0.10635623453E+04  0.11694248427E+04  0.25000000000E+03 0.  0.
    5000001    1    1    2    0    0  0.21676393391E+03 -0.35623446973E+03 -0.55745019694E+03  0.73968934192E+03  0.25000000000E+03 0.  0.
<mgrwt>
<rscale>  0 0.10084817E+04</rscale>
<asrwt>0</asrwt>
<pdfrwt beam="1">  1        2 0.27154819E+00 0.10084817E+04</pdfrwt>
<pdfrwt beam="2">  1       -2 0.22161666E-01 0.10084817E+04</pdfrwt>
<totfact> 0.16062104E+02</totfact>
</mgrwt>
</event>
<event>
 4    1  0.1805887E-005  0.1019500E+04  0.7818608E-02  0.9287413E-01
          2   -1    0    0  501    0  0.00000000000E+00  0.00000000000E+00  0.27277740028E+04  0.27277740028E+04  0.25500000000E-02 0. -1.
         -2   -1    0    0    0  501 -0.00000000000E+00 -0.00000000000E+00 -0.95258981222E+02  0.95258981256E+02  0.25500000000E-02 0.  1.
   -5000001    1    1    2    0    0  0.37306337982E+03 -0.49873562469E+02  0.19696641439E+04  0.20208266866E+04  0.25000000000E+03 0.  0.
    5000001    1    1    2    0    0 -0.37306337982E+03  0.49873562469E+02  0.66285087763E+03  0.80220629739E+03  0.25000000000E+03 0.  0.
<mgrwt>
<rscale>  0 0.10194998E+04</rscale>
<asrwt>0</asrwt>
<pdfrwt beam="1">  1        2 0.41965759E+00 0.10194998E+04</pdfrwt>
<pdfrwt beam="2">  1       -2 0.14655226E-01 0.10194998E+04</pdfrwt>
<totfact> 0.94652753E+01</totfact>
</mgrwt>
</event>
<event>
 4    1  0.1805887E-005  0.9444357E+03  0.7818608E-02  0.9371678E-01
          2   -1    0    0  501    0  0.00000000000E+00  0.00000000000E+00  0.14057191412E+04  0.14057191412E+04  0.25500000000E-02 0.  1.
         -2   -1    0    0    0  501 -0.00000000000E+00 -0.00000000000E+00 -0.15863034777E+03  0.15863034779E+03  0.25500000000E-02 0. -1.
   -5000001    1    1    2    0    0 -0.26117956979E+03  0.30376755221E+03  0.62432623213E+03  0.78279801838E+03  0.25000000000E+03 0.  0.
    5000001    1    1    2    0    0  0.26117956979E+03 -0.30376755221E+03  0.62276256125E+03  0.78155147057E+03  0.25000000000E+03 0.  0.
<mgrwt>
<rscale>  0 0.94443574E+03</rscale>
<asrwt>0</asrwt>
<pdfrwt beam="1">  1        2 0.21626448E+00 0.94443574E+03</pdfrwt>
<pdfrwt beam="2">  1       -2 0.24404669E-01 0.94443574E+03</pdfrwt>
<totfact> 0.21521052E+02</totfact>
</mgrwt>
</event>
<event>
 4    1  0.1805887E-005  0.7311632E+03  0.7818608E-02  0.9665375E-01
          2   -1    0    0  501    0  0.00000000000E+00  0.00000000000E+00  0.18206352610E+04  0.18206352610E+04  0.25500000000E-02 0.  1.
         -2   -1    0    0    0  501 -0.00000000000E+00 -0.00000000000E+00 -0.73408400006E+02  0.73408400050E+02  0.25500000000E-02 0. -1.
   -5000001    1    1    2    0    0  0.13464685206E+03 -0.21444443038E+03  0.10908678287E+04  0.11474357534E+04  0.25000000000E+03 0.  0.
    5000001    1    1    2    0    0 -0.13464685206E+03  0.21444443038E+03  0.65635903229E+03  0.74660790765E+03  0.25000000000E+03 0.  0.
<mgrwt>
<rscale>  0 0.73116324E+03</rscale>
<asrwt>0</asrwt>
<pdfrwt beam="1">  1        2 0.28009774E+00 0.73116324E+03</pdfrwt>
<pdfrwt beam="2">  1       -2 0.11293600E-01 0.73116324E+03</pdfrwt>
<totfact> 0.48238656E+02</totfact>
</mgrwt>
</event>
<event>
 4    1  0.1805887E-005  0.1067729E+04  0.7818608E-02  0.9237229E-01
          2   -1    0    0  501    0  0.00000000000E+00  0.00000000000E+00  0.16235553594E+04  0.16235553594E+04  0.25500000000E-02 0.  1.
         -2   -1    0    0    0  501 -0.00000000000E+00 -0.00000000000E+00 -0.17554775601E+03  0.17554775603E+03  0.25500000000E-02 0. -1.
   -5000001    1    1    2    0    0  0.39667004006E+03  0.12074689023E+03  0.34503462314E+03  0.59453832790E+03  0.25000000000E+03 0.  0.
    5000001    1    1    2    0    0 -0.39667004006E+03 -0.12074689023E+03  0.11029729802E+04  0.12045647875E+04  0.25000000000E+03 0.  0.
<mgrwt>
<rscale>  0 0.10677294E+04</rscale>
<asrwt>0</asrwt>
<pdfrwt beam="1">  1        2 0.24977774E+00 0.10677294E+04</pdfrwt>
<pdfrwt beam="2">  1       -2 0.27007347E-01 0.10677294E+04</pdfrwt>
<totfact> 0.13402812E+02</totfact>
</mgrwt>
</event>
<event>
 4    1  0.1805887E-005  0.8786057E+03  0.7818608E-02  0.9452728E-01
          2   -1    0    0  501    0  0.00000000000E+00  0.00000000000E+00  0.12092113417E+03  0.12092113420E+03  0.25500000000E-02 0.  1.
         -2   -1    0    0    0  501 -0.00000000000E+00 -0.00000000000E+00 -0.15959739404E+04  0.15959739404E+04  0.25500000000E-02 0. -1.
   -5000001    1    1    2    0    0 -0.16052443329E+03  0.32334150139E+03 -0.71211099673E+03  0.83661215140E+03  0.25000000000E+03 0.  0.
    5000001    1    1    2    0    0  0.16052443329E+03 -0.32334150139E+03 -0.76294180949E+03  0.88028292320E+03  0.25000000000E+03 0.  0.
<mgrwt>
<rscale>  0 0.87860567E+03</rscale>
<asrwt>0</asrwt>
<pdfrwt beam="1">  1        2 0.18603253E-01 0.87860567E+03</pdfrwt>
<pdfrwt beam="2">  1       -2 0.24553444E+00 0.87860567E+03</pdfrwt>
<totfact> 0.21529191E+01</totfact>
</mgrwt>
</event>
<event>
 4    1  0.1805887E-005  0.9108046E+03  0.7818608E-02  0.9412175E-01
          2   -1    0    0  501    0  0.00000000000E+00  0.00000000000E+00  0.19665777940E+03  0.19665777941E+03  0.25500000000E-02 0.  1.
         -2   -1    0    0    0  501 -0.00000000000E+00 -0.00000000000E+00 -0.10545794291E+04  0.10545794291E+04  0.25500000000E-02 0. -1.
   -5000001    1    1    2    0    0  0.17467947310E+03  0.23984079104E+03 -0.75652600074E+03  0.85021650958E+03  0.25000000000E+03 0.  0.
    5000001    1    1    2    0    0 -0.17467947310E+03 -0.23984079104E+03 -0.10139564900E+03  0.40102069897E+03  0.25000000000E+03 0.  0.
<mgrwt>
<rscale>  0 0.91080459E+03</rscale>
<asrwt>0</asrwt>
<pdfrwt beam="1">  1        2 0.30255043E-01 0.91080459E+03</pdfrwt>
<pdfrwt beam="2">  1       -2 0.16224299E+00 0.91080459E+03</pdfrwt>
<totfact> 0.42875163E+01</totfact>
</mgrwt>
</event>
<event>
 4    1  0.1805887E-005  0.6102375E+03  0.7818608E-02  0.9884391E-01
         -2   -1    0    0    0  501 -0.00000000000E+00  0.00000000000E+00  0.32982934349E+02  0.32982934448E+02  0.25500000000E-02 0. -1.
          2   -1    0    0  501    0  0.00000000000E+00 -0.00000000000E+00 -0.28225947439E+04  0.28225947439E+04  0.25500000000E-02 0.  1.
   -5000001    1    1    2    0    0 -0.11930562234E+03  0.82718068414E+02 -0.93819711486E+03  0.98172803601E+03  0.25000000000E+03 0.  0.
    5000001    1    1    2    0    0  0.11930562234E+03 -0.82718068414E+02 -0.18514146947E+04  0.18738496423E+04  0.25000000000E+03 0.  0.
<mgrwt>
<rscale>  0 0.61023752E+03</rscale>
<asrwt>0</asrwt>
<pdfrwt beam="1">  1        2 0.43424515E+00 0.61023752E+03</pdfrwt>
<pdfrwt beam="2">  1       -2 0.50742998E-02 0.61023752E+03</pdfrwt>
<totfact> 0.48082880E+02</totfact>
</mgrwt>
</event>
<event>
 4    1  0.1805887E-005  0.5774017E+03  0.7818608E-02  0.9953432E-01
          2   -1    0    0  501    0  0.00000000000E+00  0.00000000000E+00  0.28482168434E+04  0.28482168434E+04  0.25500000000E-02 0.  1.
         -2   -1    0    0    0  501 -0.00000000000E+00 -0.00000000000E+00 -0.29263288631E+02  0.29263288742E+02  0.25500000000E-02 0. -1.
   -5000001    1    1    2    0    0 -0.10597546551E+03 -0.51276040392E+02  0.18260733290E+04  0.18468632420E+04  0.25000000000E+03 0.  0.
    5000001    1    1    2    0    0  0.10597546551E+03  0.51276040392E+02  0.99288022570E+03  0.10306168901E+04  0.25000000000E+03 0.  0.
<mgrwt>
<rscale>  0 0.57740174E+03</rscale>
<asrwt>0</asrwt>
<pdfrwt beam="1">  1        2 0.43818727E+00 0.57740174E+03</pdfrwt>
<pdfrwt beam="2">  1       -2 0.45020437E-02 0.57740174E+03</pdfrwt>
<totfact> 0.56081833E+02</totfact>
</mgrwt>
</event>
<event>
 4    1  0.1805887E-005  0.5379215E+03  0.7818608E-02  0.1004329E+00
          2   -1    0    0  501    0  0.00000000000E+00  0.00000000000E+00  0.65511009068E+02  0.65511009117E+02  0.25500000000E-02 0. -1.
         -2   -1    0    0    0  501 -0.00000000000E+00 -0.00000000000E+00 -0.11042399331E+04  0.11042399331E+04  0.25500000000E-02 0.  1.
   -5000001    1    1    2    0    0  0.63216921925E+02  0.70277197915E+02 -0.58476854791E+03  0.64295374514E+03  0.25000000000E+03 0.  0.
    5000001    1    1    2    0    0 -0.63216921925E+02 -0.70277197915E+02 -0.45396037613E+03  0.52679719709E+03  0.25000000000E+03 0.  0.
<mgrwt>
<rscale>  0 0.53792145E+03</rscale>
<asrwt>0</asrwt>
<pdfrwt beam="1">  1        2 0.10078618E-01 0.53792145E+03</pdfrwt>
<pdfrwt beam="2">  1       -2 0.16988305E+00 0.53792145E+03</pdfrwt>
<totfact> 0.14349523E+02</totfact>
</mgrwt>
</event>
<event>
 4    1  0.1805887E-005  0.8464116E+03  0.7818608E-02  0.9495166E-01
         -2   -1    0    0    0  501 -0.00000000000E+00  0.00000000000E+00  0.43827201387E+03  0.43827201388E+03  0.25500000000E-02 0. -1.
          2   -1    0    0  501    0  0.00000000000E+00 -0.00000000000E+00 -0.40865753532E+03  0.40865753533E+03  0.25500000000E-02 0.  1.
   -5000001    1    1    2    0    0  0.15643162800E+03 -0.30205447595E+03  0.44748789778E+02  0.42451173702E+03  0.25000000000E+03 0.  0.
    5000001    1    1    2    0    0 -0.15643162800E+03  0.30205447595E+03 -0.15134311231E+02  0.42241781219E+03  0.25000000000E+03 0.  0.
<mgrwt>
<rscale>  0 0.84641163E+03</rscale>
<asrwt>0</asrwt>
<pdfrwt beam="1">  1        2 0.62870391E-01 0.84641163E+03</pdfrwt>
<pdfrwt beam="2">  1       -2 0.67426463E-01 0.84641163E+03</pdfrwt>
<totfact> 0.15751560E+02</totfact>
</mgrwt>
</event>
<event>
 4    1  0.1805887E-005  0.7330724E+03  0.7818608E-02  0.9662288E-01
          2   -1    0    0  501    0  0.00000000000E+00  0.00000000000E+00  0.92628029874E+03  0.92628029874E+03  0.25500000000E-02 0. -1.
         -2   -1    0    0    0  501 -0.00000000000E+00 -0.00000000000E+00 -0.14504118548E+03  0.14504118550E+03  0.25500000000E-02 0.  1.
   -5000001    1    1    2    0    0 -0.95250092977E+01  0.24772536800E+03  0.24165427095E+03  0.42703087760E+03  0.25000000000E+03 0.  0.
    5000001    1    1    2    0    0  0.95250092977E+01 -0.24772536800E+03  0.53958484231E+03  0.64429060664E+03  0.25000000000E+03 0.  0.
<mgrwt>
<rscale>  0 0.73307242E+03</rscale>
<asrwt>0</asrwt>
<pdfrwt beam="1">  1        2 0.14250466E+00 0.73307242E+03</pdfrwt>
<pdfrwt beam="2">  1       -2 0.22314029E-01 0.73307242E+03</pdfrwt>
<totfact> 0.49791196E+02</totfact>
</mgrwt>
</event>
<event>
 4    1  0.1805887E-005  0.6128409E+03  0.7818608E-02  0.9879118E-01
          2   -1    0    0  501    0  0.00000000000E+00  0.00000000000E+00  0.16497718798E+03  0.16497718800E+03  0.25500000000E-02 0.  1.
         -2   -1    0    0    0  501 -0.00000000000E+00 -0.00000000000E+00 -0.56913020242E+03  0.56913020242E+03  0.25500000000E-02 0. -1.
   -5000001    1    1    2    0    0  0.97622414409E+02 -0.13160060333E+03 -0.12132291389E+03  0.32259588346E+03  0.25000000000E+03 0.  0.
    5000001    1    1    2    0    0 -0.97622414409E+02  0.13160060333E+03 -0.28283010054E+03  0.41151150696E+03  0.25000000000E+03 0.  0.
<mgrwt>
<rscale>  0 0.61284093E+03</rscale>
<asrwt>0</asrwt>
<pdfrwt beam="1">  1        2 0.25381106E-01 0.61284093E+03</pdfrwt>
<pdfrwt beam="2">  1       -2 0.87558492E-01 0.61284093E+03</pdfrwt>
<totfact> 0.24523136E+02</totfact>
</mgrwt>
</event>
<event>
 4    1  0.1805887E-005  0.6857385E+03  0.7818608E-02  0.9741937E-01
          2   -1    0    0  501    0  0.00000000000E+00  0.00000000000E+00  0.13633799446E+04  0.13633799446E+04  0.25500000000E-02 0.  1.
         -2   -1    0    0    0  501 -0.00000000000E+00 -0.00000000000E+00 -0.86226379367E+02  0.86226379404E+02  0.25500000000E-02 0. -1.
   -5000001    1    1    2    0    0 -0.62624606031E+02  0.22612595324E+03  0.64307521611E+03  0.72876643829E+03  0.25000000000E+03 0.  0.
    5000001    1    1    2    0    0  0.62624606031E+02 -0.22612595324E+03  0.63407834916E+03  0.72083988575E+03  0.25000000000E+03 0.  0.
<mgrwt>
<rscale>  0 0.68573848E+03</rscale>
<asrwt>0</asrwt>
<pdfrwt beam="1">  1        2 0.20975077E+00 0.68573848E+03</pdfrwt>
<pdfrwt beam="2">  1       -2 0.13265596E-01 0.68573848E+03</pdfrwt>
<totfact> 0.66271369E+02</totfact>
</mgrwt>
</event>
<event>
 4    1  0.1805887E-005  0.6524125E+03  0.7818608E-02  0.9802263E-01
         -2   -1    0    0    0  501 -0.00000000000E+00  0.00000000000E+00  0.41353328185E+02  0.41353328263E+02  0.25500000000E-02 0. -1.
          2   -1    0    0  501    0  0.00000000000E+00 -0.00000000000E+00 -0.25732033715E+04  0.25732033715E+04  0.25500000000E-02 0.  1.
   -5000001    1    1    2    0    0  0.19328674494E+03 -0.29320488930E+02 -0.96360102570E+03  0.10145178133E+04  0.25000000000E+03 0.  0.
    5000001    1    1    2    0    0 -0.19328674494E+03  0.29320488930E+02 -0.15682490177E+04  0.16000388865E+04  0.25000000000E+03 0.  0.
<mgrwt>
<rscale>  0 0.65241252E+03</rscale>
<asrwt>0</asrwt>
<pdfrwt beam="1">  1        2 0.39587732E+00 0.65241252E+03</pdfrwt>
<pdfrwt beam="2">  1       -2 0.63620525E-02 0.65241252E+03</pdfrwt>
<totfact> 0.46889594E+02</totfact>
</mgrwt>
</event>
<event>
 4    1  0.1805887E-005  0.9020200E+03  0.7818608E-02  0.9423060E-01
         -2   -1    0    0    0  501 -0.00000000000E+00  0.00000000000E+00  0.17299805347E+03  0.17299805349E+03  0.25500000000E-02 0. -1.
          2   -1    0    0  501    0  0.00000000000E+00 -0.00000000000E+00 -0.11757937555E+04  0.11757937555E+04  0.25500000000E-02 0.  1.
   -5000001    1    1    2    0    0  0.24586062365E+03  0.27676410040E+03 -0.59435001837E+03  0.74350370400E+03  0.25000000000E+03 0.  0.
    5000001    1    1    2    0    0 -0.24586062365E+03 -0.27676410040E+03 -0.40844568364E+03  0.60528810496E+03  0.25000000000E+03 0.  0.
<mgrwt>
<rscale>  0 0.90202002E+03</rscale>
<asrwt>0</asrwt>
<pdfrwt beam="1">  1        2 0.18089134E+00 0.90202002E+03</pdfrwt>
<pdfrwt beam="2">  1       -2 0.26615086E-01 0.90202002E+03</pdfrwt>
<totfact> 0.25089850E+02</totfact>
</mgrwt>
</event>
<event>
 4    1  0.1805887E-005  0.7357405E+03  0.7818608E-02  0.9657991E-01
         -2   -1    0    0    0  501 -0.00000000000E+00  0.00000000000E+00  0.36866847173E+03  0.36866847174E+03  0.25500000000E-02 0. -1.
          2   -1    0    0  501    0  0.00000000000E+00 -0.00000000000E+00 -0.36707379468E+03  0.36707379469E+03  0.25500000000E-02 0.  1.
   -5000001    1    1    2    0    0  0.73879295494E+02  0.20497098336E+03 -0.15844273088E+03  0.36752598995E+03  0.25000000000E+03 0.  0.
    5000001    1    1    2    0    0 -0.73879295494E+02 -0.20497098336E+03  0.16003740793E+03  0.36821627647E+03  0.25000000000E+03 0.  0.
<mgrwt>
<rscale>  0 0.73574054E+03</rscale>
<asrwt>0</asrwt>
<pdfrwt beam="1">  1        2 0.56472892E-01 0.73574054E+03</pdfrwt>
<pdfrwt beam="2">  1       -2 0.56718226E-01 0.73574054E+03</pdfrwt>
<totfact> 0.25771994E+02</totfact>
</mgrwt>
</event>
<event>
 4    1  0.1805887E-005  0.7329255E+03  0.7818608E-02  0.9662525E-01
          2   -1    0    0  501    0  0.00000000000E+00  0.00000000000E+00  0.79208487541E+03  0.79208487541E+03  0.25500000000E-02 0.  1.
         -2   -1    0    0    0  501 -0.00000000000E+00 -0.00000000000E+00 -0.16954615346E+03  0.16954615348E+03  0.25500000000E-02 0. -1.
   -5000001    1    1    2    0    0  0.21669384822E+03 -0.15732813288E+03  0.32347762532E+03  0.48871887556E+03  0.25000000000E+03 0.  0.
    5000001    1    1    2    0    0 -0.21669384822E+03  0.15732813288E+03  0.29906109663E+03  0.47291215333E+03  0.25000000000E+03 0.  0.
<mgrwt>
<rscale>  0 0.73292549E+03</rscale>
<asrwt>0</asrwt>
<pdfrwt beam="1">  1        2 0.12185921E+00 0.73292549E+03</pdfrwt>
<pdfrwt beam="2">  1       -2 0.26084023E-01 0.73292549E+03</pdfrwt>
<totfact> 0.46577906E+02</totfact>
</mgrwt>
</event>
<event>
 4    1  0.1805887E-005  0.6861750E+03  0.7818608E-02  0.9741171E-01
         -2   -1    0    0    0  501 -0.00000000000E+00  0.00000000000E+00  0.20856897937E+03  0.20856897938E+03  0.25500000000E-02 0. -1.
          2   -1    0    0  501    0  0.00000000000E+00 -0.00000000000E+00 -0.56436506190E+03  0.56436506191E+03  0.25500000000E-02 0.  1.
   -5000001    1    1    2    0    0 -0.17609594708E+03 -0.11069829327E+03 -0.30101087549E+03  0.44313817470E+03  0.25000000000E+03 0.  0.
    5000001    1    1    2    0    0  0.17609594708E+03  0.11069829327E+03 -0.54785207045E+02  0.32979586659E+03  0.25000000000E+03 0.  0.
<mgrwt>
<rscale>  0 0.68617504E+03</rscale>
<asrwt>0</asrwt>
<pdfrwt beam="1">  1        2 0.86825394E-01 0.68617504E+03</pdfrwt>
<pdfrwt beam="2">  1       -2 0.32087535E-01 0.68617504E+03</pdfrwt>
<totfact> 0.48562126E+02</totfact>
</mgrwt>
</event>
<event>
 4    1  0.1805887E-005  0.8411205E+03  0.7818608E-02  0.9502333E-01
          2   -1    0    0  501    0  0.00000000000E+00  0.00000000000E+00  0.14826014575E+04  0.14826014575E+04  0.25500000000E-02 0. -1.
         -2   -1    0    0    0  501 -0.00000000000E+00 -0.00000000000E+00 -0.11929768531E+03  0.11929768533E+03  0.25500000000E-02 0.  1.
   -5000001    1    1    2    0    0  0.23027679044E+03 -0.19535524054E+03  0.39169576466E+03  0.55418105550E+03  0.25000000000E+03 0.  0.
    5000001    1    1    2    0    0 -0.23027679044E+03  0.19535524054E+03  0.97160800757E+03  0.10477180874E+04  0.25000000000E+03 0.  0.
<mgrwt>
<rscale>  0 0.84112050E+03</rscale>
<asrwt>0</asrwt>
<pdfrwt beam="1">  1        2 0.22809255E+00 0.84112050E+03</pdfrwt>
<pdfrwt beam="2">  1       -2 0.18353489E-01 0.84112050E+03</pdfrwt>
<totfact> 0.32426142E+02</totfact>
</mgrwt>
</event>
<event>
 4    1  0.1805887E-005  0.1361827E+04  0.7818608E-02  0.8981923E-01
          2   -1    0    0  501    0  0.00000000000E+00  0.00000000000E+00  0.18701743055E+04  0.18701743055E+04  0.25500000000E-02 0.  1.
         -2   -1    0    0    0  501 -0.00000000000E+00 -0.00000000000E+00 -0.24791433513E+03  0.24791433514E+03  0.25500000000E-02 0. -1.
   -5000001    1    1    2    0    0 -0.31835451513E+03  0.53689690451E+03  0.64408492586E+03  0.93110325694E+03  0.25000000000E+03 0.  0.
    5000001    1    1    2    0    0  0.31835451513E+03 -0.53689690451E+03  0.97817504448E+03  0.11869853837E+04  0.25000000000E+03 0.  0.
<mgrwt>
<rscale>  0 0.13618267E+04</rscale>
<asrwt>0</asrwt>
<pdfrwt beam="1">  1        2 0.28771913E+00 0.13618267E+04</pdfrwt>
<pdfrwt beam="2">  1       -2 0.38140666E-01 0.13618267E+04</pdfrwt>
<totfact> 0.49979456E+01</totfact>
</mgrwt>
</event>
<event>
 4    1  0.1805887E-005  0.7260937E+03  0.7818608E-02  0.9673620E-01
          2   -1    0    0  501    0  0.00000000000E+00  0.00000000000E+00  0.87850290626E+03  0.87850290626E+03  0.25500000000E-02 0.  1.
         -2   -1    0    0    0  501 -0.00000000000E+00 -0.00000000000E+00 -0.15003140373E+03  0.15003140375E+03  0.25500000000E-02 0. -1.
   -5000001    1    1    2    0    0  0.10561337560E+03 -0.24044107736E+03  0.39023700490E+03  0.53268284821E+03  0.25000000000E+03 0.  0.
    5000001    1    1    2    0    0 -0.10561337560E+03  0.24044107736E+03  0.33823449763E+03  0.49585146180E+03  0.25000000000E+03 0.  0.
<mgrwt>
<rscale>  0 0.72609372E+03</rscale>
<asrwt>0</asrwt>
<pdfrwt beam="1">  1        2 0.13515430E+00 0.72609372E+03</pdfrwt>
<pdfrwt beam="2">  1       -2 0.23081754E-01 0.72609372E+03</pdfrwt>
<totfact> 0.50490337E+02</totfact>
</mgrwt>
</event>
<event>
 4    1  0.1805887E-005  0.8644496E+03  0.7818608E-02  0.9471146E-01
         -2   -1    0    0    0  501 -0.00000000000E+00  0.00000000000E+00  0.22383322945E+03  0.22383322946E+03  0.25500000000E-02 0. -1.
          2   -1    0    0  501    0  0.00000000000E+00 -0.00000000000E+00 -0.83463148435E+03  0.83463148435E+03  0.25500000000E-02 0.  1.
   -5000001    1    1    2    0    0  0.13341088066E+03  0.32391115773E+03 -0.35439744069E+03  0.55750735165E+03  0.25000000000E+03 0.  0.
    5000001    1    1    2    0    0 -0.13341088066E+03 -0.32391115773E+03 -0.25640081421E+03  0.50095736216E+03  0.25000000000E+03 0.  0.
<mgrwt>
<rscale>  0 0.86444956E+03</rscale>
<asrwt>0</asrwt>
<pdfrwt beam="1">  1        2 0.12840484E+00 0.86444956E+03</pdfrwt>
<pdfrwt beam="2">  1       -2 0.34435882E-01 0.86444956E+03</pdfrwt>
<totfact> 0.25789139E+02</totfact>
</mgrwt>
</event>
<event>
 4    1  0.1805887E-005  0.5776729E+03  0.7818608E-02  0.9952842E-01
         -2   -1    0    0    0  501 -0.00000000000E+00  0.00000000000E+00  0.65448211302E+02  0.65448211352E+02  0.25500000000E-02 0. -1.
          2   -1    0    0  501    0  0.00000000000E+00 -0.00000000000E+00 -0.12746949862E+04  0.12746949862E+04  0.25500000000E-02 0.  1.
   -5000001    1    1    2    0    0 -0.89760661672E+02  0.10317446436E+03 -0.49520475622E+03  0.57134026382E+03  0.25000000000E+03 0.  0.
    5000001    1    1    2    0    0  0.89760661672E+02 -0.10317446436E+03 -0.71404201869E+03  0.76880293375E+03  0.25000000000E+03 0.  0.
<mgrwt>
<rscale>  0 0.57767294E+03</rscale>
<asrwt>0</asrwt>
<pdfrwt beam="1">  1        2 0.19610690E+00 0.57767294E+03</pdfrwt>
<pdfrwt beam="2">  1       -2 0.10068957E-01 0.57767294E+03</pdfrwt>
<totfact> 0.11768202E+03</totfact>
</mgrwt>
</event>
<event>
 4    1  0.1805887E-005  0.8340832E+03  0.7818608E-02  0.9511952E-01
         -2   -1    0    0    0  501 -0.00000000000E+00  0.00000000000E+00  0.17450532905E+03  0.17450532907E+03  0.25500000000E-02 0. -1.
          2   -1    0    0  501    0  0.00000000000E+00 -0.00000000000E+00 -0.99666705820E+03  0.99666705821E+03  0.25500000000E-02 0.  1.
   -5000001    1    1    2    0    0 -0.10512824574E+03  0.30731655843E+03 -0.51919349559E+03  0.66148114183E+03  0.25000000000E+03 0.  0.
    5000001    1    1    2    0    0  0.10512824574E+03 -0.30731655843E+03 -0.30296823356E+03  0.50969124544E+03  0.25000000000E+03 0.  0.
<mgrwt>
<rscale>  0 0.83408324E+03</rscale>
<asrwt>0</asrwt>
<pdfrwt beam="1">  1        2 0.15333339E+00 0.83408324E+03</pdfrwt>
<pdfrwt beam="2">  1       -2 0.26846974E-01 0.83408324E+03</pdfrwt>
<totfact> 0.31981085E+02</totfact>
</mgrwt>
</event>
<event>
 4    1  0.1805887E-005  0.6110825E+03  0.7818608E-02  0.9882676E-01
         -2   -1    0    0    0  501 -0.00000000000E+00  0.00000000000E+00  0.50345588658E+03  0.50345588659E+03  0.25500000000E-02 0. -1.
          2   -1    0    0  501    0  0.00000000000E+00 -0.00000000000E+00 -0.18542928434E+03  0.18542928436E+03  0.25500000000E-02 0.  1.
   -5000001    1    1    2    0    0 -0.68515311495E+02 -0.12842186142E+03  0.48163108177E+02  0.29326814929E+03  0.25000000000E+03 0.  0.
    5000001    1    1    2    0    0  0.68515311495E+02  0.12842186142E+03  0.26986349406E+03  0.39561702166E+03  0.25000000000E+03 0.  0.
<mgrwt>
<rscale>  0 0.61108253E+03</rscale>
<asrwt>0</asrwt>
<pdfrwt beam="1">  1        2 0.28527583E-01 0.61108253E+03</pdfrwt>
<pdfrwt beam="2">  1       -2 0.77454751E-01 0.61108253E+03</pdfrwt>
<totfact> 0.28309578E+02</totfact>
</mgrwt>
</event>
<event>
 4    1  0.1805887E-005  0.1407223E+04  0.7818608E-02  0.8948607E-01
         -2   -1    0    0    0  501 -0.00000000000E+00  0.00000000000E+00  0.42952315639E+03  0.42952315639E+03  0.25500000000E-02 0. -1.
          2   -1    0    0  501    0  0.00000000000E+00 -0.00000000000E+00 -0.11526012233E+04  0.11526012233E+04  0.25500000000E-02 0.  1.
   -5000001    1    1    2    0    0 -0.28669319713E+03  0.58376105915E+03 -0.47169035429E+03  0.84140463143E+03  0.25000000000E+03 0.  0.
    5000001    1    1    2    0    0  0.28669319713E+03 -0.58376105915E+03 -0.25138771266E+03  0.74071974831E+03  0.25000000000E+03 0.  0.
<mgrwt>
<rscale>  0 0.14072227E+04</rscale>
<asrwt>0</asrwt>
<pdfrwt beam="1">  1        2 0.17732326E+00 0.14072227E+04</pdfrwt>
<pdfrwt beam="2">  1       -2 0.66080486E-01 0.14072227E+04</pdfrwt>
<totfact> 0.41464449E+01</totfact>
</mgrwt>
</event>
<event>
 4    1  0.1805887E-005  0.8048865E+03  0.7818608E-02  0.9552971E-01
         -2   -1    0    0    0  501 -0.00000000000E+00  0.00000000000E+00  0.84366170642E+02  0.84366170681E+02  0.25500000000E-02 0. -1.
          2   -1    0    0  501    0  0.00000000000E+00 -0.00000000000E+00 -0.19197334887E+04  0.19197334887E+04  0.25500000000E-02 0.  1.
   -5000001    1    1    2    0    0  0.41768611205E+02 -0.31241117404E+03 -0.94440877325E+03  0.10265248607E+04  0.25000000000E+03 0.  0.
    5000001    1    1    2    0    0 -0.41768611205E+02  0.31241117404E+03 -0.89095854482E+03  0.97757479874E+03  0.25000000000E+03 0.  0.
<mgrwt>
<rscale>  0 0.80488648E+03</rscale>
<asrwt>0</asrwt>
<pdfrwt beam="1">  1        2 0.29534358E+00 0.80488648E+03</pdfrwt>
<pdfrwt beam="2">  1       -2 0.12979412E-01 0.80488648E+03</pdfrwt>
<totfact> 0.33659595E+02</totfact>
</mgrwt>
</event>
<event>
 4    1  0.1805887E-005  0.5984385E+03  0.7818608E-02  0.9908651E-01
         -2   -1    0    0    0  501 -0.00000000000E+00  0.00000000000E+00  0.68448226065E+02  0.68448226113E+02  0.25500000000E-02 0. -1.
          2   -1    0    0  501    0  0.00000000000E+00 -0.00000000000E+00 -0.13080272770E+04  0.13080272770E+04  0.25500000000E-02 0.  1.
   -5000001    1    1    2    0    0  0.14704612938E+03 -0.64463634109E+02 -0.53833754341E+03  0.61488652200E+03  0.25000000000E+03 0.  0.
    5000001    1    1    2    0    0 -0.14704612938E+03  0.64463634109E+02 -0.70124150752E+03  0.76158898112E+03  0.25000000000E+03 0.  0.
<mgrwt>
<rscale>  0 0.59843846E+03</rscale>
<asrwt>0</asrwt>
<pdfrwt beam="1">  1        2 0.20123495E+00 0.59843846E+03</pdfrwt>
<pdfrwt beam="2">  1       -2 0.10530497E-01 0.59843846E+03</pdfrwt>
<totfact> 0.10463150E+03</totfact>
</mgrwt>
</event>
<event>
 4    1  0.1805887E-005  0.6541725E+03  0.7818608E-02  0.9798981E-01
          2   -1    0    0  501    0  0.00000000000E+00  0.00000000000E+00  0.11949364523E+04  0.11949364523E+04  0.25500000000E-02 0.  1.
         -2   -1    0    0    0  501 -0.00000000000E+00 -0.00000000000E+00 -0.89532314136E+02  0.89532314172E+02  0.25500000000E-02 0. -1.
   -5000001    1    1    2    0    0 -0.12949954818E+03  0.16205504891E+03  0.62755897736E+03  0.70665567423E+03  0.25000000000E+03 0.  0.
    5000001    1    1    2    0    0  0.12949954818E+03 -0.16205504891E+03  0.47784516075E+03  0.57781309219E+03  0.25000000000E+03 0.  0.
<mgrwt>
<rscale>  0 0.65417253E+03</rscale>
<asrwt>0</asrwt>
<pdfrwt beam="1">  1        2 0.18383637E+00 0.65417253E+03</pdfrwt>
<pdfrwt beam="2">  1       -2 0.13774203E-01 0.65417253E+03</pdfrwt>
<totfact> 0.77972391E+02</totfact>
</mgrwt>
</event>
<event>
 4    1  0.1805887E-005  0.5914410E+03  0.7818608E-02  0.9923324E-01
         -2   -1    0    0    0  501 -0.00000000000E+00  0.00000000000E+00  0.58185885430E+03  0.58185885430E+03  0.25500000000E-02 0.  1.
          2   -1    0    0  501    0  0.00000000000E+00 -0.00000000000E+00 -0.15029523157E+03  0.15029523159E+03  0.25500000000E-02 0. -1.
   -5000001    1    1    2    0    0  0.11514869636E+03  0.77543180544E+02  0.30906550818E+03  0.42106253154E+03  0.25000000000E+03 0.  0.
    5000001    1    1    2    0    0 -0.11514869636E+03 -0.77543180544E+02  0.12249811454E+03  0.31109155435E+03  0.25000000000E+03 0.  0.
<mgrwt>
<rscale>  0 0.59144099E+03</rscale>
<asrwt>0</asrwt>
<pdfrwt beam="1">  1        2 0.23122344E-01 0.59144099E+03</pdfrwt>
<pdfrwt beam="2">  1       -2 0.89516745E-01 0.59144099E+03</pdfrwt>
<totfact> 0.25960305E+02</totfact>
</mgrwt>
</event>
<event>
 4    1  0.1805887E-005  0.5795913E+03  0.7818608E-02  0.9948676E-01
          2   -1    0    0  501    0  0.00000000000E+00  0.00000000000E+00  0.28422017038E+03  0.28422017039E+03  0.25500000000E-02 0.  1.
         -2   -1    0    0    0  501 -0.00000000000E+00 -0.00000000000E+00 -0.29548051260E+03  0.29548051262E+03  0.25500000000E-02 0. -1.
   -5000001    1    1    2    0    0 -0.13610871387E+03 -0.39694345041E+02  0.31529210172E+02  0.28912854254E+03  0.25000000000E+03 0.  0.
    5000001    1    1    2    0    0  0.13610871387E+03  0.39694345041E+02 -0.42789552400E+02  0.29057214046E+03  0.25000000000E+03 0.  0.
<mgrwt>
<rscale>  0 0.57959131E+03</rscale>
<asrwt>0</asrwt>
<pdfrwt beam="1">  1        2 0.43726180E-01 0.57959131E+03</pdfrwt>
<pdfrwt beam="2">  1       -2 0.45458540E-01 0.57959131E+03</pdfrwt>
<totfact> 0.53934523E+02</totfact>
</mgrwt>
</event>
<event>
 4    1  0.1805887E-005  0.5355872E+03  0.7818608E-02  0.1004886E+00
         -2   -1    0    0    0  501 -0.00000000000E+00  0.00000000000E+00  0.79756401631E+02  0.79756401672E+02  0.25500000000E-02 0. -1.
          2   -1    0    0  501    0  0.00000000000E+00 -0.00000000000E+00 -0.89915570642E+03  0.89915570642E+03  0.25500000000E-02 0.  1.
   -5000001    1    1    2    0    0 -0.52663920205E+02  0.72887977593E+02 -0.34833348884E+03  0.43808944887E+03  0.25000000000E+03 0.  0.
    5000001    1    1    2    0    0  0.52663920205E+02 -0.72887977593E+02 -0.47106581595E+03  0.54082265922E+03  0.25000000000E+03 0.  0.
<mgrwt>
<rscale>  0 0.53558724E+03</rscale>
<asrwt>0</asrwt>
<pdfrwt beam="1">  1        2 0.13833164E+00 0.53558724E+03</pdfrwt>
<pdfrwt beam="2">  1       -2 0.12270216E-01 0.53558724E+03</pdfrwt>
<totfact> 0.14480307E+03</totfact>
</mgrwt>
</event>
<event>
 4    1  0.1805887E-005  0.5708656E+03  0.7818608E-02  0.9967765E-01
          2   -1    0    0  501    0  0.00000000000E+00  0.00000000000E+00  0.24525890460E+03  0.24525890461E+03  0.25500000000E-02 0.  1.
         -2   -1    0    0    0  501 -0.00000000000E+00 -0.00000000000E+00 -0.33218723483E+03  0.33218723484E+03  0.25500000000E-02 0. -1.
   -5000001    1    1    2    0    0  0.12171156152E+03  0.26864172001E+02 -0.10276149377E+03  0.29764964731E+03  0.25000000000E+03 0.  0.
    5000001    1    1    2    0    0 -0.12171156152E+03 -0.26864172001E+02  0.15833163532E+02  0.27979649214E+03  0.25000000000E+03 0.  0.
<mgrwt>
<rscale>  0 0.57086558E+03</rscale>
<asrwt>0</asrwt>
<pdfrwt beam="1">  1        2 0.37732139E-01 0.57086558E+03</pdfrwt>
<pdfrwt beam="2">  1       -2 0.51105728E-01 0.57086558E+03</pdfrwt>
<totfact> 0.50166165E+02</totfact>
</mgrwt>
</event>
<event>
 4    1  0.1805887E-005  0.5295386E+03  0.7818608E-02  0.1006344E+00
         -2   -1    0    0    0  501 -0.00000000000E+00  0.00000000000E+00  0.19653090756E+03  0.19653090758E+03  0.25500000000E-02 0. -1.
          2   -1    0    0  501    0  0.00000000000E+00 -0.00000000000E+00 -0.35670107463E+03  0.35670107464E+03  0.25500000000E-02 0.  1.
   -5000001    1    1    2    0    0  0.34980200707E+02  0.78008101280E+02 -0.62174279999E+02  0.27143050566E+03  0.25000000000E+03 0.  0.
    5000001    1    1    2    0    0 -0.34980200707E+02 -0.78008101280E+02 -0.97995887068E+02  0.28180147656E+03  0.25000000000E+03 0.  0.
<mgrwt>
<rscale>  0 0.52953861E+03</rscale>
<asrwt>0</asrwt>
<pdfrwt beam="1">  1        2 0.54877088E-01 0.52953861E+03</pdfrwt>
<pdfrwt beam="2">  1       -2 0.30235524E-01 0.52953861E+03</pdfrwt>
<totfact> 0.91667127E+02</totfact>
</mgrwt>
</event>
<event>
 4    1  0.1805887E-005  0.7307073E+03  0.7818608E-02  0.9666113E-01
         -2   -1    0    0    0  501 -0.00000000000E+00  0.00000000000E+00  0.58098029313E+03  0.58098029313E+03  0.25500000000E-02 0. -1.
          2   -1    0    0  501    0  0.00000000000E+00 -0.00000000000E+00 -0.22975526696E+03  0.22975526697E+03  0.25500000000E-02 0.  1.
   -5000001    1    1    2    0    0  0.24081314062E+03 -0.11284165677E+03  0.15775389567E+03  0.39763111020E+03  0.25000000000E+03 0.  0.
    5000001    1    1    2    0    0 -0.24081314062E+03  0.11284165677E+03  0.19347113050E+03  0.41310444991E+03  0.25000000000E+03 0.  0.
<mgrwt>
<rscale>  0 0.73070728E+03</rscale>
<asrwt>0</asrwt>
<pdfrwt beam="1">  1        2 0.35346964E-01 0.73070728E+03</pdfrwt>
<pdfrwt beam="2">  1       -2 0.89381583E-01 0.73070728E+03</pdfrwt>
<totfact> 0.16033309E+02</totfact>
</mgrwt>
</event>
<event>
 4    1  0.1805887E-005  0.6288081E+03  0.7818608E-02  0.9847377E-01
          2   -1    0    0  501    0  0.00000000000E+00  0.00000000000E+00  0.71764723036E+03  0.71764723037E+03  0.25500000000E-02 0.  1.
         -2   -1    0    0    0  501 -0.00000000000E+00 -0.00000000000E+00 -0.13774164737E+03  0.13774164740E+03  0.25500000000E-02 0. -1.
   -5000001    1    1    2    0    0  0.11192673846E+02  0.37201944175E+02  0.36037654424E+02  0.25555424695E+03  0.25000000000E+03 0.  0.
    5000001    1    1    2    0    0 -0.11192673846E+02 -0.37201944175E+02  0.54386792857E+03  0.59983463081E+03  0.25000000000E+03 0.  0.
<mgrwt>
<rscale>  0 0.62880812E+03</rscale>
<asrwt>0</asrwt>
<pdfrwt beam="1">  1        2 0.11040727E+00 0.62880812E+03</pdfrwt>
<pdfrwt beam="2">  1       -2 0.21191022E-01 0.62880812E+03</pdfrwt>
<totfact> 0.76906351E+02</totfact>
</mgrwt>
</event>
<event>
 4    1  0.1805887E-005  0.2135760E+04  0.7818608E-02  0.8545652E-01
         -2   -1    0    0    0  501 -0.00000000000E+00  0.00000000000E+00  0.43670209327E+03  0.43670209328E+03  0.25500000000E-02 0. -1.
          2   -1    0    0  501    0  0.00000000000E+00 -0.00000000000E+00 -0.26113167919E+04  0.26113167919E+04  0.25500000000E-02 0.  1.
   -5000001    1    1    2    0    0 -0.58740594276E+03  0.72664887813E+03 -0.17331602038E+04  0.19847943535E+04  0.25000000000E+03 0.  0.
    5000001    1    1    2    0    0  0.58740594276E+03 -0.72664887813E+03 -0.44145449478E+03  0.10632245316E+04  0.25000000000E+03 0.  0.
<mgrwt>
<rscale>  0 0.21357598E+04</rscale>
<asrwt>0</asrwt>
<pdfrwt beam="1">  1        2 0.40174104E+00 0.21357598E+04</pdfrwt>
<pdfrwt beam="2">  1       -2 0.67184939E-01 0.21357598E+04</pdfrwt>
<totfact> 0.55999984E+00</totfact>
</mgrwt>
</event>
<event>
 4    1  0.1805887E-005  0.5279482E+03  0.7818608E-02  0.1006731E+00
          2   -1    0    0  501    0  0.00000000000E+00  0.00000000000E+00  0.99554355405E+03  0.99554355405E+03  0.25500000000E-02 0.  1.
         -2   -1    0    0    0  501 -0.00000000000E+00 -0.00000000000E+00 -0.69994252738E+02  0.69994252784E+02  0.25500000000E-02 0. -1.
   -5000001    1    1    2    0    0  0.43686863745E+02  0.56132161741E+02  0.36978191698E+03  0.45199339351E+03  0.25000000000E+03 0.  0.
    5000001    1    1    2    0    0 -0.43686863745E+02 -0.56132161741E+02  0.55576738433E+03  0.61354441333E+03  0.25000000000E+03 0.  0.
<mgrwt>
<rscale>  0 0.52794821E+03</rscale>
<asrwt>0</asrwt>
<pdfrwt beam="1">  1        2 0.15316053E+00 0.52794821E+03</pdfrwt>
<pdfrwt beam="2">  1       -2 0.10768348E-01 0.52794821E+03</pdfrwt>
<totfact> 0.15531690E+03</totfact>
</mgrwt>
</event>
<event>
 4    1  0.1805887E-005  0.1008044E+04  0.7818608E-02  0.9299766E-01
         -2   -1    0    0    0  501 -0.00000000000E+00  0.00000000000E+00  0.17648424375E+04  0.17648424375E+04  0.25500000000E-02 0. -1.
          2   -1    0    0  501    0  0.00000000000E+00 -0.00000000000E+00 -0.14394370485E+03  0.14394370487E+03  0.25500000000E-02 0.  1.
   -5000001    1    1    2    0    0 -0.18148354639E+03  0.36393842177E+03  0.50424031587E+03  0.69436715692E+03  0.25000000000E+03 0.  0.
    5000001    1    1    2    0    0  0.18148354639E+03 -0.36393842177E+03  0.11166584167E+04  0.12144189854E+04  0.25000000000E+03 0.  0.
<mgrwt>
<rscale>  0 0.10080436E+04</rscale>
<asrwt>0</asrwt>
<pdfrwt beam="1">  1        2 0.22145187E-01 0.10080436E+04</pdfrwt>
<pdfrwt beam="2">  1       -2 0.27151421E+00 0.10080436E+04</pdfrwt>
<totfact> 0.12074816E+01</totfact>
</mgrwt>
</event>
<event>
 4    1  0.1805887E-005  0.5699208E+03  0.7818608E-02  0.9969854E-01
         -2   -1    0    0    0  501 -0.00000000000E+00  0.00000000000E+00  0.10284536975E+04  0.10284536976E+04  0.25500000000E-02 0. -1.
          2   -1    0    0  501    0  0.00000000000E+00 -0.00000000000E+00 -0.78955855726E+02  0.78955855767E+02  0.25500000000E-02 0.  1.
   -5000001    1    1    2    0    0  0.29470688325E+02  0.89549506650E+02  0.28224721192E+03  0.38865296120E+03  0.25000000000E+03 0.  0.
    5000001    1    1    2    0    0 -0.29470688325E+02 -0.89549506650E+02  0.66725062990E+03  0.71875659212E+03  0.25000000000E+03 0.  0.
<mgrwt>
<rscale>  0 0.56992084E+03</rscale>
<asrwt>0</asrwt>
<pdfrwt beam="1">  1        2 0.12147055E-01 0.56992084E+03</pdfrwt>
<pdfrwt beam="2">  1       -2 0.15822365E+00 0.56992084E+03</pdfrwt>
<totfact> 0.13754690E+02</totfact>
</mgrwt>
</event>
<event>
 4    1  0.1805887E-005  0.7853020E+03  0.7818608E-02  0.9581539E-01
         -2   -1    0    0    0  501 -0.00000000000E+00  0.00000000000E+00  0.15828373156E+03  0.15828373158E+03  0.25500000000E-02 0. -1.
          2   -1    0    0  501    0  0.00000000000E+00 -0.00000000000E+00 -0.97404086539E+03  0.97404086539E+03  0.25500000000E-02 0.  1.
   -5000001    1    1    2    0    0  0.87725531695E+02  0.28179848171E+03 -0.50533917036E+03  0.63637554188E+03  0.25000000000E+03 0.  0.
    5000001    1    1    2    0    0 -0.87725531695E+02 -0.28179848171E+03 -0.31041796347E+03  0.49594905509E+03  0.25000000000E+03 0.  0.
<mgrwt>
<rscale>  0 0.78530204E+03</rscale>
<asrwt>0</asrwt>
<pdfrwt beam="1">  1        2 0.14985244E+00 0.78530204E+03</pdfrwt>
<pdfrwt beam="2">  1       -2 0.24351344E-01 0.78530204E+03</pdfrwt>
<totfact> 0.39553521E+02</totfact>
</mgrwt>
</event>
<event>
 4    1  0.1805887E-005  0.8555421E+03  0.7818608E-02  0.9482929E-01
          2   -1    0    0  501    0  0.00000000000E+00  0.00000000000E+00  0.24381692263E+03  0.24381692265E+03  0.25500000000E-02 0.  1.
         -2   -1    0    0    0  501 -0.00000000000E+00 -0.00000000000E+00 -0.75051428991E+03  0.75051428991E+03  0.25500000000E-02 0. -1.
   -5000001    1    1    2    0    0  0.31066740518E+03  0.13108696656E+03 -0.15757938187E+03  0.44836290104E+03  0.25000000000E+03 0.  0.
    5000001    1    1    2    0    0 -0.31066740518E+03 -0.13108696656E+03 -0.34911798541E+03  0.54596831152E+03  0.25000000000E+03 0.  0.
<mgrwt>
<rscale>  0 0.85554213E+03</rscale>
<asrwt>0</asrwt>
<pdfrwt beam="1">  1        2 0.37510296E-01 0.85554213E+03</pdfrwt>
<pdfrwt beam="2">  1       -2 0.11546374E+00 0.85554213E+03</pdfrwt>
<totfact> 0.81204818E+01</totfact>
</mgrwt>
</event>
<event>
 4    1  0.1805887E-005  0.8542323E+03  0.7818608E-02  0.9484674E-01
         -2   -1    0    0    0  501 -0.00000000000E+00  0.00000000000E+00  0.87320513709E+02  0.87320513746E+02  0.25500000000E-02 0. -1.
          2   -1    0    0  501    0  0.00000000000E+00 -0.00000000000E+00 -0.20891793284E+04  0.20891793284E+04  0.25500000000E-02 0.  1.
   -5000001    1    1    2    0    0 -0.31102353768E+03  0.14315224607E+03 -0.11333223948E+04  0.12100197755E+04  0.25000000000E+03 0.  0.
    5000001    1    1    2    0    0  0.31102353768E+03 -0.14315224607E+03 -0.86853641987E+03  0.96648006663E+03  0.25000000000E+03 0.  0.
<mgrwt>
<rscale>  0 0.85423232E+03</rscale>
<asrwt>0</asrwt>
<pdfrwt beam="1">  1        2 0.32141217E+00 0.85423232E+03</pdfrwt>
<pdfrwt beam="2">  1       -2 0.13433927E-01 0.85423232E+03</pdfrwt>
<totfact> 0.25568666E+02</totfact>
</mgrwt>
</event>
<event>
 4    1  0.1805887E-005  0.6861060E+03  0.7818608E-02  0.9741292E-01
          2   -1    0    0  501    0  0.00000000000E+00  0.00000000000E+00  0.13929359368E+04  0.13929359368E+04  0.25500000000E-02 0. -1.
         -2   -1    0    0    0  501 -0.00000000000E+00 -0.00000000000E+00 -0.84487277892E+02  0.84487277931E+02  0.25500000000E-02 0.  1.
   -5000001    1    1    2    0    0  0.22753005793E+03  0.44734300410E+02  0.57324363408E+03  0.66699276526E+03  0.25000000000E+03 0.  0.
    5000001    1    1    2    0    0 -0.22753005793E+03 -0.44734300410E+02  0.73520502479E+03  0.81043044944E+03  0.25000000000E+03 0.  0.
<mgrwt>
<rscale>  0 0.68610601E+03</rscale>
<asrwt>0</asrwt>
<pdfrwt beam="1">  1        2 0.21429781E+00 0.68610601E+03</pdfrwt>
<pdfrwt beam="2">  1       -2 0.12998045E-01 0.68610601E+03</pdfrwt>
<totfact> 0.65969290E+02</totfact>
</mgrwt>
</event>
<event>
 4    1  0.1805887E-005  0.8993085E+03  0.7818608E-02  0.9426446E-01
          2   -1    0    0  501    0  0.00000000000E+00  0.00000000000E+00  0.17679517321E+04  0.17679517321E+04  0.25500000000E-02 0.  1.
         -2   -1    0    0    0  501 -0.00000000000E+00 -0.00000000000E+00 -0.11436337901E+03  0.11436337904E+03  0.25500000000E-02 0. -1.
   -5000001    1    1    2    0    0  0.31523777300E+03 -0.17700888781E+03  0.10251607882E+04  0.11154199396E+04  0.25000000000E+03 0.  0.
    5000001    1    1    2    0    0 -0.31523777300E+03  0.17700888781E+03  0.62842756487E+03  0.76689517157E+03  0.25000000000E+03 0.  0.
<mgrwt>
<rscale>  0 0.89930848E+03</rscale>
<asrwt>0</asrwt>
<pdfrwt beam="1">  1        2 0.27199255E+00 0.89930848E+03</pdfrwt>
<pdfrwt beam="2">  1       -2 0.17594367E-01 0.89930848E+03</pdfrwt>
<totfact> 0.24164313E+02</totfact>
</mgrwt>
</event>
<event>
 4    1  0.1805887E-005  0.9136439E+03  0.7818608E-02  0.9408685E-01
         -2   -1    0    0    0  501 -0.00000000000E+00  0.00000000000E+00  0.23231852742E+03  0.23231852744E+03  0.25500000000E-02 0. -1.
          2   -1    0    0  501    0  0.00000000000E+00 -0.00000000000E+00 -0.89827656462E+03  0.89827656462E+03  0.25500000000E-02 0.  1.
   -5000001    1    1    2    0    0  0.17134017933E+03 -0.23825737684E+03 -0.29707968054E+02  0.38666083075E+03  0.25000000000E+03 0.  0.
    5000001    1    1    2    0    0 -0.17134017933E+03  0.23825737684E+03 -0.63625006914E+03  0.74393426131E+03  0.25000000000E+03 0.  0.
<mgrwt>
<rscale>  0 0.91364389E+03</rscale>
<asrwt>0</asrwt>
<pdfrwt beam="1">  1        2 0.13819639E+00 0.91364389E+03</pdfrwt>
<pdfrwt beam="2">  1       -2 0.35741313E-01 0.91364389E+03</pdfrwt>
<totfact> 0.21660167E+02</totfact>
</mgrwt>
</event>
<event>
 4    1  0.1805887E-005  0.8616136E+03  0.7818608E-02  0.9474881E-01
          2   -1    0    0  501    0  0.00000000000E+00  0.00000000000E+00  0.23343741448E+04  0.23343741448E+04  0.25500000000E-02 0.  1.
         -2   -1    0    0    0  501 -0.00000000000E+00 -0.00000000000E+00 -0.79505028851E+02  0.79505028892E+02  0.25500000000E-02 0. -1.
   -5000001    1    1    2    0    0  0.11394202688E+03 -0.33030002317E+03  0.12166283852E+04  0.12902579271E+04  0.25000000000E+03 0.  0.
    5000001    1    1    2    0    0 -0.11394202688E+03  0.33030002317E+03  0.10382407308E+04  0.11236212466E+04  0.25000000000E+03 0.  0.
<mgrwt>
<rscale>  0 0.86161356E+03</rscale>
<asrwt>0</asrwt>
<pdfrwt beam="1">  1        2 0.35913448E+00 0.86161356E+03</pdfrwt>
<pdfrwt beam="2">  1       -2 0.12231543E-01 0.86161356E+03</pdfrwt>
<totfact> 0.21852132E+02</totfact>
</mgrwt>
</event>
<event>
 4    1  0.1805887E-005  0.6806607E+03  0.7818608E-02  0.9750889E-01
         -2   -1    0    0    0  501 -0.00000000000E+00  0.00000000000E+00  0.36114136198E+02  0.36114136288E+02  0.25500000000E-02 0. -1.
          2   -1    0    0  501    0  0.00000000000E+00 -0.00000000000E+00 -0.32071856790E+04  0.32071856790E+04  0.25500000000E-02 0.  1.
   -5000001    1    1    2    0    0  0.11677287757E+03 -0.19804032035E+03 -0.14823591415E+04  0.15207710208E+04  0.25000000000E+03 0.  0.
    5000001    1    1    2    0    0 -0.11677287757E+03  0.19804032035E+03 -0.16887124013E+04  0.17225287945E+04  0.25000000000E+03 0.  0.
<mgrwt>
<rscale>  0 0.68066068E+03</rscale>
<asrwt>0</asrwt>
<pdfrwt beam="1">  1        2 0.49341296E+00 0.68066068E+03</pdfrwt>
<pdfrwt beam="2">  1       -2 0.55560235E-02 0.68066068E+03</pdfrwt>
<totfact> 0.24097345E+02</totfact>
</mgrwt>
</event>
<event>
 4    1  0.1805887E-005  0.7766309E+03  0.7818608E-02  0.9594473E-01
         -2   -1    0    0    0  501 -0.00000000000E+00  0.00000000000E+00  0.92050181901E+02  0.92050181936E+02  0.25500000000E-02 0. -1.
          2   -1    0    0  501    0  0.00000000000E+00 -0.00000000000E+00 -0.16381160810E+04  0.16381160810E+04  0.25500000000E-02 0.  1.
   -5000001    1    1    2    0    0 -0.16695235572E+03 -0.14133637628E+03 -0.32503316632E+03  0.46475328891E+03  0.25000000000E+03 0.  0.
    5000001    1    1    2    0    0  0.16695235572E+03  0.14133637628E+03 -0.12210327328E+04  0.12654129741E+04  0.25000000000E+03 0.  0.
<mgrwt>
<rscale>  0 0.77663089E+03</rscale>
<asrwt>0</asrwt>
<pdfrwt beam="1">  1        2 0.25201784E+00 0.77663089E+03</pdfrwt>
<pdfrwt beam="2">  1       -2 0.14161568E-01 0.77663089E+03</pdfrwt>
<totfact> 0.41548110E+02</totfact>
</mgrwt>
</event>
<event>
 4    1  0.1805887E-005  0.1364611E+04  0.7818608E-02  0.8979841E-01
         -2   -1    0    0    0  501 -0.00000000000E+00  0.00000000000E+00  0.33268245644E+03  0.33268245645E+03  0.25500000000E-02 0. -1.
          2   -1    0    0  501    0  0.00000000000E+00 -0.00000000000E+00 -0.13993548108E+04  0.13993548108E+04  0.25500000000E-02 0.  1.
   -5000001    1    1    2    0    0 -0.35570640437E+03  0.40325776118E+03 -0.96169169847E+03  0.11298206897E+04  0.25000000000E+03 0.  0.
    5000001    1    1    2    0    0  0.35570640437E+03 -0.40325776118E+03 -0.10498065584E+03  0.60221657746E+03  0.25000000000E+03 0.  0.
<mgrwt>
<rscale>  0 0.13646110E+04</rscale>
<asrwt>0</asrwt>
<pdfrwt beam="1">  1        2 0.21528535E+00 0.13646110E+04</pdfrwt>
<pdfrwt beam="2">  1       -2 0.51181917E-01 0.13646110E+04</pdfrwt>
<totfact> 0.50968915E+01</totfact>
</mgrwt>
</event>
<event>
 4    1  0.1805887E-005  0.7127572E+03  0.7818608E-02  0.9695661E-01
         -2   -1    0    0    0  501 -0.00000000000E+00  0.00000000000E+00  0.22082588578E+03  0.22082588580E+03  0.25500000000E-02 0. -1.
          2   -1    0    0  501    0  0.00000000000E+00 -0.00000000000E+00 -0.57513958177E+03  0.57513958177E+03  0.25500000000E-02 0.  1.
   -5000001    1    1    2    0    0 -0.11483260114E+03 -0.20536049213E+03 -0.70356138953E+02  0.35044178446E+03  0.25000000000E+03 0.  0.
    5000001    1    1    2    0    0  0.11483260114E+03  0.20536049213E+03 -0.28395755703E+03  0.44552368310E+03  0.25000000000E+03 0.  0.
<mgrwt>
<rscale>  0 0.71275720E+03</rscale>
<asrwt>0</asrwt>
<pdfrwt beam="1">  1        2 0.88483012E-01 0.71275720E+03</pdfrwt>
<pdfrwt beam="2">  1       -2 0.33973213E-01 0.71275720E+03</pdfrwt>
<totfact> 0.42609127E+02</totfact>
</mgrwt>
</event>
<event>
 4    1  0.1805887E-005  0.6228694E+03  0.7818608E-02  0.9859063E-01
          2   -1    0    0  501    0  0.00000000000E+00  0.00000000000E+00  0.48743707298E+03  0.48743707298E+03  0.25500000000E-02 0.  1.
         -2   -1    0    0    0  501 -0.00000000000E+00 -0.00000000000E+00 -0.19898278464E+03  0.19898278465E+03  0.25500000000E-02 0. -1.
   -5000001    1    1    2    0    0 -0.16786219924E+03 -0.63655997591E+02  0.91816656629E+02  0.32118546418E+03  0.25000000000E+03 0.  0.
    5000001    1    1    2    0    0  0.16786219924E+03  0.63655997591E+02  0.19663763171E+03  0.36523439346E+03  0.25000000000E+03 0.  0.
<mgrwt>
<rscale>  0 0.62286944E+03</rscale>
<asrwt>0</asrwt>
<pdfrwt beam="1">  1        2 0.74990317E-01 0.62286944E+03</pdfrwt>
<pdfrwt beam="2">  1       -2 0.30612737E-01 0.62286944E+03</pdfrwt>
<totfact> 0.62995918E+02</totfact>
</mgrwt>
</event>
<event>
 4    1  0.1805887E-005  0.5831686E+03  0.7818608E-02  0.9940955E-01
         -2   -1    0    0    0  501 -0.00000000000E+00  0.00000000000E+00  0.22026105739E+03  0.22026105740E+03  0.25500000000E-02 0. -1.
          2   -1    0    0  501    0  0.00000000000E+00 -0.00000000000E+00 -0.38600284382E+03  0.38600284383E+03  0.25500000000E-02 0.  1.
   -5000001    1    1    2    0    0 -0.27591589019E+02  0.13923665546E+03 -0.13351624342E+03  0.31697749016E+03  0.25000000000E+03 0.  0.
    5000001    1    1    2    0    0  0.27591589019E+02 -0.13923665546E+03 -0.32225543009E+02  0.28928641107E+03  0.25000000000E+03 0.  0.
<mgrwt>
<rscale>  0 0.58316857E+03</rscale>
<asrwt>0</asrwt>
<pdfrwt beam="1">  1        2 0.59385053E-01 0.58316857E+03</pdfrwt>
<pdfrwt beam="2">  1       -2 0.33886317E-01 0.58316857E+03</pdfrwt>
<totfact> 0.67853887E+02</totfact>
</mgrwt>
</event>
<event>
 4    1  0.1805887E-005  0.6012176E+03  0.7818608E-02  0.9902883E-01
         -2   -1    0    0    0  501 -0.00000000000E+00  0.00000000000E+00  0.19297058683E+03  0.19297058685E+03  0.25500000000E-02 0. -1.
          2   -1    0    0  501    0  0.00000000000E+00 -0.00000000000E+00 -0.46828713129E+03  0.46828713130E+03  0.25500000000E-02 0.  1.
   -5000001    1    1    2    0    0  0.70943855094E+02 -0.11500254144E+03 -0.29854588008E+02  0.28574448645E+03  0.25000000000E+03 0.  0.
    5000001    1    1    2    0    0 -0.70943855094E+02  0.11500254144E+03 -0.24546195645E+03  0.37551323169E+03  0.25000000000E+03 0.  0.
<mgrwt>
<rscale>  0 0.60121757E+03</rscale>
<asrwt>0</asrwt>
<pdfrwt beam="1">  1        2 0.72044174E-01 0.60121757E+03</pdfrwt>
<pdfrwt beam="2">  1       -2 0.29687783E-01 0.60121757E+03</pdfrwt>
<totfact> 0.69835966E+02</totfact>
</mgrwt>
</event>
<event>
 4    1  0.1805887E-005  0.9177907E+03  0.7818608E-02  0.9403611E-01
         -2   -1    0    0    0  501 -0.00000000000E+00  0.00000000000E+00  0.10723868190E+03  0.10723868193E+03  0.25500000000E-02 0.  1.
          2   -1    0    0  501    0  0.00000000000E+00 -0.00000000000E+00 -0.19637033422E+04  0.19637033422E+04  0.25500000000E-02 0. -1.
   -5000001    1    1    2    0    0 -0.28781794181E+03  0.13262212417E+03 -0.14208254744E+04  0.14770486872E+04  0.25000000000E+03 0.  0.
    5000001    1    1    2    0    0  0.28781794181E+03 -0.13262212417E+03 -0.43563918588E+03  0.59389333699E+03  0.25000000000E+03 0.  0.
<mgrwt>
<rscale>  0 0.91779073E+03</rscale>
<asrwt>0</asrwt>
<pdfrwt beam="1">  1        2 0.30210818E+00 0.91779073E+03</pdfrwt>
<pdfrwt beam="2">  1       -2 0.16498260E-01 0.91779073E+03</pdfrwt>
<totfact> 0.21053682E+02</totfact>
</mgrwt>
</event>
<event>
 4    1  0.1805887E-005  0.7990390E+03  0.7818608E-02  0.9561409E-01
         -2   -1    0    0    0  501 -0.00000000000E+00  0.00000000000E+00  0.25378737148E+03  0.25378737149E+03  0.25500000000E-02 0. -1.
          2   -1    0    0  501    0  0.00000000000E+00 -0.00000000000E+00 -0.62893535033E+03  0.62893535034E+03  0.25500000000E-02 0.  1.
   -5000001    1    1    2    0    0  0.26795992562E+03  0.82301347789E+02 -0.37152802583E+02  0.37743392048E+03  0.25000000000E+03 0.  0.
    5000001    1    1    2    0    0 -0.26795992562E+03 -0.82301347789E+02 -0.33799517627E+03  0.50528880135E+03  0.25000000000E+03 0.  0.
<mgrwt>
<rscale>  0 0.79903905E+03</rscale>
<asrwt>0</asrwt>
<pdfrwt beam="1">  1        2 0.96759284E-01 0.79903905E+03</pdfrwt>
<pdfrwt beam="2">  1       -2 0.39044211E-01 0.79903905E+03</pdfrwt>
<totfact> 0.29205346E+02</totfact>
</mgrwt>
</event>
<event>
 4    1  0.1805887E-005  0.7112103E+03  0.7818608E-02  0.9698251E-01
          2   -1    0    0  501    0  0.00000000000E+00  0.00000000000E+00  0.12045381364E+04  0.12045381364E+04  0.25500000000E-02 0.  1.
         -2   -1    0    0    0  501 -0.00000000000E+00 -0.00000000000E+00 -0.10498216830E+03  0.10498216833E+03  0.25500000000E-02 0. -1.
   -5000001    1    1    2    0    0 -0.18864208801E+03  0.12898701826E+03  0.74920851912E+03  0.82221462732E+03  0.25000000000E+03 0.  0.
    5000001    1    1    2    0    0  0.18864208801E+03 -0.12898701826E+03  0.35034744902E+03  0.48730567746E+03  0.25000000000E+03 0.  0.
<mgrwt>
<rscale>  0 0.71121031E+03</rscale>
<asrwt>0</asrwt>
<pdfrwt beam="1">  1        2 0.18531356E+00 0.71121031E+03</pdfrwt>
<pdfrwt beam="2">  1       -2 0.16151103E-01 0.71121031E+03</pdfrwt>
<totfact> 0.58687557E+02</totfact>
</mgrwt>
</event>
<event>
 4    1  0.1805887E-005  0.8243110E+03  0.7818608E-02  0.9525480E-01
         -2   -1    0    0    0  501 -0.00000000000E+00  0.00000000000E+00  0.16976744173E+03  0.16976744175E+03  0.25500000000E-02 0. -1.
          2   -1    0    0  501    0  0.00000000000E+00 -0.00000000000E+00 -0.10006168664E+04  0.10006168664E+04  0.25500000000E-02 0.  1.
   -5000001    1    1    2    0    0 -0.27483150729E+03  0.80136009346E+01 -0.66852008046E+03  0.76486317285E+03  0.25000000000E+03 0.  0.
    5000001    1    1    2    0    0  0.27483150729E+03 -0.80136009346E+01 -0.16232934424E+03  0.40552113533E+03  0.25000000000E+03 0.  0.
<mgrwt>
<rscale>  0 0.82431102E+03</rscale>
<asrwt>0</asrwt>
<pdfrwt beam="1">  1        2 0.15394105E+00 0.82431102E+03</pdfrwt>
<pdfrwt beam="2">  1       -2 0.26118069E-01 0.82431102E+03</pdfrwt>
<totfact> 0.33445527E+02</totfact>
</mgrwt>
</event>
<event>
 4    1  0.1805887E-005  0.7009434E+03  0.7818608E-02  0.9715620E-01
         -2   -1    0    0    0  501 -0.00000000000E+00  0.00000000000E+00  0.14693325222E+03  0.14693325225E+03  0.25500000000E-02 0. -1.
          2   -1    0    0  501    0  0.00000000000E+00 -0.00000000000E+00 -0.83596055781E+03  0.83596055781E+03  0.25500000000E-02 0.  1.
   -5000001    1    1    2    0    0 -0.19655930145E+03  0.58610911327E+02 -0.15503104143E+03  0.35861598085E+03  0.25000000000E+03 0.  0.
    5000001    1    1    2    0    0  0.19655930145E+03 -0.58610911327E+02 -0.53399626415E+03  0.62427782921E+03  0.25000000000E+03 0.  0.
<mgrwt>
<rscale>  0 0.70094337E+03</rscale>
<asrwt>0</asrwt>
<pdfrwt beam="1">  1        2 0.12860931E+00 0.70094337E+03</pdfrwt>
<pdfrwt beam="2">  1       -2 0.22605116E-01 0.70094337E+03</pdfrwt>
<totfact> 0.56113425E+02</totfact>
</mgrwt>
</event>
<event>
 4    1  0.1805887E-005  0.5805418E+03  0.7818608E-02  0.9946619E-01
          2   -1    0    0  501    0  0.00000000000E+00  0.00000000000E+00  0.89139994656E+03  0.89139994656E+03  0.25500000000E-02 0.  1.
         -2   -1    0    0    0  501 -0.00000000000E+00 -0.00000000000E+00 -0.94522328074E+02  0.94522328108E+02  0.25500000000E-02 0. -1.
   -5000001    1    1    2    0    0  0.12911345155E+03 -0.64059331365E+02  0.45169326235E+03  0.53600436991E+03  0.25000000000E+03 0.  0.
    5000001    1    1    2    0    0 -0.12911345155E+03  0.64059331365E+02  0.34518435613E+03  0.44991790476E+03  0.25000000000E+03 0.  0.
<mgrwt>
<rscale>  0 0.58054181E+03</rscale>
<asrwt>0</asrwt>
<pdfrwt beam="1">  1        2 0.13713845E+00 0.58054181E+03</pdfrwt>
<pdfrwt beam="2">  1       -2 0.14541897E-01 0.58054181E+03</pdfrwt>
<totfact> 0.11040923E+03</totfact>
</mgrwt>
</event>
<event>
 4    1  0.1805887E-005  0.5733287E+03  0.7818608E-02  0.9962340E-01
          2   -1    0    0  501    0  0.00000000000E+00  0.00000000000E+00  0.12080330031E+04  0.12080330031E+04  0.25500000000E-02 0.  1.
         -2   -1    0    0    0  501 -0.00000000000E+00 -0.00000000000E+00 -0.68025015063E+02  0.68025015111E+02  0.25500000000E-02 0. -1.
   -5000001    1    1    2    0    0 -0.10590025914E+03 -0.68382691888E+00  0.36527426788E+03  0.45512704082E+03  0.25000000000E+03 0.  0.
    5000001    1    1    2    0    0  0.10590025914E+03  0.68382691888E+00  0.77473372016E+03  0.82093097740E+03  0.25000000000E+03 0.  0.
<mgrwt>
<rscale>  0 0.57332875E+03</rscale>
<asrwt>0</asrwt>
<pdfrwt beam="1">  1        2 0.18585123E+00 0.57332875E+03</pdfrwt>
<pdfrwt beam="2">  1       -2 0.10465387E-01 0.57332875E+03</pdfrwt>
<totfact> 0.12083145E+03</totfact>
</mgrwt>
</event>
<event>
 4    1  0.1805887E-005  0.7994797E+03  0.7818608E-02  0.9560771E-01
          2   -1    0    0  501    0  0.00000000000E+00  0.00000000000E+00  0.15846058907E+04  0.15846058908E+04  0.25500000000E-02 0.  1.
         -2   -1    0    0    0  501 -0.00000000000E+00 -0.00000000000E+00 -0.10084017582E+03  0.10084017585E+03  0.25500000000E-02 0. -1.
   -5000001    1    1    2    0    0  0.21901198405E+03  0.14440028998E+03  0.38614217554E+03  0.52955025506E+03  0.25000000000E+03 0.  0.
    5000001    1    1    2    0    0 -0.21901198405E+03 -0.14440028998E+03  0.10976235394E+04  0.11558958115E+04  0.25000000000E+03 0.  0.
<mgrwt>
<rscale>  0 0.79947967E+03</rscale>
<asrwt>0</asrwt>
<pdfrwt beam="1">  1        2 0.24378549E+00 0.79947967E+03</pdfrwt>
<pdfrwt beam="2">  1       -2 0.15513875E-01 0.79947967E+03</pdfrwt>
<totfact> 0.38061650E+02</totfact>
</mgrwt>
</event>
<event>
 4    1  0.1805887E-005  0.1035853E+04  0.7818608E-02  0.9270073E-01
         -2   -1    0    0    0  501 -0.00000000000E+00  0.00000000000E+00  0.40802300608E+03  0.40802300609E+03  0.25500000000E-02 0. -1.
          2   -1    0    0  501    0  0.00000000000E+00 -0.00000000000E+00 -0.65743266210E+03  0.65743266210E+03  0.25500000000E-02 0.  1.
   -5000001    1    1    2    0    0  0.19075082004E+03  0.33746668981E+03  0.11756417830E+03  0.47601573304E+03  0.25000000000E+03 0.  0.
    5000001    1    1    2    0    0 -0.19075082004E+03 -0.33746668981E+03 -0.36697383431E+03  0.58943993515E+03  0.25000000000E+03 0.  0.
<mgrwt>
<rscale>  0 0.10358526E+04</rscale>
<asrwt>0</asrwt>
<pdfrwt beam="1">  1        2 0.10114349E+00 0.10358526E+04</pdfrwt>
<pdfrwt beam="2">  1       -2 0.62772770E-01 0.10358526E+04</pdfrwt>
<totfact> 0.10399414E+02</totfact>
</mgrwt>
</event>
<event>
 4    1  0.1805887E-005  0.6579230E+03  0.7818608E-02  0.9792025E-01
          2   -1    0    0  501    0  0.00000000000E+00  0.00000000000E+00  0.16118573561E+04  0.16118573561E+04  0.25500000000E-02 0.  1.
         -2   -1    0    0    0  501 -0.00000000000E+00 -0.00000000000E+00 -0.67137254812E+02  0.67137254860E+02  0.25500000000E-02 0. -1.
   -5000001    1    1    2    0    0 -0.10381198659E+03 -0.18466669259E+03  0.84618907448E+03  0.90742198876E+03  0.25000000000E+03 0.  0.
    5000001    1    1    2    0    0  0.10381198659E+03  0.18466669259E+03  0.69853102677E+03  0.77157262216E+03  0.25000000000E+03 0.  0.
<mgrwt>
<rscale>  0 0.65792303E+03</rscale>
<asrwt>0</asrwt>
<pdfrwt beam="1">  1        2 0.24797806E+00 0.65792303E+03</pdfrwt>
<pdfrwt beam="2">  1       -2 0.10328808E-01 0.65792303E+03</pdfrwt>
<totfact> 0.72902369E+02</totfact>
</mgrwt>
</event>
<event>
 4    1  0.1805887E-005  0.7160997E+03  0.7818608E-02  0.9690089E-01
          2   -1    0    0  501    0  0.00000000000E+00  0.00000000000E+00  0.30750284854E+04  0.30750284854E+04  0.25500000000E-02 0.  1.
         -2   -1    0    0    0  501 -0.00000000000E+00 -0.00000000000E+00 -0.41690571797E+02  0.41690571875E+02  0.25500000000E-02 0. -1.
   -5000001    1    1    2    0    0  0.56760803307E+00  0.25604006680E+03  0.14646482286E+04  0.15077305036E+04  0.25000000000E+03 0.  0.
    5000001    1    1    2    0    0 -0.56760803307E+00 -0.25604006680E+03  0.15686896850E+04  0.16089885536E+04  0.25000000000E+03 0.  0.
<mgrwt>
<rscale>  0 0.71609970E+03</rscale>
<asrwt>0</asrwt>
<pdfrwt beam="1">  1        2 0.47308115E+00 0.71609970E+03</pdfrwt>
<pdfrwt beam="2">  1       -2 0.64139363E-02 0.71609970E+03</pdfrwt>
<totfact> 0.23181025E+02</totfact>
</mgrwt>
</event>
<event>
 4    1  0.1805887E-005  0.1084059E+04  0.7818608E-02  0.9220870E-01
         -2   -1    0    0    0  501 -0.00000000000E+00  0.00000000000E+00  0.16359375704E+03  0.16359375706E+03  0.25500000000E-02 0. -1.
          2   -1    0    0  501    0  0.00000000000E+00 -0.00000000000E+00 -0.17958860485E+04  0.17958860485E+04  0.25500000000E-02 0.  1.
   -5000001    1    1    2    0    0 -0.36935435408E+03 -0.27065581779E+03 -0.10819132216E+04  0.12011300636E+04  0.25000000000E+03 0.  0.
    5000001    1    1    2    0    0  0.36935435408E+03  0.27065581779E+03 -0.55037906978E+03  0.75834974190E+03  0.25000000000E+03 0.  0.
<mgrwt>
<rscale>  0 0.10840586E+04</rscale>
<asrwt>0</asrwt>
<pdfrwt beam="1">  1        2 0.27629015E+00 0.10840586E+04</pdfrwt>
<pdfrwt beam="2">  1       -2 0.25168272E-01 0.10840586E+04</pdfrwt>
<totfact> 0.12224645E+02</totfact>
</mgrwt>
</event>
<event>
 4    1  0.1805887E-005  0.8691042E+03  0.7818608E-02  0.9465049E-01
          2   -1    0    0  501    0  0.00000000000E+00  0.00000000000E+00  0.34147951216E+04  0.34147951216E+04  0.25500000000E-02 0.  1.
         -2   -1    0    0    0  501 -0.00000000000E+00 -0.00000000000E+00 -0.55299229330E+02  0.55299229389E+02  0.25500000000E-02 0. -1.
   -5000001    1    1    2    0    0  0.30103972933E+03 -0.59661192717E+02  0.23956733273E+04  0.24281546630E+04  0.25000000000E+03 0.  0.
    5000001    1    1    2    0    0 -0.30103972933E+03  0.59661192717E+02  0.96382256495E+03  0.10419396879E+04  0.25000000000E+03 0.  0.
<mgrwt>
<rscale>  0 0.86910423E+03</rscale>
<asrwt>0</asrwt>
<pdfrwt beam="1">  1        2 0.52535320E+00 0.86910423E+03</pdfrwt>
<pdfrwt beam="2">  1       -2 0.85075721E-02 0.86910423E+03</pdfrwt>
<totfact> 0.87660711E+01</totfact>
</mgrwt>
</event>
<event>
 4    1  0.1805887E-005  0.7785765E+03  0.7818608E-02  0.9591555E-01
         -2   -1    0    0    0  501 -0.00000000000E+00  0.00000000000E+00  0.10226968637E+03  0.10226968640E+03  0.25500000000E-02 0. -1.
          2   -1    0    0  501    0  0.00000000000E+00 -0.00000000000E+00 -0.14818209138E+04  0.14818209138E+04  0.25500000000E-02 0.  1.
   -5000001    1    1    2    0    0 -0.26236286522E+03  0.31736006384E+02 -0.97172656489E+03  0.10375904607E+04  0.25000000000E+03 0.  0.
    5000001    1    1    2    0    0  0.26236286522E+03 -0.31736006384E+02 -0.40782466258E+03  0.54650013958E+03  0.25000000000E+03 0.  0.
<mgrwt>
<rscale>  0 0.77857655E+03</rscale>
<asrwt>0</asrwt>
<pdfrwt beam="1">  1        2 0.22797243E+00 0.77857655E+03</pdfrwt>
<pdfrwt beam="2">  1       -2 0.15733799E-01 0.77857655E+03</pdfrwt>
<totfact> 0.42436855E+02</totfact>
</mgrwt>
</event>
<event>
 4    1  0.1805887E-005  0.8323258E+03  0.7818608E-02  0.9514371E-01
          2   -1    0    0  501    0  0.00000000000E+00  0.00000000000E+00  0.81437171607E+03  0.81437171608E+03  0.25500000000E-02 0.  1.
         -2   -1    0    0    0  501 -0.00000000000E+00 -0.00000000000E+00 -0.21266891147E+03  0.21266891149E+03  0.25500000000E-02 0. -1.
   -5000001    1    1    2    0    0  0.14922973269E+03 -0.15885874037E+03 -0.93219525619E+01  0.33180191577E+03  0.25000000000E+03 0.  0.
    5000001    1    1    2    0    0 -0.14922973269E+03  0.15885874037E+03  0.61102475716E+03  0.69523871179E+03  0.25000000000E+03 0.  0.
<mgrwt>
<rscale>  0 0.83232577E+03</rscale>
<asrwt>0</asrwt>
<pdfrwt beam="1">  1        2 0.12528796E+00 0.83232577E+03</pdfrwt>
<pdfrwt beam="2">  1       -2 0.32718294E-01 0.83232577E+03</pdfrwt>
<totfact> 0.29409203E+02</totfact>
</mgrwt>
</event>
<event>
 4    1  0.1805887E-005  0.6718408E+03  0.7818608E-02  0.9766638E-01
          2   -1    0    0  501    0  0.00000000000E+00  0.00000000000E+00  0.54693945940E+03  0.54693945940E+03  0.25500000000E-02 0.  1.
         -2   -1    0    0    0  501 -0.00000000000E+00 -0.00000000000E+00 -0.20631627617E+03  0.20631627619E+03  0.25500000000E-02 0. -1.
   -5000001    1    1    2    0    0  0.12497271436E+03 -0.15811898669E+03  0.28086444368E+03  0.42662000540E+03  0.25000000000E+03 0.  0.
    5000001    1    1    2    0    0 -0.12497271436E+03  0.15811898669E+03  0.59758739548E+02  0.32663573019E+03  0.25000000000E+03 0.  0.
<mgrwt>
<rscale>  0 0.67184079E+03</rscale>
<asrwt>0</asrwt>
<pdfrwt beam="1">  1        2 0.84144532E-01 0.67184079E+03</pdfrwt>
<pdfrwt beam="2">  1       -2 0.31740966E-01 0.67184079E+03</pdfrwt>
<totfact> 0.51449644E+02</totfact>
</mgrwt>
</event>
<event>
 4    1  0.1805887E-005  0.8655446E+03  0.7818608E-02  0.9469708E-01
          2   -1    0    0  501    0  0.00000000000E+00  0.00000000000E+00  0.29447929148E+04  0.29447929148E+04  0.25500000000E-02 0.  1.
         -2   -1    0    0    0  501 -0.00000000000E+00 -0.00000000000E+00 -0.63601030592E+02  0.63601030643E+02  0.25500000000E-02 0. -1.
   -5000001    1    1    2    0    0  0.18425114093E+03  0.30048652953E+03  0.15221997615E+04  0.15823503882E+04  0.25000000000E+03 0.  0.
    5000001    1    1    2    0    0 -0.18425114093E+03 -0.30048652953E+03  0.13589921228E+04  0.14260435572E+04  0.25000000000E+03 0.  0.
<mgrwt>
<rscale>  0 0.86554460E+03</rscale>
<asrwt>0</asrwt>
<pdfrwt beam="1">  1        2 0.45304522E+00 0.86554460E+03</pdfrwt>
<pdfrwt beam="2">  1       -2 0.97847705E-02 0.86554460E+03</pdfrwt>
<totfact> 0.13935154E+02</totfact>
</mgrwt>
</event>
<event>
 4    1  0.1805887E-005  0.5352927E+03  0.7818608E-02  0.1004957E+00
         -2   -1    0    0    0  501 -0.00000000000E+00  0.00000000000E+00  0.69775901597E+02  0.69775901644E+02  0.25500000000E-02 0. -1.
          2   -1    0    0  501    0  0.00000000000E+00 -0.00000000000E+00 -0.10266376711E+04  0.10266376711E+04  0.25500000000E-02 0.  1.
   -5000001    1    1    2    0    0  0.55732850374E+02  0.29034594439E+02 -0.62592499127E+03  0.67692780485E+03  0.25000000000E+03 0.  0.
    5000001    1    1    2    0    0 -0.55732850374E+02 -0.29034594439E+02 -0.33093677826E+03  0.41948576793E+03  0.25000000000E+03 0.  0.
<mgrwt>
<rscale>  0 0.53529270E+03</rscale>
<asrwt>0</asrwt>
<pdfrwt beam="1">  1        2 0.15794425E+00 0.53529270E+03</pdfrwt>
<pdfrwt beam="2">  1       -2 0.10734755E-01 0.53529270E+03</pdfrwt>
<totfact> 0.14923637E+03</totfact>
</mgrwt>
</event>
<event>
 4    1  0.1805887E-005  0.7094439E+03  0.7818608E-02  0.9701217E-01
         -2   -1    0    0    0  501 -0.00000000000E+00  0.00000000000E+00  0.19180148217E+03  0.19180148219E+03  0.25500000000E-02 0. -1.
          2   -1    0    0  501    0  0.00000000000E+00 -0.00000000000E+00 -0.65603074267E+03  0.65603074268E+03  0.25500000000E-02 0.  1.
   -5000001    1    1    2    0    0  0.78402575751E+02 -0.22881826498E+03 -0.31510854897E+03  0.46935930789E+03  0.25000000000E+03 0.  0.
    5000001    1    1    2    0    0 -0.78402575751E+02  0.22881826498E+03 -0.14912071154E+03  0.37847291697E+03  0.25000000000E+03 0.  0.
<mgrwt>
<rscale>  0 0.70944392E+03</rscale>
<asrwt>0</asrwt>
<pdfrwt beam="1">  1        2 0.10092781E+00 0.70944392E+03</pdfrwt>
<pdfrwt beam="2">  1       -2 0.29507921E-01 0.70944392E+03</pdfrwt>
<totfact> 0.47282824E+02</totfact>
</mgrwt>
</event>
<event>
 4    1  0.1805887E-005  0.6743939E+03  0.7818608E-02  0.9762053E-01
          2   -1    0    0  501    0  0.00000000000E+00  0.00000000000E+00  0.47946722509E+03  0.47946722510E+03  0.25500000000E-02 0.  1.
         -2   -1    0    0    0  501 -0.00000000000E+00 -0.00000000000E+00 -0.23714193342E+03  0.23714193343E+03  0.25500000000E-02 0. -1.
   -5000001    1    1    2    0    0  0.80873441653E+02 -0.13977869520E+03  0.28958746441E+03  0.41525834939E+03  0.25000000000E+03 0.  0.
    5000001    1    1    2    0    0 -0.80873441653E+02  0.13977869520E+03 -0.47262172734E+02  0.30135080914E+03  0.25000000000E+03 0.  0.
<mgrwt>
<rscale>  0 0.67439391E+03</rscale>
<asrwt>0</asrwt>
<pdfrwt beam="1">  1        2 0.73764188E-01 0.67439391E+03</pdfrwt>
<pdfrwt beam="2">  1       -2 0.36483375E-01 0.67439391E+03</pdfrwt>
<totfact> 0.46071974E+02</totfact>
</mgrwt>
</event>
<event>
 4    1  0.1805887E-005  0.6768115E+03  0.7818608E-02  0.9757730E-01
          2   -1    0    0  501    0  0.00000000000E+00  0.00000000000E+00  0.25749461491E+04  0.25749461491E+04  0.25500000000E-02 0.  1.
         -2   -1    0    0    0  501 -0.00000000000E+00 -0.00000000000E+00 -0.44474117300E+02  0.44474117373E+02  0.25500000000E-02 0. -1.
   -5000001    1    1    2    0    0 -0.20714719473E+03 -0.29052119221E+02  0.16170758281E+04  0.16496024429E+04  0.25000000000E+03 0.  0.
    5000001    1    1    2    0    0  0.20714719473E+03  0.29052119221E+02  0.91339620370E+03  0.96981782354E+03  0.25000000000E+03 0.  0.
<mgrwt>
<rscale>  0 0.67681152E+03</rscale>
<asrwt>0</asrwt>
<pdfrwt beam="1">  1        2 0.39614583E+00 0.67681152E+03</pdfrwt>
<pdfrwt beam="2">  1       -2 0.68421673E-02 0.67681152E+03</pdfrwt>
<totfact> 0.41611623E+02</totfact>
</mgrwt>
</event>
<event>
 4    1  0.1805887E-005  0.9548883E+03  0.7818608E-02  0.9359455E-01
         -2   -1    0    0    0  501 -0.00000000000E+00  0.00000000000E+00  0.12933333071E+03  0.12933333073E+03  0.25500000000E-02 0. -1.
          2   -1    0    0  501    0  0.00000000000E+00 -0.00000000000E+00 -0.17625224215E+04  0.17625224215E+04  0.25500000000E-02 0.  1.
   -5000001    1    1    2    0    0  0.12062053086E+03  0.36940444482E+03 -0.57848418659E+03  0.74037349389E+03  0.25000000000E+03 0.  0.
    5000001    1    1    2    0    0 -0.12062053086E+03 -0.36940444482E+03 -0.10547049042E+04  0.11514822583E+04  0.25000000000E+03 0.  0.
<mgrwt>
<rscale>  0 0.95488826E+03</rscale>
<asrwt>0</asrwt>
<pdfrwt beam="1">  1        2 0.27115728E+00 0.95488826E+03</pdfrwt>
<pdfrwt beam="2">  1       -2 0.19897437E-01 0.95488826E+03</pdfrwt>
<totfact> 0.19567718E+02</totfact>
</mgrwt>
</event>
<event>
 4    1  0.1805887E-005  0.6766568E+03  0.7818608E-02  0.9758006E-01
          2   -1    0    0  501    0  0.00000000000E+00  0.00000000000E+00  0.51278187097E+03  0.51278187097E+03  0.25500000000E-02 0.  1.
         -2   -1    0    0    0  501 -0.00000000000E+00 -0.00000000000E+00 -0.22322572592E+03  0.22322572593E+03  0.25500000000E-02 0. -1.
   -5000001    1    1    2    0    0  0.10376591243E+03  0.19967725064E+03  0.18441224337E+03  0.38359646050E+03  0.25000000000E+03 0.  0.
    5000001    1    1    2    0    0 -0.10376591243E+03 -0.19967725064E+03  0.10514390168E+03  0.35241113641E+03  0.25000000000E+03 0.  0.
<mgrwt>
<rscale>  0 0.67665680E+03</rscale>
<asrwt>0</asrwt>
<pdfrwt beam="1">  1        2 0.78889518E-01 0.67665680E+03</pdfrwt>
<pdfrwt beam="2">  1       -2 0.34342420E-01 0.67665680E+03</pdfrwt>
<totfact> 0.47831325E+02</totfact>
</mgrwt>
</event>
<event>
 4    1  0.1805887E-005  0.6630502E+03  0.7818608E-02  0.9782595E-01
          2   -1    0    0  501    0  0.00000000000E+00  0.00000000000E+00  0.29189426737E+04  0.29189426737E+04  0.25500000000E-02 0.  1.
         -2   -1    0    0    0  501 -0.00000000000E+00 -0.00000000000E+00 -0.37653661141E+02  0.37653661228E+02  0.25500000000E-02 0. -1.
   -5000001    1    1    2    0    0  0.18641350268E+03 -0.89566269518E+02  0.11370084611E+04  0.11823960213E+04  0.25000000000E+03 0.  0.
    5000001    1    1    2    0    0 -0.18641350268E+03  0.89566269518E+02  0.17442805515E+04  0.17742003136E+04  0.25000000000E+03 0.  0.
<mgrwt>
<rscale>  0 0.66305016E+03</rscale>
<asrwt>0</asrwt>
<pdfrwt beam="1">  1        2 0.44906822E+00 0.66305016E+03</pdfrwt>
<pdfrwt beam="2">  1       -2 0.57928695E-02 0.66305016E+03</pdfrwt>
<totfact> 0.34079972E+02</totfact>
</mgrwt>
</event>
<event>
 4    1  0.1805887E-005  0.7450485E+03  0.7818608E-02  0.9643151E-01
         -2   -1    0    0    0  501 -0.00000000000E+00  0.00000000000E+00  0.48376207289E+02  0.48376207356E+02  0.25500000000E-02 0. -1.
          2   -1    0    0  501    0  0.00000000000E+00 -0.00000000000E+00 -0.28686480592E+04  0.28686480592E+04  0.25500000000E-02 0.  1.
   -5000001    1    1    2    0    0  0.50917567751E+02  0.27062705620E+03 -0.13277570882E+04  0.13788656525E+04  0.25000000000E+03 0.  0.
    5000001    1    1    2    0    0 -0.50917567751E+02 -0.27062705620E+03 -0.14925147637E+04  0.15381586141E+04  0.25000000000E+03 0.  0.
<mgrwt>
<rscale>  0 0.74504849E+03</rscale>
<asrwt>0</asrwt>
<pdfrwt beam="1">  1        2 0.44133034E+00 0.74504849E+03</pdfrwt>
<pdfrwt beam="2">  1       -2 0.74424956E-02 0.74504849E+03</pdfrwt>
<totfact> 0.24373404E+02</totfact>
</mgrwt>
</event>
<event>
 4    1  0.1805887E-005  0.8086679E+03  0.7818608E-02  0.9547555E-01
          2   -1    0    0  501    0  0.00000000000E+00  0.00000000000E+00  0.23074060010E+03  0.23074060011E+03  0.25500000000E-02 0.  1.
         -2   -1    0    0    0  501 -0.00000000000E+00 -0.00000000000E+00 -0.70852707810E+03  0.70852707810E+03  0.25500000000E-02 0. -1.
   -5000001    1    1    2    0    0 -0.16663989768E+03  0.26796203852E+03 -0.28256089961E+03  0.49184669519E+03  0.25000000000E+03 0.  0.
    5000001    1    1    2    0    0  0.16663989768E+03 -0.26796203852E+03 -0.19522557839E+03  0.44742098302E+03  0.25000000000E+03 0.  0.
<mgrwt>
<rscale>  0 0.80866795E+03</rscale>
<asrwt>0</asrwt>
<pdfrwt beam="1">  1        2 0.35498554E-01 0.80866795E+03</pdfrwt>
<pdfrwt beam="2">  1       -2 0.10900416E+00 0.80866795E+03</pdfrwt>
<totfact> 0.99561632E+01</totfact>
</mgrwt>
</event>
<event>
 4    1  0.1805887E-005  0.6121510E+03  0.7818608E-02  0.9880512E-01
         -2   -1    0    0    0  501 -0.00000000000E+00  0.00000000000E+00  0.97980810902E+03  0.97980810902E+03  0.25500000000E-02 0. -1.
          2   -1    0    0  501    0  0.00000000000E+00 -0.00000000000E+00 -0.95612826683E+02  0.95612826717E+02  0.25500000000E-02 0.  1.
   -5000001    1    1    2    0    0  0.11364020324E+03 -0.10057140124E+03  0.60073025428E+03  0.66813587013E+03  0.25000000000E+03 0.  0.
    5000001    1    1    2    0    0 -0.11364020324E+03  0.10057140124E+03  0.28346502805E+03  0.40728506561E+03  0.25000000000E+03 0.  0.
<mgrwt>
<rscale>  0 0.61215104E+03</rscale>
<asrwt>0</asrwt>
<pdfrwt beam="1">  1        2 0.14709665E-01 0.61215104E+03</pdfrwt>
<pdfrwt beam="2">  1       -2 0.15073972E+00 0.61215104E+03</pdfrwt>
<totfact> 0.12344376E+02</totfact>
</mgrwt>
</event>
<event>
 4    1  0.1805887E-005  0.1102995E+04  0.7818608E-02  0.9202277E-01
         -2   -1    0    0    0  501 -0.00000000000E+00  0.00000000000E+00  0.13466558541E+03  0.13466558544E+03  0.25500000000E-02 0. -1.
          2   -1    0    0  501    0  0.00000000000E+00 -0.00000000000E+00 -0.22585553343E+04  0.22585553343E+04  0.25500000000E-02 0.  1.
   -5000001    1    1    2    0    0 -0.13887384633E+03  0.33506175839E+03 -0.34200281379E+03  0.55769010371E+03  0.25000000000E+03 0.  0.
    5000001    1    1    2    0    0  0.13887384633E+03 -0.33506175839E+03 -0.17818869351E+04  0.18355308160E+04  0.25000000000E+03 0.  0.
<mgrwt>
<rscale>  0 0.11029953E+04</rscale>
<asrwt>0</asrwt>
<pdfrwt beam="1">  1        2 0.34747002E+00 0.11029953E+04</pdfrwt>
<pdfrwt beam="2">  1       -2 0.20717784E-01 0.11029953E+04</pdfrwt>
<totfact> 0.95908865E+01</totfact>
</mgrwt>
</event>
<event>
 4    1  0.1805887E-005  0.6948967E+03  0.7818608E-02  0.9726000E-01
         -2   -1    0    0    0  501 -0.00000000000E+00  0.00000000000E+00  0.84578405022E+02  0.84578405060E+02  0.25500000000E-02 0. -1.
          2   -1    0    0  501    0  0.00000000000E+00 -0.00000000000E+00 -0.14273188691E+04  0.14273188691E+04  0.25500000000E-02 0.  1.
   -5000001    1    1    2    0    0 -0.84106968790E+02  0.22449064851E+03 -0.73096735453E+03  0.80887780713E+03  0.25000000000E+03 0.  0.
    5000001    1    1    2    0    0  0.84106968790E+02 -0.22449064851E+03 -0.61177310954E+03  0.70301946703E+03  0.25000000000E+03 0.  0.
<mgrwt>
<rscale>  0 0.69489669E+03</rscale>
<asrwt>0</asrwt>
<pdfrwt beam="1">  1        2 0.21958750E+00 0.69489669E+03</pdfrwt>
<pdfrwt beam="2">  1       -2 0.13012063E-01 0.69489669E+03</pdfrwt>
<totfact> 0.62954330E+02</totfact>
</mgrwt>
</event>
<event>
 4    1  0.1805887E-005  0.9297160E+03  0.7818608E-02  0.9389179E-01
          2   -1    0    0  501    0  0.00000000000E+00  0.00000000000E+00  0.33668078991E+03  0.33668078992E+03  0.25500000000E-02 0. -1.
         -2   -1    0    0    0  501 -0.00000000000E+00 -0.00000000000E+00 -0.64183336397E+03  0.64183336398E+03  0.25500000000E-02 0.  1.
   -5000001    1    1    2    0    0 -0.39566091833E+02 -0.33110158911E+03 -0.36929467800E+03  0.55684135724E+03  0.25000000000E+03 0.  0.
    5000001    1    1    2    0    0  0.39566091833E+02  0.33110158911E+03  0.64142103938E+02  0.42167279665E+03  0.25000000000E+03 0.  0.
<mgrwt>
<rscale>  0 0.92971601E+03</rscale>
<asrwt>0</asrwt>
<pdfrwt beam="1">  1        2 0.51797045E-01 0.92971601E+03</pdfrwt>
<pdfrwt beam="2">  1       -2 0.98743594E-01 0.92971601E+03</pdfrwt>
<totfact> 0.82315127E+01</totfact>
</mgrwt>
</event>
<event>
 4    1  0.1805887E-005  0.1006865E+04  0.7818608E-02  0.9301047E-01
         -2   -1    0    0    0  501 -0.00000000000E+00  0.00000000000E+00  0.78175817989E+02  0.78175818031E+02  0.25500000000E-02 0. -1.
          2   -1    0    0  501    0  0.00000000000E+00 -0.00000000000E+00 -0.32419789893E+04  0.32419789893E+04  0.25500000000E-02 0.  1.
   -5000001    1    1    2    0    0  0.33098771612E+03 -0.16454226796E+03 -0.23504234774E+04  0.23924083158E+04  0.25000000000E+03 0.  0.
    5000001    1    1    2    0    0 -0.33098771612E+03  0.16454226796E+03 -0.81337969388E+03  0.92774649155E+03  0.25000000000E+03 0.  0.
<mgrwt>
<rscale>  0 0.10068652E+04</rscale>
<asrwt>0</asrwt>
<pdfrwt beam="1">  1        2 0.49876590E+00 0.10068652E+04</pdfrwt>
<pdfrwt beam="2">  1       -2 0.12027051E-01 0.10068652E+04</pdfrwt>
<totfact> 0.63660140E+01</totfact>
</mgrwt>
</event>
<event>
 4    1  0.1805887E-005  0.6205134E+03  0.7818608E-02  0.9863738E-01
          2   -1    0    0  501    0  0.00000000000E+00  0.00000000000E+00  0.81153853688E+02  0.81153853728E+02  0.25500000000E-02 0.  1.
         -2   -1    0    0    0  501 -0.00000000000E+00 -0.00000000000E+00 -0.11861324450E+04  0.11861324450E+04  0.25500000000E-02 0. -1.
   -5000001    1    1    2    0    0  0.15030776222E+03 -0.92335921655E+02 -0.44753569449E+03  0.54213148189E+03  0.25000000000E+03 0.  0.
    5000001    1    1    2    0    0 -0.15030776222E+03  0.92335921655E+02 -0.65744289681E+03  0.72515481683E+03  0.25000000000E+03 0.  0.
<mgrwt>
<rscale>  0 0.62051340E+03</rscale>
<asrwt>0</asrwt>
<pdfrwt beam="1">  1        2 0.12485209E-01 0.62051340E+03</pdfrwt>
<pdfrwt beam="2">  1       -2 0.18248190E+00 0.62051340E+03</pdfrwt>
<totfact> 0.89467605E+01</totfact>
</mgrwt>
</event>
<event>
 4    1  0.1805887E-005  0.6818157E+03  0.7818608E-02  0.9748845E-01
          2   -1    0    0  501    0  0.00000000000E+00  0.00000000000E+00  0.56687750667E+03  0.56687750668E+03  0.25500000000E-02 0.  1.
         -2   -1    0    0    0  501 -0.00000000000E+00 -0.00000000000E+00 -0.20501459424E+03  0.20501459425E+03  0.25500000000E-02 0. -1.
   -5000001    1    1    2    0    0  0.67963721034E+02  0.20116219029E+03  0.28611968585E+03  0.43525827828E+03  0.25000000000E+03 0.  0.
    5000001    1    1    2    0    0 -0.67963721034E+02 -0.20116219029E+03  0.75743226584E+02  0.33663382265E+03  0.25000000000E+03 0.  0.
<mgrwt>
<rscale>  0 0.68181570E+03</rscale>
<asrwt>0</asrwt>
<pdfrwt beam="1">  1        2 0.87211924E-01 0.68181570E+03</pdfrwt>
<pdfrwt beam="2">  1       -2 0.31540707E-01 0.68181570E+03</pdfrwt>
<totfact> 0.49891227E+02</totfact>
</mgrwt>
</event>
<event>
 4    1  0.1805887E-005  0.7359655E+03  0.7818608E-02  0.9657629E-01
          2   -1    0    0  501    0  0.00000000000E+00  0.00000000000E+00  0.16134813516E+04  0.16134813516E+04  0.25500000000E-02 0.  1.
         -2   -1    0    0    0  501 -0.00000000000E+00 -0.00000000000E+00 -0.83924918862E+02  0.83924918901E+02  0.25500000000E-02 0. -1.
   -5000001    1    1    2    0    0  0.15506616317E+03  0.19055753855E+03  0.50636630493E+03  0.61584456255E+03  0.25000000000E+03 0.  0.
    5000001    1    1    2    0    0 -0.15506616317E+03 -0.19055753855E+03  0.10231901278E+04  0.10815617080E+04  0.25000000000E+03 0.  0.
<mgrwt>
<rscale>  0 0.73596547E+03</rscale>
<asrwt>0</asrwt>
<pdfrwt beam="1">  1        2 0.24822790E+00 0.73596547E+03</pdfrwt>
<pdfrwt beam="2">  1       -2 0.12911526E-01 0.73596547E+03</pdfrwt>
<totfact> 0.50157735E+02</totfact>
</mgrwt>
</event>
<event>
 4    1  0.1805887E-005  0.1248294E+04  0.7818608E-02  0.9071604E-01
          2   -1    0    0  501    0  0.00000000000E+00  0.00000000000E+00  0.17581828389E+04  0.17581828389E+04  0.25500000000E-02 0. -1.
         -2   -1    0    0    0  501 -0.00000000000E+00 -0.00000000000E+00 -0.22156952617E+03  0.22156952619E+03  0.25500000000E-02 0.  1.
   -5000001    1    1    2    0    0 -0.50201525685E+03  0.27354778478E+03  0.79140029649E+03  0.10078006439E+04  0.25000000000E+03 0.  0.
    5000001    1    1    2    0    0  0.50201525685E+03 -0.27354778478E+03  0.74521301626E+03  0.97195172116E+03  0.25000000000E+03 0.  0.
<mgrwt>
<rscale>  0 0.12482944E+04</rscale>
<asrwt>0</asrwt>
<pdfrwt beam="1">  1        2 0.27048966E+00 0.12482944E+04</pdfrwt>
<pdfrwt beam="2">  1       -2 0.34087620E-01 0.12482944E+04</pdfrwt>
<totfact> 0.72144084E+01</totfact>
</mgrwt>
</event>
<event>
 4    1  0.1805887E-005  0.1244499E+04  0.7818608E-02  0.9074774E-01
          2   -1    0    0  501    0  0.00000000000E+00  0.00000000000E+00  0.44211387512E+03  0.44211387513E+03  0.25500000000E-02 0.  1.
         -2   -1    0    0    0  501 -0.00000000000E+00 -0.00000000000E+00 -0.87577945992E+03  0.87577945993E+03  0.25500000000E-02 0. -1.
   -5000001    1    1    2    0    0 -0.52602121996E+03  0.90767783808E+02 -0.42798389987E+03  0.72842798750E+03  0.25000000000E+03 0.  0.
    5000001    1    1    2    0    0  0.52602121996E+03 -0.90767783808E+02 -0.56816849253E+01  0.58946534756E+03  0.25000000000E+03 0.  0.
<mgrwt>
<rscale>  0 0.12444987E+04</rscale>
<asrwt>0</asrwt>
<pdfrwt beam="1">  1        2 0.68017519E-01 0.12444987E+04</pdfrwt>
<pdfrwt beam="2">  1       -2 0.13473530E+00 0.12444987E+04</pdfrwt>
<totfact> 0.27665478E+01</totfact>
</mgrwt>
</event>
<event>
 4    1  0.1805887E-005  0.8194018E+03  0.7818608E-02  0.9532351E-01
          2   -1    0    0  501    0  0.00000000000E+00  0.00000000000E+00  0.56252216116E+03  0.56252216116E+03  0.25500000000E-02 0.  1.
         -2   -1    0    0    0  501 -0.00000000000E+00 -0.00000000000E+00 -0.29839682433E+03  0.29839682434E+03  0.25500000000E-02 0. -1.
   -5000001    1    1    2    0    0 -0.11554808587E+03  0.12625468974E+03 -0.15770686748E+03  0.34155975009E+03  0.25000000000E+03 0.  0.
    5000001    1    1    2    0    0  0.11554808587E+03 -0.12625468974E+03  0.42183220430E+03  0.51935923542E+03  0.25000000000E+03 0.  0.
<mgrwt>
<rscale>  0 0.81940180E+03</rscale>
<asrwt>0</asrwt>
<pdfrwt beam="1">  1        2 0.86541870E-01 0.81940180E+03</pdfrwt>
<pdfrwt beam="2">  1       -2 0.45907204E-01 0.81940180E+03</pdfrwt>
<totfact> 0.24260917E+02</totfact>
</mgrwt>
</event>
<event>
 4    1  0.1805887E-005  0.6932048E+03  0.7818608E-02  0.9728924E-01
         -2   -1    0    0    0  501 -0.00000000000E+00  0.00000000000E+00  0.69578688825E+02  0.69578688872E+02  0.25500000000E-02 0. -1.
          2   -1    0    0  501    0  0.00000000000E+00 -0.00000000000E+00 -0.17265807314E+04  0.17265807314E+04  0.25500000000E-02 0.  1.
   -5000001    1    1    2    0    0  0.29325361127E+00  0.19395844597E+03 -0.46194342467E+03  0.55992114834E+03  0.25000000000E+03 0.  0.
    5000001    1    1    2    0    0 -0.29325361127E+00 -0.19395844597E+03 -0.11950586179E+04  0.12362382719E+04  0.25000000000E+03 0.  0.
<mgrwt>
<rscale>  0 0.69320480E+03</rscale>
<asrwt>0</asrwt>
<pdfrwt beam="1">  1        2 0.26562777E+00 0.69320480E+03</pdfrwt>
<pdfrwt beam="2">  1       -2 0.10704415E-01 0.69320480E+03</pdfrwt>
<totfact> 0.59407879E+02</totfact>
</mgrwt>
</event>
<event>
 4    1  0.1805887E-005  0.5771716E+03  0.7818608E-02  0.9953933E-01
          2   -1    0    0  501    0  0.00000000000E+00  0.00000000000E+00  0.48604671226E+03  0.48604671227E+03  0.25500000000E-02 0. -1.
         -2   -1    0    0    0  501 -0.00000000000E+00 -0.00000000000E+00 -0.17134518342E+03  0.17134518343E+03  0.25500000000E-02 0.  1.
   -5000001    1    1    2    0    0 -0.11336235747E+03 -0.11943080924E+02  0.56834762824E+02  0.28057771034E+03  0.25000000000E+03 0.  0.
    5000001    1    1    2    0    0  0.11336235747E+03  0.11943080924E+02  0.25786676602E+03  0.37681418536E+03  0.25000000000E+03 0.  0.
<mgrwt>
<rscale>  0 0.57717160E+03</rscale>
<asrwt>0</asrwt>
<pdfrwt beam="1">  1        2 0.74776418E-01 0.57717160E+03</pdfrwt>
<pdfrwt beam="2">  1       -2 0.26360797E-01 0.57717160E+03</pdfrwt>
<totfact> 0.83190665E+02</totfact>
</mgrwt>
</event>
<event>
 4    1  0.1805887E-005  0.9898592E+03  0.7818608E-02  0.9319737E-01
         -2   -1    0    0    0  501 -0.00000000000E+00  0.00000000000E+00  0.25215999999E+03  0.25216000000E+03  0.25500000000E-02 0. -1.
          2   -1    0    0  501    0  0.00000000000E+00 -0.00000000000E+00 -0.97142811620E+03  0.97142811621E+03  0.25500000000E-02 0.  1.
   -5000001    1    1    2    0    0  0.30484720476E+03 -0.29025258543E+03 -0.44942914570E+03  0.66457876780E+03  0.25000000000E+03 0.  0.
    5000001    1    1    2    0    0 -0.30484720476E+03  0.29025258543E+03 -0.26983897051E+03  0.55900934841E+03  0.25000000000E+03 0.  0.
<mgrwt>
<rscale>  0 0.98985921E+03</rscale>
<asrwt>0</asrwt>
<pdfrwt beam="1">  1        2 0.14945048E+00 0.98985921E+03</pdfrwt>
<pdfrwt beam="2">  1       -2 0.38793847E-01 0.98985921E+03</pdfrwt>
<totfact> 0.16470746E+02</totfact>
</mgrwt>
</event>
<event>
 4    1  0.1805887E-005  0.6424113E+03  0.7818608E-02  0.9821124E-01
          2   -1    0    0  501    0  0.00000000000E+00  0.00000000000E+00  0.19856203376E+04  0.19856203376E+04  0.25500000000E-02 0.  1.
         -2   -1    0    0    0  501 -0.00000000000E+00 -0.00000000000E+00 -0.51960120285E+02  0.51960120348E+02  0.25500000000E-02 0. -1.
   -5000001    1    1    2    0    0  0.12259584126E+03 -0.12324911216E+03  0.12911113379E+04  0.13265325366E+04  0.25000000000E+03 0.  0.
    5000001    1    1    2    0    0 -0.12259584126E+03  0.12324911216E+03  0.64254887942E+03  0.71104792130E+03  0.25000000000E+03 0.  0.
<mgrwt>
<rscale>  0 0.64241131E+03</rscale>
<asrwt>0</asrwt>
<pdfrwt beam="1">  1        2 0.30548008E+00 0.64241131E+03</pdfrwt>
<pdfrwt beam="2">  1       -2 0.79938639E-02 0.64241131E+03</pdfrwt>
<totfact> 0.69087278E+02</totfact>
</mgrwt>
</event>
<event>
 4    1  0.1805887E-005  0.5994420E+03  0.7818608E-02  0.9906564E-01
         -2   -1    0    0    0  501 -0.00000000000E+00  0.00000000000E+00  0.78787771897E+02  0.78787771938E+02  0.25500000000E-02 0.  1.
          2   -1    0    0  501    0  0.00000000000E+00 -0.00000000000E+00 -0.11401855314E+04  0.11401855314E+04  0.25500000000E-02 0. -1.
   -5000001    1    1    2    0    0 -0.15684413017E+03  0.51557039532E+02 -0.54824706279E+03  0.62476639742E+03  0.25000000000E+03 0.  0.
    5000001    1    1    2    0    0  0.15684413017E+03 -0.51557039532E+02 -0.51315069669E+03  0.59420690589E+03  0.25000000000E+03 0.  0.
<mgrwt>
<rscale>  0 0.59944200E+03</rscale>
<asrwt>0</asrwt>
<pdfrwt beam="1">  1        2 0.17541315E+00 0.59944200E+03</pdfrwt>
<pdfrwt beam="2">  1       -2 0.12121197E-01 0.59944200E+03</pdfrwt>
<totfact> 0.10411507E+03</totfact>
</mgrwt>
</event>
<event>
 4    1  0.1805887E-005  0.7627967E+03  0.7818608E-02  0.9615486E-01
          2   -1    0    0  501    0  0.00000000000E+00  0.00000000000E+00  0.27548792345E+03  0.27548792346E+03  0.25500000000E-02 0.  1.
         -2   -1    0    0    0  501 -0.00000000000E+00 -0.00000000000E+00 -0.52802569422E+03  0.52802569422E+03  0.25500000000E-02 0. -1.
   -5000001    1    1    2    0    0  0.66189673277E+02 -0.26628135123E+03 -0.21856955366E+03  0.43076615541E+03  0.25000000000E+03 0.  0.
    5000001    1    1    2    0    0 -0.66189673277E+02  0.26628135123E+03 -0.33968217108E+02  0.37274746228E+03  0.25000000000E+03 0.  0.
<mgrwt>
<rscale>  0 0.76279670E+03</rscale>
<asrwt>0</asrwt>
<pdfrwt beam="1">  1        2 0.42382758E-01 0.76279670E+03</pdfrwt>
<pdfrwt beam="2">  1       -2 0.81234722E-01 0.76279670E+03</pdfrwt>
<totfact> 0.16262587E+02</totfact>
</mgrwt>
</event>
<event>
 4    1  0.1805887E-005  0.9417181E+03  0.7818608E-02  0.9374884E-01
         -2   -1    0    0    0  501 -0.00000000000E+00  0.00000000000E+00  0.10592039709E+04  0.10592039709E+04  0.25500000000E-02 0. -1.
          2   -1    0    0  501    0  0.00000000000E+00 -0.00000000000E+00 -0.20931590656E+03  0.20931590657E+03  0.25500000000E-02 0.  1.
   -5000001    1    1    2    0    0 -0.15984988065E+03  0.26044732833E+03  0.79349656328E+02  0.40271722479E+03  0.25000000000E+03 0.  0.
    5000001    1    1    2    0    0  0.15984988065E+03 -0.26044732833E+03  0.77053840802E+03  0.86580265270E+03  0.25000000000E+03 0.  0.
<mgrwt>
<rscale>  0 0.94171809E+03</rscale>
<asrwt>0</asrwt>
<pdfrwt beam="1">  1        2 0.32202447E-01 0.94171809E+03</pdfrwt>
<pdfrwt beam="2">  1       -2 0.16295446E+00 0.94171809E+03</pdfrwt>
<totfact> 0.39410590E+01</totfact>
</mgrwt>
</event>
<event>
 4    1  0.1805887E-005  0.1038940E+04  0.7818608E-02  0.9266837E-01
         -2   -1    0    0    0  501 -0.00000000000E+00  0.00000000000E+00  0.18608114893E+03  0.18608114895E+03  0.25500000000E-02 0. -1.
          2   -1    0    0  501    0  0.00000000000E+00 -0.00000000000E+00 -0.14501701881E+04  0.14501701881E+04  0.25500000000E-02 0.  1.
   -5000001    1    1    2    0    0 -0.27591494546E+03 -0.31045547869E+03 -0.33808744649E+03  0.59102858040E+03  0.25000000000E+03 0.  0.
    5000001    1    1    2    0    0  0.27591494546E+03  0.31045547869E+03 -0.92600159267E+03  0.10452227566E+04  0.25000000000E+03 0.  0.
<mgrwt>
<rscale>  0 0.10389405E+04</rscale>
<asrwt>0</asrwt>
<pdfrwt beam="1">  1        2 0.22310310E+00 0.10389405E+04</pdfrwt>
<pdfrwt beam="2">  1       -2 0.28627870E-01 0.10389405E+04</pdfrwt>
<totfact> 0.15085738E+02</totfact>
</mgrwt>
</event>
<event>
 4    1  0.1805887E-005  0.8106657E+03  0.7818608E-02  0.9544706E-01
         -2   -1    0    0    0  501 -0.00000000000E+00  0.00000000000E+00  0.12211880833E+03  0.12211880835E+03  0.25500000000E-02 0. -1.
          2   -1    0    0  501    0  0.00000000000E+00 -0.00000000000E+00 -0.13453678788E+04  0.13453678788E+04  0.25500000000E-02 0.  1.
   -5000001    1    1    2    0    0  0.29440605901E+03  0.66373489225E+02 -0.42424792680E+03  0.57755231022E+03  0.25000000000E+03 0.  0.
    5000001    1    1    2    0    0 -0.29440605901E+03 -0.66373489225E+02 -0.79900114367E+03  0.88993437692E+03  0.25000000000E+03 0.  0.
<mgrwt>
<rscale>  0 0.81066571E+03</rscale>
<asrwt>0</asrwt>
<pdfrwt beam="1">  1        2 0.20697966E+00 0.81066571E+03</pdfrwt>
<pdfrwt beam="2">  1       -2 0.18787510E-01 0.81066571E+03</pdfrwt>
<totfact> 0.37297730E+02</totfact>
</mgrwt>
</event>
<event>
 4    1  0.1805887E-005  0.1206176E+04  0.7818608E-02  0.9107468E-01
          2   -1    0    0  501    0  0.00000000000E+00  0.00000000000E+00  0.17186130903E+04  0.17186130903E+04  0.25500000000E-02 0.  1.
         -2   -1    0    0    0  501 -0.00000000000E+00 -0.00000000000E+00 -0.21163289149E+03  0.21163289151E+03  0.25500000000E-02 0. -1.
   -5000001    1    1    2    0    0 -0.39020253039E+03  0.37087758340E+03  0.92440703479E+03  0.10985611328E+04  0.25000000000E+03 0.  0.
    5000001    1    1    2    0    0  0.39020253039E+03 -0.37087758340E+03  0.58257316402E+03  0.83168484898E+03  0.25000000000E+03 0.  0.
<mgrwt>
<rscale>  0 0.12061759E+04</rscale>
<asrwt>0</asrwt>
<pdfrwt beam="1">  1        2 0.26440202E+00 0.12061759E+04</pdfrwt>
<pdfrwt beam="2">  1       -2 0.32558906E-01 0.12061759E+04</pdfrwt>
<totfact> 0.83028601E+01</totfact>
</mgrwt>
</event>
<event>
 4    1  0.1805887E-005  0.6879407E+03  0.7818608E-02  0.9738080E-01
         -2   -1    0    0    0  501 -0.00000000000E+00  0.00000000000E+00  0.94852302326E+02  0.94852302360E+02  0.25500000000E-02 0. -1.
          2   -1    0    0  501    0  0.00000000000E+00 -0.00000000000E+00 -0.12473667505E+04  0.12473667505E+04  0.25500000000E-02 0.  1.
   -5000001    1    1    2    0    0  0.21023919209E+03  0.53370785640E+02 -0.75893646787E+03  0.82796951690E+03  0.25000000000E+03 0.  0.
    5000001    1    1    2    0    0 -0.21023919209E+03 -0.53370785640E+02 -0.39357798026E+03  0.51424953592E+03  0.25000000000E+03 0.  0.
<mgrwt>
<rscale>  0 0.68794072E+03</rscale>
<asrwt>0</asrwt>
<pdfrwt beam="1">  1        2 0.19190257E+00 0.68794072E+03</pdfrwt>
<pdfrwt beam="2">  1       -2 0.14592663E-01 0.68794072E+03</pdfrwt>
<totfact> 0.65845643E+02</totfact>
</mgrwt>
</event>
<event>
 4    1  0.1805887E-005  0.9899672E+03  0.7818608E-02  0.9319618E-01
          2   -1    0    0  501    0  0.00000000000E+00  0.00000000000E+00  0.25045612637E+04  0.25045612637E+04  0.25500000000E-02 0. -1.
         -2   -1    0    0    0  501 -0.00000000000E+00 -0.00000000000E+00 -0.97825016139E+02  0.97825016172E+02  0.25500000000E-02 0.  1.
   -5000001    1    1    2    0    0 -0.35942012549E+03  0.13914069946E+03  0.16878436028E+04  0.17492452625E+04  0.25000000000E+03 0.  0.
    5000001    1    1    2    0    0  0.35942012549E+03 -0.13914069946E+03  0.71889264482E+03  0.85314101744E+03  0.25000000000E+03 0.  0.
<mgrwt>
<rscale>  0 0.98996716E+03</rscale>
<asrwt>0</asrwt>
<pdfrwt beam="1">  1        2 0.38531708E+00 0.98996716E+03</pdfrwt>
<pdfrwt beam="2">  1       -2 0.15050004E-01 0.98996716E+03</pdfrwt>
<totfact> 0.12224669E+02</totfact>
</mgrwt>
</event>
<event>
 4    1  0.1805887E-005  0.6317272E+03  0.7818608E-02  0.9841684E-01
         -2   -1    0    0    0  501 -0.00000000000E+00  0.00000000000E+00  0.37401876246E+02  0.37401876333E+02  0.25500000000E-02 0. -1.
          2   -1    0    0  501    0  0.00000000000E+00 -0.00000000000E+00 -0.26675079727E+04  0.26675079727E+04  0.25500000000E-02 0.  1.
   -5000001    1    1    2    0    0  0.10930047074E+03  0.15656529202E+03 -0.14369534147E+04  0.14709841602E+04  0.25000000000E+03 0.  0.
    5000001    1    1    2    0    0 -0.10930047074E+03 -0.15656529202E+03 -0.11931526817E+04  0.12339256888E+04  0.25000000000E+03 0.  0.
<mgrwt>
<rscale>  0 0.63172717E+03</rscale>
<asrwt>0</asrwt>
<pdfrwt beam="1">  1        2 0.41038569E+00 0.63172717E+03</pdfrwt>
<pdfrwt beam="2">  1       -2 0.57541369E-02 0.63172717E+03</pdfrwt>
<totfact> 0.48566946E+02</totfact>
</mgrwt>
</event>
<event>
 4    1  0.1805887E-005  0.6069204E+03  0.7818608E-02  0.9891152E-01
         -2   -1    0    0    0  501 -0.00000000000E+00  0.00000000000E+00  0.22032077097E+03  0.22032077099E+03  0.25500000000E-02 0. -1.
          2   -1    0    0  501    0  0.00000000000E+00 -0.00000000000E+00 -0.41797275198E+03  0.41797275199E+03  0.25500000000E-02 0.  1.
   -5000001    1    1    2    0    0  0.16390121441E+03 -0.11252993051E+02 -0.45222259248E+02  0.30254799730E+03  0.25000000000E+03 0.  0.
    5000001    1    1    2    0    0 -0.16390121441E+03  0.11252993051E+02 -0.15242972176E+03  0.33574552568E+03  0.25000000000E+03 0.  0.
<mgrwt>
<rscale>  0 0.60692035E+03</rscale>
<asrwt>0</asrwt>
<pdfrwt beam="1">  1        2 0.64303500E-01 0.60692035E+03</pdfrwt>
<pdfrwt beam="2">  1       -2 0.33895503E-01 0.60692035E+03</pdfrwt>
<totfact> 0.62018013E+02</totfact>
</mgrwt>
</event>
<event>
 4    1  0.1805887E-005  0.5881055E+03  0.7818608E-02  0.9930395E-01
          2   -1    0    0  501    0  0.00000000000E+00  0.00000000000E+00  0.25988173245E+04  0.25988173245E+04  0.25500000000E-02 0.  1.
         -2   -1    0    0    0  501 -0.00000000000E+00 -0.00000000000E+00 -0.33271679476E+02  0.33271679574E+02  0.25500000000E-02 0. -1.
   -5000001    1    1    2    0    0 -0.15059730166E+03 -0.34949529571E+02  0.13191323506E+04  0.13514848040E+04  0.25000000000E+03 0.  0.
    5000001    1    1    2    0    0  0.15059730166E+03  0.34949529571E+02  0.12464132944E+04  0.12806042001E+04  0.25000000000E+03 0.  0.
<mgrwt>
<rscale>  0 0.58810549E+03</rscale>
<asrwt>0</asrwt>
<pdfrwt beam="1">  1        2 0.39981821E+00 0.58810549E+03</pdfrwt>
<pdfrwt beam="2">  1       -2 0.51187179E-02 0.58810549E+03</pdfrwt>
<totfact> 0.64077546E+02</totfact>
</mgrwt>
</event>
<event>
 4    1  0.1805887E-005  0.8180125E+03  0.7818608E-02  0.9534305E-01
          2   -1    0    0  501    0  0.00000000000E+00  0.00000000000E+00  0.11315757042E+04  0.11315757042E+04  0.25500000000E-02 0.  1.
         -2   -1    0    0    0  501 -0.00000000000E+00 -0.00000000000E+00 -0.14783467783E+03  0.14783467785E+03  0.25500000000E-02 0. -1.
   -5000001    1    1    2    0    0  0.31288859686E+03 -0.79512477278E+02  0.52903504392E+03  0.66828106795E+03  0.25000000000E+03 0.  0.
    5000001    1    1    2    0    0 -0.31288859686E+03  0.79512477278E+02  0.45470598245E+03  0.61112931411E+03  0.25000000000E+03 0.  0.
<mgrwt>
<rscale>  0 0.81801254E+03</rscale>
<asrwt>0</asrwt>
<pdfrwt beam="1">  1        2 0.17408856E+00 0.81801254E+03</pdfrwt>
<pdfrwt beam="2">  1       -2 0.22743798E-01 0.81801254E+03</pdfrwt>
<totfact> 0.35573663E+02</totfact>
</mgrwt>
</event>
<event>
 4    1  0.1805887E-005  0.8750476E+03  0.7818608E-02  0.9457322E-01
         -2   -1    0    0    0  501 -0.00000000000E+00  0.00000000000E+00  0.18848889835E+03  0.18848889837E+03  0.25500000000E-02 0. -1.
          2   -1    0    0  501    0  0.00000000000E+00 -0.00000000000E+00 -0.10155881303E+04  0.10155881303E+04  0.25500000000E-02 0.  1.
   -5000001    1    1    2    0    0 -0.12809583321E+02 -0.23213394421E+03 -0.37022448967E+02  0.34339614909E+03  0.25000000000E+03 0.  0.
    5000001    1    1    2    0    0  0.12809583321E+02  0.23213394421E+03 -0.79007678297E+03  0.86068087958E+03  0.25000000000E+03 0.  0.
<mgrwt>
<rscale>  0 0.87504763E+03</rscale>
<asrwt>0</asrwt>
<pdfrwt beam="1">  1        2 0.15624432E+00 0.87504763E+03</pdfrwt>
<pdfrwt beam="2">  1       -2 0.28998293E-01 0.87504763E+03</pdfrwt>
<totfact> 0.26942325E+02</totfact>
</mgrwt>
</event>
<event>
 4    1  0.1805887E-005  0.7101347E+03  0.7818608E-02  0.9700056E-01
         -2   -1    0    0    0  501 -0.00000000000E+00  0.00000000000E+00  0.25218328703E+03  0.25218328705E+03  0.25500000000E-02 0. -1.
          2   -1    0    0  501    0  0.00000000000E+00 -0.00000000000E+00 -0.49992539009E+03  0.49992539010E+03  0.25500000000E-02 0.  1.
   -5000001    1    1    2    0    0 -0.97824332087E+02  0.22387028811E+03 -0.18988768620E+03  0.39779999902E+03  0.25000000000E+03 0.  0.
    5000001    1    1    2    0    0  0.97824332087E+02 -0.22387028811E+03 -0.57854416864E+02  0.35430867813E+03  0.25000000000E+03 0.  0.
<mgrwt>
<rscale>  0 0.71013471E+03</rscale>
<asrwt>0</asrwt>
<pdfrwt beam="1">  1        2 0.76911599E-01 0.71013471E+03</pdfrwt>
<pdfrwt beam="2">  1       -2 0.38797429E-01 0.71013471E+03</pdfrwt>
<totfact> 0.38962582E+02</totfact>
</mgrwt>
</event>
<event>
 4    1  0.1805887E-005  0.6884743E+03  0.7818608E-02  0.9737148E-01
         -2   -1    0    0    0  501 -0.00000000000E+00  0.00000000000E+00  0.26303102424E+03  0.26303102426E+03  0.25500000000E-02 0. -1.
          2   -1    0    0  501    0  0.00000000000E+00 -0.00000000000E+00 -0.45051418299E+03  0.45051418300E+03  0.25500000000E-02 0.  1.
   -5000001    1    1    2    0    0  0.20454608961E+03  0.67206771204E+02 -0.19551815473E+03  0.38351427835E+03  0.25000000000E+03 0.  0.
    5000001    1    1    2    0    0 -0.20454608961E+03 -0.67206771204E+02  0.80349959840E+01  0.33003092890E+03  0.25000000000E+03 0.  0.
<mgrwt>
<rscale>  0 0.68847428E+03</rscale>
<asrwt>0</asrwt>
<pdfrwt beam="1">  1        2 0.69309874E-01 0.68847428E+03</pdfrwt>
<pdfrwt beam="2">  1       -2 0.40466311E-01 0.68847428E+03</pdfrwt>
<totfact> 0.40481741E+02</totfact>
</mgrwt>
</event>
<event>
 4    1  0.1805887E-005  0.7472859E+03  0.7818608E-02  0.9639618E-01
          2   -1    0    0  501    0  0.00000000000E+00  0.00000000000E+00  0.18584578617E+04  0.18584578617E+04  0.25500000000E-02 0.  1.
         -2   -1    0    0    0  501 -0.00000000000E+00 -0.00000000000E+00 -0.75120906172E+02  0.75120906215E+02  0.25500000000E-02 0. -1.
   -5000001    1    1    2    0    0 -0.14785416456E+03 -0.22486695717E+03  0.71460097341E+03  0.80348027580E+03  0.25000000000E+03 0.  0.
    5000001    1    1    2    0    0  0.14785416456E+03  0.22486695717E+03  0.10687359821E+04  0.11300984921E+04  0.25000000000E+03 0.  0.
<mgrwt>
<rscale>  0 0.74728586E+03</rscale>
<asrwt>0</asrwt>
<pdfrwt beam="1">  1        2 0.28591661E+00 0.74728586E+03</pdfrwt>
<pdfrwt beam="2">  1       -2 0.11557062E-01 0.74728586E+03</pdfrwt>
<totfact> 0.44242536E+02</totfact>
</mgrwt>
</event>
<event>
 4    1  0.1805887E-005  0.8214377E+03  0.7818608E-02  0.9529495E-01
          2   -1    0    0  501    0  0.00000000000E+00  0.00000000000E+00  0.28961384410E+04  0.28961384410E+04  0.25500000000E-02 0.  1.
         -2   -1    0    0    0  501 -0.00000000000E+00 -0.00000000000E+00 -0.58246516178E+02  0.58246516234E+02  0.25500000000E-02 0. -1.
   -5000001    1    1    2    0    0 -0.10491079316E+03 -0.30794255172E+03  0.13511726685E+04  0.14120915232E+04  0.25000000000E+03 0.  0.
    5000001    1    1    2    0    0  0.10491079316E+03  0.30794255172E+03  0.14867192563E+04  0.15422934341E+04  0.25000000000E+03 0.  0.
<mgrwt>
<rscale>  0 0.82143770E+03</rscale>
<asrwt>0</asrwt>
<pdfrwt beam="1">  1        2 0.44555984E+00 0.82143770E+03</pdfrwt>
<pdfrwt beam="2">  1       -2 0.89610009E-02 0.82143770E+03</pdfrwt>
<totfact> 0.17280986E+02</totfact>
</mgrwt>
</event>
<event>
 4    1  0.1805887E-005  0.6789320E+03  0.7818608E-02  0.9753955E-01
          2   -1    0    0  501    0  0.00000000000E+00  0.00000000000E+00  0.11521146632E+04  0.11521146632E+04  0.25500000000E-02 0.  1.
         -2   -1    0    0    0  501 -0.00000000000E+00 -0.00000000000E+00 -0.10002230899E+03  0.10002230902E+03  0.25500000000E-02 0. -1.
   -5000001    1    1    2    0    0  0.16839600880E+02  0.97011876904E+02  0.14342125822E+03  0.30457270680E+03  0.25000000000E+03 0.  0.
    5000001    1    1    2    0    0 -0.16839600880E+02 -0.97011876904E+02  0.90867109598E+03  0.94756426541E+03  0.25000000000E+03 0.  0.
<mgrwt>
<rscale>  0 0.67893201E+03</rscale>
<asrwt>0</asrwt>
<pdfrwt beam="1">  1        2 0.17724841E+00 0.67893201E+03</pdfrwt>
<pdfrwt beam="2">  1       -2 0.15388048E-01 0.67893201E+03</pdfrwt>
<totfact> 0.68546585E+02</totfact>
</mgrwt>
</event>
<event>
 4    1  0.1805887E-005  0.7584985E+03  0.7818608E-02  0.9622111E-01
          2   -1    0    0  501    0  0.00000000000E+00  0.00000000000E+00  0.71847911928E+03  0.71847911929E+03  0.25500000000E-02 0. -1.
         -2   -1    0    0    0  501 -0.00000000000E+00 -0.00000000000E+00 -0.20018674430E+03  0.20018674432E+03  0.25500000000E-02 0.  1.
   -5000001    1    1    2    0    0  0.26558386314E+03 -0.98626792519E+02  0.21956571361E+03  0.43700244297E+03  0.25000000000E+03 0.  0.
    5000001    1    1    2    0    0 -0.26558386314E+03  0.98626792519E+02  0.29872666137E+03  0.48166342064E+03  0.25000000000E+03 0.  0.
<mgrwt>
<rscale>  0 0.75849851E+03</rscale>
<asrwt>0</asrwt>
<pdfrwt beam="1">  1        2 0.11053525E+00 0.75849851E+03</pdfrwt>
<pdfrwt beam="2">  1       -2 0.30797961E-01 0.75849851E+03</pdfrwt>
<totfact> 0.38902168E+02</totfact>
</mgrwt>
</event>
<event>
 4    1  0.1805887E-005  0.6600509E+03  0.7818608E-02  0.9788100E-01
         -2   -1    0    0    0  501 -0.00000000000E+00  0.00000000000E+00  0.21217291110E+03  0.21217291111E+03  0.25500000000E-02 0. -1.
          2   -1    0    0  501    0  0.00000000000E+00 -0.00000000000E+00 -0.51333977069E+03  0.51333977070E+03  0.25500000000E-02 0.  1.
   -5000001    1    1    2    0    0 -0.20074502128E+03 -0.20362609023E+02 -0.67571235233E+02  0.32829723003E+03  0.25000000000E+03 0.  0.
    5000001    1    1    2    0    0  0.20074502128E+03  0.20362609023E+02 -0.23359562436E+03  0.39721545178E+03  0.25000000000E+03 0.  0.
<mgrwt>
<rscale>  0 0.66005089E+03</rscale>
<asrwt>0</asrwt>
<pdfrwt beam="1">  1        2 0.78975349E-01 0.66005089E+03</pdfrwt>
<pdfrwt beam="2">  1       -2 0.32641987E-01 0.66005089E+03</pdfrwt>
<totfact> 0.52594150E+02</totfact>
</mgrwt>
</event>
<event>
 4    1  0.1805887E-005  0.1189222E+04  0.7818608E-02  0.9122343E-01
          2   -1    0    0  501    0  0.00000000000E+00  0.00000000000E+00  0.69235161311E+03  0.69235161312E+03  0.25500000000E-02 0.  1.
         -2   -1    0    0    0  501 -0.00000000000E+00 -0.00000000000E+00 -0.51066840213E+03  0.51066840213E+03  0.25500000000E-02 0. -1.
   -5000001    1    1    2    0    0 -0.50297544905E+02  0.46949125589E+03  0.35484901653E+03  0.64138109335E+03  0.25000000000E+03 0.  0.
    5000001    1    1    2    0    0  0.50297544905E+02 -0.46949125589E+03 -0.17316580555E+03  0.56163892190E+03  0.25000000000E+03 0.  0.
<mgrwt>
<rscale>  0 0.11892217E+04</rscale>
<asrwt>0</asrwt>
<pdfrwt beam="1">  1        2 0.10651563E+00 0.11892217E+04</pdfrwt>
<pdfrwt beam="2">  1       -2 0.78564370E-01 0.11892217E+04</pdfrwt>
<totfact> 0.59094259E+01</totfact>
</mgrwt>
</event>
<event>
 4    1  0.1805887E-005  0.6930506E+03  0.7818608E-02  0.9729191E-01
         -2   -1    0    0    0  501 -0.00000000000E+00  0.00000000000E+00  0.75732017229E+03  0.75732017229E+03  0.25500000000E-02 0. -1.
          2   -1    0    0  501    0  0.00000000000E+00 -0.00000000000E+00 -0.15855882604E+03  0.15855882606E+03  0.25500000000E-02 0.  1.
   -5000001    1    1    2    0    0 -0.87677708877E+02  0.20375814397E+03  0.42031969792E+03  0.53700410643E+03  0.25000000000E+03 0.  0.
    5000001    1    1    2    0    0  0.87677708877E+02 -0.20375814397E+03  0.17844164833E+03  0.37887489192E+03  0.25000000000E+03 0.  0.
<mgrwt>
<rscale>  0 0.69305064E+03</rscale>
<asrwt>0</asrwt>
<pdfrwt beam="1">  1        2 0.24393666E-01 0.69305064E+03</pdfrwt>
<pdfrwt beam="2">  1       -2 0.11651079E+00 0.69305064E+03</pdfrwt>
<totfact> 0.13017790E+02</totfact>
</mgrwt>
</event>
<event>
 4    1  0.1805887E-005  0.5482525E+03  0.7818608E-02  0.1001899E+00
         -2   -1    0    0    0  501 -0.00000000000E+00  0.00000000000E+00  0.42643765940E+02  0.42643766016E+02  0.25500000000E-02 0. -1.
          2   -1    0    0  501    0  0.00000000000E+00 -0.00000000000E+00 -0.17621616946E+04  0.17621616946E+04  0.25500000000E-02 0.  1.
   -5000001    1    1    2    0    0 -0.88693848864E+02 -0.58704692076E+02 -0.73959828657E+03  0.78792034191E+03  0.25000000000E+03 0.  0.
    5000001    1    1    2    0    0  0.88693848864E+02  0.58704692076E+02 -0.97991964213E+03  0.10168851188E+04  0.25000000000E+03 0.  0.
<mgrwt>
<rscale>  0 0.54825254E+03</rscale>
<asrwt>0</asrwt>
<pdfrwt beam="1">  1        2 0.27110174E+00 0.54825254E+03</pdfrwt>
<pdfrwt beam="2">  1       -2 0.65605808E-02 0.54825254E+03</pdfrwt>
<totfact> 0.12550831E+03</totfact>
</mgrwt>
</event>
<event>
 4    1  0.1805887E-005  0.6585764E+03  0.7818608E-02  0.9790818E-01
          2   -1    0    0  501    0  0.00000000000E+00  0.00000000000E+00  0.91956003977E+03  0.91956003977E+03  0.25500000000E-02 0.  1.
         -2   -1    0    0    0  501 -0.00000000000E+00 -0.00000000000E+00 -0.11791586262E+03  0.11791586264E+03  0.25500000000E-02 0. -1.
   -5000001    1    1    2    0    0 -0.18199436167E+03 -0.96456101851E+02  0.30755785344E+03  0.44667388605E+03  0.25000000000E+03 0.  0.
    5000001    1    1    2    0    0  0.18199436167E+03  0.96456101851E+02  0.49408632372E+03  0.59080201637E+03  0.25000000000E+03 0.  0.
<mgrwt>
<rscale>  0 0.65857639E+03</rscale>
<asrwt>0</asrwt>
<pdfrwt beam="1">  1        2 0.14147078E+00 0.65857639E+03</pdfrwt>
<pdfrwt beam="2">  1       -2 0.18140902E-01 0.65857639E+03</pdfrwt>
<totfact> 0.72447598E+02</totfact>
</mgrwt>
</event>
<event>
 4    1  0.1805887E-005  0.9402463E+03  0.7818608E-02  0.9376624E-01
         -2   -1    0    0    0  501 -0.00000000000E+00  0.00000000000E+00  0.14179788883E+03  0.14179788885E+03  0.25500000000E-02 0. -1.
          2   -1    0    0  501    0  0.00000000000E+00 -0.00000000000E+00 -0.15586676368E+04  0.15586676368E+04  0.25500000000E-02 0.  1.
   -5000001    1    1    2    0    0  0.12917480292E+03  0.34923079176E+03 -0.96335132097E+03  0.10626354235E+04  0.25000000000E+03 0.  0.
    5000001    1    1    2    0    0 -0.12917480292E+03 -0.34923079176E+03 -0.45351842702E+03  0.63783010220E+03  0.25000000000E+03 0.  0.
<mgrwt>
<rscale>  0 0.94024631E+03</rscale>
<asrwt>0</asrwt>
<pdfrwt beam="1">  1        2 0.23979501E+00 0.94024631E+03</pdfrwt>
<pdfrwt beam="2">  1       -2 0.21815061E-01 0.94024631E+03</pdfrwt>
<totfact> 0.21583755E+02</totfact>
</mgrwt>
</event>
<event>
 4    1  0.1805887E-005  0.1113139E+04  0.7818608E-02  0.9192479E-01
         -2   -1    0    0    0  501 -0.00000000000E+00  0.00000000000E+00  0.22753489617E+03  0.22753489619E+03  0.25500000000E-02 0. -1.
          2   -1    0    0  501    0  0.00000000000E+00 -0.00000000000E+00 -0.13614166582E+04  0.13614166582E+04  0.25500000000E-02 0.  1.
   -5000001    1    1    2    0    0 -0.44154298125E+03 -0.18391938044E+03 -0.76100728299E+03  0.93296228624E+03  0.25000000000E+03 0.  0.
    5000001    1    1    2    0    0  0.44154298125E+03  0.18391938044E+03 -0.37287447902E+03  0.65598926813E+03  0.25000000000E+03 0.  0.
<mgrwt>
<rscale>  0 0.11131393E+04</rscale>
<asrwt>0</asrwt>
<pdfrwt beam="1">  1        2 0.20944871E+00 0.11131393E+04</pdfrwt>
<pdfrwt beam="2">  1       -2 0.35005369E-01 0.11131393E+04</pdfrwt>
<totfact> 0.11560552E+02</totfact>
</mgrwt>
</event>
<event>
 4    1  0.1805887E-005  0.1143680E+04  0.7818608E-02  0.9163634E-01
          2   -1    0    0  501    0  0.00000000000E+00  0.00000000000E+00  0.84465408741E+03  0.84465408742E+03  0.25500000000E-02 0.  1.
         -2   -1    0    0    0  501 -0.00000000000E+00 -0.00000000000E+00 -0.38714157355E+03  0.38714157356E+03  0.25500000000E-02 0. -1.
   -5000001    1    1    2    0    0 -0.35803467456E+03  0.28626073284E+03 -0.22374970828E+02  0.52262287997E+03  0.25000000000E+03 0.  0.
    5000001    1    1    2    0    0  0.35803467456E+03 -0.28626073284E+03  0.47988748469E+03  0.70917278100E+03  0.25000000000E+03 0.  0.
<mgrwt>
<rscale>  0 0.11436795E+04</rscale>
<asrwt>0</asrwt>
<pdfrwt beam="1">  1        2 0.12994678E+00 0.11436795E+04</pdfrwt>
<pdfrwt beam="2">  1       -2 0.59560243E-01 0.11436795E+04</pdfrwt>
<totfact> 0.83415544E+01</totfact>
</mgrwt>
</event>
<event>
 4    1  0.1805887E-005  0.1497243E+04  0.7818608E-02  0.8886288E-01
          2   -1    0    0  501    0  0.00000000000E+00  0.00000000000E+00  0.17089046411E+04  0.17089046411E+04  0.25500000000E-02 0. -1.
         -2   -1    0    0    0  501 -0.00000000000E+00 -0.00000000000E+00 -0.32794955953E+03  0.32794955954E+03  0.25500000000E-02 0.  1.
   -5000001    1    1    2    0    0  0.51583120901E+03  0.47900303700E+03  0.62370991119E+03  0.97315969859E+03  0.25000000000E+03 0.  0.
    5000001    1    1    2    0    0 -0.51583120901E+03 -0.47900303700E+03  0.75724517038E+03  0.10636945021E+04  0.25000000000E+03 0.  0.
<mgrwt>
<rscale>  0 0.14972435E+04</rscale>
<asrwt>0</asrwt>
<pdfrwt beam="1">  1        2 0.26290841E+00 0.14972435E+04</pdfrwt>
<pdfrwt beam="2">  1       -2 0.50453778E-01 0.14972435E+04</pdfrwt>
<totfact> 0.34804354E+01</totfact>
</mgrwt>
</event>
<event>
 4    1  0.1805887E-005  0.6011087E+03  0.7818608E-02  0.9903108E-01
         -2   -1    0    0    0  501 -0.00000000000E+00  0.00000000000E+00  0.93900129087E+02  0.93900129122E+02  0.25500000000E-02 0. -1.
          2   -1    0    0  501    0  0.00000000000E+00 -0.00000000000E+00 -0.96201073532E+03  0.96201073532E+03  0.25500000000E-02 0.  1.
   -5000001    1    1    2    0    0  0.15854914664E+03 -0.44122657563E+02 -0.48210709603E+03  0.56746091747E+03  0.25000000000E+03 0.  0.
    5000001    1    1    2    0    0 -0.15854914664E+03  0.44122657563E+02 -0.38600351020E+03  0.48844994697E+03  0.25000000000E+03 0.  0.
<mgrwt>
<rscale>  0 0.60110875E+03</rscale>
<asrwt>0</asrwt>
<pdfrwt beam="1">  1        2 0.14800164E+00 0.60110875E+03</pdfrwt>
<pdfrwt beam="2">  1       -2 0.14446174E-01 0.60110875E+03</pdfrwt>
<totfact> 0.10027611E+03</totfact>
</mgrwt>
</event>
<event>
 4    1  0.1805887E-005  0.6199178E+03  0.7818608E-02  0.9864923E-01
         -2   -1    0    0    0  501 -0.00000000000E+00  0.00000000000E+00  0.39005771078E+02  0.39005771162E+02  0.25500000000E-02 0. -1.
          2   -1    0    0  501    0  0.00000000000E+00 -0.00000000000E+00 -0.24630843869E+04  0.24630843869E+04  0.25500000000E-02 0.  1.
   -5000001    1    1    2    0    0  0.14166699785E+03 -0.89701409449E+02 -0.15102412708E+04  0.15399495372E+04  0.25000000000E+03 0.  0.
    5000001    1    1    2    0    0 -0.14166699785E+03  0.89701409449E+02 -0.91383734509E+03  0.96214062091E+03  0.25000000000E+03 0.  0.
<mgrwt>
<rscale>  0 0.61991776E+03</rscale>
<asrwt>0</asrwt>
<pdfrwt beam="1">  1        2 0.37893594E+00 0.61991776E+03</pdfrwt>
<pdfrwt beam="2">  1       -2 0.60008898E-02 0.61991776E+03</pdfrwt>
<totfact> 0.59495394E+02</totfact>
</mgrwt>
</event>
<event>
 4    1  0.1805887E-005  0.7785610E+03  0.7818608E-02  0.9591578E-01
         -2   -1    0    0    0  501 -0.00000000000E+00  0.00000000000E+00  0.68154532150E+02  0.68154532198E+02  0.25500000000E-02 0. -1.
          2   -1    0    0  501    0  0.00000000000E+00 -0.00000000000E+00 -0.22234664035E+04  0.22234664035E+04  0.25500000000E-02 0.  1.
   -5000001    1    1    2    0    0 -0.21279473747E+03 -0.13004502139E+03 -0.15599256165E+04  0.15993940218E+04  0.25000000000E+03 0.  0.
    5000001    1    1    2    0    0  0.21279473747E+03  0.13004502139E+03 -0.59538625481E+03  0.69222691388E+03  0.25000000000E+03 0.  0.
<mgrwt>
<rscale>  0 0.77856101E+03</rscale>
<asrwt>0</asrwt>
<pdfrwt beam="1">  1        2 0.34207170E+00 0.77856101E+03</pdfrwt>
<pdfrwt beam="2">  1       -2 0.10485314E-01 0.77856101E+03</pdfrwt>
<totfact> 0.32688942E+02</totfact>
</mgrwt>
</event>
<event>
 4    1  0.1805887E-005  0.5737823E+03  0.7818608E-02  0.9961344E-01
          2   -1    0    0  501    0  0.00000000000E+00  0.00000000000E+00  0.14356756354E+04  0.14356756354E+04  0.25500000000E-02 0.  1.
         -2   -1    0    0    0  501 -0.00000000000E+00 -0.00000000000E+00 -0.57329477209E+02  0.57329477265E+02  0.25500000000E-02 0. -1.
   -5000001    1    1    2    0    0  0.55400745524E+02  0.12936730831E+03  0.69224150384E+03  0.74933533394E+03  0.25000000000E+03 0.  0.
    5000001    1    1    2    0    0 -0.55400745524E+02 -0.12936730831E+03  0.68610465439E+03  0.74366977876E+03  0.25000000000E+03 0.  0.
<mgrwt>
<rscale>  0 0.57378231E+03</rscale>
<asrwt>0</asrwt>
<pdfrwt beam="1">  1        2 0.22087317E+00 0.57378231E+03</pdfrwt>
<pdfrwt beam="2">  1       -2 0.88199199E-02 0.57378231E+03</pdfrwt>
<totfact> 0.11819193E+03</totfact>
</mgrwt>
</event>
<event>
 4    1  0.1805887E-005  0.1854698E+04  0.7818608E-02  0.8677741E-01
         -2   -1    0    0    0  501 -0.00000000000E+00  0.00000000000E+00  0.57769327141E+03  0.57769327142E+03  0.25500000000E-02 0. -1.
          2   -1    0    0  501    0  0.00000000000E+00 -0.00000000000E+00 -0.14886377309E+04  0.14886377309E+04  0.25500000000E-02 0.  1.
   -5000001    1    1    2    0    0 -0.59874122334E+03 -0.51256561106E+03  0.12268716950E+02  0.82696135314E+03  0.25000000000E+03 0.  0.
    5000001    1    1    2    0    0  0.59874122334E+03  0.51256561106E+03 -0.92321317648E+03  0.12393696492E+04  0.25000000000E+03 0.  0.
<mgrwt>
<rscale>  0 0.18546978E+04</rscale>
<asrwt>0</asrwt>
<pdfrwt beam="1">  1        2 0.22902119E+00 0.18546978E+04</pdfrwt>
<pdfrwt beam="2">  1       -2 0.88875888E-01 0.18546978E+04</pdfrwt>
<totfact> 0.13174447E+01</totfact>
</mgrwt>
</event>
<event>
 4    1  0.1805887E-005  0.5314477E+03  0.7818608E-02  0.1005882E+00
          2   -1    0    0  501    0  0.00000000000E+00  0.00000000000E+00  0.10355449021E+04  0.10355449021E+04  0.25500000000E-02 0.  1.
         -2   -1    0    0    0  501 -0.00000000000E+00 -0.00000000000E+00 -0.68185523191E+02  0.68185523239E+02  0.25500000000E-02 0. -1.
   -5000001    1    1    2    0    0  0.11832013389E+02  0.11289549095E+02  0.29976850470E+03  0.39067711332E+03  0.25000000000E+03 0.  0.
    5000001    1    1    2    0    0 -0.11832013389E+02 -0.11289549095E+02  0.66759087417E+03  0.71305331199E+03  0.25000000000E+03 0.  0.
<mgrwt>
<rscale>  0 0.53144772E+03</rscale>
<asrwt>0</asrwt>
<pdfrwt beam="1">  1        2 0.15931461E+00 0.53144772E+03</pdfrwt>
<pdfrwt beam="2">  1       -2 0.10490080E-01 0.53144772E+03</pdfrwt>
<totfact> 0.15298410E+03</totfact>
</mgrwt>
</event>
<event>
 4    1  0.1805887E-005  0.6590367E+03  0.7818608E-02  0.9789969E-01
          2   -1    0    0  501    0  0.00000000000E+00  0.00000000000E+00  0.56680664649E+03  0.56680664649E+03  0.25500000000E-02 0.  1.
         -2   -1    0    0    0  501 -0.00000000000E+00 -0.00000000000E+00 -0.19156858917E+03  0.19156858919E+03  0.25500000000E-02 0. -1.
   -5000001    1    1    2    0    0  0.65286177916E+02  0.18803217896E+03  0.95101504334E+02  0.33341067991E+03  0.25000000000E+03 0.  0.
    5000001    1    1    2    0    0 -0.65286177916E+02 -0.18803217896E+03  0.28013655298E+03  0.42496455577E+03  0.25000000000E+03 0.  0.
<mgrwt>
<rscale>  0 0.65903672E+03</rscale>
<asrwt>0</asrwt>
<pdfrwt beam="1">  1        2 0.87201022E-01 0.65903672E+03</pdfrwt>
<pdfrwt beam="2">  1       -2 0.29472091E-01 0.65903672E+03</pdfrwt>
<totfact> 0.56631109E+02</totfact>
</mgrwt>
</event>
<event>
 4    1  0.1805887E-005  0.1098122E+04  0.7818608E-02  0.9207024E-01
          2   -1    0    0  501    0  0.00000000000E+00  0.00000000000E+00  0.19633120272E+04  0.19633120272E+04  0.25500000000E-02 0.  1.
         -2   -1    0    0    0  501 -0.00000000000E+00 -0.00000000000E+00 -0.15355082627E+03  0.15355082629E+03  0.25500000000E-02 0. -1.
   -5000001    1    1    2    0    0  0.46742215760E+03  0.14304002343E+03  0.91437588472E+03  0.10665491926E+04  0.25000000000E+03 0.  0.
    5000001    1    1    2    0    0 -0.46742215760E+03 -0.14304002343E+03  0.89538531617E+03  0.10503136608E+04  0.25000000000E+03 0.  0.
<mgrwt>
<rscale>  0 0.10981224E+04</rscale>
<asrwt>0</asrwt>
<pdfrwt beam="1">  1        2 0.30204797E+00 0.10981224E+04</pdfrwt>
<pdfrwt beam="2">  1       -2 0.23623207E-01 0.10981224E+04</pdfrwt>
<totfact> 0.11072074E+02</totfact>
</mgrwt>
</event>
<event>
 4    1  0.1805887E-005  0.5840314E+03  0.7818608E-02  0.9939101E-01
         -2   -1    0    0    0  501 -0.00000000000E+00  0.00000000000E+00  0.13112376913E+03  0.13112376916E+03  0.25500000000E-02 0. -1.
          2   -1    0    0  501    0  0.00000000000E+00 -0.00000000000E+00 -0.65032570608E+03  0.65032570609E+03  0.25500000000E-02 0.  1.
   -5000001    1    1    2    0    0 -0.37215744129E+02  0.11519201265E+03 -0.38016411436E+03  0.47082795715E+03  0.25000000000E+03 0.  0.
    5000001    1    1    2    0    0  0.37215744129E+02 -0.11519201265E+03 -0.13903782259E+03  0.31062151809E+03  0.25000000000E+03 0.  0.
<mgrwt>
<rscale>  0 0.58403136E+03</rscale>
<asrwt>0</asrwt>
<pdfrwt beam="1">  1        2 0.10005011E+00 0.58403136E+03</pdfrwt>
<pdfrwt beam="2">  1       -2 0.20172888E-01 0.58403136E+03</pdfrwt>
<totfact> 0.94845188E+02</totfact>
</mgrwt>
</event>
<event>
 4    1  0.1805887E-005  0.9540028E+03  0.7818608E-02  0.9360484E-01
          2   -1    0    0  501    0  0.00000000000E+00  0.00000000000E+00  0.49257931316E+03  0.49257931316E+03  0.25500000000E-02 0.  1.
         -2   -1    0    0    0  501 -0.00000000000E+00 -0.00000000000E+00 -0.46191617466E+03  0.46191617466E+03  0.25500000000E-02 0. -1.
   -5000001    1    1    2    0    0 -0.29696844257E+03 -0.24315278276E+03 -0.11784171371E+03  0.47296955625E+03  0.25000000000E+03 0.  0.
    5000001    1    1    2    0    0  0.29696844257E+03  0.24315278276E+03  0.14850485221E+03  0.48152593158E+03  0.25000000000E+03 0.  0.
<mgrwt>
<rscale>  0 0.95400283E+03</rscale>
<asrwt>0</asrwt>
<pdfrwt beam="1">  1        2 0.75781433E-01 0.95400283E+03</pdfrwt>
<pdfrwt beam="2">  1       -2 0.71064027E-01 0.95400283E+03</pdfrwt>
<totfact> 0.11286768E+02</totfact>
</mgrwt>
</event>
<event>
 4    1  0.1805887E-005  0.1139796E+04  0.7818608E-02  0.9167249E-01
          2   -1    0    0  501    0  0.00000000000E+00  0.00000000000E+00  0.28255798153E+04  0.28255798153E+04  0.25500000000E-02 0.  1.
         -2   -1    0    0    0  501 -0.00000000000E+00 -0.00000000000E+00 -0.11494419237E+03  0.11494419240E+03  0.25500000000E-02 0. -1.
   -5000001    1    1    2    0    0  0.28142470960E+03  0.40770703763E+03  0.10203411531E+04  0.11614736176E+04  0.25000000000E+03 0.  0.
    5000001    1    1    2    0    0 -0.28142470960E+03 -0.40770703763E+03  0.16902944698E+04  0.17790503901E+04  0.25000000000E+03 0.  0.
<mgrwt>
<rscale>  0 0.11397965E+04</rscale>
<asrwt>0</asrwt>
<pdfrwt beam="1">  1        2 0.43470459E+00 0.11397965E+04</pdfrwt>
<pdfrwt beam="2">  1       -2 0.17683722E-01 0.11397965E+04</pdfrwt>
<totfact> 0.59339527E+01</totfact>
</mgrwt>
</event>
<event>
 4    1  0.1805887E-005  0.7108945E+03  0.7818608E-02  0.9698780E-01
          2   -1    0    0  501    0  0.00000000000E+00  0.00000000000E+00  0.55570245284E+03  0.55570245284E+03  0.25500000000E-02 0.  1.
         -2   -1    0    0    0  501 -0.00000000000E+00 -0.00000000000E+00 -0.22735683022E+03  0.22735683023E+03  0.25500000000E-02 0. -1.
   -5000001    1    1    2    0    0  0.21127257118E+03  0.13667769677E+03  0.18943220637E+03  0.40212119185E+03  0.25000000000E+03 0.  0.
    5000001    1    1    2    0    0 -0.21127257118E+03 -0.13667769677E+03  0.13891341625E+03  0.38093809122E+03  0.25000000000E+03 0.  0.
<mgrwt>
<rscale>  0 0.71089450E+03</rscale>
<asrwt>0</asrwt>
<pdfrwt beam="1">  1        2 0.85492685E-01 0.71089450E+03</pdfrwt>
<pdfrwt beam="2">  1       -2 0.34977974E-01 0.71089450E+03</pdfrwt>
<totfact> 0.41999779E+02</totfact>
</mgrwt>
</event>
<event>
 4    1  0.1805887E-005  0.5656036E+03  0.7818608E-02  0.9979455E-01
         -2   -1    0    0    0  501 -0.00000000000E+00  0.00000000000E+00  0.85503940485E+02  0.85503940523E+02  0.25500000000E-02 0. -1.
          2   -1    0    0  501    0  0.00000000000E+00 -0.00000000000E+00 -0.93535860551E+03  0.93535860551E+03  0.25500000000E-02 0.  1.
   -5000001    1    1    2    0    0 -0.87198912303E+02 -0.60227874591E+02 -0.56756990143E+03  0.62917933866E+03  0.25000000000E+03 0.  0.
    5000001    1    1    2    0    0  0.87198912303E+02  0.60227874591E+02 -0.28228476360E+03  0.39168320738E+03  0.25000000000E+03 0.  0.
<mgrwt>
<rscale>  0 0.56560356E+03</rscale>
<asrwt>0</asrwt>
<pdfrwt beam="1">  1        2 0.14390132E+00 0.56560356E+03</pdfrwt>
<pdfrwt beam="2">  1       -2 0.13154453E-01 0.56560356E+03</pdfrwt>
<totfact> 0.12210779E+03</totfact>
</mgrwt>
</event>
<event>
 4    1  0.1805887E-005  0.6308881E+03  0.7818608E-02  0.9843317E-01
          2   -1    0    0  501    0  0.00000000000E+00  0.00000000000E+00  0.15486553135E+03  0.15486553137E+03  0.25500000000E-02 0.  1.
         -2   -1    0    0    0  501 -0.00000000000E+00 -0.00000000000E+00 -0.64252486601E+03  0.64252486602E+03  0.25500000000E-02 0. -1.
   -5000001    1    1    2    0    0 -0.14046496304E+03  0.12467654704E+03 -0.19125454335E+03  0.36654187697E+03  0.25000000000E+03 0.  0.
    5000001    1    1    2    0    0  0.14046496304E+03 -0.12467654704E+03 -0.29640479131E+03  0.43084852041E+03  0.25000000000E+03 0.  0.
<mgrwt>
<rscale>  0 0.63088812E+03</rscale>
<asrwt>0</asrwt>
<pdfrwt beam="1">  1        2 0.23825467E-01 0.63088812E+03</pdfrwt>
<pdfrwt beam="2">  1       -2 0.98849978E-01 0.63088812E+03</pdfrwt>
<totfact> 0.19896529E+02</totfact>
</mgrwt>
</event>
<event>
 4    1  0.1805887E-005  0.6602418E+03  0.7818608E-02  0.9787749E-01
          2   -1    0    0  501    0  0.00000000000E+00  0.00000000000E+00  0.30740314995E+02  0.30740315100E+02  0.25500000000E-02 0.  1.
         -2   -1    0    0    0  501 -0.00000000000E+00 -0.00000000000E+00 -0.35451754074E+04  0.35451754074E+04  0.25500000000E-02 0. -1.
   -5000001    1    1    2    0    0  0.98281242963E+02 -0.71546261239E+02 -0.27215478157E+04  0.27357084244E+04  0.25000000000E+03 0.  0.
    5000001    1    1    2    0    0 -0.98281242963E+02  0.71546261239E+02 -0.79288727672E+03  0.84020729811E+03  0.25000000000E+03 0.  0.
<mgrwt>
<rscale>  0 0.66024180E+03</rscale>
<asrwt>0</asrwt>
<pdfrwt beam="1">  1        2 0.47292820E-02 0.66024180E+03</pdfrwt>
<pdfrwt beam="2">  1       -2 0.54541128E+00 0.66024180E+03</pdfrwt>
<totfact> 0.16973954E+00</totfact>
</mgrwt>
</event>
<event>
 4    1  0.1805887E-005  0.1543567E+04  0.7818608E-02  0.8855988E-01
          2   -1    0    0  501    0  0.00000000000E+00  0.00000000000E+00  0.64893699686E+03  0.64893699687E+03  0.25500000000E-02 0.  1.
         -2   -1    0    0    0  501 -0.00000000000E+00 -0.00000000000E+00 -0.91788480082E+03  0.91788480082E+03  0.25500000000E-02 0. -1.
   -5000001    1    1    2    0    0 -0.43833998712E+03 -0.35671178572E+03  0.33483814526E+03  0.70285263455E+03  0.25000000000E+03 0.  0.
    5000001    1    1    2    0    0  0.43833998712E+03  0.35671178572E+03 -0.60378594922E+03  0.86396916314E+03  0.25000000000E+03 0.  0.
<mgrwt>
<rscale>  0 0.15435665E+04</rscale>
<asrwt>0</asrwt>
<pdfrwt beam="1">  1        2 0.99836461E-01 0.15435665E+04</pdfrwt>
<pdfrwt beam="2">  1       -2 0.14121305E+00 0.15435665E+04</pdfrwt>
<totfact> 0.15229142E+01</totfact>
</mgrwt>
</event>
<event>
 4    1  0.1805887E-005  0.7358573E+03  0.7818608E-02  0.9657803E-01
         -2   -1    0    0    0  501 -0.00000000000E+00  0.00000000000E+00  0.40326075142E+03  0.40326075143E+03  0.25500000000E-02 0. -1.
          2   -1    0    0  501    0  0.00000000000E+00 -0.00000000000E+00 -0.33569219609E+03  0.33569219610E+03  0.25500000000E-02 0.  1.
   -5000001    1    1    2    0    0 -0.17431116346E+02  0.19446502826E+03 -0.15341614267E+03  0.35235919722E+03  0.25000000000E+03 0.  0.
    5000001    1    1    2    0    0  0.17431116346E+02 -0.19446502826E+03  0.22098469800E+03  0.38659375031E+03  0.25000000000E+03 0.  0.
<mgrwt>
<rscale>  0 0.73585729E+03</rscale>
<asrwt>0</asrwt>
<pdfrwt beam="1">  1        2 0.51644953E-01 0.73585729E+03</pdfrwt>
<pdfrwt beam="2">  1       -2 0.62040116E-01 0.73585729E+03</pdfrwt>
<totfact> 0.23575605E+02</totfact>
</mgrwt>
</event>
<event>
 4    1  0.1805887E-005  0.5435855E+03  0.7818608E-02  0.1002990E+00
          2   -1    0    0  501    0  0.00000000000E+00  0.00000000000E+00  0.19280524752E+04  0.19280524752E+04  0.25500000000E-02 0.  1.
         -2   -1    0    0    0  501 -0.00000000000E+00 -0.00000000000E+00 -0.38313939989E+02  0.38313940074E+02  0.25500000000E-02 0. -1.
   -5000001    1    1    2    0    0  0.24107583594E+02 -0.98321142438E+02  0.82364238788E+03  0.86668045192E+03  0.25000000000E+03 0.  0.
    5000001    1    1    2    0    0 -0.24107583594E+02  0.98321142438E+02  0.10660961473E+04  0.10996859634E+04  0.25000000000E+03 0.  0.
<mgrwt>
<rscale>  0 0.54358546E+03</rscale>
<asrwt>0</asrwt>
<pdfrwt beam="1">  1        2 0.29662344E+00 0.54358546E+03</pdfrwt>
<pdfrwt beam="2">  1       -2 0.58944527E-02 0.54358546E+03</pdfrwt>
<totfact> 0.12082874E+03</totfact>
</mgrwt>
</event>
<event>
 4    1  0.1805887E-005  0.7801777E+03  0.7818608E-02  0.9589161E-01
          2   -1    0    0  501    0  0.00000000000E+00  0.00000000000E+00  0.28552392338E+04  0.28552392338E+04  0.25500000000E-02 0.  1.
         -2   -1    0    0    0  501 -0.00000000000E+00 -0.00000000000E+00 -0.53294770325E+02  0.53294770386E+02  0.25500000000E-02 0. -1.
   -5000001    1    1    2    0    0 -0.29754888901E+03  0.16722630996E+02  0.15099389374E+04  0.15592403863E+04  0.25000000000E+03 0.  0.
    5000001    1    1    2    0    0  0.29754888901E+03 -0.16722630996E+02  0.12920055261E+04  0.13492936179E+04  0.25000000000E+03 0.  0.
<mgrwt>
<rscale>  0 0.78017772E+03</rscale>
<asrwt>0</asrwt>
<pdfrwt beam="1">  1        2 0.43926763E+00 0.78017772E+03</pdfrwt>
<pdfrwt beam="2">  1       -2 0.81991944E-02 0.78017772E+03</pdfrwt>
<totfact> 0.21188616E+02</totfact>
</mgrwt>
</event>
<event>
 4    1  0.1805887E-005  0.9483379E+03  0.7818608E-02  0.9367095E-01
          2   -1    0    0  501    0  0.00000000000E+00  0.00000000000E+00  0.27750125767E+04  0.27750125767E+04  0.25500000000E-02 0.  1.
         -2   -1    0    0    0  501 -0.00000000000E+00 -0.00000000000E+00 -0.81021689837E+02  0.81021689877E+02  0.25500000000E-02 0. -1.
   -5000001    1    1    2    0    0 -0.29531763313E+03 -0.26061119812E+03  0.10913532274E+04  0.11868793402E+04  0.25000000000E+03 0.  0.
    5000001    1    1    2    0    0  0.29531763313E+03  0.26061119812E+03  0.16026376594E+04  0.16691549264E+04  0.25000000000E+03 0.  0.
<mgrwt>
<rscale>  0 0.94833793E+03</rscale>
<asrwt>0</asrwt>
<pdfrwt beam="1">  1        2 0.42692507E+00 0.94833793E+03</pdfrwt>
<pdfrwt beam="2">  1       -2 0.12464874E-01 0.94833793E+03</pdfrwt>
<totfact> 0.11729496E+02</totfact>
</mgrwt>
</event>
<event>
 4    1  0.1805887E-005  0.1313042E+04  0.7818608E-02  0.9019287E-01
          2   -1    0    0  501    0  0.00000000000E+00  0.00000000000E+00  0.14503502952E+04  0.14503502952E+04  0.25500000000E-02 0.  1.
         -2   -1    0    0    0  501 -0.00000000000E+00 -0.00000000000E+00 -0.29718305051E+03  0.29718305052E+03  0.25500000000E-02 0. -1.
   -5000001    1    1    2    0    0 -0.50269783059E+03  0.31245996842E+03  0.75604953588E+03  0.99219314725E+03  0.25000000000E+03 0.  0.
    5000001    1    1    2    0    0  0.50269783059E+03 -0.31245996842E+03  0.39711770876E+03  0.75534019842E+03  0.25000000000E+03 0.  0.
<mgrwt>
<rscale>  0 0.13130415E+04</rscale>
<asrwt>0</asrwt>
<pdfrwt beam="1">  1        2 0.22313081E+00 0.13130415E+04</pdfrwt>
<pdfrwt beam="2">  1       -2 0.45720469E-01 0.13130415E+04</pdfrwt>
<totfact> 0.60146488E+01</totfact>
</mgrwt>
</event>
<event>
 4    1  0.1805887E-005  0.5826557E+03  0.7818608E-02  0.9942058E-01
          2   -1    0    0  501    0  0.00000000000E+00  0.00000000000E+00  0.52474884773E+03  0.52474884774E+03  0.25500000000E-02 0.  1.
         -2   -1    0    0    0  501 -0.00000000000E+00 -0.00000000000E+00 -0.16173815454E+03  0.16173815456E+03  0.25500000000E-02 0. -1.
   -5000001    1    1    2    0    0 -0.85010130547E+01  0.11252856788E+03  0.65843409234E+02  0.28208208088E+03  0.25000000000E+03 0.  0.
    5000001    1    1    2    0    0  0.85010130547E+01 -0.11252856788E+03  0.29716728396E+03  0.40440492142E+03  0.25000000000E+03 0.  0.
<mgrwt>
<rscale>  0 0.58265568E+03</rscale>
<asrwt>0</asrwt>
<pdfrwt beam="1">  1        2 0.80730593E-01 0.58265568E+03</pdfrwt>
<pdfrwt beam="2">  1       -2 0.24882793E-01 0.58265568E+03</pdfrwt>
<totfact> 0.84489448E+02</totfact>
</mgrwt>
</event>
<event>
 4    1  0.1805887E-005  0.1165423E+04  0.7818608E-02  0.9143672E-01
         -2   -1    0    0    0  501 -0.00000000000E+00  0.00000000000E+00  0.21322245516E+03  0.21322245518E+03  0.25500000000E-02 0. -1.
          2   -1    0    0  501    0  0.00000000000E+00 -0.00000000000E+00 -0.15924814318E+04  0.15924814318E+04  0.25500000000E-02 0.  1.
   -5000001    1    1    2    0    0 -0.84010726523E+02  0.42057321022E+03 -0.11624196631E+04  0.12639854036E+04  0.25000000000E+03 0.  0.
    5000001    1    1    2    0    0  0.84010726523E+02 -0.42057321022E+03 -0.21683931348E+03  0.54171848334E+03  0.25000000000E+03 0.  0.
<mgrwt>
<rscale>  0 0.11654232E+04</rscale>
<asrwt>0</asrwt>
<pdfrwt beam="1">  1        2 0.24499714E+00 0.11654232E+04</pdfrwt>
<pdfrwt beam="2">  1       -2 0.32803456E-01 0.11654232E+04</pdfrwt>
<totfact> 0.96478249E+01</totfact>
</mgrwt>
</event>
<event>
 4    1  0.1805887E-005  0.5997057E+03  0.7818608E-02  0.9906017E-01
         -2   -1    0    0    0  501 -0.00000000000E+00  0.00000000000E+00  0.65448522969E+02  0.65448523019E+02  0.25500000000E-02 0. -1.
          2   -1    0    0  501    0  0.00000000000E+00 -0.00000000000E+00 -0.13737779935E+04  0.13737779935E+04  0.25500000000E-02 0.  1.
   -5000001    1    1    2    0    0 -0.11042944376E+03  0.10153209736E+03 -0.48603016298E+03  0.56677045457E+03  0.25000000000E+03 0.  0.
    5000001    1    1    2    0    0  0.11042944376E+03 -0.10153209736E+03 -0.82229930756E+03  0.87245606197E+03  0.25000000000E+03 0.  0.
<mgrwt>
<rscale>  0 0.59970573E+03</rscale>
<asrwt>0</asrwt>
<pdfrwt beam="1">  1        2 0.21135044E+00 0.59970573E+03</pdfrwt>
<pdfrwt beam="2">  1       -2 0.10069005E-01 0.59970573E+03</pdfrwt>
<totfact> 0.10327269E+03</totfact>
</mgrwt>
</event>
<event>
 4    1  0.1805887E-005  0.9075279E+03  0.7818608E-02  0.9416220E-01
          2   -1    0    0  501    0  0.00000000000E+00  0.00000000000E+00  0.68362829356E+03  0.68362829357E+03  0.25500000000E-02 0.  1.
         -2   -1    0    0    0  501 -0.00000000000E+00 -0.00000000000E+00 -0.30118958690E+03  0.30118958691E+03  0.25500000000E-02 0. -1.
   -5000001    1    1    2    0    0 -0.19152346118E+03 -0.11958480645E+03  0.52111670538E+03  0.62051944590E+03  0.25000000000E+03 0.  0.
    5000001    1    1    2    0    0  0.19152346118E+03  0.11958480645E+03 -0.13867799871E+03  0.36429843459E+03  0.25000000000E+03 0.  0.
<mgrwt>
<rscale>  0 0.90752790E+03</rscale>
<asrwt>0</asrwt>
<pdfrwt beam="1">  1        2 0.10517358E+00 0.90752790E+03</pdfrwt>
<pdfrwt beam="2">  1       -2 0.46336860E-01 0.90752790E+03</pdfrwt>
<totfact> 0.18691574E+02</totfact>
</mgrwt>
</event>
<event>
 4    1  0.1805887E-005  0.7585703E+03  0.7818608E-02  0.9622000E-01
          2   -1    0    0  501    0  0.00000000000E+00  0.00000000000E+00  0.20291855674E+03  0.20291855676E+03  0.25500000000E-02 0.  1.
         -2   -1    0    0    0  501 -0.00000000000E+00 -0.00000000000E+00 -0.70894074360E+03  0.70894074361E+03  0.25500000000E-02 0. -1.
   -5000001    1    1    2    0    0 -0.21278614487E+02  0.11623910859E+03 -0.56507183155E+03  0.62910292052E+03  0.25000000000E+03 0.  0.
    5000001    1    1    2    0    0  0.21278614487E+02 -0.11623910859E+03  0.59049644689E+02  0.28275637984E+03  0.25000000000E+03 0.  0.
<mgrwt>
<rscale>  0 0.75857032E+03</rscale>
<asrwt>0</asrwt>
<pdfrwt beam="1">  1        2 0.31218240E-01 0.75857032E+03</pdfrwt>
<pdfrwt beam="2">  1       -2 0.10906781E+00 0.75857032E+03</pdfrwt>
<totfact> 0.11510506E+02</totfact>
</mgrwt>
</event>
<event>
 4    1  0.1805887E-005  0.8409237E+03  0.7818608E-02  0.9502600E-01
         -2   -1    0    0    0  501 -0.00000000000E+00  0.00000000000E+00  0.15438719447E+03  0.15438719449E+03  0.25500000000E-02 0. -1.
          2   -1    0    0  501    0  0.00000000000E+00 -0.00000000000E+00 -0.11450960302E+04  0.11450960302E+04  0.25500000000E-02 0.  1.
   -5000001    1    1    2    0    0 -0.22683568637E+03 -0.24376254972E+03 -0.40506902447E+03  0.58090922169E+03  0.25000000000E+03 0.  0.
    5000001    1    1    2    0    0  0.22683568637E+03  0.24376254972E+03 -0.58563981125E+03  0.71857400300E+03  0.25000000000E+03 0.  0.
<mgrwt>
<rscale>  0 0.84092369E+03</rscale>
<asrwt>0</asrwt>
<pdfrwt beam="1">  1        2 0.17616861E+00 0.84092369E+03</pdfrwt>
<pdfrwt beam="2">  1       -2 0.23751877E-01 0.84092369E+03</pdfrwt>
<totfact> 0.32268327E+02</totfact>
</mgrwt>
</event>
<event>
 4    1  0.1805887E-005  0.7339994E+03  0.7818608E-02  0.9660793E-01
         -2   -1    0    0    0  501 -0.00000000000E+00  0.00000000000E+00  0.12298992851E+03  0.12298992853E+03  0.25500000000E-02 0. -1.
          2   -1    0    0  501    0  0.00000000000E+00 -0.00000000000E+00 -0.10951204052E+04  0.10951204052E+04  0.25500000000E-02 0.  1.
   -5000001    1    1    2    0    0  0.87241513151E+02  0.25398485251E+03 -0.47224071649E+03  0.59802230831E+03  0.25000000000E+03 0.  0.
    5000001    1    1    2    0    0 -0.87241513151E+02 -0.25398485251E+03 -0.49988976017E+03  0.62008802540E+03  0.25000000000E+03 0.  0.
<mgrwt>
<rscale>  0 0.73399940E+03</rscale>
<asrwt>0</asrwt>
<pdfrwt beam="1">  1        2 0.16848006E+00 0.73399940E+03</pdfrwt>
<pdfrwt beam="2">  1       -2 0.18921528E-01 0.73399940E+03</pdfrwt>
<totfact> 0.51952454E+02</totfact>
</mgrwt>
</event>
<event>
 4    1  0.1805887E-005  0.1119406E+04  0.7818608E-02  0.9186481E-01
          2   -1    0    0  501    0  0.00000000000E+00  0.00000000000E+00  0.19406526861E+04  0.19406526861E+04  0.25500000000E-02 0.  1.
         -2   -1    0    0    0  501 -0.00000000000E+00 -0.00000000000E+00 -0.16142372920E+03  0.16142372922E+03  0.25500000000E-02 0. -1.
   -5000001    1    1    2    0    0  0.46859469601E+03 -0.96804749425E+02  0.61225631380E+03  0.81627810360E+03  0.25000000000E+03 0.  0.
    5000001    1    1    2    0    0 -0.46859469601E+03  0.96804749425E+02  0.11669726431E+04  0.12857983117E+04  0.25000000000E+03 0.  0.
<mgrwt>
<rscale>  0 0.11194059E+04</rscale>
<asrwt>0</asrwt>
<pdfrwt beam="1">  1        2 0.29856197E+00 0.11194059E+04</pdfrwt>
<pdfrwt beam="2">  1       -2 0.24834419E-01 0.11194059E+04</pdfrwt>
<totfact> 0.10395879E+02</totfact>
</mgrwt>
</event>
<event>
 4    1  0.1805887E-005  0.8696423E+03  0.7818608E-02  0.9464346E-01
          2   -1    0    0  501    0  0.00000000000E+00  0.00000000000E+00  0.26632657018E+03  0.26632657019E+03  0.25500000000E-02 0.  1.
         -2   -1    0    0    0  501 -0.00000000000E+00 -0.00000000000E+00 -0.70991573299E+03  0.70991573300E+03  0.25500000000E-02 0. -1.
   -5000001    1    1    2    0    0  0.32314171565E+03  0.44111016590E+02 -0.38135519054E+03  0.56062298520E+03  0.25000000000E+03 0.  0.
    5000001    1    1    2    0    0 -0.32314171565E+03 -0.44111016590E+02 -0.62233972273E+02  0.41561931799E+03  0.25000000000E+03 0.  0.
<mgrwt>
<rscale>  0 0.86964228E+03</rscale>
<asrwt>0</asrwt>
<pdfrwt beam="1">  1        2 0.40973319E-01 0.86964228E+03</pdfrwt>
<pdfrwt beam="2">  1       -2 0.10921780E+00 0.86964228E+03</pdfrwt>
<totfact> 0.84190262E+01</totfact>
</mgrwt>
</event>
<event>
 4    1  0.1805887E-005  0.1045763E+04  0.7818608E-02  0.9259729E-01
          2   -1    0    0  501    0  0.00000000000E+00  0.00000000000E+00  0.11526480007E+04  0.11526480007E+04  0.25500000000E-02 0.  1.
         -2   -1    0    0    0  501 -0.00000000000E+00 -0.00000000000E+00 -0.23719739560E+03  0.23719739562E+03  0.25500000000E-02 0. -1.
   -5000001    1    1    2    0    0  0.54653824273E+02 -0.40343486422E+03  0.74014978062E+03  0.88094746037E+03  0.25000000000E+03 0.  0.
    5000001    1    1    2    0    0 -0.54653824273E+02  0.40343486422E+03  0.17530082451E+03  0.50889793598E+03  0.25000000000E+03 0.  0.
<mgrwt>
<rscale>  0 0.10457631E+04</rscale>
<asrwt>0</asrwt>
<pdfrwt beam="1">  1        2 0.17733046E+00 0.10457631E+04</pdfrwt>
<pdfrwt beam="2">  1       -2 0.36491907E-01 0.10457631E+04</pdfrwt>
<totfact> 0.14227481E+02</totfact>
</mgrwt>
</event>
<event>
 4    1  0.1805887E-005  0.8238517E+03  0.7818608E-02  0.9526120E-01
          2   -1    0    0  501    0  0.00000000000E+00  0.00000000000E+00  0.74354016933E+03  0.74354016933E+03  0.25500000000E-02 0.  1.
         -2   -1    0    0    0  501 -0.00000000000E+00 -0.00000000000E+00 -0.22820948916E+03  0.22820948917E+03  0.25500000000E-02 0. -1.
   -5000001    1    1    2    0    0  0.19867982449E+03  0.12359702208E+03  0.52775489768E+03  0.62910661144E+03  0.25000000000E+03 0.  0.
    5000001    1    1    2    0    0 -0.19867982449E+03 -0.12359702208E+03 -0.12424217508E+02  0.34264304707E+03  0.25000000000E+03 0.  0.
<mgrwt>
<rscale>  0 0.82385174E+03</rscale>
<asrwt>0</asrwt>
<pdfrwt beam="1">  1        2 0.11439080E+00 0.82385174E+03</pdfrwt>
<pdfrwt beam="2">  1       -2 0.35109152E-01 0.82385174E+03</pdfrwt>
<totfact> 0.29007428E+02</totfact>
</mgrwt>
</event>
<event>
 4    1  0.1805887E-005  0.1223153E+04  0.7818608E-02  0.9092828E-01
         -2   -1    0    0    0  501 -0.00000000000E+00  0.00000000000E+00  0.32274664607E+03  0.32274664608E+03  0.25500000000E-02 0. -1.
          2   -1    0    0  501    0  0.00000000000E+00 -0.00000000000E+00 -0.11588842515E+04  0.11588842515E+04  0.25500000000E-02 0.  1.
   -5000001    1    1    2    0    0 -0.49166287895E+03  0.18164219839E+03 -0.65043954782E+03  0.87195061795E+03  0.25000000000E+03 0.  0.
    5000001    1    1    2    0    0  0.49166287895E+03 -0.18164219839E+03 -0.18569805760E+03  0.60968027963E+03  0.25000000000E+03 0.  0.
<mgrwt>
<rscale>  0 0.12231533E+04</rscale>
<asrwt>0</asrwt>
<pdfrwt beam="1">  1        2 0.17828988E+00 0.12231533E+04</pdfrwt>
<pdfrwt beam="2">  1       -2 0.49653331E-01 0.12231533E+04</pdfrwt>
<totfact> 0.75812161E+01</totfact>
</mgrwt>
</event>
<event>
 4    1  0.1805887E-005  0.6711303E+03  0.7818608E-02  0.9767918E-01
          2   -1    0    0  501    0  0.00000000000E+00  0.00000000000E+00  0.33204542909E+03  0.33204542910E+03  0.25500000000E-02 0.  1.
         -2   -1    0    0    0  501 -0.00000000000E+00 -0.00000000000E+00 -0.33912220831E+03  0.33912220832E+03  0.25500000000E-02 0. -1.
   -5000001    1    1    2    0    0  0.11702847553E+03 -0.37856316351E+02 -0.19056540164E+03  0.33755582809E+03  0.25000000000E+03 0.  0.
    5000001    1    1    2    0    0 -0.11702847553E+03  0.37856316351E+02  0.18348862241E+03  0.33361180934E+03  0.25000000000E+03 0.  0.
<mgrwt>
<rscale>  0 0.67113033E+03</rscale>
<asrwt>0</asrwt>
<pdfrwt beam="1">  1        2 0.51083912E-01 0.67113033E+03</pdfrwt>
<pdfrwt beam="2">  1       -2 0.52172648E-01 0.67113033E+03</pdfrwt>
<totfact> 0.34318642E+02</totfact>
</mgrwt>
</event>
<event>
 4    1  0.1805887E-005  0.8416423E+03  0.7818608E-02  0.9501624E-01
          2   -1    0    0  501    0  0.00000000000E+00  0.00000000000E+00  0.40387140528E+03  0.40387140529E+03  0.25500000000E-02 0.  1.
         -2   -1    0    0    0  501 -0.00000000000E+00 -0.00000000000E+00 -0.43848225963E+03  0.43848225964E+03  0.25500000000E-02 0. -1.
   -5000001    1    1    2    0    0 -0.67884255610E+02  0.31243501749E+03  0.93993481809E+02  0.41660375291E+03  0.25000000000E+03 0.  0.
    5000001    1    1    2    0    0  0.67884255610E+02 -0.31243501749E+03 -0.12860433616E+03  0.42574991203E+03  0.25000000000E+03 0.  0.
<mgrwt>
<rscale>  0 0.84164231E+03</rscale>
<asrwt>0</asrwt>
<pdfrwt beam="1">  1        2 0.62134063E-01 0.84164231E+03</pdfrwt>
<pdfrwt beam="2">  1       -2 0.67458809E-01 0.84164231E+03</pdfrwt>
<totfact> 0.15949165E+02</totfact>
</mgrwt>
</event>
<event>
 4    1  0.1805887E-005  0.6470862E+03  0.7818608E-02  0.9812262E-01
          2   -1    0    0  501    0  0.00000000000E+00  0.00000000000E+00  0.36598227392E+03  0.36598227393E+03  0.25500000000E-02 0.  1.
         -2   -1    0    0    0  501 -0.00000000000E+00 -0.00000000000E+00 -0.28602512562E+03  0.28602512563E+03  0.25500000000E-02 0. -1.
   -5000001    1    1    2    0    0  0.16325670210E+03  0.94434098226E+02 -0.41939025356E+02  0.31595795849E+03  0.25000000000E+03 0.  0.
    5000001    1    1    2    0    0 -0.16325670210E+03 -0.94434098226E+02  0.12189617366E+03  0.33604944106E+03  0.25000000000E+03 0.  0.
<mgrwt>
<rscale>  0 0.64708616E+03</rscale>
<asrwt>0</asrwt>
<pdfrwt beam="1">  1        2 0.56304965E-01 0.64708616E+03</pdfrwt>
<pdfrwt beam="2">  1       -2 0.44003866E-01 0.64708616E+03</pdfrwt>
<totfact> 0.43419643E+02</totfact>
</mgrwt>
</event>
<event>
 4    1  0.1805887E-005  0.8516278E+03  0.7818608E-02  0.9488155E-01
         -2   -1    0    0    0  501 -0.00000000000E+00  0.00000000000E+00  0.69725780471E+02  0.69725780518E+02  0.25500000000E-02 0. -1.
          2   -1    0    0  501    0  0.00000000000E+00 -0.00000000000E+00 -0.26004364787E+04  0.26004364787E+04  0.25500000000E-02 0.  1.
   -5000001    1    1    2    0    0 -0.20359276926E+03 -0.22116438821E+03 -0.73647469827E+03  0.83382173364E+03  0.25000000000E+03 0.  0.
    5000001    1    1    2    0    0  0.20359276926E+03  0.22116438821E+03 -0.17942359999E+04  0.18363405256E+04  0.25000000000E+03 0.  0.
<mgrwt>
<rscale>  0 0.85162777E+03</rscale>
<asrwt>0</asrwt>
<pdfrwt beam="1">  1        2 0.40006708E+00 0.85162777E+03</pdfrwt>
<pdfrwt beam="2">  1       -2 0.10727045E-01 0.85162777E+03</pdfrwt>
<totfact> 0.19187911E+02</totfact>
</mgrwt>
</event>
<event>
 4    1  0.1805887E-005  0.8314981E+03  0.7818608E-02  0.9515512E-01
         -2   -1    0    0    0  501 -0.00000000000E+00  0.00000000000E+00  0.73896761102E+02  0.73896761146E+02  0.25500000000E-02 0. -1.
          2   -1    0    0  501    0  0.00000000000E+00 -0.00000000000E+00 -0.23390371385E+04  0.23390371385E+04  0.25500000000E-02 0.  1.
   -5000001    1    1    2    0    0  0.13537003929E+03  0.27572306498E+03 -0.76551551463E+03  0.86189457547E+03  0.25000000000E+03 0.  0.
    5000001    1    1    2    0    0 -0.13537003929E+03 -0.27572306498E+03 -0.14996248628E+04  0.15510393242E+04  0.25000000000E+03 0.  0.
<mgrwt>
<rscale>  0 0.83149809E+03</rscale>
<asrwt>0</asrwt>
<pdfrwt beam="1">  1        2 0.35985181E+00 0.83149809E+03</pdfrwt>
<pdfrwt beam="2">  1       -2 0.11368734E-01 0.83149809E+03</pdfrwt>
<totfact> 0.24579026E+02</totfact>
</mgrwt>
</event>
<event>
 4    1  0.1805887E-005  0.5777433E+03  0.7818608E-02  0.9952689E-01
         -2   -1    0    0    0  501 -0.00000000000E+00  0.00000000000E+00  0.14313322841E+03  0.14313322843E+03  0.25500000000E-02 0. -1.
          2   -1    0    0  501    0  0.00000000000E+00 -0.00000000000E+00 -0.58300118853E+03  0.58300118854E+03  0.25500000000E-02 0.  1.
   -5000001    1    1    2    0    0  0.45921246923E+01  0.13836031552E+03 -0.27299279961E+03  0.39520846798E+03  0.25000000000E+03 0.  0.
    5000001    1    1    2    0    0 -0.45921246923E+01 -0.13836031552E+03 -0.16687516051E+03  0.33092594899E+03  0.25000000000E+03 0.  0.
<mgrwt>
<rscale>  0 0.57774334E+03</rscale>
<asrwt>0</asrwt>
<pdfrwt beam="1">  1        2 0.89692489E-01 0.57774334E+03</pdfrwt>
<pdfrwt beam="2">  1       -2 0.22020497E-01 0.57774334E+03</pdfrwt>
<totfact> 0.92795874E+02</totfact>
</mgrwt>
</event>
<event>
 4    1  0.1805887E-005  0.7851721E+03  0.7818608E-02  0.9581731E-01
         -2   -1    0    0    0  501 -0.00000000000E+00  0.00000000000E+00  0.20289937888E+03  0.20289937890E+03  0.25500000000E-02 0. -1.
          2   -1    0    0  501    0  0.00000000000E+00 -0.00000000000E+00 -0.75960706501E+03  0.75960706501E+03  0.25500000000E-02 0.  1.
   -5000001    1    1    2    0    0  0.17498015823E+03  0.23663701023E+03 -0.36510995089E+03  0.53143241021E+03  0.25000000000E+03 0.  0.
    5000001    1    1    2    0    0 -0.17498015823E+03 -0.23663701023E+03 -0.19159773524E+03  0.43107403370E+03  0.25000000000E+03 0.  0.
<mgrwt>
<rscale>  0 0.78517209E+03</rscale>
<asrwt>0</asrwt>
<pdfrwt beam="1">  1        2 0.11686262E+00 0.78517209E+03</pdfrwt>
<pdfrwt beam="2">  1       -2 0.31215289E-01 0.78517209E+03</pdfrwt>
<totfact> 0.35279864E+02</totfact>
</mgrwt>
</event>
<event>
 4    1  0.1805887E-005  0.6385889E+03  0.7818608E-02  0.9828430E-01
          2   -1    0    0  501    0  0.00000000000E+00  0.00000000000E+00  0.14025835386E+04  0.14025835386E+04  0.25500000000E-02 0.  1.
         -2   -1    0    0    0  501 -0.00000000000E+00 -0.00000000000E+00 -0.72686534915E+02  0.72686534960E+02  0.25500000000E-02 0. -1.
   -5000001    1    1    2    0    0  0.10136691493E+03 -0.12927240735E+03  0.92284759792E+03  0.97012076348E+03  0.25000000000E+03 0.  0.
    5000001    1    1    2    0    0 -0.10136691493E+03  0.12927240735E+03  0.40704940576E+03  0.50514931008E+03  0.25000000000E+03 0.  0.
<mgrwt>
<rscale>  0 0.63858887E+03</rscale>
<asrwt>0</asrwt>
<pdfrwt beam="1">  1        2 0.21578209E+00 0.63858887E+03</pdfrwt>
<pdfrwt beam="2">  1       -2 0.11182544E-01 0.63858887E+03</pdfrwt>
<totfact> 0.83707703E+02</totfact>
</mgrwt>
</event>
<event>
 4    1  0.1805887E-005  0.5184577E+03  0.7818608E-02  0.1009070E+00
         -2   -1    0    0    0  501 -0.00000000000E+00  0.00000000000E+00  0.93939905835E+02  0.93939905870E+02  0.25500000000E-02 0. -1.
          2   -1    0    0  501    0  0.00000000000E+00 -0.00000000000E+00 -0.71534672464E+03  0.71534672464E+03  0.25500000000E-02 0.  1.
   -5000001    1    1    2    0    0 -0.56318393846E+02  0.35328825185E+02 -0.33680987798E+03  0.42468904068E+03  0.25000000000E+03 0.  0.
    5000001    1    1    2    0    0  0.56318393846E+02 -0.35328825185E+02 -0.28459694082E+03  0.38459758983E+03  0.25000000000E+03 0.  0.
<mgrwt>
<rscale>  0 0.51845773E+03</rscale>
<asrwt>0</asrwt>
<pdfrwt beam="1">  1        2 0.11005334E+00 0.51845773E+03</pdfrwt>
<pdfrwt beam="2">  1       -2 0.14452294E-01 0.51845773E+03</pdfrwt>
<totfact> 0.14900660E+03</totfact>
</mgrwt>
</event>
<event>
 4    1  0.1805887E-005  0.5785238E+03  0.7818608E-02  0.9950992E-01
         -2   -1    0    0    0  501 -0.00000000000E+00  0.00000000000E+00  0.26780323048E+02  0.26780323170E+02  0.25500000000E-02 0. -1.
          2   -1    0    0  501    0  0.00000000000E+00 -0.00000000000E+00 -0.31244004226E+04  0.31244004226E+04  0.25500000000E-02 0.  1.
   -5000001    1    1    2    0    0  0.12715643899E+03  0.76237795544E+01 -0.19318642971E+04  0.19521338439E+04  0.25000000000E+03 0.  0.
    5000001    1    1    2    0    0 -0.12715643899E+03 -0.76237795544E+01 -0.11657558024E+04  0.11990469018E+04  0.25000000000E+03 0.  0.
<mgrwt>
<rscale>  0 0.57852382E+03</rscale>
<asrwt>0</asrwt>
<pdfrwt beam="1">  1        2 0.48067670E+00 0.57852382E+03</pdfrwt>
<pdfrwt beam="2">  1       -2 0.41200522E-02 0.57852382E+03</pdfrwt>
<totfact> 0.43721718E+02</totfact>
</mgrwt>
</event>
<event>
 4    1  0.1805887E-005  0.8480233E+03  0.7818608E-02  0.9492994E-01
         -2   -1    0    0    0  501 -0.00000000000E+00  0.00000000000E+00  0.36785567088E+03  0.36785567089E+03  0.25500000000E-02 0. -1.
          2   -1    0    0  501    0  0.00000000000E+00 -0.00000000000E+00 -0.48874028878E+03  0.48874028879E+03  0.25500000000E-02 0.  1.
   -5000001    1    1    2    0    0  0.25380403243E+03 -0.22406843500E+03 -0.11256565814E+03  0.43565373617E+03  0.25000000000E+03 0.  0.
    5000001    1    1    2    0    0 -0.25380403243E+03  0.22406843500E+03 -0.83189597581E+01  0.42094222351E+03  0.25000000000E+03 0.  0.
<mgrwt>
<rscale>  0 0.84802332E+03</rscale>
<asrwt>0</asrwt>
<pdfrwt beam="1">  1        2 0.75190814E-01 0.84802332E+03</pdfrwt>
<pdfrwt beam="2">  1       -2 0.56593180E-01 0.84802332E+03</pdfrwt>
<totfact> 0.18629895E+02</totfact>
</mgrwt>
</event>
<event>
 4    1  0.1805887E-005  0.6510338E+03  0.7818608E-02  0.9804841E-01
         -2   -1    0    0    0  501 -0.00000000000E+00  0.00000000000E+00  0.17565735585E+03  0.17565735587E+03  0.25500000000E-02 0. -1.
          2   -1    0    0  501    0  0.00000000000E+00 -0.00000000000E+00 -0.60322698093E+03  0.60322698093E+03  0.25500000000E-02 0.  1.
   -5000001    1    1    2    0    0  0.87473430858E+02  0.15500701847E+03 -0.34364851268E+03  0.46073102473E+03  0.25000000000E+03 0.  0.
    5000001    1    1    2    0    0 -0.87473430858E+02 -0.15500701847E+03 -0.83921112395E+02  0.31815331208E+03  0.25000000000E+03 0.  0.
<mgrwt>
<rscale>  0 0.65103381E+03</rscale>
<asrwt>0</asrwt>
<pdfrwt beam="1">  1        2 0.92804150E-01 0.65103381E+03</pdfrwt>
<pdfrwt beam="2">  1       -2 0.27024209E-01 0.65103381E+03</pdfrwt>
<totfact> 0.61643856E+02</totfact>
</mgrwt>
</event>
<event>
 4    1  0.1805887E-005  0.9118623E+03  0.7818608E-02  0.9410873E-01
          2   -1    0    0  501    0  0.00000000000E+00  0.00000000000E+00  0.11852172041E+04  0.11852172041E+04  0.25500000000E-02 0.  1.
         -2   -1    0    0    0  501 -0.00000000000E+00 -0.00000000000E+00 -0.17538828292E+03  0.17538828294E+03  0.25500000000E-02 0. -1.
   -5000001    1    1    2    0    0  0.33543095190E+03  0.78346758128E+02  0.74882462677E+03  0.86133063318E+03  0.25000000000E+03 0.  0.
    5000001    1    1    2    0    0 -0.33543095190E+03 -0.78346758128E+02  0.26100429441E+03  0.49927485386E+03  0.25000000000E+03 0.  0.
<mgrwt>
<rscale>  0 0.91186229E+03</rscale>
<asrwt>0</asrwt>
<pdfrwt beam="1">  1        2 0.18234110E+00 0.91186229E+03</pdfrwt>
<pdfrwt beam="2">  1       -2 0.26982814E-01 0.91186229E+03</pdfrwt>
<totfact> 0.24140074E+02</totfact>
</mgrwt>
</event>
<event>
 4    1  0.1805887E-005  0.6872255E+03  0.7818608E-02  0.9739331E-01
          2   -1    0    0  501    0  0.00000000000E+00  0.00000000000E+00  0.24623457683E+04  0.24623457683E+04  0.25500000000E-02 0.  1.
         -2   -1    0    0    0  501 -0.00000000000E+00 -0.00000000000E+00 -0.47950100701E+02  0.47950100769E+02  0.25500000000E-02 0. -1.
   -5000001    1    1    2    0    0 -0.17063857152E+03 -0.10241458432E+02  0.18001147516E+04  0.18254137965E+04  0.25000000000E+03 0.  0.
    5000001    1    1    2    0    0  0.17063857152E+03  0.10241458432E+02  0.61428091604E+03  0.68488207260E+03  0.25000000000E+03 0.  0.
<mgrwt>
<rscale>  0 0.68722552E+03</rscale>
<asrwt>0</asrwt>
<pdfrwt beam="1">  1        2 0.37882234E+00 0.68722552E+03</pdfrwt>
<pdfrwt beam="2">  1       -2 0.73769403E-02 0.68722552E+03</pdfrwt>
<totfact> 0.42732672E+02</totfact>
</mgrwt>
</event>
<event>
 4    1  0.1805887E-005  0.6648046E+03  0.7818608E-02  0.9779389E-01
          2   -1    0    0  501    0  0.00000000000E+00  0.00000000000E+00  0.32984670953E+03  0.32984670954E+03  0.25500000000E-02 0.  1.
         -2   -1    0    0    0  501 -0.00000000000E+00 -0.00000000000E+00 -0.33497771250E+03  0.33497771251E+03  0.25500000000E-02 0. -1.
   -5000001    1    1    2    0    0 -0.12853371997E+03  0.17541557652E+03 -0.29019164199E+02  0.33261637594E+03  0.25000000000E+03 0.  0.
    5000001    1    1    2    0    0  0.12853371997E+03 -0.17541557652E+03  0.23888161234E+02  0.33220804611E+03  0.25000000000E+03 0.  0.
<mgrwt>
<rscale>  0 0.66480462E+03</rscale>
<asrwt>0</asrwt>
<pdfrwt beam="1">  1        2 0.50745648E-01 0.66480462E+03</pdfrwt>
<pdfrwt beam="2">  1       -2 0.51535033E-01 0.66480462E+03</pdfrwt>
<totfact> 0.35459379E+02</totfact>
</mgrwt>
</event>
<event>
 4    1  0.1805887E-005  0.9922435E+03  0.7818608E-02  0.9317093E-01
         -2   -1    0    0    0  501 -0.00000000000E+00  0.00000000000E+00  0.14384094826E+03  0.14384094828E+03  0.25500000000E-02 0.  1.
          2   -1    0    0  501    0  0.00000000000E+00 -0.00000000000E+00 -0.17111733394E+04  0.17111733394E+04  0.25500000000E-02 0. -1.
   -5000001    1    1    2    0    0 -0.38616863591E+02  0.17658351596E+03 -0.57283657879E+02  0.31377446952E+03  0.25000000000E+03 0.  0.
    5000001    1    1    2    0    0  0.38616863591E+02 -0.17658351596E+03 -0.15100487332E+04  0.15412398181E+04  0.25000000000E+03 0.  0.
<mgrwt>
<rscale>  0 0.99224351E+03</rscale>
<asrwt>0</asrwt>
<pdfrwt beam="1">  1        2 0.26325742E+00 0.99224351E+03</pdfrwt>
<pdfrwt beam="2">  1       -2 0.22129378E-01 0.99224351E+03</pdfrwt>
<totfact> 0.17262942E+02</totfact>
</mgrwt>
</event>
<event>
 4    1  0.1805887E-005  0.5900315E+03  0.7818608E-02  0.9926306E-01
          2   -1    0    0  501    0  0.00000000000E+00  0.00000000000E+00  0.91348749480E+02  0.91348749515E+02  0.25500000000E-02 0.  1.
         -2   -1    0    0    0  501 -0.00000000000E+00 -0.00000000000E+00 -0.95276946753E+03  0.95276946754E+03  0.25500000000E-02 0. -1.
   -5000001    1    1    2    0    0 -0.31638171639E+02  0.13812653007E+03 -0.54881540195E+03  0.61949839195E+03  0.25000000000E+03 0.  0.
    5000001    1    1    2    0    0  0.31638171639E+02 -0.13812653007E+03 -0.31260531611E+03  0.42461982510E+03  0.25000000000E+03 0.  0.
<mgrwt>
<rscale>  0 0.59003152E+03</rscale>
<asrwt>0</asrwt>
<pdfrwt beam="1">  1        2 0.14053654E-01 0.59003152E+03</pdfrwt>
<pdfrwt beam="2">  1       -2 0.14657991E+00 0.59003152E+03</pdfrwt>
<totfact> 0.14056945E+02</totfact>
</mgrwt>
</event>
<event>
 4    1  0.1805887E-005  0.8779699E+03  0.7818608E-02  0.9453547E-01
          2   -1    0    0  501    0  0.00000000000E+00  0.00000000000E+00  0.23019262038E+04  0.23019262038E+04  0.25500000000E-02 0.  1.
         -2   -1    0    0    0  501 -0.00000000000E+00 -0.00000000000E+00 -0.83715878942E+02  0.83715878981E+02  0.25500000000E-02 0. -1.
   -5000001    1    1    2    0    0 -0.17310329092E+03  0.17452338171E+03  0.39130175271E+03  0.52539530047E+03  0.25000000000E+03 0.  0.
    5000001    1    1    2    0    0  0.17310329092E+03 -0.17452338171E+03  0.18269085722E+04  0.18602467823E+04  0.25000000000E+03 0.  0.
<mgrwt>
<rscale>  0 0.87796988E+03</rscale>
<asrwt>0</asrwt>
<pdfrwt beam="1">  1        2 0.35414249E+00 0.87796988E+03</pdfrwt>
<pdfrwt beam="2">  1       -2 0.12879366E-01 0.87796988E+03</pdfrwt>
<totfact> 0.20879665E+02</totfact>
</mgrwt>
</event>
<event>
 4    1  0.1805887E-005  0.1360655E+04  0.7818608E-02  0.8982802E-01
         -2   -1    0    0    0  501 -0.00000000000E+00  0.00000000000E+00  0.75081606780E+03  0.75081606781E+03  0.25500000000E-02 0. -1.
          2   -1    0    0  501    0  0.00000000000E+00 -0.00000000000E+00 -0.61645617762E+03  0.61645617763E+03  0.25500000000E-02 0.  1.
   -5000001    1    1    2    0    0 -0.44898378974E+02 -0.63067249254E+03  0.91412496811E+02  0.68601742095E+03  0.25000000000E+03 0.  0.
    5000001    1    1    2    0    0  0.44898378974E+02  0.63067249254E+03  0.42947393373E+02  0.68125482448E+03  0.25000000000E+03 0.  0.
<mgrwt>
<rscale>  0 0.13606546E+04</rscale>
<asrwt>0</asrwt>
<pdfrwt beam="1">  1        2 0.94839412E-01 0.13606546E+04</pdfrwt>
<pdfrwt beam="2">  1       -2 0.11551016E+00 0.13606546E+04</pdfrwt>
<totfact> 0.27319631E+01</totfact>
</mgrwt>
</event>
<event>
 4    1  0.1805887E-005  0.6661587E+03  0.7818608E-02  0.9776922E-01
          2   -1    0    0  501    0  0.00000000000E+00  0.00000000000E+00  0.87106800477E+03  0.87106800478E+03  0.25500000000E-02 0.  1.
         -2   -1    0    0    0  501 -0.00000000000E+00 -0.00000000000E+00 -0.12736301301E+03  0.12736301304E+03  0.25500000000E-02 0. -1.
   -5000001    1    1    2    0    0  0.12692771269E+03 -0.98346714007E+02  0.59746436603E+03  0.66726785408E+03  0.25000000000E+03 0.  0.
    5000001    1    1    2    0    0 -0.12692771269E+03  0.98346714007E+02  0.14624062573E+03  0.33116316374E+03  0.25000000000E+03 0.  0.
<mgrwt>
<rscale>  0 0.66615868E+03</rscale>
<asrwt>0</asrwt>
<pdfrwt beam="1">  1        2 0.13401046E+00 0.66615868E+03</pdfrwt>
<pdfrwt beam="2">  1       -2 0.19594310E-01 0.66615868E+03</pdfrwt>
<totfact> 0.68312317E+02</totfact>
</mgrwt>
</event>
<event>
 4    1  0.1805887E-005  0.6992263E+03  0.7818608E-02  0.9718556E-01
          2   -1    0    0  501    0  0.00000000000E+00  0.00000000000E+00  0.14651968870E+04  0.14651968870E+04  0.25500000000E-02 0.  1.
         -2   -1    0    0    0  501 -0.00000000000E+00 -0.00000000000E+00 -0.83421804354E+02  0.83421804393E+02  0.25500000000E-02 0. -1.
   -5000001    1    1    2    0    0  0.18512885137E+03  0.93163452021E+02  0.40401625829E+03  0.51834472831E+03  0.25000000000E+03 0.  0.
    5000001    1    1    2    0    0 -0.18512885137E+03 -0.93163452021E+02  0.97775882431E+03  0.10302739630E+04  0.25000000000E+03 0.  0.
<mgrwt>
<rscale>  0 0.69922634E+03</rscale>
<asrwt>0</asrwt>
<pdfrwt beam="1">  1        2 0.22541489E+00 0.69922634E+03</pdfrwt>
<pdfrwt beam="2">  1       -2 0.12834125E-01 0.69922634E+03</pdfrwt>
<totfact> 0.61330762E+02</totfact>
</mgrwt>
</event>
<event>
 4    1  0.1805887E-005  0.7447140E+03  0.7818608E-02  0.9643680E-01
         -2   -1    0    0    0  501 -0.00000000000E+00  0.00000000000E+00  0.58474002420E+02  0.58474002476E+02  0.25500000000E-02 0. -1.
          2   -1    0    0  501    0  0.00000000000E+00 -0.00000000000E+00 -0.23711349929E+04  0.23711349929E+04  0.25500000000E-02 0.  1.
   -5000001    1    1    2    0    0 -0.96360234180E+02  0.14968051276E+03 -0.46841901080E+03  0.56000528596E+03  0.25000000000E+03 0.  0.
    5000001    1    1    2    0    0  0.96360234180E+02 -0.14968051276E+03 -0.18442419796E+04  0.18696037094E+04  0.25000000000E+03 0.  0.
<mgrwt>
<rscale>  0 0.74471405E+03</rscale>
<asrwt>0</asrwt>
<pdfrwt beam="1">  1        2 0.36478992E+00 0.74471405E+03</pdfrwt>
<pdfrwt beam="2">  1       -2 0.89960022E-02 0.74471405E+03</pdfrwt>
<totfact> 0.34808503E+02</totfact>
</mgrwt>
</event>
<event>
 4    1  0.1805887E-005  0.6818491E+03  0.7818608E-02  0.9748786E-01
          2   -1    0    0  501    0  0.00000000000E+00  0.00000000000E+00  0.73559874274E+03  0.73559874274E+03  0.25500000000E-02 0.  1.
         -2   -1    0    0    0  501 -0.00000000000E+00 -0.00000000000E+00 -0.15800673838E+03  0.15800673840E+03  0.25500000000E-02 0. -1.
   -5000001    1    1    2    0    0 -0.83860748241E+02 -0.16640932539E+03  0.46946763942E+03  0.56358189568E+03  0.25000000000E+03 0.  0.
    5000001    1    1    2    0    0  0.83860748241E+02  0.16640932539E+03  0.10812436493E+03  0.33002358547E+03  0.25000000000E+03 0.  0.
<mgrwt>
<rscale>  0 0.68184913E+03</rscale>
<asrwt>0</asrwt>
<pdfrwt beam="1">  1        2 0.11316904E+00 0.68184913E+03</pdfrwt>
<pdfrwt beam="2">  1       -2 0.24308728E-01 0.68184913E+03</pdfrwt>
<totfact> 0.58325157E+02</totfact>
</mgrwt>
</event>
<event>
 4    1  0.1805887E-005  0.9637402E+03  0.7818608E-02  0.9349233E-01
          2   -1    0    0  501    0  0.00000000000E+00  0.00000000000E+00  0.19106776998E+04  0.19106776998E+04  0.25500000000E-02 0.  1.
         -2   -1    0    0    0  501 -0.00000000000E+00 -0.00000000000E+00 -0.12152692690E+03  0.12152692693E+03  0.25500000000E-02 0. -1.
   -5000001    1    1    2    0    0 -0.61596862189E+01  0.36690375473E+03  0.49984105924E+03  0.66857863522E+03  0.25000000000E+03 0.  0.
    5000001    1    1    2    0    0  0.61596862189E+01 -0.36690375473E+03  0.12893097137E+04  0.13636259915E+04  0.25000000000E+03 0.  0.
<mgrwt>
<rscale>  0 0.96374019E+03</rscale>
<asrwt>0</asrwt>
<pdfrwt beam="1">  1        2 0.29395039E+00 0.96374019E+03</pdfrwt>
<pdfrwt beam="2">  1       -2 0.18696452E-01 0.96374019E+03</pdfrwt>
<totfact> 0.18078504E+02</totfact>
</mgrwt>
</event>
<event>
 4    1  0.1805887E-005  0.6376158E+03  0.7818608E-02  0.9830299E-01
          2   -1    0    0  501    0  0.00000000000E+00  0.00000000000E+00  0.10885487885E+04  0.10885487885E+04  0.25500000000E-02 0.  1.
         -2   -1    0    0    0  501 -0.00000000000E+00 -0.00000000000E+00 -0.93370619467E+02  0.93370619502E+02  0.25500000000E-02 0. -1.
   -5000001    1    1    2    0    0 -0.45683157704E+02 -0.17038999941E+03  0.33159877698E+03  0.45119558031E+03  0.25000000000E+03 0.  0.
    5000001    1    1    2    0    0  0.45683157704E+02  0.17038999941E+03  0.66357939201E+03  0.73072382765E+03  0.25000000000E+03 0.  0.
<mgrwt>
<rscale>  0 0.63761579E+03</rscale>
<asrwt>0</asrwt>
<pdfrwt beam="1">  1        2 0.16746904E+00 0.63761579E+03</pdfrwt>
<pdfrwt beam="2">  1       -2 0.14364711E-01 0.63761579E+03</pdfrwt>
<totfact> 0.84233339E+02</totfact>
</mgrwt>
</event>
<event>
 4    1  0.1805887E-005  0.1078886E+04  0.7818608E-02  0.9226018E-01
          2   -1    0    0  501    0  0.00000000000E+00  0.00000000000E+00  0.12521515748E+04  0.12521515748E+04  0.25500000000E-02 0.  1.
         -2   -1    0    0    0  501 -0.00000000000E+00 -0.00000000000E+00 -0.23239913920E+03  0.23239913921E+03  0.25500000000E-02 0. -1.
   -5000001    1    1    2    0    0  0.27928930541E+03  0.29280030184E+03  0.15969926651E+03  0.50173537706E+03  0.25000000000E+03 0.  0.
    5000001    1    1    2    0    0 -0.27928930541E+03 -0.29280030184E+03  0.86005316906E+03  0.98281533692E+03  0.25000000000E+03 0.  0.
<mgrwt>
<rscale>  0 0.10788864E+04</rscale>
<asrwt>0</asrwt>
<pdfrwt beam="1">  1        2 0.19263870E+00 0.10788864E+04</pdfrwt>
<pdfrwt beam="2">  1       -2 0.35753715E-01 0.10788864E+04</pdfrwt>
<totfact> 0.12879475E+02</totfact>
</mgrwt>
</event>
<event>
 4    1  0.1805887E-005  0.6334336E+03  0.7818608E-02  0.9838371E-01
         -2   -1    0    0    0  501 -0.00000000000E+00  0.00000000000E+00  0.37785556399E+02  0.37785556485E+02  0.25500000000E-02 0. -1.
          2   -1    0    0  501    0  0.00000000000E+00 -0.00000000000E+00 -0.26547060163E+04  0.26547060163E+04  0.25500000000E-02 0.  1.
   -5000001    1    1    2    0    0 -0.91478427706E+02 -0.16048344546E+03 -0.15665369691E+04  0.15970789945E+04  0.25000000000E+03 0.  0.
    5000001    1    1    2    0    0  0.91478427706E+02  0.16048344546E+03 -0.10503834908E+04  0.10954125783E+04  0.25000000000E+03 0.  0.
<mgrwt>
<rscale>  0 0.63343364E+03</rscale>
<asrwt>0</asrwt>
<pdfrwt beam="1">  1        2 0.40841616E+00 0.63343364E+03</pdfrwt>
<pdfrwt beam="2">  1       -2 0.58131646E-02 0.63343364E+03</pdfrwt>
<totfact> 0.48607925E+02</totfact>
</mgrwt>
</event>
<event>
 4    1  0.1805887E-005  0.7825679E+03  0.7818608E-02  0.9585598E-01
         -2   -1    0    0    0  501 -0.00000000000E+00  0.00000000000E+00  0.60009422119E+02  0.60009422174E+02  0.25500000000E-02 0. -1.
          2   -1    0    0  501    0  0.00000000000E+00 -0.00000000000E+00 -0.25513182714E+04  0.25513182714E+04  0.25500000000E-02 0.  1.
   -5000001    1    1    2    0    0 -0.27304705395E+03 -0.97348311201E+02 -0.15161622179E+04  0.15637388715E+04  0.25000000000E+03 0.  0.
    5000001    1    1    2    0    0  0.27304705395E+03  0.97348311201E+02 -0.97514663137E+03  0.10475888220E+04  0.25000000000E+03 0.  0.
<mgrwt>
<rscale>  0 0.78256791E+03</rscale>
<asrwt>0</asrwt>
<pdfrwt beam="1">  1        2 0.39251042E+00 0.78256791E+03</pdfrwt>
<pdfrwt beam="2">  1       -2 0.92322208E-02 0.78256791E+03</pdfrwt>
<totfact> 0.26317549E+02</totfact>
</mgrwt>
</event>
<event>
 4    1  0.1805887E-005  0.9347306E+03  0.7818608E-02  0.9383178E-01
         -2   -1    0    0    0  501 -0.00000000000E+00  0.00000000000E+00  0.15154781135E+03  0.15154781137E+03  0.25500000000E-02 0. -1.
          2   -1    0    0  501    0  0.00000000000E+00 -0.00000000000E+00 -0.14413295637E+04  0.14413295637E+04  0.25500000000E-02 0.  1.
   -5000001    1    1    2    0    0  0.16269541861E+03 -0.34382974929E+03 -0.46421057686E+03  0.65013856631E+03  0.25000000000E+03 0.  0.
    5000001    1    1    2    0    0 -0.16269541861E+03  0.34382974929E+03 -0.82557117548E+03  0.94273880875E+03  0.25000000000E+03 0.  0.
<mgrwt>
<rscale>  0 0.93473064E+03</rscale>
<asrwt>0</asrwt>
<pdfrwt beam="1">  1        2 0.22174300E+00 0.93473064E+03</pdfrwt>
<pdfrwt beam="2">  1       -2 0.23315049E-01 0.93473064E+03</pdfrwt>
<totfact> 0.22314176E+02</totfact>
</mgrwt>
</event>
<event>
 4    1  0.1805887E-005  0.6446579E+03  0.7818608E-02  0.9816855E-01
          2   -1    0    0  501    0  0.00000000000E+00  0.00000000000E+00  0.12253120612E+04  0.12253120612E+04  0.25500000000E-02 0.  1.
         -2   -1    0    0    0  501 -0.00000000000E+00 -0.00000000000E+00 -0.84791411846E+02  0.84791411884E+02  0.25500000000E-02 0. -1.
   -5000001    1    1    2    0    0  0.78958310595E+02 -0.25189863764E+02  0.94788095197E+03  0.98379227643E+03  0.25000000000E+03 0.  0.
    5000001    1    1    2    0    0 -0.78958310595E+02  0.25189863764E+02  0.19263969735E+03  0.32631119663E+03  0.25000000000E+03 0.  0.
<mgrwt>
<rscale>  0 0.64465786E+03</rscale>
<asrwt>0</asrwt>
<pdfrwt beam="1">  1        2 0.18850954E+00 0.64465786E+03</pdfrwt>
<pdfrwt beam="2">  1       -2 0.13044833E-01 0.64465786E+03</pdfrwt>
<totfact> 0.81974353E+02</totfact>
</mgrwt>
</event>
<event>
 4    1  0.1805887E-005  0.6556828E+03  0.7818608E-02  0.9796174E-01
         -2   -1    0    0    0  501 -0.00000000000E+00  0.00000000000E+00  0.92743611384E+02  0.92743611419E+02  0.25500000000E-02 0. -1.
          2   -1    0    0  501    0  0.00000000000E+00 -0.00000000000E+00 -0.11588938232E+04  0.11588938232E+04  0.25500000000E-02 0.  1.
   -5000001    1    1    2    0    0 -0.86552634611E+02 -0.15263102186E+03 -0.30566340196E+03  0.43210843858E+03  0.25000000000E+03 0.  0.
    5000001    1    1    2    0    0  0.86552634611E+02  0.15263102186E+03 -0.76048680990E+03  0.81952899608E+03  0.25000000000E+03 0.  0.
<mgrwt>
<rscale>  0 0.65568285E+03</rscale>
<asrwt>0</asrwt>
<pdfrwt beam="1">  1        2 0.17829135E+00 0.65568285E+03</pdfrwt>
<pdfrwt beam="2">  1       -2 0.14268249E-01 0.65568285E+03</pdfrwt>
<totfact> 0.77205983E+02</totfact>
</mgrwt>
</event>
<event>
 4    1  0.1805887E-005  0.6910657E+03  0.7818608E-02  0.9732634E-01
          2   -1    0    0  501    0  0.00000000000E+00  0.00000000000E+00  0.58246396104E+03  0.58246396105E+03  0.25500000000E-02 0.  1.
         -2   -1    0    0    0  501 -0.00000000000E+00 -0.00000000000E+00 -0.20497910744E+03  0.20497910746E+03  0.25500000000E-02 0. -1.
   -5000001    1    1    2    0    0 -0.23455943123E+03  0.43256097368E+02  0.18654290471E+03  0.39266712625E+03  0.25000000000E+03 0.  0.
    5000001    1    1    2    0    0  0.23455943123E+03 -0.43256097368E+02  0.19094194890E+03  0.39477594226E+03  0.25000000000E+03 0.  0.
<mgrwt>
<rscale>  0 0.69106568E+03</rscale>
<asrwt>0</asrwt>
<pdfrwt beam="1">  1        2 0.89609841E-01 0.69106568E+03</pdfrwt>
<pdfrwt beam="2">  1       -2 0.31535247E-01 0.69106568E+03</pdfrwt>
<totfact> 0.48308539E+02</totfact>
</mgrwt>
</event>
<event>
 4    1  0.1805887E-005  0.6432628E+03  0.7818608E-02  0.9819504E-01
          2   -1    0    0  501    0  0.00000000000E+00  0.00000000000E+00  0.14516523120E+04  0.14516523120E+04  0.25500000000E-02 0.  1.
         -2   -1    0    0    0  501 -0.00000000000E+00 -0.00000000000E+00 -0.71261388894E+02  0.71261388939E+02  0.25500000000E-02 0. -1.
   -5000001    1    1    2    0    0 -0.52646307490E+02  0.19309077383E+03  0.61952384235E+03  0.69739907648E+03  0.25000000000E+03 0.  0.
    5000001    1    1    2    0    0  0.52646307490E+02 -0.19309077383E+03  0.76086708076E+03  0.82551462447E+03  0.25000000000E+03 0.  0.
<mgrwt>
<rscale>  0 0.64326281E+03</rscale>
<asrwt>0</asrwt>
<pdfrwt beam="1">  1        2 0.22333115E+00 0.64326281E+03</pdfrwt>
<pdfrwt beam="2">  1       -2 0.10963289E-01 0.64326281E+03</pdfrwt>
<totfact> 0.81150330E+02</totfact>
</mgrwt>
</event>
<event>
 4    1  0.1805887E-005  0.7847569E+03  0.7818608E-02  0.9582347E-01
         -2   -1    0    0    0  501 -0.00000000000E+00  0.00000000000E+00  0.41235790530E+03  0.41235790531E+03  0.25500000000E-02 0. -1.
          2   -1    0    0  501    0  0.00000000000E+00 -0.00000000000E+00 -0.37336706820E+03  0.37336706821E+03  0.25500000000E-02 0.  1.
   -5000001    1    1    2    0    0  0.82374785498E+02  0.26876513288E+03  0.13117026474E+03  0.39840424231E+03  0.25000000000E+03 0.  0.
    5000001    1    1    2    0    0 -0.82374785498E+02 -0.26876513288E+03 -0.92179427642E+02  0.38732073120E+03  0.25000000000E+03 0.  0.
<mgrwt>
<rscale>  0 0.78475694E+03</rscale>
<asrwt>0</asrwt>
<pdfrwt beam="1">  1        2 0.57441087E-01 0.78475694E+03</pdfrwt>
<pdfrwt beam="2">  1       -2 0.63439678E-01 0.78475694E+03</pdfrwt>
<totfact> 0.19927651E+02</totfact>
</mgrwt>
</event>
<event>
 4    1  0.1805887E-005  0.5809173E+03  0.7818608E-02  0.9945807E-01
          2   -1    0    0  501    0  0.00000000000E+00  0.00000000000E+00  0.26291439745E+03  0.26291439747E+03  0.25500000000E-02 0.  1.
         -2   -1    0    0    0  501 -0.00000000000E+00 -0.00000000000E+00 -0.32088862944E+03  0.32088862945E+03  0.25500000000E-02 0. -1.
   -5000001    1    1    2    0    0 -0.12053202427E+03 -0.78743361520E+02 -0.62885292568E+02  0.29526775286E+03  0.25000000000E+03 0.  0.
    5000001    1    1    2    0    0  0.12053202427E+03  0.78743361520E+02  0.49110605781E+01  0.28853527406E+03  0.25000000000E+03 0.  0.
<mgrwt>
<rscale>  0 0.58091735E+03</rscale>
<asrwt>0</asrwt>
<pdfrwt beam="1">  1        2 0.40448369E-01 0.58091735E+03</pdfrwt>
<pdfrwt beam="2">  1       -2 0.49367481E-01 0.58091735E+03</pdfrwt>
<totfact> 0.49820019E+02</totfact>
</mgrwt>
</event>
<event>
 4    1  0.1805887E-005  0.5331365E+03  0.7818608E-02  0.1005474E+00
         -2   -1    0    0    0  501 -0.00000000000E+00  0.00000000000E+00  0.15318113430E+02  0.15318113643E+02  0.25500000000E-02 0. -1.
          2   -1    0    0  501    0  0.00000000000E+00 -0.00000000000E+00 -0.46388639612E+04  0.46388639612E+04  0.25500000000E-02 0.  1.
   -5000001    1    1    2    0    0 -0.79659731861E+02 -0.73819136764E+00 -0.27223922552E+04  0.27350074605E+04  0.25000000000E+03 0.  0.
    5000001    1    1    2    0    0  0.79659731861E+02  0.73819136764E+00 -0.19011535926E+04  0.19191746143E+04  0.25000000000E+03 0.  0.
<mgrwt>
<rscale>  0 0.53313655E+03</rscale>
<asrwt>0</asrwt>
<pdfrwt beam="1">  1        2 0.71367026E+00 0.53313655E+03</pdfrwt>
<pdfrwt beam="2">  1       -2 0.23566366E-02 0.53313655E+03</pdfrwt>
<totfact> 0.69552797E+01</totfact>
</mgrwt>
</event>
<event>
 4    1  0.1805887E-005  0.5577247E+03  0.7818608E-02  0.9997216E-01
          2   -1    0    0  501    0  0.00000000000E+00  0.00000000000E+00  0.50350032756E+03  0.50350032757E+03  0.25500000000E-02 0.  1.
         -2   -1    0    0    0  501 -0.00000000000E+00 -0.00000000000E+00 -0.15444716877E+03  0.15444716879E+03  0.25500000000E-02 0. -1.
   -5000001    1    1    2    0    0  0.87460126577E+02 -0.49324958792E+02  0.89604809707E+02  0.28392119897E+03  0.25000000000E+03 0.  0.
    5000001    1    1    2    0    0 -0.87460126577E+02  0.49324958792E+02  0.25944834908E+03  0.37402629739E+03  0.25000000000E+03 0.  0.
<mgrwt>
<rscale>  0 0.55772466E+03</rscale>
<asrwt>0</asrwt>
<pdfrwt beam="1">  1        2 0.77461590E-01 0.55772466E+03</pdfrwt>
<pdfrwt beam="2">  1       -2 0.23761102E-01 0.55772466E+03</pdfrwt>
<totfact> 0.96273154E+02</totfact>
</mgrwt>
</event>
<event>
 4    1  0.1805887E-005  0.6547595E+03  0.7818608E-02  0.9797889E-01
         -2   -1    0    0    0  501 -0.00000000000E+00  0.00000000000E+00  0.22512762614E+03  0.22512762615E+03  0.25500000000E-02 0. -1.
          2   -1    0    0  501    0  0.00000000000E+00 -0.00000000000E+00 -0.47607445074E+03  0.47607445074E+03  0.25500000000E-02 0.  1.
   -5000001    1    1    2    0    0 -0.11281174568E+03  0.13410674542E+03 -0.25203550032E+03  0.39589519137E+03  0.25000000000E+03 0.  0.
    5000001    1    1    2    0    0  0.11281174568E+03 -0.13410674542E+03  0.10886757180E+01  0.30530688552E+03  0.25000000000E+03 0.  0.
<mgrwt>
<rscale>  0 0.65475953E+03</rscale>
<asrwt>0</asrwt>
<pdfrwt beam="1">  1        2 0.73242223E-01 0.65475953E+03</pdfrwt>
<pdfrwt beam="2">  1       -2 0.34635019E-01 0.65475953E+03</pdfrwt>
<totfact> 0.51310244E+02</totfact>
</mgrwt>
</event>
<event>
 4    1  0.1805887E-005  0.1212072E+04  0.7818608E-02  0.9102355E-01
         -2   -1    0    0    0  501 -0.00000000000E+00  0.00000000000E+00  0.14936976708E+04  0.14936976708E+04  0.25500000000E-02 0. -1.
          2   -1    0    0  501    0  0.00000000000E+00 -0.00000000000E+00 -0.24588628559E+03  0.24588628560E+03  0.25500000000E-02 0.  1.
   -5000001    1    1    2    0    0 -0.28866201935E+03  0.46316971547E+03  0.50444765999E+03  0.78410419487E+03  0.25000000000E+03 0.  0.
    5000001    1    1    2    0    0  0.28866201935E+03 -0.46316971547E+03  0.74336372523E+03  0.95547976155E+03  0.25000000000E+03 0.  0.
<mgrwt>
<rscale>  0 0.12120722E+04</rscale>
<asrwt>0</asrwt>
<pdfrwt beam="1">  1        2 0.37828659E-01 0.12120722E+04</pdfrwt>
<pdfrwt beam="2">  1       -2 0.22979964E+00 0.12120722E+04</pdfrwt>
<totfact> 0.11604403E+01</totfact>
</mgrwt>
</event>
<event>
 4    1  0.1805887E-005  0.8926982E+03  0.7818608E-02  0.9434755E-01
         -2   -1    0    0    0  501 -0.00000000000E+00  0.00000000000E+00  0.47586433176E+03  0.47586433177E+03  0.25500000000E-02 0. -1.
          2   -1    0    0  501    0  0.00000000000E+00 -0.00000000000E+00 -0.41866451662E+03  0.41866451662E+03  0.25500000000E-02 0.  1.
   -5000001    1    1    2    0    0  0.20891152223E+03  0.10451062528E+03  0.31582514734E+03  0.46563077498E+03  0.25000000000E+03 0.  0.
    5000001    1    1    2    0    0 -0.20891152223E+03 -0.10451062528E+03 -0.25862533220E+03  0.42889807341E+03  0.25000000000E+03 0.  0.
<mgrwt>
<rscale>  0 0.89269818E+03</rscale>
<asrwt>0</asrwt>
<pdfrwt beam="1">  1        2 0.64409926E-01 0.89269818E+03</pdfrwt>
<pdfrwt beam="2">  1       -2 0.73209897E-01 0.89269818E+03</pdfrwt>
<totfact> 0.12776051E+02</totfact>
</mgrwt>
</event>
<event>
 4    1  0.1805887E-005  0.5591851E+03  0.7818608E-02  0.9993900E-01
         -2   -1    0    0    0  501 -0.00000000000E+00  0.00000000000E+00  0.38475201310E+02  0.38475201394E+02  0.25500000000E-02 0. -1.
          2   -1    0    0  501    0  0.00000000000E+00 -0.00000000000E+00 -0.20317501106E+04  0.20317501106E+04  0.25500000000E-02 0.  1.
   -5000001    1    1    2    0    0  0.81464311531E+02  0.56821720383E+02 -0.71451839692E+03  0.76347998107E+03  0.25000000000E+03 0.  0.
    5000001    1    1    2    0    0 -0.81464311531E+02 -0.56821720383E+02 -0.12787565124E+04  0.13067453309E+04  0.25000000000E+03 0.  0.
<mgrwt>
<rscale>  0 0.55918510E+03</rscale>
<asrwt>0</asrwt>
<pdfrwt beam="1">  1        2 0.31257686E+00 0.55918510E+03</pdfrwt>
<pdfrwt beam="2">  1       -2 0.59192634E-02 0.55918510E+03</pdfrwt>
<totfact> 0.10541580E+03</totfact>
</mgrwt>
</event>
<event>
 4    1  0.1805887E-005  0.1483724E+04  0.7818608E-02  0.8895349E-01
         -2   -1    0    0    0  501 -0.00000000000E+00  0.00000000000E+00  0.61291047717E+03  0.61291047718E+03  0.25500000000E-02 0. -1.
          2   -1    0    0  501    0  0.00000000000E+00 -0.00000000000E+00 -0.89794354633E+03  0.89794354634E+03  0.25500000000E-02 0.  1.
   -5000001    1    1    2    0    0  0.47791981769E+03  0.50008280192E+03 -0.43953847903E+02  0.73683247870E+03  0.25000000000E+03 0.  0.
    5000001    1    1    2    0    0 -0.47791981769E+03 -0.50008280192E+03 -0.24107922125E+03  0.77402154482E+03  0.25000000000E+03 0.  0.
<mgrwt>
<rscale>  0 0.14837237E+04</rscale>
<asrwt>0</asrwt>
<pdfrwt beam="1">  1        2 0.13814516E+00 0.14837237E+04</pdfrwt>
<pdfrwt beam="2">  1       -2 0.94293919E-01 0.14837237E+04</pdfrwt>
<totfact> 0.26994443E+01</totfact>
</mgrwt>
</event>
<event>
 4    1  0.1805887E-005  0.6612402E+03  0.7818608E-02  0.9785913E-01
         -2   -1    0    0    0  501 -0.00000000000E+00  0.00000000000E+00  0.15992083854E+03  0.15992083856E+03  0.25500000000E-02 0. -1.
          2   -1    0    0  501    0  0.00000000000E+00 -0.00000000000E+00 -0.68352344068E+03  0.68352344068E+03  0.25500000000E-02 0.  1.
   -5000001    1    1    2    0    0  0.35624616796E+02 -0.21251266350E+03 -0.28663019479E+03  0.43713569293E+03  0.25000000000E+03 0.  0.
    5000001    1    1    2    0    0 -0.35624616796E+02  0.21251266350E+03 -0.23697240735E+03  0.40630858631E+03  0.25000000000E+03 0.  0.
<mgrwt>
<rscale>  0 0.66124017E+03</rscale>
<asrwt>0</asrwt>
<pdfrwt beam="1">  1        2 0.10515745E+00 0.66124017E+03</pdfrwt>
<pdfrwt beam="2">  1       -2 0.24603206E-01 0.66124017E+03</pdfrwt>
<totfact> 0.62662107E+02</totfact>
</mgrwt>
</event>
<event>
 4    1  0.1805887E-005  0.1985981E+04  0.7818608E-02  0.8613203E-01
         -2   -1    0    0    0  501 -0.00000000000E+00  0.00000000000E+00  0.61804789816E+03  0.61804789817E+03  0.25500000000E-02 0. -1.
          2   -1    0    0  501    0  0.00000000000E+00 -0.00000000000E+00 -0.15953947939E+04  0.15953947939E+04  0.25500000000E-02 0.  1.
   -5000001    1    1    2    0    0 -0.48615529840E+03  0.15502273115E+03  0.41893697056E+03  0.70596544295E+03  0.25000000000E+03 0.  0.
    5000001    1    1    2    0    0  0.48615529840E+03 -0.15502273115E+03 -0.13962838663E+04  0.15074772491E+04  0.25000000000E+03 0.  0.
<mgrwt>
<rscale>  0 0.19859813E+04</rscale>
<asrwt>0</asrwt>
<pdfrwt beam="1">  1        2 0.24544535E+00 0.19859813E+04</pdfrwt>
<pdfrwt beam="2">  1       -2 0.95084293E-01 0.19859813E+04</pdfrwt>
<totfact> 0.97052292E+00</totfact>
</mgrwt>
</event>
<event>
 4    1  0.1805887E-005  0.7197578E+03  0.7818608E-02  0.9684028E-01
          2   -1    0    0  501    0  0.00000000000E+00  0.00000000000E+00  0.22315945180E+04  0.22315945180E+04  0.25500000000E-02 0.  1.
         -2   -1    0    0    0  501 -0.00000000000E+00 -0.00000000000E+00 -0.58036004818E+02  0.58036004874E+02  0.25500000000E-02 0. -1.
   -5000001    1    1    2    0    0 -0.12912317749E+03  0.19303002997E+03  0.72297009189E+03  0.79944927369E+03  0.25000000000E+03 0.  0.
    5000001    1    1    2    0    0  0.12912317749E+03 -0.19303002997E+03  0.14505884213E+04  0.14901812492E+04  0.25000000000E+03 0.  0.
<mgrwt>
<rscale>  0 0.71975782E+03</rscale>
<asrwt>0</asrwt>
<pdfrwt beam="1">  1        2 0.34332219E+00 0.71975782E+03</pdfrwt>
<pdfrwt beam="2">  1       -2 0.89286172E-02 0.71975782E+03</pdfrwt>
<totfact> 0.42200930E+02</totfact>
</mgrwt>
</event>
<event>
 4    1  0.1805887E-005  0.7852230E+03  0.7818608E-02  0.9581656E-01
         -2   -1    0    0    0  501 -0.00000000000E+00  0.00000000000E+00  0.43211329075E+02  0.43211329150E+02  0.25500000000E-02 0. -1.
          2   -1    0    0  501    0  0.00000000000E+00 -0.00000000000E+00 -0.35672075573E+04  0.35672075573E+04  0.25500000000E-02 0.  1.
   -5000001    1    1    2    0    0 -0.23341405031E+03 -0.17223294781E+03 -0.21601254866E+04  0.21938068340E+04  0.25000000000E+03 0.  0.
    5000001    1    1    2    0    0  0.23341405031E+03  0.17223294781E+03 -0.13638707417E+04  0.14166120525E+04  0.25000000000E+03 0.  0.
<mgrwt>
<rscale>  0 0.78522297E+03</rscale>
<asrwt>0</asrwt>
<pdfrwt beam="1">  1        2 0.54880093E+00 0.78522297E+03</pdfrwt>
<pdfrwt beam="2">  1       -2 0.66478996E-02 0.78522297E+03</pdfrwt>
<totfact> 0.10340285E+02</totfact>
</mgrwt>
</event>
<event>
 4    1  0.1805887E-005  0.1269651E+04  0.7818608E-02  0.9053985E-01
          2   -1    0    0  501    0  0.00000000000E+00  0.00000000000E+00  0.66477556804E+03  0.66477556805E+03  0.25500000000E-02 0.  1.
         -2   -1    0    0    0  501 -0.00000000000E+00 -0.00000000000E+00 -0.60622437255E+03  0.60622437256E+03  0.25500000000E-02 0. -1.
   -5000001    1    1    2    0    0 -0.23868609744E+03  0.43996583058E+03  0.32953130144E+03  0.64933185954E+03  0.25000000000E+03 0.  0.
    5000001    1    1    2    0    0  0.23868609744E+03 -0.43996583058E+03 -0.27098010595E+03  0.62166808106E+03  0.25000000000E+03 0.  0.
<mgrwt>
<rscale>  0 0.12696506E+04</rscale>
<asrwt>0</asrwt>
<pdfrwt beam="1">  1        2 0.10227316E+00 0.12696506E+04</pdfrwt>
<pdfrwt beam="2">  1       -2 0.93265288E-01 0.12696506E+04</pdfrwt>
<totfact> 0.41799107E+01</totfact>
</mgrwt>
</event>
<event>
 4    1  0.1805887E-005  0.1297783E+04  0.7818608E-02  0.9031325E-01
          2   -1    0    0  501    0  0.00000000000E+00  0.00000000000E+00  0.31322021793E+04  0.31322021793E+04  0.25500000000E-02 0.  1.
         -2   -1    0    0    0  501 -0.00000000000E+00 -0.00000000000E+00 -0.13442943070E+03  0.13442943072E+03  0.25500000000E-02 0. -1.
   -5000001    1    1    2    0    0 -0.51746116416E+03 -0.30131283387E+03  0.14934436690E+04  0.16283210595E+04  0.25000000000E+03 0.  0.
    5000001    1    1    2    0    0  0.51746116416E+03  0.30131283387E+03  0.15043290795E+04  0.16383105505E+04  0.25000000000E+03 0.  0.
<mgrwt>
<rscale>  0 0.12977830E+04</rscale>
<asrwt>0</asrwt>
<pdfrwt beam="1">  1        2 0.48187724E+00 0.12977830E+04</pdfrwt>
<pdfrwt beam="2">  1       -2 0.20681452E-01 0.12977830E+04</pdfrwt>
<totfact> 0.28734393E+01</totfact>
</mgrwt>
</event>
<event>
 4    1  0.1805887E-005  0.6002754E+03  0.7818608E-02  0.9904835E-01
         -2   -1    0    0    0  501 -0.00000000000E+00  0.00000000000E+00  0.99813185210E+02  0.99813185242E+02  0.25500000000E-02 0. -1.
          2   -1    0    0  501    0  0.00000000000E+00 -0.00000000000E+00 -0.90251246623E+03  0.90251246624E+03  0.25500000000E-02 0.  1.
   -5000001    1    1    2    0    0  0.94237251755E+02 -0.69255301694E+02 -0.59825363216E+03  0.65885079102E+03  0.25000000000E+03 0.  0.
    5000001    1    1    2    0    0 -0.94237251755E+02  0.69255301694E+02 -0.20444564887E+03  0.34347486046E+03  0.25000000000E+03 0.  0.
<mgrwt>
<rscale>  0 0.60027542E+03</rscale>
<asrwt>0</asrwt>
<pdfrwt beam="1">  1        2 0.13884807E+00 0.60027542E+03</pdfrwt>
<pdfrwt beam="2">  1       -2 0.15355875E-01 0.60027542E+03</pdfrwt>
<totfact> 0.98984654E+02</totfact>
</mgrwt>
</event>
<event>
 4    1  0.1805887E-005  0.9170576E+03  0.7818608E-02  0.9404506E-01
         -2   -1    0    0    0  501 -0.00000000000E+00  0.00000000000E+00  0.28723916717E+03  0.28723916718E+03  0.25500000000E-02 0. -1.
          2   -1    0    0  501    0  0.00000000000E+00 -0.00000000000E+00 -0.73196375929E+03  0.73196375929E+03  0.25500000000E-02 0.  1.
   -5000001    1    1    2    0    0  0.20601262284E+03 -0.29026530298E+03 -0.38362217947E+03  0.57996648477E+03  0.25000000000E+03 0.  0.
    5000001    1    1    2    0    0 -0.20601262284E+03  0.29026530298E+03 -0.61102412651E+02  0.43923644170E+03  0.25000000000E+03 0.  0.
<mgrwt>
<rscale>  0 0.91705760E+03</rscale>
<asrwt>0</asrwt>
<pdfrwt beam="1">  1        2 0.11260981E+00 0.91705760E+03</pdfrwt>
<pdfrwt beam="2">  1       -2 0.44190641E-01 0.91705760E+03</pdfrwt>
<totfact> 0.18831374E+02</totfact>
</mgrwt>
</event>
<event>
 4    1  0.1805887E-005  0.5945796E+03  0.7818608E-02  0.9916716E-01
         -2   -1    0    0    0  501 -0.00000000000E+00  0.00000000000E+00  0.18982162926E+03  0.18982162928E+03  0.25500000000E-02 0. -1.
          2   -1    0    0  501    0  0.00000000000E+00 -0.00000000000E+00 -0.46560150204E+03  0.46560150205E+03  0.25500000000E-02 0.  1.
   -5000001    1    1    2    0    0  0.28264469915E+02 -0.15793530766E+03 -0.12490328578E+03  0.32224722258E+03  0.25000000000E+03 0.  0.
    5000001    1    1    2    0    0 -0.28264469915E+02  0.15793530766E+03 -0.15087658700E+03  0.33317590875E+03  0.25000000000E+03 0.  0.
<mgrwt>
<rscale>  0 0.59457964E+03</rscale>
<asrwt>0</asrwt>
<pdfrwt beam="1">  1        2 0.71631000E-01 0.59457964E+03</pdfrwt>
<pdfrwt beam="2">  1       -2 0.29203328E-01 0.59457964E+03</pdfrwt>
<totfact> 0.72467399E+02</totfact>
</mgrwt>
</event>
<event>
 4    1  0.1805887E-005  0.5357311E+03  0.7818608E-02  0.1004852E+00
          2   -1    0    0  501    0  0.00000000000E+00  0.00000000000E+00  0.20196997930E+04  0.20196997930E+04  0.25500000000E-02 0.  1.
         -2   -1    0    0    0  501 -0.00000000000E+00 -0.00000000000E+00 -0.35526043899E+02  0.35526043991E+02  0.25500000000E-02 0. -1.
   -5000001    1    1    2    0    0 -0.63902877456E+02  0.37292304433E+02  0.12278758921E+04  0.12552503735E+04  0.25000000000E+03 0.  0.
    5000001    1    1    2    0    0  0.63902877456E+02 -0.37292304433E+02  0.75629785695E+03  0.79997546346E+03  0.25000000000E+03 0.  0.
<mgrwt>
<rscale>  0 0.53573107E+03</rscale>
<asrwt>0</asrwt>
<pdfrwt beam="1">  1        2 0.31072311E+00 0.53573107E+03</pdfrwt>
<pdfrwt beam="2">  1       -2 0.54655441E-02 0.53573107E+03</pdfrwt>
<totfact> 0.12135381E+03</totfact>
</mgrwt>
</event>
<event>
 4    1  0.1805887E-005  0.6678425E+03  0.7818608E-02  0.9773863E-01
         -2   -1    0    0    0  501 -0.00000000000E+00  0.00000000000E+00  0.15903180027E+03  0.15903180029E+03  0.25500000000E-02 0. -1.
          2   -1    0    0  501    0  0.00000000000E+00 -0.00000000000E+00 -0.70113905248E+03  0.70113905248E+03  0.25500000000E-02 0.  1.
   -5000001    1    1    2    0    0 -0.21960592691E+03 -0.25895155806E+02 -0.25778778925E+03  0.42172487064E+03  0.25000000000E+03 0.  0.
    5000001    1    1    2    0    0  0.21960592691E+03  0.25895155806E+02 -0.28431946296E+03  0.43844598213E+03  0.25000000000E+03 0.  0.
<mgrwt>
<rscale>  0 0.66784251E+03</rscale>
<asrwt>0</asrwt>
<pdfrwt beam="1">  1        2 0.10786755E+00 0.66784251E+03</pdfrwt>
<pdfrwt beam="2">  1       -2 0.24466431E-01 0.66784251E+03</pdfrwt>
<totfact> 0.61295448E+02</totfact>
</mgrwt>
</event>
<event>
 4    1  0.1805887E-005  0.7167193E+03  0.7818608E-02  0.9689060E-01
          2   -1    0    0  501    0  0.00000000000E+00  0.00000000000E+00  0.22798865521E+04  0.22798865521E+04  0.25500000000E-02 0.  1.
         -2   -1    0    0    0  501 -0.00000000000E+00 -0.00000000000E+00 -0.56328084599E+02  0.56328084657E+02  0.25500000000E-02 0. -1.
   -5000001    1    1    2    0    0  0.25606375907E+03  0.17596071786E+02  0.10903123324E+04  0.11476755868E+04  0.25000000000E+03 0.  0.
    5000001    1    1    2    0    0 -0.25606375907E+03 -0.17596071786E+02  0.11332461351E+04  0.11885390499E+04  0.25000000000E+03 0.  0.
<mgrwt>
<rscale>  0 0.71671931E+03</rscale>
<asrwt>0</asrwt>
<pdfrwt beam="1">  1        2 0.35075175E+00 0.71671931E+03</pdfrwt>
<pdfrwt beam="2">  1       -2 0.86658599E-02 0.71671931E+03</pdfrwt>
<totfact> 0.41651800E+02</totfact>
</mgrwt>
</event>
<event>
 4    1  0.1805887E-005  0.6751718E+03  0.7818608E-02  0.9760660E-01
         -2   -1    0    0    0  501 -0.00000000000E+00  0.00000000000E+00  0.67804301622E+03  0.67804301622E+03  0.25500000000E-02 0. -1.
          2   -1    0    0  501    0  0.00000000000E+00 -0.00000000000E+00 -0.16807817466E+03  0.16807817468E+03  0.25500000000E-02 0.  1.
   -5000001    1    1    2    0    0 -0.18744817783E+03  0.91398579579E+02  0.36688718738E+03  0.49050660340E+03  0.25000000000E+03 0.  0.
    5000001    1    1    2    0    0  0.18744817783E+03 -0.91398579579E+02  0.14307765417E+03  0.35561458750E+03  0.25000000000E+03 0.  0.
<mgrwt>
<rscale>  0 0.67517178E+03</rscale>
<asrwt>0</asrwt>
<pdfrwt beam="1">  1        2 0.25858181E-01 0.67517178E+03</pdfrwt>
<pdfrwt beam="2">  1       -2 0.10431431E+00 0.67517178E+03</pdfrwt>
<totfact> 0.15916651E+02</totfact>
</mgrwt>
</event>
<event>
 4    1  0.1805887E-005  0.7912834E+03  0.7818608E-02  0.9572720E-01
         -2   -1    0    0    0  501 -0.00000000000E+00  0.00000000000E+00  0.14051802970E+04  0.14051802970E+04  0.25500000000E-02 0. -1.
          2   -1    0    0  501    0  0.00000000000E+00 -0.00000000000E+00 -0.11139664636E+03  0.11139664639E+03  0.25500000000E-02 0.  1.
   -5000001    1    1    2    0    0 -0.23094966240E+03  0.38215208832E+02  0.26725799881E+03  0.43442489187E+03  0.25000000000E+03 0.  0.
    5000001    1    1    2    0    0  0.23094966240E+03 -0.38215208832E+02  0.10265256518E+04  0.10821520515E+04  0.25000000000E+03 0.  0.
<mgrwt>
<rscale>  0 0.79128345E+03</rscale>
<asrwt>0</asrwt>
<pdfrwt beam="1">  1        2 0.17137946E-01 0.79128345E+03</pdfrwt>
<pdfrwt beam="2">  1       -2 0.21618158E+00 0.79128345E+03</pdfrwt>
<totfact> 0.36296114E+01</totfact>
</mgrwt>
</event>
<event>
 4    1  0.1805887E-005  0.6615174E+03  0.7818608E-02  0.9785404E-01
         -2   -1    0    0    0  501 -0.00000000000E+00  0.00000000000E+00  0.52513419508E+03  0.52513419509E+03  0.25500000000E-02 0. -1.
          2   -1    0    0  501    0  0.00000000000E+00 -0.00000000000E+00 -0.20833023788E+03  0.20833023790E+03  0.25500000000E-02 0.  1.
   -5000001    1    1    2    0    0  0.18756338285E+03 -0.63273184795E+02  0.25580779546E+03  0.40880453363E+03  0.25000000000E+03 0.  0.
    5000001    1    1    2    0    0 -0.18756338285E+03  0.63273184795E+02  0.60996161741E+02  0.32465989935E+03  0.25000000000E+03 0.  0.
<mgrwt>
<rscale>  0 0.66151744E+03</rscale>
<asrwt>0</asrwt>
<pdfrwt beam="1">  1        2 0.32050806E-01 0.66151744E+03</pdfrwt>
<pdfrwt beam="2">  1       -2 0.80789877E-01 0.66151744E+03</pdfrwt>
<totfact> 0.22565097E+02</totfact>
</mgrwt>
</event>
<event>
 4    1  0.1805887E-005  0.1005411E+04  0.7818608E-02  0.9302630E-01
         -2   -1    0    0    0  501 -0.00000000000E+00  0.00000000000E+00  0.76122813145E+02  0.76122813188E+02  0.25500000000E-02 0. -1.
          2   -1    0    0  501    0  0.00000000000E+00 -0.00000000000E+00 -0.33198032436E+04  0.33198032436E+04  0.25500000000E-02 0.  1.
   -5000001    1    1    2    0    0  0.33934177568E+03  0.72865741428E+02 -0.25138884142E+04  0.25500190619E+04  0.25000000000E+03 0.  0.
    5000001    1    1    2    0    0 -0.33934177568E+03 -0.72865741428E+02 -0.72979201618E+03  0.84590699482E+03  0.25000000000E+03 0.  0.
<mgrwt>
<rscale>  0 0.10054109E+04</rscale>
<asrwt>0</asrwt>
<pdfrwt beam="1">  1        2 0.51073885E+00 0.10054109E+04</pdfrwt>
<pdfrwt beam="2">  1       -2 0.11711205E-01 0.10054109E+04</pdfrwt>
<totfact> 0.59198622E+01</totfact>
</mgrwt>
</event>
<event>
 4    1  0.1805887E-005  0.8289979E+03  0.7818608E-02  0.9518967E-01
          2   -1    0    0  501    0  0.00000000000E+00  0.00000000000E+00  0.61265915613E+03  0.61265915614E+03  0.25500000000E-02 0.  1.
         -2   -1    0    0    0  501 -0.00000000000E+00 -0.00000000000E+00 -0.28043221549E+03  0.28043221550E+03  0.25500000000E-02 0. -1.
   -5000001    1    1    2    0    0 -0.20381796846E+03  0.25690629377E+03  0.21139601512E+03  0.46339063786E+03  0.25000000000E+03 0.  0.
    5000001    1    1    2    0    0  0.20381796846E+03 -0.25690629377E+03  0.12083092552E+03  0.42970073378E+03  0.25000000000E+03 0.  0.
<mgrwt>
<rscale>  0 0.82899786E+03</rscale>
<asrwt>0</asrwt>
<pdfrwt beam="1">  1        2 0.94255255E-01 0.82899786E+03</pdfrwt>
<pdfrwt beam="2">  1       -2 0.43143418E-01 0.82899786E+03</pdfrwt>
<totfact> 0.24764273E+02</totfact>
</mgrwt>
</event>
<event>
 4    1  0.1805887E-005  0.7412577E+03  0.7818608E-02  0.9649166E-01
          2   -1    0    0  501    0  0.00000000000E+00  0.00000000000E+00  0.42466104560E+03  0.42466104561E+03  0.25500000000E-02 0.  1.
         -2   -1    0    0    0  501 -0.00000000000E+00 -0.00000000000E+00 -0.32347149009E+03  0.32347149010E+03  0.25500000000E-02 0. -1.
   -5000001    1    1    2    0    0 -0.88391841166E+01 -0.27286063597E+03  0.69058803559E+02  0.37656364161E+03  0.25000000000E+03 0.  0.
    5000001    1    1    2    0    0  0.88391841166E+01  0.27286063597E+03  0.32130751948E+02  0.37156889409E+03  0.25000000000E+03 0.  0.
<mgrwt>
<rscale>  0 0.74125769E+03</rscale>
<asrwt>0</asrwt>
<pdfrwt beam="1">  1        2 0.65332468E-01 0.74125769E+03</pdfrwt>
<pdfrwt beam="2">  1       -2 0.49764845E-01 0.74125769E+03</pdfrwt>
<totfact> 0.28633546E+02</totfact>
</mgrwt>
</event>
<event>
 4    1  0.1805887E-005  0.6175926E+03  0.7818608E-02  0.9869565E-01
          2   -1    0    0  501    0  0.00000000000E+00  0.00000000000E+00  0.32066217958E+03  0.32066217959E+03  0.25500000000E-02 0. -1.
         -2   -1    0    0    0  501 -0.00000000000E+00 -0.00000000000E+00 -0.29736947395E+03  0.29736947396E+03  0.25500000000E-02 0.  1.
   -5000001    1    1    2    0    0 -0.14767144618E+03  0.73070843476E+02  0.87257596282E+02  0.31186550353E+03  0.25000000000E+03 0.  0.
    5000001    1    1    2    0    0  0.14767144618E+03 -0.73070843476E+02 -0.63964890650E+02  0.30616615002E+03  0.25000000000E+03 0.  0.
<mgrwt>
<rscale>  0 0.61759256E+03</rscale>
<asrwt>0</asrwt>
<pdfrwt beam="1">  1        2 0.49332643E-01 0.61759256E+03</pdfrwt>
<pdfrwt beam="2">  1       -2 0.45749150E-01 0.61759256E+03</pdfrwt>
<totfact> 0.46577115E+02</totfact>
</mgrwt>
</event>
<event>
 4    1  0.1805887E-005  0.6539627E+03  0.7818608E-02  0.9799372E-01
         -2   -1    0    0    0  501 -0.00000000000E+00  0.00000000000E+00  0.61112582719E+02  0.61112582772E+02  0.25500000000E-02 0. -1.
          2   -1    0    0  501    0  0.00000000000E+00 -0.00000000000E+00 -0.17495057556E+04  0.17495057556E+04  0.25500000000E-02 0.  1.
   -5000001    1    1    2    0    0  0.38059828654E+02  0.74133486191E+02 -0.30823928271E+03  0.40553147811E+03  0.25000000000E+03 0.  0.
    5000001    1    1    2    0    0 -0.38059828654E+02 -0.74133486191E+02 -0.13801538901E+04  0.14050868602E+04  0.25000000000E+03 0.  0.
<mgrwt>
<rscale>  0 0.65396274E+03</rscale>
<asrwt>0</asrwt>
<pdfrwt beam="1">  1        2 0.26915469E+00 0.65396274E+03</pdfrwt>
<pdfrwt beam="2">  1       -2 0.94019372E-02 0.65396274E+03</pdfrwt>
<totfact> 0.71450411E+02</totfact>
</mgrwt>
</event>
<event>
 4    1  0.1805887E-005  0.6919942E+03  0.7818608E-02  0.9731022E-01
          2   -1    0    0  501    0  0.00000000000E+00  0.00000000000E+00  0.19205611258E+04  0.19205611258E+04  0.25500000000E-02 0.  1.
         -2   -1    0    0    0  501 -0.00000000000E+00 -0.00000000000E+00 -0.62332817201E+02  0.62332817253E+02  0.25500000000E-02 0. -1.
   -5000001    1    1    2    0    0 -0.19788517358E+03 -0.11601061393E+03  0.11233965311E+04  0.11735147083E+04  0.25000000000E+03 0.  0.
    5000001    1    1    2    0    0  0.19788517358E+03  0.11601061393E+03  0.73483177757E+03  0.80937923485E+03  0.25000000000E+03 0.  0.
<mgrwt>
<rscale>  0 0.69199418E+03</rscale>
<asrwt>0</asrwt>
<pdfrwt beam="1">  1        2 0.29547087E+00 0.69199418E+03</pdfrwt>
<pdfrwt beam="2">  1       -2 0.95896665E-02 0.69199418E+03</pdfrwt>
<totfact> 0.55734427E+02</totfact>
</mgrwt>
</event>
<event>
 4    1  0.1805887E-005  0.5858221E+03  0.7818608E-02  0.9935265E-01
          2   -1    0    0  501    0  0.00000000000E+00  0.00000000000E+00  0.63235300969E+03  0.63235300970E+03  0.25500000000E-02 0.  1.
         -2   -1    0    0    0  501 -0.00000000000E+00 -0.00000000000E+00 -0.13567878098E+03  0.13567878100E+03  0.25500000000E-02 0. -1.
   -5000001    1    1    2    0    0  0.10635800519E+02  0.15187293761E+03  0.26260124874E+03  0.39324028948E+03  0.25000000000E+03 0.  0.
    5000001    1    1    2    0    0 -0.10635800519E+02 -0.15187293761E+03  0.23407297997E+03  0.37479150122E+03  0.25000000000E+03 0.  0.
<mgrwt>
<rscale>  0 0.58582211E+03</rscale>
<asrwt>0</asrwt>
<pdfrwt beam="1">  1        2 0.97285076E-01 0.58582211E+03</pdfrwt>
<pdfrwt beam="2">  1       -2 0.20873659E-01 0.58582211E+03</pdfrwt>
<totfact> 0.92452972E+02</totfact>
</mgrwt>
</event>
<event>
 4    1  0.1805887E-005  0.1453801E+04  0.7818608E-02  0.8915770E-01
         -2   -1    0    0    0  501 -0.00000000000E+00  0.00000000000E+00  0.31646941575E+03  0.31646941576E+03  0.25500000000E-02 0. -1.
          2   -1    0    0  501    0  0.00000000000E+00 -0.00000000000E+00 -0.16696218292E+04  0.16696218292E+04  0.25500000000E-02 0.  1.
   -5000001    1    1    2    0    0  0.45127678214E+03 -0.49993161903E+03 -0.82809975742E+03  0.10962807880E+04  0.25000000000E+03 0.  0.
    5000001    1    1    2    0    0 -0.45127678214E+03  0.49993161903E+03 -0.52505265602E+03  0.88981045701E+03  0.25000000000E+03 0.  0.
<mgrwt>
<rscale>  0 0.14538009E+04</rscale>
<asrwt>0</asrwt>
<pdfrwt beam="1">  1        2 0.25686489E+00 0.14538009E+04</pdfrwt>
<pdfrwt beam="2">  1       -2 0.48687603E-01 0.14538009E+04</pdfrwt>
<totfact> 0.39487979E+01</totfact>
</mgrwt>
</event>
<event>
 4    1  0.1805887E-005  0.6331622E+03  0.7818608E-02  0.9838897E-01
          2   -1    0    0  501    0  0.00000000000E+00  0.00000000000E+00  0.30089002488E+03  0.30089002489E+03  0.25500000000E-02 0.  1.
         -2   -1    0    0    0  501 -0.00000000000E+00 -0.00000000000E+00 -0.33309039980E+03  0.33309039981E+03  0.25500000000E-02 0. -1.
   -5000001    1    1    2    0    0 -0.15931892465E+03 -0.65547412740E-01 -0.12733405492E+03  0.32263986981E+03  0.25000000000E+03 0.  0.
    5000001    1    1    2    0    0  0.15931892465E+03  0.65547412740E-01  0.95133679999E+02  0.31134055489E+03  0.25000000000E+03 0.  0.
<mgrwt>
<rscale>  0 0.63316216E+03</rscale>
<asrwt>0</asrwt>
<pdfrwt beam="1">  1        2 0.46290773E-01 0.63316216E+03</pdfrwt>
<pdfrwt beam="2">  1       -2 0.51244677E-01 0.63316216E+03</pdfrwt>
<totfact> 0.39745776E+02</totfact>
</mgrwt>
</event>
<event>
 4    1  0.1805887E-005  0.8971703E+03  0.7818608E-02  0.9429126E-01
          2   -1    0    0  501    0  0.00000000000E+00  0.00000000000E+00  0.14349091171E+04  0.14349091171E+04  0.25500000000E-02 0.  1.
         -2   -1    0    0    0  501 -0.00000000000E+00 -0.00000000000E+00 -0.14023790555E+03  0.14023790557E+03  0.25500000000E-02 0. -1.
   -5000001    1    1    2    0    0 -0.18004019006E+03  0.29776036215E+03  0.88060340422E+03  0.97930488553E+03  0.25000000000E+03 0.  0.
    5000001    1    1    2    0    0  0.18004019006E+03 -0.29776036215E+03  0.41406780729E+03  0.59584213709E+03  0.25000000000E+03 0.  0.
<mgrwt>
<rscale>  0 0.89717033E+03</rscale>
<asrwt>0</asrwt>
<pdfrwt beam="1">  1        2 0.22075526E+00 0.89717033E+03</pdfrwt>
<pdfrwt beam="2">  1       -2 0.21575061E-01 0.89717033E+03</pdfrwt>
<totfact> 0.25893796E+02</totfact>
</mgrwt>
</event>
<event>
 4    1  0.1805887E-005  0.5625945E+03  0.7818608E-02  0.9986201E-01
         -2   -1    0    0    0  501 -0.00000000000E+00  0.00000000000E+00  0.10077032539E+03  0.10077032543E+03  0.25500000000E-02 0. -1.
          2   -1    0    0  501    0  0.00000000000E+00 -0.00000000000E+00 -0.78523258734E+03  0.78523258734E+03  0.25500000000E-02 0.  1.
   -5000001    1    1    2    0    0 -0.65239988141E+02  0.41064376568E+02 -0.17943682538E+03  0.31723825964E+03  0.25000000000E+03 0.  0.
    5000001    1    1    2    0    0  0.65239988141E+02 -0.41064376568E+02 -0.50502543656E+03  0.56876465313E+03  0.25000000000E+03 0.  0.
<mgrwt>
<rscale>  0 0.56259450E+03</rscale>
<asrwt>0</asrwt>
<pdfrwt beam="1">  1        2 0.12080501E+00 0.56259450E+03</pdfrwt>
<pdfrwt beam="2">  1       -2 0.15503127E-01 0.56259450E+03</pdfrwt>
<totfact> 0.11749929E+03</totfact>
</mgrwt>
</event>
<event>
 4    1  0.1805887E-005  0.6118197E+03  0.7818608E-02  0.9881183E-01
         -2   -1    0    0    0  501 -0.00000000000E+00  0.00000000000E+00  0.39982378226E+03  0.39982378227E+03  0.25500000000E-02 0. -1.
          2   -1    0    0  501    0  0.00000000000E+00 -0.00000000000E+00 -0.23405519636E+03  0.23405519637E+03  0.25500000000E-02 0.  1.
   -5000001    1    1    2    0    0  0.95093843425E+02  0.14223121955E+03  0.12694131492E+03  0.32846104229E+03  0.25000000000E+03 0.  0.
    5000001    1    1    2    0    0 -0.95093843425E+02 -0.14223121955E+03  0.38827270984E+02  0.30541793635E+03  0.25000000000E+03 0.  0.
<mgrwt>
<rscale>  0 0.61181969E+03</rscale>
<asrwt>0</asrwt>
<pdfrwt beam="1">  1        2 0.36008492E-01 0.61181969E+03</pdfrwt>
<pdfrwt beam="2">  1       -2 0.61511351E-01 0.61181969E+03</pdfrwt>
<totfact> 0.35947806E+02</totfact>
</mgrwt>
</event>
<event>
 4    1  0.1805887E-005  0.1117237E+04  0.7818608E-02  0.9188552E-01
         -2   -1    0    0    0  501 -0.00000000000E+00  0.00000000000E+00  0.62984815818E+03  0.62984815818E+03  0.25500000000E-02 0. -1.
          2   -1    0    0  501    0  0.00000000000E+00 -0.00000000000E+00 -0.49544432301E+03  0.49544432302E+03  0.25500000000E-02 0.  1.
   -5000001    1    1    2    0    0 -0.43258952588E+03 -0.24982417576E+03  0.64200897412E+02  0.56228780168E+03  0.25000000000E+03 0.  0.
    5000001    1    1    2    0    0  0.43258952588E+03  0.24982417576E+03  0.70202937754E+02  0.56300467952E+03  0.25000000000E+03 0.  0.
<mgrwt>
<rscale>  0 0.11172371E+04</rscale>
<asrwt>0</asrwt>
<pdfrwt beam="1">  1        2 0.76222203E-01 0.11172371E+04</pdfrwt>
<pdfrwt beam="2">  1       -2 0.96899717E-01 0.11172371E+04</pdfrwt>
<totfact> 0.54942609E+01</totfact>
</mgrwt>
</event>
<event>
 4    1  0.1805887E-005  0.6179467E+03  0.7818608E-02  0.9868856E-01
          2   -1    0    0  501    0  0.00000000000E+00  0.00000000000E+00  0.15293587436E+04  0.15293587436E+04  0.25500000000E-02 0.  1.
         -2   -1    0    0    0  501 -0.00000000000E+00 -0.00000000000E+00 -0.62421273582E+02  0.62421273634E+02  0.25500000000E-02 0. -1.
   -5000001    1    1    2    0    0 -0.86840694192E+02  0.78237738512E+02  0.10913459143E+04  0.11256990515E+04  0.25000000000E+03 0.  0.
    5000001    1    1    2    0    0  0.86840694192E+02 -0.78237738512E+02  0.37559155574E+03  0.46608096576E+03  0.25000000000E+03 0.  0.
<mgrwt>
<rscale>  0 0.61794667E+03</rscale>
<asrwt>0</asrwt>
<pdfrwt beam="1">  1        2 0.23528596E+00 0.61794667E+03</pdfrwt>
<pdfrwt beam="2">  1       -2 0.96032729E-02 0.61794667E+03</pdfrwt>
<totfact> 0.91268176E+02</totfact>
</mgrwt>
</event>
<event>
 4    1  0.1805887E-005  0.6777359E+03  0.7818608E-02  0.9756083E-01
          2   -1    0    0  501    0  0.00000000000E+00  0.00000000000E+00  0.25102061729E+03  0.25102061730E+03  0.25500000000E-02 0.  1.
         -2   -1    0    0    0  501 -0.00000000000E+00 -0.00000000000E+00 -0.45745833928E+03  0.45745833929E+03  0.25500000000E-02 0. -1.
   -5000001    1    1    2    0    0  0.71794121918E+02 -0.21655689390E+03 -0.85720669151E+02  0.34914082740E+03  0.25000000000E+03 0.  0.
    5000001    1    1    2    0    0 -0.71794121918E+02  0.21655689390E+03 -0.12071705284E+03  0.35933812918E+03  0.25000000000E+03 0.  0.
<mgrwt>
<rscale>  0 0.67773586E+03</rscale>
<asrwt>0</asrwt>
<pdfrwt beam="1">  1        2 0.38618557E-01 0.67773586E+03</pdfrwt>
<pdfrwt beam="2">  1       -2 0.70378206E-01 0.67773586E+03</pdfrwt>
<totfact> 0.24859916E+02</totfact>
</mgrwt>
</event>
<event>
 4    1  0.1805887E-005  0.1228751E+04  0.7818608E-02  0.9088057E-01
         -2   -1    0    0    0  501 -0.00000000000E+00  0.00000000000E+00  0.35603265815E+03  0.35603265816E+03  0.25500000000E-02 0. -1.
          2   -1    0    0  501    0  0.00000000000E+00 -0.00000000000E+00 -0.10601753709E+04  0.10601753709E+04  0.25500000000E-02 0.  1.
   -5000001    1    1    2    0    0  0.49635506562E+03  0.10697563804E+03 -0.62759069442E+03  0.84509302330E+03  0.25000000000E+03 0.  0.
    5000001    1    1    2    0    0 -0.49635506562E+03 -0.10697563804E+03 -0.76552018324E+02  0.57111500577E+03  0.25000000000E+03 0.  0.
<mgrwt>
<rscale>  0 0.12287507E+04</rscale>
<asrwt>0</asrwt>
<pdfrwt beam="1">  1        2 0.16310390E+00 0.12287507E+04</pdfrwt>
<pdfrwt beam="2">  1       -2 0.54774255E-01 0.12287507E+04</pdfrwt>
<totfact> 0.71231961E+01</totfact>
</mgrwt>
</event>
<event>
 4    1  0.1805887E-005  0.6710642E+03  0.7818608E-02  0.9768037E-01
          2   -1    0    0  501    0  0.00000000000E+00  0.00000000000E+00  0.21384490210E+04  0.21384490210E+04  0.25500000000E-02 0.  1.
         -2   -1    0    0    0  501 -0.00000000000E+00 -0.00000000000E+00 -0.52646474164E+02  0.52646474226E+02  0.25500000000E-02 0. -1.
   -5000001    1    1    2    0    0 -0.19831202151E+02  0.15024223918E+03  0.15805620790E+04  0.16073712989E+04  0.25000000000E+03 0.  0.
    5000001    1    1    2    0    0  0.19831202151E+02 -0.15024223918E+03  0.50524046780E+03  0.58372419628E+03  0.25000000000E+03 0.  0.
<mgrwt>
<rscale>  0 0.67106423E+03</rscale>
<asrwt>0</asrwt>
<pdfrwt beam="1">  1        2 0.32899209E+00 0.67106423E+03</pdfrwt>
<pdfrwt beam="2">  1       -2 0.80994592E-02 0.67106423E+03</pdfrwt>
<totfact> 0.55736284E+02</totfact>
</mgrwt>
</event>
<event>
 4    1  0.1805887E-005  0.6175734E+03  0.7818608E-02  0.9869603E-01
         -2   -1    0    0    0  501 -0.00000000000E+00  0.00000000000E+00  0.50306554863E+02  0.50306554928E+02  0.25500000000E-02 0. -1.
          2   -1    0    0  501    0  0.00000000000E+00 -0.00000000000E+00 -0.18953638607E+04  0.18953638607E+04  0.25500000000E-02 0.  1.
   -5000001    1    1    2    0    0  0.32617811012E+02  0.17285678294E+03 -0.78499037500E+03  0.84240921044E+03  0.25000000000E+03 0.  0.
    5000001    1    1    2    0    0 -0.32617811012E+02 -0.17285678294E+03 -0.10600669308E+04  0.11032612052E+04  0.25000000000E+03 0.  0.
<mgrwt>
<rscale>  0 0.61757340E+03</rscale>
<asrwt>0</asrwt>
<pdfrwt beam="1">  1        2 0.29159439E+00 0.61757340E+03</pdfrwt>
<pdfrwt beam="2">  1       -2 0.77394714E-02 0.61757340E+03</pdfrwt>
<totfact> 0.81549177E+02</totfact>
</mgrwt>
</event>
<event>
 4    1  0.1805887E-005  0.6543205E+03  0.7818608E-02  0.9798706E-01
          2   -1    0    0  501    0  0.00000000000E+00  0.00000000000E+00  0.14845223841E+04  0.14845223841E+04  0.25500000000E-02 0.  1.
         -2   -1    0    0    0  501 -0.00000000000E+00 -0.00000000000E+00 -0.72099833733E+02  0.72099833778E+02  0.25500000000E-02 0. -1.
   -5000001    1    1    2    0    0  0.10724563945E+03 -0.89972730099E+02  0.10818892000E+04  0.11191876341E+04  0.25000000000E+03 0.  0.
    5000001    1    1    2    0    0 -0.10724563945E+03  0.89972730099E+02  0.33053335036E+03  0.43743458373E+03  0.25000000000E+03 0.  0.
<mgrwt>
<rscale>  0 0.65432046E+03</rscale>
<asrwt>0</asrwt>
<pdfrwt beam="1">  1        2 0.22838803E+00 0.65432046E+03</pdfrwt>
<pdfrwt beam="2">  1       -2 0.11092283E-01 0.65432046E+03</pdfrwt>
<totfact> 0.76286069E+02</totfact>
</mgrwt>
</event>
<event>
 4    1  0.1805887E-005  0.1015990E+04  0.7818608E-02  0.9291179E-01
          2   -1    0    0  501    0  0.00000000000E+00  0.00000000000E+00  0.40163964152E+03  0.40163964153E+03  0.25500000000E-02 0.  1.
         -2   -1    0    0    0  501 -0.00000000000E+00 -0.00000000000E+00 -0.64251341899E+03  0.64251341899E+03  0.25500000000E-02 0. -1.
   -5000001    1    1    2    0    0 -0.11659523523E+03  0.30735837926E+03 -0.42443227313E+03  0.59220467463E+03  0.25000000000E+03 0.  0.
    5000001    1    1    2    0    0  0.11659523523E+03 -0.30735837926E+03  0.18355849566E+03  0.45194838589E+03  0.25000000000E+03 0.  0.
<mgrwt>
<rscale>  0 0.10159899E+04</rscale>
<asrwt>0</asrwt>
<pdfrwt beam="1">  1        2 0.61790714E-01 0.10159899E+04</pdfrwt>
<pdfrwt beam="2">  1       -2 0.98848218E-01 0.10159899E+04</pdfrwt>
<totfact> 0.67052151E+01</totfact>
</mgrwt>
</event>
<event>
 4    1  0.1805887E-005  0.1225493E+04  0.7818608E-02  0.9090831E-01
         -2   -1    0    0    0  501 -0.00000000000E+00  0.00000000000E+00  0.21429275147E+03  0.21429275149E+03  0.25500000000E-02 0. -1.
          2   -1    0    0  501    0  0.00000000000E+00 -0.00000000000E+00 -0.17520799086E+04  0.17520799086E+04  0.25500000000E-02 0.  1.
   -5000001    1    1    2    0    0 -0.51299676234E+03  0.12072224627E+03 -0.10700141836E+04  0.12186754663E+04  0.25000000000E+03 0.  0.
    5000001    1    1    2    0    0  0.51299676234E+03 -0.12072224627E+03 -0.46777297351E+03  0.74769719383E+03  0.25000000000E+03 0.  0.
<mgrwt>
<rscale>  0 0.12254926E+04</rscale>
<asrwt>0</asrwt>
<pdfrwt beam="1">  1        2 0.26955075E+00 0.12254926E+04</pdfrwt>
<pdfrwt beam="2">  1       -2 0.32968117E-01 0.12254926E+04</pdfrwt>
<totfact> 0.77595297E+01</totfact>
</mgrwt>
</event>
<event>
 4    1  0.1805887E-005  0.6673753E+03  0.7818608E-02  0.9774711E-01
         -2   -1    0    0    0  501 -0.00000000000E+00  0.00000000000E+00  0.50569251223E+02  0.50569251288E+02  0.25500000000E-02 0.  1.
          2   -1    0    0  501    0  0.00000000000E+00 -0.00000000000E+00 -0.22018805058E+04  0.22018805058E+04  0.25500000000E-02 0. -1.
   -5000001    1    1    2    0    0  0.17097175746E+03 -0.13772648522E+03 -0.98977163342E+03  0.10441972098E+04  0.25000000000E+03 0.  0.
    5000001    1    1    2    0    0 -0.17097175746E+03  0.13772648522E+03 -0.11615396212E+04  0.12082525474E+04  0.25000000000E+03 0.  0.
<mgrwt>
<rscale>  0 0.66737530E+03</rscale>
<asrwt>0</asrwt>
<pdfrwt beam="1">  1        2 0.33875077E+00 0.66737530E+03</pdfrwt>
<pdfrwt beam="2">  1       -2 0.77798865E-02 0.66737530E+03</pdfrwt>
<totfact> 0.54879927E+02</totfact>
</mgrwt>
</event>
<event>
 4    1  0.1805887E-005  0.1656154E+04  0.7818608E-02  0.8786774E-01
          2   -1    0    0  501    0  0.00000000000E+00  0.00000000000E+00  0.12556347827E+04  0.12556347827E+04  0.25500000000E-02 0.  1.
         -2   -1    0    0    0  501 -0.00000000000E+00 -0.00000000000E+00 -0.54610760865E+03  0.54610760865E+03  0.25500000000E-02 0. -1.
   -5000001    1    1    2    0    0 -0.57297682705E+03 -0.30577673089E+03 -0.13347519882E+03  0.70860248531E+03  0.25000000000E+03 0.  0.
    5000001    1    1    2    0    0  0.57297682705E+03  0.30577673089E+03  0.84300237283E+03  0.10931399060E+04  0.25000000000E+03 0.  0.
<mgrwt>
<rscale>  0 0.16561542E+04</rscale>
<asrwt>0</asrwt>
<pdfrwt beam="1">  1        2 0.19317458E+00 0.16561542E+04</pdfrwt>
<pdfrwt beam="2">  1       -2 0.84016556E-01 0.16561542E+04</pdfrwt>
<totfact> 0.20738104E+01</totfact>
</mgrwt>
</event>
<event>
 4    1  0.1805887E-005  0.8777868E+03  0.7818608E-02  0.9453783E-01
         -2   -1    0    0    0  501 -0.00000000000E+00  0.00000000000E+00  0.11369967914E+03  0.11369967916E+03  0.25500000000E-02 0. -1.
          2   -1    0    0  501    0  0.00000000000E+00 -0.00000000000E+00 -0.16941772850E+04  0.16941772850E+04  0.25500000000E-02 0.  1.
   -5000001    1    1    2    0    0  0.23302337491E+02  0.34112369669E+03 -0.10270377462E+04  0.11109522525E+04  0.25000000000E+03 0.  0.
    5000001    1    1    2    0    0 -0.23302337491E+02 -0.34112369669E+03 -0.55343985971E+03  0.69692471164E+03  0.25000000000E+03 0.  0.
<mgrwt>
<rscale>  0 0.87778679E+03</rscale>
<asrwt>0</asrwt>
<pdfrwt beam="1">  1        2 0.26064264E+00 0.87778679E+03</pdfrwt>
<pdfrwt beam="2">  1       -2 0.17492260E-01 0.87778679E+03</pdfrwt>
<totfact> 0.26834390E+02</totfact>
</mgrwt>
</event>
<event>
 4    1  0.1805887E-005  0.5619450E+03  0.7818608E-02  0.9987663E-01
          2   -1    0    0  501    0  0.00000000000E+00  0.00000000000E+00  0.39414493157E+03  0.39414493158E+03  0.25500000000E-02 0.  1.
         -2   -1    0    0    0  501 -0.00000000000E+00 -0.00000000000E+00 -0.20029574775E+03  0.20029574776E+03  0.25500000000E-02 0. -1.
   -5000001    1    1    2    0    0  0.10694614240E+03  0.40008383571E+02  0.15867311990E+03  0.31735675053E+03  0.25000000000E+03 0.  0.
    5000001    1    1    2    0    0 -0.10694614240E+03 -0.40008383571E+02  0.35176063925E+02  0.27708392881E+03  0.25000000000E+03 0.  0.
<mgrwt>
<rscale>  0 0.56194503E+03</rscale>
<asrwt>0</asrwt>
<pdfrwt beam="1">  1        2 0.60637682E-01 0.56194503E+03</pdfrwt>
<pdfrwt beam="2">  1       -2 0.30814731E-01 0.56194503E+03</pdfrwt>
<totfact> 0.79199137E+02</totfact>
</mgrwt>
</event>
<event>
 4    1  0.1805887E-005  0.6543632E+03  0.7818608E-02  0.9798626E-01
          2   -1    0    0  501    0  0.00000000000E+00  0.00000000000E+00  0.16264550505E+03  0.16264550507E+03  0.25500000000E-02 0.  1.
         -2   -1    0    0    0  501 -0.00000000000E+00 -0.00000000000E+00 -0.65816644189E+03  0.65816644190E+03  0.25500000000E-02 0. -1.
   -5000001    1    1    2    0    0 -0.54533850107E+02 -0.20254265244E+03 -0.27718725743E+03  0.42817081001E+03  0.25000000000E+03 0.  0.
    5000001    1    1    2    0    0  0.54533850107E+02  0.20254265244E+03 -0.21833367941E+03  0.39264113695E+03  0.25000000000E+03 0.  0.
<mgrwt>
<rscale>  0 0.65436324E+03</rscale>
<asrwt>0</asrwt>
<pdfrwt beam="1">  1        2 0.25022386E-01 0.65436324E+03</pdfrwt>
<pdfrwt beam="2">  1       -2 0.10125637E+00 0.65436324E+03</pdfrwt>
<totfact> 0.17754115E+02</totfact>
</mgrwt>
</event>
<event>
 4    1  0.1805887E-005  0.8682884E+03  0.7818608E-02  0.9466114E-01
          2   -1    0    0  501    0  0.00000000000E+00  0.00000000000E+00  0.33472365018E+04  0.33472365018E+04  0.25500000000E-02 0. -1.
         -2   -1    0    0    0  501 -0.00000000000E+00 -0.00000000000E+00 -0.56309486344E+02  0.56309486401E+02  0.25500000000E-02 0.  1.
   -5000001    1    1    2    0    0  0.17974322531E+03 -0.27020348483E+03  0.10819934713E+04  0.11569474587E+04  0.25000000000E+03 0.  0.
    5000001    1    1    2    0    0 -0.17974322531E+03  0.27020348483E+03  0.22089335442E+04  0.22465985295E+04  0.25000000000E+03 0.  0.
<mgrwt>
<rscale>  0 0.86828836E+03</rscale>
<asrwt>0</asrwt>
<pdfrwt beam="1">  1        2 0.51495935E+00 0.86828836E+03</pdfrwt>
<pdfrwt beam="2">  1       -2 0.86629998E-02 0.86828836E+03</pdfrwt>
<totfact> 0.94432468E+01</totfact>
</mgrwt>
</event>
<event>
 4    1  0.1805887E-005  0.7453180E+03  0.7818608E-02  0.9642724E-01
         -2   -1    0    0    0  501 -0.00000000000E+00  0.00000000000E+00  0.11863454971E+03  0.11863454974E+03  0.25500000000E-02 0. -1.
          2   -1    0    0  501    0  0.00000000000E+00 -0.00000000000E+00 -0.11706096033E+04  0.11706096033E+04  0.25500000000E-02 0.  1.
   -5000001    1    1    2    0    0 -0.67492646925E-01 -0.27463136703E+03 -0.57936918178E+03  0.68817951227E+03  0.25000000000E+03 0.  0.
    5000001    1    1    2    0    0  0.67492646925E-01  0.27463136703E+03 -0.47260587183E+03  0.60106464078E+03  0.25000000000E+03 0.  0.
<mgrwt>
<rscale>  0 0.74531803E+03</rscale>
<asrwt>0</asrwt>
<pdfrwt beam="1">  1        2 0.18009378E+00 0.74531803E+03</pdfrwt>
<pdfrwt beam="2">  1       -2 0.18251470E-01 0.74531803E+03</pdfrwt>
<totfact> 0.49761517E+02</totfact>
</mgrwt>
</event>
<event>
 4    1  0.1805887E-005  0.1758657E+04  0.7818608E-02  0.8728600E-01
         -2   -1    0    0    0  501 -0.00000000000E+00  0.00000000000E+00  0.50727411745E+03  0.50727411745E+03  0.25500000000E-02 0. -1.
          2   -1    0    0  501    0  0.00000000000E+00 -0.00000000000E+00 -0.15242611213E+04  0.15242611213E+04  0.25500000000E-02 0.  1.
   -5000001    1    1    2    0    0  0.63096659656E+03  0.44497980366E+03 -0.89953344995E+03  0.12115223065E+04  0.25000000000E+03 0.  0.
    5000001    1    1    2    0    0 -0.63096659656E+03 -0.44497980366E+03 -0.11745355387E+03  0.82001293219E+03  0.25000000000E+03 0.  0.
<mgrwt>
<rscale>  0 0.17586565E+04</rscale>
<asrwt>0</asrwt>
<pdfrwt beam="1">  1        2 0.23450171E+00 0.17586565E+04</pdfrwt>
<pdfrwt beam="2">  1       -2 0.78042173E-01 0.17586565E+04</pdfrwt>
<totfact> 0.17024394E+01</totfact>
</mgrwt>
</event>
<event>
 4    1  0.1805887E-005  0.7688594E+03  0.7818608E-02  0.9606219E-01
         -2   -1    0    0    0  501 -0.00000000000E+00  0.00000000000E+00  0.58689092399E+02  0.58689092454E+02  0.25500000000E-02 0. -1.
          2   -1    0    0  501    0  0.00000000000E+00 -0.00000000000E+00 -0.25181202955E+04  0.25181202955E+04  0.25500000000E-02 0.  1.
   -5000001    1    1    2    0    0  0.18100949652E+03 -0.22362496916E+03 -0.13977453006E+04  0.14487803457E+04  0.25000000000E+03 0.  0.
    5000001    1    1    2    0    0 -0.18100949652E+03  0.22362496916E+03 -0.10616859025E+04  0.11280290423E+04  0.25000000000E+03 0.  0.
<mgrwt>
<rscale>  0 0.76885940E+03</rscale>
<asrwt>0</asrwt>
<pdfrwt beam="1">  1        2 0.38740304E+00 0.76885940E+03</pdfrwt>
<pdfrwt beam="2">  1       -2 0.90290931E-02 0.76885940E+03</pdfrwt>
<totfact> 0.28532604E+02</totfact>
</mgrwt>
</event>
<event>
 4    1  0.1805887E-005  0.7340094E+03  0.7818608E-02  0.9660776E-01
          2   -1    0    0  501    0  0.00000000000E+00  0.00000000000E+00  0.37239721917E+03  0.37239721918E+03  0.25500000000E-02 0. -1.
         -2   -1    0    0    0  501 -0.00000000000E+00 -0.00000000000E+00 -0.36169026460E+03  0.36169026461E+03  0.25500000000E-02 0.  1.
   -5000001    1    1    2    0    0 -0.21418908455E+03 -0.90833254358E+02 -0.12906619582E+03  0.36508317811E+03  0.25000000000E+03 0.  0.
    5000001    1    1    2    0    0  0.21418908455E+03  0.90833254358E+02  0.13977315039E+03  0.36900430567E+03  0.25000000000E+03 0.  0.
<mgrwt>
<rscale>  0 0.73400940E+03</rscale>
<asrwt>0</asrwt>
<pdfrwt beam="1">  1        2 0.57291880E-01 0.73400940E+03</pdfrwt>
<pdfrwt beam="2">  1       -2 0.55644656E-01 0.73400940E+03</pdfrwt>
<totfact> 0.26391102E+02</totfact>
</mgrwt>
</event>
<event>
 4    1  0.1805887E-005  0.8025620E+03  0.7818608E-02  0.9556316E-01
          2   -1    0    0  501    0  0.00000000000E+00  0.00000000000E+00  0.42261320469E+03  0.42261320470E+03  0.25500000000E-02 0.  1.
         -2   -1    0    0    0  501 -0.00000000000E+00 -0.00000000000E+00 -0.38102561662E+03  0.38102561663E+03  0.25500000000E-02 0. -1.
   -5000001    1    1    2    0    0 -0.30515507063E+03  0.52556261175E+02 -0.30701648358E+02  0.39915456772E+03  0.25000000000E+03 0.  0.
    5000001    1    1    2    0    0  0.30515507063E+03 -0.52556261175E+02  0.72289236424E+02  0.40448425361E+03  0.25000000000E+03 0.  0.
<mgrwt>
<rscale>  0 0.80256204E+03</rscale>
<asrwt>0</asrwt>
<pdfrwt beam="1">  1        2 0.65017416E-01 0.80256204E+03</pdfrwt>
<pdfrwt beam="2">  1       -2 0.58619326E-01 0.80256204E+03</pdfrwt>
<totfact> 0.20478408E+02</totfact>
</mgrwt>
</event>
<event>
 4    1  0.1805887E-005  0.6490632E+03  0.7818608E-02  0.9808539E-01
          2   -1    0    0  501    0  0.00000000000E+00  0.00000000000E+00  0.72508779937E+03  0.72508779937E+03  0.25500000000E-02 0.  1.
         -2   -1    0    0    0  501 -0.00000000000E+00 -0.00000000000E+00 -0.14525244150E+03  0.14525244152E+03  0.25500000000E-02 0. -1.
   -5000001    1    1    2    0    0 -0.12829088618E+03 -0.13127536234E+03  0.16179863924E+03  0.34981505384E+03  0.25000000000E+03 0.  0.
    5000001    1    1    2    0    0  0.12829088618E+03  0.13127536234E+03  0.41803671863E+03  0.52052518705E+03  0.25000000000E+03 0.  0.
<mgrwt>
<rscale>  0 0.64906324E+03</rscale>
<asrwt>0</asrwt>
<pdfrwt beam="1">  1        2 0.11155197E+00 0.64906324E+03</pdfrwt>
<pdfrwt beam="2">  1       -2 0.22346529E-01 0.64906324E+03</pdfrwt>
<totfact> 0.69083691E+02</totfact>
</mgrwt>
</event>
<event>
 4    1  0.1805887E-005  0.1229748E+04  0.7818608E-02  0.9087210E-01
          2   -1    0    0  501    0  0.00000000000E+00  0.00000000000E+00  0.23379701615E+03  0.23379701616E+03  0.25500000000E-02 0. -1.
         -2   -1    0    0    0  501 -0.00000000000E+00 -0.00000000000E+00 -0.16170862767E+04  0.16170862767E+04  0.25500000000E-02 0.  1.
   -5000001    1    1    2    0    0 -0.15321834794E+03  0.54026429974E+03 -0.71338112660E+03  0.94168678843E+03  0.25000000000E+03 0.  0.
    5000001    1    1    2    0    0  0.15321834794E+03 -0.54026429974E+03 -0.66990813397E+03  0.90919650444E+03  0.25000000000E+03 0.  0.
<mgrwt>
<rscale>  0 0.12297479E+04</rscale>
<asrwt>0</asrwt>
<pdfrwt beam="1">  1        2 0.35968773E-01 0.12297479E+04</pdfrwt>
<pdfrwt beam="2">  1       -2 0.24878250E+00 0.12297479E+04</pdfrwt>
<totfact> 0.93650148E+00</totfact>
</mgrwt>
</event>
<event>
 4    1  0.1805887E-005  0.8878546E+03  0.7818608E-02  0.9440892E-01
         -2   -1    0    0    0  501 -0.00000000000E+00  0.00000000000E+00  0.12749905586E+04  0.12749905586E+04  0.25500000000E-02 0. -1.
          2   -1    0    0  501    0  0.00000000000E+00 -0.00000000000E+00 -0.15456697313E+03  0.15456697315E+03  0.25500000000E-02 0.  1.
   -5000001    1    1    2    0    0 -0.24376607087E+03 -0.27256362043E+03  0.51303189393E+03  0.67780126046E+03  0.25000000000E+03 0.  0.
    5000001    1    1    2    0    0  0.24376607087E+03  0.27256362043E+03  0.60739169154E+03  0.75175627130E+03  0.25000000000E+03 0.  0.
<mgrwt>
<rscale>  0 0.88785456E+03</rscale>
<asrwt>0</asrwt>
<pdfrwt beam="1">  1        2 0.23779534E-01 0.88785456E+03</pdfrwt>
<pdfrwt beam="2">  1       -2 0.19615239E+00 0.88785456E+03</pdfrwt>
<totfact> 0.32982587E+01</totfact>
</mgrwt>
</event>
<event>
 4    1  0.1805887E-005  0.7474256E+03  0.7818608E-02  0.9639398E-01
         -2   -1    0    0    0  501 -0.00000000000E+00  0.00000000000E+00  0.15465732855E+03  0.15465732857E+03  0.25500000000E-02 0. -1.
          2   -1    0    0  501    0  0.00000000000E+00 -0.00000000000E+00 -0.90303685468E+03  0.90303685468E+03  0.25500000000E-02 0.  1.
   -5000001    1    1    2    0    0 -0.52732519033E+02 -0.23013283312E+03 -0.16708214870E+03  0.38230653128E+03  0.25000000000E+03 0.  0.
    5000001    1    1    2    0    0  0.52732519033E+02  0.23013283312E+03 -0.58129737743E+03  0.67538765198E+03  0.25000000000E+03 0.  0.
<mgrwt>
<rscale>  0 0.74742563E+03</rscale>
<asrwt>0</asrwt>
<pdfrwt beam="1">  1        2 0.13892874E+00 0.74742563E+03</pdfrwt>
<pdfrwt beam="2">  1       -2 0.23793436E-01 0.74742563E+03</pdfrwt>
<totfact> 0.45994179E+02</totfact>
</mgrwt>
</event>
<event>
 4    1  0.1805887E-005  0.6388071E+03  0.7818608E-02  0.9828012E-01
          2   -1    0    0  501    0  0.00000000000E+00  0.00000000000E+00  0.17070581809E+04  0.17070581809E+04  0.25500000000E-02 0.  1.
         -2   -1    0    0    0  501 -0.00000000000E+00 -0.00000000000E+00 -0.59762825549E+02  0.59762825603E+02  0.25500000000E-02 0. -1.
   -5000001    1    1    2    0    0 -0.11265673563E+03 -0.15196379909E+03  0.99265864095E+03  0.10409878548E+04  0.25000000000E+03 0.  0.
    5000001    1    1    2    0    0  0.11265673563E+03  0.15196379909E+03  0.65463671437E+03  0.72583315171E+03  0.25000000000E+03 0.  0.
<mgrwt>
<rscale>  0 0.63880708E+03</rscale>
<asrwt>0</asrwt>
<pdfrwt beam="1">  1        2 0.26262439E+00 0.63880708E+03</pdfrwt>
<pdfrwt beam="2">  1       -2 0.91942789E-02 0.63880708E+03</pdfrwt>
<totfact> 0.78187636E+02</totfact>
</mgrwt>
</event>
<event>
 4    1  0.1805887E-005  0.5973935E+03  0.7818608E-02  0.9910828E-01
          2   -1    0    0  501    0  0.00000000000E+00  0.00000000000E+00  0.22444565821E+04  0.22444565821E+04  0.25500000000E-02 0.  1.
         -2   -1    0    0    0  501 -0.00000000000E+00 -0.00000000000E+00 -0.39751159272E+02  0.39751159354E+02  0.25500000000E-02 0. -1.
   -5000001    1    1    2    0    0 -0.16214420057E+03 -0.15191083569E+02  0.11561885089E+04  0.11940659022E+04  0.25000000000E+03 0.  0.
    5000001    1    1    2    0    0  0.16214420057E+03  0.15191083569E+02  0.10485169139E+04  0.10901418392E+04  0.25000000000E+03 0.  0.
<mgrwt>
<rscale>  0 0.59739351E+03</rscale>
<asrwt>0</asrwt>
<pdfrwt beam="1">  1        2 0.34530109E+00 0.59739351E+03</pdfrwt>
<pdfrwt beam="2">  1       -2 0.61155617E-02 0.59739351E+03</pdfrwt>
<totfact> 0.76503495E+02</totfact>
</mgrwt>
</event>
<event>
 4    1  0.1805887E-005  0.8967198E+03  0.7818608E-02  0.9429691E-01
         -2   -1    0    0    0  501 -0.00000000000E+00  0.00000000000E+00  0.14636002219E+03  0.14636002222E+03  0.25500000000E-02 0. -1.
          2   -1    0    0  501    0  0.00000000000E+00 -0.00000000000E+00 -0.13735077274E+04  0.13735077274E+04  0.25500000000E-02 0.  1.
   -5000001    1    1    2    0    0 -0.20886086591E+03 -0.30573219443E+03 -0.67770332381E+03  0.81171228346E+03  0.25000000000E+03 0.  0.
    5000001    1    1    2    0    0  0.20886086591E+03  0.30573219443E+03 -0.54944438143E+03  0.70815546620E+03  0.25000000000E+03 0.  0.
<mgrwt>
<rscale>  0 0.89671985E+03</rscale>
<asrwt>0</asrwt>
<pdfrwt beam="1">  1        2 0.21130887E+00 0.89671985E+03</pdfrwt>
<pdfrwt beam="2">  1       -2 0.22516927E-01 0.89671985E+03</pdfrwt>
<totfact> 0.26008145E+02</totfact>
</mgrwt>
</event>
<event>
 4    1  0.1805887E-005  0.8443219E+03  0.7818608E-02  0.9497990E-01
          2   -1    0    0  501    0  0.00000000000E+00  0.00000000000E+00  0.31487547723E+04  0.31487547723E+04  0.25500000000E-02 0.  1.
         -2   -1    0    0    0  501 -0.00000000000E+00 -0.00000000000E+00 -0.56600104107E+02  0.56600104165E+02  0.25500000000E-02 0. -1.
   -5000001    1    1    2    0    0 -0.19533128071E+03 -0.15474481039E+03  0.24251601740E+04  0.24507146172E+04  0.25000000000E+03 0.  0.
    5000001    1    1    2    0    0  0.19533128071E+03  0.15474481039E+03  0.66699449418E+03  0.75464025922E+03  0.25000000000E+03 0.  0.
<mgrwt>
<rscale>  0 0.84432185E+03</rscale>
<asrwt>0</asrwt>
<pdfrwt beam="1">  1        2 0.48442394E+00 0.84432185E+03</pdfrwt>
<pdfrwt beam="2">  1       -2 0.87077060E-02 0.84432185E+03</pdfrwt>
<totfact> 0.12614767E+02</totfact>
</mgrwt>
</event>
<event>
 4    1  0.1805887E-005  0.6593075E+03  0.7818608E-02  0.9789469E-01
         -2   -1    0    0    0  501 -0.00000000000E+00  0.00000000000E+00  0.70711893404E+03  0.70711893404E+03  0.25500000000E-02 0. -1.
          2   -1    0    0  501    0  0.00000000000E+00 -0.00000000000E+00 -0.15368219195E+03  0.15368219197E+03  0.25500000000E-02 0.  1.
   -5000001    1    1    2    0    0  0.20031604764E+03 -0.77307980133E+02  0.26590894056E+03  0.42345083233E+03  0.25000000000E+03 0.  0.
    5000001    1    1    2    0    0 -0.20031604764E+03  0.77307980133E+02  0.28752780152E+03  0.43735029368E+03  0.25000000000E+03 0.  0.
<mgrwt>
<rscale>  0 0.65930748E+03</rscale>
<asrwt>0</asrwt>
<pdfrwt beam="1">  1        2 0.23643414E-01 0.65930748E+03</pdfrwt>
<pdfrwt beam="2">  1       -2 0.10878753E+00 0.65930748E+03</pdfrwt>
<totfact> 0.15957969E+02</totfact>
</mgrwt>
</event>
<event>
 4    1  0.1805887E-005  0.6510465E+03  0.7818608E-02  0.9804817E-01
         -2   -1    0    0    0  501 -0.00000000000E+00  0.00000000000E+00  0.27908082016E+03  0.27908082017E+03  0.25500000000E-02 0. -1.
          2   -1    0    0  501    0  0.00000000000E+00 -0.00000000000E+00 -0.37969430173E+03  0.37969430174E+03  0.25500000000E-02 0.  1.
   -5000001    1    1    2    0    0 -0.21804519134E+02 -0.13781857547E+03  0.10643858147E+03  0.30544814359E+03  0.25000000000E+03 0.  0.
    5000001    1    1    2    0    0  0.21804519134E+02  0.13781857547E+03 -0.20705206303E+03  0.35332697832E+03  0.25000000000E+03 0.  0.
<mgrwt>
<rscale>  0 0.65104653E+03</rscale>
<asrwt>0</asrwt>
<pdfrwt beam="1">  1        2 0.58414508E-01 0.65104653E+03</pdfrwt>
<pdfrwt beam="2">  1       -2 0.42935511E-01 0.65104653E+03</pdfrwt>
<totfact> 0.43743194E+02</totfact>
</mgrwt>
</event>
<event>
 4    1  0.1805887E-005  0.6287767E+03  0.7818608E-02  0.9847439E-01
         -2   -1    0    0    0  501 -0.00000000000E+00  0.00000000000E+00  0.74255830161E+02  0.74255830205E+02  0.25500000000E-02 0. -1.
          2   -1    0    0  501    0  0.00000000000E+00 -0.00000000000E+00 -0.13310744754E+04  0.13310744754E+04  0.25500000000E-02 0.  1.
   -5000001    1    1    2    0    0  0.12391365755E+03 -0.13615164782E+03 -0.73899608466E+03  0.80156539276E+03  0.25000000000E+03 0.  0.
    5000001    1    1    2    0    0 -0.12391365755E+03  0.13615164782E+03 -0.51782256055E+03  0.60376491281E+03  0.25000000000E+03 0.  0.
<mgrwt>
<rscale>  0 0.62877672E+03</rscale>
<asrwt>0</asrwt>
<pdfrwt beam="1">  1        2 0.20478067E+00 0.62877672E+03</pdfrwt>
<pdfrwt beam="2">  1       -2 0.11423975E-01 0.62877672E+03</pdfrwt>
<totfact> 0.88750119E+02</totfact>
</mgrwt>
</event>
<event>
 4    1  0.1805887E-005  0.6878901E+03  0.7818608E-02  0.9738169E-01
          2   -1    0    0  501    0  0.00000000000E+00  0.00000000000E+00  0.30572502713E+03  0.30572502714E+03  0.25500000000E-02 0.  1.
         -2   -1    0    0    0  501 -0.00000000000E+00 -0.00000000000E+00 -0.38694317645E+03  0.38694317646E+03  0.25500000000E-02 0. -1.
   -5000001    1    1    2    0    0 -0.26264352131E+02  0.18413302504E+03 -0.18723446584E+03  0.36352652214E+03  0.25000000000E+03 0.  0.
    5000001    1    1    2    0    0  0.26264352131E+02 -0.18413302504E+03  0.10601631651E+03  0.32914168146E+03  0.25000000000E+03 0.  0.
<mgrwt>
<rscale>  0 0.68789015E+03</rscale>
<asrwt>0</asrwt>
<pdfrwt beam="1">  1        2 0.47034619E-01 0.68789015E+03</pdfrwt>
<pdfrwt beam="2">  1       -2 0.59529720E-01 0.68789015E+03</pdfrwt>
<totfact> 0.28586579E+02</totfact>
</mgrwt>
</event>
<event>
 4    1  0.1805887E-005  0.6117056E+03  0.7818608E-02  0.9881414E-01
         -2   -1    0    0    0  501 -0.00000000000E+00  0.00000000000E+00  0.46530401232E+02  0.46530401302E+02  0.25500000000E-02 0. -1.
          2   -1    0    0  501    0  0.00000000000E+00 -0.00000000000E+00 -0.20104264492E+04  0.20104264492E+04  0.25500000000E-02 0.  1.
   -5000001    1    1    2    0    0 -0.58669292429E+02 -0.15746191115E+03 -0.11601882471E+04  0.11986547076E+04  0.25000000000E+03 0.  0.
    5000001    1    1    2    0    0  0.58669292429E+02  0.15746191115E+03 -0.80370780082E+03  0.85830214286E+03  0.25000000000E+03 0.  0.
<mgrwt>
<rscale>  0 0.61170565E+03</rscale>
<asrwt>0</asrwt>
<pdfrwt beam="1">  1        2 0.30929631E+00 0.61170565E+03</pdfrwt>
<pdfrwt beam="2">  1       -2 0.71585248E-02 0.61170565E+03</pdfrwt>
<totfact> 0.79994442E+02</totfact>
</mgrwt>
</event>
<event>
 4    1  0.1805887E-005  0.8263381E+03  0.7818608E-02  0.9522657E-01
          2   -1    0    0  501    0  0.00000000000E+00  0.00000000000E+00  0.19633624651E+04  0.19633624651E+04  0.25500000000E-02 0.  1.
         -2   -1    0    0    0  501 -0.00000000000E+00 -0.00000000000E+00 -0.86947094142E+02  0.86947094180E+02  0.25500000000E-02 0. -1.
   -5000001    1    1    2    0    0 -0.19563777571E+03  0.11767405128E+03  0.35059104937E+03  0.48737604119E+03  0.25000000000E+03 0.  0.
    5000001    1    1    2    0    0  0.19563777571E+03 -0.11767405128E+03  0.15258243216E+04  0.15629335181E+04  0.25000000000E+03 0.  0.
<mgrwt>
<rscale>  0 0.82633809E+03</rscale>
<asrwt>0</asrwt>
<pdfrwt beam="1">  1        2 0.30205574E+00 0.82633809E+03</pdfrwt>
<pdfrwt beam="2">  1       -2 0.13376477E-01 0.82633809E+03</pdfrwt>
<totfact> 0.30249380E+02</totfact>
</mgrwt>
</event>
<event>
 4    1  0.1805887E-005  0.6943088E+03  0.7818608E-02  0.9727015E-01
          2   -1    0    0  501    0  0.00000000000E+00  0.00000000000E+00  0.33602596810E+03  0.33602596811E+03  0.25500000000E-02 0.  1.
         -2   -1    0    0    0  501 -0.00000000000E+00 -0.00000000000E+00 -0.35865139516E+03  0.35865139517E+03  0.25500000000E-02 0. -1.
   -5000001    1    1    2    0    0  0.21433169544E+03  0.10875776745E+03 -0.27127894538E+02  0.34785377720E+03  0.25000000000E+03 0.  0.
    5000001    1    1    2    0    0 -0.21433169544E+03 -0.10875776745E+03  0.45024674859E+01  0.34682358608E+03  0.25000000000E+03 0.  0.
<mgrwt>
<rscale>  0 0.69430881E+03</rscale>
<asrwt>0</asrwt>
<pdfrwt beam="1">  1        2 0.51696303E-01 0.69430881E+03</pdfrwt>
<pdfrwt beam="2">  1       -2 0.55177138E-01 0.69430881E+03</pdfrwt>
<totfact> 0.30157157E+02</totfact>
</mgrwt>
</event>
<event>
 4    1  0.1805887E-005  0.1294718E+04  0.7818608E-02  0.9033765E-01
         -2   -1    0    0    0  501 -0.00000000000E+00  0.00000000000E+00  0.47514866127E+03  0.47514866128E+03  0.25500000000E-02 0. -1.
          2   -1    0    0  501    0  0.00000000000E+00 -0.00000000000E+00 -0.88198403660E+03  0.88198403660E+03  0.25500000000E-02 0.  1.
   -5000001    1    1    2    0    0 -0.21415167522E+03 -0.50385612090E+03  0.46490429433E+02  0.60364997357E+03  0.25000000000E+03 0.  0.
    5000001    1    1    2    0    0  0.21415167522E+03  0.50385612090E+03 -0.45332580476E+03  0.75348272430E+03  0.25000000000E+03 0.  0.
<mgrwt>
<rscale>  0 0.12947178E+04</rscale>
<asrwt>0</asrwt>
<pdfrwt beam="1">  1        2 0.13568985E+00 0.12947178E+04</pdfrwt>
<pdfrwt beam="2">  1       -2 0.73099794E-01 0.12947178E+04</pdfrwt>
<totfact> 0.50003414E+01</totfact>
</mgrwt>
</event>
<event>
 4    1  0.1805887E-005  0.1157562E+04  0.7818608E-02  0.9150835E-01
          2   -1    0    0  501    0  0.00000000000E+00  0.00000000000E+00  0.15796701152E+04  0.15796701152E+04  0.25500000000E-02 0.  1.
         -2   -1    0    0    0  501 -0.00000000000E+00 -0.00000000000E+00 -0.21206176033E+03  0.21206176035E+03  0.25500000000E-02 0. -1.
   -5000001    1    1    2    0    0  0.40600516419E+03  0.23591091342E+03  0.33086241010E+03  0.62646954183E+03  0.25000000000E+03 0.  0.
    5000001    1    1    2    0    0 -0.40600516419E+03 -0.23591091342E+03  0.10367459448E+04  0.11652623337E+04  0.25000000000E+03 0.  0.
<mgrwt>
<rscale>  0 0.11575623E+04</rscale>
<asrwt>0</asrwt>
<pdfrwt beam="1">  1        2 0.24302618E+00 0.11575623E+04</pdfrwt>
<pdfrwt beam="2">  1       -2 0.32624884E-01 0.11575623E+04</pdfrwt>
<totfact> 0.99151460E+01</totfact>
</mgrwt>
</event>
<event>
 4    1  0.1805887E-005  0.1372852E+04  0.7818608E-02  0.8973708E-01
         -2   -1    0    0    0  501 -0.00000000000E+00  0.00000000000E+00  0.35089528561E+03  0.35089528562E+03  0.25500000000E-02 0. -1.
          2   -1    0    0  501    0  0.00000000000E+00 -0.00000000000E+00 -0.13427951135E+04  0.13427951135E+04  0.25500000000E-02 0.  1.
   -5000001    1    1    2    0    0  0.11910881604E+03  0.61888178932E+03 -0.62812829894E+03  0.92425469387E+03  0.25000000000E+03 0.  0.
    5000001    1    1    2    0    0 -0.11910881604E+03 -0.61888178932E+03 -0.36377152891E+03  0.76943570521E+03  0.25000000000E+03 0.  0.
<mgrwt>
<rscale>  0 0.13728517E+04</rscale>
<asrwt>0</asrwt>
<pdfrwt beam="1">  1        2 0.20658386E+00 0.13728517E+04</pdfrwt>
<pdfrwt beam="2">  1       -2 0.53983891E-01 0.13728517E+04</pdfrwt>
<totfact> 0.49191870E+01</totfact>
</mgrwt>
</event>
<event>
 4    1  0.1805887E-005  0.5718205E+03  0.7818608E-02  0.9965658E-01
         -2   -1    0    0    0  501 -0.00000000000E+00  0.00000000000E+00  0.34885975230E+02  0.34885975323E+02  0.25500000000E-02 0. -1.
          2   -1    0    0  501    0  0.00000000000E+00 -0.00000000000E+00 -0.23431954925E+04  0.23431954925E+04  0.25500000000E-02 0.  1.
   -5000001    1    1    2    0    0  0.58716095976E+02  0.94298282199E+02 -0.14997328295E+04  0.15244796837E+04  0.25000000000E+03 0.  0.
    5000001    1    1    2    0    0 -0.58716095976E+02 -0.94298282199E+02 -0.80857668769E+03  0.85360178411E+03  0.25000000000E+03 0.  0.
<mgrwt>
<rscale>  0 0.57182046E+03</rscale>
<asrwt>0</asrwt>
<pdfrwt beam="1">  1        2 0.36049149E+00 0.57182046E+03</pdfrwt>
<pdfrwt beam="2">  1       -2 0.53670749E-02 0.57182046E+03</pdfrwt>
<totfact> 0.82931179E+02</totfact>
</mgrwt>
</event>
<event>
 4    1  0.1805887E-005  0.8772319E+03  0.7818608E-02  0.9454499E-01
         -2   -1    0    0    0  501 -0.00000000000E+00  0.00000000000E+00  0.49770124350E+02  0.49770124415E+02  0.25500000000E-02 0. -1.
          2   -1    0    0  501    0  0.00000000000E+00 -0.00000000000E+00 -0.38654500985E+04  0.38654500985E+04  0.25500000000E-02 0.  1.
   -5000001    1    1    2    0    0 -0.34106807371E+03 -0.35423708541E+02 -0.14128189006E+04  0.14751744018E+04  0.25000000000E+03 0.  0.
    5000001    1    1    2    0    0  0.34106807371E+03  0.35423708541E+02 -0.24028610736E+04  0.24400458211E+04  0.25000000000E+03 0.  0.
<mgrwt>
<rscale>  0 0.87723186E+03</rscale>
<asrwt>0</asrwt>
<pdfrwt beam="1">  1        2 0.59468439E+00 0.87723186E+03</pdfrwt>
<pdfrwt beam="2">  1       -2 0.76569453E-02 0.87723186E+03</pdfrwt>
<totfact> 0.49548852E+01</totfact>
</mgrwt>
</event>
<event>
 4    1  0.1805887E-005  0.9808089E+03  0.7818608E-02  0.9329847E-01
          2   -1    0    0  501    0  0.00000000000E+00  0.00000000000E+00  0.15957720815E+04  0.15957720815E+04  0.25500000000E-02 0.  1.
         -2   -1    0    0    0  501 -0.00000000000E+00 -0.00000000000E+00 -0.15070857295E+03  0.15070857297E+03  0.25500000000E-02 0. -1.
   -5000001    1    1    2    0    0  0.18846136906E+03  0.37461761659E+03  0.64014912284E+03  0.80507573914E+03  0.25000000000E+03 0.  0.
    5000001    1    1    2    0    0 -0.18846136906E+03 -0.37461761659E+03  0.80491438573E+03  0.94140491535E+03  0.25000000000E+03 0.  0.
<mgrwt>
<rscale>  0 0.98080892E+03</rscale>
<asrwt>0</asrwt>
<pdfrwt beam="1">  1        2 0.24550341E+00 0.98080892E+03</pdfrwt>
<pdfrwt beam="2">  1       -2 0.23185933E-01 0.98080892E+03</pdfrwt>
<totfact> 0.18414154E+02</totfact>
</mgrwt>
</event>
<event>
 4    1  0.1805887E-005  0.7529120E+03  0.7818608E-02  0.9630793E-01
          2   -1    0    0  501    0  0.00000000000E+00  0.00000000000E+00  0.11230064996E+04  0.11230064996E+04  0.25500000000E-02 0.  1.
         -2   -1    0    0    0  501 -0.00000000000E+00 -0.00000000000E+00 -0.12619616774E+03  0.12619616777E+03  0.25500000000E-02 0. -1.
   -5000001    1    1    2    0    0  0.16460026926E+02  0.27951251429E+03  0.54594350414E+03  0.66253489557E+03  0.25000000000E+03 0.  0.
    5000001    1    1    2    0    0 -0.16460026926E+02 -0.27951251429E+03  0.45086682769E+03  0.58666777178E+03  0.25000000000E+03 0.  0.
<mgrwt>
<rscale>  0 0.75291199E+03</rscale>
<asrwt>0</asrwt>
<pdfrwt beam="1">  1        2 0.17277022E+00 0.75291199E+03</pdfrwt>
<pdfrwt beam="2">  1       -2 0.19414796E-01 0.75291199E+03</pdfrwt>
<totfact> 0.47730383E+02</totfact>
</mgrwt>
</event>
<event>
 4    1  0.1805887E-005  0.1053093E+04  0.7818608E-02  0.9252156E-01
          2   -1    0    0  501    0  0.00000000000E+00  0.00000000000E+00  0.20573812587E+03  0.20573812589E+03  0.25500000000E-02 0.  1.
         -2   -1    0    0    0  501 -0.00000000000E+00 -0.00000000000E+00 -0.13475934799E+04  0.13475934799E+04  0.25500000000E-02 0. -1.
   -5000001    1    1    2    0    0  0.23214123874E+03  0.36862531409E+03 -0.33781330706E+03  0.60530323586E+03  0.25000000000E+03 0.  0.
    5000001    1    1    2    0    0 -0.23214123874E+03 -0.36862531409E+03 -0.80404204700E+03  0.94802836997E+03  0.25000000000E+03 0.  0.
<mgrwt>
<rscale>  0 0.10530933E+04</rscale>
<asrwt>0</asrwt>
<pdfrwt beam="1">  1        2 0.31652020E-01 0.10530933E+04</pdfrwt>
<pdfrwt beam="2">  1       -2 0.20732207E+00 0.10530933E+04</pdfrwt>
<totfact> 0.19897975E+01</totfact>
</mgrwt>
</event>
<event>
 4    1  0.1805887E-005  0.6057631E+03  0.7818608E-02  0.9893521E-01
          2   -1    0    0  501    0  0.00000000000E+00  0.00000000000E+00  0.51514030986E+03  0.51514030987E+03  0.25500000000E-02 0.  1.
         -2   -1    0    0    0  501 -0.00000000000E+00 -0.00000000000E+00 -0.17808201626E+03  0.17808201628E+03  0.25500000000E-02 0. -1.
   -5000001    1    1    2    0    0  0.15312063182E+03  0.75518058045E+02  0.17928387482E+03  0.35184032280E+03  0.25000000000E+03 0.  0.
    5000001    1    1    2    0    0 -0.15312063182E+03 -0.75518058045E+02  0.15777441878E+03  0.34138200334E+03  0.25000000000E+03 0.  0.
<mgrwt>
<rscale>  0 0.60576307E+03</rscale>
<asrwt>0</asrwt>
<pdfrwt beam="1">  1        2 0.79252356E-01 0.60576307E+03</pdfrwt>
<pdfrwt beam="2">  1       -2 0.27397233E-01 0.60576307E+03</pdfrwt>
<totfact> 0.72506378E+02</totfact>
</mgrwt>
</event>
<event>
 4    1  0.1805887E-005  0.6181585E+03  0.7818608E-02  0.9868433E-01
         -2   -1    0    0    0  501 -0.00000000000E+00  0.00000000000E+00  0.45668955861E+02  0.45668955932E+02  0.25500000000E-02 0. -1.
          2   -1    0    0  501    0  0.00000000000E+00 -0.00000000000E+00 -0.20917923669E+04  0.20917923669E+04  0.25500000000E-02 0.  1.
   -5000001    1    1    2    0    0 -0.13278433974E+03 -0.36227317614E+02 -0.14334456293E+04  0.14615780758E+04  0.25000000000E+03 0.  0.
    5000001    1    1    2    0    0  0.13278433974E+03  0.36227317614E+02 -0.61267778174E+03  0.67588324706E+03  0.25000000000E+03 0.  0.
<mgrwt>
<rscale>  0 0.61815847E+03</rscale>
<asrwt>0</asrwt>
<pdfrwt beam="1">  1        2 0.32181414E+00 0.61815847E+03</pdfrwt>
<pdfrwt beam="2">  1       -2 0.70259948E-02 0.61815847E+03</pdfrwt>
<totfact> 0.74389102E+02</totfact>
</mgrwt>
</event>
<event>
 4    1  0.1805887E-005  0.1299037E+04  0.7818608E-02  0.9030329E-01
          2   -1    0    0  501    0  0.00000000000E+00  0.00000000000E+00  0.77338448750E+03  0.77338448750E+03  0.25500000000E-02 0.  1.
         -2   -1    0    0    0  501 -0.00000000000E+00 -0.00000000000E+00 -0.54549133314E+03  0.54549133314E+03  0.25500000000E-02 0. -1.
   -5000001    1    1    2    0    0 -0.43228636945E+03  0.30628318969E+02  0.53447612974E+03  0.73210267886E+03  0.25000000000E+03 0.  0.
    5000001    1    1    2    0    0  0.43228636945E+03 -0.30628318969E+02 -0.30658297537E+03  0.58677314179E+03  0.25000000000E+03 0.  0.
<mgrwt>
<rscale>  0 0.12990374E+04</rscale>
<asrwt>0</asrwt>
<pdfrwt beam="1">  1        2 0.11898223E+00 0.12990374E+04</pdfrwt>
<pdfrwt beam="2">  1       -2 0.83921744E-01 0.12990374E+04</pdfrwt>
<totfact> 0.43821384E+01</totfact>
</mgrwt>
</event>
<event>
 4    1  0.1805887E-005  0.5855529E+03  0.7818608E-02  0.9935841E-01
         -2   -1    0    0    0  501 -0.00000000000E+00  0.00000000000E+00  0.33993015046E+02  0.33993015142E+02  0.25500000000E-02 0. -1.
          2   -1    0    0  501    0  0.00000000000E+00 -0.00000000000E+00 -0.25216368428E+04  0.25216368428E+04  0.25500000000E-02 0.  1.
   -5000001    1    1    2    0    0  0.79881220789E+02  0.12789252752E+03 -0.13394956321E+04  0.13709434913E+04  0.25000000000E+03 0.  0.
    5000001    1    1    2    0    0 -0.79881220789E+02 -0.12789252752E+03 -0.11481481957E+04  0.11846863666E+04  0.25000000000E+03 0.  0.
<mgrwt>
<rscale>  0 0.58555286E+03</rscale>
<asrwt>0</asrwt>
<pdfrwt beam="1">  1        2 0.38794398E+00 0.58555286E+03</pdfrwt>
<pdfrwt beam="2">  1       -2 0.52296966E-02 0.58555286E+03</pdfrwt>
<totfact> 0.68563614E+02</totfact>
</mgrwt>
</event>
<event>
 4    1  0.1805887E-005  0.1022526E+04  0.7818608E-02  0.9284178E-01
          2   -1    0    0  501    0  0.00000000000E+00  0.00000000000E+00  0.18393157885E+03  0.18393157886E+03  0.25500000000E-02 0.  1.
         -2   -1    0    0    0  501 -0.00000000000E+00 -0.00000000000E+00 -0.14211262602E+04  0.14211262602E+04  0.25500000000E-02 0. -1.
   -5000001    1    1    2    0    0 -0.44331933822E+03 -0.44150644063E+02 -0.58686450710E+03  0.77806893313E+03  0.25000000000E+03 0.  0.
    5000001    1    1    2    0    0  0.44331933822E+03  0.44150644063E+02 -0.65033017429E+03  0.82698890598E+03  0.25000000000E+03 0.  0.
<mgrwt>
<rscale>  0 0.10225263E+04</rscale>
<asrwt>0</asrwt>
<pdfrwt beam="1">  1        2 0.28297167E-01 0.10225263E+04</pdfrwt>
<pdfrwt beam="2">  1       -2 0.21863480E+00 0.10225263E+04</pdfrwt>
<totfact> 0.19181139E+01</totfact>
</mgrwt>
</event>
<event>
 4    1  0.1805887E-005  0.1065581E+04  0.7818608E-02  0.9239404E-01
          2   -1    0    0  501    0  0.00000000000E+00  0.00000000000E+00  0.96929771059E+03  0.96929771059E+03  0.25500000000E-02 0.  1.
         -2   -1    0    0    0  501 -0.00000000000E+00 -0.00000000000E+00 -0.29285699757E+03  0.29285699759E+03  0.25500000000E-02 0. -1.
   -5000001    1    1    2    0    0  0.17818197052E+03  0.39350969821E+03  0.55907641099E+03  0.74944321368E+03  0.25000000000E+03 0.  0.
    5000001    1    1    2    0    0 -0.17818197052E+03 -0.39350969821E+03  0.11736430202E+03  0.51271149450E+03  0.25000000000E+03 0.  0.
<mgrwt>
<rscale>  0 0.10655808E+04</rscale>
<asrwt>0</asrwt>
<pdfrwt beam="1">  1        2 0.14912272E+00 0.10655808E+04</pdfrwt>
<pdfrwt beam="2">  1       -2 0.45054923E-01 0.10655808E+04</pdfrwt>
<totfact> 0.12250155E+02</totfact>
</mgrwt>
</event>
<event>
 4    1  0.1805887E-005  0.6166743E+03  0.7818608E-02  0.9871404E-01
         -2   -1    0    0    0  501 -0.00000000000E+00  0.00000000000E+00  0.10202886427E+03  0.10202886430E+03  0.25500000000E-02 0. -1.
          2   -1    0    0  501    0  0.00000000000E+00 -0.00000000000E+00 -0.93181283355E+03  0.93181283356E+03  0.25500000000E-02 0.  1.
   -5000001    1    1    2    0    0  0.12374157454E+03  0.12138917076E+03 -0.49912563392E+03  0.58452861904E+03  0.25000000000E+03 0.  0.
    5000001    1    1    2    0    0 -0.12374157454E+03 -0.12138917076E+03 -0.33065833537E+03  0.44931307881E+03  0.25000000000E+03 0.  0.
<mgrwt>
<rscale>  0 0.61667432E+03</rscale>
<asrwt>0</asrwt>
<pdfrwt beam="1">  1        2 0.14335581E+00 0.61667432E+03</pdfrwt>
<pdfrwt beam="2">  1       -2 0.15696749E-01 0.61667432E+03</pdfrwt>
<totfact> 0.91174945E+02</totfact>
</mgrwt>
</event>
<event>
 4    1  0.1805887E-005  0.5746207E+03  0.7818608E-02  0.9959506E-01
          2   -1    0    0  501    0  0.00000000000E+00  0.00000000000E+00  0.23872145903E+03  0.23872145904E+03  0.25500000000E-02 0.  1.
         -2   -1    0    0    0  501 -0.00000000000E+00 -0.00000000000E+00 -0.34578887534E+03  0.34578887535E+03  0.25500000000E-02 0. -1.
   -5000001    1    1    2    0    0  0.74196574350E+02 -0.11930306057E+03 -0.35656450895E+02  0.28898050868E+03  0.25000000000E+03 0.  0.
    5000001    1    1    2    0    0 -0.74196574350E+02  0.11930306057E+03 -0.71410965422E+02  0.29552982572E+03  0.25000000000E+03 0.  0.
<mgrwt>
<rscale>  0 0.57462066E+03</rscale>
<asrwt>0</asrwt>
<pdfrwt beam="1">  1        2 0.36726379E-01 0.57462066E+03</pdfrwt>
<pdfrwt beam="2">  1       -2 0.53198288E-01 0.57462066E+03</pdfrwt>
<totfact> 0.47620925E+02</totfact>
</mgrwt>
</event>
<event>
 4    1  0.1805887E-005  0.1055286E+04  0.7818608E-02  0.9249903E-01
          2   -1    0    0  501    0  0.00000000000E+00  0.00000000000E+00  0.25337597702E+04  0.25337597702E+04  0.25500000000E-02 0.  1.
         -2   -1    0    0    0  501 -0.00000000000E+00 -0.00000000000E+00 -0.10987910323E+03  0.10987910326E+03  0.25500000000E-02 0. -1.
   -5000001    1    1    2    0    0 -0.60330224213E+01 -0.44823056634E+03  0.15183487968E+04  0.16027570330E+04  0.25000000000E+03 0.  0.
    5000001    1    1    2    0    0  0.60330224213E+01  0.44823056634E+03  0.90553187009E+03  0.10408818404E+04  0.25000000000E+03 0.  0.
<mgrwt>
<rscale>  0 0.10552862E+04</rscale>
<asrwt>0</asrwt>
<pdfrwt beam="1">  1        2 0.38980925E+00 0.10552862E+04</pdfrwt>
<pdfrwt beam="2">  1       -2 0.16904475E-01 0.10552862E+04</pdfrwt>
<totfact> 0.95870816E+01</totfact>
</mgrwt>
</event>
<event>
 4    1  0.1805887E-005  0.9156832E+03  0.7818608E-02  0.9406186E-01
         -2   -1    0    0    0  501 -0.00000000000E+00  0.00000000000E+00  0.80728880527E+03  0.80728880527E+03  0.25500000000E-02 0. -1.
          2   -1    0    0  501    0  0.00000000000E+00 -0.00000000000E+00 -0.25965791193E+03  0.25965791194E+03  0.25500000000E-02 0.  1.
   -5000001    1    1    2    0    0  0.12111796819E+03  0.13667250093E+03  0.66683246097E+03  0.73519688909E+03  0.25000000000E+03 0.  0.
    5000001    1    1    2    0    0 -0.12111796819E+03 -0.13667250093E+03 -0.11920156763E+03  0.33174982812E+03  0.25000000000E+03 0.  0.
<mgrwt>
<rscale>  0 0.91568319E+03</rscale>
<asrwt>0</asrwt>
<pdfrwt beam="1">  1        2 0.39947371E-01 0.91568319E+03</pdfrwt>
<pdfrwt beam="2">  1       -2 0.12419828E+00 0.91568319E+03</pdfrwt>
<totfact> 0.62984339E+01</totfact>
</mgrwt>
</event>
<event>
 4    1  0.1805887E-005  0.6261706E+03  0.7818608E-02  0.9852550E-01
          2   -1    0    0  501    0  0.00000000000E+00  0.00000000000E+00  0.67632210873E+03  0.67632210873E+03  0.25500000000E-02 0.  1.
         -2   -1    0    0    0  501 -0.00000000000E+00 -0.00000000000E+00 -0.14493451638E+03  0.14493451640E+03  0.25500000000E-02 0. -1.
   -5000001    1    1    2    0    0 -0.18589379248E+03  0.26418924360E+02  0.28716310262E+03  0.42451985719E+03  0.25000000000E+03 0.  0.
    5000001    1    1    2    0    0  0.18589379248E+03 -0.26418924360E+02  0.24422448973E+03  0.39673676794E+03  0.25000000000E+03 0.  0.
<mgrwt>
<rscale>  0 0.62617064E+03</rscale>
<asrwt>0</asrwt>
<pdfrwt beam="1">  1        2 0.10404956E+00 0.62617064E+03</pdfrwt>
<pdfrwt beam="2">  1       -2 0.22297618E-01 0.62617064E+03</pdfrwt>
<totfact> 0.75732240E+02</totfact>
</mgrwt>
</event>
<event>
 4    1  0.1805887E-005  0.1247344E+04  0.7818608E-02  0.9072396E-01
          2   -1    0    0  501    0  0.00000000000E+00  0.00000000000E+00  0.84619631323E+03  0.84619631324E+03  0.25500000000E-02 0.  1.
         -2   -1    0    0    0  501 -0.00000000000E+00 -0.00000000000E+00 -0.45966519514E+03  0.45966519515E+03  0.25500000000E-02 0. -1.
   -5000001    1    1    2    0    0  0.13734193523E+02  0.44508423462E+03 -0.18155047011E+03  0.54198632563E+03  0.25000000000E+03 0.  0.
    5000001    1    1    2    0    0 -0.13734193523E+02 -0.44508423462E+03  0.56808158820E+03  0.76387518275E+03  0.25000000000E+03 0.  0.
<mgrwt>
<rscale>  0 0.12473444E+04</rscale>
<asrwt>0</asrwt>
<pdfrwt beam="1">  1        2 0.13018405E+00 0.12473444E+04</pdfrwt>
<pdfrwt beam="2">  1       -2 0.70717724E-01 0.12473444E+04</pdfrwt>
<totfact> 0.57126425E+01</totfact>
</mgrwt>
</event>
<event>
 4    1  0.1805887E-005  0.6602974E+03  0.7818608E-02  0.9787646E-01
         -2   -1    0    0    0  501 -0.00000000000E+00  0.00000000000E+00  0.38219510402E+03  0.38219510403E+03  0.25500000000E-02 0. -1.
          2   -1    0    0  501    0  0.00000000000E+00 -0.00000000000E+00 -0.28518985315E+03  0.28518985316E+03  0.25500000000E-02 0.  1.
   -5000001    1    1    2    0    0  0.14873345516E+03  0.15254999525E+03  0.14903911721E+02  0.32880886290E+03  0.25000000000E+03 0.  0.
    5000001    1    1    2    0    0 -0.14873345516E+03 -0.15254999525E+03  0.82101339149E+02  0.33857609429E+03  0.25000000000E+03 0.  0.
<mgrwt>
<rscale>  0 0.66029740E+03</rscale>
<asrwt>0</asrwt>
<pdfrwt beam="1">  1        2 0.43875362E-01 0.66029740E+03</pdfrwt>
<pdfrwt beam="2">  1       -2 0.58799247E-01 0.66029740E+03</pdfrwt>
<totfact> 0.31711535E+02</totfact>
</mgrwt>
</event>
<event>
 4    1  0.1805887E-005  0.9250255E+03  0.7818608E-02  0.9394828E-01
          2   -1    0    0  501    0  0.00000000000E+00  0.00000000000E+00  0.21750719349E+03  0.21750719351E+03  0.25500000000E-02 0.  1.
         -2   -1    0    0    0  501 -0.00000000000E+00 -0.00000000000E+00 -0.98349880545E+03  0.98349880546E+03  0.25500000000E-02 0. -1.
   -5000001    1    1    2    0    0  0.74468779688E+01  0.35692412662E+03 -0.58400009590E+03  0.72870185959E+03  0.25000000000E+03 0.  0.
    5000001    1    1    2    0    0 -0.74468779688E+01 -0.35692412662E+03 -0.18199151606E+03  0.47230413938E+03  0.25000000000E+03 0.  0.
<mgrwt>
<rscale>  0 0.92502555E+03</rscale>
<asrwt>0</asrwt>
<pdfrwt beam="1">  1        2 0.33462646E-01 0.92502555E+03</pdfrwt>
<pdfrwt beam="2">  1       -2 0.15130751E+00 0.92502555E+03</pdfrwt>
<totfact> 0.46145023E+01</totfact>
</mgrwt>
</event>
<event>
 4    1  0.1805887E-005  0.7900456E+03  0.7818608E-02  0.9574539E-01
          2   -1    0    0  501    0  0.00000000000E+00  0.00000000000E+00  0.21005330290E+04  0.21005330290E+04  0.25500000000E-02 0.  1.
         -2   -1    0    0    0  501 -0.00000000000E+00 -0.00000000000E+00 -0.74287331923E+02  0.74287331967E+02  0.25500000000E-02 0. -1.
   -5000001    1    1    2    0    0 -0.20962067445E+02  0.28792039817E+03  0.12912138397E+04  0.13465031540E+04  0.25000000000E+03 0.  0.
    5000001    1    1    2    0    0  0.20962067445E+02 -0.28792039817E+03  0.73503185732E+03  0.82831720689E+03  0.25000000000E+03 0.  0.
<mgrwt>
<rscale>  0 0.79004555E+03</rscale>
<asrwt>0</asrwt>
<pdfrwt beam="1">  1        2 0.32315894E+00 0.79004555E+03</pdfrwt>
<pdfrwt beam="2">  1       -2 0.11428820E-01 0.79004555E+03</pdfrwt>
<totfact> 0.33133160E+02</totfact>
</mgrwt>
</event>
<event>
 4    1  0.1805887E-005  0.6362086E+03  0.7818608E-02  0.9833007E-01
         -2   -1    0    0    0  501 -0.00000000000E+00  0.00000000000E+00  0.11850290409E+03  0.11850290412E+03  0.25500000000E-02 0. -1.
          2   -1    0    0  501    0  0.00000000000E+00 -0.00000000000E+00 -0.85390610221E+03  0.85390610222E+03  0.25500000000E-02 0.  1.
   -5000001    1    1    2    0    0  0.14861848603E+03 -0.11416298944E+03 -0.45902160136E+03  0.55526702861E+03  0.25000000000E+03 0.  0.
    5000001    1    1    2    0    0 -0.14861848603E+03  0.11416298944E+03 -0.27638159677E+03  0.41714197772E+03  0.25000000000E+03 0.  0.
<mgrwt>
<rscale>  0 0.63620862E+03</rscale>
<asrwt>0</asrwt>
<pdfrwt beam="1">  1        2 0.13137017E+00 0.63620862E+03</pdfrwt>
<pdfrwt beam="2">  1       -2 0.18231217E-01 0.63620862E+03</pdfrwt>
<totfact> 0.79599619E+02</totfact>
</mgrwt>
</event>
<event>
 4    1  0.1805887E-005  0.1516333E+04  0.7818608E-02  0.8873664E-01
         -2   -1    0    0    0  501 -0.00000000000E+00  0.00000000000E+00  0.41598134049E+03  0.41598134050E+03  0.25500000000E-02 0. -1.
          2   -1    0    0  501    0  0.00000000000E+00 -0.00000000000E+00 -0.13818323978E+04  0.13818323978E+04  0.25500000000E-02 0.  1.
   -5000001    1    1    2    0    0 -0.86893641669E+02 -0.69355631012E+03 -0.66562696586E+03  0.99706073935E+03  0.25000000000E+03 0.  0.
    5000001    1    1    2    0    0  0.86893641669E+02  0.69355631012E+03 -0.30022409145E+03  0.80075299897E+03  0.25000000000E+03 0.  0.
<mgrwt>
<rscale>  0 0.15163331E+04</rscale>
<asrwt>0</asrwt>
<pdfrwt beam="1">  1        2 0.21258960E+00 0.15163331E+04</pdfrwt>
<pdfrwt beam="2">  1       -2 0.63997130E-01 0.15163331E+04</pdfrwt>
<totfact> 0.32285960E+01</totfact>
</mgrwt>
</event>
<event>
 4    1  0.1805887E-005  0.7250187E+03  0.7818608E-02  0.9675378E-01
         -2   -1    0    0    0  501 -0.00000000000E+00  0.00000000000E+00  0.14774146485E+03  0.14774146487E+03  0.25500000000E-02 0. -1.
          2   -1    0    0  501    0  0.00000000000E+00 -0.00000000000E+00 -0.88947977749E+03  0.88947977749E+03  0.25500000000E-02 0.  1.
   -5000001    1    1    2    0    0 -0.13344584527E+03 -0.17553888477E+03 -0.57465670968E+03  0.66434330558E+03  0.25000000000E+03 0.  0.
    5000001    1    1    2    0    0  0.13344584527E+03  0.17553888477E+03 -0.16708160296E+03  0.37287793678E+03  0.25000000000E+03 0.  0.
<mgrwt>
<rscale>  0 0.72501875E+03</rscale>
<asrwt>0</asrwt>
<pdfrwt beam="1">  1        2 0.13684304E+00 0.72501875E+03</pdfrwt>
<pdfrwt beam="2">  1       -2 0.22729457E-01 0.72501875E+03</pdfrwt>
<totfact> 0.51012066E+02</totfact>
</mgrwt>
</event>
<event>
 4    1  0.1805887E-005  0.6335773E+03  0.7818608E-02  0.9838093E-01
         -2   -1    0    0    0  501 -0.00000000000E+00  0.00000000000E+00  0.63839895459E+03  0.63839895459E+03  0.25500000000E-02 0. -1.
          2   -1    0    0  501    0  0.00000000000E+00 -0.00000000000E+00 -0.15719803185E+03  0.15719803187E+03  0.25500000000E-02 0.  1.
   -5000001    1    1    2    0    0 -0.19060834686E+03 -0.69146602740E+01  0.19236202282E+03  0.36862243860E+03  0.25000000000E+03 0.  0.
    5000001    1    1    2    0    0  0.19060834686E+03  0.69146602740E+01  0.28883889991E+03  0.42697454786E+03  0.25000000000E+03 0.  0.
<mgrwt>
<rscale>  0 0.63357733E+03</rscale>
<asrwt>0</asrwt>
<pdfrwt beam="1">  1        2 0.24184312E-01 0.63357733E+03</pdfrwt>
<pdfrwt beam="2">  1       -2 0.98215225E-01 0.63357733E+03</pdfrwt>
<totfact> 0.19853894E+02</totfact>
</mgrwt>
</event>
<event>
 4    1  0.1805887E-005  0.9004283E+03  0.7818608E-02  0.9425046E-01
          2   -1    0    0  501    0  0.00000000000E+00  0.00000000000E+00  0.32464254702E+03  0.32464254703E+03  0.25500000000E-02 0.  1.
         -2   -1    0    0    0  501 -0.00000000000E+00 -0.00000000000E+00 -0.62435683678E+03  0.62435683679E+03  0.25500000000E-02 0. -1.
   -5000001    1    1    2    0    0  0.30674404175E+03  0.13200825176E+03  0.28613290441E+02  0.41813491372E+03  0.25000000000E+03 0.  0.
    5000001    1    1    2    0    0 -0.30674404175E+03 -0.13200825176E+03 -0.32832758020E+03  0.53086447009E+03  0.25000000000E+03 0.  0.
<mgrwt>
<rscale>  0 0.90042833E+03</rscale>
<asrwt>0</asrwt>
<pdfrwt beam="1">  1        2 0.49945007E-01 0.90042833E+03</pdfrwt>
<pdfrwt beam="2">  1       -2 0.96054898E-01 0.90042833E+03</pdfrwt>
<totfact> 0.91617340E+01</totfact>
</mgrwt>
</event>
<event>
 4    1  0.1805887E-005  0.7787007E+03  0.7818608E-02  0.9591369E-01
         -2   -1    0    0    0  501 -0.00000000000E+00  0.00000000000E+00  0.17145341421E+03  0.17145341423E+03  0.25500000000E-02 0. -1.
          2   -1    0    0  501    0  0.00000000000E+00 -0.00000000000E+00 -0.88416834749E+03  0.88416834750E+03  0.25500000000E-02 0.  1.
   -5000001    1    1    2    0    0  0.24543378043E+03 -0.16634519652E+03 -0.40302734987E+03  0.55932057867E+03  0.25000000000E+03 0.  0.
    5000001    1    1    2    0    0 -0.24543378043E+03  0.16634519652E+03 -0.30968758342E+03  0.49630118306E+03  0.25000000000E+03 0.  0.
<mgrwt>
<rscale>  0 0.77870067E+03</rscale>
<asrwt>0</asrwt>
<pdfrwt beam="1">  1        2 0.13602590E+00 0.77870067E+03</pdfrwt>
<pdfrwt beam="2">  1       -2 0.26377449E-01 0.77870067E+03</pdfrwt>
<totfact> 0.39272757E+02</totfact>
</mgrwt>
</event>
<event>
 4    1  0.1805887E-005  0.7171204E+03  0.7818608E-02  0.9688394E-01
         -2   -1    0    0    0  501 -0.00000000000E+00  0.00000000000E+00  0.11290814683E+03  0.11290814685E+03  0.25500000000E-02 0. -1.
          2   -1    0    0  501    0  0.00000000000E+00 -0.00000000000E+00 -0.11386726357E+04  0.11386726357E+04  0.25500000000E-02 0.  1.
   -5000001    1    1    2    0    0 -0.80624899614E+02  0.14726394008E+03 -0.85255637828E+03  0.90417886539E+03  0.25000000000E+03 0.  0.
    5000001    1    1    2    0    0  0.80624899614E+02 -0.14726394008E+03 -0.17320811064E+03  0.34740191721E+03  0.25000000000E+03 0.  0.
<mgrwt>
<rscale>  0 0.71712040E+03</rscale>
<asrwt>0</asrwt>
<pdfrwt beam="1">  1        2 0.17518040E+00 0.71712040E+03</pdfrwt>
<pdfrwt beam="2">  1       -2 0.17370485E-01 0.71712040E+03</pdfrwt>
<totfact> 0.56704771E+02</totfact>
</mgrwt>
</event>
<event>
 4    1  0.1805887E-005  0.9787070E+03  0.7818608E-02  0.9332212E-01
          2   -1    0    0  501    0  0.00000000000E+00  0.00000000000E+00  0.81410937138E+03  0.81410937138E+03  0.25500000000E-02 0.  1.
         -2   -1    0    0    0  501 -0.00000000000E+00 -0.00000000000E+00 -0.29414579684E+03  0.29414579685E+03  0.25500000000E-02 0. -1.
   -5000001    1    1    2    0    0 -0.24644626524E+03  0.29415579146E+03  0.64821891103E+02  0.46256379978E+03  0.25000000000E+03 0.  0.
    5000001    1    1    2    0    0  0.24644626524E+03 -0.29415579146E+03  0.45514168343E+03  0.64569136845E+03  0.25000000000E+03 0.  0.
<mgrwt>
<rscale>  0 0.97870700E+03</rscale>
<asrwt>0</asrwt>
<pdfrwt beam="1">  1        2 0.12524759E+00 0.97870700E+03</pdfrwt>
<pdfrwt beam="2">  1       -2 0.45253200E-01 0.97870700E+03</pdfrwt>
<totfact> 0.15568984E+02</totfact>
</mgrwt>
</event>
<event>
 4    1  0.1805887E-005  0.9896685E+03  0.7818608E-02  0.9319949E-01
         -2   -1    0    0    0  501 -0.00000000000E+00  0.00000000000E+00  0.28716550686E+03  0.28716550687E+03  0.25500000000E-02 0. -1.
          2   -1    0    0  501    0  0.00000000000E+00 -0.00000000000E+00 -0.85268223509E+03  0.85268223510E+03  0.25500000000E-02 0.  1.
   -5000001    1    1    2    0    0 -0.12182363881E+03 -0.39557438047E+03 -0.40377862879E+03  0.62996608681E+03  0.25000000000E+03 0.  0.
    5000001    1    1    2    0    0  0.12182363881E+03  0.39557438047E+03 -0.16173809944E+03  0.50988165516E+03  0.25000000000E+03 0.  0.
<mgrwt>
<rscale>  0 0.98966848E+03</rscale>
<asrwt>0</asrwt>
<pdfrwt beam="1">  1        2 0.13118188E+00 0.98966848E+03</pdfrwt>
<pdfrwt beam="2">  1       -2 0.44179309E-01 0.98966848E+03</pdfrwt>
<totfact> 0.15331062E+02</totfact>
</mgrwt>
</event>
<event>
 4    1  0.1805887E-005  0.1139586E+04  0.7818608E-02  0.9167445E-01
         -2   -1    0    0    0  501 -0.00000000000E+00  0.00000000000E+00  0.23999076769E+03  0.23999076770E+03  0.25500000000E-02 0. -1.
          2   -1    0    0  501    0  0.00000000000E+00 -0.00000000000E+00 -0.13528187352E+04  0.13528187352E+04  0.25500000000E-02 0.  1.
   -5000001    1    1    2    0    0  0.41579836502E+03  0.28897813791E+03 -0.45026755519E+03  0.72224477555E+03  0.25000000000E+03 0.  0.
    5000001    1    1    2    0    0 -0.41579836502E+03 -0.28897813791E+03 -0.66256041230E+03  0.87056472734E+03  0.25000000000E+03 0.  0.
<mgrwt>
<rscale>  0 0.11395859E+04</rscale>
<asrwt>0</asrwt>
<pdfrwt beam="1">  1        2 0.20812595E+00 0.11395859E+04</pdfrwt>
<pdfrwt beam="2">  1       -2 0.36921657E-01 0.11395859E+04</pdfrwt>
<totfact> 0.10537709E+02</totfact>
</mgrwt>
</event>
<event>
 4    1  0.1805887E-005  0.5772037E+03  0.7818608E-02  0.9953863E-01
         -2   -1    0    0    0  501 -0.00000000000E+00  0.00000000000E+00  0.47999514478E+02  0.47999514546E+02  0.25500000000E-02 0. -1.
          2   -1    0    0  501    0  0.00000000000E+00 -0.00000000000E+00 -0.17352471476E+04  0.17352471476E+04  0.25500000000E-02 0.  1.
   -5000001    1    1    2    0    0  0.12535204006E+03 -0.66593469742E+02 -0.76527108097E+03  0.81748862471E+03  0.25000000000E+03 0.  0.
    5000001    1    1    2    0    0 -0.12535204006E+03  0.66593469742E+02 -0.92197655216E+03  0.96575803745E+03  0.25000000000E+03 0.  0.
<mgrwt>
<rscale>  0 0.57720368E+03</rscale>
<asrwt>0</asrwt>
<pdfrwt beam="1">  1        2 0.26696105E+00 0.57720368E+03</pdfrwt>
<pdfrwt beam="2">  1       -2 0.73845420E-02 0.57720368E+03</pdfrwt>
<totfact> 0.10751672E+03</totfact>
</mgrwt>
</event>
<event>
 4    1  0.1805887E-005  0.6605284E+03  0.7818608E-02  0.9787221E-01
          2   -1    0    0  501    0  0.00000000000E+00  0.00000000000E+00  0.11125776221E+04  0.11125776221E+04  0.25500000000E-02 0.  1.
         -2   -1    0    0    0  501 -0.00000000000E+00 -0.00000000000E+00 -0.98037604078E+02  0.98037604112E+02  0.25500000000E-02 0. -1.
   -5000001    1    1    2    0    0  0.62746395474E+02  0.18471090824E+03  0.67643652785E+03  0.74707536834E+03  0.25000000000E+03 0.  0.
    5000001    1    1    2    0    0 -0.62746395474E+02 -0.18471090824E+03  0.33810349016E+03  0.46353985786E+03  0.25000000000E+03 0.  0.
<mgrwt>
<rscale>  0 0.66052841E+03</rscale>
<asrwt>0</asrwt>
<pdfrwt beam="1">  1        2 0.17116579E+00 0.66052841E+03</pdfrwt>
<pdfrwt beam="2">  1       -2 0.15082708E-01 0.66052841E+03</pdfrwt>
<totfact> 0.74960498E+02</totfact>
</mgrwt>
</event>
<event>
 4    1  0.1805887E-005  0.6983051E+03  0.7818608E-02  0.9720135E-01
          2   -1    0    0  501    0  0.00000000000E+00  0.00000000000E+00  0.32431393994E+04  0.32431393994E+04  0.25500000000E-02 0.  1.
         -2   -1    0    0    0  501 -0.00000000000E+00 -0.00000000000E+00 -0.37589346421E+02  0.37589346507E+02  0.25500000000E-02 0. -1.
   -5000001    1    1    2    0    0 -0.20611131382E+03  0.12910409469E+03  0.16782015521E+04  0.17140624815E+04  0.25000000000E+03 0.  0.
    5000001    1    1    2    0    0  0.20611131382E+03 -0.12910409469E+03  0.15273485008E+04  0.15666662644E+04  0.25000000000E+03 0.  0.
<mgrwt>
<rscale>  0 0.69830506E+03</rscale>
<asrwt>0</asrwt>
<pdfrwt beam="1">  1        2 0.49894466E+00 0.69830506E+03</pdfrwt>
<pdfrwt beam="2">  1       -2 0.57829748E-02 0.69830506E+03</pdfrwt>
<totfact> 0.21421057E+02</totfact>
</mgrwt>
</event>
<event>
 4    1  0.1805887E-005  0.7732187E+03  0.7818608E-02  0.9599612E-01
          2   -1    0    0  501    0  0.00000000000E+00  0.00000000000E+00  0.96856067772E+03  0.96856067772E+03  0.25500000000E-02 0.  1.
         -2   -1    0    0    0  501 -0.00000000000E+00 -0.00000000000E+00 -0.15431844916E+03  0.15431844918E+03  0.25500000000E-02 0. -1.
   -5000001    1    1    2    0    0  0.13932496682E+03 -0.22253952382E+03  0.21211575486E+03  0.42003378376E+03  0.25000000000E+03 0.  0.
    5000001    1    1    2    0    0 -0.13932496682E+03  0.22253952382E+03  0.60212647370E+03  0.70284534314E+03  0.25000000000E+03 0.  0.
<mgrwt>
<rscale>  0 0.77321868E+03</rscale>
<asrwt>0</asrwt>
<pdfrwt beam="1">  1        2 0.14900934E+00 0.77321868E+03</pdfrwt>
<pdfrwt beam="2">  1       -2 0.23741300E-01 0.77321868E+03</pdfrwt>
<totfact> 0.41757588E+02</totfact>
</mgrwt>
</event>
<event>
 4    1  0.1805887E-005  0.6684829E+03  0.7818608E-02  0.9772702E-01
          2   -1    0    0  501    0  0.00000000000E+00  0.00000000000E+00  0.13242546740E+04  0.13242546740E+04  0.25500000000E-02 0.  1.
         -2   -1    0    0    0  501 -0.00000000000E+00 -0.00000000000E+00 -0.84362445366E+02  0.84362445405E+02  0.25500000000E-02 0. -1.
   -5000001    1    1    2    0    0  0.21308429720E+03 -0.60038754302E+02  0.65032123150E+03  0.73104532956E+03  0.25000000000E+03 0.  0.
    5000001    1    1    2    0    0 -0.21308429720E+03  0.60038754302E+02  0.58957099710E+03  0.67757178981E+03  0.25000000000E+03 0.  0.
<mgrwt>
<rscale>  0 0.66848295E+03</rscale>
<asrwt>0</asrwt>
<pdfrwt beam="1">  1        2 0.20373149E+00 0.66848295E+03</pdfrwt>
<pdfrwt beam="2">  1       -2 0.12978837E-01 0.66848295E+03</pdfrwt>
<totfact> 0.72402891E+02</totfact>
</mgrwt>
</event>
<event>
 4    1  0.1805887E-005  0.9396771E+03  0.7818608E-02  0.9377299E-01
         -2   -1    0    0    0  501 -0.00000000000E+00  0.00000000000E+00  0.16256283098E+03  0.16256283100E+03  0.25500000000E-02 0. -1.
          2   -1    0    0  501    0  0.00000000000E+00 -0.00000000000E+00 -0.13579257410E+04  0.13579257410E+04  0.25500000000E-02 0.  1.
   -5000001    1    1    2    0    0 -0.11807462948E+02  0.36087084121E+03 -0.86786522998E+03  0.97265473711E+03  0.25000000000E+03 0.  0.
    5000001    1    1    2    0    0  0.11807462948E+02 -0.36087084121E+03 -0.32749768001E+03  0.54783383487E+03  0.25000000000E+03 0.  0.
<mgrwt>
<rscale>  0 0.93967708E+03</rscale>
<asrwt>0</asrwt>
<pdfrwt beam="1">  1        2 0.20891165E+00 0.93967708E+03</pdfrwt>
<pdfrwt beam="2">  1       -2 0.25009667E-01 0.93967708E+03</pdfrwt>
<totfact> 0.21931434E+02</totfact>
</mgrwt>
</event>
<event>
 4    1  0.1805887E-005  0.8074629E+03  0.7818608E-02  0.9549277E-01
          2   -1    0    0  501    0  0.00000000000E+00  0.00000000000E+00  0.81154720193E+03  0.81154720193E+03  0.25500000000E-02 0.  1.
         -2   -1    0    0    0  501 -0.00000000000E+00 -0.00000000000E+00 -0.20084978009E+03  0.20084978011E+03  0.25500000000E-02 0. -1.
   -5000001    1    1    2    0    0 -0.12799813389E+03  0.28224611184E+03  0.22168456861E+03  0.45573066376E+03  0.25000000000E+03 0.  0.
    5000001    1    1    2    0    0  0.12799813389E+03 -0.28224611184E+03  0.38901285323E+03  0.55666631828E+03  0.25000000000E+03 0.  0.
<mgrwt>
<rscale>  0 0.80746288E+03</rscale>
<asrwt>0</asrwt>
<pdfrwt beam="1">  1        2 0.12485341E+00 0.80746288E+03</pdfrwt>
<pdfrwt beam="2">  1       -2 0.30899967E-01 0.80746288E+03</pdfrwt>
<totfact> 0.32925297E+02</totfact>
</mgrwt>
</event>
<event>
 4    1  0.1805887E-005  0.9674239E+03  0.7818608E-02  0.9345013E-01
         -2   -1    0    0    0  501 -0.00000000000E+00  0.00000000000E+00  0.25147769691E+03  0.25147769692E+03  0.25500000000E-02 0. -1.
          2   -1    0    0  501    0  0.00000000000E+00 -0.00000000000E+00 -0.93040957294E+03  0.93040957294E+03  0.25500000000E-02 0.  1.
   -5000001    1    1    2    0    0 -0.36562843486E+03  0.18480853106E+03 -0.41316211471E+03  0.63327819997E+03  0.25000000000E+03 0.  0.
    5000001    1    1    2    0    0  0.36562843486E+03 -0.18480853106E+03 -0.26576976132E+03  0.54860906989E+03  0.25000000000E+03 0.  0.
<mgrwt>
<rscale>  0 0.96742391E+03</rscale>
<asrwt>0</asrwt>
<pdfrwt beam="1">  1        2 0.14313993E+00 0.96742391E+03</pdfrwt>
<pdfrwt beam="2">  1       -2 0.38688877E-01 0.96742391E+03</pdfrwt>
<totfact> 0.17641027E+02</totfact>
</mgrwt>
</event>
<event>
 4    1  0.1805887E-005  0.5308612E+03  0.7818608E-02  0.1006023E+00
          2   -1    0    0  501    0  0.00000000000E+00  0.00000000000E+00  0.99145125759E+03  0.99145125759E+03  0.25500000000E-02 0.  1.
         -2   -1    0    0    0  501 -0.00000000000E+00 -0.00000000000E+00 -0.71060876715E+02  0.71060876760E+02  0.25500000000E-02 0. -1.
   -5000001    1    1    2    0    0 -0.26350579643E+01 -0.88345081387E+02  0.43637843855E+03  0.51062504695E+03  0.25000000000E+03 0.  0.
    5000001    1    1    2    0    0  0.26350579643E+01  0.88345081387E+02  0.48401194232E+03  0.55188708741E+03  0.25000000000E+03 0.  0.
<mgrwt>
<rscale>  0 0.53086117E+03</rscale>
<asrwt>0</asrwt>
<pdfrwt beam="1">  1        2 0.15253096E+00 0.53086117E+03</pdfrwt>
<pdfrwt beam="2">  1       -2 0.10932442E-01 0.53086117E+03</pdfrwt>
<totfact> 0.15243692E+03</totfact>
</mgrwt>
</event>
<event>
 4    1  0.1805887E-005  0.1047558E+04  0.7818608E-02  0.9257869E-01
         -2   -1    0    0    0  501 -0.00000000000E+00  0.00000000000E+00  0.10546374199E+03  0.10546374202E+03  0.25500000000E-02 0. -1.
          2   -1    0    0  501    0  0.00000000000E+00 -0.00000000000E+00 -0.26013164724E+04  0.26013164724E+04  0.25500000000E-02 0.  1.
   -5000001    1    1    2    0    0 -0.31090507029E+03  0.30600839729E+03 -0.16271648961E+04  0.17030762464E+04  0.25000000000E+03 0.  0.
    5000001    1    1    2    0    0  0.31090507029E+03 -0.30600839729E+03 -0.86868783422E+03  0.10037039679E+04  0.25000000000E+03 0.  0.
<mgrwt>
<rscale>  0 0.10475582E+04</rscale>
<asrwt>0</asrwt>
<pdfrwt beam="1">  1        2 0.40020248E+00 0.10475582E+04</pdfrwt>
<pdfrwt beam="2">  1       -2 0.16225193E-01 0.10475582E+04</pdfrwt>
<totfact> 0.94099889E+01</totfact>
</mgrwt>
</event>
<event>
 4    1  0.1805887E-005  0.8836570E+03  0.7818608E-02  0.9446245E-01
         -2   -1    0    0    0  501 -0.00000000000E+00  0.00000000000E+00  0.51210351051E+02  0.51210351115E+02  0.25500000000E-02 0. -1.
          2   -1    0    0  501    0  0.00000000000E+00 -0.00000000000E+00 -0.38119715866E+04  0.38119715866E+04  0.25500000000E-02 0.  1.
   -5000001    1    1    2    0    0  0.23169129388E+03 -0.18679762458E+03 -0.96190264168E+03  0.10374636862E+04  0.25000000000E+03 0.  0.
    5000001    1    1    2    0    0 -0.23169129388E+03  0.18679762458E+03 -0.27988585939E+04  0.28257182515E+04  0.25000000000E+03 0.  0.
<mgrwt>
<rscale>  0 0.88365695E+03</rscale>
<asrwt>0</asrwt>
<pdfrwt beam="1">  1        2 0.58645695E+00 0.88365695E+03</pdfrwt>
<pdfrwt beam="2">  1       -2 0.78785185E-02 0.88365695E+03</pdfrwt>
<totfact> 0.51885110E+01</totfact>
</mgrwt>
</event>
<event>
 4    1  0.1805887E-005  0.6285141E+03  0.7818608E-02  0.9847953E-01
         -2   -1    0    0    0  501 -0.00000000000E+00  0.00000000000E+00  0.48415587555E+02  0.48415587622E+02  0.25500000000E-02 0. -1.
          2   -1    0    0  501    0  0.00000000000E+00 -0.00000000000E+00 -0.20397873638E+04  0.20397873638E+04  0.25500000000E-02 0.  1.
   -5000001    1    1    2    0    0 -0.10387195950E+03 -0.11776038093E+03 -0.13535334953E+04  0.13853554829E+04  0.25000000000E+03 0.  0.
    5000001    1    1    2    0    0  0.10387195950E+03  0.11776038093E+03 -0.63783828102E+03  0.70284746853E+03  0.25000000000E+03 0.  0.
<mgrwt>
<rscale>  0 0.62851413E+03</rscale>
<asrwt>0</asrwt>
<pdfrwt beam="1">  1        2 0.31381337E+00 0.62851413E+03</pdfrwt>
<pdfrwt beam="2">  1       -2 0.74485535E-02 0.62851413E+03</pdfrwt>
<totfact> 0.72321021E+02</totfact>
</mgrwt>
</event>
<event>
 4    1  0.1805887E-005  0.6955612E+03  0.7818608E-02  0.9724853E-01
         -2   -1    0    0    0  501 -0.00000000000E+00  0.00000000000E+00  0.20527298775E+03  0.20527298777E+03  0.25500000000E-02 0. -1.
          2   -1    0    0  501    0  0.00000000000E+00 -0.00000000000E+00 -0.58922188188E+03  0.58922188189E+03  0.25500000000E-02 0.  1.
   -5000001    1    1    2    0    0 -0.43938140107E+02 -0.23255805098E+03 -0.24836815552E+03  0.42450035089E+03  0.25000000000E+03 0.  0.
    5000001    1    1    2    0    0  0.43938140107E+02  0.23255805098E+03 -0.13558073862E+03  0.36999451877E+03  0.25000000000E+03 0.  0.
<mgrwt>
<rscale>  0 0.69556117E+03</rscale>
<asrwt>0</asrwt>
<pdfrwt beam="1">  1        2 0.90649520E-01 0.69556117E+03</pdfrwt>
<pdfrwt beam="2">  1       -2 0.31580460E-01 0.69556117E+03</pdfrwt>
<totfact> 0.47512704E+02</totfact>
</mgrwt>
</event>
<event>
 4    1  0.1805887E-005  0.5899518E+03  0.7818608E-02  0.9926475E-01
         -2   -1    0    0    0  501 -0.00000000000E+00  0.00000000000E+00  0.10154591708E+04  0.10154591708E+04  0.25500000000E-02 0. -1.
          2   -1    0    0  501    0  0.00000000000E+00 -0.00000000000E+00 -0.85686153466E+02  0.85686153504E+02  0.25500000000E-02 0.  1.
   -5000001    1    1    2    0    0 -0.22366069309E+02  0.14568473677E+03  0.56341416197E+03  0.63376636192E+03  0.25000000000E+03 0.  0.
    5000001    1    1    2    0    0  0.22366069309E+02 -0.14568473677E+03  0.36635885534E+03  0.46737896237E+03  0.25000000000E+03 0.  0.
<mgrwt>
<rscale>  0 0.58995183E+03</rscale>
<asrwt>0</asrwt>
<pdfrwt beam="1">  1        2 0.13182485E-01 0.58995183E+03</pdfrwt>
<pdfrwt beam="2">  1       -2 0.15622449E+00 0.58995183E+03</pdfrwt>
<totfact> 0.12851998E+02</totfact>
</mgrwt>
</event>
<event>
 4    1  0.1805887E-005  0.6771847E+03  0.7818608E-02  0.9757065E-01
          2   -1    0    0  501    0  0.00000000000E+00  0.00000000000E+00  0.32742271382E+03  0.32742271383E+03  0.25500000000E-02 0.  1.
         -2   -1    0    0    0  501 -0.00000000000E+00 -0.00000000000E+00 -0.35014304231E+03  0.35014304232E+03  0.25500000000E-02 0. -1.
   -5000001    1    1    2    0    0  0.57580964328E+02 -0.21818337842E+03 -0.46383160890E+02  0.33995727921E+03  0.25000000000E+03 0.  0.
    5000001    1    1    2    0    0 -0.57580964328E+02  0.21818337842E+03  0.23662832395E+02  0.33760847695E+03  0.25000000000E+03 0.  0.
<mgrwt>
<rscale>  0 0.67718472E+03</rscale>
<asrwt>0</asrwt>
<pdfrwt beam="1">  1        2 0.50372725E-01 0.67718472E+03</pdfrwt>
<pdfrwt beam="2">  1       -2 0.53868160E-01 0.67718472E+03</pdfrwt>
<totfact> 0.32634262E+02</totfact>
</mgrwt>
</event>
<event>
 4    1  0.1805887E-005  0.5940750E+03  0.7818608E-02  0.9917775E-01
         -2   -1    0    0    0  501 -0.00000000000E+00  0.00000000000E+00  0.58936252522E+02  0.58936252577E+02  0.25500000000E-02 0. -1.
          2   -1    0    0  501    0  0.00000000000E+00 -0.00000000000E+00 -0.14970627384E+04  0.14970627384E+04  0.25500000000E-02 0.  1.
   -5000001    1    1    2    0    0 -0.30217876848E+02  0.12751629347E+03 -0.96136003384E+03  0.10019414353E+04  0.25000000000E+03 0.  0.
    5000001    1    1    2    0    0  0.30217876848E+02 -0.12751629347E+03 -0.47676645208E+03  0.55405755568E+03  0.25000000000E+03 0.  0.
<mgrwt>
<rscale>  0 0.59407497E+03</rscale>
<asrwt>0</asrwt>
<pdfrwt beam="1">  1        2 0.23031732E+00 0.59407497E+03</pdfrwt>
<pdfrwt beam="2">  1       -2 0.90671169E-02 0.59407497E+03</pdfrwt>
<totfact> 0.10444316E+03</totfact>
</mgrwt>
</event>
<event>
 4    1  0.1805887E-005  0.5678962E+03  0.7818608E-02  0.9974345E-01
          2   -1    0    0  501    0  0.00000000000E+00  0.00000000000E+00  0.11549597730E+04  0.11549597730E+04  0.25500000000E-02 0.  1.
         -2   -1    0    0    0  501 -0.00000000000E+00 -0.00000000000E+00 -0.69808938429E+02  0.69808938476E+02  0.25500000000E-02 0. -1.
   -5000001    1    1    2    0    0  0.13015271175E+03 -0.74067753786E+01  0.47001590519E+03  0.54809628700E+03  0.25000000000E+03 0.  0.
    5000001    1    1    2    0    0 -0.13015271175E+03  0.74067753786E+01  0.61513492939E+03  0.67667242448E+03  0.25000000000E+03 0.  0.
<mgrwt>
<rscale>  0 0.56789617E+03</rscale>
<asrwt>0</asrwt>
<pdfrwt beam="1">  1        2 0.17768610E+00 0.56789617E+03</pdfrwt>
<pdfrwt beam="2">  1       -2 0.10739838E-01 0.56789617E+03</pdfrwt>
<totfact> 0.12451809E+03</totfact>
</mgrwt>
</event>
<event>
 4    1  0.1805887E-005  0.6224537E+03  0.7818608E-02  0.9859887E-01
         -2   -1    0    0    0  501 -0.00000000000E+00  0.00000000000E+00  0.37585922958E+03  0.37585922959E+03  0.25500000000E-02 0. -1.
          2   -1    0    0  501    0  0.00000000000E+00 -0.00000000000E+00 -0.25770857500E+03  0.25770857501E+03  0.25500000000E-02 0.  1.
   -5000001    1    1    2    0    0  0.72323686523E+02  0.13689590330E+03  0.16283140136E+03  0.33613281489E+03  0.25000000000E+03 0.  0.
    5000001    1    1    2    0    0 -0.72323686523E+02 -0.13689590330E+03 -0.44680746781E+02  0.29743498971E+03  0.25000000000E+03 0.  0.
<mgrwt>
<rscale>  0 0.62245368E+03</rscale>
<asrwt>0</asrwt>
<pdfrwt beam="1">  1        2 0.39647473E-01 0.62245368E+03</pdfrwt>
<pdfrwt beam="2">  1       -2 0.57824496E-01 0.62245368E+03</pdfrwt>
<totfact> 0.36774357E+02</totfact>
</mgrwt>
</event>
<event>
 4    1  0.1805887E-005  0.6856191E+03  0.7818608E-02  0.9742147E-01
          2   -1    0    0  501    0  0.00000000000E+00  0.00000000000E+00  0.23760840955E+04  0.23760840955E+04  0.25500000000E-02 0.  1.
         -2   -1    0    0    0  501 -0.00000000000E+00 -0.00000000000E+00 -0.49458846085E+02  0.49458846150E+02  0.25500000000E-02 0. -1.
   -5000001    1    1    2    0    0  0.26875004377E+01  0.23451856497E+03  0.11756682430E+04  0.12246232064E+04  0.25000000000E+03 0.  0.
    5000001    1    1    2    0    0 -0.26875004377E+01 -0.23451856497E+03  0.11509570064E+04  0.12009197352E+04  0.25000000000E+03 0.  0.
<mgrwt>
<rscale>  0 0.68561907E+03</rscale>
<asrwt>0</asrwt>
<pdfrwt beam="1">  1        2 0.36555134E+00 0.68561907E+03</pdfrwt>
<pdfrwt beam="2">  1       -2 0.76090544E-02 0.68561907E+03</pdfrwt>
<totfact> 0.45472106E+02</totfact>
</mgrwt>
</event>
<event>
 4    1  0.1805887E-005  0.9679732E+03  0.7818608E-02  0.9344386E-01
         -2   -1    0    0    0  501 -0.00000000000E+00  0.00000000000E+00  0.11603331631E+03  0.11603331634E+03  0.25500000000E-02 0. -1.
          2   -1    0    0  501    0  0.00000000000E+00 -0.00000000000E+00 -0.20187567530E+04  0.20187567530E+04  0.25500000000E-02 0.  1.
   -5000001    1    1    2    0    0 -0.19587632761E+03  0.36505678076E+03 -0.92833093704E+03  0.10468678606E+04  0.25000000000E+03 0.  0.
    5000001    1    1    2    0    0  0.19587632761E+03 -0.36505678076E+03 -0.97439249967E+03  0.10879222088E+04  0.25000000000E+03 0.  0.
<mgrwt>
<rscale>  0 0.96797322E+03</rscale>
<asrwt>0</asrwt>
<pdfrwt beam="1">  1        2 0.31057794E+00 0.96797322E+03</pdfrwt>
<pdfrwt beam="2">  1       -2 0.17851281E-01 0.96797322E+03</pdfrwt>
<totfact> 0.17080488E+02</totfact>
</mgrwt>
</event>
<event>
 4    1  0.1805887E-005  0.1315744E+04  0.7818608E-02  0.9017173E-01
          2   -1    0    0  501    0  0.00000000000E+00  0.00000000000E+00  0.13187633481E+04  0.13187633481E+04  0.25500000000E-02 0.  1.
         -2   -1    0    0    0  501 -0.00000000000E+00 -0.00000000000E+00 -0.32818269291E+03  0.32818269292E+03  0.25500000000E-02 0. -1.
   -5000001    1    1    2    0    0  0.47822423705E+02  0.37742008300E+03  0.10897760934E+04  0.11810354936E+04  0.25000000000E+03 0.  0.
    5000001    1    1    2    0    0 -0.47822423705E+02 -0.37742008300E+03 -0.99195438251E+02  0.46591054745E+03  0.25000000000E+03 0.  0.
<mgrwt>
<rscale>  0 0.13157436E+04</rscale>
<asrwt>0</asrwt>
<pdfrwt beam="1">  1        2 0.20288667E+00 0.13157436E+04</pdfrwt>
<pdfrwt beam="2">  1       -2 0.50489645E-01 0.13157436E+04</pdfrwt>
<totfact> 0.58535868E+01</totfact>
</mgrwt>
</event>
<event>
 4    1  0.1805887E-005  0.6375706E+03  0.7818608E-02  0.9830386E-01
         -2   -1    0    0    0  501 -0.00000000000E+00  0.00000000000E+00  0.31273459328E+02  0.31273459432E+02  0.25500000000E-02 0. -1.
          2   -1    0    0  501    0  0.00000000000E+00 -0.00000000000E+00 -0.32495310736E+04  0.32495310736E+04  0.25500000000E-02 0.  1.
   -5000001    1    1    2    0    0  0.19568903135E+03  0.82578438168E+01 -0.14671116186E+04  0.15010925655E+04  0.25000000000E+03 0.  0.
    5000001    1    1    2    0    0 -0.19568903135E+03 -0.82578438168E+01 -0.17511459957E+04  0.17797119675E+04  0.25000000000E+03 0.  0.
<mgrwt>
<rscale>  0 0.63757063E+03</rscale>
<asrwt>0</asrwt>
<pdfrwt beam="1">  1        2 0.49992759E+00 0.63757063E+03</pdfrwt>
<pdfrwt beam="2">  1       -2 0.48113040E-02 0.63757063E+03</pdfrwt>
<totfact> 0.28482800E+02</totfact>
</mgrwt>
</event>
<event>
 4    1  0.1805887E-005  0.7427304E+03  0.7818608E-02  0.9646825E-01
         -2   -1    0    0    0  501 -0.00000000000E+00  0.00000000000E+00  0.39287019957E+03  0.39287019958E+03  0.25500000000E-02 0. -1.
          2   -1    0    0  501    0  0.00000000000E+00 -0.00000000000E+00 -0.35103734127E+03  0.35103734128E+03  0.25500000000E-02 0.  1.
   -5000001    1    1    2    0    0  0.22205445899E+03  0.15406894865E+03 -0.27809277055E+02  0.36921373158E+03  0.25000000000E+03 0.  0.
    5000001    1    1    2    0    0 -0.22205445899E+03 -0.15406894865E+03  0.69642135350E+02  0.37469380928E+03  0.25000000000E+03 0.  0.
<mgrwt>
<rscale>  0 0.74273040E+03</rscale>
<asrwt>0</asrwt>
<pdfrwt beam="1">  1        2 0.54005745E-01 0.74273040E+03</pdfrwt>
<pdfrwt beam="2">  1       -2 0.60441569E-01 0.74273040E+03</pdfrwt>
<totfact> 0.23699962E+02</totfact>
</mgrwt>
</event>
<event>
 4    1  0.1805887E-005  0.7776395E+03  0.7818608E-02  0.9592959E-01
         -2   -1    0    0    0  501 -0.00000000000E+00  0.00000000000E+00  0.27953792197E+03  0.27953792198E+03  0.25500000000E-02 0. -1.
          2   -1    0    0  501    0  0.00000000000E+00 -0.00000000000E+00 -0.54082394903E+03  0.54082394903E+03  0.25500000000E-02 0.  1.
   -5000001    1    1    2    0    0  0.12278233384E+02 -0.28805269627E+03 -0.20927445352E+03  0.43522512306E+03  0.25000000000E+03 0.  0.
    5000001    1    1    2    0    0 -0.12278233384E+02  0.28805269627E+03 -0.52011573536E+02  0.38513674796E+03  0.25000000000E+03 0.  0.
<mgrwt>
<rscale>  0 0.77763951E+03</rscale>
<asrwt>0</asrwt>
<pdfrwt beam="1">  1        2 0.83203684E-01 0.77763951E+03</pdfrwt>
<pdfrwt beam="2">  1       -2 0.43005834E-01 0.77763951E+03</pdfrwt>
<totfact> 0.28989862E+02</totfact>
</mgrwt>
</event>
<event>
 4    1  0.1805887E-005  0.1059428E+04  0.7818608E-02  0.9245664E-01
         -2   -1    0    0    0  501 -0.00000000000E+00  0.00000000000E+00  0.31711120712E+03  0.31711120713E+03  0.25500000000E-02 0. -1.
          2   -1    0    0  501    0  0.00000000000E+00 -0.00000000000E+00 -0.88485333705E+03  0.88485333706E+03  0.25500000000E-02 0.  1.
   -5000001    1    1    2    0    0 -0.38654203479E+03 -0.19272417380E+03 -0.82383605542E+02  0.50581064668E+03  0.25000000000E+03 0.  0.
    5000001    1    1    2    0    0  0.38654203479E+03  0.19272417380E+03 -0.48535852439E+03  0.69615389752E+03  0.25000000000E+03 0.  0.
<mgrwt>
<rscale>  0 0.10594280E+04</rscale>
<asrwt>0</asrwt>
<pdfrwt beam="1">  1        2 0.13613128E+00 0.10594280E+04</pdfrwt>
<pdfrwt beam="2">  1       -2 0.48786340E-01 0.10594280E+04</pdfrwt>
<totfact> 0.11886764E+02</totfact>
</mgrwt>
</event>
<event>
 4    1  0.1805887E-005  0.8468045E+03  0.7818608E-02  0.9494636E-01
          2   -1    0    0  501    0  0.00000000000E+00  0.00000000000E+00  0.16220518389E+04  0.16220518389E+04  0.25500000000E-02 0. -1.
         -2   -1    0    0    0  501 -0.00000000000E+00 -0.00000000000E+00 -0.11052017003E+03  0.11052017006E+03  0.25500000000E-02 0.  1.
   -5000001    1    1    2    0    0  0.10195895931E+02 -0.32869973686E+03  0.94574739869E+03  0.10320298520E+04  0.25000000000E+03 0.  0.
    5000001    1    1    2    0    0 -0.10195895931E+02  0.32869973686E+03  0.56578427021E+03  0.70054215699E+03  0.25000000000E+03 0.  0.
<mgrwt>
<rscale>  0 0.84680445E+03</rscale>
<asrwt>0</asrwt>
<pdfrwt beam="1">  1        2 0.24954641E+00 0.84680445E+03</pdfrwt>
<pdfrwt beam="2">  1       -2 0.17003105E-01 0.84680445E+03</pdfrwt>
<totfact> 0.30939285E+02</totfact>
</mgrwt>
</event>
<event>
 4    1  0.1805887E-005  0.7096886E+03  0.7818608E-02  0.9700805E-01
         -2   -1    0    0    0  501 -0.00000000000E+00  0.00000000000E+00  0.26688020303E+02  0.26688020425E+02  0.25500000000E-02 0. -1.
          2   -1    0    0  501    0  0.00000000000E+00 -0.00000000000E+00 -0.47180142962E+04  0.47180142962E+04  0.25500000000E-02 0.  1.
   -5000001    1    1    2    0    0  0.16455468338E+02  0.24965762483E+03 -0.21548302462E+04  0.21836650618E+04  0.25000000000E+03 0.  0.
    5000001    1    1    2    0    0 -0.16455468338E+02 -0.24965762483E+03 -0.25364960297E+04  0.25610372548E+04  0.25000000000E+03 0.  0.
<mgrwt>
<rscale>  0 0.70968856E+03</rscale>
<asrwt>0</asrwt>
<pdfrwt beam="1">  1        2 0.72584769E+00 0.70968856E+03</pdfrwt>
<pdfrwt beam="2">  1       -2 0.41058530E-02 0.70968856E+03</pdfrwt>
<totfact> 0.23805822E+01</totfact>
</mgrwt>
</event>
<event>
 4    1  0.1805887E-005  0.5819973E+03  0.7818608E-02  0.9943476E-01
         -2   -1    0    0    0  501 -0.00000000000E+00  0.00000000000E+00  0.39026243642E+02  0.39026243725E+02  0.25500000000E-02 0. -1.
          2   -1    0    0  501    0  0.00000000000E+00 -0.00000000000E+00 -0.21698275144E+04  0.21698275144E+04  0.25500000000E-02 0.  1.
   -5000001    1    1    2    0    0 -0.34540327963E+02  0.14282191159E+03 -0.11575165855E+04  0.11932878020E+04  0.25000000000E+03 0.  0.
    5000001    1    1    2    0    0  0.34540327963E+02 -0.14282191159E+03 -0.97328468521E+03  0.10155659561E+04  0.25000000000E+03 0.  0.
<mgrwt>
<rscale>  0 0.58199731E+03</rscale>
<asrwt>0</asrwt>
<pdfrwt beam="1">  1        2 0.33381952E+00 0.58199731E+03</pdfrwt>
<pdfrwt beam="2">  1       -2 0.60040392E-02 0.58199731E+03</pdfrwt>
<totfact> 0.86607469E+02</totfact>
</mgrwt>
</event>
<event>
 4    1  0.1805887E-005  0.7587429E+03  0.7818608E-02  0.9621733E-01
          2   -1    0    0  501    0  0.00000000000E+00  0.00000000000E+00  0.89304399584E+03  0.89304399585E+03  0.25500000000E-02 0.  1.
         -2   -1    0    0    0  501 -0.00000000000E+00 -0.00000000000E+00 -0.16115971382E+03  0.16115971384E+03  0.25500000000E-02 0. -1.
   -5000001    1    1    2    0    0  0.20970904608E+03  0.15721084219E+03  0.20918153164E+03  0.41827030267E+03  0.25000000000E+03 0.  0.
    5000001    1    1    2    0    0 -0.20970904608E+03 -0.15721084219E+03  0.52270275038E+03  0.63593340702E+03  0.25000000000E+03 0.  0.
<mgrwt>
<rscale>  0 0.75874295E+03</rscale>
<asrwt>0</asrwt>
<pdfrwt beam="1">  1        2 0.13739138E+00 0.75874295E+03</pdfrwt>
<pdfrwt beam="2">  1       -2 0.24793802E-01 0.75874295E+03</pdfrwt>
<totfact> 0.43361849E+02</totfact>
</mgrwt>
</event>
<event>
 4    1  0.1805887E-005  0.8776792E+03  0.7818608E-02  0.9453922E-01
         -2   -1    0    0    0  501 -0.00000000000E+00  0.00000000000E+00  0.88738467688E+02  0.88738467725E+02  0.25500000000E-02 0. -1.
          2   -1    0    0  501    0  0.00000000000E+00 -0.00000000000E+00 -0.21701995937E+04  0.21701995937E+04  0.25500000000E-02 0.  1.
   -5000001    1    1    2    0    0 -0.19922738077E+03 -0.30063792949E+03 -0.10347095720E+04  0.11239210881E+04  0.25000000000E+03 0.  0.
    5000001    1    1    2    0    0  0.19922738077E+03  0.30063792949E+03 -0.10467515540E+04  0.11350169733E+04  0.25000000000E+03 0.  0.
<mgrwt>
<rscale>  0 0.87767918E+03</rscale>
<asrwt>0</asrwt>
<pdfrwt beam="1">  1        2 0.33387682E+00 0.87767918E+03</pdfrwt>
<pdfrwt beam="2">  1       -2 0.13652074E-01 0.87767918E+03</pdfrwt>
<totfact> 0.22413807E+02</totfact>
</mgrwt>
</event>
<event>
 4    1  0.1805887E-005  0.1087118E+04  0.7818608E-02  0.9217840E-01
         -2   -1    0    0    0  501 -0.00000000000E+00  0.00000000000E+00  0.13146979589E+03  0.13146979592E+03  0.25500000000E-02 0. -1.
          2   -1    0    0  501    0  0.00000000000E+00 -0.00000000000E+00 -0.22473310152E+04  0.22473310152E+04  0.25500000000E-02 0.  1.
   -5000001    1    1    2    0    0  0.23884086324E+03  0.40970087273E+03 -0.86152598003E+03  0.10147052662E+04  0.25000000000E+03 0.  0.
    5000001    1    1    2    0    0 -0.23884086324E+03 -0.40970087273E+03 -0.12543352393E+04  0.13640955449E+04  0.25000000000E+03 0.  0.
<mgrwt>
<rscale>  0 0.10871176E+04</rscale>
<asrwt>0</asrwt>
<pdfrwt beam="1">  1        2 0.34574320E+00 0.10871176E+04</pdfrwt>
<pdfrwt beam="2">  1       -2 0.20226124E-01 0.10871176E+04</pdfrwt>
<totfact> 0.10164506E+02</totfact>
</mgrwt>
</event>
<event>
 4    1  0.1805887E-005  0.7470812E+03  0.7818608E-02  0.9639941E-01
         -2   -1    0    0    0  501 -0.00000000000E+00  0.00000000000E+00  0.31154466717E+03  0.31154466718E+03  0.25500000000E-02 0. -1.
          2   -1    0    0  501    0  0.00000000000E+00 -0.00000000000E+00 -0.44787342957E+03  0.44787342958E+03  0.25500000000E-02 0.  1.
   -5000001    1    1    2    0    0 -0.14398378041E+03 -0.14810181957E+03 -0.25660936579E+03  0.41353820210E+03  0.25000000000E+03 0.  0.
    5000001    1    1    2    0    0  0.14398378041E+03  0.14810181957E+03  0.12028060339E+03  0.34587989466E+03  0.25000000000E+03 0.  0.
<mgrwt>
<rscale>  0 0.74708120E+03</rscale>
<asrwt>0</asrwt>
<pdfrwt beam="1">  1        2 0.68903604E-01 0.74708120E+03</pdfrwt>
<pdfrwt beam="2">  1       -2 0.47929949E-01 0.74708120E+03</pdfrwt>
<totfact> 0.29077965E+02</totfact>
</mgrwt>
</event>
<event>
 4    1  0.1805887E-005  0.7783350E+03  0.7818608E-02  0.9591917E-01
         -2   -1    0    0    0  501 -0.00000000000E+00  0.00000000000E+00  0.12176053628E+03  0.12176053631E+03  0.25500000000E-02 0. -1.
          2   -1    0    0  501    0  0.00000000000E+00 -0.00000000000E+00 -0.12438460013E+04  0.12438460013E+04  0.25500000000E-02 0.  1.
   -5000001    1    1    2    0    0  0.18635986641E+03  0.20506995760E+03 -0.75457915085E+03  0.84182740642E+03  0.25000000000E+03 0.  0.
    5000001    1    1    2    0    0 -0.18635986641E+03 -0.20506995760E+03 -0.36750631421E+03  0.52377913122E+03  0.25000000000E+03 0.  0.
<mgrwt>
<rscale>  0 0.77833503E+03</rscale>
<asrwt>0</asrwt>
<pdfrwt beam="1">  1        2 0.19136091E+00 0.77833503E+03</pdfrwt>
<pdfrwt beam="2">  1       -2 0.18732391E-01 0.77833503E+03</pdfrwt>
<totfact> 0.42989516E+02</totfact>
</mgrwt>
</event>
<event>
 4    1  0.1805887E-005  0.6574182E+03  0.7818608E-02  0.9792958E-01
          2   -1    0    0  501    0  0.00000000000E+00  0.00000000000E+00  0.42766468413E+03  0.42766468414E+03  0.25500000000E-02 0.  1.
         -2   -1    0    0    0  501 -0.00000000000E+00 -0.00000000000E+00 -0.25265046192E+03  0.25265046193E+03  0.25500000000E-02 0. -1.
   -5000001    1    1    2    0    0 -0.20836834547E+03 -0.42547359443E+02  0.68936773031E+02  0.33538026755E+03  0.25000000000E+03 0.  0.
    5000001    1    1    2    0    0  0.20836834547E+03  0.42547359443E+02  0.10607744918E+03  0.34493487851E+03  0.25000000000E+03 0.  0.
<mgrwt>
<rscale>  0 0.65741822E+03</rscale>
<asrwt>0</asrwt>
<pdfrwt beam="1">  1        2 0.65794566E-01 0.65741822E+03</pdfrwt>
<pdfrwt beam="2">  1       -2 0.38869302E-01 0.65741822E+03</pdfrwt>
<totfact> 0.46475402E+02</totfact>
</mgrwt>
</event>
<event>
 4    1  0.1805887E-005  0.1111313E+04  0.7818608E-02  0.9194235E-01
          2   -1    0    0  501    0  0.00000000000E+00  0.00000000000E+00  0.91630857024E+03  0.91630857024E+03  0.25500000000E-02 0.  1.
         -2   -1    0    0    0  501 -0.00000000000E+00 -0.00000000000E+00 -0.33695445135E+03  0.33695445136E+03  0.25500000000E-02 0. -1.
   -5000001    1    1    2    0    0  0.43712878200E+03 -0.15741618323E+03  0.48628057970E+03  0.71751670991E+03  0.25000000000E+03 0.  0.
    5000001    1    1    2    0    0 -0.43712878200E+03  0.15741618323E+03  0.93073539183E+02  0.53574631169E+03  0.25000000000E+03 0.  0.
<mgrwt>
<rscale>  0 0.11113132E+04</rscale>
<asrwt>0</asrwt>
<pdfrwt beam="1">  1        2 0.14097055E+00 0.11113132E+04</pdfrwt>
<pdfrwt beam="2">  1       -2 0.51839147E-01 0.11113132E+04</pdfrwt>
<totfact> 0.99673230E+01</totfact>
</mgrwt>
</event>
<event>
 4    1  0.1805887E-005  0.9906899E+03  0.7818608E-02  0.9318815E-01
          2   -1    0    0  501    0  0.00000000000E+00  0.00000000000E+00  0.10895952058E+04  0.10895952058E+04  0.25500000000E-02 0.  1.
         -2   -1    0    0    0  501 -0.00000000000E+00 -0.00000000000E+00 -0.22519059832E+03  0.22519059834E+03  0.25500000000E-02 0. -1.
   -5000001    1    1    2    0    0  0.22111566037E+03 -0.29437728237E+03  0.72088681988E+03  0.84718824751E+03  0.25000000000E+03 0.  0.
    5000001    1    1    2    0    0 -0.22111566037E+03  0.29437728237E+03  0.14351778764E+03  0.46759755667E+03  0.25000000000E+03 0.  0.
<mgrwt>
<rscale>  0 0.99068985E+03</rscale>
<asrwt>0</asrwt>
<pdfrwt beam="1">  1        2 0.16763003E+00 0.99068985E+03</pdfrwt>
<pdfrwt beam="2">  1       -2 0.34644707E-01 0.99068985E+03</pdfrwt>
<totfact> 0.17230960E+02</totfact>
</mgrwt>
</event>
<event>
 4    1  0.1805887E-005  0.7183293E+03  0.7818608E-02  0.9686390E-01
         -2   -1    0    0    0  501 -0.00000000000E+00  0.00000000000E+00  0.99378443859E+02  0.99378443892E+02  0.25500000000E-02 0. -1.
          2   -1    0    0  501    0  0.00000000000E+00 -0.00000000000E+00 -0.12980605083E+04  0.12980605083E+04  0.25500000000E-02 0.  1.
   -5000001    1    1    2    0    0 -0.99850176835E+02 -0.15248168611E+03 -0.95422896071E+03  0.10031319115E+04  0.25000000000E+03 0.  0.
    5000001    1    1    2    0    0  0.99850176835E+02  0.15248168611E+03 -0.24445310372E+03  0.39430704068E+03  0.25000000000E+03 0.  0.
<mgrwt>
<rscale>  0 0.71832927E+03</rscale>
<asrwt>0</asrwt>
<pdfrwt beam="1">  1        2 0.19970160E+00 0.71832927E+03</pdfrwt>
<pdfrwt beam="2">  1       -2 0.15288992E-01 0.71832927E+03</pdfrwt>
<totfact> 0.56803292E+02</totfact>
</mgrwt>
</event>
<event>
 4    1  0.1805887E-005  0.6394373E+03  0.7818608E-02  0.9826804E-01
         -2   -1    0    0    0  501 -0.00000000000E+00  0.00000000000E+00  0.42005073396E+02  0.42005073473E+02  0.25500000000E-02 0. -1.
          2   -1    0    0  501    0  0.00000000000E+00 -0.00000000000E+00 -0.24335160174E+04  0.24335160174E+04  0.25500000000E-02 0.  1.
   -5000001    1    1    2    0    0 -0.98394911516E+02 -0.98887234097E+02 -0.64471186407E+03  0.70541734552E+03  0.25000000000E+03 0.  0.
    5000001    1    1    2    0    0  0.98394911516E+02  0.98887234097E+02 -0.17467990799E+04  0.17701037454E+04  0.25000000000E+03 0.  0.
<mgrwt>
<rscale>  0 0.63943731E+03</rscale>
<asrwt>0</asrwt>
<pdfrwt beam="1">  1        2 0.37438697E+00 0.63943731E+03</pdfrwt>
<pdfrwt beam="2">  1       -2 0.64623209E-02 0.63943731E+03</pdfrwt>
<totfact> 0.54924674E+02</totfact>
</mgrwt>
</event>
<event>
 4    1  0.1805887E-005  0.5941177E+03  0.7818608E-02  0.9917686E-01
         -2   -1    0    0    0  501 -0.00000000000E+00  0.00000000000E+00  0.81258258478E+02  0.81258258518E+02  0.25500000000E-02 0. -1.
          2   -1    0    0  501    0  0.00000000000E+00 -0.00000000000E+00 -0.10859692172E+04  0.10859692172E+04  0.25500000000E-02 0.  1.
   -5000001    1    1    2    0    0 -0.68480386653E+02 -0.12455678309E+03 -0.35612485350E+03  0.45774323245E+03  0.25000000000E+03 0.  0.
    5000001    1    1    2    0    0  0.68480386653E+02  0.12455678309E+03 -0.64858610523E+03  0.70948424328E+03  0.25000000000E+03 0.  0.
<mgrwt>
<rscale>  0 0.59411772E+03</rscale>
<asrwt>0</asrwt>
<pdfrwt beam="1">  1        2 0.16707218E+00 0.59411772E+03</pdfrwt>
<pdfrwt beam="2">  1       -2 0.12501271E-01 0.59411772E+03</pdfrwt>
<totfact> 0.10670909E+03</totfact>
</mgrwt>
</event>
<event>
 4    1  0.1805887E-005  0.1606678E+04  0.7818608E-02  0.8816456E-01
          2   -1    0    0  501    0  0.00000000000E+00  0.00000000000E+00  0.22027189070E+03  0.22027189071E+03  0.25500000000E-02 0.  1.
         -2   -1    0    0    0  501 -0.00000000000E+00 -0.00000000000E+00 -0.29298046642E+04  0.29298046642E+04  0.25500000000E-02 0. -1.
   -5000001    1    1    2    0    0  0.62256852465E+03 -0.44175038257E+03 -0.13334105849E+04  0.15566691223E+04  0.25000000000E+03 0.  0.
    5000001    1    1    2    0    0 -0.62256852465E+03  0.44175038257E+03 -0.13761221886E+04  0.15934074326E+04  0.25000000000E+03 0.  0.
<mgrwt>
<rscale>  0 0.16066781E+04</rscale>
<asrwt>0</asrwt>
<pdfrwt beam="1">  1        2 0.33887985E-01 0.16066781E+04</pdfrwt>
<pdfrwt beam="2">  1       -2 0.45073915E+00 0.16066781E+04</pdfrwt>
<totfact> 0.51369359E-01</totfact>
</mgrwt>
</event>
<event>
 4    1  0.1805887E-005  0.6967635E+03  0.7818608E-02  0.9722783E-01
          2   -1    0    0  501    0  0.00000000000E+00  0.00000000000E+00  0.76700195110E+03  0.76700195111E+03  0.25500000000E-02 0.  1.
         -2   -1    0    0    0  501 -0.00000000000E+00 -0.00000000000E+00 -0.15823928970E+03  0.15823928972E+03  0.25500000000E-02 0. -1.
   -5000001    1    1    2    0    0 -0.12569212267E+03  0.18183820230E+03  0.17154886560E+03  0.37522347315E+03  0.25000000000E+03 0.  0.
    5000001    1    1    2    0    0  0.12569212267E+03 -0.18183820230E+03  0.43721379580E+03  0.55001776767E+03  0.25000000000E+03 0.  0.
<mgrwt>
<rscale>  0 0.69676350E+03</rscale>
<asrwt>0</asrwt>
<pdfrwt beam="1">  1        2 0.11800030E+00 0.69676350E+03</pdfrwt>
<pdfrwt beam="2">  1       -2 0.24344506E-01 0.69676350E+03</pdfrwt>
<totfact> 0.55092995E+02</totfact>
</mgrwt>
</event>
<event>
 4    1  0.1805887E-005  0.1538827E+04  0.7818608E-02  0.8859036E-01
          2   -1    0    0  501    0  0.00000000000E+00  0.00000000000E+00  0.11135699631E+04  0.11135699631E+04  0.25500000000E-02 0.  1.
         -2   -1    0    0    0  501 -0.00000000000E+00 -0.00000000000E+00 -0.53162085995E+03  0.53162085996E+03  0.25500000000E-02 0. -1.
   -5000001    1    1    2    0    0 -0.17750141066E+03  0.58211055450E+03  0.71746851350E+03  0.97345801979E+03  0.25000000000E+03 0.  0.
    5000001    1    1    2    0    0  0.17750141066E+03 -0.58211055450E+03 -0.13551941032E+03  0.67173280329E+03  0.25000000000E+03 0.  0.
<mgrwt>
<rscale>  0 0.15388269E+04</rscale>
<asrwt>0</asrwt>
<pdfrwt beam="1">  1        2 0.17131845E+00 0.15388269E+04</pdfrwt>
<pdfrwt beam="2">  1       -2 0.81787826E-01 0.15388269E+04</pdfrwt>
<totfact> 0.27079165E+01</totfact>
</mgrwt>
</event>
<event>
 4    1  0.1805887E-005  0.6165738E+03  0.7818608E-02  0.9871605E-01
         -2   -1    0    0    0  501 -0.00000000000E+00  0.00000000000E+00  0.63741969077E+02  0.63741969128E+02  0.25500000000E-02 0. -1.
          2   -1    0    0  501    0  0.00000000000E+00 -0.00000000000E+00 -0.14910243343E+04  0.14910243343E+04  0.25500000000E-02 0.  1.
   -5000001    1    1    2    0    0  0.14246792050E+03 -0.77915395308E+02 -0.51552270238E+03  0.59550950779E+03  0.25000000000E+03 0.  0.
    5000001    1    1    2    0    0 -0.14246792050E+03  0.77915395308E+02 -0.91175966286E+03  0.95925679566E+03  0.25000000000E+03 0.  0.
<mgrwt>
<rscale>  0 0.61657385E+03</rscale>
<asrwt>0</asrwt>
<pdfrwt beam="1">  1        2 0.22938833E+00 0.61657385E+03</pdfrwt>
<pdfrwt beam="2">  1       -2 0.98064579E-02 0.61657385E+03</pdfrwt>
<totfact> 0.92641855E+02</totfact>
</mgrwt>
</event>
<event>
 4    1  0.1805887E-005  0.1094427E+04  0.7818608E-02  0.9210640E-01
         -2   -1    0    0    0  501 -0.00000000000E+00  0.00000000000E+00  0.62368317096E+03  0.62368317096E+03  0.25500000000E-02 0. -1.
          2   -1    0    0  501    0  0.00000000000E+00 -0.00000000000E+00 -0.48012010768E+03  0.48012010769E+03  0.25500000000E-02 0.  1.
   -5000001    1    1    2    0    0  0.16541715578E+03  0.44169162279E+03  0.19318092831E+03  0.56769110979E+03  0.25000000000E+03 0.  0.
    5000001    1    1    2    0    0 -0.16541715578E+03 -0.44169162279E+03 -0.49617865035E+02  0.53611216886E+03  0.25000000000E+03 0.  0.
<mgrwt>
<rscale>  0 0.10944274E+04</rscale>
<asrwt>0</asrwt>
<pdfrwt beam="1">  1        2 0.73864632E-01 0.10944274E+04</pdfrwt>
<pdfrwt beam="2">  1       -2 0.95951257E-01 0.10944274E+04</pdfrwt>
<totfact> 0.58393797E+01</totfact>
</mgrwt>
</event>
<event>
 4    1  0.1805887E-005  0.5906349E+03  0.7818608E-02  0.9925028E-01
         -2   -1    0    0    0  501 -0.00000000000E+00  0.00000000000E+00  0.26884779951E+02  0.26884780072E+02  0.25500000000E-02 0. -1.
          2   -1    0    0  501    0  0.00000000000E+00 -0.00000000000E+00 -0.32439322655E+04  0.32439322655E+04  0.25500000000E-02 0.  1.
   -5000001    1    1    2    0    0  0.14677273532E+03 -0.27643475750E+02 -0.18801586848E+04  0.19025780083E+04  0.25000000000E+03 0.  0.
    5000001    1    1    2    0    0 -0.14677273532E+03  0.27643475750E+02 -0.13368888007E+04  0.13682390372E+04  0.25000000000E+03 0.  0.
<mgrwt>
<rscale>  0 0.59063493E+03</rscale>
<asrwt>0</asrwt>
<pdfrwt beam="1">  1        2 0.49906619E+00 0.59063493E+03</pdfrwt>
<pdfrwt beam="2">  1       -2 0.41361226E-02 0.59063493E+03</pdfrwt>
<totfact> 0.36485168E+02</totfact>
</mgrwt>
</event>
<event>
 4    1  0.1805887E-005  0.7036258E+03  0.7818608E-02  0.9711052E-01
         -2   -1    0    0    0  501 -0.00000000000E+00  0.00000000000E+00  0.13000270955E+03  0.13000270958E+03  0.25500000000E-02 0. -1.
          2   -1    0    0  501    0  0.00000000000E+00 -0.00000000000E+00 -0.95207490646E+03  0.95207490647E+03  0.25500000000E-02 0.  1.
   -5000001    1    1    2    0    0 -0.20888173583E+03 -0.11884185550E+03 -0.31982986234E+03  0.47174792742E+03  0.25000000000E+03 0.  0.
    5000001    1    1    2    0    0  0.20888173583E+03  0.11884185550E+03 -0.50224233457E+03  0.61032968862E+03  0.25000000000E+03 0.  0.
<mgrwt>
<rscale>  0 0.70362580E+03</rscale>
<asrwt>0</asrwt>
<pdfrwt beam="1">  1        2 0.14647306E+00 0.70362580E+03</pdfrwt>
<pdfrwt beam="2">  1       -2 0.20000417E-01 0.70362580E+03</pdfrwt>
<totfact> 0.58131834E+02</totfact>
</mgrwt>
</event>
<event>
 4    1  0.1805887E-005  0.7233021E+03  0.7818608E-02  0.9678192E-01
         -2   -1    0    0    0  501 -0.00000000000E+00  0.00000000000E+00  0.27064229771E+03  0.27064229772E+03  0.25500000000E-02 0. -1.
          2   -1    0    0  501    0  0.00000000000E+00 -0.00000000000E+00 -0.48326320937E+03  0.48326320937E+03  0.25500000000E-02 0.  1.
   -5000001    1    1    2    0    0  0.26651462747E+02 -0.25162858050E+03 -0.38246507163E+02  0.35775695423E+03  0.25000000000E+03 0.  0.
    5000001    1    1    2    0    0 -0.26651462747E+02  0.25162858050E+03 -0.17437440450E+03  0.39614855286E+03  0.25000000000E+03 0.  0.
<mgrwt>
<rscale>  0 0.72330205E+03</rscale>
<asrwt>0</asrwt>
<pdfrwt beam="1">  1        2 0.74348186E-01 0.72330205E+03</pdfrwt>
<pdfrwt beam="2">  1       -2 0.41637277E-01 0.72330205E+03</pdfrwt>
<totfact> 0.35291255E+02</totfact>
</mgrwt>
</event>
<event>
 4    1  0.1805887E-005  0.5803358E+03  0.7818608E-02  0.9947064E-01
         -2   -1    0    0    0  501 -0.00000000000E+00  0.00000000000E+00  0.91893052509E+02  0.91893052544E+02  0.25500000000E-02 0. -1.
          2   -1    0    0  501    0  0.00000000000E+00 -0.00000000000E+00 -0.91625441398E+03  0.91625441399E+03  0.25500000000E-02 0.  1.
   -5000001    1    1    2    0    0  0.14331209744E+02 -0.10185824251E+03 -0.22901794522E+03  0.35430171376E+03  0.25000000000E+03 0.  0.
    5000001    1    1    2    0    0 -0.14331209744E+02  0.10185824251E+03 -0.59534341625E+03  0.65384575277E+03  0.25000000000E+03 0.  0.
<mgrwt>
<rscale>  0 0.58033582E+03</rscale>
<asrwt>0</asrwt>
<pdfrwt beam="1">  1        2 0.14096221E+00 0.58033582E+03</pdfrwt>
<pdfrwt beam="2">  1       -2 0.14137393E-01 0.58033582E+03</pdfrwt>
<totfact> 0.11142898E+03</totfact>
</mgrwt>
</event>
<event>
 4    1  0.1805887E-005  0.9449405E+03  0.7818608E-02  0.9371084E-01
         -2   -1    0    0    0  501 -0.00000000000E+00  0.00000000000E+00  0.81797632137E+02  0.81797632176E+02  0.25500000000E-02 0. -1.
          2   -1    0    0  501    0  0.00000000000E+00 -0.00000000000E+00 -0.27290291928E+04  0.27290291928E+04  0.25500000000E-02 0.  1.
   -5000001    1    1    2    0    0 -0.32262345830E+03 -0.10592617739E+03 -0.68965532772E+03  0.80835061821E+03  0.25000000000E+03 0.  0.
    5000001    1    1    2    0    0  0.32262345830E+03  0.10592617739E+03 -0.19575762330E+04  0.20024762068E+04  0.25000000000E+03 0.  0.
<mgrwt>
<rscale>  0 0.94494048E+03</rscale>
<asrwt>0</asrwt>
<pdfrwt beam="1">  1        2 0.41985058E+00 0.94494048E+03</pdfrwt>
<pdfrwt beam="2">  1       -2 0.12584253E-01 0.94494048E+03</pdfrwt>
<totfact> 0.12293513E+02</totfact>
</mgrwt>
</event>
<event>
 4    1  0.1805887E-005  0.1242366E+04  0.7818608E-02  0.9076561E-01
         -2   -1    0    0    0  501 -0.00000000000E+00  0.00000000000E+00  0.40286467126E+03  0.40286467127E+03  0.25500000000E-02 0. -1.
          2   -1    0    0  501    0  0.00000000000E+00 -0.00000000000E+00 -0.95781113629E+03  0.95781113629E+03  0.25500000000E-02 0.  1.
   -5000001    1    1    2    0    0  0.19635381287E+03 -0.38503083375E+03 -0.68221159579E+03  0.84540890946E+03  0.25000000000E+03 0.  0.
    5000001    1    1    2    0    0 -0.19635381287E+03  0.38503083375E+03  0.12726513077E+03  0.51526689810E+03  0.25000000000E+03 0.  0.
<mgrwt>
<rscale>  0 0.12423659E+04</rscale>
<asrwt>0</asrwt>
<pdfrwt beam="1">  1        2 0.14735556E+00 0.12423659E+04</pdfrwt>
<pdfrwt beam="2">  1       -2 0.61979180E-01 0.12423659E+04</pdfrwt>
<totfact> 0.63834956E+01</totfact>
</mgrwt>
</event>
<event>
 4    1  0.1805887E-005  0.5992218E+03  0.7818608E-02  0.9907022E-01
         -2   -1    0    0    0  501 -0.00000000000E+00  0.00000000000E+00  0.13297457911E+03  0.13297457913E+03  0.25500000000E-02 0. -1.
          2   -1    0    0  501    0  0.00000000000E+00 -0.00000000000E+00 -0.67506658881E+03  0.67506658881E+03  0.25500000000E-02 0.  1.
   -5000001    1    1    2    0    0 -0.61562467235E+02 -0.15138946033E+03 -0.23919237942E+03  0.38265088585E+03  0.25000000000E+03 0.  0.
    5000001    1    1    2    0    0  0.61562467235E+02  0.15138946033E+03 -0.30289963029E+03  0.42539028209E+03  0.25000000000E+03 0.  0.
<mgrwt>
<rscale>  0 0.59922181E+03</rscale>
<asrwt>0</asrwt>
<pdfrwt beam="1">  1        2 0.10385640E+00 0.59922181E+03</pdfrwt>
<pdfrwt beam="2">  1       -2 0.20457628E-01 0.59922181E+03</pdfrwt>
<totfact> 0.88370971E+02</totfact>
</mgrwt>
</event>
<event>
 4    1  0.1805887E-005  0.1103882E+04  0.7818608E-02  0.9201416E-01
          2   -1    0    0  501    0  0.00000000000E+00  0.00000000000E+00  0.17399463454E+04  0.17399463454E+04  0.25500000000E-02 0.  1.
         -2   -1    0    0    0  501 -0.00000000000E+00 -0.00000000000E+00 -0.17508536504E+03  0.17508536506E+03  0.25500000000E-02 0. -1.
   -5000001    1    1    2    0    0 -0.10655766910E+03 -0.11524972950E+03  0.15914981731E+04  0.16186424781E+04  0.25000000000E+03 0.  0.
    5000001    1    1    2    0    0  0.10655766910E+03  0.11524972950E+03 -0.26637192765E+02  0.29638923231E+03  0.25000000000E+03 0.  0.
<mgrwt>
<rscale>  0 0.11038825E+04</rscale>
<asrwt>0</asrwt>
<pdfrwt beam="1">  1        2 0.26768406E+00 0.11038825E+04</pdfrwt>
<pdfrwt beam="2">  1       -2 0.26936209E-01 0.11038825E+04</pdfrwt>
<totfact> 0.11581321E+02</totfact>
</mgrwt>
</event>
<event>
 4    1  0.1805887E-005  0.1145363E+04  0.7818608E-02  0.9162072E-01
          2   -1    0    0  501    0  0.00000000000E+00  0.00000000000E+00  0.66424847557E+03  0.66424847557E+03  0.25500000000E-02 0.  1.
         -2   -1    0    0    0  501 -0.00000000000E+00 -0.00000000000E+00 -0.49373706619E+03  0.49373706620E+03  0.25500000000E-02 0. -1.
   -5000001    1    1    2    0    0  0.27925426816E+02 -0.51234929404E+03  0.38023998414E+02  0.57203798215E+03  0.25000000000E+03 0.  0.
    5000001    1    1    2    0    0 -0.27925426816E+02  0.51234929404E+03  0.13248741096E+03  0.58594755962E+03  0.25000000000E+03 0.  0.
<mgrwt>
<rscale>  0 0.11453630E+04</rscale>
<asrwt>0</asrwt>
<pdfrwt beam="1">  1        2 0.10219207E+00 0.11453630E+04</pdfrwt>
<pdfrwt beam="2">  1       -2 0.75959549E-01 0.11453630E+04</pdfrwt>
<totfact> 0.67309508E+01</totfact>
</mgrwt>
</event>
<event>
 4    1  0.1805887E-005  0.6106653E+03  0.7818608E-02  0.9883523E-01
         -2   -1    0    0    0  501 -0.00000000000E+00  0.00000000000E+00  0.46429122955E+02  0.46429123025E+02  0.25500000000E-02 0. -1.
          2   -1    0    0  501    0  0.00000000000E+00 -0.00000000000E+00 -0.20079645917E+04  0.20079645917E+04  0.25500000000E-02 0.  1.
   -5000001    1    1    2    0    0  0.15543571850E+03  0.52425243748E+02 -0.11886780648E+04  0.12257096762E+04  0.25000000000E+03 0.  0.
    5000001    1    1    2    0    0 -0.15543571850E+03 -0.52425243748E+02 -0.77285740402E+03  0.82868403853E+03  0.25000000000E+03 0.  0.
<mgrwt>
<rscale>  0 0.61066533E+03</rscale>
<asrwt>0</asrwt>
<pdfrwt beam="1">  1        2 0.30891756E+00 0.61066533E+03</pdfrwt>
<pdfrwt beam="2">  1       -2 0.71429435E-02 0.61066533E+03</pdfrwt>
<totfact> 0.80523695E+02</totfact>
</mgrwt>
</event>
<event>
 4    1  0.1805887E-005  0.6652136E+03  0.7818608E-02  0.9778643E-01
          2   -1    0    0  501    0  0.00000000000E+00  0.00000000000E+00  0.14330083983E+04  0.14330083983E+04  0.25500000000E-02 0.  1.
         -2   -1    0    0    0  501 -0.00000000000E+00 -0.00000000000E+00 -0.77199318188E+02  0.77199318230E+02  0.25500000000E-02 0. -1.
   -5000001    1    1    2    0    0 -0.82892476699E+02  0.20156740189E+03  0.73473777363E+03  0.80612665023E+03  0.25000000000E+03 0.  0.
    5000001    1    1    2    0    0  0.82892476699E+02 -0.20156740189E+03  0.62107130645E+03  0.70408106628E+03  0.25000000000E+03 0.  0.
<mgrwt>
<rscale>  0 0.66521356E+03</rscale>
<asrwt>0</asrwt>
<pdfrwt beam="1">  1        2 0.22046281E+00 0.66521356E+03</pdfrwt>
<pdfrwt beam="2">  1       -2 0.11876820E-01 0.66521356E+03</pdfrwt>
<totfact> 0.72803806E+02</totfact>
</mgrwt>
</event>
<event>
 4    1  0.1805887E-005  0.5702848E+03  0.7818608E-02  0.9969048E-01
          2   -1    0    0  501    0  0.00000000000E+00  0.00000000000E+00  0.15326253815E+04  0.15326253815E+04  0.25500000000E-02 0.  1.
         -2   -1    0    0    0  501 -0.00000000000E+00 -0.00000000000E+00 -0.53050276753E+02  0.53050276814E+02  0.25500000000E-02 0. -1.
   -5000001    1    1    2    0    0 -0.13070757244E+03 -0.10362809889E+02  0.85150486701E+03  0.89707992725E+03  0.25000000000E+03 0.  0.
    5000001    1    1    2    0    0  0.13070757244E+03  0.10362809889E+02  0.62807023777E+03  0.68859573110E+03  0.25000000000E+03 0.  0.
<mgrwt>
<rscale>  0 0.57028484E+03</rscale>
<asrwt>0</asrwt>
<pdfrwt beam="1">  1        2 0.23578851E+00 0.57028484E+03</pdfrwt>
<pdfrwt beam="2">  1       -2 0.81615815E-02 0.57028484E+03</pdfrwt>
<totfact> 0.11828730E+03</totfact>
</mgrwt>
</event>
<event>
 4    1  0.1805887E-005  0.1127439E+04  0.7818608E-02  0.9178853E-01
         -2   -1    0    0    0  501 -0.00000000000E+00  0.00000000000E+00  0.29262833697E+03  0.29262833699E+03  0.25500000000E-02 0. -1.
          2   -1    0    0  501    0  0.00000000000E+00 -0.00000000000E+00 -0.10859506044E+04  0.10859506044E+04  0.25500000000E-02 0.  1.
   -5000001    1    1    2    0    0 -0.21639131004E+03  0.30997739302E+03 -0.80654532393E+03  0.92516298175E+03  0.25000000000E+03 0.  0.
    5000001    1    1    2    0    0  0.21639131004E+03 -0.30997739302E+03  0.13223056496E+02  0.45341595965E+03  0.25000000000E+03 0.  0.
<mgrwt>
<rscale>  0 0.11274394E+04</rscale>
<asrwt>0</asrwt>
<pdfrwt beam="1">  1        2 0.16706932E+00 0.11274394E+04</pdfrwt>
<pdfrwt beam="2">  1       -2 0.45019745E-01 0.11274394E+04</pdfrwt>
<totfact> 0.10304178E+02</totfact>
</mgrwt>
</event>
<event>
 4    1  0.1805887E-005  0.7864952E+03  0.7818608E-02  0.9579773E-01
          2   -1    0    0  501    0  0.00000000000E+00  0.00000000000E+00  0.18697118281E+04  0.18697118281E+04  0.25500000000E-02 0.  1.
         -2   -1    0    0    0  501 -0.00000000000E+00 -0.00000000000E+00 -0.82709904955E+02  0.82709904995E+02  0.25500000000E-02 0. -1.
   -5000001    1    1    2    0    0  0.12212498610E+03  0.26662807296E+03  0.10879983785E+04  0.11542294023E+04  0.25000000000E+03 0.  0.
    5000001    1    1    2    0    0 -0.12212498610E+03 -0.26662807296E+03  0.69900354465E+03  0.79819233081E+03  0.25000000000E+03 0.  0.
<mgrwt>
<rscale>  0 0.78649523E+03</rscale>
<asrwt>0</asrwt>
<pdfrwt beam="1">  1        2 0.28764796E+00 0.78649523E+03</pdfrwt>
<pdfrwt beam="2">  1       -2 0.12724601E-01 0.78649523E+03</pdfrwt>
<totfact> 0.37095617E+02</totfact>
</mgrwt>
</event>
<event>
 4    1  0.1805887E-005  0.1001682E+04  0.7818608E-02  0.9306701E-01
         -2   -1    0    0    0  501 -0.00000000000E+00  0.00000000000E+00  0.13830926317E+03  0.13830926319E+03  0.25500000000E-02 0. -1.
          2   -1    0    0  501    0  0.00000000000E+00 -0.00000000000E+00 -0.18136309244E+04  0.18136309244E+04  0.25500000000E-02 0.  1.
   -5000001    1    1    2    0    0 -0.14372244095E+03 -0.38084599448E+03 -0.54443973886E+03  0.72430272731E+03  0.25000000000E+03 0.  0.
    5000001    1    1    2    0    0  0.14372244095E+03  0.38084599448E+03 -0.11308819224E+04  0.12276374603E+04  0.25000000000E+03 0.  0.
<mgrwt>
<rscale>  0 0.10016825E+04</rscale>
<asrwt>0</asrwt>
<pdfrwt beam="1">  1        2 0.27902012E+00 0.10016825E+04</pdfrwt>
<pdfrwt beam="2">  1       -2 0.21278350E-01 0.10016825E+04</pdfrwt>
<totfact> 0.16242470E+02</totfact>
</mgrwt>
</event>
<event>
 4    1  0.1805887E-005  0.6927009E+03  0.7818608E-02  0.9729797E-01
          2   -1    0    0  501    0  0.00000000000E+00  0.00000000000E+00  0.22284223465E+04  0.22284223465E+04  0.25500000000E-02 0.  1.
         -2   -1    0    0    0  501 -0.00000000000E+00 -0.00000000000E+00 -0.53831192644E+02  0.53831192704E+02  0.25500000000E-02 0. -1.
   -5000001    1    1    2    0    0  0.18608441867E+03 -0.13994926316E+03  0.89960003112E+03  0.96228552058E+03  0.25000000000E+03 0.  0.
    5000001    1    1    2    0    0 -0.18608441867E+03  0.13994926316E+03  0.12749911227E+04  0.13199680186E+04  0.25000000000E+03 0.  0.
<mgrwt>
<rscale>  0 0.69270090E+03</rscale>
<asrwt>0</asrwt>
<pdfrwt beam="1">  1        2 0.34283416E+00 0.69270090E+03</pdfrwt>
<pdfrwt beam="2">  1       -2 0.82817231E-02 0.69270090E+03</pdfrwt>
<totfact> 0.47922079E+02</totfact>
</mgrwt>
</event>
<event>
 4    1  0.1805887E-005  0.6812727E+03  0.7818608E-02  0.9749805E-01
         -2   -1    0    0    0  501 -0.00000000000E+00  0.00000000000E+00  0.11019087939E+03  0.11019087941E+03  0.25500000000E-02 0. -1.
          2   -1    0    0  501    0  0.00000000000E+00 -0.00000000000E+00 -0.10530191814E+04  0.10530191814E+04  0.25500000000E-02 0.  1.
   -5000001    1    1    2    0    0 -0.10732509356E+03 -0.12803857609E+03 -0.74470901603E+03  0.80312145485E+03  0.25000000000E+03 0.  0.
    5000001    1    1    2    0    0  0.10732509356E+03  0.12803857609E+03 -0.19811928600E+03  0.36008860599E+03  0.25000000000E+03 0.  0.
<mgrwt>
<rscale>  0 0.68127266E+03</rscale>
<asrwt>0</asrwt>
<pdfrwt beam="1">  1        2 0.16200294E+00 0.68127266E+03</pdfrwt>
<pdfrwt beam="2">  1       -2 0.16952444E-01 0.68127266E+03</pdfrwt>
<totfact> 0.66797550E+02</totfact>
</mgrwt>
</event>
<event>
 4    1  0.1805887E-005  0.7331219E+03  0.7818608E-02  0.9662208E-01
          2   -1    0    0  501    0  0.00000000000E+00  0.00000000000E+00  0.21096370158E+04  0.21096370158E+04  0.25500000000E-02 0.  1.
         -2   -1    0    0    0  501 -0.00000000000E+00 -0.00000000000E+00 -0.63691970849E+02  0.63691970900E+02  0.25500000000E-02 0. -1.
   -5000001    1    1    2    0    0 -0.12563706172E+03 -0.22938894963E+03  0.84852125742E+03  0.92243822871E+03  0.25000000000E+03 0.  0.
    5000001    1    1    2    0    0  0.12563706172E+03  0.22938894963E+03  0.11974237876E+04  0.12508907580E+04  0.25000000000E+03 0.  0.
<mgrwt>
<rscale>  0 0.73312193E+03</rscale>
<asrwt>0</asrwt>
<pdfrwt beam="1">  1        2 0.32455957E+00 0.73312193E+03</pdfrwt>
<pdfrwt beam="2">  1       -2 0.97987639E-02 0.73312193E+03</pdfrwt>
<totfact> 0.42317117E+02</totfact>
</mgrwt>
</event>
<event>
 4    1  0.1805887E-005  0.6350600E+03  0.7818608E-02  0.9835224E-01
         -2   -1    0    0    0  501 -0.00000000000E+00  0.00000000000E+00  0.21242746056E+03  0.21242746058E+03  0.25500000000E-02 0. -1.
          2   -1    0    0  501    0  0.00000000000E+00 -0.00000000000E+00 -0.47463395655E+03  0.47463395656E+03  0.25500000000E-02 0.  1.
   -5000001    1    1    2    0    0  0.31146542498E+02 -0.18642324028E+03 -0.75921265988E+02  0.32247134796E+03  0.25000000000E+03 0.  0.
    5000001    1    1    2    0    0 -0.31146542498E+02  0.18642324028E+03 -0.18628523001E+03  0.36459006918E+03  0.25000000000E+03 0.  0.
<mgrwt>
<rscale>  0 0.63505995E+03</rscale>
<asrwt>0</asrwt>
<pdfrwt beam="1">  1        2 0.73020609E-01 0.63505995E+03</pdfrwt>
<pdfrwt beam="2">  1       -2 0.32681148E-01 0.63505995E+03</pdfrwt>
<totfact> 0.57474343E+02</totfact>
</mgrwt>
</event>
<event>
 4    1  0.1805887E-005  0.6428291E+03  0.7818608E-02  0.9820329E-01
          2   -1    0    0  501    0  0.00000000000E+00  0.00000000000E+00  0.11274238378E+04  0.11274238378E+04  0.25500000000E-02 0.  1.
         -2   -1    0    0    0  501 -0.00000000000E+00 -0.00000000000E+00 -0.91631302456E+02  0.91631302492E+02  0.25500000000E-02 0. -1.
   -5000001    1    1    2    0    0 -0.34851197923E+02  0.17885682379E+03  0.35254072742E+03  0.46903020575E+03  0.25000000000E+03 0.  0.
    5000001    1    1    2    0    0  0.34851197923E+02 -0.17885682379E+03  0.68325180791E+03  0.75002493454E+03  0.25000000000E+03 0.  0.
<mgrwt>
<rscale>  0 0.64282911E+03</rscale>
<asrwt>0</asrwt>
<pdfrwt beam="1">  1        2 0.17344982E+00 0.64282911E+03</pdfrwt>
<pdfrwt beam="2">  1       -2 0.14097123E-01 0.64282911E+03</pdfrwt>
<totfact> 0.82322083E+02</totfact>
</mgrwt>
</event>
<event>
 4    1  0.1805887E-005  0.9032294E+03  0.7818608E-02  0.9421554E-01
         -2   -1    0    0    0  501 -0.00000000000E+00  0.00000000000E+00  0.17550764400E+03  0.17550764402E+03  0.25500000000E-02 0. -1.
          2   -1    0    0  501    0  0.00000000000E+00 -0.00000000000E+00 -0.11620908761E+04  0.11620908761E+04  0.25500000000E-02 0.  1.
   -5000001    1    1    2    0    0 -0.37089047372E+03  0.62407076127E+02 -0.49151135654E+03  0.66748617983E+03  0.25000000000E+03 0.  0.
    5000001    1    1    2    0    0  0.37089047372E+03 -0.62407076127E+02 -0.49507187553E+03  0.67011234027E+03  0.25000000000E+03 0.  0.
<mgrwt>
<rscale>  0 0.90322939E+03</rscale>
<asrwt>0</asrwt>
<pdfrwt beam="1">  1        2 0.17878321E+00 0.90322939E+03</pdfrwt>
<pdfrwt beam="2">  1       -2 0.27001177E-01 0.90322939E+03</pdfrwt>
<totfact> 0.24904280E+02</totfact>
</mgrwt>
</event>
<event>
 4    1  0.1805887E-005  0.8670708E+03  0.7818608E-02  0.9467707E-01
          2   -1    0    0  501    0  0.00000000000E+00  0.00000000000E+00  0.11029148925E+04  0.11029148925E+04  0.25500000000E-02 0.  1.
         -2   -1    0    0    0  501 -0.00000000000E+00 -0.00000000000E+00 -0.17041474643E+03  0.17041474645E+03  0.25500000000E-02 0. -1.
   -5000001    1    1    2    0    0 -0.24556978926E+03  0.24897592331E+03  0.54879504654E+03  0.69711515181E+03  0.25000000000E+03 0.  0.
    5000001    1    1    2    0    0  0.24556978926E+03 -0.24897592331E+03  0.38370509951E+03  0.57621448713E+03  0.25000000000E+03 0.  0.
<mgrwt>
<rscale>  0 0.86707084E+03</rscale>
<asrwt>0</asrwt>
<pdfrwt beam="1">  1        2 0.16967922E+00 0.86707084E+03</pdfrwt>
<pdfrwt beam="2">  1       -2 0.26217653E-01 0.86707084E+03</pdfrwt>
<totfact> 0.28601436E+02</totfact>
</mgrwt>
</event>
<event>
 4    1  0.1805887E-005  0.6776372E+03  0.7818608E-02  0.9756259E-01
         -2   -1    0    0    0  501 -0.00000000000E+00  0.00000000000E+00  0.14378469941E+03  0.14378469944E+03  0.25500000000E-02 0. -1.
          2   -1    0    0  501    0  0.00000000000E+00 -0.00000000000E+00 -0.79840236346E+03  0.79840236346E+03  0.25500000000E-02 0.  1.
   -5000001    1    1    2    0    0  0.18429375314E+03  0.13224087619E+03 -0.36775507831E+03  0.49919498636E+03  0.25000000000E+03 0.  0.
    5000001    1    1    2    0    0 -0.18429375314E+03 -0.13224087619E+03 -0.28686258574E+03  0.44299207654E+03  0.25000000000E+03 0.  0.
<mgrwt>
<rscale>  0 0.67763720E+03</rscale>
<asrwt>0</asrwt>
<pdfrwt beam="1">  1        2 0.12283113E+00 0.67763720E+03</pdfrwt>
<pdfrwt beam="2">  1       -2 0.22120724E-01 0.67763720E+03</pdfrwt>
<totfact> 0.62040886E+02</totfact>
</mgrwt>
</event>
<event>
 4    1  0.1805887E-005  0.6186982E+03  0.7818608E-02  0.9867355E-01
          2   -1    0    0  501    0  0.00000000000E+00  0.00000000000E+00  0.83358274812E+03  0.83358274813E+03  0.25500000000E-02 0.  1.
         -2   -1    0    0    0  501 -0.00000000000E+00 -0.00000000000E+00 -0.11480188018E+03  0.11480188021E+03  0.25500000000E-02 0. -1.
   -5000001    1    1    2    0    0 -0.88879645858E+02 -0.14926841567E+03  0.44357584360E+03  0.53799645016E+03  0.25000000000E+03 0.  0.
    5000001    1    1    2    0    0  0.88879645858E+02  0.14926841567E+03  0.27520502434E+03  0.41038817818E+03  0.25000000000E+03 0.  0.
<mgrwt>
<rscale>  0 0.61869820E+03</rscale>
<asrwt>0</asrwt>
<pdfrwt beam="1">  1        2 0.12824349E+00 0.61869820E+03</pdfrwt>
<pdfrwt beam="2">  1       -2 0.17661829E-01 0.61869820E+03</pdfrwt>
<totfact> 0.86876700E+02</totfact>
</mgrwt>
</event>
<event>
 4    1  0.1805887E-005  0.6318861E+03  0.7818608E-02  0.9841375E-01
         -2   -1    0    0    0  501 -0.00000000000E+00  0.00000000000E+00  0.72260006183E+02  0.72260006228E+02  0.25500000000E-02 0. -1.
          2   -1    0    0  501    0  0.00000000000E+00 -0.00000000000E+00 -0.13814006519E+04  0.13814006519E+04  0.25500000000E-02 0.  1.
   -5000001    1    1    2    0    0 -0.35692115797E+02  0.18985808528E+03 -0.65456448040E+03  0.72682506745E+03  0.25000000000E+03 0.  0.
    5000001    1    1    2    0    0  0.35692115797E+02 -0.18985808528E+03 -0.65457616531E+03  0.72683559067E+03  0.25000000000E+03 0.  0.
<mgrwt>
<rscale>  0 0.63188613E+03</rscale>
<asrwt>0</asrwt>
<pdfrwt beam="1">  1        2 0.21252316E+00 0.63188613E+03</pdfrwt>
<pdfrwt beam="2">  1       -2 0.11116925E-01 0.63188613E+03</pdfrwt>
<totfact> 0.86896989E+02</totfact>
</mgrwt>
</event>
<event>
 4    1  0.1805887E-005  0.7773064E+03  0.7818608E-02  0.9593459E-01
         -2   -1    0    0    0  501 -0.00000000000E+00  0.00000000000E+00  0.94087468661E+02  0.94087468695E+02  0.25500000000E-02 0. -1.
          2   -1    0    0  501    0  0.00000000000E+00 -0.00000000000E+00 -0.16054349704E+04  0.16054349704E+04  0.25500000000E-02 0.  1.
   -5000001    1    1    2    0    0 -0.71326953511E+02 -0.28439195302E+03 -0.86683784438E+03  0.94861697523E+03  0.25000000000E+03 0.  0.
    5000001    1    1    2    0    0  0.71326953511E+02  0.28439195302E+03 -0.64450965737E+03  0.75090546388E+03  0.25000000000E+03 0.  0.
<mgrwt>
<rscale>  0 0.77730641E+03</rscale>
<asrwt>0</asrwt>
<pdfrwt beam="1">  1        2 0.24698998E+00 0.77730641E+03</pdfrwt>
<pdfrwt beam="2">  1       -2 0.14474996E-01 0.77730641E+03</pdfrwt>
<totfact> 0.41736732E+02</totfact>
</mgrwt>
</event>
<event>
 4    1  0.1805887E-005  0.7826107E+03  0.7818608E-02  0.9585534E-01
         -2   -1    0    0    0  501 -0.00000000000E+00  0.00000000000E+00  0.34765194856E+03  0.34765194857E+03  0.25500000000E-02 0. -1.
          2   -1    0    0  501    0  0.00000000000E+00 -0.00000000000E+00 -0.44044015593E+03  0.44044015594E+03  0.25500000000E-02 0.  1.
   -5000001    1    1    2    0    0  0.26627817041E+03 -0.96946596569E+02 -0.14867900363E+03  0.40608884833E+03  0.25000000000E+03 0.  0.
    5000001    1    1    2    0    0 -0.26627817041E+03  0.96946596569E+02  0.55890796263E+02  0.38200325617E+03  0.25000000000E+03 0.  0.
<mgrwt>
<rscale>  0 0.78261070E+03</rscale>
<asrwt>0</asrwt>
<pdfrwt beam="1">  1        2 0.67760024E-01 0.78261070E+03</pdfrwt>
<pdfrwt beam="2">  1       -2 0.53484915E-01 0.78261070E+03</pdfrwt>
<totfact> 0.23667207E+02</totfact>
</mgrwt>
</event>
<event>
 4    1  0.1805887E-005  0.1430902E+04  0.7818608E-02  0.8931749E-01
         -2   -1    0    0    0  501 -0.00000000000E+00  0.00000000000E+00  0.93424054373E+03  0.93424054373E+03  0.25500000000E-02 0. -1.
          2   -1    0    0  501    0  0.00000000000E+00 -0.00000000000E+00 -0.54789934037E+03  0.54789934037E+03  0.25500000000E-02 0.  1.
   -5000001    1    1    2    0    0  0.59343096633E+03  0.78991799133E+01 -0.12967457698E+03  0.65691567553E+03  0.25000000000E+03 0.  0.
    5000001    1    1    2    0    0 -0.59343096633E+03 -0.78991799133E+01  0.51601578034E+03  0.82522420857E+03  0.25000000000E+03 0.  0.
<mgrwt>
<rscale>  0 0.14309015E+04</rscale>
<asrwt>0</asrwt>
<pdfrwt beam="1">  1        2 0.84292207E-01 0.14309015E+04</pdfrwt>
<pdfrwt beam="2">  1       -2 0.14372931E+00 0.14309015E+04</pdfrwt>
<totfact> 0.17996339E+01</totfact>
</mgrwt>
</event>
<event>
 4    1  0.1805887E-005  0.6809363E+03  0.7818608E-02  0.9750401E-01
         -2   -1    0    0    0  501 -0.00000000000E+00  0.00000000000E+00  0.18648726704E+03  0.18648726706E+03  0.25500000000E-02 0. -1.
          2   -1    0    0  501    0  0.00000000000E+00 -0.00000000000E+00 -0.62158975450E+03  0.62158975450E+03  0.25500000000E-02 0.  1.
   -5000001    1    1    2    0    0 -0.11249278140E+03  0.11540486582E+03 -0.41415106998E+03  0.50989608519E+03  0.25000000000E+03 0.  0.
    5000001    1    1    2    0    0  0.11249278140E+03 -0.11540486582E+03 -0.20951417473E+02  0.29818093637E+03  0.25000000000E+03 0.  0.
<mgrwt>
<rscale>  0 0.68093634E+03</rscale>
<asrwt>0</asrwt>
<pdfrwt beam="1">  1        2 0.95629192E-01 0.68093634E+03</pdfrwt>
<pdfrwt beam="2">  1       -2 0.28690349E-01 0.68093634E+03</pdfrwt>
<totfact> 0.53241575E+02</totfact>
</mgrwt>
</event>
<event>
 4    1  0.1805887E-005  0.7482567E+03  0.7818608E-02  0.9638089E-01
          2   -1    0    0  501    0  0.00000000000E+00  0.00000000000E+00  0.19620416012E+04  0.19620416012E+04  0.25500000000E-02 0.  1.
         -2   -1    0    0    0  501 -0.00000000000E+00 -0.00000000000E+00 -0.71339979401E+02  0.71339979447E+02  0.25500000000E-02 0. -1.
   -5000001    1    1    2    0    0  0.16806809350E+03  0.47226701420E+02  0.15344562351E+04  0.15644593899E+04  0.25000000000E+03 0.  0.
    5000001    1    1    2    0    0 -0.16806809350E+03 -0.47226701420E+02  0.35624538669E+03  0.46892219068E+03  0.25000000000E+03 0.  0.
<mgrwt>
<rscale>  0 0.74825666E+03</rscale>
<asrwt>0</asrwt>
<pdfrwt beam="1">  1        2 0.30185257E+00 0.74825666E+03</pdfrwt>
<pdfrwt beam="2">  1       -2 0.10975381E-01 0.74825666E+03</pdfrwt>
<totfact> 0.42291174E+02</totfact>
</mgrwt>
</event>
<event>
 4    1  0.1805887E-005  0.1060023E+04  0.7818608E-02  0.9245057E-01
         -2   -1    0    0    0  501 -0.00000000000E+00  0.00000000000E+00  0.37780539827E+03  0.37780539828E+03  0.25500000000E-02 0. -1.
          2   -1    0    0  501    0  0.00000000000E+00 -0.00000000000E+00 -0.74353616878E+03  0.74353616879E+03  0.25500000000E-02 0.  1.
   -5000001    1    1    2    0    0 -0.17643605907E+03 -0.43042033964E+03 -0.23041706218E+03  0.57617998426E+03  0.25000000000E+03 0.  0.
    5000001    1    1    2    0    0  0.17643605907E+03  0.43042033964E+03 -0.13531370833E+03  0.54516158281E+03  0.25000000000E+03 0.  0.
<mgrwt>
<rscale>  0 0.10600226E+04</rscale>
<asrwt>0</asrwt>
<pdfrwt beam="1">  1        2 0.11439018E+00 0.10600226E+04</pdfrwt>
<pdfrwt beam="2">  1       -2 0.58123907E-01 0.10600226E+04</pdfrwt>
<totfact> 0.10456093E+02</totfact>
</mgrwt>
</event>
<event>
 4    1  0.1805887E-005  0.7797538E+03  0.7818608E-02  0.9589794E-01
         -2   -1    0    0    0  501 -0.00000000000E+00  0.00000000000E+00  0.19164932553E+03  0.19164932554E+03  0.25500000000E-02 0. -1.
          2   -1    0    0  501    0  0.00000000000E+00 -0.00000000000E+00 -0.79313617477E+03  0.79313617478E+03  0.25500000000E-02 0.  1.
   -5000001    1    1    2    0    0 -0.80774824093E+02  0.27323073429E+03 -0.18551469728E+03  0.42201339940E+03  0.25000000000E+03 0.  0.
    5000001    1    1    2    0    0  0.80774824093E+02 -0.27323073429E+03 -0.41597215197E+03  0.56277210092E+03  0.25000000000E+03 0.  0.
<mgrwt>
<rscale>  0 0.77975384E+03</rscale>
<asrwt>0</asrwt>
<pdfrwt beam="1">  1        2 0.12202095E+00 0.77975384E+03</pdfrwt>
<pdfrwt beam="2">  1       -2 0.29484512E-01 0.77975384E+03</pdfrwt>
<totfact> 0.37077494E+02</totfact>
</mgrwt>
</event>
<event>
 4    1  0.1805887E-005  0.7940420E+03  0.7818608E-02  0.9568681E-01
          2   -1    0    0  501    0  0.00000000000E+00  0.00000000000E+00  0.49571509372E+03  0.49571509373E+03  0.25500000000E-02 0.  1.
         -2   -1    0    0    0  501 -0.00000000000E+00 -0.00000000000E+00 -0.31797635978E+03  0.31797635979E+03  0.25500000000E-02 0. -1.
   -5000001    1    1    2    0    0  0.82292814975E+02  0.87858443096E+02  0.37985840728E+03  0.47040793255E+03  0.25000000000E+03 0.  0.
    5000001    1    1    2    0    0 -0.82292814975E+02 -0.87858443096E+02 -0.20211967334E+03  0.34328352097E+03  0.25000000000E+03 0.  0.
<mgrwt>
<rscale>  0 0.79404202E+03</rscale>
<asrwt>0</asrwt>
<pdfrwt beam="1">  1        2 0.76263860E-01 0.79404202E+03</pdfrwt>
<pdfrwt beam="2">  1       -2 0.48919440E-01 0.79404202E+03</pdfrwt>
<totfact> 0.24786504E+02</totfact>
</mgrwt>
</event>
<event>
 4    1  0.1805887E-005  0.1179453E+04  0.7818608E-02  0.9131034E-01
         -2   -1    0    0    0  501 -0.00000000000E+00  0.00000000000E+00  0.32491958019E+03  0.32491958020E+03  0.25500000000E-02 0. -1.
          2   -1    0    0  501    0  0.00000000000E+00 -0.00000000000E+00 -0.10703495117E+04  0.10703495117E+04  0.25500000000E-02 0.  1.
   -5000001    1    1    2    0    0  0.23353673034E+03  0.19113300167E+03 -0.89404034694E+03  0.97615540294E+03  0.25000000000E+03 0.  0.
    5000001    1    1    2    0    0 -0.23353673034E+03 -0.19113300167E+03  0.14861041538E+03  0.41911368900E+03  0.25000000000E+03 0.  0.
<mgrwt>
<rscale>  0 0.11794533E+04</rscale>
<asrwt>0</asrwt>
<pdfrwt beam="1">  1        2 0.16466915E+00 0.11794533E+04</pdfrwt>
<pdfrwt beam="2">  1       -2 0.49987628E-01 0.11794533E+04</pdfrwt>
<totfact> 0.85012143E+01</totfact>
</mgrwt>
</event>
<event>
 4    1  0.1805887E-005  0.6186783E+03  0.7818608E-02  0.9867395E-01
         -2   -1    0    0    0  501 -0.00000000000E+00  0.00000000000E+00  0.71295655065E+02  0.71295655110E+02  0.25500000000E-02 0. -1.
          2   -1    0    0  501    0  0.00000000000E+00 -0.00000000000E+00 -0.13421673199E+04  0.13421673199E+04  0.25500000000E-02 0.  1.
   -5000001    1    1    2    0    0  0.41259870831E+02 -0.10039653060E+03 -0.96972040195E+03  0.10072931541E+04  0.25000000000E+03 0.  0.
    5000001    1    1    2    0    0 -0.41259870831E+02  0.10039653060E+03 -0.30115126287E+03  0.40616982092E+03  0.25000000000E+03 0.  0.
<mgrwt>
<rscale>  0 0.61867826E+03</rscale>
<asrwt>0</asrwt>
<pdfrwt beam="1">  1        2 0.20648726E+00 0.61867826E+03</pdfrwt>
<pdfrwt beam="2">  1       -2 0.10968563E-01 0.61867826E+03</pdfrwt>
<totfact> 0.93538657E+02</totfact>
</mgrwt>
</event>
<event>
 4    1  0.1805887E-005  0.1178572E+04  0.7818608E-02  0.9131822E-01
         -2   -1    0    0    0  501 -0.00000000000E+00  0.00000000000E+00  0.15823329407E+03  0.15823329409E+03  0.25500000000E-02 0. -1.
          2   -1    0    0  501    0  0.00000000000E+00 -0.00000000000E+00 -0.21945956213E+04  0.21945956213E+04  0.25500000000E-02 0.  1.
   -5000001    1    1    2    0    0  0.38796834808E+03 -0.35280991756E+03 -0.12154434155E+04  0.13471440061E+04  0.25000000000E+03 0.  0.
    5000001    1    1    2    0    0 -0.38796834808E+03  0.35280991756E+03 -0.82091891180E+03  0.10056849093E+04  0.25000000000E+03 0.  0.
<mgrwt>
<rscale>  0 0.11785722E+04</rscale>
<asrwt>0</asrwt>
<pdfrwt beam="1">  1        2 0.33763007E+00 0.11785722E+04</pdfrwt>
<pdfrwt beam="2">  1       -2 0.24343585E-01 0.11785722E+04</pdfrwt>
<totfact> 0.77601927E+01</totfact>
</mgrwt>
</event>
<event>
 4    1  0.1805887E-005  0.1022924E+04  0.7818608E-02  0.9283754E-01
          2   -1    0    0  501    0  0.00000000000E+00  0.00000000000E+00  0.10362092177E+04  0.10362092177E+04  0.25500000000E-02 0.  1.
         -2   -1    0    0    0  501 -0.00000000000E+00 -0.00000000000E+00 -0.25245221103E+03  0.25245221104E+03  0.25500000000E-02 0. -1.
   -5000001    1    1    2    0    0  0.12310400009E+03  0.41667438085E+03  0.51986379457E+03  0.72217068578E+03  0.25000000000E+03 0.  0.
    5000001    1    1    2    0    0 -0.12310400009E+03 -0.41667438085E+03  0.26389321214E+03  0.56649074300E+03  0.25000000000E+03 0.  0.
<mgrwt>
<rscale>  0 0.10229239E+04</rscale>
<asrwt>0</asrwt>
<pdfrwt beam="1">  1        2 0.15941681E+00 0.10229239E+04</pdfrwt>
<pdfrwt beam="2">  1       -2 0.38838801E-01 0.10229239E+04</pdfrwt>
<totfact> 0.14906039E+02</totfact>
</mgrwt>
</event>
<event>
 4    1  0.1805887E-005  0.8166989E+03  0.7818608E-02  0.9536156E-01
         -2   -1    0    0    0  501 -0.00000000000E+00  0.00000000000E+00  0.90594575613E+02  0.90594575649E+02  0.25500000000E-02 0. -1.
          2   -1    0    0  501    0  0.00000000000E+00 -0.00000000000E+00 -0.18406097772E+04  0.18406097772E+04  0.25500000000E-02 0.  1.
   -5000001    1    1    2    0    0  0.59275277579E+01 -0.19937182531E+03 -0.14753904455E+04  0.15096559962E+04  0.25000000000E+03 0.  0.
    5000001    1    1    2    0    0 -0.59275277579E+01  0.19937182531E+03 -0.27462475612E+03  0.42154835664E+03  0.25000000000E+03 0.  0.
<mgrwt>
<rscale>  0 0.81669887E+03</rscale>
<asrwt>0</asrwt>
<pdfrwt beam="1">  1        2 0.28317071E+00 0.81669887E+03</pdfrwt>
<pdfrwt beam="2">  1       -2 0.13937628E-01 0.81669887E+03</pdfrwt>
<totfact> 0.32973177E+02</totfact>
</mgrwt>
</event>
<event>
 4    1  0.1805887E-005  0.8672696E+03  0.7818608E-02  0.9467447E-01
          2   -1    0    0  501    0  0.00000000000E+00  0.00000000000E+00  0.79925075544E+03  0.79925075545E+03  0.25500000000E-02 0.  1.
         -2   -1    0    0    0  501 -0.00000000000E+00 -0.00000000000E+00 -0.23526927400E+03  0.23526927401E+03  0.25500000000E-02 0. -1.
   -5000001    1    1    2    0    0 -0.78987443455E+02  0.32941595362E+03  0.40587041321E+03  0.58479456140E+03  0.25000000000E+03 0.  0.
    5000001    1    1    2    0    0  0.78987443455E+02 -0.32941595362E+03  0.15811106824E+03  0.44972546806E+03  0.25000000000E+03 0.  0.
<mgrwt>
<rscale>  0 0.86726961E+03</rscale>
<asrwt>0</asrwt>
<pdfrwt beam="1">  1        2 0.12296165E+00 0.86726961E+03</pdfrwt>
<pdfrwt beam="2">  1       -2 0.36195273E-01 0.86726961E+03</pdfrwt>
<totfact> 0.24847263E+02</totfact>
</mgrwt>
</event>
<event>
 4    1  0.1805887E-005  0.6455747E+03  0.7818608E-02  0.9815118E-01
          2   -1    0    0  501    0  0.00000000000E+00  0.00000000000E+00  0.41925536247E+03  0.41925536248E+03  0.25500000000E-02 0.  1.
         -2   -1    0    0    0  501 -0.00000000000E+00 -0.00000000000E+00 -0.24851604948E+03  0.24851604950E+03  0.25500000000E-02 0. -1.
   -5000001    1    1    2    0    0  0.11439294912E+03  0.16709928145E+03  0.58321589524E+02  0.32696991371E+03  0.25000000000E+03 0.  0.
    5000001    1    1    2    0    0 -0.11439294912E+03 -0.16709928145E+03  0.11241772346E+03  0.34080149826E+03  0.25000000000E+03 0.  0.
<mgrwt>
<rscale>  0 0.64557474E+03</rscale>
<asrwt>0</asrwt>
<pdfrwt beam="1">  1        2 0.64500825E-01 0.64557474E+03</pdfrwt>
<pdfrwt beam="2">  1       -2 0.38233238E-01 0.64557474E+03</pdfrwt>
<totfact> 0.49081514E+02</totfact>
</mgrwt>
</event>
<event>
 4    1  0.1805887E-005  0.6385928E+03  0.7818608E-02  0.9828423E-01
          2   -1    0    0  501    0  0.00000000000E+00  0.00000000000E+00  0.13792039624E+04  0.13792039624E+04  0.25500000000E-02 0.  1.
         -2   -1    0    0    0  501 -0.00000000000E+00 -0.00000000000E+00 -0.73919580069E+02  0.73919580113E+02  0.25500000000E-02 0. -1.
   -5000001    1    1    2    0    0  0.13691630166E+03  0.14214959979E+03  0.60188276300E+03  0.68096655041E+03  0.25000000000E+03 0.  0.
    5000001    1    1    2    0    0 -0.13691630166E+03 -0.14214959979E+03  0.70340161932E+03  0.77215699210E+03  0.25000000000E+03 0.  0.
<mgrwt>
<rscale>  0 0.63859276E+03</rscale>
<asrwt>0</asrwt>
<pdfrwt beam="1">  1        2 0.21218521E+00 0.63859276E+03</pdfrwt>
<pdfrwt beam="2">  1       -2 0.11372244E-01 0.63859276E+03</pdfrwt>
<totfact> 0.83935618E+02</totfact>
</mgrwt>
</event>
<event>
 4    1  0.1805887E-005  0.5929561E+03  0.7818608E-02  0.9920129E-01
          2   -1    0    0  501    0  0.00000000000E+00  0.00000000000E+00  0.75800162692E+03  0.75800162693E+03  0.25500000000E-02 0.  1.
         -2   -1    0    0    0  501 -0.00000000000E+00 -0.00000000000E+00 -0.11596179361E+03  0.11596179364E+03  0.25500000000E-02 0. -1.
   -5000001    1    1    2    0    0 -0.64254649142E+02 -0.14401096252E+03  0.35499699151E+03  0.46194229212E+03  0.25000000000E+03 0.  0.
    5000001    1    1    2    0    0  0.64254649142E+02  0.14401096252E+03  0.28704284179E+03  0.41202112845E+03  0.25000000000E+03 0.  0.
<mgrwt>
<rscale>  0 0.59295608E+03</rscale>
<asrwt>0</asrwt>
<pdfrwt beam="1">  1        2 0.11661564E+00 0.59295608E+03</pdfrwt>
<pdfrwt beam="2">  1       -2 0.17840276E-01 0.59295608E+03</pdfrwt>
<totfact> 0.96792502E+02</totfact>
</mgrwt>
</event>
<event>
 4    1  0.1805887E-005  0.8322288E+03  0.7818608E-02  0.9514504E-01
          2   -1    0    0  501    0  0.00000000000E+00  0.00000000000E+00  0.13266257959E+04  0.13266257959E+04  0.25500000000E-02 0.  1.
         -2   -1    0    0    0  501 -0.00000000000E+00 -0.00000000000E+00 -0.13051999546E+03  0.13051999548E+03  0.25500000000E-02 0. -1.
   -5000001    1    1    2    0    0  0.28790611024E+02 -0.31261218808E+03  0.40548690344E+03  0.57050408262E+03  0.25000000000E+03 0.  0.
    5000001    1    1    2    0    0 -0.28790611024E+02  0.31261218808E+03  0.79061889701E+03  0.88664170877E+03  0.25000000000E+03 0.  0.
<mgrwt>
<rscale>  0 0.83222880E+03</rscale>
<asrwt>0</asrwt>
<pdfrwt beam="1">  1        2 0.20409629E+00 0.83222880E+03</pdfrwt>
<pdfrwt beam="2">  1       -2 0.20079998E-01 0.83222880E+03</pdfrwt>
<totfact> 0.34000179E+02</totfact>
</mgrwt>
</event>
<event>
 4    1  0.1805887E-005  0.1036227E+04  0.7818608E-02  0.9269681E-01
          2   -1    0    0  501    0  0.00000000000E+00  0.00000000000E+00  0.11455439808E+04  0.11455439808E+04  0.25500000000E-02 0.  1.
         -2   -1    0    0    0  501 -0.00000000000E+00 -0.00000000000E+00 -0.23433526208E+03  0.23433526209E+03  0.25500000000E-02 0. -1.
   -5000001    1    1    2    0    0 -0.35014427610E+03 -0.28417401108E+03  0.52331482822E+03  0.73465249751E+03  0.25000000000E+03 0.  0.
    5000001    1    1    2    0    0  0.35014427610E+03  0.28417401108E+03  0.38789389048E+03  0.64522674537E+03  0.25000000000E+03 0.  0.
<mgrwt>
<rscale>  0 0.10362265E+04</rscale>
<asrwt>0</asrwt>
<pdfrwt beam="1">  1        2 0.17623753E+00 0.10362265E+04</pdfrwt>
<pdfrwt beam="2">  1       -2 0.36051579E-01 0.10362265E+04</pdfrwt>
<totfact> 0.14716837E+02</totfact>
</mgrwt>
</event>
<event>
 4    1  0.1805887E-005  0.6371303E+03  0.7818608E-02  0.9831232E-01
         -2   -1    0    0    0  501 -0.00000000000E+00  0.00000000000E+00  0.70421114374E+02  0.70421114420E+02  0.25500000000E-02 0. -1.
          2   -1    0    0  501    0  0.00000000000E+00 -0.00000000000E+00 -0.14410986116E+04  0.14410986116E+04  0.25500000000E-02 0.  1.
   -5000001    1    1    2    0    0 -0.78248464843E+02  0.17502065986E+03 -0.57334005758E+03  0.65419712263E+03  0.25000000000E+03 0.  0.
    5000001    1    1    2    0    0  0.78248464843E+02 -0.17502065986E+03 -0.79733743961E+03  0.85732260336E+03  0.25000000000E+03 0.  0.
<mgrwt>
<rscale>  0 0.63713035E+03</rscale>
<asrwt>0</asrwt>
<pdfrwt beam="1">  1        2 0.22170746E+00 0.63713035E+03</pdfrwt>
<pdfrwt beam="2">  1       -2 0.10834019E-01 0.63713035E+03</pdfrwt>
<totfact> 0.83893710E+02</totfact>
</mgrwt>
</event>
<event>
 4    1  0.1805887E-005  0.7682463E+03  0.7818608E-02  0.9607152E-01
         -2   -1    0    0    0  501 -0.00000000000E+00  0.00000000000E+00  0.14314840081E+03  0.14314840083E+03  0.25500000000E-02 0. -1.
          2   -1    0    0  501    0  0.00000000000E+00 -0.00000000000E+00 -0.10307527902E+04  0.10307527902E+04  0.25500000000E-02 0.  1.
   -5000001    1    1    2    0    0 -0.60370116605E+02 -0.28288846500E+03 -0.50056955995E+03  0.62987325627E+03  0.25000000000E+03 0.  0.
    5000001    1    1    2    0    0  0.60370116605E+02  0.28288846500E+03 -0.38703482944E+03  0.54402793477E+03  0.25000000000E+03 0.  0.
<mgrwt>
<rscale>  0 0.76824635E+03</rscale>
<asrwt>0</asrwt>
<pdfrwt beam="1">  1        2 0.15857735E+00 0.76824635E+03</pdfrwt>
<pdfrwt beam="2">  1       -2 0.22022832E-01 0.76824635E+03</pdfrwt>
<totfact> 0.43576604E+02</totfact>
</mgrwt>
</event>
<event>
 4    1  0.1805887E-005  0.6797184E+03  0.7818608E-02  0.9752559E-01
          2   -1    0    0  501    0  0.00000000000E+00  0.00000000000E+00  0.39307924500E+03  0.39307924501E+03  0.25500000000E-02 0.  1.
         -2   -1    0    0    0  501 -0.00000000000E+00 -0.00000000000E+00 -0.29384475163E+03  0.29384475164E+03  0.25500000000E-02 0. -1.
   -5000001    1    1    2    0    0 -0.13618580318E+03 -0.18388012329E+03  0.23935247941E+02  0.33975192247E+03  0.25000000000E+03 0.  0.
    5000001    1    1    2    0    0  0.13618580318E+03  0.18388012329E+03  0.75299245434E+02  0.34717207418E+03  0.25000000000E+03 0.  0.
<mgrwt>
<rscale>  0 0.67971839E+03</rscale>
<asrwt>0</asrwt>
<pdfrwt beam="1">  1        2 0.60473730E-01 0.67971839E+03</pdfrwt>
<pdfrwt beam="2">  1       -2 0.45206885E-01 0.67971839E+03</pdfrwt>
<totfact> 0.37967167E+02</totfact>
</mgrwt>
</event>
<event>
 4    1  0.1805887E-005  0.6157870E+03  0.7818608E-02  0.9873184E-01
         -2   -1    0    0    0  501 -0.00000000000E+00  0.00000000000E+00  0.40726466601E+02  0.40726466681E+02  0.25500000000E-02 0. -1.
          2   -1    0    0  501    0  0.00000000000E+00 -0.00000000000E+00 -0.23276855181E+04  0.23276855181E+04  0.25500000000E-02 0.  1.
   -5000001    1    1    2    0    0  0.10965895172E+03 -0.31362919659E+02 -0.16776616358E+04  0.17000168478E+04  0.25000000000E+03 0.  0.
    5000001    1    1    2    0    0 -0.10965895172E+03  0.31362919659E+02 -0.60929741570E+03  0.66839513703E+03  0.25000000000E+03 0.  0.
<mgrwt>
<rscale>  0 0.61578700E+03</rscale>
<asrwt>0</asrwt>
<pdfrwt beam="1">  1        2 0.35810536E+00 0.61578700E+03</pdfrwt>
<pdfrwt beam="2">  1       -2 0.62656121E-02 0.61578700E+03</pdfrwt>
<totfact> 0.66169439E+02</totfact>
</mgrwt>
</event>
<event>
 4    1  0.1805887E-005  0.9410091E+03  0.7818608E-02  0.9375722E-01
          2   -1    0    0  501    0  0.00000000000E+00  0.00000000000E+00  0.50299540348E+03  0.50299540348E+03  0.25500000000E-02 0.  1.
         -2   -1    0    0    0  501 -0.00000000000E+00 -0.00000000000E+00 -0.44011241237E+03  0.44011241238E+03  0.25500000000E-02 0. -1.
   -5000001    1    1    2    0    0 -0.30038962449E+03  0.18854934012E+03  0.21375305707E+03  0.48370977824E+03  0.25000000000E+03 0.  0.
    5000001    1    1    2    0    0  0.30038962449E+03 -0.18854934012E+03 -0.15087006596E+03  0.45939803762E+03  0.25000000000E+03 0.  0.
<mgrwt>
<rscale>  0 0.94100908E+03</rscale>
<asrwt>0</asrwt>
<pdfrwt beam="1">  1        2 0.77383908E-01 0.94100908E+03</pdfrwt>
<pdfrwt beam="2">  1       -2 0.67709602E-01 0.94100908E+03</pdfrwt>
<totfact> 0.12248561E+02</totfact>
</mgrwt>
</event>
<event>
 4    1  0.1805887E-005  0.6620970E+03  0.7818608E-02  0.9784341E-01
          2   -1    0    0  501    0  0.00000000000E+00  0.00000000000E+00  0.20430261055E+04  0.20430261055E+04  0.25500000000E-02 0.  1.
         -2   -1    0    0    0  501 -0.00000000000E+00 -0.00000000000E+00 -0.53642546597E+02  0.53642546658E+02  0.25500000000E-02 0. -1.
   -5000001    1    1    2    0    0  0.14893160542E+03  0.15635200195E+03  0.92629148686E+03  0.98343402943E+03  0.25000000000E+03 0.  0.
    5000001    1    1    2    0    0 -0.14893160542E+03 -0.15635200195E+03  0.10630920721E+04  0.11132346228E+04  0.25000000000E+03 0.  0.
<mgrwt>
<rscale>  0 0.66209704E+03</rscale>
<asrwt>0</asrwt>
<pdfrwt beam="1">  1        2 0.31431169E+00 0.66209704E+03</pdfrwt>
<pdfrwt beam="2">  1       -2 0.82526999E-02 0.66209704E+03</pdfrwt>
<totfact> 0.61019517E+02</totfact>
</mgrwt>
</event>
<event>
 4    1  0.1805887E-005  0.5688674E+03  0.7818608E-02  0.9972188E-01
         -2   -1    0    0    0  501 -0.00000000000E+00  0.00000000000E+00  0.34813619958E+02  0.34813620051E+02  0.25500000000E-02 0. -1.
          2   -1    0    0  501    0  0.00000000000E+00 -0.00000000000E+00 -0.23238758278E+04  0.23238758278E+04  0.25500000000E-02 0.  1.
   -5000001    1    1    2    0    0  0.10298430807E+03  0.81770668284E+02 -0.12826915795E+04  0.13134267768E+04  0.25000000000E+03 0.  0.
    5000001    1    1    2    0    0 -0.10298430807E+03 -0.81770668284E+02 -0.10063706283E+04  0.10452626710E+04  0.25000000000E+03 0.  0.
<mgrwt>
<rscale>  0 0.56886740E+03</rscale>
<asrwt>0</asrwt>
<pdfrwt beam="1">  1        2 0.35751924E+00 0.56886740E+03</pdfrwt>
<pdfrwt beam="2">  1       -2 0.53559434E-02 0.56886740E+03</pdfrwt>
<totfact> 0.85289372E+02</totfact>
</mgrwt>
</event>
<event>
 4    1  0.1805887E-005  0.8543275E+03  0.7818608E-02  0.9484547E-01
         -2   -1    0    0    0  501 -0.00000000000E+00  0.00000000000E+00  0.73514956104E+02  0.73514956149E+02  0.25500000000E-02 0. -1.
          2   -1    0    0  501    0  0.00000000000E+00 -0.00000000000E+00 -0.24820643679E+04  0.24820643679E+04  0.25500000000E-02 0.  1.
   -5000001    1    1    2    0    0 -0.27853731588E+03  0.46566580331E+02 -0.18041649986E+04  0.18431665212E+04  0.25000000000E+03 0.  0.
    5000001    1    1    2    0    0  0.27853731588E+03 -0.46566580331E+02 -0.60438441321E+03  0.71241280286E+03  0.25000000000E+03 0.  0.
<mgrwt>
<rscale>  0 0.85432746E+03</rscale>
<asrwt>0</asrwt>
<pdfrwt beam="1">  1        2 0.38185599E+00 0.85432746E+03</pdfrwt>
<pdfrwt beam="2">  1       -2 0.11309995E-01 0.85432746E+03</pdfrwt>
<totfact> 0.20550563E+02</totfact>
</mgrwt>
</event>
<event>
 4    1  0.1805887E-005  0.5752725E+03  0.7818608E-02  0.9958079E-01
         -2   -1    0    0    0  501 -0.00000000000E+00  0.00000000000E+00  0.12171325909E+03  0.12171325911E+03  0.25500000000E-02 0. -1.
          2   -1    0    0  501    0  0.00000000000E+00 -0.00000000000E+00 -0.67975014376E+03  0.67975014376E+03  0.25500000000E-02 0.  1.
   -5000001    1    1    2    0    0  0.12281260268E+03 -0.32143228809E+02 -0.36842692628E+03  0.46298436533E+03  0.25000000000E+03 0.  0.
    5000001    1    1    2    0    0 -0.12281260268E+03  0.32143228809E+02 -0.18960995839E+03  0.33847903754E+03  0.25000000000E+03 0.  0.
<mgrwt>
<rscale>  0 0.57527248E+03</rscale>
<asrwt>0</asrwt>
<pdfrwt beam="1">  1        2 0.10457694E+00 0.57527248E+03</pdfrwt>
<pdfrwt beam="2">  1       -2 0.18725117E-01 0.57527248E+03</pdfrwt>
<totfact> 0.10221832E+03</totfact>
</mgrwt>
</event>
<event>
 4    1  0.1805887E-005  0.6058918E+03  0.7818608E-02  0.9893257E-01
          2   -1    0    0  501    0  0.00000000000E+00  0.00000000000E+00  0.30868794297E+04  0.30868794297E+04  0.25500000000E-02 0.  1.
         -2   -1    0    0    0  501 -0.00000000000E+00 -0.00000000000E+00 -0.29731071321E+02  0.29731071431E+02  0.25500000000E-02 0. -1.
   -5000001    1    1    2    0    0  0.16834873603E+03  0.29698566139E+02  0.15659974779E+04  0.15950145462E+04  0.25000000000E+03 0.  0.
    5000001    1    1    2    0    0 -0.16834873603E+03 -0.29698566139E+02  0.14911508805E+04  0.15215959549E+04  0.25000000000E+03 0.  0.
<mgrwt>
<rscale>  0 0.60589185E+03</rscale>
<asrwt>0</asrwt>
<pdfrwt beam="1">  1        2 0.47490479E+00 0.60589185E+03</pdfrwt>
<pdfrwt beam="2">  1       -2 0.45740084E-02 0.60589185E+03</pdfrwt>
<totfact> 0.39135410E+02</totfact>
</mgrwt>
</event>
<event>
 4    1  0.1805887E-005  0.1056479E+04  0.7818608E-02  0.9248680E-01
         -2   -1    0    0    0  501 -0.00000000000E+00  0.00000000000E+00  0.12534038958E+04  0.12534038958E+04  0.25500000000E-02 0. -1.
          2   -1    0    0  501    0  0.00000000000E+00 -0.00000000000E+00 -0.22262338610E+03  0.22262338611E+03  0.25500000000E-02 0.  1.
   -5000001    1    1    2    0    0  0.21855637178E+03  0.40848330778E+03  0.45430691250E+03  0.69535621887E+03  0.25000000000E+03 0.  0.
    5000001    1    1    2    0    0 -0.21855637178E+03 -0.40848330778E+03  0.57647359716E+03  0.78067106300E+03  0.25000000000E+03 0.  0.
<mgrwt>
<rscale>  0 0.10564791E+04</rscale>
<asrwt>0</asrwt>
<pdfrwt beam="1">  1        2 0.34249751E-01 0.10564791E+04</pdfrwt>
<pdfrwt beam="2">  1       -2 0.19283137E+00 0.10564791E+04</pdfrwt>
<totfact> 0.22640889E+01</totfact>
</mgrwt>
</event>
<event>
 4    1  0.1805887E-005  0.9922589E+03  0.7818608E-02  0.9317076E-01
         -2   -1    0    0    0  501 -0.00000000000E+00  0.00000000000E+00  0.13592318985E+03  0.13592318987E+03  0.25500000000E-02 0. -1.
          2   -1    0    0  501    0  0.00000000000E+00 -0.00000000000E+00 -0.18109081214E+04  0.18109081214E+04  0.25500000000E-02 0.  1.
   -5000001    1    1    2    0    0  0.35560824258E+03 -0.22268936142E+03 -0.66648543910E+03  0.82628724691E+03  0.25000000000E+03 0.  0.
    5000001    1    1    2    0    0 -0.35560824258E+03  0.22268936142E+03 -0.10084994924E+04  0.11205440643E+04  0.25000000000E+03 0.  0.
<mgrwt>
<rscale>  0 0.99225885E+03</rscale>
<asrwt>0</asrwt>
<pdfrwt beam="1">  1        2 0.27860123E+00 0.99225885E+03</pdfrwt>
<pdfrwt beam="2">  1       -2 0.20911261E-01 0.99225885E+03</pdfrwt>
<totfact> 0.16819243E+02</totfact>
</mgrwt>
</event>
<event>
 4    1  0.1805887E-005  0.5810357E+03  0.7818608E-02  0.9945551E-01
          2   -1    0    0  501    0  0.00000000000E+00  0.00000000000E+00  0.17178298417E+04  0.17178298417E+04  0.25500000000E-02 0.  1.
         -2   -1    0    0    0  501 -0.00000000000E+00 -0.00000000000E+00 -0.49132116536E+02  0.49132116602E+02  0.25500000000E-02 0. -1.
   -5000001    1    1    2    0    0  0.14350925218E+03  0.27627243931E+02  0.90517648053E+03  0.95036973382E+03  0.25000000000E+03 0.  0.
    5000001    1    1    2    0    0 -0.14350925218E+03 -0.27627243931E+02  0.76352124461E+03  0.81659222446E+03  0.25000000000E+03 0.  0.
<mgrwt>
<rscale>  0 0.58103568E+03</rscale>
<asrwt>0</asrwt>
<pdfrwt beam="1">  1        2 0.26428153E+00 0.58103568E+03</pdfrwt>
<pdfrwt beam="2">  1       -2 0.75587868E-02 0.58103568E+03</pdfrwt>
<totfact> 0.10586638E+03</totfact>
</mgrwt>
</event>
<event>
 4    1  0.1805887E-005  0.5127827E+03  0.7818608E-02  0.1010495E+00
          2   -1    0    0  501    0  0.00000000000E+00  0.00000000000E+00  0.17937413422E+04  0.17937413422E+04  0.25500000000E-02 0.  1.
         -2   -1    0    0    0  501 -0.00000000000E+00 -0.00000000000E+00 -0.36647714788E+02  0.36647714877E+02  0.25500000000E-02 0. -1.
   -5000001    1    1    2    0    0 -0.23355412592E+02 -0.50769291879E+02  0.84051424850E+03  0.87868492546E+03  0.25000000000E+03 0.  0.
    5000001    1    1    2    0    0  0.23355412592E+02  0.50769291879E+02  0.91657937890E+03  0.95170413160E+03  0.25000000000E+03 0.  0.
<mgrwt>
<rscale>  0 0.51278269E+03</rscale>
<asrwt>0</asrwt>
<pdfrwt beam="1">  1        2 0.27596018E+00 0.51278269E+03</pdfrwt>
<pdfrwt beam="2">  1       -2 0.56381105E-02 0.51278269E+03</pdfrwt>
<totfact> 0.15321679E+03</totfact>
</mgrwt>
</event>
<event>
 4    1  0.1805887E-005  0.6320702E+03  0.7818608E-02  0.9841017E-01
         -2   -1    0    0    0  501 -0.00000000000E+00  0.00000000000E+00  0.77026748088E+02  0.77026748130E+02  0.25500000000E-02 0. -1.
          2   -1    0    0  501    0  0.00000000000E+00 -0.00000000000E+00 -0.12966690133E+04  0.12966690133E+04  0.25500000000E-02 0.  1.
   -5000001    1    1    2    0    0 -0.18032554714E+03 -0.40932095059E+02 -0.48715881558E+03  0.57794156361E+03  0.25000000000E+03 0.  0.
    5000001    1    1    2    0    0  0.18032554714E+03  0.40932095059E+02 -0.73248344963E+03  0.79575419782E+03  0.25000000000E+03 0.  0.
<mgrwt>
<rscale>  0 0.63207024E+03</rscale>
<asrwt>0</asrwt>
<pdfrwt beam="1">  1        2 0.19948752E+00 0.63207024E+03</pdfrwt>
<pdfrwt beam="2">  1       -2 0.11850270E-01 0.63207024E+03</pdfrwt>
<totfact> 0.87419517E+02</totfact>
</mgrwt>
</event>
<event>
 4    1  0.1805887E-005  0.5547810E+03  0.7818608E-02  0.1000393E+00
          2   -1    0    0  501    0  0.00000000000E+00  0.00000000000E+00  0.45693358080E+03  0.45693358081E+03  0.25500000000E-02 0.  1.
         -2   -1    0    0    0  501 -0.00000000000E+00 -0.00000000000E+00 -0.16839533226E+03  0.16839533227E+03  0.25500000000E-02 0. -1.
   -5000001    1    1    2    0    0  0.96868150104E+02  0.66878776198E+02  0.17163095840E+03  0.32528970948E+03  0.25000000000E+03 0.  0.
    5000001    1    1    2    0    0 -0.96868150104E+02 -0.66878776198E+02  0.11690729015E+03  0.30003920360E+03  0.25000000000E+03 0.  0.
<mgrwt>
<rscale>  0 0.55478097E+03</rscale>
<asrwt>0</asrwt>
<pdfrwt beam="1">  1        2 0.70297475E-01 0.55478097E+03</pdfrwt>
<pdfrwt beam="2">  1       -2 0.25906974E-01 0.55478097E+03</pdfrwt>
<totfact> 0.92123703E+02</totfact>
</mgrwt>
</event>
<event>
 4    1  0.1805887E-005  0.1160135E+04  0.7818608E-02  0.9148484E-01
         -2   -1    0    0    0  501 -0.00000000000E+00  0.00000000000E+00  0.49662262096E+03  0.49662262097E+03  0.25500000000E-02 0. -1.
          2   -1    0    0  501    0  0.00000000000E+00 -0.00000000000E+00 -0.67753375611E+03  0.67753375612E+03  0.25500000000E-02 0.  1.
   -5000001    1    1    2    0    0 -0.33880573063E+03  0.36332938971E+03 -0.25731475058E+03  0.61278744227E+03  0.25000000000E+03 0.  0.
    5000001    1    1    2    0    0  0.33880573063E+03 -0.36332938971E+03  0.76403615433E+02  0.56136893482E+03  0.25000000000E+03 0.  0.
<mgrwt>
<rscale>  0 0.11601355E+04</rscale>
<asrwt>0</asrwt>
<pdfrwt beam="1">  1        2 0.10423596E+00 0.11601355E+04</pdfrwt>
<pdfrwt beam="2">  1       -2 0.76403480E-01 0.11601355E+04</pdfrwt>
<totfact> 0.64754590E+01</totfact>
</mgrwt>
</event>
<event>
 4    1  0.1805887E-005  0.7014384E+03  0.7818608E-02  0.9714775E-01
          2   -1    0    0  501    0  0.00000000000E+00  0.00000000000E+00  0.30647885081E+04  0.30647885081E+04  0.25500000000E-02 0.  1.
         -2   -1    0    0    0  501 -0.00000000000E+00 -0.00000000000E+00 -0.40134570659E+02  0.40134570740E+02  0.25500000000E-02 0. -1.
   -5000001    1    1    2    0    0  0.22421912831E+03 -0.95353634267E+02  0.13630388830E+04  0.14070328815E+04  0.25000000000E+03 0.  0.
    5000001    1    1    2    0    0 -0.22421912831E+03  0.95353634267E+02  0.16616150545E+04  0.16978901974E+04  0.25000000000E+03 0.  0.
<mgrwt>
<rscale>  0 0.70143844E+03</rscale>
<asrwt>0</asrwt>
<pdfrwt beam="1">  1        2 0.47150597E+00 0.70143844E+03</pdfrwt>
<pdfrwt beam="2">  1       -2 0.61745487E-02 0.70143844E+03</pdfrwt>
<totfact> 0.25017636E+02</totfact>
</mgrwt>
</event>
<event>
 4    1  0.1805887E-005  0.1059641E+04  0.7818608E-02  0.9245447E-01
         -2   -1    0    0    0  501 -0.00000000000E+00  0.00000000000E+00  0.38033598750E+03  0.38033598751E+03  0.25500000000E-02 0. -1.
          2   -1    0    0  501    0  0.00000000000E+00 -0.00000000000E+00 -0.73805725627E+03  0.73805725628E+03  0.25500000000E-02 0.  1.
   -5000001    1    1    2    0    0 -0.17908931732E+03 -0.17569931544E+03  0.23702573507E+03  0.42617418048E+03  0.25000000000E+03 0.  0.
    5000001    1    1    2    0    0  0.17908931732E+03  0.17569931544E+03 -0.59474700384E+03  0.69221906330E+03  0.25000000000E+03 0.  0.
<mgrwt>
<rscale>  0 0.10596409E+04</rscale>
<asrwt>0</asrwt>
<pdfrwt beam="1">  1        2 0.11354727E+00 0.10596409E+04</pdfrwt>
<pdfrwt beam="2">  1       -2 0.58513229E-01 0.10596409E+04</pdfrwt>
<totfact> 0.10409725E+02</totfact>
</mgrwt>
</event>
<event>
 4    1  0.1805887E-005  0.8126149E+03  0.7818608E-02  0.9541935E-01
          2   -1    0    0  501    0  0.00000000000E+00  0.00000000000E+00  0.11661046609E+04  0.11661046609E+04  0.25500000000E-02 0.  1.
         -2   -1    0    0    0  501 -0.00000000000E+00 -0.00000000000E+00 -0.14157026037E+03  0.14157026040E+03  0.25500000000E-02 0. -1.
   -5000001    1    1    2    0    0  0.76913283066E+02  0.25551489103E+03  0.22719366361E+03  0.43048864495E+03  0.25000000000E+03 0.  0.
    5000001    1    1    2    0    0 -0.76913283066E+02 -0.25551489103E+03  0.79734073687E+03  0.87718627630E+03  0.25000000000E+03 0.  0.
<mgrwt>
<rscale>  0 0.81261489E+03</rscale>
<asrwt>0</asrwt>
<pdfrwt beam="1">  1        2 0.17940072E+00 0.81261489E+03</pdfrwt>
<pdfrwt beam="2">  1       -2 0.21780040E-01 0.81261489E+03</pdfrwt>
<totfact> 0.36630287E+02</totfact>
</mgrwt>
</event>
<event>
 4    1  0.1805887E-005  0.1058985E+04  0.7818608E-02  0.9246116E-01
         -2   -1    0    0    0  501 -0.00000000000E+00  0.00000000000E+00  0.33146325398E+03  0.33146325399E+03  0.25500000000E-02 0. -1.
          2   -1    0    0  501    0  0.00000000000E+00 -0.00000000000E+00 -0.84583245892E+03  0.84583245893E+03  0.25500000000E-02 0.  1.
   -5000001    1    1    2    0    0 -0.11951278977E+03  0.42838018811E+03 -0.99690668600E+02  0.51983759184E+03  0.25000000000E+03 0.  0.
    5000001    1    1    2    0    0  0.11951278977E+03 -0.42838018811E+03 -0.41467853634E+03  0.65745812108E+03  0.25000000000E+03 0.  0.
<mgrwt>
<rscale>  0 0.10589851E+04</rscale>
<asrwt>0</asrwt>
<pdfrwt beam="1">  1        2 0.13012807E+00 0.10589851E+04</pdfrwt>
<pdfrwt beam="2">  1       -2 0.50994347E-01 0.10589851E+04</pdfrwt>
<totfact> 0.11558194E+02</totfact>
</mgrwt>
</event>
<event>
 4    1  0.1805887E-005  0.1987180E+04  0.7818608E-02  0.8612638E-01
          2   -1    0    0  501    0  0.00000000000E+00  0.00000000000E+00  0.86113369245E+03  0.86113369246E+03  0.25500000000E-02 0.  1.
         -2   -1    0    0    0  501 -0.00000000000E+00 -0.00000000000E+00 -0.11464197665E+04  0.11464197665E+04  0.25500000000E-02 0. -1.
   -5000001    1    1    2    0    0  0.22378524766E+03  0.84112124953E+03  0.27039575877E+03  0.94508129801E+03  0.25000000000E+03 0.  0.
    5000001    1    1    2    0    0 -0.22378524766E+03 -0.84112124953E+03 -0.55568183281E+03  0.10624721610E+04  0.25000000000E+03 0.  0.
<mgrwt>
<rscale>  0 0.19871796E+04</rscale>
<asrwt>0</asrwt>
<pdfrwt beam="1">  1        2 0.13248211E+00 0.19871796E+04</pdfrwt>
<pdfrwt beam="2">  1       -2 0.17637227E+00 0.19871796E+04</pdfrwt>
<totfact> 0.55698959E+00</totfact>
</mgrwt>
</event>
<event>
 4    1  0.1805887E-005  0.6763899E+03  0.7818608E-02  0.9758483E-01
         -2   -1    0    0    0  501 -0.00000000000E+00  0.00000000000E+00  0.11509485761E+03  0.11509485764E+03  0.25500000000E-02 0. -1.
          2   -1    0    0  501    0  0.00000000000E+00 -0.00000000000E+00 -0.99375266769E+03  0.99375266769E+03  0.25500000000E-02 0.  1.
   -5000001    1    1    2    0    0 -0.18927966708E+02  0.22642444025E+03 -0.46522493952E+03  0.57494394459E+03  0.25000000000E+03 0.  0.
    5000001    1    1    2    0    0  0.18927966708E+02 -0.22642444025E+03 -0.41343287056E+03  0.53390358074E+03  0.25000000000E+03 0.  0.
<mgrwt>
<rscale>  0 0.67638989E+03</rscale>
<asrwt>0</asrwt>
<pdfrwt beam="1">  1        2 0.15288502E+00 0.67638989E+03</pdfrwt>
<pdfrwt beam="2">  1       -2 0.17706902E-01 0.67638989E+03</pdfrwt>
<totfact> 0.67559083E+02</totfact>
</mgrwt>
</event>
<event>
 4    1  0.1805887E-005  0.1068324E+04  0.7818608E-02  0.9236627E-01
         -2   -1    0    0    0  501 -0.00000000000E+00  0.00000000000E+00  0.27509105803E+03  0.27509105805E+03  0.25500000000E-02 0. -1.
          2   -1    0    0  501    0  0.00000000000E+00 -0.00000000000E+00 -0.10372173989E+04  0.10372173989E+04  0.25500000000E-02 0.  1.
   -5000001    1    1    2    0    0  0.37825768499E+03 -0.92224052702E+01 -0.72777399722E+03  0.85750738775E+03  0.25000000000E+03 0.  0.
    5000001    1    1    2    0    0 -0.37825768499E+03  0.92224052702E+01 -0.34352343625E+02  0.45480106918E+03  0.25000000000E+03 0.  0.
<mgrwt>
<rscale>  0 0.10683244E+04</rscale>
<asrwt>0</asrwt>
<pdfrwt beam="1">  1        2 0.15957191E+00 0.10683244E+04</pdfrwt>
<pdfrwt beam="2">  1       -2 0.42321702E-01 0.10683244E+04</pdfrwt>
<totfact> 0.12544698E+02</totfact>
</mgrwt>
</event>
<event>
 4    1  0.1805887E-005  0.9813711E+03  0.7818608E-02  0.9329216E-01
          2   -1    0    0  501    0  0.00000000000E+00  0.00000000000E+00  0.42576217712E+03  0.42576217713E+03  0.25500000000E-02 0.  1.
         -2   -1    0    0    0  501 -0.00000000000E+00 -0.00000000000E+00 -0.56550892886E+03  0.56550892887E+03  0.25500000000E-02 0. -1.
   -5000001    1    1    2    0    0 -0.28679843086E+03 -0.34470632594E+02 -0.38092592745E+03  0.53948691056E+03  0.25000000000E+03 0.  0.
    5000001    1    1    2    0    0  0.28679843086E+03  0.34470632594E+02  0.24117917571E+03  0.45178419544E+03  0.25000000000E+03 0.  0.
<mgrwt>
<rscale>  0 0.98137111E+03</rscale>
<asrwt>0</asrwt>
<pdfrwt beam="1">  1        2 0.65501873E-01 0.98137111E+03</pdfrwt>
<pdfrwt beam="2">  1       -2 0.87001374E-01 0.98137111E+03</pdfrwt>
<totfact> 0.84639567E+01</totfact>
</mgrwt>
</event>
<event>
 4    1  0.1805887E-005  0.1058713E+04  0.7818608E-02  0.9246394E-01
         -2   -1    0    0    0  501 -0.00000000000E+00  0.00000000000E+00  0.40974865168E+03  0.40974865169E+03  0.25500000000E-02 0. -1.
          2   -1    0    0  501    0  0.00000000000E+00 -0.00000000000E+00 -0.68387870458E+03  0.68387870458E+03  0.25500000000E-02 0.  1.
   -5000001    1    1    2    0    0  0.13056238895E+03 -0.44650047499E+03 -0.17444064136E+03  0.55618229829E+03  0.25000000000E+03 0.  0.
    5000001    1    1    2    0    0 -0.13056238895E+03  0.44650047499E+03 -0.99689411545E+02  0.53744505798E+03  0.25000000000E+03 0.  0.
<mgrwt>
<rscale>  0 0.10587131E+04</rscale>
<asrwt>0</asrwt>
<pdfrwt beam="1">  1        2 0.10521211E+00 0.10587131E+04</pdfrwt>
<pdfrwt beam="2">  1       -2 0.63038254E-01 0.10587131E+04</pdfrwt>
<totfact> 0.97969697E+01</totfact>
</mgrwt>
</event>
<event>
 4    1  0.1805887E-005  0.6972024E+03  0.7818608E-02  0.9722028E-01
          2   -1    0    0  501    0  0.00000000000E+00  0.00000000000E+00  0.28498232277E+04  0.28498232277E+04  0.25500000000E-02 0.  1.
         -2   -1    0    0    0  501 -0.00000000000E+00 -0.00000000000E+00 -0.42642220822E+02  0.42642220898E+02  0.25500000000E-02 0. -1.
   -5000001    1    1    2    0    0  0.18573970231E+03 -0.83486740163E+02  0.19532470547E+04  0.19796826336E+04  0.25000000000E+03 0.  0.
    5000001    1    1    2    0    0 -0.18573970231E+03  0.83486740163E+02  0.85393395210E+03  0.91278281500E+03  0.25000000000E+03 0.  0.
<mgrwt>
<rscale>  0 0.69720239E+03</rscale>
<asrwt>0</asrwt>
<pdfrwt beam="1">  1        2 0.43843428E+00 0.69720239E+03</pdfrwt>
<pdfrwt beam="2">  1       -2 0.65603426E-02 0.69720239E+03</pdfrwt>
<totfact> 0.30706711E+02</totfact>
</mgrwt>
</event>
<event>
 4    1  0.1805887E-005  0.6594780E+03  0.7818608E-02  0.9789155E-01
          2   -1    0    0  501    0  0.00000000000E+00  0.00000000000E+00  0.10216445622E+04  0.10216445622E+04  0.25500000000E-02 0.  1.
         -2   -1    0    0    0  501 -0.00000000000E+00 -0.00000000000E+00 -0.10642430452E+03  0.10642430455E+03  0.25500000000E-02 0. -1.
   -5000001    1    1    2    0    0 -0.22973945040E+02  0.19939895793E+03  0.58944518496E+03  0.67099431641E+03  0.25000000000E+03 0.  0.
    5000001    1    1    2    0    0  0.22973945040E+02 -0.19939895793E+03  0.32577507273E+03  0.45707455036E+03  0.25000000000E+03 0.  0.
<mgrwt>
<rscale>  0 0.65947801E+03</rscale>
<asrwt>0</asrwt>
<pdfrwt beam="1">  1        2 0.15717609E+00 0.65947801E+03</pdfrwt>
<pdfrwt beam="2">  1       -2 0.16372970E-01 0.65947801E+03</pdfrwt>
<totfact> 0.74217320E+02</totfact>
</mgrwt>
</event>
<event>
 4    1  0.1805887E-005  0.6405279E+03  0.7818608E-02  0.9824717E-01
         -2   -1    0    0    0  501 -0.00000000000E+00  0.00000000000E+00  0.15725111397E+03  0.15725111399E+03  0.25500000000E-02 0. -1.
          2   -1    0    0  501    0  0.00000000000E+00 -0.00000000000E+00 -0.65226240142E+03  0.65226240142E+03  0.25500000000E-02 0.  1.
   -5000001    1    1    2    0    0  0.91460768449E+02  0.13052720682E+03 -0.40056161626E+03  0.49834930752E+03  0.25000000000E+03 0.  0.
    5000001    1    1    2    0    0 -0.91460768449E+02 -0.13052720682E+03 -0.94449671189E+02  0.31116420789E+03  0.25000000000E+03 0.  0.
<mgrwt>
<rscale>  0 0.64052787E+03</rscale>
<asrwt>0</asrwt>
<pdfrwt beam="1">  1        2 0.10034806E+00 0.64052787E+03</pdfrwt>
<pdfrwt beam="2">  1       -2 0.24192479E-01 0.64052787E+03</pdfrwt>
<totfact> 0.68472473E+02</totfact>
</mgrwt>
</event>
<event>
 4    1  0.1805887E-005  0.1191892E+04  0.7818608E-02  0.9119983E-01
          2   -1    0    0  501    0  0.00000000000E+00  0.00000000000E+00  0.48697960623E+03  0.48697960623E+03  0.25500000000E-02 0.  1.
         -2   -1    0    0    0  501 -0.00000000000E+00 -0.00000000000E+00 -0.72929440736E+03  0.72929440736E+03  0.25500000000E-02 0. -1.
   -5000001    1    1    2    0    0 -0.41597746606E+03 -0.24117636532E+03 -0.37411587202E+03  0.65853320126E+03  0.25000000000E+03 0.  0.
    5000001    1    1    2    0    0  0.41597746606E+03  0.24117636532E+03  0.13180107089E+03  0.55774081234E+03  0.25000000000E+03 0.  0.
<mgrwt>
<rscale>  0 0.11918918E+04</rscale>
<asrwt>0</asrwt>
<pdfrwt beam="1">  1        2 0.74919940E-01 0.11918918E+04</pdfrwt>
<pdfrwt beam="2">  1       -2 0.11219914E+00 0.11918918E+04</pdfrwt>
<totfact> 0.39251094E+01</totfact>
</mgrwt>
</event>
<event>
 4    1  0.1805887E-005  0.6825039E+03  0.7818608E-02  0.9747630E-01
         -2   -1    0    0    0  501 -0.00000000000E+00  0.00000000000E+00  0.85305797408E+02  0.85305797447E+02  0.25500000000E-02 0. -1.
          2   -1    0    0  501    0  0.00000000000E+00 -0.00000000000E+00 -0.13651229502E+04  0.13651229502E+04  0.25500000000E-02 0.  1.
   -5000001    1    1    2    0    0 -0.20508294071E+03  0.97356535063E+02 -0.53545982574E+03  0.63305176129E+03  0.25000000000E+03 0.  0.
    5000001    1    1    2    0    0  0.20508294071E+03 -0.97356535063E+02 -0.74435732704E+03  0.81737698635E+03  0.25000000000E+03 0.  0.
<mgrwt>
<rscale>  0 0.68250392E+03</rscale>
<asrwt>0</asrwt>
<pdfrwt beam="1">  1        2 0.21001890E+00 0.68250392E+03</pdfrwt>
<pdfrwt beam="2">  1       -2 0.13123970E-01 0.68250392E+03</pdfrwt>
<totfact> 0.67324754E+02</totfact>
</mgrwt>
</event>
<event>
 4    1  0.1805887E-005  0.6992860E+03  0.7818608E-02  0.9718454E-01
          2   -1    0    0  501    0  0.00000000000E+00  0.00000000000E+00  0.10938609517E+03  0.10938609520E+03  0.25500000000E-02 0.  1.
         -2   -1    0    0    0  501 -0.00000000000E+00 -0.00000000000E+00 -0.11176029816E+04  0.11176029816E+04  0.25500000000E-02 0. -1.
   -5000001    1    1    2    0    0 -0.16653045430E+03  0.17376476128E+03 -0.42917846296E+03  0.55192457596E+03  0.25000000000E+03 0.  0.
    5000001    1    1    2    0    0  0.16653045430E+03 -0.17376476128E+03 -0.57903842351E+03  0.67506450090E+03  0.25000000000E+03 0.  0.
<mgrwt>
<rscale>  0 0.69928600E+03</rscale>
<asrwt>0</asrwt>
<pdfrwt beam="1">  1        2 0.16828631E-01 0.69928600E+03</pdfrwt>
<pdfrwt beam="2">  1       -2 0.17193891E+00 0.69928600E+03</pdfrwt>
<totfact> 0.73183961E+01</totfact>
</mgrwt>
</event>
<event>
 4    1  0.1805887E-005  0.6735730E+03  0.7818608E-02  0.9763525E-01
          2   -1    0    0  501    0  0.00000000000E+00  0.00000000000E+00  0.13567926324E+04  0.13567926324E+04  0.25500000000E-02 0.  1.
         -2   -1    0    0    0  501 -0.00000000000E+00 -0.00000000000E+00 -0.83597992124E+02  0.83597992162E+02  0.25500000000E-02 0. -1.
   -5000001    1    1    2    0    0  0.22232863206E+03  0.18060542237E+02  0.56348492748E+03  0.65556957474E+03  0.25000000000E+03 0.  0.
    5000001    1    1    2    0    0 -0.22232863206E+03 -0.18060542237E+02  0.70970971281E+03  0.78482104984E+03  0.25000000000E+03 0.  0.
<mgrwt>
<rscale>  0 0.67357298E+03</rscale>
<asrwt>0</asrwt>
<pdfrwt beam="1">  1        2 0.20873731E+00 0.67357298E+03</pdfrwt>
<pdfrwt beam="2">  1       -2 0.12861231E-01 0.67357298E+03</pdfrwt>
<totfact> 0.70420307E+02</totfact>
</mgrwt>
</event>
<event>
 4    1  0.1805887E-005  0.7311535E+03  0.7818608E-02  0.9665390E-01
         -2   -1    0    0    0  501 -0.00000000000E+00  0.00000000000E+00  0.34244880600E+03  0.34244880601E+03  0.25500000000E-02 0. -1.
          2   -1    0    0  501    0  0.00000000000E+00 -0.00000000000E+00 -0.39026668851E+03  0.39026668852E+03  0.25500000000E-02 0.  1.
   -5000001    1    1    2    0    0  0.11604238525E+03  0.20849442390E+03  0.95553955414E+02  0.35856145689E+03  0.25000000000E+03 0.  0.
    5000001    1    1    2    0    0 -0.11604238525E+03 -0.20849442390E+03 -0.14337183793E+03  0.37415403764E+03  0.25000000000E+03 0.  0.
<mgrwt>
<rscale>  0 0.73115350E+03</rscale>
<asrwt>0</asrwt>
<pdfrwt beam="1">  1        2 0.60041029E-01 0.73115350E+03</pdfrwt>
<pdfrwt beam="2">  1       -2 0.52684432E-01 0.73115350E+03</pdfrwt>
<totfact> 0.28039031E+02</totfact>
</mgrwt>
</event>
<event>
 4    1  0.1805887E-005  0.1028016E+04  0.7818608E-02  0.9278340E-01
         -2   -1    0    0    0  501 -0.00000000000E+00  0.00000000000E+00  0.20862276193E+03  0.20862276195E+03  0.25500000000E-02 0. -1.
          2   -1    0    0  501    0  0.00000000000E+00 -0.00000000000E+00 -0.12664215062E+04  0.12664215062E+04  0.25500000000E-02 0.  1.
   -5000001    1    1    2    0    0  0.13113735020E+01  0.42984468537E+03 -0.34216993224E+03  0.60361281942E+03  0.25000000000E+03 0.  0.
    5000001    1    1    2    0    0 -0.13113735020E+01 -0.42984468537E+03 -0.71562881205E+03  0.87143144875E+03  0.25000000000E+03 0.  0.
<mgrwt>
<rscale>  0 0.10280162E+04</rscale>
<asrwt>0</asrwt>
<pdfrwt beam="1">  1        2 0.19483407E+00 0.10280162E+04</pdfrwt>
<pdfrwt beam="2">  1       -2 0.32095810E-01 0.10280162E+04</pdfrwt>
<totfact> 0.15556700E+02</totfact>
</mgrwt>
</event>
<event>
 4    1  0.1805887E-005  0.9576789E+03  0.7818608E-02  0.9356220E-01
          2   -1    0    0  501    0  0.00000000000E+00  0.00000000000E+00  0.27551911766E+04  0.27551911766E+04  0.25500000000E-02 0.  1.
         -2   -1    0    0    0  501 -0.00000000000E+00 -0.00000000000E+00 -0.83220074829E+02  0.83220074868E+02  0.25500000000E-02 0. -1.
   -5000001    1    1    2    0    0 -0.84503890070E+02  0.30222235576E+03  0.21106097303E+04  0.21484070130E+04  0.25000000000E+03 0.  0.
    5000001    1    1    2    0    0  0.84503890070E+02 -0.30222235576E+03  0.56136137145E+03  0.69000423847E+03  0.25000000000E+03 0.  0.
<mgrwt>
<rscale>  0 0.95767889E+03</rscale>
<asrwt>0</asrwt>
<pdfrwt beam="1">  1        2 0.42387553E+00 0.95767889E+03</pdfrwt>
<pdfrwt beam="2">  1       -2 0.12803090E-01 0.95767889E+03</pdfrwt>
<totfact> 0.11514087E+02</totfact>
</mgrwt>
</event>
<event>
 4    1  0.1805887E-005  0.2640784E+04  0.7818608E-02  0.8354478E-01
         -2   -1    0    0    0  501 -0.00000000000E+00  0.00000000000E+00  0.10113389644E+04  0.10113389644E+04  0.25500000000E-02 0. -1.
          2   -1    0    0  501    0  0.00000000000E+00 -0.00000000000E+00 -0.17238883600E+04  0.17238883600E+04  0.25500000000E-02 0.  1.
   -5000001    1    1    2    0    0  0.15412372093E+03  0.11554046223E+04 -0.94422112247E+03  0.15207785804E+04  0.25000000000E+03 0.  0.
    5000001    1    1    2    0    0 -0.15412372093E+03 -0.11554046223E+04  0.23167172689E+03  0.12144487439E+04  0.25000000000E+03 0.  0.
<mgrwt>
<rscale>  0 0.26407843E+04</rscale>
<asrwt>0</asrwt>
<pdfrwt beam="1">  1        2 0.26521359E+00 0.26407843E+04</pdfrwt>
<pdfrwt beam="2">  1       -2 0.15559061E+00 0.26407843E+04</pdfrwt>
<totfact> 0.22787894E+00</totfact>
</mgrwt>
</event>
<event>
 4    1  0.1805887E-005  0.9559502E+03  0.7818608E-02  0.9358223E-01
          2   -1    0    0  501    0  0.00000000000E+00  0.00000000000E+00  0.23811222716E+03  0.23811222718E+03  0.25500000000E-02 0.  1.
         -2   -1    0    0    0  501 -0.00000000000E+00 -0.00000000000E+00 -0.95946441384E+03  0.95946441385E+03  0.25500000000E-02 0. -1.
   -5000001    1    1    2    0    0 -0.82845653076E+02  0.38552703562E+03 -0.23251612062E+03  0.52159202810E+03  0.25000000000E+03 0.  0.
    5000001    1    1    2    0    0  0.82845653076E+02 -0.38552703562E+03 -0.48883606606E+03  0.67598461292E+03  0.25000000000E+03 0.  0.
<mgrwt>
<rscale>  0 0.95595023E+03</rscale>
<asrwt>0</asrwt>
<pdfrwt beam="1">  1        2 0.36632651E-01 0.95595023E+03</pdfrwt>
<pdfrwt beam="2">  1       -2 0.14760991E+00 0.95595023E+03</pdfrwt>
<totfact> 0.44431407E+01</totfact>
</mgrwt>
</event>
<event>
 4    1  0.1805887E-005  0.7875919E+03  0.7818608E-02  0.9578153E-01
          2   -1    0    0  501    0  0.00000000000E+00  0.00000000000E+00  0.18181187568E+04  0.18181187568E+04  0.25500000000E-02 0.  1.
         -2   -1    0    0    0  501 -0.00000000000E+00 -0.00000000000E+00 -0.85294352742E+02  0.85294352780E+02  0.25500000000E-02 0. -1.
   -5000001    1    1    2    0    0  0.14803048966E+03 -0.22693160086E+03  0.53184904678E+03  0.64712779719E+03  0.25000000000E+03 0.  0.
    5000001    1    1    2    0    0 -0.14803048966E+03  0.22693160086E+03  0.12009753573E+04  0.12562853124E+04  0.25000000000E+03 0.  0.
<mgrwt>
<rscale>  0 0.78759193E+03</rscale>
<asrwt>0</asrwt>
<pdfrwt beam="1">  1        2 0.27971056E+00 0.78759193E+03</pdfrwt>
<pdfrwt beam="2">  1       -2 0.13122209E-01 0.78759193E+03</pdfrwt>
<totfact> 0.37598677E+02</totfact>
</mgrwt>
</event>
<event>
 4    1  0.1805887E-005  0.6366446E+03  0.7818608E-02  0.9832167E-01
         -2   -1    0    0    0  501 -0.00000000000E+00  0.00000000000E+00  0.18452957001E+03  0.18452957002E+03  0.25500000000E-02 0. -1.
          2   -1    0    0  501    0  0.00000000000E+00 -0.00000000000E+00 -0.54912118428E+03  0.54912118428E+03  0.25500000000E-02 0.  1.
   -5000001    1    1    2    0    0  0.32623105466E+02  0.19305349219E+03 -0.20793905516E+03  0.37956892459E+03  0.25000000000E+03 0.  0.
    5000001    1    1    2    0    0 -0.32623105466E+02 -0.19305349219E+03 -0.15665255911E+03  0.35408182971E+03  0.25000000000E+03 0.  0.
<mgrwt>
<rscale>  0 0.63664463E+03</rscale>
<asrwt>0</asrwt>
<pdfrwt beam="1">  1        2 0.84480182E-01 0.63664463E+03</pdfrwt>
<pdfrwt beam="2">  1       -2 0.28389165E-01 0.63664463E+03</pdfrwt>
<totfact> 0.63017729E+02</totfact>
</mgrwt>
</event>
<event>
 4    1  0.1805887E-005  0.6337793E+03  0.7818608E-02  0.9837701E-01
         -2   -1    0    0    0  501 -0.00000000000E+00  0.00000000000E+00  0.80856135716E+02  0.80856135756E+02  0.25500000000E-02 0. -1.
          2   -1    0    0  501    0  0.00000000000E+00 -0.00000000000E+00 -0.12419473028E+04  0.12419473028E+04  0.25500000000E-02 0.  1.
   -5000001    1    1    2    0    0  0.33128706091E+02  0.18667492591E+03 -0.67327832107E+03  0.74279791111E+03  0.25000000000E+03 0.  0.
    5000001    1    1    2    0    0 -0.33128706091E+02 -0.18667492591E+03 -0.48781284602E+03  0.58000552745E+03  0.25000000000E+03 0.  0.
<mgrwt>
<rscale>  0 0.63377933E+03</rscale>
<asrwt>0</asrwt>
<pdfrwt beam="1">  1        2 0.19106880E+00 0.63377933E+03</pdfrwt>
<pdfrwt beam="2">  1       -2 0.12439406E-01 0.63377933E+03</pdfrwt>
<totfact> 0.86775500E+02</totfact>
</mgrwt>
</event>
<event>
 4    1  0.1805887E-005  0.9693535E+03  0.7818608E-02  0.9342811E-01
          2   -1    0    0  501    0  0.00000000000E+00  0.00000000000E+00  0.21845309115E+04  0.21845309115E+04  0.25500000000E-02 0.  1.
         -2   -1    0    0    0  501 -0.00000000000E+00 -0.00000000000E+00 -0.10753408469E+03  0.10753408472E+03  0.25500000000E-02 0. -1.
   -5000001    1    1    2    0    0 -0.27074311974E+03  0.23552670621E+03  0.15324353907E+04  0.15936225692E+04  0.25000000000E+03 0.  0.
    5000001    1    1    2    0    0  0.27074311974E+03 -0.23552670621E+03  0.54456143609E+03  0.69844242704E+03  0.25000000000E+03 0.  0.
<mgrwt>
<rscale>  0 0.96935346E+03</rscale>
<asrwt>0</asrwt>
<pdfrwt beam="1">  1        2 0.33608166E+00 0.96935346E+03</pdfrwt>
<pdfrwt beam="2">  1       -2 0.16543706E-01 0.96935346E+03</pdfrwt>
<totfact> 0.15769953E+02</totfact>
</mgrwt>
</event>
<event>
 4    1  0.1805887E-005  0.8022484E+03  0.7818608E-02  0.9556768E-01
          2   -1    0    0  501    0  0.00000000000E+00  0.00000000000E+00  0.12324411444E+04  0.12324411444E+04  0.25500000000E-02 0.  1.
         -2   -1    0    0    0  501 -0.00000000000E+00 -0.00000000000E+00 -0.13055441895E+03  0.13055441898E+03  0.25500000000E-02 0. -1.
   -5000001    1    1    2    0    0 -0.22644480659E+03  0.12679206914E+03  0.85030523893E+03  0.92351095207E+03  0.25000000000E+03 0.  0.
    5000001    1    1    2    0    0  0.22644480659E+03 -0.12679206914E+03  0.25158148652E+03  0.43948461132E+03  0.25000000000E+03 0.  0.
<mgrwt>
<rscale>  0 0.80224843E+03</rscale>
<asrwt>0</asrwt>
<pdfrwt beam="1">  1        2 0.18960632E+00 0.80224843E+03</pdfrwt>
<pdfrwt beam="2">  1       -2 0.20085296E-01 0.80224843E+03</pdfrwt>
<totfact> 0.38609550E+02</totfact>
</mgrwt>
</event>
<event>
 4    1  0.1805887E-005  0.7544649E+03  0.7818608E-02  0.9628372E-01
          2   -1    0    0  501    0  0.00000000000E+00  0.00000000000E+00  0.30864491761E+03  0.30864491762E+03  0.25500000000E-02 0.  1.
         -2   -1    0    0    0  501 -0.00000000000E+00 -0.00000000000E+00 -0.46106159661E+03  0.46106159662E+03  0.25500000000E-02 0. -1.
   -5000001    1    1    2    0    0  0.26960381201E+03 -0.68002651116E+02 -0.12715455516E+03  0.39494158671E+03  0.25000000000E+03 0.  0.
    5000001    1    1    2    0    0 -0.26960381201E+03  0.68002651116E+02 -0.25262123840E+02  0.37476492754E+03  0.25000000000E+03 0.  0.
<mgrwt>
<rscale>  0 0.75446489E+03</rscale>
<asrwt>0</asrwt>
<pdfrwt beam="1">  1        2 0.47483833E-01 0.75446489E+03</pdfrwt>
<pdfrwt beam="2">  1       -2 0.70932554E-01 0.75446489E+03</pdfrwt>
<totfact> 0.19378763E+02</totfact>
</mgrwt>
</event>
<event>
 4    1  0.1805887E-005  0.6986324E+03  0.7818608E-02  0.9719574E-01
         -2   -1    0    0    0  501 -0.00000000000E+00  0.00000000000E+00  0.63238604985E+02  0.63238605036E+02  0.25500000000E-02 0. -1.
          2   -1    0    0  501    0  0.00000000000E+00 -0.00000000000E+00 -0.19295459317E+04  0.19295459317E+04  0.25500000000E-02 0.  1.
   -5000001    1    1    2    0    0  0.22032062551E+03 -0.67599864697E+02 -0.70476726039E+03  0.78250099748E+03  0.25000000000E+03 0.  0.
    5000001    1    1    2    0    0 -0.22032062551E+03  0.67599864697E+02 -0.11615400663E+04  0.12102835393E+04  0.25000000000E+03 0.  0.
<mgrwt>
<rscale>  0 0.69863236E+03</rscale>
<asrwt>0</asrwt>
<pdfrwt beam="1">  1        2 0.29685318E+00 0.69863236E+03</pdfrwt>
<pdfrwt beam="2">  1       -2 0.97290176E-02 0.69863236E+03</pdfrwt>
<totfact> 0.53811914E+02</totfact>
</mgrwt>
</event>
<event>
 4    1  0.1805887E-005  0.6126496E+03  0.7818608E-02  0.9879504E-01
         -2   -1    0    0    0  501 -0.00000000000E+00  0.00000000000E+00  0.84365122116E+03  0.84365122117E+03  0.25500000000E-02 0. -1.
          2   -1    0    0  501    0  0.00000000000E+00 -0.00000000000E+00 -0.11122473618E+03  0.11122473621E+03  0.25500000000E-02 0.  1.
   -5000001    1    1    2    0    0 -0.16579686502E+03 -0.37941498131E+02  0.28975079475E+03  0.41878834844E+03  0.25000000000E+03 0.  0.
    5000001    1    1    2    0    0  0.16579686502E+03  0.37941498131E+02  0.44267569023E+03  0.53608760894E+03  0.25000000000E+03 0.  0.
<mgrwt>
<rscale>  0 0.61264960E+03</rscale>
<asrwt>0</asrwt>
<pdfrwt beam="1">  1        2 0.17111498E-01 0.61264960E+03</pdfrwt>
<pdfrwt beam="2">  1       -2 0.12979249E+00 0.61264960E+03</pdfrwt>
<totfact> 0.15124797E+02</totfact>
</mgrwt>
</event>
<event>
 4    1  0.1805887E-005  0.9715930E+03  0.7818608E-02  0.9340262E-01
          2   -1    0    0  501    0  0.00000000000E+00  0.00000000000E+00  0.32029348827E+03  0.32029348828E+03  0.25500000000E-02 0.  1.
         -2   -1    0    0    0  501 -0.00000000000E+00 -0.00000000000E+00 -0.73681865184E+03  0.73681865184E+03  0.25500000000E-02 0. -1.
   -5000001    1    1    2    0    0  0.40709066266E+03 -0.53310564204E+02 -0.13184214204E+03  0.49844475552E+03  0.25000000000E+03 0.  0.
    5000001    1    1    2    0    0 -0.40709066266E+03  0.53310564204E+02 -0.28468302152E+03  0.55866738461E+03  0.25000000000E+03 0.  0.
<mgrwt>
<rscale>  0 0.97159295E+03</rscale>
<asrwt>0</asrwt>
<pdfrwt beam="1">  1        2 0.49275921E-01 0.97159295E+03</pdfrwt>
<pdfrwt beam="2">  1       -2 0.11335672E+00 0.97159295E+03</pdfrwt>
<totfact> 0.62303798E+01</totfact>
</mgrwt>
</event>
<event>
 4    1  0.1805887E-005  0.9049538E+03  0.7818608E-02  0.9419410E-01
         -2   -1    0    0    0  501 -0.00000000000E+00  0.00000000000E+00  0.10686134049E+04  0.10686134049E+04  0.25500000000E-02 0. -1.
          2   -1    0    0  501    0  0.00000000000E+00 -0.00000000000E+00 -0.19158972671E+03  0.19158972673E+03  0.25500000000E-02 0.  1.
   -5000001    1    1    2    0    0  0.35075282518E+03  0.11287857999E+03  0.32653201441E+03  0.55217051228E+03  0.25000000000E+03 0.  0.
    5000001    1    1    2    0    0 -0.35075282518E+03 -0.11287857999E+03  0.55049166382E+03  0.70803261939E+03  0.25000000000E+03 0.  0.
<mgrwt>
<rscale>  0 0.90495381E+03</rscale>
<asrwt>0</asrwt>
<pdfrwt beam="1">  1        2 0.29475343E-01 0.90495381E+03</pdfrwt>
<pdfrwt beam="2">  1       -2 0.16440206E+00 0.90495381E+03</pdfrwt>
<totfact> 0.42608020E+01</totfact>
</mgrwt>
</event>
<event>
 4    1  0.1805887E-005  0.1330805E+04  0.7818608E-02  0.9005487E-01
         -2   -1    0    0    0  501 -0.00000000000E+00  0.00000000000E+00  0.54666741042E+03  0.54666741043E+03  0.25500000000E-02 0. -1.
          2   -1    0    0  501    0  0.00000000000E+00 -0.00000000000E+00 -0.80992674709E+03  0.80992674710E+03  0.25500000000E-02 0.  1.
   -5000001    1    1    2    0    0  0.32257018999E+03  0.14871018977E+03  0.38221629999E+03  0.57858063223E+03  0.25000000000E+03 0.  0.
    5000001    1    1    2    0    0 -0.32257018999E+03 -0.14871018977E+03 -0.64547563666E+03  0.77801352529E+03  0.25000000000E+03 0.  0.
<mgrwt>
<rscale>  0 0.13308051E+04</rscale>
<asrwt>0</asrwt>
<pdfrwt beam="1">  1        2 0.12460411E+00 0.13308051E+04</pdfrwt>
<pdfrwt beam="2">  1       -2 0.84102679E-01 0.13308051E+04</pdfrwt>
<totfact> 0.40923797E+01</totfact>
</mgrwt>
</event>
<event>
 4    1  0.1805887E-005  0.5086388E+03  0.7818608E-02  0.1011548E+00
         -2   -1    0    0    0  501 -0.00000000000E+00  0.00000000000E+00  0.16877110802E+03  0.16877110804E+03  0.25500000000E-02 0. -1.
          2   -1    0    0  501    0  0.00000000000E+00 -0.00000000000E+00 -0.38323119667E+03  0.38323119668E+03  0.25500000000E-02 0.  1.
   -5000001    1    1    2    0    0 -0.36977870060E+02 -0.27312399432E+02 -0.98478854035E+02  0.27260120089E+03  0.25000000000E+03 0.  0.
    5000001    1    1    2    0    0  0.36977870060E+02  0.27312399432E+02 -0.11598123462E+03  0.27940110383E+03  0.25000000000E+03 0.  0.
<mgrwt>
<rscale>  0 0.50863879E+03</rscale>
<asrwt>0</asrwt>
<pdfrwt beam="1">  1        2 0.58958645E-01 0.50863879E+03</pdfrwt>
<pdfrwt beam="2">  1       -2 0.25964786E-01 0.50863879E+03</pdfrwt>
<totfact> 0.11176234E+03</totfact>
</mgrwt>
</event>
<event>
 4    1  0.1805887E-005  0.7690911E+03  0.7818608E-02  0.9605867E-01
         -2   -1    0    0    0  501 -0.00000000000E+00  0.00000000000E+00  0.10198881218E+03  0.10198881221E+03  0.25500000000E-02 0. -1.
          2   -1    0    0  501    0  0.00000000000E+00 -0.00000000000E+00 -0.14499165520E+04  0.14499165520E+04  0.25500000000E-02 0.  1.
   -5000001    1    1    2    0    0 -0.25577434110E+03  0.69611856475E+02 -0.92199403728E+03  0.99138253410E+03  0.25000000000E+03 0.  0.
    5000001    1    1    2    0    0  0.25577434110E+03 -0.69611856475E+02 -0.42593370258E+03  0.56052283015E+03  0.25000000000E+03 0.  0.
<mgrwt>
<rscale>  0 0.76909107E+03</rscale>
<asrwt>0</asrwt>
<pdfrwt beam="1">  1        2 0.22306407E+00 0.76909107E+03</pdfrwt>
<pdfrwt beam="2">  1       -2 0.15690588E-01 0.76909107E+03</pdfrwt>
<totfact> 0.44450009E+02</totfact>
</mgrwt>
</event>
<event>
 4    1  0.1805887E-005  0.9655930E+03  0.7818608E-02  0.9347108E-01
          2   -1    0    0  501    0  0.00000000000E+00  0.00000000000E+00  0.35530471040E+03  0.35530471041E+03  0.25500000000E-02 0.  1.
         -2   -1    0    0    0  501 -0.00000000000E+00 -0.00000000000E+00 -0.65603534693E+03  0.65603534693E+03  0.25500000000E-02 0. -1.
   -5000001    1    1    2    0    0 -0.47772663293E+02  0.39585196914E+03 -0.37503730750E+02  0.47210966803E+03  0.25000000000E+03 0.  0.
    5000001    1    1    2    0    0  0.47772663293E+02 -0.39585196914E+03 -0.26322690578E+03  0.53923038931E+03  0.25000000000E+03 0.  0.
<mgrwt>
<rscale>  0 0.96559298E+03</rscale>
<asrwt>0</asrwt>
<pdfrwt beam="1">  1        2 0.54662263E-01 0.96559298E+03</pdfrwt>
<pdfrwt beam="2">  1       -2 0.10092851E+00 0.96559298E+03</pdfrwt>
<totfact> 0.73447121E+01</totfact>
</mgrwt>
</event>
<event>
 4    1  0.1805887E-005  0.7596356E+03  0.7818608E-02  0.9620354E-01
          2   -1    0    0  501    0  0.00000000000E+00  0.00000000000E+00  0.51038151772E+03  0.51038151772E+03  0.25500000000E-02 0.  1.
         -2   -1    0    0    0  501 -0.00000000000E+00 -0.00000000000E+00 -0.28265435879E+03  0.28265435880E+03  0.25500000000E-02 0. -1.
   -5000001    1    1    2    0    0 -0.12438583570E+03  0.24789779167E+03  0.18646565803E+03  0.41736625745E+03  0.25000000000E+03 0.  0.
    5000001    1    1    2    0    0  0.12438583570E+03 -0.24789779167E+03  0.41261500895E+02  0.37566961907E+03  0.25000000000E+03 0.  0.
<mgrwt>
<rscale>  0 0.75963560E+03</rscale>
<asrwt>0</asrwt>
<pdfrwt beam="1">  1        2 0.78520232E-01 0.75963560E+03</pdfrwt>
<pdfrwt beam="2">  1       -2 0.43485287E-01 0.75963560E+03</pdfrwt>
<totfact> 0.30372816E+02</totfact>
</mgrwt>
</event>
<event>
 4    1  0.1805887E-005  0.5449826E+03  0.7818608E-02  0.1002662E+00
          2   -1    0    0  501    0  0.00000000000E+00  0.00000000000E+00  0.11407275223E+04  0.11407275223E+04  0.25500000000E-02 0.  1.
         -2   -1    0    0    0  501 -0.00000000000E+00 -0.00000000000E+00 -0.65091357345E+02  0.65091357395E+02  0.25500000000E-02 0. -1.
   -5000001    1    1    2    0    0 -0.73734786994E+02  0.71302004810E+02  0.46019748307E+03  0.53366892183E+03  0.25000000000E+03 0.  0.
    5000001    1    1    2    0    0  0.73734786994E+02 -0.71302004810E+02  0.61543868189E+03  0.67214995787E+03  0.25000000000E+03 0.  0.
<mgrwt>
<rscale>  0 0.54498258E+03</rscale>
<asrwt>0</asrwt>
<pdfrwt beam="1">  1        2 0.17549654E+00 0.54498258E+03</pdfrwt>
<pdfrwt beam="2">  1       -2 0.10014055E-01 0.54498258E+03</pdfrwt>
<totfact> 0.14233508E+03</totfact>
</mgrwt>
</event>
<event>
 4    1  0.1805887E-005  0.6720560E+03  0.7818608E-02  0.9766251E-01
         -2   -1    0    0    0  501 -0.00000000000E+00  0.00000000000E+00  0.11737738839E+03  0.11737738842E+03  0.25500000000E-02 0. -1.
          2   -1    0    0  501    0  0.00000000000E+00 -0.00000000000E+00 -0.96198090603E+03  0.96198090604E+03  0.25500000000E-02 0.  1.
   -5000001    1    1    2    0    0  0.60542439827E+02 -0.15437116067E+03 -0.66544247038E+03  0.72993802727E+03  0.25000000000E+03 0.  0.
    5000001    1    1    2    0    0 -0.60542439827E+02  0.15437116067E+03 -0.17916104727E+03  0.34942026719E+03  0.25000000000E+03 0.  0.
<mgrwt>
<rscale>  0 0.67205597E+03</rscale>
<asrwt>0</asrwt>
<pdfrwt beam="1">  1        2 0.14799706E+00 0.67205597E+03</pdfrwt>
<pdfrwt beam="2">  1       -2 0.18058060E-01 0.67205597E+03</pdfrwt>
<totfact> 0.68466908E+02</totfact>
</mgrwt>
</event>
<event>
 4    1  0.1805887E-005  0.7512401E+03  0.7818608E-02  0.9633407E-01
         -2   -1    0    0    0  501 -0.00000000000E+00  0.00000000000E+00  0.12804226331E+04  0.12804226331E+04  0.25500000000E-02 0. -1.
          2   -1    0    0  501    0  0.00000000000E+00 -0.00000000000E+00 -0.11019049973E+03  0.11019049976E+03  0.25500000000E-02 0.  1.
   -5000001    1    1    2    0    0 -0.17389186366E+03 -0.80452960703E+02  0.96393140308E+03  0.10140881663E+04  0.25000000000E+03 0.  0.
    5000001    1    1    2    0    0  0.17389186366E+03  0.80452960703E+02  0.20630073026E+03  0.37652496655E+03  0.25000000000E+03 0.  0.
<mgrwt>
<rscale>  0 0.75124007E+03</rscale>
<asrwt>0</asrwt>
<pdfrwt beam="1">  1        2 0.16952386E-01 0.75124007E+03</pdfrwt>
<pdfrwt beam="2">  1       -2 0.19698808E+00 0.75124007E+03</pdfrwt>
<totfact> 0.48953449E+01</totfact>
</mgrwt>
</event>
<event>
 4    1  0.1805887E-005  0.7512525E+03  0.7818608E-02  0.9633387E-01
         -2   -1    0    0    0  501 -0.00000000000E+00  0.00000000000E+00  0.14976989955E+03  0.14976989957E+03  0.25500000000E-02 0. -1.
          2   -1    0    0  501    0  0.00000000000E+00 -0.00000000000E+00 -0.94207893838E+03  0.94207893838E+03  0.25500000000E-02 0.  1.
   -5000001    1    1    2    0    0 -0.27467306247E+03 -0.53762961861E+02 -0.37275024548E+03  0.52894091619E+03  0.25000000000E+03 0.  0.
    5000001    1    1    2    0    0  0.27467306247E+03  0.53762961861E+02 -0.41955879335E+03  0.56290792177E+03  0.25000000000E+03 0.  0.
<mgrwt>
<rscale>  0 0.75125247E+03</rscale>
<asrwt>0</asrwt>
<pdfrwt beam="1">  1        2 0.14493522E+00 0.75125247E+03</pdfrwt>
<pdfrwt beam="2">  1       -2 0.23041524E-01 0.75125247E+03</pdfrwt>
<totfact> 0.45881250E+02</totfact>
</mgrwt>
</event>
<event>
 4    1  0.1805887E-005  0.1060817E+04  0.7818608E-02  0.9244246E-01
         -2   -1    0    0    0  501 -0.00000000000E+00  0.00000000000E+00  0.10633618403E+04  0.10633618403E+04  0.25500000000E-02 0. -1.
          2   -1    0    0  501    0  0.00000000000E+00 -0.00000000000E+00 -0.26456978146E+03  0.26456978148E+03  0.25500000000E-02 0.  1.
   -5000001    1    1    2    0    0 -0.43499302192E+03  0.12871198563E+03  0.25640719277E+03  0.57795359058E+03  0.25000000000E+03 0.  0.
    5000001    1    1    2    0    0  0.43499302192E+03 -0.12871198563E+03  0.54238486610E+03  0.74997803123E+03  0.25000000000E+03 0.  0.
<mgrwt>
<rscale>  0 0.10608174E+04</rscale>
<asrwt>0</asrwt>
<pdfrwt beam="1">  1        2 0.40703044E-01 0.10608174E+04</pdfrwt>
<pdfrwt beam="2">  1       -2 0.16359413E+00 0.10608174E+04</pdfrwt>
<totfact> 0.29767038E+01</totfact>
</mgrwt>
</event>
<event>
 4    1  0.1805887E-005  0.8773547E+03  0.7818608E-02  0.9454340E-01
         -2   -1    0    0    0  501 -0.00000000000E+00  0.00000000000E+00  0.85041392568E+02  0.85041392606E+02  0.25500000000E-02 0. -1.
          2   -1    0    0  501    0  0.00000000000E+00 -0.00000000000E+00 -0.22628721815E+04  0.22628721815E+04  0.25500000000E-02 0.  1.
   -5000001    1    1    2    0    0  0.32849146334E+03 -0.14420066293E+03 -0.11830500405E+04  0.12612723223E+04  0.25000000000E+03 0.  0.
    5000001    1    1    2    0    0 -0.32849146334E+03  0.14420066293E+03 -0.99478074841E+03  0.10866412518E+04  0.25000000000E+03 0.  0.
<mgrwt>
<rscale>  0 0.87735466E+03</rscale>
<asrwt>0</asrwt>
<pdfrwt beam="1">  1        2 0.34813414E+00 0.87735466E+03</pdfrwt>
<pdfrwt beam="2">  1       -2 0.13083293E-01 0.87735466E+03</pdfrwt>
<totfact> 0.21385070E+02</totfact>
</mgrwt>
</event>
<event>
 4    1  0.1805887E-005  0.8884575E+03  0.7818608E-02  0.9440126E-01
         -2   -1    0    0    0  501 -0.00000000000E+00  0.00000000000E+00  0.34521873406E+03  0.34521873407E+03  0.25500000000E-02 0. -1.
          2   -1    0    0  501    0  0.00000000000E+00 -0.00000000000E+00 -0.57163520170E+03  0.57163520171E+03  0.25500000000E-02 0.  1.
   -5000001    1    1    2    0    0  0.35656863484E+03 -0.84680900009E+02 -0.13690146121E+03  0.46427799459E+03  0.25000000000E+03 0.  0.
    5000001    1    1    2    0    0 -0.35656863484E+03  0.84680900009E+02 -0.89515006425E+02  0.45257594120E+03  0.25000000000E+03 0.  0.
<mgrwt>
<rscale>  0 0.88845750E+03</rscale>
<asrwt>0</asrwt>
<pdfrwt beam="1">  1        2 0.87943877E-01 0.88845750E+03</pdfrwt>
<pdfrwt beam="2">  1       -2 0.53110574E-01 0.88845750E+03</pdfrwt>
<totfact> 0.17646355E+02</totfact>
</mgrwt>
</event>
<event>
 4    1  0.1805887E-005  0.8203106E+03  0.7818608E-02  0.9531075E-01
         -2   -1    0    0    0  501 -0.00000000000E+00  0.00000000000E+00  0.84012687132E+02  0.84012687171E+02  0.25500000000E-02 0. -1.
          2   -1    0    0  501    0  0.00000000000E+00 -0.00000000000E+00 -0.20024041142E+04  0.20024041142E+04  0.25500000000E-02 0.  1.
   -5000001    1    1    2    0    0  0.22181797247E+03 -0.18846869091E+03 -0.59058277635E+03  0.70428096388E+03  0.25000000000E+03 0.  0.
    5000001    1    1    2    0    0 -0.22181797247E+03  0.18846869091E+03 -0.13278086507E+04  0.13821358375E+04  0.25000000000E+03 0.  0.
<mgrwt>
<rscale>  0 0.82031055E+03</rscale>
<asrwt>0</asrwt>
<pdfrwt beam="1">  1        2 0.30806213E+00 0.82031055E+03</pdfrwt>
<pdfrwt beam="2">  1       -2 0.12925030E-01 0.82031055E+03</pdfrwt>
<totfact> 0.30511959E+02</totfact>
</mgrwt>
</event>
<event>
 4    1  0.1805887E-005  0.6847257E+03  0.7818608E-02  0.9743716E-01
          2   -1    0    0  501    0  0.00000000000E+00  0.00000000000E+00  0.78824262567E+03  0.78824262567E+03  0.25500000000E-02 0.  1.
         -2   -1    0    0    0  501 -0.00000000000E+00 -0.00000000000E+00 -0.14870083284E+03  0.14870083286E+03  0.25500000000E-02 0. -1.
   -5000001    1    1    2    0    0 -0.90815360672E+02 -0.17621134909E+03  0.14988357609E+03  0.35250951145E+03  0.25000000000E+03 0.  0.
    5000001    1    1    2    0    0  0.90815360672E+02  0.17621134909E+03  0.48965821674E+03  0.58443394708E+03  0.25000000000E+03 0.  0.
<mgrwt>
<rscale>  0 0.68472574E+03</rscale>
<asrwt>0</asrwt>
<pdfrwt beam="1">  1        2 0.12126810E+00 0.68472574E+03</pdfrwt>
<pdfrwt beam="2">  1       -2 0.22877051E-01 0.68472574E+03</pdfrwt>
<totfact> 0.59428877E+02</totfact>
</mgrwt>
</event>
<event>
 4    1  0.1805887E-005  0.7580077E+03  0.7818608E-02  0.9622871E-01
          2   -1    0    0  501    0  0.00000000000E+00  0.00000000000E+00  0.17898688424E+03  0.17898688426E+03  0.25500000000E-02 0.  1.
         -2   -1    0    0    0  501 -0.00000000000E+00 -0.00000000000E+00 -0.80253884051E+03  0.80253884052E+03  0.25500000000E-02 0. -1.
   -5000001    1    1    2    0    0 -0.43524799996E+02  0.26533458612E+03 -0.18998140724E+03  0.41338817823E+03  0.25000000000E+03 0.  0.
    5000001    1    1    2    0    0  0.43524799996E+02 -0.26533458612E+03 -0.43357054903E+03  0.56813754655E+03  0.25000000000E+03 0.  0.
<mgrwt>
<rscale>  0 0.75800772E+03</rscale>
<asrwt>0</asrwt>
<pdfrwt beam="1">  1        2 0.27536444E-01 0.75800772E+03</pdfrwt>
<pdfrwt beam="2">  1       -2 0.12346751E+00 0.75800772E+03</pdfrwt>
<totfact> 0.97895926E+01</totfact>
</mgrwt>
</event>
<event>
 4    1  0.1805887E-005  0.5787923E+03  0.7818608E-02  0.9950409E-01
         -2   -1    0    0    0  501 -0.00000000000E+00  0.00000000000E+00  0.46103349973E+02  0.46103350043E+02  0.25500000000E-02 0. -1.
          2   -1    0    0  501    0  0.00000000000E+00 -0.00000000000E+00 -0.18165738499E+04  0.18165738499E+04  0.25500000000E-02 0.  1.
   -5000001    1    1    2    0    0  0.13033841587E+03  0.62950442669E+02 -0.94090933027E+03  0.98425668841E+03  0.25000000000E+03 0.  0.
    5000001    1    1    2    0    0 -0.13033841587E+03 -0.62950442669E+02 -0.82956116964E+03  0.87842051152E+03  0.25000000000E+03 0.  0.
<mgrwt>
<rscale>  0 0.57879233E+03</rscale>
<asrwt>0</asrwt>
<pdfrwt beam="1">  1        2 0.27947284E+00 0.57879233E+03</pdfrwt>
<pdfrwt beam="2">  1       -2 0.70928245E-02 0.57879233E+03</pdfrwt>
<totfact> 0.10355171E+03</totfact>
</mgrwt>
</event>
<event>
 4    1  0.1805887E-005  0.1484091E+04  0.7818608E-02  0.8895101E-01
         -2   -1    0    0    0  501 -0.00000000000E+00  0.00000000000E+00  0.18493473010E+03  0.18493473012E+03  0.25500000000E-02 0. -1.
          2   -1    0    0  501    0  0.00000000000E+00 -0.00000000000E+00 -0.29774384565E+04  0.29774384565E+04  0.25500000000E-02 0.  1.
   -5000001    1    1    2    0    0  0.43266083969E+03  0.54790324400E+03 -0.13383488205E+04  0.15300558592E+04  0.25000000000E+03 0.  0.
    5000001    1    1    2    0    0 -0.43266083969E+03 -0.54790324400E+03 -0.14541549059E+04  0.16323173274E+04  0.25000000000E+03 0.  0.
<mgrwt>
<rscale>  0 0.14840913E+04</rscale>
<asrwt>0</asrwt>
<pdfrwt beam="1">  1        2 0.45806742E+00 0.14840913E+04</pdfrwt>
<pdfrwt beam="2">  1       -2 0.28451499E-01 0.14840913E+04</pdfrwt>
<totfact> 0.19836466E+01</totfact>
</mgrwt>
</event>
<event>
 4    1  0.1805887E-005  0.6305481E+03  0.7818608E-02  0.9843980E-01
          2   -1    0    0  501    0  0.00000000000E+00  0.00000000000E+00  0.14564799200E+04  0.14564799200E+04  0.25500000000E-02 0. -1.
         -2   -1    0    0    0  501 -0.00000000000E+00 -0.00000000000E+00 -0.68245167699E+02  0.68245167747E+02  0.25500000000E-02 0.  1.
   -5000001    1    1    2    0    0  0.10463035740E+03 -0.11056074114E+03  0.41081273747E+03  0.50441876892E+03  0.25000000000E+03 0.  0.
    5000001    1    1    2    0    0 -0.10463035740E+03  0.11056074114E+03  0.97742201479E+03  0.10203063188E+04  0.25000000000E+03 0.  0.
<mgrwt>
<rscale>  0 0.63054807E+03</rscale>
<asrwt>0</asrwt>
<pdfrwt beam="1">  1        2 0.22407383E+00 0.63054807E+03</pdfrwt>
<pdfrwt beam="2">  1       -2 0.10499257E-01 0.63054807E+03</pdfrwt>
<totfact> 0.86603086E+02</totfact>
</mgrwt>
</event>
<event>
 4    1  0.1805887E-005  0.9071386E+03  0.7818608E-02  0.9416702E-01
          2   -1    0    0  501    0  0.00000000000E+00  0.00000000000E+00  0.13516611643E+04  0.13516611643E+04  0.25500000000E-02 0. -1.
         -2   -1    0    0    0  501 -0.00000000000E+00 -0.00000000000E+00 -0.15220167211E+03  0.15220167214E+03  0.25500000000E-02 0.  1.
   -5000001    1    1    2    0    0  0.34362279028E+03  0.10614283981E+03  0.40440233163E+03  0.59614106575E+03  0.25000000000E+03 0.  0.
    5000001    1    1    2    0    0 -0.34362279028E+03 -0.10614283981E+03  0.79505716058E+03  0.90772177071E+03  0.25000000000E+03 0.  0.
<mgrwt>
<rscale>  0 0.90713855E+03</rscale>
<asrwt>0</asrwt>
<pdfrwt beam="1">  1        2 0.20794787E+00 0.90713855E+03</pdfrwt>
<pdfrwt beam="2">  1       -2 0.23415642E-01 0.90713855E+03</pdfrwt>
<totfact> 0.24944845E+02</totfact>
</mgrwt>
</event>
<event>
 4    1  0.1805887E-005  0.5371391E+03  0.7818608E-02  0.1004515E+00
         -2   -1    0    0    0  501 -0.00000000000E+00  0.00000000000E+00  0.25794920084E+03  0.25794920086E+03  0.25500000000E-02 0. -1.
          2   -1    0    0  501    0  0.00000000000E+00 -0.00000000000E+00 -0.27962716072E+03  0.27962716073E+03  0.25500000000E-02 0.  1.
   -5000001    1    1    2    0    0  0.80173013342E+02  0.47771186612E+02  0.19513984841E+02  0.26756418659E+03  0.25000000000E+03 0.  0.
    5000001    1    1    2    0    0 -0.80173013342E+02 -0.47771186612E+02 -0.41191944713E+02  0.27001217500E+03  0.25000000000E+03 0.  0.
<mgrwt>
<rscale>  0 0.53713910E+03</rscale>
<asrwt>0</asrwt>
<pdfrwt beam="1">  1        2 0.43019563E-01 0.53713910E+03</pdfrwt>
<pdfrwt beam="2">  1       -2 0.39684492E-01 0.53713910E+03</pdfrwt>
<totfact> 0.71714421E+02</totfact>
</mgrwt>
</event>
<event>
 4    1  0.1805887E-005  0.8738072E+03  0.7818608E-02  0.9458929E-01
          2   -1    0    0  501    0  0.00000000000E+00  0.00000000000E+00  0.13119128792E+04  0.13119128792E+04  0.25500000000E-02 0.  1.
         -2   -1    0    0    0  501 -0.00000000000E+00 -0.00000000000E+00 -0.14550109883E+03  0.14550109885E+03  0.25500000000E-02 0. -1.
   -5000001    1    1    2    0    0  0.31352989503E+03  0.11963845784E+03  0.79265995367E+03  0.89633930954E+03  0.25000000000E+03 0.  0.
    5000001    1    1    2    0    0 -0.31352989503E+03 -0.11963845784E+03  0.37375182667E+03  0.56107466848E+03  0.25000000000E+03 0.  0.
<mgrwt>
<rscale>  0 0.87380722E+03</rscale>
<asrwt>0</asrwt>
<pdfrwt beam="1">  1        2 0.20183275E+00 0.87380722E+03</pdfrwt>
<pdfrwt beam="2">  1       -2 0.22384784E-01 0.87380722E+03</pdfrwt>
<totfact> 0.28549736E+02</totfact>
</mgrwt>
</event>
<event>
 4    1  0.1805887E-005  0.1550907E+04  0.7818608E-02  0.8851289E-01
          2   -1    0    0  501    0  0.00000000000E+00  0.00000000000E+00  0.25301557849E+04  0.25301557849E+04  0.25500000000E-02 0. -1.
         -2   -1    0    0    0  501 -0.00000000000E+00 -0.00000000000E+00 -0.23766450803E+03  0.23766450804E+03  0.25500000000E-02 0.  1.
   -5000001    1    1    2    0    0 -0.16854090700E+03 -0.70768184048E+03  0.13211828790E+04  0.15288047045E+04  0.25000000000E+03 0.  0.
    5000001    1    1    2    0    0  0.16854090700E+03  0.70768184048E+03  0.97130839786E+03  0.12390155885E+04  0.25000000000E+03 0.  0.
<mgrwt>
<rscale>  0 0.15509071E+04</rscale>
<asrwt>0</asrwt>
<pdfrwt beam="1">  1        2 0.38925474E+00 0.15509071E+04</pdfrwt>
<pdfrwt beam="2">  1       -2 0.36563770E-01 0.15509071E+04</pdfrwt>
<totfact> 0.22725506E+01</totfact>
</mgrwt>
</event>
<event>
 4    1  0.1805887E-005  0.7389888E+03  0.7818608E-02  0.9652785E-01
          2   -1    0    0  501    0  0.00000000000E+00  0.00000000000E+00  0.41567089064E+03  0.41567089065E+03  0.25500000000E-02 0.  1.
         -2   -1    0    0    0  501 -0.00000000000E+00 -0.00000000000E+00 -0.32844763290E+03  0.32844763291E+03  0.25500000000E-02 0. -1.
   -5000001    1    1    2    0    0  0.14113258089E+03  0.15830801996E+03  0.21522437740E+03  0.39217517413E+03  0.25000000000E+03 0.  0.
    5000001    1    1    2    0    0 -0.14113258089E+03 -0.15830801996E+03 -0.12800111967E+03  0.35194334943E+03  0.25000000000E+03 0.  0.
<mgrwt>
<rscale>  0 0.73898882E+03</rscale>
<asrwt>0</asrwt>
<pdfrwt beam="1">  1        2 0.63949368E-01 0.73898882E+03</pdfrwt>
<pdfrwt beam="2">  1       -2 0.50530405E-01 0.73898882E+03</pdfrwt>
<totfact> 0.28439618E+02</totfact>
</mgrwt>
</event>
<event>
 4    1  0.1805887E-005  0.6385677E+03  0.7818608E-02  0.9828471E-01
         -2   -1    0    0    0  501 -0.00000000000E+00  0.00000000000E+00  0.93062095826E+02  0.93062095861E+02  0.25500000000E-02 0. -1.
          2   -1    0    0  501    0  0.00000000000E+00 -0.00000000000E+00 -0.10954211428E+04  0.10954211428E+04  0.25500000000E-02 0.  1.
   -5000001    1    1    2    0    0 -0.23604984187E+02  0.15755840426E+03 -0.72187021923E+03  0.78037071924E+03  0.25000000000E+03 0.  0.
    5000001    1    1    2    0    0  0.23604984187E+02 -0.15755840426E+03 -0.28048882777E+03  0.40811251945E+03  0.25000000000E+03 0.  0.
<mgrwt>
<rscale>  0 0.63856773E+03</rscale>
<asrwt>0</asrwt>
<pdfrwt beam="1">  1        2 0.16852632E+00 0.63856773E+03</pdfrwt>
<pdfrwt beam="2">  1       -2 0.14317246E-01 0.63856773E+03</pdfrwt>
<totfact> 0.83885875E+02</totfact>
</mgrwt>
</event>
<event>
 4    1  0.1805887E-005  0.5816606E+03  0.7818608E-02  0.9944202E-01
          2   -1    0    0  501    0  0.00000000000E+00  0.00000000000E+00  0.41329021902E+03  0.41329021902E+03  0.25500000000E-02 0.  1.
         -2   -1    0    0    0  501 -0.00000000000E+00 -0.00000000000E+00 -0.20465589074E+03  0.20465589075E+03  0.25500000000E-02 0. -1.
   -5000001    1    1    2    0    0  0.11374000003E+03 -0.66814663182E+02  0.31628993017E+02  0.28443167901E+03  0.25000000000E+03 0.  0.
    5000001    1    1    2    0    0 -0.11374000003E+03  0.66814663182E+02  0.17700533526E+03  0.33351443077E+03  0.25000000000E+03 0.  0.
<mgrwt>
<rscale>  0 0.58166065E+03</rscale>
<asrwt>0</asrwt>
<pdfrwt beam="1">  1        2 0.63583110E-01 0.58166065E+03</pdfrwt>
<pdfrwt beam="2">  1       -2 0.31485522E-01 0.58166065E+03</pdfrwt>
<totfact> 0.72146077E+02</totfact>
</mgrwt>
</event>
<event>
 4    1  0.1805887E-005  0.8676866E+03  0.7818608E-02  0.9466901E-01
          2   -1    0    0  501    0  0.00000000000E+00  0.00000000000E+00  0.19442206950E+03  0.19442206952E+03  0.25500000000E-02 0.  1.
         -2   -1    0    0    0  501 -0.00000000000E+00 -0.00000000000E+00 -0.96810011698E+03  0.96810011698E+03  0.25500000000E-02 0. -1.
   -5000001    1    1    2    0    0 -0.12029453906E+03 -0.25987948266E+03 -0.66695521471E+03  0.76768312477E+03  0.25000000000E+03 0.  0.
    5000001    1    1    2    0    0  0.12029453906E+03  0.25987948266E+03 -0.10672283277E+03  0.39483906173E+03  0.25000000000E+03 0.  0.
<mgrwt>
<rscale>  0 0.86768664E+03</rscale>
<asrwt>0</asrwt>
<pdfrwt beam="1">  1        2 0.29911088E-01 0.86768664E+03</pdfrwt>
<pdfrwt beam="2">  1       -2 0.14893848E+00 0.86768664E+03</pdfrwt>
<totfact> 0.54783957E+01</totfact>
</mgrwt>
</event>
<event>
 4    1  0.1805887E-005  0.9654615E+03  0.7818608E-02  0.9347259E-01
         -2   -1    0    0    0  501 -0.00000000000E+00  0.00000000000E+00  0.10077982536E+03  0.10077982539E+03  0.25500000000E-02 0. -1.
          2   -1    0    0  501    0  0.00000000000E+00 -0.00000000000E+00 -0.23122579878E+04  0.23122579878E+04  0.25500000000E-02 0.  1.
   -5000001    1    1    2    0    0 -0.28137520067E+03  0.29725222439E+03 -0.96888747160E+03  0.10810984327E+04  0.25000000000E+03 0.  0.
    5000001    1    1    2    0    0  0.28137520067E+03 -0.29725222439E+03 -0.12425906908E+04  0.13319393805E+04  0.25000000000E+03 0.  0.
<mgrwt>
<rscale>  0 0.96546146E+03</rscale>
<asrwt>0</asrwt>
<pdfrwt beam="1">  1        2 0.35573196E+00 0.96546146E+03</pdfrwt>
<pdfrwt beam="2">  1       -2 0.15504590E-01 0.96546146E+03</pdfrwt>
<totfact> 0.14960471E+02</totfact>
</mgrwt>
</event>
<event>
 4    1  0.1805887E-005  0.7965048E+03  0.7818608E-02  0.9565090E-01
          2   -1    0    0  501    0  0.00000000000E+00  0.00000000000E+00  0.63610229169E+03  0.63610229169E+03  0.25500000000E-02 0.  1.
         -2   -1    0    0    0  501 -0.00000000000E+00 -0.00000000000E+00 -0.24933876068E+03  0.24933876069E+03  0.25500000000E-02 0. -1.
   -5000001    1    1    2    0    0 -0.15345825339E+03  0.25019766180E+03  0.30430638164E+03  0.49117275923E+03  0.25000000000E+03 0.  0.
    5000001    1    1    2    0    0  0.15345825339E+03 -0.25019766180E+03  0.82457149373E+02  0.39426829315E+03  0.25000000000E+03 0.  0.
<mgrwt>
<rscale>  0 0.79650476E+03</rscale>
<asrwt>0</asrwt>
<pdfrwt beam="1">  1        2 0.97861891E-01 0.79650476E+03</pdfrwt>
<pdfrwt beam="2">  1       -2 0.38359809E-01 0.79650476E+03</pdfrwt>
<totfact> 0.29810249E+02</totfact>
</mgrwt>
</event>
<event>
 4    1  0.1805887E-005  0.7641739E+03  0.7818608E-02  0.9613372E-01
         -2   -1    0    0    0  501 -0.00000000000E+00  0.00000000000E+00  0.38586958915E+02  0.38586959000E+02  0.25500000000E-02 0. -1.
          2   -1    0    0  501    0  0.00000000000E+00 -0.00000000000E+00 -0.37834137566E+04  0.37834137566E+04  0.25500000000E-02 0.  1.
   -5000001    1    1    2    0    0 -0.13248541989E+03 -0.11735806099E+03 -0.30147358727E+04  0.30302570326E+04  0.25000000000E+03 0.  0.
    5000001    1    1    2    0    0  0.13248541989E+03  0.11735806099E+03 -0.73009092497E+03  0.79174368307E+03  0.25000000000E+03 0.  0.
<mgrwt>
<rscale>  0 0.76417388E+03</rscale>
<asrwt>0</asrwt>
<pdfrwt beam="1">  1        2 0.58206336E+00 0.76417388E+03</pdfrwt>
<pdfrwt beam="2">  1       -2 0.59364582E-02 0.76417388E+03</pdfrwt>
<totfact> 0.86827721E+01</totfact>
</mgrwt>
</event>
<event>
 4    1  0.1805887E-005  0.5377259E+03  0.7818608E-02  0.1004376E+00
          2   -1    0    0  501    0  0.00000000000E+00  0.00000000000E+00  0.99565786248E+03  0.99565786248E+03  0.25500000000E-02 0.  1.
         -2   -1    0    0    0  501 -0.00000000000E+00 -0.00000000000E+00 -0.72602528700E+02  0.72602528745E+02  0.25500000000E-02 0. -1.
   -5000001    1    1    2    0    0  0.98927038765E+02  0.81136079974E+00  0.46103597577E+03  0.53370533842E+03  0.25000000000E+03 0.  0.
    5000001    1    1    2    0    0 -0.98927038765E+02 -0.81136079974E+00  0.46201935801E+03  0.53455505281E+03  0.25000000000E+03 0.  0.
<mgrwt>
<rscale>  0 0.53772587E+03</rscale>
<asrwt>0</asrwt>
<pdfrwt beam="1">  1        2 0.15317814E+00 0.53772587E+03</pdfrwt>
<pdfrwt beam="2">  1       -2 0.11169620E-01 0.53772587E+03</pdfrwt>
<totfact> 0.14627672E+03</totfact>
</mgrwt>
</event>
<event>
 4    1  0.1805887E-005  0.8660284E+03  0.7818608E-02  0.9469073E-01
         -2   -1    0    0    0  501 -0.00000000000E+00  0.00000000000E+00  0.41384586708E+02  0.41384586787E+02  0.25500000000E-02 0. -1.
          2   -1    0    0  501    0  0.00000000000E+00 -0.00000000000E+00 -0.45307034470E+04  0.45307034470E+04  0.25500000000E-02 0.  1.
   -5000001    1    1    2    0    0  0.31610193390E+03 -0.15650059400E+03 -0.23727233085E+04  0.24117895363E+04  0.25000000000E+03 0.  0.
    5000001    1    1    2    0    0 -0.31610193390E+03  0.15650059400E+03 -0.21165955518E+04  0.21602984975E+04  0.25000000000E+03 0.  0.
<mgrwt>
<rscale>  0 0.86602838E+03</rscale>
<asrwt>0</asrwt>
<pdfrwt beam="1">  1        2 0.69703091E+00 0.86602838E+03</pdfrwt>
<pdfrwt beam="2">  1       -2 0.63668631E-02 0.86602838E+03</pdfrwt>
<totfact> 0.18020584E+01</totfact>
</mgrwt>
</event>
<event>
 4    1  0.1805887E-005  0.8877146E+03  0.7818608E-02  0.9441070E-01
         -2   -1    0    0    0  501 -0.00000000000E+00  0.00000000000E+00  0.49249969353E+02  0.49249969419E+02  0.25500000000E-02 0. -1.
          2   -1    0    0  501    0  0.00000000000E+00 -0.00000000000E+00 -0.40001909434E+04  0.40001909434E+04  0.25500000000E-02 0.  1.
   -5000001    1    1    2    0    0 -0.36018310355E+02 -0.35349918971E+03 -0.15611310982E+04  0.16204595958E+04  0.25000000000E+03 0.  0.
    5000001    1    1    2    0    0  0.36018310355E+02  0.35349918971E+03 -0.23898098759E+04  0.24289813171E+04  0.25000000000E+03 0.  0.
<mgrwt>
<rscale>  0 0.88771455E+03</rscale>
<asrwt>0</asrwt>
<pdfrwt beam="1">  1        2 0.61541374E+00 0.88771455E+03</pdfrwt>
<pdfrwt beam="2">  1       -2 0.75769215E-02 0.88771455E+03</pdfrwt>
<totfact> 0.39565642E+01</totfact>
</mgrwt>
</event>
<event>
 4    1  0.1805887E-005  0.6947933E+03  0.7818608E-02  0.9726178E-01
          2   -1    0    0  501    0  0.00000000000E+00  0.00000000000E+00  0.21685211490E+03  0.21685211491E+03  0.25500000000E-02 0.  1.
         -2   -1    0    0    0  501 -0.00000000000E+00 -0.00000000000E+00 -0.55652871252E+03  0.55652871252E+03  0.25500000000E-02 0. -1.
   -5000001    1    1    2    0    0  0.23097100311E+03  0.45652848488E+02 -0.11143833060E+03  0.36104056334E+03  0.25000000000E+03 0.  0.
    5000001    1    1    2    0    0 -0.23097100311E+03 -0.45652848488E+02 -0.22823826702E+03  0.41234026409E+03  0.25000000000E+03 0.  0.
<mgrwt>
<rscale>  0 0.69479329E+03</rscale>
<asrwt>0</asrwt>
<pdfrwt beam="1">  1        2 0.33361864E-01 0.69479329E+03</pdfrwt>
<pdfrwt beam="2">  1       -2 0.85619802E-01 0.69479329E+03</pdfrwt>
<totfact> 0.18897679E+02</totfact>
</mgrwt>
</event>
<event>
 4    1  0.1805887E-005  0.1740068E+04  0.7818608E-02  0.8738837E-01
          2   -1    0    0  501    0  0.00000000000E+00  0.00000000000E+00  0.20127157356E+04  0.20127157356E+04  0.25500000000E-02 0.  1.
         -2   -1    0    0    0  501 -0.00000000000E+00 -0.00000000000E+00 -0.37608830287E+03  0.37608830288E+03  0.25500000000E-02 0. -1.
   -5000001    1    1    2    0    0 -0.47444758882E+02  0.83159755726E+03  0.85340384394E+03  0.12184431145E+04  0.25000000000E+03 0.  0.
    5000001    1    1    2    0    0  0.47444758882E+02 -0.83159755726E+03  0.78322358882E+03  0.11703609240E+04  0.25000000000E+03 0.  0.
<mgrwt>
<rscale>  0 0.17400676E+04</rscale>
<asrwt>0</asrwt>
<pdfrwt beam="1">  1        2 0.30964857E+00 0.17400676E+04</pdfrwt>
<pdfrwt beam="2">  1       -2 0.57859739E-01 0.17400676E+04</pdfrwt>
<totfact> 0.17435735E+01</totfact>
</mgrwt>
</event>
<event>
 4    1  0.1805887E-005  0.5595044E+03  0.7818608E-02  0.9993177E-01
         -2   -1    0    0    0  501 -0.00000000000E+00  0.00000000000E+00  0.50769882695E+03  0.50769882696E+03  0.25500000000E-02 0. -1.
          2   -1    0    0  501    0  0.00000000000E+00 -0.00000000000E+00 -0.15414902834E+03  0.15414902836E+03  0.25500000000E-02 0.  1.
   -5000001    1    1    2    0    0  0.36925823080E+02 -0.76263150465E+02  0.28635741494E+03  0.38946136345E+03  0.25000000000E+03 0.  0.
    5000001    1    1    2    0    0 -0.36925823080E+02  0.76263150465E+02  0.67192383672E+02  0.27238649187E+03  0.25000000000E+03 0.  0.
<mgrwt>
<rscale>  0 0.55950436E+03</rscale>
<asrwt>0</asrwt>
<pdfrwt beam="1">  1        2 0.23715235E-01 0.55950436E+03</pdfrwt>
<pdfrwt beam="2">  1       -2 0.78107512E-01 0.55950436E+03</pdfrwt>
<totfact> 0.34334515E+02</totfact>
</mgrwt>
</event>
<event>
 4    1  0.1805887E-005  0.1051917E+04  0.7818608E-02  0.9253367E-01
         -2   -1    0    0    0  501 -0.00000000000E+00  0.00000000000E+00  0.22111105611E+03  0.22111105612E+03  0.25500000000E-02 0.  1.
          2   -1    0    0  501    0  0.00000000000E+00 -0.00000000000E+00 -0.12511017969E+04  0.12511017969E+04  0.25500000000E-02 0. -1.
   -5000001    1    1    2    0    0  0.34656007858E+03  0.29905858237E+03 -0.60984035906E+03  0.80246195380E+03  0.25000000000E+03 0.  0.
    5000001    1    1    2    0    0 -0.34656007858E+03 -0.29905858237E+03 -0.42015038174E+03  0.66975089924E+03  0.25000000000E+03 0.  0.
<mgrwt>
<rscale>  0 0.10519172E+04</rscale>
<asrwt>0</asrwt>
<pdfrwt beam="1">  1        2 0.19247720E+00 0.10519172E+04</pdfrwt>
<pdfrwt beam="2">  1       -2 0.34017086E-01 0.10519172E+04</pdfrwt>
<totfact> 0.14207629E+02</totfact>
</mgrwt>
</event>
<event>
 4    1  0.1805887E-005  0.6650349E+03  0.7818608E-02  0.9778969E-01
         -2   -1    0    0    0  501 -0.00000000000E+00  0.00000000000E+00  0.10301745896E+03  0.10301745899E+03  0.25500000000E-02 0. -1.
          2   -1    0    0  501    0  0.00000000000E+00 -0.00000000000E+00 -0.10732925056E+04  0.10732925056E+04  0.25500000000E-02 0.  1.
   -5000001    1    1    2    0    0 -0.99622828612E+02  0.12516483342E+03 -0.21995448289E+03  0.36941970447E+03  0.25000000000E+03 0.  0.
    5000001    1    1    2    0    0  0.99622828612E+02 -0.12516483342E+03 -0.75032056378E+03  0.80689026016E+03  0.25000000000E+03 0.  0.
<mgrwt>
<rscale>  0 0.66503494E+03</rscale>
<asrwt>0</asrwt>
<pdfrwt beam="1">  1        2 0.16512192E+00 0.66503494E+03</pdfrwt>
<pdfrwt beam="2">  1       -2 0.15848841E-01 0.66503494E+03</pdfrwt>
<totfact> 0.72831935E+02</totfact>
</mgrwt>
</event>
<event>
 4    1  0.1805887E-005  0.6603849E+03  0.7818608E-02  0.9787485E-01
          2   -1    0    0  501    0  0.00000000000E+00  0.00000000000E+00  0.12126042783E+03  0.12126042786E+03  0.25500000000E-02 0.  1.
         -2   -1    0    0    0  501 -0.00000000000E+00 -0.00000000000E+00 -0.89911486585E+03  0.89911486585E+03  0.25500000000E-02 0. -1.
   -5000001    1    1    2    0    0  0.10280542203E+02 -0.14484488649E+03 -0.63537938778E+03  0.69806353371E+03  0.25000000000E+03 0.  0.
    5000001    1    1    2    0    0 -0.10280542203E+02  0.14484488649E+03 -0.14247505024E+03  0.32231175999E+03  0.25000000000E+03 0.  0.
<mgrwt>
<rscale>  0 0.66038490E+03</rscale>
<asrwt>0</asrwt>
<pdfrwt beam="1">  1        2 0.18655451E-01 0.66038490E+03</pdfrwt>
<pdfrwt beam="2">  1       -2 0.13832536E+00 0.66038490E+03</pdfrwt>
<totfact> 0.11587233E+02</totfact>
</mgrwt>
</event>
<event>
 4    1  0.1805887E-005  0.9297662E+03  0.7818608E-02  0.9389119E-01
         -2   -1    0    0    0  501 -0.00000000000E+00  0.00000000000E+00  0.53031843204E+02  0.53031843265E+02  0.25500000000E-02 0.  1.
          2   -1    0    0  501    0  0.00000000000E+00 -0.00000000000E+00 -0.40752172764E+04  0.40752172764E+04  0.25500000000E-02 0. -1.
   -5000001    1    1    2    0    0  0.24030857826E+03 -0.29864854532E+03 -0.23739089080E+04  0.24176192153E+04  0.25000000000E+03 0.  0.
    5000001    1    1    2    0    0 -0.24030857826E+03  0.29864854532E+03 -0.16482765252E+04  0.17106299044E+04  0.25000000000E+03 0.  0.
<mgrwt>
<rscale>  0 0.92976617E+03</rscale>
<asrwt>0</asrwt>
<pdfrwt beam="1">  1        2 0.62695626E+00 0.92976617E+03</pdfrwt>
<pdfrwt beam="2">  1       -2 0.81587483E-02 0.92976617E+03</pdfrwt>
<totfact> 0.30409398E+01</totfact>
</mgrwt>
</event>
<event>
 4    1  0.1805887E-005  0.8507589E+03  0.7818608E-02  0.9489319E-01
          2   -1    0    0  501    0  0.00000000000E+00  0.00000000000E+00  0.40878157578E+03  0.40878157578E+03  0.25500000000E-02 0.  1.
         -2   -1    0    0    0  501 -0.00000000000E+00 -0.00000000000E+00 -0.44265126592E+03  0.44265126593E+03  0.25500000000E-02 0. -1.
   -5000001    1    1    2    0    0 -0.69578604647E+02 -0.33699892840E+03 -0.23122139959E+02  0.42596254921E+03  0.25000000000E+03 0.  0.
    5000001    1    1    2    0    0  0.69578604647E+02  0.33699892840E+03 -0.10747550182E+02  0.42547029250E+03  0.25000000000E+03 0.  0.
<mgrwt>
<rscale>  0 0.85075891E+03</rscale>
<asrwt>0</asrwt>
<pdfrwt beam="1">  1        2 0.62889473E-01 0.85075891E+03</pdfrwt>
<pdfrwt beam="2">  1       -2 0.68100195E-01 0.85075891E+03</pdfrwt>
<totfact> 0.15407415E+02</totfact>
</mgrwt>
</event>
<event>
 4    1  0.1805887E-005  0.9367407E+03  0.7818608E-02  0.9380784E-01
          2   -1    0    0  501    0  0.00000000000E+00  0.00000000000E+00  0.18391171599E+04  0.18391171599E+04  0.25500000000E-02 0.  1.
         -2   -1    0    0    0  501 -0.00000000000E+00 -0.00000000000E+00 -0.11928047269E+03  0.11928047272E+03  0.25500000000E-02 0. -1.
   -5000001    1    1    2    0    0  0.29558539743E+03  0.20134245618E+03  0.50413126232E+03  0.66675170902E+03  0.25000000000E+03 0.  0.
    5000001    1    1    2    0    0 -0.29558539743E+03 -0.20134245618E+03  0.12157054249E+04  0.12916459236E+04  0.25000000000E+03 0.  0.
<mgrwt>
<rscale>  0 0.93674066E+03</rscale>
<asrwt>0</asrwt>
<pdfrwt beam="1">  1        2 0.28294105E+00 0.93674066E+03</pdfrwt>
<pdfrwt beam="2">  1       -2 0.18350845E-01 0.93674066E+03</pdfrwt>
<totfact> 0.20481220E+02</totfact>
</mgrwt>
</event>
<event>
 4    1  0.1805887E-005  0.7999584E+03  0.7818608E-02  0.9560077E-01
          2   -1    0    0  501    0  0.00000000000E+00  0.00000000000E+00  0.15752777790E+04  0.15752777791E+04  0.25500000000E-02 0.  1.
         -2   -1    0    0    0  501 -0.00000000000E+00 -0.00000000000E+00 -0.10155882140E+03  0.10155882143E+03  0.25500000000E-02 0. -1.
   -5000001    1    1    2    0    0 -0.13242869074E+03  0.17522777796E+03  0.27171511587E+03  0.42961754677E+03  0.25000000000E+03 0.  0.
    5000001    1    1    2    0    0  0.13242869074E+03 -0.17522777796E+03  0.12020038418E+04  0.12472190537E+04  0.25000000000E+03 0.  0.
<mgrwt>
<rscale>  0 0.79995839E+03</rscale>
<asrwt>0</asrwt>
<pdfrwt beam="1">  1        2 0.24235043E+00 0.79995839E+03</pdfrwt>
<pdfrwt beam="2">  1       -2 0.15624434E-01 0.79995839E+03</pdfrwt>
<totfact> 0.38053341E+02</totfact>
</mgrwt>
</event>
<event>
 4    1  0.1805887E-005  0.6120884E+03  0.7818608E-02  0.9880639E-01
          2   -1    0    0  501    0  0.00000000000E+00  0.00000000000E+00  0.59154573722E+03  0.59154573722E+03  0.25500000000E-02 0.  1.
         -2   -1    0    0    0  501 -0.00000000000E+00 -0.00000000000E+00 -0.15833612152E+03  0.15833612154E+03  0.25500000000E-02 0. -1.
   -5000001    1    1    2    0    0 -0.11348417207E+02  0.15432988175E+03  0.11253044472E+03  0.31481677205E+03  0.25000000000E+03 0.  0.
    5000001    1    1    2    0    0  0.11348417207E+02 -0.15432988175E+03  0.32067917098E+03  0.43506508671E+03  0.25000000000E+03 0.  0.
<mgrwt>
<rscale>  0 0.61208842E+03</rscale>
<asrwt>0</asrwt>
<pdfrwt beam="1">  1        2 0.91007036E-01 0.61208842E+03</pdfrwt>
<pdfrwt beam="2">  1       -2 0.24359403E-01 0.61208842E+03</pdfrwt>
<totfact> 0.76180807E+02</totfact>
</mgrwt>
</event>
<event>
 4    1  0.1805887E-005  0.6968424E+03  0.7818608E-02  0.9722647E-01
          2   -1    0    0  501    0  0.00000000000E+00  0.00000000000E+00  0.37779621741E+03  0.37779621742E+03  0.25500000000E-02 0.  1.
         -2   -1    0    0    0  501 -0.00000000000E+00 -0.00000000000E+00 -0.32133021146E+03  0.32133021147E+03  0.25500000000E-02 0. -1.
   -5000001    1    1    2    0    0 -0.17751821500E+03  0.15560234416E+03  0.84742854459E+02  0.35412731827E+03  0.25000000000E+03 0.  0.
    5000001    1    1    2    0    0  0.17751821500E+03 -0.15560234416E+03 -0.28276848501E+02  0.34499911062E+03  0.25000000000E+03 0.  0.
<mgrwt>
<rscale>  0 0.69684242E+03</rscale>
<asrwt>0</asrwt>
<pdfrwt beam="1">  1        2 0.58122495E-01 0.69684242E+03</pdfrwt>
<pdfrwt beam="2">  1       -2 0.49435417E-01 0.69684242E+03</pdfrwt>
<totfact> 0.33147035E+02</totfact>
</mgrwt>
</event>
<event>
 4    1  0.1805887E-005  0.6610159E+03  0.7818608E-02  0.9786325E-01
          2   -1    0    0  501    0  0.00000000000E+00  0.00000000000E+00  0.74667216092E+03  0.74667216092E+03  0.25500000000E-02 0. -1.
         -2   -1    0    0    0  501 -0.00000000000E+00 -0.00000000000E+00 -0.14629645423E+03  0.14629645425E+03  0.25500000000E-02 0.  1.
   -5000001    1    1    2    0    0  0.54728719618E+02  0.20901895123E+03  0.29050884928E+03  0.43997675647E+03  0.25000000000E+03 0.  0.
    5000001    1    1    2    0    0 -0.54728719618E+02 -0.20901895123E+03  0.30986685741E+03  0.45299185870E+03  0.25000000000E+03 0.  0.
<mgrwt>
<rscale>  0 0.66101585E+03</rscale>
<asrwt>0</asrwt>
<pdfrwt beam="1">  1        2 0.11487264E+00 0.66101585E+03</pdfrwt>
<pdfrwt beam="2">  1       -2 0.22507147E-01 0.66101585E+03</pdfrwt>
<totfact> 0.65681038E+02</totfact>
</mgrwt>
</event>
<event>
 4    1  0.1805887E-005  0.7239251E+03  0.7818608E-02  0.9677170E-01
          2   -1    0    0  501    0  0.00000000000E+00  0.00000000000E+00  0.32356849240E+03  0.32356849241E+03  0.25500000000E-02 0.  1.
         -2   -1    0    0    0  501 -0.00000000000E+00 -0.00000000000E+00 -0.40491241713E+03  0.40491241714E+03  0.25500000000E-02 0. -1.
   -5000001    1    1    2    0    0 -0.18955141665E+03 -0.17724147751E+03 -0.62129306985E+01  0.36039267669E+03  0.25000000000E+03 0.  0.
    5000001    1    1    2    0    0  0.18955141665E+03  0.17724147751E+03 -0.75130994030E+02  0.36808823286E+03  0.25000000000E+03 0.  0.
<mgrwt>
<rscale>  0 0.72392514E+03</rscale>
<asrwt>0</asrwt>
<pdfrwt beam="1">  1        2 0.49779768E-01 0.72392514E+03</pdfrwt>
<pdfrwt beam="2">  1       -2 0.62294218E-01 0.72392514E+03</pdfrwt>
<totfact> 0.24357632E+02</totfact>
</mgrwt>
</event>
<event>
 4    1  0.1805887E-005  0.9113412E+03  0.7818608E-02  0.9411514E-01
          2   -1    0    0  501    0  0.00000000000E+00  0.00000000000E+00  0.29524024953E+04  0.29524024953E+04  0.25500000000E-02 0.  1.
         -2   -1    0    0    0  501 -0.00000000000E+00 -0.00000000000E+00 -0.70327707210E+02  0.70327707256E+02  0.25500000000E-02 0. -1.
   -5000001    1    1    2    0    0  0.16956816810E+03  0.33969798759E+03  0.13368028816E+04  0.14119808889E+04  0.25000000000E+03 0.  0.
    5000001    1    1    2    0    0 -0.16956816810E+03 -0.33969798759E+03  0.15452719065E+04  0.16107493136E+04  0.25000000000E+03 0.  0.
<mgrwt>
<rscale>  0 0.91134121E+03</rscale>
<asrwt>0</asrwt>
<pdfrwt beam="1">  1        2 0.45421574E+00 0.91134121E+03</pdfrwt>
<pdfrwt beam="2">  1       -2 0.10819648E-01 0.91134121E+03</pdfrwt>
<totfact> 0.11640900E+02</totfact>
</mgrwt>
</event>
<event>
 4    1  0.1805887E-005  0.6798510E+03  0.7818608E-02  0.9752324E-01
         -2   -1    0    0    0  501 -0.00000000000E+00  0.00000000000E+00  0.10949405986E+03  0.10949405989E+03  0.25500000000E-02 0. -1.
          2   -1    0    0  501    0  0.00000000000E+00 -0.00000000000E+00 -0.10553022764E+04  0.10553022764E+04  0.25500000000E-02 0.  1.
   -5000001    1    1    2    0    0 -0.17452220118E+03  0.14285938548E+03 -0.39286242973E+03  0.51740476555E+03  0.25000000000E+03 0.  0.
    5000001    1    1    2    0    0  0.17452220118E+03 -0.14285938548E+03 -0.55294578678E+03  0.64739157072E+03  0.25000000000E+03 0.  0.
<mgrwt>
<rscale>  0 0.67985096E+03</rscale>
<asrwt>0</asrwt>
<pdfrwt beam="1">  1        2 0.16235419E+00 0.67985096E+03</pdfrwt>
<pdfrwt beam="2">  1       -2 0.16845241E-01 0.67985096E+03</pdfrwt>
<totfact> 0.67310027E+02</totfact>
</mgrwt>
</event>
<event>
 4    1  0.1805887E-005  0.1575623E+04  0.7818608E-02  0.8835665E-01
          2   -1    0    0  501    0  0.00000000000E+00  0.00000000000E+00  0.35469256935E+04  0.35469256935E+04  0.25500000000E-02 0.  1.
         -2   -1    0    0    0  501 -0.00000000000E+00 -0.00000000000E+00 -0.17498166650E+03  0.17498166652E+03  0.25500000000E-02 0. -1.
   -5000001    1    1    2    0    0 -0.73837244694E+01  0.62148175916E+03  0.26652176431E+04  0.27481228469E+04  0.25000000000E+03 0.  0.
    5000001    1    1    2    0    0  0.73837244694E+01 -0.62148175916E+03  0.70672638386E+03  0.97378451313E+03  0.25000000000E+03 0.  0.
<mgrwt>
<rscale>  0 0.15756230E+04</rscale>
<asrwt>0</asrwt>
<pdfrwt beam="1">  1        2 0.54568085E+00 0.15756230E+04</pdfrwt>
<pdfrwt beam="2">  1       -2 0.26920257E-01 0.15756230E+04</pdfrwt>
<totfact> 0.91904395E+00</totfact>
</mgrwt>
</event>
<event>
 4    1  0.1805887E-005  0.5604526E+03  0.7818608E-02  0.9991031E-01
          2   -1    0    0  501    0  0.00000000000E+00  0.00000000000E+00  0.72064069511E+03  0.72064069511E+03  0.25500000000E-02 0.  1.
         -2   -1    0    0    0  501 -0.00000000000E+00 -0.00000000000E+00 -0.10896800204E+03  0.10896800207E+03  0.25500000000E-02 0. -1.
   -5000001    1    1    2    0    0  0.39239857355E+02  0.10310328825E+03  0.21390923823E+03  0.34702624779E+03  0.25000000000E+03 0.  0.
    5000001    1    1    2    0    0 -0.39239857355E+02 -0.10310328825E+03  0.39776345484E+03  0.48258244939E+03  0.25000000000E+03 0.  0.
<mgrwt>
<rscale>  0 0.56045259E+03</rscale>
<asrwt>0</asrwt>
<pdfrwt beam="1">  1        2 0.11086780E+00 0.56045259E+03</pdfrwt>
<pdfrwt beam="2">  1       -2 0.16764308E-01 0.56045259E+03</pdfrwt>
<totfact> 0.11487918E+03</totfact>
</mgrwt>
</event>
<event>
 4    1  0.1805887E-005  0.6340546E+03  0.7818608E-02  0.9837168E-01
         -2   -1    0    0    0  501 -0.00000000000E+00  0.00000000000E+00  0.15438898036E+03  0.15438898038E+03  0.25500000000E-02 0. -1.
          2   -1    0    0  501    0  0.00000000000E+00 -0.00000000000E+00 -0.65099416071E+03  0.65099416072E+03  0.25500000000E-02 0.  1.
   -5000001    1    1    2    0    0 -0.15042316501E+03 -0.11111398784E+03 -0.31825510003E+03  0.44582480366E+03  0.25000000000E+03 0.  0.
    5000001    1    1    2    0    0  0.15042316501E+03  0.11111398784E+03 -0.17835008032E+03  0.35955833743E+03  0.25000000000E+03 0.  0.
<mgrwt>
<rscale>  0 0.63405465E+03</rscale>
<asrwt>0</asrwt>
<pdfrwt beam="1">  1        2 0.10015295E+00 0.63405465E+03</pdfrwt>
<pdfrwt beam="2">  1       -2 0.23752151E-01 0.63405465E+03</pdfrwt>
<totfact> 0.70938845E+02</totfact>
</mgrwt>
</event>
<event>
 4    1  0.1805887E-005  0.5789051E+03  0.7818608E-02  0.9950164E-01
         -2   -1    0    0    0  501 -0.00000000000E+00  0.00000000000E+00  0.35047088145E+02  0.35047088238E+02  0.25500000000E-02 0. -1.
          2   -1    0    0  501    0  0.00000000000E+00 -0.00000000000E+00 -0.23905775540E+04  0.23905775540E+04  0.25500000000E-02 0.  1.
   -5000001    1    1    2    0    0  0.75867385812E+02 -0.45867880167E+02 -0.16632124010E+04  0.16842313420E+04  0.25000000000E+03 0.  0.
    5000001    1    1    2    0    0 -0.75867385812E+02  0.45867880167E+02 -0.69231806487E+03  0.74139330022E+03  0.25000000000E+03 0.  0.
<mgrwt>
<rscale>  0 0.57890511E+03</rscale>
<asrwt>0</asrwt>
<pdfrwt beam="1">  1        2 0.36778103E+00 0.57890511E+03</pdfrwt>
<pdfrwt beam="2">  1       -2 0.53918616E-02 0.57890511E+03</pdfrwt>
<totfact> 0.77461548E+02</totfact>
</mgrwt>
</event>
<event>
 4    1  0.1805887E-005  0.8360870E+03  0.7818608E-02  0.9509203E-01
          2   -1    0    0  501    0  0.00000000000E+00  0.00000000000E+00  0.15080148035E+04  0.15080148035E+04  0.25500000000E-02 0.  1.
         -2   -1    0    0    0  501 -0.00000000000E+00 -0.00000000000E+00 -0.11588769246E+03  0.11588769249E+03  0.25500000000E-02 0. -1.
   -5000001    1    1    2    0    0  0.16974181484E+03 -0.20923352231E+03  0.10829079768E+04  0.11435823699E+04  0.25000000000E+03 0.  0.
    5000001    1    1    2    0    0 -0.16974181484E+03  0.20923352231E+03  0.30921913432E+03  0.48032012616E+03  0.25000000000E+03 0.  0.
<mgrwt>
<rscale>  0 0.83608697E+03</rscale>
<asrwt>0</asrwt>
<pdfrwt beam="1">  1        2 0.23200227E+00 0.83608697E+03</pdfrwt>
<pdfrwt beam="2">  1       -2 0.17828877E-01 0.83608697E+03</pdfrwt>
<totfact> 0.33007042E+02</totfact>
</mgrwt>
</event>
<event>
 4    1  0.1805887E-005  0.8338534E+03  0.7818608E-02  0.9512268E-01
          2   -1    0    0  501    0  0.00000000000E+00  0.00000000000E+00  0.14427972191E+04  0.14427972191E+04  0.25500000000E-02 0.  1.
         -2   -1    0    0    0  501 -0.00000000000E+00 -0.00000000000E+00 -0.12047976446E+03  0.12047976449E+03  0.25500000000E-02 0. -1.
   -5000001    1    1    2    0    0  0.83658747549E+02 -0.30996244112E+03  0.83146691717E+03  0.92569581143E+03  0.25000000000E+03 0.  0.
    5000001    1    1    2    0    0 -0.83658747549E+02  0.30996244112E+03  0.49085053742E+03  0.63758117212E+03  0.25000000000E+03 0.  0.
<mgrwt>
<rscale>  0 0.83385339E+03</rscale>
<asrwt>0</asrwt>
<pdfrwt beam="1">  1        2 0.22196880E+00 0.83385339E+03</pdfrwt>
<pdfrwt beam="2">  1       -2 0.18535349E-01 0.83385339E+03</pdfrwt>
<totfact> 0.33574580E+02</totfact>
</mgrwt>
</event>
<event>
 4    1  0.1805887E-005  0.6436863E+03  0.7818608E-02  0.9818699E-01
          2   -1    0    0  501    0  0.00000000000E+00  0.00000000000E+00  0.25625060156E+03  0.25625060157E+03  0.25500000000E-02 0.  1.
         -2   -1    0    0    0  501 -0.00000000000E+00 -0.00000000000E+00 -0.40422543910E+03  0.40422543911E+03  0.25500000000E-02 0. -1.
   -5000001    1    1    2    0    0  0.12646802091E+03 -0.15457175364E+03 -0.10947901014E+03  0.33818965241E+03  0.25000000000E+03 0.  0.
    5000001    1    1    2    0    0 -0.12646802091E+03  0.15457175364E+03 -0.38495827406E+02  0.32228638827E+03  0.25000000000E+03 0.  0.
<mgrwt>
<rscale>  0 0.64368630E+03</rscale>
<asrwt>0</asrwt>
<pdfrwt beam="1">  1        2 0.39423169E-01 0.64368630E+03</pdfrwt>
<pdfrwt beam="2">  1       -2 0.62188529E-01 0.64368630E+03</pdfrwt>
<totfact> 0.31734627E+02</totfact>
</mgrwt>
</event>
<event>
 4    1  0.1805887E-005  0.6708084E+03  0.7818608E-02  0.9768498E-01
          2   -1    0    0  501    0  0.00000000000E+00  0.00000000000E+00  0.96369597984E+03  0.96369597985E+03  0.25500000000E-02 0.  1.
         -2   -1    0    0    0  501 -0.00000000000E+00 -0.00000000000E+00 -0.11673390139E+03  0.11673390141E+03  0.25500000000E-02 0. -1.
   -5000001    1    1    2    0    0 -0.13533764538E+02 -0.68303258773E+02  0.76570852736E+03  0.80849121629E+03  0.25000000000E+03 0.  0.
    5000001    1    1    2    0    0  0.13533764538E+02  0.68303258773E+02  0.81253551099E+02  0.27193866497E+03  0.25000000000E+03 0.  0.
<mgrwt>
<rscale>  0 0.67080844E+03</rscale>
<asrwt>0</asrwt>
<pdfrwt beam="1">  1        2 0.14826092E+00 0.67080844E+03</pdfrwt>
<pdfrwt beam="2">  1       -2 0.17959062E-01 0.67080844E+03</pdfrwt>
<totfact> 0.68945023E+02</totfact>
</mgrwt>
</event>
<event>
 4    1  0.1805887E-005  0.1073124E+04  0.7818608E-02  0.9231790E-01
          2   -1    0    0  501    0  0.00000000000E+00  0.00000000000E+00  0.17699934156E+04  0.17699934156E+04  0.25500000000E-02 0. -1.
         -2   -1    0    0    0  501 -0.00000000000E+00 -0.00000000000E+00 -0.16265540695E+03  0.16265540697E+03  0.25500000000E-02 0.  1.
   -5000001    1    1    2    0    0 -0.21106736676E+03 -0.38758113459E+03  0.11188640778E+04  0.12284646490E+04  0.25000000000E+03 0.  0.
    5000001    1    1    2    0    0  0.21106736676E+03  0.38758113459E+03  0.48847393083E+03  0.70418417357E+03  0.25000000000E+03 0.  0.
<mgrwt>
<rscale>  0 0.10731244E+04</rscale>
<asrwt>0</asrwt>
<pdfrwt beam="1">  1        2 0.27230669E+00 0.10731244E+04</pdfrwt>
<pdfrwt beam="2">  1       -2 0.25023908E-01 0.10731244E+04</pdfrwt>
<totfact> 0.12775388E+02</totfact>
</mgrwt>
</event>
<event>
 4    1  0.1805887E-005  0.7895218E+03  0.7818608E-02  0.9575309E-01
          2   -1    0    0  501    0  0.00000000000E+00  0.00000000000E+00  0.34384959454E+03  0.34384959455E+03  0.25500000000E-02 0.  1.
         -2   -1    0    0    0  501 -0.00000000000E+00 -0.00000000000E+00 -0.45321024976E+03  0.45321024977E+03  0.25500000000E-02 0. -1.
   -5000001    1    1    2    0    0 -0.24681247217E+03  0.15595240395E+03  0.36171173722E+02  0.38606463517E+03  0.25000000000E+03 0.  0.
    5000001    1    1    2    0    0  0.24681247217E+03 -0.15595240395E+03 -0.14553182894E+03  0.41099520916E+03  0.25000000000E+03 0.  0.
<mgrwt>
<rscale>  0 0.78952178E+03</rscale>
<asrwt>0</asrwt>
<pdfrwt beam="1">  1        2 0.52899938E-01 0.78952178E+03</pdfrwt>
<pdfrwt beam="2">  1       -2 0.69724654E-01 0.78952178E+03</pdfrwt>
<totfact> 0.17816720E+02</totfact>
</mgrwt>
</event>
<event>
 4    1  0.1805887E-005  0.1140676E+04  0.7818608E-02  0.9166429E-01
         -2   -1    0    0    0  501 -0.00000000000E+00  0.00000000000E+00  0.41227007699E+03  0.41227007699E+03  0.25500000000E-02 0. -1.
          2   -1    0    0  501    0  0.00000000000E+00 -0.00000000000E+00 -0.78901063140E+03  0.78901063141E+03  0.25500000000E-02 0.  1.
   -5000001    1    1    2    0    0 -0.12133766639E+03  0.47968012208E+03 -0.47197265834E+02  0.55636627388E+03  0.25000000000E+03 0.  0.
    5000001    1    1    2    0    0  0.12133766639E+03 -0.47968012208E+03 -0.32954328858E+03  0.64491443452E+03  0.25000000000E+03 0.  0.
<mgrwt>
<rscale>  0 0.11406761E+04</rscale>
<asrwt>0</asrwt>
<pdfrwt beam="1">  1        2 0.12138625E+00 0.11406761E+04</pdfrwt>
<pdfrwt beam="2">  1       -2 0.63426166E-01 0.11406761E+04</pdfrwt>
<totfact> 0.79996236E+01</totfact>
</mgrwt>
</event>
<event>
 4    1  0.1805887E-005  0.5779379E+03  0.7818608E-02  0.9952265E-01
         -2   -1    0    0    0  501 -0.00000000000E+00  0.00000000000E+00  0.40823426080E+02  0.40823426160E+02  0.25500000000E-02 0. -1.
          2   -1    0    0  501    0  0.00000000000E+00 -0.00000000000E+00 -0.20454693298E+04  0.20454693298E+04  0.25500000000E-02 0.  1.
   -5000001    1    1    2    0    0  0.60168232482E+02  0.99509690186E+02 -0.69010035383E+03  0.74314257919E+03  0.25000000000E+03 0.  0.
    5000001    1    1    2    0    0 -0.60168232482E+02 -0.99509690186E+02 -0.13145455499E+04  0.13431501768E+04  0.25000000000E+03 0.  0.
<mgrwt>
<rscale>  0 0.57793794E+03</rscale>
<asrwt>0</asrwt>
<pdfrwt beam="1">  1        2 0.31468751E+00 0.57793794E+03</pdfrwt>
<pdfrwt beam="2">  1       -2 0.62805287E-02 0.57793794E+03</pdfrwt>
<totfact> 0.94328137E+02</totfact>
</mgrwt>
</event>
<event>
 4    1  0.1805887E-005  0.1054472E+04  0.7818608E-02  0.9250739E-01
          2   -1    0    0  501    0  0.00000000000E+00  0.00000000000E+00  0.28115608799E+04  0.28115608799E+04  0.25500000000E-02 0.  1.
         -2   -1    0    0    0  501 -0.00000000000E+00 -0.00000000000E+00 -0.98869623680E+02  0.98869623713E+02  0.25500000000E-02 0. -1.
   -5000001    1    1    2    0    0  0.38281939501E+03  0.26248464923E+03  0.13414601282E+04  0.14413410963E+04  0.25000000000E+03 0.  0.
    5000001    1    1    2    0    0 -0.38281939501E+03 -0.26248464923E+03  0.13712311280E+04  0.14690894073E+04  0.25000000000E+03 0.  0.
<mgrwt>
<rscale>  0 0.10544723E+04</rscale>
<asrwt>0</asrwt>
<pdfrwt beam="1">  1        2 0.43254790E+00 0.10544723E+04</pdfrwt>
<pdfrwt beam="2">  1       -2 0.15210709E-01 0.10544723E+04</pdfrwt>
<totfact> 0.78980376E+01</totfact>
</mgrwt>
</event>
<event>
 4    1  0.1805887E-005  0.7515383E+03  0.7818608E-02  0.9632940E-01
         -2   -1    0    0    0  501 -0.00000000000E+00  0.00000000000E+00  0.63065325451E+02  0.63065325503E+02  0.25500000000E-02 0. -1.
          2   -1    0    0  501    0  0.00000000000E+00 -0.00000000000E+00 -0.22389870886E+04  0.22389870886E+04  0.25500000000E-02 0.  1.
   -5000001    1    1    2    0    0  0.30208846742E+02  0.27373116281E+03 -0.92411612173E+03  0.99615858695E+03  0.25000000000E+03 0.  0.
    5000001    1    1    2    0    0 -0.30208846742E+02 -0.27373116281E+03 -0.12518056414E+04  0.13058938272E+04  0.25000000000E+03 0.  0.
<mgrwt>
<rscale>  0 0.75153829E+03</rscale>
<asrwt>0</asrwt>
<pdfrwt beam="1">  1        2 0.34445949E+00 0.75153829E+03</pdfrwt>
<pdfrwt beam="2">  1       -2 0.97023595E-02 0.75153829E+03</pdfrwt>
<totfact> 0.36450922E+02</totfact>
</mgrwt>
</event>
<event>
 4    1  0.1805887E-005  0.6549531E+03  0.7818608E-02  0.9797529E-01
          2   -1    0    0  501    0  0.00000000000E+00  0.00000000000E+00  0.23771535109E+04  0.23771535109E+04  0.25500000000E-02 0.  1.
         -2   -1    0    0    0  501 -0.00000000000E+00 -0.00000000000E+00 -0.45113149646E+02  0.45113149718E+02  0.25500000000E-02 0. -1.
   -5000001    1    1    2    0    0  0.28405128467E+02 -0.15665496695E+03  0.65098477006E+03  0.71528232248E+03  0.25000000000E+03 0.  0.
    5000001    1    1    2    0    0 -0.28405128467E+02  0.15665496695E+03  0.16810555912E+04  0.17069843381E+04  0.25000000000E+03 0.  0.
<mgrwt>
<rscale>  0 0.65495307E+03</rscale>
<asrwt>0</asrwt>
<pdfrwt beam="1">  1        2 0.36571585E+00 0.65495307E+03</pdfrwt>
<pdfrwt beam="2">  1       -2 0.69404860E-02 0.65495307E+03</pdfrwt>
<totfact> 0.52688656E+02</totfact>
</mgrwt>
</event>
<event>
 4    1  0.1805887E-005  0.2171904E+04  0.7818608E-02  0.8530214E-01
         -2   -1    0    0    0  501 -0.00000000000E+00  0.00000000000E+00  0.77395959247E+03  0.77395959248E+03  0.25500000000E-02 0. -1.
          2   -1    0    0  501    0  0.00000000000E+00 -0.00000000000E+00 -0.15237124527E+04  0.15237124527E+04  0.25500000000E-02 0.  1.
   -5000001    1    1    2    0    0 -0.10255325292E+04  0.21798311779E+03 -0.23469575660E+03  0.11030936978E+04  0.25000000000E+03 0.  0.
    5000001    1    1    2    0    0  0.10255325292E+04 -0.21798311779E+03 -0.51505710364E+03  0.11945783474E+04  0.25000000000E+03 0.  0.
<mgrwt>
<rscale>  0 0.21719041E+04</rscale>
<asrwt>0</asrwt>
<pdfrwt beam="1">  1        2 0.23441730E+00 0.21719041E+04</pdfrwt>
<pdfrwt beam="2">  1       -2 0.11907071E+00 0.21719041E+04</pdfrwt>
<totfact> 0.61056305E+00</totfact>
</mgrwt>
</event>
<event>
 4    1  0.1805887E-005  0.7836235E+03  0.7818608E-02  0.9584029E-01
         -2   -1    0    0    0  501 -0.00000000000E+00  0.00000000000E+00  0.14291763454E+03  0.14291763456E+03  0.25500000000E-02 0. -1.
          2   -1    0    0  501    0  0.00000000000E+00 -0.00000000000E+00 -0.10741603681E+04  0.10741603681E+04  0.25500000000E-02 0.  1.
   -5000001    1    1    2    0    0 -0.22803855560E+03 -0.12495373838E+03 -0.70321359504E+03  0.79033181628E+03  0.25000000000E+03 0.  0.
    5000001    1    1    2    0    0  0.22803855560E+03  0.12495373838E+03 -0.22802913849E+03  0.42674618636E+03  0.25000000000E+03 0.  0.
<mgrwt>
<rscale>  0 0.78362353E+03</rscale>
<asrwt>0</asrwt>
<pdfrwt beam="1">  1        2 0.16525544E+00 0.78362353E+03</pdfrwt>
<pdfrwt beam="2">  1       -2 0.21987329E-01 0.78362353E+03</pdfrwt>
<totfact> 0.41030824E+02</totfact>
</mgrwt>
</event>
<event>
 4    1  0.1805887E-005  0.5695338E+03  0.7818608E-02  0.9970711E-01
         -2   -1    0    0    0  501 -0.00000000000E+00  0.00000000000E+00  0.77695040500E+02  0.77695040542E+02  0.25500000000E-02 0. -1.
          2   -1    0    0  501    0  0.00000000000E+00 -0.00000000000E+00 -0.10437240445E+04  0.10437240445E+04  0.25500000000E-02 0.  1.
   -5000001    1    1    2    0    0 -0.13497901026E+03  0.11665265107E+02 -0.45271663362E+03  0.53460991571E+03  0.25000000000E+03 0.  0.
    5000001    1    1    2    0    0  0.13497901026E+03 -0.11665265107E+02 -0.51331237034E+03  0.58680916929E+03  0.25000000000E+03 0.  0.
<mgrwt>
<rscale>  0 0.56953378E+03</rscale>
<asrwt>0</asrwt>
<pdfrwt beam="1">  1        2 0.16057292E+00 0.56953378E+03</pdfrwt>
<pdfrwt beam="2">  1       -2 0.11953084E-01 0.56953378E+03</pdfrwt>
<totfact> 0.12205819E+03</totfact>
</mgrwt>
</event>
<event>
 4    1  0.1805887E-005  0.7205603E+03  0.7818608E-02  0.9682703E-01
          2   -1    0    0  501    0  0.00000000000E+00  0.00000000000E+00  0.40815898446E+04  0.40815898446E+04  0.25500000000E-02 0.  1.
         -2   -1    0    0    0  501 -0.00000000000E+00 -0.00000000000E+00 -0.31801772789E+02  0.31801772891E+02  0.25500000000E-02 0. -1.
   -5000001    1    1    2    0    0  0.57726288961E+02 -0.21844820641E+03  0.27525974156E+04  0.27731470347E+04  0.25000000000E+03 0.  0.
    5000001    1    1    2    0    0 -0.57726288961E+02  0.21844820641E+03  0.12971906562E+04  0.13402445829E+04  0.25000000000E+03 0.  0.
<mgrwt>
<rscale>  0 0.72056032E+03</rscale>
<asrwt>0</asrwt>
<pdfrwt beam="1">  1        2 0.62793717E+00 0.72056032E+03</pdfrwt>
<pdfrwt beam="2">  1       -2 0.48925783E-02 0.72056032E+03</pdfrwt>
<totfact> 0.69606760E+01</totfact>
</mgrwt>
</event>
<event>
 4    1  0.1805887E-005  0.9397438E+03  0.7818608E-02  0.9377219E-01
          2   -1    0    0  501    0  0.00000000000E+00  0.00000000000E+00  0.15405163012E+04  0.15405163012E+04  0.25500000000E-02 0.  1.
         -2   -1    0    0    0  501 -0.00000000000E+00 -0.00000000000E+00 -0.14331533305E+03  0.14331533307E+03  0.25500000000E-02 0. -1.
   -5000001    1    1    2    0    0 -0.16654635998E+02 -0.39577865377E+03  0.76471486826E+03  0.89677586353E+03  0.25000000000E+03 0.  0.
    5000001    1    1    2    0    0  0.16654635998E+02  0.39577865377E+03  0.63248609988E+03  0.78705577072E+03  0.25000000000E+03 0.  0.
<mgrwt>
<rscale>  0 0.93974381E+03</rscale>
<asrwt>0</asrwt>
<pdfrwt beam="1">  1        2 0.23700252E+00 0.93974381E+03</pdfrwt>
<pdfrwt beam="2">  1       -2 0.22048512E-01 0.93974381E+03</pdfrwt>
<totfact> 0.21679423E+02</totfact>
</mgrwt>
</event>
<event>
 4    1  0.1805887E-005  0.6354201E+03  0.7818608E-02  0.9834529E-01
         -2   -1    0    0    0  501 -0.00000000000E+00  0.00000000000E+00  0.60085413114E+02  0.60085413168E+02  0.25500000000E-02 0. -1.
          2   -1    0    0  501    0  0.00000000000E+00 -0.00000000000E+00 -0.16799363851E+04  0.16799363852E+04  0.25500000000E-02 0.  1.
   -5000001    1    1    2    0    0 -0.72733260480E+00  0.17622307162E+03 -0.57460680407E+03  0.65094399088E+03  0.25000000000E+03 0.  0.
    5000001    1    1    2    0    0  0.72733260480E+00 -0.17622307162E+03 -0.10452441680E+04  0.10890778074E+04  0.25000000000E+03 0.  0.
<mgrwt>
<rscale>  0 0.63542009E+03</rscale>
<asrwt>0</asrwt>
<pdfrwt beam="1">  1        2 0.25845172E+00 0.63542009E+03</pdfrwt>
<pdfrwt beam="2">  1       -2 0.92439110E-02 0.63542009E+03</pdfrwt>
<totfact> 0.80207865E+02</totfact>
</mgrwt>
</event>
<event>
 4    1  0.1805887E-005  0.5970566E+03  0.7818608E-02  0.9911531E-01
          2   -1    0    0  501    0  0.00000000000E+00  0.00000000000E+00  0.19423243719E+04  0.19423243719E+04  0.25500000000E-02 0.  1.
         -2   -1    0    0    0  501 -0.00000000000E+00 -0.00000000000E+00 -0.45882735086E+02  0.45882735156E+02  0.25500000000E-02 0. -1.
   -5000001    1    1    2    0    0 -0.77145291741E+02 -0.75999409029E+02  0.13545896602E+04  0.13817164882E+04  0.25000000000E+03 0.  0.
    5000001    1    1    2    0    0  0.77145291741E+02  0.75999409029E+02  0.54185197657E+03  0.60649061882E+03  0.25000000000E+03 0.  0.
<mgrwt>
<rscale>  0 0.59705663E+03</rscale>
<asrwt>0</asrwt>
<pdfrwt beam="1">  1        2 0.29881911E+00 0.59705663E+03</pdfrwt>
<pdfrwt beam="2">  1       -2 0.70588828E-02 0.59705663E+03</pdfrwt>
<totfact> 0.89123944E+02</totfact>
</mgrwt>
</event>
<event>
 4    1  0.1805887E-005  0.1024434E+04  0.7818608E-02  0.9282145E-01
         -2   -1    0    0    0  501 -0.00000000000E+00  0.00000000000E+00  0.55966701511E+03  0.55966701511E+03  0.25500000000E-02 0. -1.
          2   -1    0    0  501    0  0.00000000000E+00 -0.00000000000E+00 -0.46878955146E+03  0.46878955147E+03  0.25500000000E-02 0.  1.
   -5000001    1    1    2    0    0 -0.37951537333E+02  0.34246355428E+03 -0.24053855137E+03  0.48895848483E+03  0.25000000000E+03 0.  0.
    5000001    1    1    2    0    0  0.37951537333E+02 -0.34246355428E+03  0.33141601501E+03  0.53949808174E+03  0.25000000000E+03 0.  0.
<mgrwt>
<rscale>  0 0.10244336E+04</rscale>
<asrwt>0</asrwt>
<pdfrwt beam="1">  1        2 0.72121470E-01 0.10244336E+04</pdfrwt>
<pdfrwt beam="2">  1       -2 0.86102618E-01 0.10244336E+04</pdfrwt>
<totfact> 0.77456229E+01</totfact>
</mgrwt>
</event>
<event>
 4    1  0.1805887E-005  0.5312495E+03  0.7818608E-02  0.1005930E+00
         -2   -1    0    0    0  501 -0.00000000000E+00  0.00000000000E+00  0.67349648346E+02  0.67349648394E+02  0.25500000000E-02 0. -1.
          2   -1    0    0  501    0  0.00000000000E+00 -0.00000000000E+00 -0.10476150003E+04  0.10476150003E+04  0.25500000000E-02 0.  1.
   -5000001    1    1    2    0    0  0.43064672712E+02  0.77394013715E+02 -0.52069845577E+03  0.58435544084E+03  0.25000000000E+03 0.  0.
    5000001    1    1    2    0    0 -0.43064672712E+02 -0.77394013715E+02 -0.45956689616E+03  0.53060920784E+03  0.25000000000E+03 0.  0.
<mgrwt>
<rscale>  0 0.53124948E+03</rscale>
<asrwt>0</asrwt>
<pdfrwt beam="1">  1        2 0.16117153E+00 0.53124948E+03</pdfrwt>
<pdfrwt beam="2">  1       -2 0.10361485E-01 0.53124948E+03</pdfrwt>
<totfact> 0.15341782E+03</totfact>
</mgrwt>
</event>
<event>
 4    1  0.1805887E-005  0.7464089E+03  0.7818608E-02  0.9641001E-01
         -2   -1    0    0    0  501 -0.00000000000E+00  0.00000000000E+00  0.16918988879E+03  0.16918988881E+03  0.25500000000E-02 0. -1.
          2   -1    0    0  501    0  0.00000000000E+00 -0.00000000000E+00 -0.82322632461E+03  0.82322632462E+03  0.25500000000E-02 0.  1.
   -5000001    1    1    2    0    0 -0.17591529695E+03  0.17358918052E+03 -0.16040980210E+03  0.38640742735E+03  0.25000000000E+03 0.  0.
    5000001    1    1    2    0    0  0.17591529695E+03 -0.17358918052E+03 -0.49362663372E+03  0.60600878609E+03  0.25000000000E+03 0.  0.
<mgrwt>
<rscale>  0 0.74640892E+03</rscale>
<asrwt>0</asrwt>
<pdfrwt beam="1">  1        2 0.12665020E+00 0.74640892E+03</pdfrwt>
<pdfrwt beam="2">  1       -2 0.26029214E-01 0.74640892E+03</pdfrwt>
<totfact> 0.44397625E+02</totfact>
</mgrwt>
</event>
<event>
 4    1  0.1805887E-005  0.5062361E+03  0.7818608E-02  0.1012164E+00
          2   -1    0    0  501    0  0.00000000000E+00  0.00000000000E+00  0.37381783664E+03  0.37381783665E+03  0.25500000000E-02 0.  1.
         -2   -1    0    0    0  501 -0.00000000000E+00 -0.00000000000E+00 -0.17139028310E+03  0.17139028312E+03  0.25500000000E-02 0. -1.
   -5000001    1    1    2    0    0  0.20186364066E+02 -0.24276332354E+02  0.12696957709E+03  0.28216680016E+03  0.25000000000E+03 0.  0.
    5000001    1    1    2    0    0 -0.20186364066E+02  0.24276332354E+02  0.75457976453E+02  0.26304131960E+03  0.25000000000E+03 0.  0.
<mgrwt>
<rscale>  0 0.50623609E+03</rscale>
<asrwt>0</asrwt>
<pdfrwt beam="1">  1        2 0.57510436E-01 0.50623609E+03</pdfrwt>
<pdfrwt beam="2">  1       -2 0.26367736E-01 0.50623609E+03</pdfrwt>
<totfact> 0.11173911E+03</totfact>
</mgrwt>
</event>
<event>
 4    1  0.1805887E-005  0.1517266E+04  0.7818608E-02  0.8873052E-01
          2   -1    0    0  501    0  0.00000000000E+00  0.00000000000E+00  0.15036155595E+04  0.15036155595E+04  0.25500000000E-02 0.  1.
         -2   -1    0    0    0  501 -0.00000000000E+00 -0.00000000000E+00 -0.38275987068E+03  0.38275987069E+03  0.25500000000E-02 0. -1.
   -5000001    1    1    2    0    0  0.29087477116E+03  0.46076923969E+03 -0.17536732037E+02  0.59976992398E+03  0.25000000000E+03 0.  0.
    5000001    1    1    2    0    0 -0.29087477116E+03 -0.46076923969E+03  0.11383924208E+04  0.12866055062E+04  0.25000000000E+03 0.  0.
<mgrwt>
<rscale>  0 0.15172656E+04</rscale>
<asrwt>0</asrwt>
<pdfrwt beam="1">  1        2 0.23132547E+00 0.15172656E+04</pdfrwt>
<pdfrwt beam="2">  1       -2 0.58886135E-01 0.15172656E+04</pdfrwt>
<totfact> 0.32845570E+01</totfact>
</mgrwt>
</event>
<event>
 4    1  0.1805887E-005  0.8466523E+03  0.7818608E-02  0.9494841E-01
         -2   -1    0    0    0  501 -0.00000000000E+00  0.00000000000E+00  0.82589618487E+02  0.82589618526E+02  0.25500000000E-02 0. -1.
          2   -1    0    0  501    0  0.00000000000E+00 -0.00000000000E+00 -0.21698251870E+04  0.21698251870E+04  0.25500000000E-02 0.  1.
   -5000001    1    1    2    0    0  0.31038077320E+03 -0.48503770343E+02 -0.14007054121E+04  0.14571082635E+04  0.25000000000E+03 0.  0.
    5000001    1    1    2    0    0 -0.31038077320E+03  0.48503770343E+02 -0.68653015643E+03  0.79530654203E+03  0.25000000000E+03 0.  0.
<mgrwt>
<rscale>  0 0.84665231E+03</rscale>
<asrwt>0</asrwt>
<pdfrwt beam="1">  1        2 0.33381922E+00 0.84665231E+03</pdfrwt>
<pdfrwt beam="2">  1       -2 0.12706097E-01 0.84665231E+03</pdfrwt>
<totfact> 0.25348999E+02</totfact>
</mgrwt>
</event>
<event>
 4    1  0.1805887E-005  0.6772111E+03  0.7818608E-02  0.9757018E-01
         -2   -1    0    0    0  501 -0.00000000000E+00  0.00000000000E+00  0.10189548442E+04  0.10189548442E+04  0.25500000000E-02 0. -1.
          2   -1    0    0  501    0  0.00000000000E+00 -0.00000000000E+00 -0.11252089609E+03  0.11252089611E+03  0.25500000000E-02 0.  1.
   -5000001    1    1    2    0    0  0.15758179760E+03 -0.67409237213E+02  0.20105710382E+03  0.36373065198E+03  0.25000000000E+03 0.  0.
    5000001    1    1    2    0    0 -0.15758179760E+03  0.67409237213E+02  0.70537684426E+03  0.76774508831E+03  0.25000000000E+03 0.  0.
<mgrwt>
<rscale>  0 0.67721108E+03</rscale>
<asrwt>0</asrwt>
<pdfrwt beam="1">  1        2 0.17310907E-01 0.67721108E+03</pdfrwt>
<pdfrwt beam="2">  1       -2 0.15676229E+00 0.67721108E+03</pdfrwt>
<totfact> 0.91145042E+01</totfact>
</mgrwt>
</event>
<event>
 4    1  0.1805887E-005  0.5917050E+03  0.7818608E-02  0.9922767E-01
         -2   -1    0    0    0  501 -0.00000000000E+00  0.00000000000E+00  0.15016688447E+03  0.15016688449E+03  0.25500000000E-02 0. -1.
          2   -1    0    0  501    0  0.00000000000E+00 -0.00000000000E+00 -0.58287623172E+03  0.58287623172E+03  0.25500000000E-02 0.  1.
   -5000001    1    1    2    0    0  0.13706494311E+03  0.13554358636E+02 -0.31278100777E+03  0.42344123334E+03  0.25000000000E+03 0.  0.
    5000001    1    1    2    0    0 -0.13706494311E+03 -0.13554358636E+02 -0.11992833948E+03  0.30960188287E+03  0.25000000000E+03 0.  0.
<mgrwt>
<rscale>  0 0.59170502E+03</rscale>
<asrwt>0</asrwt>
<pdfrwt beam="1">  1        2 0.89673265E-01 0.59170502E+03</pdfrwt>
<pdfrwt beam="2">  1       -2 0.23102598E-01 0.59170502E+03</pdfrwt>
<totfact> 0.85247017E+02</totfact>
</mgrwt>
</event>
<event>
 4    1  0.1805887E-005  0.6098375E+03  0.7818608E-02  0.9885204E-01
          2   -1    0    0  501    0  0.00000000000E+00  0.00000000000E+00  0.10664498348E+03  0.10664498351E+03  0.25500000000E-02 0.  1.
         -2   -1    0    0    0  501 -0.00000000000E+00 -0.00000000000E+00 -0.87182212627E+03  0.87182212627E+03  0.25500000000E-02 0. -1.
   -5000001    1    1    2    0    0  0.11479841892E+03  0.97640994690E+02 -0.52395533060E+03  0.59978465243E+03  0.25000000000E+03 0.  0.
    5000001    1    1    2    0    0 -0.11479841892E+03 -0.97640994690E+02 -0.24122181219E+03  0.37868245735E+03  0.25000000000E+03 0.  0.
<mgrwt>
<rscale>  0 0.60983754E+03</rscale>
<asrwt>0</asrwt>
<pdfrwt beam="1">  1        2 0.16406921E-01 0.60983754E+03</pdfrwt>
<pdfrwt beam="2">  1       -2 0.13412648E+00 0.60983754E+03</pdfrwt>
<totfact> 0.14640485E+02</totfact>
</mgrwt>
</event>
<event>
 4    1  0.1805887E-005  0.5785834E+03  0.7818608E-02  0.9950863E-01
          2   -1    0    0  501    0  0.00000000000E+00  0.00000000000E+00  0.80038583232E+03  0.80038583232E+03  0.25500000000E-02 0.  1.
         -2   -1    0    0    0  501 -0.00000000000E+00 -0.00000000000E+00 -0.10456167381E+03  0.10456167384E+03  0.25500000000E-02 0. -1.
   -5000001    1    1    2    0    0  0.95482935185E+02  0.89140829237E+02  0.24743804768E+03  0.37521815760E+03  0.25000000000E+03 0.  0.
    5000001    1    1    2    0    0 -0.95482935185E+02 -0.89140829237E+02  0.44838611083E+03  0.52972934857E+03  0.25000000000E+03 0.  0.
<mgrwt>
<rscale>  0 0.57858338E+03</rscale>
<asrwt>0</asrwt>
<pdfrwt beam="1">  1        2 0.12313629E+00 0.57858338E+03</pdfrwt>
<pdfrwt beam="2">  1       -2 0.16086411E-01 0.57858338E+03</pdfrwt>
<totfact> 0.10762693E+03</totfact>
</mgrwt>
</event>
<event>
 4    1  0.1805887E-005  0.8611535E+03  0.7818608E-02  0.9475488E-01
         -2   -1    0    0    0  501 -0.00000000000E+00  0.00000000000E+00  0.91780610410E+02  0.91780610445E+02  0.25500000000E-02 0. -1.
          2   -1    0    0  501    0  0.00000000000E+00 -0.00000000000E+00 -0.20199947940E+04  0.20199947940E+04  0.25500000000E-02 0.  1.
   -5000001    1    1    2    0    0  0.24843519216E+03 -0.18694764177E+03 -0.13612442570E+04  0.14185046326E+04  0.25000000000E+03 0.  0.
    5000001    1    1    2    0    0 -0.24843519216E+03  0.18694764177E+03 -0.56696992664E+03  0.69327077191E+03  0.25000000000E+03 0.  0.
<mgrwt>
<rscale>  0 0.86115354E+03</rscale>
<asrwt>0</asrwt>
<pdfrwt beam="1">  1        2 0.31076840E+00 0.86115354E+03</pdfrwt>
<pdfrwt beam="2">  1       -2 0.14120095E-01 0.86115354E+03</pdfrwt>
<totfact> 0.25651877E+02</totfact>
</mgrwt>
</event>
<event>
 4    1  0.1805887E-005  0.8383714E+03  0.7818608E-02  0.9506079E-01
         -2   -1    0    0    0  501 -0.00000000000E+00  0.00000000000E+00  0.10671518222E+04  0.10671518222E+04  0.25500000000E-02 0. -1.
          2   -1    0    0  501    0  0.00000000000E+00 -0.00000000000E+00 -0.16465945004E+03  0.16465945006E+03  0.25500000000E-02 0.  1.
   -5000001    1    1    2    0    0 -0.25816480268E+02  0.28487681211E+03  0.71158586326E+03  0.80664473563E+03  0.25000000000E+03 0.  0.
    5000001    1    1    2    0    0  0.25816480268E+02 -0.28487681211E+03  0.19090650888E+03  0.42516653662E+03  0.25000000000E+03 0.  0.
<mgrwt>
<rscale>  0 0.83837135E+03</rscale>
<asrwt>0</asrwt>
<pdfrwt beam="1">  1        2 0.25332224E-01 0.83837135E+03</pdfrwt>
<pdfrwt beam="2">  1       -2 0.16417720E+00 0.83837135E+03</pdfrwt>
<totfact> 0.51038798E+01</totfact>
</mgrwt>
</event>
<event>
 4    1  0.1805887E-005  0.9995257E+03  0.7818608E-02  0.9309065E-01
         -2   -1    0    0    0  501 -0.00000000000E+00  0.00000000000E+00  0.87741624437E+02  0.87741624474E+02  0.25500000000E-02 0. -1.
          2   -1    0    0  501    0  0.00000000000E+00 -0.00000000000E+00 -0.28465726189E+04  0.28465726189E+04  0.25500000000E-02 0.  1.
   -5000001    1    1    2    0    0 -0.35568508315E+03  0.16399409995E+03 -0.19195931996E+04  0.19750301251E+04  0.25000000000E+03 0.  0.
    5000001    1    1    2    0    0  0.35568508315E+03 -0.16399409995E+03 -0.83923779483E+03  0.95928411822E+03  0.25000000000E+03 0.  0.
<mgrwt>
<rscale>  0 0.99952570E+03</rscale>
<asrwt>0</asrwt>
<pdfrwt beam="1">  1        2 0.43793418E+00 0.99952570E+03</pdfrwt>
<pdfrwt beam="2">  1       -2 0.13498714E-01 0.99952570E+03</pdfrwt>
<totfact> 0.92587640E+01</totfact>
</mgrwt>
</event>
<event>
 4    1  0.1805887E-005  0.7397406E+03  0.7818608E-02  0.9651585E-01
          2   -1    0    0  501    0  0.00000000000E+00  0.00000000000E+00  0.70158375220E+03  0.70158375220E+03  0.25500000000E-02 0.  1.
         -2   -1    0    0    0  501 -0.00000000000E+00 -0.00000000000E+00 -0.19499318224E+03  0.19499318226E+03  0.25500000000E-02 0. -1.
   -5000001    1    1    2    0    0 -0.92366370274E+02  0.12074125228E+03 -0.20936534061E+02  0.29333996458E+03  0.25000000000E+03 0.  0.
    5000001    1    1    2    0    0  0.92366370274E+02 -0.12074125228E+03  0.52752710402E+03  0.60323696988E+03  0.25000000000E+03 0.  0.
<mgrwt>
<rscale>  0 0.73974063E+03</rscale>
<asrwt>0</asrwt>
<pdfrwt beam="1">  1        2 0.10793596E+00 0.73974063E+03</pdfrwt>
<pdfrwt beam="2">  1       -2 0.29998951E-01 0.73974063E+03</pdfrwt>
<totfact> 0.42130395E+02</totfact>
</mgrwt>
</event>
<event>
 4    1  0.1805887E-005  0.7783223E+03  0.7818608E-02  0.9591936E-01
         -2   -1    0    0    0  501 -0.00000000000E+00  0.00000000000E+00  0.31118826644E+03  0.31118826645E+03  0.25500000000E-02 0. -1.
          2   -1    0    0  501    0  0.00000000000E+00 -0.00000000000E+00 -0.48667135166E+03  0.48667135167E+03  0.25500000000E-02 0.  1.
   -5000001    1    1    2    0    0  0.22302227201E+03 -0.30224632942E+02 -0.28834207711E+03  0.44305035344E+03  0.25000000000E+03 0.  0.
    5000001    1    1    2    0    0 -0.22302227201E+03  0.30224632942E+02  0.11285899189E+03  0.35480926467E+03  0.25000000000E+03 0.  0.
<mgrwt>
<rscale>  0 0.77832233E+03</rscale>
<asrwt>0</asrwt>
<pdfrwt beam="1">  1        2 0.74872516E-01 0.77832233E+03</pdfrwt>
<pdfrwt beam="2">  1       -2 0.47875118E-01 0.77832233E+03</pdfrwt>
<totfact> 0.26465466E+02</totfact>
</mgrwt>
</event>
<event>
 4    1  0.1805887E-005  0.9515705E+03  0.7818608E-02  0.9363317E-01
          2   -1    0    0  501    0  0.00000000000E+00  0.00000000000E+00  0.46905086284E+03  0.46905086284E+03  0.25500000000E-02 0.  1.
         -2   -1    0    0    0  501 -0.00000000000E+00 -0.00000000000E+00 -0.48261630256E+03  0.48261630257E+03  0.25500000000E-02 0. -1.
   -5000001    1    1    2    0    0  0.31388108985E+03  0.25324110164E+03  0.28137858462E+02  0.47533581099E+03  0.25000000000E+03 0.  0.
    5000001    1    1    2    0    0 -0.31388108985E+03 -0.25324110164E+03 -0.41703298189E+02  0.47633135443E+03  0.25000000000E+03 0.  0.
<mgrwt>
<rscale>  0 0.95157048E+03</rscale>
<asrwt>0</asrwt>
<pdfrwt beam="1">  1        2 0.72161671E-01 0.95157048E+03</pdfrwt>
<pdfrwt beam="2">  1       -2 0.74248662E-01 0.95157048E+03</pdfrwt>
<totfact> 0.10845579E+02</totfact>
</mgrwt>
</event>
<event>
 4    1  0.1805887E-005  0.1863809E+04  0.7818608E-02  0.8673084E-01
         -2   -1    0    0    0  501 -0.00000000000E+00  0.00000000000E+00  0.33989290735E+03  0.33989290736E+03  0.25500000000E-02 0. -1.
          2   -1    0    0  501    0  0.00000000000E+00 -0.00000000000E+00 -0.25550580526E+04  0.25550580526E+04  0.25500000000E-02 0.  1.
   -5000001    1    1    2    0    0  0.41802527633E+03  0.59457418685E+03 -0.28909131453E+03  0.82118048166E+03  0.25000000000E+03 0.  0.
    5000001    1    1    2    0    0 -0.41802527633E+03 -0.59457418685E+03 -0.19260738308E+04  0.20737704783E+04  0.25000000000E+03 0.  0.
<mgrwt>
<rscale>  0 0.18638091E+04</rscale>
<asrwt>0</asrwt>
<pdfrwt beam="1">  1        2 0.39308584E+00 0.18638091E+04</pdfrwt>
<pdfrwt beam="2">  1       -2 0.52291218E-01 0.18638091E+04</pdfrwt>
<totfact> 0.10495423E+01</totfact>
</mgrwt>
</event>
<event>
 4    1  0.1805887E-005  0.6518450E+03  0.7818608E-02  0.9803323E-01
          2   -1    0    0  501    0  0.00000000000E+00  0.00000000000E+00  0.15069050056E+04  0.15069050056E+04  0.25500000000E-02 0.  1.
         -2   -1    0    0    0  501 -0.00000000000E+00 -0.00000000000E+00 -0.70492481643E+02  0.70492481689E+02  0.25500000000E-02 0. -1.
   -5000001    1    1    2    0    0  0.18439263239E+03  0.86558430154E+02  0.83254397672E+03  0.89281715814E+03  0.25000000000E+03 0.  0.
    5000001    1    1    2    0    0 -0.18439263239E+03 -0.86558430154E+02  0.60386854725E+03  0.68458032915E+03  0.25000000000E+03 0.  0.
<mgrwt>
<rscale>  0 0.65184499E+03</rscale>
<asrwt>0</asrwt>
<pdfrwt beam="1">  1        2 0.23183154E+00 0.65184499E+03</pdfrwt>
<pdfrwt beam="2">  1       -2 0.10844997E-01 0.65184499E+03</pdfrwt>
<totfact> 0.76933226E+02</totfact>
</mgrwt>
</event>
<event>
 4    1  0.1805887E-005  0.6275095E+03  0.7818608E-02  0.9849921E-01
         -2   -1    0    0    0  501 -0.00000000000E+00  0.00000000000E+00  0.84569897549E+02  0.84569897588E+02  0.25500000000E-02 0. -1.
          2   -1    0    0  501    0  0.00000000000E+00 -0.00000000000E+00 -0.11640318988E+04  0.11640318988E+04  0.25500000000E-02 0.  1.
   -5000001    1    1    2    0    0 -0.72565723219E+02  0.13206329188E+03 -0.31081571310E+03  0.42639524476E+03  0.25000000000E+03 0.  0.
    5000001    1    1    2    0    0  0.72565723219E+02 -0.13206329188E+03 -0.76864628817E+03  0.82220655164E+03  0.25000000000E+03 0.  0.
<mgrwt>
<rscale>  0 0.62750955E+03</rscale>
<asrwt>0</asrwt>
<pdfrwt beam="1">  1        2 0.17908182E+00 0.62750955E+03</pdfrwt>
<pdfrwt beam="2">  1       -2 0.13010754E-01 0.62750955E+03</pdfrwt>
<totfact> 0.89530486E+02</totfact>
</mgrwt>
</event>
<event>
 4    1  0.1805887E-005  0.6763461E+03  0.7818608E-02  0.9758561E-01
          2   -1    0    0  501    0  0.00000000000E+00  0.00000000000E+00  0.84687796428E+03  0.84687796428E+03  0.25500000000E-02 0.  1.
         -2   -1    0    0    0  501 -0.00000000000E+00 -0.00000000000E+00 -0.13503834688E+03  0.13503834690E+03  0.25500000000E-02 0. -1.
   -5000001    1    1    2    0    0  0.17274278288E+03 -0.74589483242E+02  0.16967450508E+03  0.35593973889E+03  0.25000000000E+03 0.  0.
    5000001    1    1    2    0    0 -0.17274278288E+03  0.74589483242E+02  0.54216511232E+03  0.62597657230E+03  0.25000000000E+03 0.  0.
<mgrwt>
<rscale>  0 0.67634607E+03</rscale>
<asrwt>0</asrwt>
<pdfrwt beam="1">  1        2 0.13028892E+00 0.67634607E+03</pdfrwt>
<pdfrwt beam="2">  1       -2 0.20775131E-01 0.67634607E+03</pdfrwt>
<totfact> 0.64055210E+02</totfact>
</mgrwt>
</event>
<event>
 4    1  0.1805887E-005  0.8229805E+03  0.7818608E-02  0.9527337E-01
          2   -1    0    0  501    0  0.00000000000E+00  0.00000000000E+00  0.32279529510E+03  0.32279529511E+03  0.25500000000E-02 0.  1.
         -2   -1    0    0    0  501 -0.00000000000E+00 -0.00000000000E+00 -0.52455610841E+03  0.52455610841E+03  0.25500000000E-02 0. -1.
   -5000001    1    1    2    0    0  0.17188763411E+03  0.22875153460E+03 -0.26351890773E+03  0.46240116574E+03  0.25000000000E+03 0.  0.
    5000001    1    1    2    0    0 -0.17188763411E+03 -0.22875153460E+03  0.61758094424E+02  0.38495023778E+03  0.25000000000E+03 0.  0.
<mgrwt>
<rscale>  0 0.82298054E+03</rscale>
<asrwt>0</asrwt>
<pdfrwt beam="1">  1        2 0.49660815E-01 0.82298054E+03</pdfrwt>
<pdfrwt beam="2">  1       -2 0.80700940E-01 0.82298054E+03</pdfrwt>
<totfact> 0.13806463E+02</totfact>
</mgrwt>
</event>
<event>
 4    1  0.1805887E-005  0.1152396E+04  0.7818608E-02  0.9155576E-01
         -2   -1    0    0    0  501 -0.00000000000E+00  0.00000000000E+00  0.65303707516E+03  0.65303707516E+03  0.25500000000E-02 0. -1.
          2   -1    0    0  501    0  0.00000000000E+00 -0.00000000000E+00 -0.50840044378E+03  0.50840044378E+03  0.25500000000E-02 0.  1.
   -5000001    1    1    2    0    0 -0.56882622819E+02 -0.39743434475E+03 -0.25937565069E+03  0.53941210529E+03  0.25000000000E+03 0.  0.
    5000001    1    1    2    0    0  0.56882622819E+02  0.39743434475E+03  0.40401228207E+03  0.62202541365E+03  0.25000000000E+03 0.  0.
<mgrwt>
<rscale>  0 0.11523964E+04</rscale>
<asrwt>0</asrwt>
<pdfrwt beam="1">  1        2 0.78215453E-01 0.11523964E+04</pdfrwt>
<pdfrwt beam="2">  1       -2 0.10046724E+00 0.11523964E+04</pdfrwt>
<totfact> 0.48840559E+01</totfact>
</mgrwt>
</event>
<event>
 4    1  0.1805887E-005  0.7817966E+03  0.7818608E-02  0.9586746E-01
         -2   -1    0    0    0  501 -0.00000000000E+00  0.00000000000E+00  0.14075160843E+03  0.14075160845E+03  0.25500000000E-02 0. -1.
          2   -1    0    0  501    0  0.00000000000E+00 -0.00000000000E+00 -0.10856107937E+04  0.10856107937E+04  0.25500000000E-02 0.  1.
   -5000001    1    1    2    0    0  0.17055287241E+03  0.24470887085E+03 -0.52965298090E+03  0.65726934657E+03  0.25000000000E+03 0.  0.
    5000001    1    1    2    0    0 -0.17055287241E+03 -0.24470887085E+03 -0.41520620433E+03  0.56909305555E+03  0.25000000000E+03 0.  0.
<mgrwt>
<rscale>  0 0.78179656E+03</rscale>
<asrwt>0</asrwt>
<pdfrwt beam="1">  1        2 0.16701704E+00 0.78179656E+03</pdfrwt>
<pdfrwt beam="2">  1       -2 0.21654094E-01 0.78179656E+03</pdfrwt>
<totfact> 0.41478705E+02</totfact>
</mgrwt>
</event>
<event>
 4    1  0.1805887E-005  0.6945750E+03  0.7818608E-02  0.9726555E-01
          2   -1    0    0  501    0  0.00000000000E+00  0.00000000000E+00  0.71101919207E+03  0.71101919208E+03  0.25500000000E-02 0.  1.
         -2   -1    0    0    0  501 -0.00000000000E+00 -0.00000000000E+00 -0.16962775782E+03  0.16962775784E+03  0.25500000000E-02 0. -1.
   -5000001    1    1    2    0    0 -0.21209763290E+03 -0.10672371100E+03  0.21791060639E+03  0.40787300566E+03  0.25000000000E+03 0.  0.
    5000001    1    1    2    0    0  0.21209763290E+03  0.10672371100E+03  0.32348082787E+03  0.47277394426E+03  0.25000000000E+03 0.  0.
<mgrwt>
<rscale>  0 0.69457495E+03</rscale>
<asrwt>0</asrwt>
<pdfrwt beam="1">  1        2 0.10938757E+00 0.69457495E+03</pdfrwt>
<pdfrwt beam="2">  1       -2 0.26096579E-01 0.69457495E+03</pdfrwt>
<totfact> 0.53566739E+02</totfact>
</mgrwt>
</event>
<event>
 4    1  0.1805887E-005  0.7973121E+03  0.7818608E-02  0.9563916E-01
         -2   -1    0    0    0  501 -0.00000000000E+00  0.00000000000E+00  0.10724985402E+03  0.10724985405E+03  0.25500000000E-02 0. -1.
          2   -1    0    0  501    0  0.00000000000E+00 -0.00000000000E+00 -0.14818354843E+04  0.14818354843E+04  0.25500000000E-02 0.  1.
   -5000001    1    1    2    0    0  0.67615219394E+02 -0.25924111837E+03 -0.37438433749E+03  0.52387155631E+03  0.25000000000E+03 0.  0.
    5000001    1    1    2    0    0 -0.67615219394E+02  0.25924111837E+03 -0.10002012928E+04  0.10652137820E+04  0.25000000000E+03 0.  0.
<mgrwt>
<rscale>  0 0.79731208E+03</rscale>
<asrwt>0</asrwt>
<pdfrwt beam="1">  1        2 0.22797468E+00 0.79731208E+03</pdfrwt>
<pdfrwt beam="2">  1       -2 0.16499979E-01 0.79731208E+03</pdfrwt>
<totfact> 0.39088148E+02</totfact>
</mgrwt>
</event>
<event>
 4    1  0.1805887E-005  0.5241190E+03  0.7818608E-02  0.1007668E+00
         -2   -1    0    0    0  501 -0.00000000000E+00  0.00000000000E+00  0.12472760190E+03  0.12472760193E+03  0.25500000000E-02 0. -1.
          2   -1    0    0  501    0  0.00000000000E+00 -0.00000000000E+00 -0.55060140797E+03  0.55060140797E+03  0.25500000000E-02 0.  1.
   -5000001    1    1    2    0    0  0.32643528940E+02  0.64884197561E+02 -0.17428966761E+03  0.31329290977E+03  0.25000000000E+03 0.  0.
    5000001    1    1    2    0    0 -0.32643528940E+02 -0.64884197561E+02 -0.25158413846E+03  0.36203610013E+03  0.25000000000E+03 0.  0.
<mgrwt>
<rscale>  0 0.52411904E+03</rscale>
<asrwt>0</asrwt>
<pdfrwt beam="1">  1        2 0.84707908E-01 0.52411904E+03</pdfrwt>
<pdfrwt beam="2">  1       -2 0.19188862E-01 0.52411904E+03</pdfrwt>
<totfact> 0.12629218E+03</totfact>
</mgrwt>
</event>
<event>
 4    1  0.1805887E-005  0.7309828E+03  0.7818608E-02  0.9665667E-01
         -2   -1    0    0    0  501 -0.00000000000E+00  0.00000000000E+00  0.44794692461E+02  0.44794692533E+02  0.25500000000E-02 0. -1.
          2   -1    0    0  501    0  0.00000000000E+00 -0.00000000000E+00 -0.29821383120E+04  0.29821383120E+04  0.25500000000E-02 0.  1.
   -5000001    1    1    2    0    0  0.73898792681E+02 -0.24580536554E+03 -0.11699902992E+04  0.12236251916E+04  0.25000000000E+03 0.  0.
    5000001    1    1    2    0    0 -0.73898792681E+02  0.24580536554E+03 -0.17673533204E+04  0.18033078130E+04  0.25000000000E+03 0.  0.
<mgrwt>
<rscale>  0 0.73098281E+03</rscale>
<asrwt>0</asrwt>
<pdfrwt beam="1">  1        2 0.45879035E+00 0.73098281E+03</pdfrwt>
<pdfrwt beam="2">  1       -2 0.68914935E-02 0.73098281E+03</pdfrwt>
<totfact> 0.23559814E+02</totfact>
</mgrwt>
</event>
<event>
 4    1  0.1805887E-005  0.1650008E+04  0.7818608E-02  0.8790402E-01
         -2   -1    0    0    0  501 -0.00000000000E+00  0.00000000000E+00  0.49569982847E+03  0.49569982847E+03  0.25500000000E-02 0. -1.
          2   -1    0    0  501    0  0.00000000000E+00 -0.00000000000E+00 -0.13730725847E+04  0.13730725847E+04  0.25500000000E-02 0.  1.
   -5000001    1    1    2    0    0 -0.33507568779E+03 -0.58000590508E+03 -0.90490557095E+03  0.11532721530E+04  0.25000000000E+03 0.  0.
    5000001    1    1    2    0    0  0.33507568779E+03  0.58000590508E+03  0.27532814705E+02  0.71550026021E+03  0.25000000000E+03 0.  0.
<mgrwt>
<rscale>  0 0.16500083E+04</rscale>
<asrwt>0</asrwt>
<pdfrwt beam="1">  1        2 0.21124193E+00 0.16500083E+04</pdfrwt>
<pdfrwt beam="2">  1       -2 0.76261513E-01 0.16500083E+04</pdfrwt>
<totfact> 0.22040791E+01</totfact>
</mgrwt>
</event>
<event>
 4    1  0.1805887E-005  0.8185618E+03  0.7818608E-02  0.9533532E-01
          2   -1    0    0  501    0  0.00000000000E+00  0.00000000000E+00  0.38510137135E+03  0.38510137136E+03  0.25500000000E-02 0.  1.
         -2   -1    0    0    0  501 -0.00000000000E+00 -0.00000000000E+00 -0.43497860073E+03  0.43497860074E+03  0.25500000000E-02 0. -1.
   -5000001    1    1    2    0    0  0.30596907243E+03  0.64672425185E+02 -0.11001524938E+03  0.41521434339E+03  0.25000000000E+03 0.  0.
    5000001    1    1    2    0    0 -0.30596907243E+03 -0.64672425185E+02  0.60138020002E+02  0.40486562871E+03  0.25000000000E+03 0.  0.
<mgrwt>
<rscale>  0 0.81856180E+03</rscale>
<asrwt>0</asrwt>
<pdfrwt beam="1">  1        2 0.59246365E-01 0.81856180E+03</pdfrwt>
<pdfrwt beam="2">  1       -2 0.66919785E-01 0.81856180E+03</pdfrwt>
<totfact> 0.17138037E+02</totfact>
</mgrwt>
</event>
<event>
 4    1  0.1805887E-005  0.1008293E+04  0.7818608E-02  0.9299496E-01
         -2   -1    0    0    0  501 -0.00000000000E+00  0.00000000000E+00  0.62290321950E+03  0.62290321951E+03  0.25500000000E-02 0. -1.
          2   -1    0    0  501    0  0.00000000000E+00 -0.00000000000E+00 -0.40803059549E+03  0.40803059550E+03  0.25500000000E-02 0.  1.
   -5000001    1    1    2    0    0  0.30106235497E+03  0.29516850211E+03 -0.13111874536E+02  0.49034162323E+03  0.25000000000E+03 0.  0.
    5000001    1    1    2    0    0 -0.30106235497E+03 -0.29516850211E+03  0.22798449855E+03  0.54059219177E+03  0.25000000000E+03 0.  0.
<mgrwt>
<rscale>  0 0.10082928E+04</rscale>
<asrwt>0</asrwt>
<pdfrwt beam="1">  1        2 0.62773939E-01 0.10082928E+04</pdfrwt>
<pdfrwt beam="2">  1       -2 0.95831263E-01 0.10082928E+04</pdfrwt>
<totfact> 0.70883209E+01</totfact>
</mgrwt>
</event>
<event>
 4    1  0.1805887E-005  0.7005584E+03  0.7818608E-02  0.9716278E-01
          2   -1    0    0  501    0  0.00000000000E+00  0.00000000000E+00  0.29546417368E+04  0.29546417368E+04  0.25500000000E-02 0.  1.
         -2   -1    0    0    0  501 -0.00000000000E+00 -0.00000000000E+00 -0.41526357758E+02  0.41526357836E+02  0.25500000000E-02 0. -1.
   -5000001    1    1    2    0    0  0.19311475628E+03  0.15048993394E+03  0.15248505696E+04  0.15644838730E+04  0.25000000000E+03 0.  0.
    5000001    1    1    2    0    0 -0.19311475628E+03 -0.15048993394E+03  0.13882648094E+04  0.14316842216E+04  0.25000000000E+03 0.  0.
<mgrwt>
<rscale>  0 0.70055838E+03</rscale>
<asrwt>0</asrwt>
<pdfrwt beam="1">  1        2 0.45456025E+00 0.70055838E+03</pdfrwt>
<pdfrwt beam="2">  1       -2 0.63886706E-02 0.70055838E+03</pdfrwt>
<totfact> 0.27691956E+02</totfact>
</mgrwt>
</event>
<event>
 4    1  0.1805887E-005  0.1076484E+04  0.7818608E-02  0.9228420E-01
          2   -1    0    0  501    0  0.00000000000E+00  0.00000000000E+00  0.27584000290E+04  0.27584000290E+04  0.25500000000E-02 0.  1.
         -2   -1    0    0    0  501 -0.00000000000E+00 -0.00000000000E+00 -0.10502635952E+03  0.10502635955E+03  0.25500000000E-02 0. -1.
   -5000001    1    1    2    0    0 -0.34766332709E+03  0.31486146992E+03  0.11010243335E+04  0.12226046446E+04  0.25000000000E+03 0.  0.
    5000001    1    1    2    0    0  0.34766332709E+03 -0.31486146992E+03  0.15523493361E+04  0.16408217440E+04  0.25000000000E+03 0.  0.
<mgrwt>
<rscale>  0 0.10764845E+04</rscale>
<asrwt>0</asrwt>
<pdfrwt beam="1">  1        2 0.42436915E+00 0.10764845E+04</pdfrwt>
<pdfrwt beam="2">  1       -2 0.16157905E-01 0.10764845E+04</pdfrwt>
<totfact> 0.76468107E+01</totfact>
</mgrwt>
</event>
<event>
 4    1  0.1805887E-005  0.1256055E+04  0.7818608E-02  0.9065159E-01
         -2   -1    0    0    0  501 -0.00000000000E+00  0.00000000000E+00  0.13104136866E+03  0.13104136869E+03  0.25500000000E-02 0. -1.
          2   -1    0    0  501    0  0.00000000000E+00 -0.00000000000E+00 -0.30098758879E+04  0.30098758879E+04  0.25500000000E-02 0.  1.
   -5000001    1    1    2    0    0  0.16219612486E+03  0.41628565469E+03 -0.52980627089E+03  0.73674691306E+03  0.25000000000E+03 0.  0.
    5000001    1    1    2    0    0 -0.16219612486E+03 -0.41628565469E+03 -0.23490282483E+04  0.24041703435E+04  0.25000000000E+03 0.  0.
<mgrwt>
<rscale>  0 0.12560545E+04</rscale>
<asrwt>0</asrwt>
<pdfrwt beam="1">  1        2 0.46305778E+00 0.12560545E+04</pdfrwt>
<pdfrwt beam="2">  1       -2 0.20160213E-01 0.12560545E+04</pdfrwt>
<totfact> 0.36025165E+01</totfact>
</mgrwt>
</event>
<event>
 4    1  0.1805887E-005  0.1156079E+04  0.7818608E-02  0.9152194E-01
         -2   -1    0    0    0  501 -0.00000000000E+00  0.00000000000E+00  0.12542085863E+03  0.12542085866E+03  0.25500000000E-02 0. -1.
          2   -1    0    0  501    0  0.00000000000E+00 -0.00000000000E+00 -0.26640666316E+04  0.26640666316E+04  0.25500000000E-02 0.  1.
   -5000001    1    1    2    0    0 -0.13409793862E+03  0.28970724250E+03 -0.27529253569E+03  0.49010052408E+03  0.25000000000E+03 0.  0.
    5000001    1    1    2    0    0  0.13409793862E+03 -0.28970724250E+03 -0.22633532372E+04  0.22993869661E+04  0.25000000000E+03 0.  0.
<mgrwt>
<rscale>  0 0.11560788E+04</rscale>
<asrwt>0</asrwt>
<pdfrwt beam="1">  1        2 0.40985636E+00 0.11560788E+04</pdfrwt>
<pdfrwt beam="2">  1       -2 0.19295519E-01 0.11560788E+04</pdfrwt>
<totfact> 0.63456515E+01</totfact>
</mgrwt>
</event>
<event>
 4    1  0.1805887E-005  0.9524187E+03  0.7818608E-02  0.9362328E-01
         -2   -1    0    0    0  501 -0.00000000000E+00  0.00000000000E+00  0.12118678836E+03  0.12118678839E+03  0.25500000000E-02 0. -1.
          2   -1    0    0  501    0  0.00000000000E+00 -0.00000000000E+00 -0.18712875500E+04  0.18712875500E+04  0.25500000000E-02 0.  1.
   -5000001    1    1    2    0    0 -0.29324079985E+03  0.27966095989E+03 -0.89315678557E+03  0.10121410291E+04  0.25000000000E+03 0.  0.
    5000001    1    1    2    0    0  0.29324079985E+03 -0.27966095989E+03 -0.85694397611E+03  0.98033330932E+03  0.25000000000E+03 0.  0.
<mgrwt>
<rscale>  0 0.95241866E+03</rscale>
<asrwt>0</asrwt>
<pdfrwt beam="1">  1        2 0.28789037E+00 0.95241866E+03</pdfrwt>
<pdfrwt beam="2">  1       -2 0.18644123E-01 0.95241866E+03</pdfrwt>
<totfact> 0.19109775E+02</totfact>
</mgrwt>
</event>
<event>
 4    1  0.1805887E-005  0.8495411E+03  0.7818608E-02  0.9490953E-01
         -2   -1    0    0    0  501 -0.00000000000E+00  0.00000000000E+00  0.58410040069E+03  0.58410040070E+03  0.25500000000E-02 0. -1.
          2   -1    0    0  501    0  0.00000000000E+00 -0.00000000000E+00 -0.30890242377E+03  0.30890242378E+03  0.25500000000E-02 0.  1.
   -5000001    1    1    2    0    0 -0.12308442579E+02  0.34238384120E+03  0.11290598905E+03  0.43889173476E+03  0.25000000000E+03 0.  0.
    5000001    1    1    2    0    0  0.12308442579E+02 -0.34238384120E+03  0.16229198787E+03  0.45411108972E+03  0.25000000000E+03 0.  0.
<mgrwt>
<rscale>  0 0.84954112E+03</rscale>
<asrwt>0</asrwt>
<pdfrwt beam="1">  1        2 0.47523451E-01 0.84954112E+03</pdfrwt>
<pdfrwt beam="2">  1       -2 0.89861599E-01 0.84954112E+03</pdfrwt>
<totfact> 0.11334462E+02</totfact>
</mgrwt>
</event>
<event>
 4    1  0.1805887E-005  0.7823389E+03  0.7818608E-02  0.9585939E-01
         -2   -1    0    0    0  501 -0.00000000000E+00  0.00000000000E+00  0.22330878567E+03  0.22330878569E+03  0.25500000000E-02 0. -1.
          2   -1    0    0  501    0  0.00000000000E+00 -0.00000000000E+00 -0.68521050553E+03  0.68521050554E+03  0.25500000000E-02 0.  1.
   -5000001    1    1    2    0    0  0.99047402132E+02  0.13844484135E+03 -0.51902512077E+03  0.60071993304E+03  0.25000000000E+03 0.  0.
    5000001    1    1    2    0    0 -0.99047402132E+02 -0.13844484135E+03  0.57123400906E+02  0.30779935818E+03  0.25000000000E+03 0.  0.
<mgrwt>
<rscale>  0 0.78233887E+03</rscale>
<asrwt>0</asrwt>
<pdfrwt beam="1">  1        2 0.10541700E+00 0.78233887E+03</pdfrwt>
<pdfrwt beam="2">  1       -2 0.34355198E-01 0.78233887E+03</pdfrwt>
<totfact> 0.33598531E+02</totfact>
</mgrwt>
</event>
<event>
 4    1  0.1805887E-005  0.1039616E+04  0.7818608E-02  0.9266131E-01
          2   -1    0    0  501    0  0.00000000000E+00  0.00000000000E+00  0.62036834552E+03  0.62036834552E+03  0.25500000000E-02 0.  1.
         -2   -1    0    0    0  501 -0.00000000000E+00 -0.00000000000E+00 -0.43554824462E+03  0.43554824463E+03  0.25500000000E-02 0. -1.
   -5000001    1    1    2    0    0  0.27465810790E+03 -0.10793708794E+03  0.44514903776E+03  0.58969920893E+03  0.25000000000E+03 0.  0.
    5000001    1    1    2    0    0 -0.27465810790E+03  0.10793708794E+03 -0.26032893687E+03  0.46621738123E+03  0.25000000000E+03 0.  0.
<mgrwt>
<rscale>  0 0.10396160E+04</rscale>
<asrwt>0</asrwt>
<pdfrwt beam="1">  1        2 0.95441285E-01 0.10396160E+04</pdfrwt>
<pdfrwt beam="2">  1       -2 0.67007422E-01 0.10396160E+04</pdfrwt>
<totfact> 0.97058931E+01</totfact>
</mgrwt>
</event>
<event>
 4    1  0.1805887E-005  0.6846657E+03  0.7818608E-02  0.9743821E-01
         -2   -1    0    0    0  501 -0.00000000000E+00  0.00000000000E+00  0.37094135491E+03  0.37094135492E+03  0.25500000000E-02 0. -1.
          2   -1    0    0  501    0  0.00000000000E+00 -0.00000000000E+00 -0.31593076503E+03  0.31593076504E+03  0.25500000000E-02 0.  1.
   -5000001    1    1    2    0    0  0.20616060576E+03 -0.31202715667E+02 -0.78741525745E+02  0.33492690651E+03  0.25000000000E+03 0.  0.
    5000001    1    1    2    0    0 -0.20616060576E+03  0.31202715667E+02  0.13375211563E+03  0.35194521344E+03  0.25000000000E+03 0.  0.
<mgrwt>
<rscale>  0 0.68466572E+03</rscale>
<asrwt>0</asrwt>
<pdfrwt beam="1">  1        2 0.48604733E-01 0.68466572E+03</pdfrwt>
<pdfrwt beam="2">  1       -2 0.57067901E-01 0.68466572E+03</pdfrwt>
<totfact> 0.30117304E+02</totfact>
</mgrwt>
</event>
<event>
 4    1  0.1805887E-005  0.9096739E+03  0.7818608E-02  0.9413569E-01
          2   -1    0    0  501    0  0.00000000000E+00  0.00000000000E+00  0.38033334733E+03  0.38033334734E+03  0.25500000000E-02 0.  1.
         -2   -1    0    0    0  501 -0.00000000000E+00 -0.00000000000E+00 -0.54393512430E+03  0.54393512431E+03  0.25500000000E-02 0. -1.
   -5000001    1    1    2    0    0 -0.19365595778E+02 -0.36974067840E+03 -0.16857287071E+03  0.47749346414E+03  0.25000000000E+03 0.  0.
    5000001    1    1    2    0    0  0.19365595778E+02  0.36974067840E+03  0.49710937410E+01  0.44677500751E+03  0.25000000000E+03 0.  0.
<mgrwt>
<rscale>  0 0.90967393E+03</rscale>
<asrwt>0</asrwt>
<pdfrwt beam="1">  1        2 0.58512823E-01 0.90967393E+03</pdfrwt>
<pdfrwt beam="2">  1       -2 0.83682327E-01 0.90967393E+03</pdfrwt>
<totfact> 0.10545055E+02</totfact>
</mgrwt>
</event>
<event>
 4    1  0.1805887E-005  0.1210410E+04  0.7818608E-02  0.9103793E-01
          2   -1    0    0  501    0  0.00000000000E+00  0.00000000000E+00  0.88526830193E+03  0.88526830194E+03  0.25500000000E-02 0.  1.
         -2   -1    0    0    0  501 -0.00000000000E+00 -0.00000000000E+00 -0.41374223185E+03  0.41374223186E+03  0.25500000000E-02 0. -1.
   -5000001    1    1    2    0    0 -0.32163960948E+03  0.34591787385E+03 -0.69036216464E+02  0.53886660040E+03  0.25000000000E+03 0.  0.
    5000001    1    1    2    0    0  0.32163960948E+03 -0.34591787385E+03  0.54056228655E+03  0.76014393340E+03  0.25000000000E+03 0.  0.
<mgrwt>
<rscale>  0 0.12104097E+04</rscale>
<asrwt>0</asrwt>
<pdfrwt beam="1">  1        2 0.13619512E+00 0.12104097E+04</pdfrwt>
<pdfrwt beam="2">  1       -2 0.63652652E-01 0.12104097E+04</pdfrwt>
<totfact> 0.67588676E+01</totfact>
</mgrwt>
</event>
<event>
 4    1  0.1805887E-005  0.1074999E+04  0.7818608E-02  0.9229908E-01
         -2   -1    0    0    0  501 -0.00000000000E+00  0.00000000000E+00  0.32556747076E+03  0.32556747077E+03  0.25500000000E-02 0. -1.
          2   -1    0    0  501    0  0.00000000000E+00 -0.00000000000E+00 -0.88739077779E+03  0.88739077779E+03  0.25500000000E-02 0.  1.
   -5000001    1    1    2    0    0  0.43095310345E+03 -0.14980364231E+03 -0.12850767891E+03  0.53588798472E+03  0.25000000000E+03 0.  0.
    5000001    1    1    2    0    0 -0.43095310345E+03  0.14980364231E+03 -0.43331562811E+03  0.67707026385E+03  0.25000000000E+03 0.  0.
<mgrwt>
<rscale>  0 0.10749987E+04</rscale>
<asrwt>0</asrwt>
<pdfrwt beam="1">  1        2 0.13652166E+00 0.10749987E+04</pdfrwt>
<pdfrwt beam="2">  1       -2 0.50087304E-01 0.10749987E+04</pdfrwt>
<totfact> 0.11211753E+02</totfact>
</mgrwt>
</event>
<event>
 4    1  0.1805887E-005  0.7359181E+03  0.7818608E-02  0.9657705E-01
         -2   -1    0    0    0  501 -0.00000000000E+00  0.00000000000E+00  0.10436038493E+03  0.10436038496E+03  0.25500000000E-02 0. -1.
          2   -1    0    0  501    0  0.00000000000E+00 -0.00000000000E+00 -0.12973683187E+04  0.12973683187E+04  0.25500000000E-02 0.  1.
   -5000001    1    1    2    0    0 -0.12680468746E+03 -0.17425285393E+03 -0.28672610566E+03  0.43721315800E+03  0.25000000000E+03 0.  0.
    5000001    1    1    2    0    0  0.12680468746E+03  0.17425285393E+03 -0.90628182813E+03  0.96451554568E+03  0.25000000000E+03 0.  0.
<mgrwt>
<rscale>  0 0.73591809E+03</rscale>
<asrwt>0</asrwt>
<pdfrwt beam="1">  1        2 0.19959511E+00 0.73591809E+03</pdfrwt>
<pdfrwt beam="2">  1       -2 0.16055445E-01 0.73591809E+03</pdfrwt>
<totfact> 0.52278264E+02</totfact>
</mgrwt>
</event>
<event>
 4    1  0.1805887E-005  0.6319446E+03  0.7818608E-02  0.9841261E-01
          2   -1    0    0  501    0  0.00000000000E+00  0.00000000000E+00  0.30683956819E+04  0.30683956819E+04  0.25500000000E-02 0.  1.
         -2   -1    0    0    0  501 -0.00000000000E+00 -0.00000000000E+00 -0.32537690181E+02  0.32537690281E+02  0.25500000000E-02 0. -1.
   -5000001    1    1    2    0    0 -0.79824626409E+02 -0.17596649432E+03  0.15254193204E+04  0.15577998206E+04  0.25000000000E+03 0.  0.
    5000001    1    1    2    0    0  0.79824626409E+02  0.17596649432E+03  0.15104386713E+04  0.15431335515E+04  0.25000000000E+03 0.  0.
<mgrwt>
<rscale>  0 0.63194464E+03</rscale>
<asrwt>0</asrwt>
<pdfrwt beam="1">  1        2 0.47206093E+00 0.63194464E+03</pdfrwt>
<pdfrwt beam="2">  1       -2 0.50057980E-02 0.63194464E+03</pdfrwt>
<totfact> 0.34831795E+02</totfact>
</mgrwt>
</event>
<event>
 4    1  0.1805887E-005  0.6513681E+03  0.7818608E-02  0.9804215E-01
         -2   -1    0    0    0  501 -0.00000000000E+00  0.00000000000E+00  0.13093170249E+03  0.13093170251E+03  0.25500000000E-02 0. -1.
          2   -1    0    0  501    0  0.00000000000E+00 -0.00000000000E+00 -0.81011785191E+03  0.81011785192E+03  0.25500000000E-02 0.  1.
   -5000001    1    1    2    0    0 -0.10228309171E+03  0.17050265657E+03 -0.43138869708E+03  0.53677667117E+03  0.25000000000E+03 0.  0.
    5000001    1    1    2    0    0  0.10228309171E+03 -0.17050265657E+03 -0.24779745235E+03  0.40427288325E+03  0.25000000000E+03 0.  0.
<mgrwt>
<rscale>  0 0.65136813E+03</rscale>
<asrwt>0</asrwt>
<pdfrwt beam="1">  1        2 0.12463351E+00 0.65136813E+03</pdfrwt>
<pdfrwt beam="2">  1       -2 0.20143339E-01 0.65136813E+03</pdfrwt>
<totfact> 0.71806974E+02</totfact>
</mgrwt>
</event>
<event>
 4    1  0.1805887E-005  0.8413829E+03  0.7818608E-02  0.9501976E-01
          2   -1    0    0  501    0  0.00000000000E+00  0.00000000000E+00  0.33821461422E+04  0.33821461422E+04  0.25500000000E-02 0.  1.
         -2   -1    0    0    0  501 -0.00000000000E+00 -0.00000000000E+00 -0.52328104486E+02  0.52328104548E+02  0.25500000000E-02 0. -1.
   -5000001    1    1    2    0    0 -0.12518173180E+03  0.21391488572E+03  0.26050963674E+04  0.26287748340E+04  0.25000000000E+03 0.  0.
    5000001    1    1    2    0    0  0.12518173180E+03 -0.21391488572E+03  0.72472167026E+03  0.80569941272E+03  0.25000000000E+03 0.  0.
<mgrwt>
<rscale>  0 0.84138290E+03</rscale>
<asrwt>0</asrwt>
<pdfrwt beam="1">  1        2 0.52033035E+00 0.84138290E+03</pdfrwt>
<pdfrwt beam="2">  1       -2 0.80504749E-02 0.84138290E+03</pdfrwt>
<totfact> 0.10108066E+02</totfact>
</mgrwt>
</event>
<event>
 4    1  0.1805887E-005  0.7120792E+03  0.7818608E-02  0.9696795E-01
          2   -1    0    0  501    0  0.00000000000E+00  0.00000000000E+00  0.29335465666E+03  0.29335465667E+03  0.25500000000E-02 0.  1.
         -2   -1    0    0    0  501 -0.00000000000E+00 -0.00000000000E+00 -0.43211925666E+03  0.43211925667E+03  0.25500000000E-02 0. -1.
   -5000001    1    1    2    0    0 -0.14346925664E+03 -0.19116060228E+03  0.16696007661E+02  0.34627237854E+03  0.25000000000E+03 0.  0.
    5000001    1    1    2    0    0  0.14346925664E+03  0.19116060228E+03 -0.15546060766E+03  0.37920153481E+03  0.25000000000E+03 0.  0.
<mgrwt>
<rscale>  0 0.71207920E+03</rscale>
<asrwt>0</asrwt>
<pdfrwt beam="1">  1        2 0.45131485E-01 0.71207920E+03</pdfrwt>
<pdfrwt beam="2">  1       -2 0.66479886E-01 0.71207920E+03</pdfrwt>
<totfact> 0.23637430E+02</totfact>
</mgrwt>
</event>
<event>
 4    1  0.1805887E-005  0.1829628E+04  0.7818608E-02  0.8690700E-01
          2   -1    0    0  501    0  0.00000000000E+00  0.00000000000E+00  0.10008174559E+04  0.10008174559E+04  0.25500000000E-02 0.  1.
         -2   -1    0    0    0  501 -0.00000000000E+00 -0.00000000000E+00 -0.83620105645E+03  0.83620105646E+03  0.25500000000E-02 0. -1.
   -5000001    1    1    2    0    0 -0.14798729942E+03 -0.85526877387E+03  0.22780628102E+03  0.93154743198E+03  0.25000000000E+03 0.  0.
    5000001    1    1    2    0    0  0.14798729942E+03  0.85526877387E+03 -0.63189881545E+02  0.90547108042E+03  0.25000000000E+03 0.  0.
<mgrwt>
<rscale>  0 0.18296280E+04</rscale>
<asrwt>0</asrwt>
<pdfrwt beam="1">  1        2 0.15397192E+00 0.18296280E+04</pdfrwt>
<pdfrwt beam="2">  1       -2 0.12864632E+00 0.18296280E+04</pdfrwt>
<totfact> 0.10567165E+01</totfact>
</mgrwt>
</event>
<event>
 4    1  0.1805887E-005  0.8214926E+03  0.7818608E-02  0.9529418E-01
         -2   -1    0    0    0  501 -0.00000000000E+00  0.00000000000E+00  0.24116979103E+03  0.24116979104E+03  0.25500000000E-02 0. -1.
          2   -1    0    0  501    0  0.00000000000E+00 -0.00000000000E+00 -0.69955916757E+03  0.69955916758E+03  0.25500000000E-02 0.  1.
   -5000001    1    1    2    0    0  0.28719106977E+03  0.14153903832E+03 -0.15953320701E+03  0.43642050143E+03  0.25000000000E+03 0.  0.
    5000001    1    1    2    0    0 -0.28719106977E+03 -0.14153903832E+03 -0.29885616954E+03  0.50430845719E+03  0.25000000000E+03 0.  0.
<mgrwt>
<rscale>  0 0.82149264E+03</rscale>
<asrwt>0</asrwt>
<pdfrwt beam="1">  1        2 0.10762449E+00 0.82149264E+03</pdfrwt>
<pdfrwt beam="2">  1       -2 0.37103045E-01 0.82149264E+03</pdfrwt>
<totfact> 0.28211238E+02</totfact>
</mgrwt>
</event>
<event>
 4    1  0.1805887E-005  0.7446581E+03  0.7818608E-02  0.9643768E-01
          2   -1    0    0  501    0  0.00000000000E+00  0.00000000000E+00  0.13278208966E+04  0.13278208966E+04  0.25500000000E-02 0. -1.
         -2   -1    0    0    0  501 -0.00000000000E+00 -0.00000000000E+00 -0.10440331587E+03  0.10440331590E+03  0.25500000000E-02 0.  1.
   -5000001    1    1    2    0    0  0.26398733187E+03  0.17575163539E+02  0.76230338762E+03  0.84475123707E+03  0.25000000000E+03 0.  0.
    5000001    1    1    2    0    0 -0.26398733187E+03 -0.17575163539E+02  0.46111419310E+03  0.58747297541E+03  0.25000000000E+03 0.  0.
<mgrwt>
<rscale>  0 0.74465805E+03</rscale>
<asrwt>0</asrwt>
<pdfrwt beam="1">  1        2 0.20428013E+00 0.74465805E+03</pdfrwt>
<pdfrwt beam="2">  1       -2 0.16062050E-01 0.74465805E+03</pdfrwt>
<totfact> 0.50156348E+02</totfact>
</mgrwt>
</event>
<event>
 4    1  0.1805887E-005  0.6437504E+03  0.7818608E-02  0.9818577E-01
          2   -1    0    0  501    0  0.00000000000E+00  0.00000000000E+00  0.15734633067E+04  0.15734633067E+04  0.25500000000E-02 0.  1.
         -2   -1    0    0    0  501 -0.00000000000E+00 -0.00000000000E+00 -0.65844331782E+02  0.65844331832E+02  0.25500000000E-02 0. -1.
   -5000001    1    1    2    0    0 -0.15849544907E+03 -0.47826107488E+02  0.10518201784E+04  0.10937247513E+04  0.25000000000E+03 0.  0.
    5000001    1    1    2    0    0  0.15849544907E+03  0.47826107488E+02  0.45579879655E+03  0.54558288726E+03  0.25000000000E+03 0.  0.
<mgrwt>
<rscale>  0 0.64375039E+03</rscale>
<asrwt>0</asrwt>
<pdfrwt beam="1">  1        2 0.24207128E+00 0.64375039E+03</pdfrwt>
<pdfrwt beam="2">  1       -2 0.10129897E-01 0.64375039E+03</pdfrwt>
<totfact> 0.79046751E+02</totfact>
</mgrwt>
</event>
<event>
 4    1  0.1805887E-005  0.1089265E+04  0.7818608E-02  0.9215719E-01
         -2   -1    0    0    0  501 -0.00000000000E+00  0.00000000000E+00  0.13228429331E+03  0.13228429334E+03  0.25500000000E-02 0. -1.
          2   -1    0    0  501    0  0.00000000000E+00 -0.00000000000E+00 -0.22423259636E+04  0.22423259636E+04  0.25500000000E-02 0.  1.
   -5000001    1    1    2    0    0 -0.18791518618E+03  0.43233851449E+03 -0.12927900402E+04  0.13985831389E+04  0.25000000000E+03 0.  0.
    5000001    1    1    2    0    0  0.18791518618E+03 -0.43233851449E+03 -0.81725163009E+03  0.97602711806E+03  0.25000000000E+03 0.  0.
<mgrwt>
<rscale>  0 0.10892649E+04</rscale>
<asrwt>0</asrwt>
<pdfrwt beam="1">  1        2 0.34497320E+00 0.10892649E+04</pdfrwt>
<pdfrwt beam="2">  1       -2 0.20351431E-01 0.10892649E+04</pdfrwt>
<totfact> 0.10117745E+02</totfact>
</mgrwt>
</event>
<event>
 4    1  0.1805887E-005  0.6166775E+03  0.7818608E-02  0.9871397E-01
          2   -1    0    0  501    0  0.00000000000E+00  0.00000000000E+00  0.20814235898E+04  0.20814235898E+04  0.25500000000E-02 0.  1.
         -2   -1    0    0    0  501 -0.00000000000E+00 -0.00000000000E+00 -0.45676801830E+02  0.45676801902E+02  0.25500000000E-02 0. -1.
   -5000001    1    1    2    0    0  0.37666614945E+02 -0.13000782084E+03  0.60609145575E+03  0.66945325460E+03  0.25000000000E+03 0.  0.
    5000001    1    1    2    0    0 -0.37666614945E+02  0.13000782084E+03  0.14296553322E+04  0.14576471371E+04  0.25000000000E+03 0.  0.
<mgrwt>
<rscale>  0 0.61667746E+03</rscale>
<asrwt>0</asrwt>
<pdfrwt beam="1">  1        2 0.32021901E+00 0.61667746E+03</pdfrwt>
<pdfrwt beam="2">  1       -2 0.70272004E-02 0.61667746E+03</pdfrwt>
<totfact> 0.75349205E+02</totfact>
</mgrwt>
</event>
<event>
 4    1  0.1805887E-005  0.9020730E+03  0.7818608E-02  0.9422994E-01
         -2   -1    0    0    0  501 -0.00000000000E+00  0.00000000000E+00  0.14791608373E+03  0.14791608375E+03  0.25500000000E-02 0. -1.
          2   -1    0    0  501    0  0.00000000000E+00 -0.00000000000E+00 -0.13753334146E+04  0.13753334146E+04  0.25500000000E-02 0.  1.
   -5000001    1    1    2    0    0  0.28823946178E+03  0.22526487630E+03 -0.75607041156E+03  0.87633824466E+03  0.25000000000E+03 0.  0.
    5000001    1    1    2    0    0 -0.28823946178E+03 -0.22526487630E+03 -0.47134691935E+03  0.64691125373E+03  0.25000000000E+03 0.  0.
<mgrwt>
<rscale>  0 0.90207302E+03</rscale>
<asrwt>0</asrwt>
<pdfrwt beam="1">  1        2 0.21158975E+00 0.90207302E+03</pdfrwt>
<pdfrwt beam="2">  1       -2 0.22756321E-01 0.90207302E+03</pdfrwt>
<totfact> 0.25453160E+02</totfact>
</mgrwt>
</event>
<event>
 4    1  0.1805887E-005  0.9455373E+03  0.7818608E-02  0.9370382E-01
         -2   -1    0    0    0  501 -0.00000000000E+00  0.00000000000E+00  0.11983173064E+03  0.11983173067E+03  0.25500000000E-02 0. -1.
          2   -1    0    0  501    0  0.00000000000E+00 -0.00000000000E+00 -0.18652004414E+04  0.18652004414E+04  0.25500000000E-02 0.  1.
   -5000001    1    1    2    0    0 -0.22747583042E+03 -0.30814807789E+03 -0.11238176146E+04  0.12133286950E+04  0.25000000000E+03 0.  0.
    5000001    1    1    2    0    0  0.22747583042E+03  0.30814807789E+03 -0.62155109623E+03  0.77170347709E+03  0.25000000000E+03 0.  0.
<mgrwt>
<rscale>  0 0.94553730E+03</rscale>
<asrwt>0</asrwt>
<pdfrwt beam="1">  1        2 0.28695389E+00 0.94553730E+03</pdfrwt>
<pdfrwt beam="2">  1       -2 0.18435652E-01 0.94553730E+03</pdfrwt>
<totfact> 0.19647052E+02</totfact>
</mgrwt>
</event>
<event>
 4    1  0.1805887E-005  0.6972607E+03  0.7818608E-02  0.9721928E-01
         -2   -1    0    0    0  501 -0.00000000000E+00  0.00000000000E+00  0.12304925594E+03  0.12304925597E+03  0.25500000000E-02 0. -1.
          2   -1    0    0  501    0  0.00000000000E+00 -0.00000000000E+00 -0.98775984447E+03  0.98775984448E+03  0.25500000000E-02 0.  1.
   -5000001    1    1    2    0    0  0.20532227260E+01 -0.12933387794E+03 -0.76005361468E+03  0.81050167483E+03  0.25000000000E+03 0.  0.
    5000001    1    1    2    0    0 -0.20532227260E+01  0.12933387794E+03 -0.10465697385E+03  0.30030742562E+03  0.25000000000E+03 0.  0.
<mgrwt>
<rscale>  0 0.69726068E+03</rscale>
<asrwt>0</asrwt>
<pdfrwt beam="1">  1        2 0.15196305E+00 0.69726068E+03</pdfrwt>
<pdfrwt beam="2">  1       -2 0.18930655E-01 0.69726068E+03</pdfrwt>
<totfact> 0.60680345E+02</totfact>
</mgrwt>
</event>
<event>
 4    1  0.1805887E-005  0.1471050E+04  0.7818608E-02  0.8903936E-01
          2   -1    0    0  501    0  0.00000000000E+00  0.00000000000E+00  0.17767014190E+04  0.17767014190E+04  0.25500000000E-02 0.  1.
         -2   -1    0    0    0  501 -0.00000000000E+00 -0.00000000000E+00 -0.30449534708E+03  0.30449534709E+03  0.25500000000E-02 0. -1.
   -5000001    1    1    2    0    0 -0.30100356204E+03 -0.61379536464E+03  0.88548967398E+03  0.11462721565E+04  0.25000000000E+03 0.  0.
    5000001    1    1    2    0    0  0.30100356204E+03  0.61379536464E+03  0.58671639795E+03  0.93492460960E+03  0.25000000000E+03 0.  0.
<mgrwt>
<rscale>  0 0.14710504E+04</rscale>
<asrwt>0</asrwt>
<pdfrwt beam="1">  1        2 0.27333868E+00 0.14710504E+04</pdfrwt>
<pdfrwt beam="2">  1       -2 0.46845438E-01 0.14710504E+04</pdfrwt>
<totfact> 0.37180774E+01</totfact>
</mgrwt>
</event>
<event>
 4    1  0.1805887E-005  0.7160865E+03  0.7818608E-02  0.9690111E-01
          2   -1    0    0  501    0  0.00000000000E+00  0.00000000000E+00  0.18858230852E+04  0.18858230852E+04  0.25500000000E-02 0.  1.
         -2   -1    0    0    0  501 -0.00000000000E+00 -0.00000000000E+00 -0.67978264903E+02  0.67978264951E+02  0.25500000000E-02 0. -1.
   -5000001    1    1    2    0    0  0.23755823104E+03 -0.84749950631E+02  0.10333141030E+04  0.10926364916E+04  0.25000000000E+03 0.  0.
    5000001    1    1    2    0    0 -0.23755823104E+03  0.84749950631E+02  0.78453071729E+03  0.86116485857E+03  0.25000000000E+03 0.  0.
<mgrwt>
<rscale>  0 0.71608653E+03</rscale>
<asrwt>0</asrwt>
<pdfrwt beam="1">  1        2 0.29012661E+00 0.71608653E+03</pdfrwt>
<pdfrwt beam="2">  1       -2 0.10458195E-01 0.71608653E+03</pdfrwt>
<totfact> 0.50470712E+02</totfact>
</mgrwt>
</event>
<event>
 4    1  0.1805887E-005  0.1017547E+04  0.7818608E-02  0.9289506E-01
          2   -1    0    0  501    0  0.00000000000E+00  0.00000000000E+00  0.50038463330E+03  0.50038463331E+03  0.25500000000E-02 0.  1.
         -2   -1    0    0    0  501 -0.00000000000E+00 -0.00000000000E+00 -0.51730296036E+03  0.51730296037E+03  0.25500000000E-02 0. -1.
   -5000001    1    1    2    0    0  0.19375435719E+03  0.30715345634E+03 -0.26239670856E+03  0.51306532657E+03  0.25000000000E+03 0.  0.
    5000001    1    1    2    0    0 -0.19375435719E+03 -0.30715345634E+03  0.24547838151E+03  0.50462226710E+03  0.25000000000E+03 0.  0.
<mgrwt>
<rscale>  0 0.10175470E+04</rscale>
<asrwt>0</asrwt>
<pdfrwt beam="1">  1        2 0.76982252E-01 0.10175470E+04</pdfrwt>
<pdfrwt beam="2">  1       -2 0.79585071E-01 0.10175470E+04</pdfrwt>
<totfact> 0.85890922E+01</totfact>
</mgrwt>
</event>
<event>
 4    1  0.1805887E-005  0.7605953E+03  0.7818608E-02  0.9618873E-01
          2   -1    0    0  501    0  0.00000000000E+00  0.00000000000E+00  0.83055349590E+03  0.83055349590E+03  0.25500000000E-02 0.  1.
         -2   -1    0    0    0  501 -0.00000000000E+00 -0.00000000000E+00 -0.17413244389E+03  0.17413244391E+03  0.25500000000E-02 0. -1.
   -5000001    1    1    2    0    0 -0.24806369229E+03 -0.13024173541E+03  0.40777123431E+03  0.55432471044E+03  0.25000000000E+03 0.  0.
    5000001    1    1    2    0    0  0.24806369229E+03  0.13024173541E+03  0.24864981770E+03  0.45036122937E+03  0.25000000000E+03 0.  0.
<mgrwt>
<rscale>  0 0.76059532E+03</rscale>
<asrwt>0</asrwt>
<pdfrwt beam="1">  1        2 0.12777746E+00 0.76059532E+03</pdfrwt>
<pdfrwt beam="2">  1       -2 0.26789606E-01 0.76059532E+03</pdfrwt>
<totfact> 0.41611775E+02</totfact>
</mgrwt>
</event>
<event>
 4    1  0.1805887E-005  0.9466368E+03  0.7818608E-02  0.9369090E-01
         -2   -1    0    0    0  501 -0.00000000000E+00  0.00000000000E+00  0.54176368061E+02  0.54176368121E+02  0.25500000000E-02 0. -1.
          2   -1    0    0  501    0  0.00000000000E+00 -0.00000000000E+00 -0.41352034133E+04  0.41352034133E+04  0.25500000000E-02 0.  1.
   -5000001    1    1    2    0    0  0.36459819963E+02  0.39818216234E+03 -0.22203860018E+04  0.22699102074E+04  0.25000000000E+03 0.  0.
    5000001    1    1    2    0    0 -0.36459819963E+02 -0.39818216234E+03 -0.18606410434E+04  0.19194695739E+04  0.25000000000E+03 0.  0.
<mgrwt>
<rscale>  0 0.94663679E+03</rscale>
<asrwt>0</asrwt>
<pdfrwt beam="1">  1        2 0.63618489E+00 0.94663679E+03</pdfrwt>
<pdfrwt beam="2">  1       -2 0.83348291E-02 0.94663679E+03</pdfrwt>
<totfact> 0.26166526E+01</totfact>
</mgrwt>
</event>
<event>
 4    1  0.1805887E-005  0.1307972E+04  0.7818608E-02  0.9023267E-01
          2   -1    0    0  501    0  0.00000000000E+00  0.00000000000E+00  0.36084589741E+03  0.36084589742E+03  0.25500000000E-02 0.  1.
         -2   -1    0    0    0  501 -0.00000000000E+00 -0.00000000000E+00 -0.11852641869E+04  0.11852641869E+04  0.25500000000E-02 0. -1.
   -5000001    1    1    2    0    0  0.42712296954E+03  0.41232814836E+03 -0.27873929194E+03  0.70188612033E+03  0.25000000000E+03 0.  0.
    5000001    1    1    2    0    0 -0.42712296954E+03 -0.41232814836E+03 -0.54567899757E+03  0.84422396402E+03  0.25000000000E+03 0.  0.
<mgrwt>
<rscale>  0 0.13079720E+04</rscale>
<asrwt>0</asrwt>
<pdfrwt beam="1">  1        2 0.55514754E-01 0.13079720E+04</pdfrwt>
<pdfrwt beam="2">  1       -2 0.18234833E+00 0.13079720E+04</pdfrwt>
<totfact> 0.15264764E+01</totfact>
</mgrwt>
</event>
<event>
 4    1  0.1805887E-005  0.6673955E+03  0.7818608E-02  0.9774674E-01
          2   -1    0    0  501    0  0.00000000000E+00  0.00000000000E+00  0.40232112796E+03  0.40232112796E+03  0.25500000000E-02 0.  1.
         -2   -1    0    0    0  501 -0.00000000000E+00 -0.00000000000E+00 -0.27677934705E+03  0.27677934706E+03  0.25500000000E-02 0. -1.
   -5000001    1    1    2    0    0  0.56282303885E+02 -0.14601978035E+03 -0.96058678784E+02  0.31018823923E+03  0.25000000000E+03 0.  0.
    5000001    1    1    2    0    0 -0.56282303885E+02  0.14601978035E+03  0.22160045969E+03  0.36891223580E+03  0.25000000000E+03 0.  0.
<mgrwt>
<rscale>  0 0.66739547E+03</rscale>
<asrwt>0</asrwt>
<pdfrwt beam="1">  1        2 0.61895558E-01 0.66739547E+03</pdfrwt>
<pdfrwt beam="2">  1       -2 0.42581438E-01 0.66739547E+03</pdfrwt>
<totfact> 0.41655916E+02</totfact>
</mgrwt>
</event>
<event>
 4    1  0.1805887E-005  0.8823910E+03  0.7818608E-02  0.9447865E-01
          2   -1    0    0  501    0  0.00000000000E+00  0.00000000000E+00  0.11085848342E+04  0.11085848342E+04  0.25500000000E-02 0.  1.
         -2   -1    0    0    0  501 -0.00000000000E+00 -0.00000000000E+00 -0.17558734204E+03  0.17558734206E+03  0.25500000000E-02 0. -1.
   -5000001    1    1    2    0    0 -0.26040562225E+03 -0.28310374828E+02  0.99648454040E+02  0.37555609410E+03  0.25000000000E+03 0.  0.
    5000001    1    1    2    0    0  0.26040562225E+03  0.28310374828E+02  0.83334903807E+03  0.90861608211E+03  0.25000000000E+03 0.  0.
<mgrwt>
<rscale>  0 0.88239099E+03</rscale>
<asrwt>0</asrwt>
<pdfrwt beam="1">  1        2 0.17055152E+00 0.88239099E+03</pdfrwt>
<pdfrwt beam="2">  1       -2 0.27013436E-01 0.88239099E+03</pdfrwt>
<totfact> 0.26846053E+02</totfact>
</mgrwt>
</event>
<event>
 4    1  0.1805887E-005  0.7081097E+03  0.7818608E-02  0.9703463E-01
          2   -1    0    0  501    0  0.00000000000E+00  0.00000000000E+00  0.12126262546E+04  0.12126262546E+04  0.25500000000E-02 0.  1.
         -2   -1    0    0    0  501 -0.00000000000E+00 -0.00000000000E+00 -0.10337467463E+03  0.10337467466E+03  0.25500000000E-02 0. -1.
   -5000001    1    1    2    0    0  0.18153218572E+03  0.17167268078E+03  0.51611459090E+03  0.62553953889E+03  0.25000000000E+03 0.  0.
    5000001    1    1    2    0    0 -0.18153218572E+03 -0.17167268078E+03  0.59313698903E+03  0.69046139033E+03  0.25000000000E+03 0.  0.
<mgrwt>
<rscale>  0 0.70810972E+03</rscale>
<asrwt>0</asrwt>
<pdfrwt beam="1">  1        2 0.18655788E+00 0.70810972E+03</pdfrwt>
<pdfrwt beam="2">  1       -2 0.15903797E-01 0.70810972E+03</pdfrwt>
<totfact> 0.59599922E+02</totfact>
</mgrwt>
</event>
<event>
 4    1  0.1805887E-005  0.6560775E+03  0.7818608E-02  0.9795441E-01
         -2   -1    0    0    0  501 -0.00000000000E+00  0.00000000000E+00  0.14159141097E+03  0.14159141099E+03  0.25500000000E-02 0. -1.
          2   -1    0    0  501    0  0.00000000000E+00 -0.00000000000E+00 -0.75999974611E+03  0.75999974611E+03  0.25500000000E-02 0.  1.
   -5000001    1    1    2    0    0 -0.98884720000E+02  0.16395298640E+03 -0.43553226589E+03  0.53744499647E+03  0.25000000000E+03 0.  0.
    5000001    1    1    2    0    0  0.98884720000E+02 -0.16395298640E+03 -0.18287606924E+03  0.36414616063E+03  0.25000000000E+03 0.  0.
<mgrwt>
<rscale>  0 0.65607755E+03</rscale>
<asrwt>0</asrwt>
<pdfrwt beam="1">  1        2 0.11692304E+00 0.65607755E+03</pdfrwt>
<pdfrwt beam="2">  1       -2 0.21783295E-01 0.65607755E+03</pdfrwt>
<totfact> 0.68032538E+02</totfact>
</mgrwt>
</event>
<event>
 4    1  0.1805887E-005  0.5908250E+03  0.7818608E-02  0.9924626E-01
         -2   -1    0    0    0  501 -0.00000000000E+00  0.00000000000E+00  0.42851740466E+02  0.42851740542E+02  0.25500000000E-02 0. -1.
          2   -1    0    0  501    0  0.00000000000E+00 -0.00000000000E+00 -0.20365225419E+04  0.20365225419E+04  0.25500000000E-02 0.  1.
   -5000001    1    1    2    0    0  0.10004806082E+03  0.97330514229E+02 -0.12527085747E+04  0.12850142476E+04  0.25000000000E+03 0.  0.
    5000001    1    1    2    0    0 -0.10004806082E+03 -0.97330514229E+02 -0.74096222678E+03  0.79436003487E+03  0.25000000000E+03 0.  0.
<mgrwt>
<rscale>  0 0.59082497E+03</rscale>
<asrwt>0</asrwt>
<pdfrwt beam="1">  1        2 0.31331108E+00 0.59082497E+03</pdfrwt>
<pdfrwt beam="2">  1       -2 0.65925771E-02 0.59082497E+03</pdfrwt>
<totfact> 0.88308579E+02</totfact>
</mgrwt>
</event>
<event>
 4    1  0.1805887E-005  0.8467830E+03  0.7818608E-02  0.9494665E-01
          2   -1    0    0  501    0  0.00000000000E+00  0.00000000000E+00  0.46978614721E+03  0.46978614722E+03  0.25500000000E-02 0.  1.
         -2   -1    0    0    0  501 -0.00000000000E+00 -0.00000000000E+00 -0.38157865685E+03  0.38157865686E+03  0.25500000000E-02 0. -1.
   -5000001    1    1    2    0    0  0.25206204737E+03  0.22506702763E+03  0.95072465635E+02  0.43096312647E+03  0.25000000000E+03 0.  0.
    5000001    1    1    2    0    0 -0.25206204737E+03 -0.22506702763E+03 -0.68649752696E+01  0.42040167761E+03  0.25000000000E+03 0.  0.
<mgrwt>
<rscale>  0 0.84678301E+03</rscale>
<asrwt>0</asrwt>
<pdfrwt beam="1">  1        2 0.72274792E-01 0.84678301E+03</pdfrwt>
<pdfrwt beam="2">  1       -2 0.58704409E-01 0.84678301E+03</pdfrwt>
<totfact> 0.18060403E+02</totfact>
</mgrwt>
</event>
<event>
 4    1  0.1805887E-005  0.6319924E+03  0.7818608E-02  0.9841168E-01
         -2   -1    0    0    0  501 -0.00000000000E+00  0.00000000000E+00  0.18338690548E+03  0.18338690550E+03  0.25500000000E-02 0. -1.
          2   -1    0    0  501    0  0.00000000000E+00 -0.00000000000E+00 -0.54449686765E+03  0.54449686766E+03  0.25500000000E-02 0.  1.
   -5000001    1    1    2    0    0 -0.10724294804E+03  0.13176562047E+03 -0.28667893417E+03  0.41659097438E+03  0.25000000000E+03 0.  0.
    5000001    1    1    2    0    0  0.10724294804E+03 -0.13176562047E+03 -0.74431028004E+02  0.31129279878E+03  0.25000000000E+03 0.  0.
<mgrwt>
<rscale>  0 0.63199239E+03</rscale>
<asrwt>0</asrwt>
<pdfrwt beam="1">  1        2 0.83768748E-01 0.63199239E+03</pdfrwt>
<pdfrwt beam="2">  1       -2 0.28213370E-01 0.63199239E+03</pdfrwt>
<totfact> 0.64382570E+02</totfact>
</mgrwt>
</event>
<event>
 4    1  0.1805887E-005  0.1025826E+04  0.7818608E-02  0.9280664E-01
         -2   -1    0    0    0  501 -0.00000000000E+00  0.00000000000E+00  0.68996113749E+03  0.68996113750E+03  0.25500000000E-02 0. -1.
          2   -1    0    0  501    0  0.00000000000E+00 -0.00000000000E+00 -0.38129632484E+03  0.38129632484E+03  0.25500000000E-02 0.  1.
   -5000001    1    1    2    0    0 -0.29424299630E+03 -0.41284035553E+02 -0.19561520108E+03  0.43479721636E+03  0.25000000000E+03 0.  0.
    5000001    1    1    2    0    0  0.29424299630E+03  0.41284035553E+02  0.50428001373E+03  0.63646024598E+03  0.25000000000E+03 0.  0.
<mgrwt>
<rscale>  0 0.10258258E+04</rscale>
<asrwt>0</asrwt>
<pdfrwt beam="1">  1        2 0.58660973E-01 0.10258258E+04</pdfrwt>
<pdfrwt beam="2">  1       -2 0.10614787E+00 0.10258258E+04</pdfrwt>
<totfact> 0.59930067E+01</totfact>
</mgrwt>
</event>
<event>
 4    1  0.1805887E-005  0.8779932E+03  0.7818608E-02  0.9453517E-01
         -2   -1    0    0    0  501 -0.00000000000E+00  0.00000000000E+00  0.34600501385E+03  0.34600501386E+03  0.25500000000E-02 0. -1.
          2   -1    0    0  501    0  0.00000000000E+00 -0.00000000000E+00 -0.55698047389E+03  0.55698047390E+03  0.25500000000E-02 0.  1.
   -5000001    1    1    2    0    0  0.73208897416E+02  0.34922050041E+03 -0.50069429583E+02  0.43854469367E+03  0.25000000000E+03 0.  0.
    5000001    1    1    2    0    0 -0.73208897416E+02 -0.34922050041E+03 -0.16090603046E+03  0.46444079408E+03  0.25000000000E+03 0.  0.
<mgrwt>
<rscale>  0 0.87799325E+03</rscale>
<asrwt>0</asrwt>
<pdfrwt beam="1">  1        2 0.85689304E-01 0.87799325E+03</pdfrwt>
<pdfrwt beam="2">  1       -2 0.53231541E-01 0.87799325E+03</pdfrwt>
<totfact> 0.18124878E+02</totfact>
</mgrwt>
</event>
<event>
 4    1  0.1805887E-005  0.6457120E+03  0.7818608E-02  0.9814859E-01
          2   -1    0    0  501    0  0.00000000000E+00  0.00000000000E+00  0.50788788663E+03  0.50788788664E+03  0.25500000000E-02 0.  1.
         -2   -1    0    0    0  501 -0.00000000000E+00 -0.00000000000E+00 -0.20523429203E+03  0.20523429205E+03  0.25500000000E-02 0. -1.
   -5000001    1    1    2    0    0  0.40439581149E+02 -0.75435164580E+02  0.35619217727E+03  0.44350726142E+03  0.25000000000E+03 0.  0.
    5000001    1    1    2    0    0 -0.40439581149E+02  0.75435164580E+02 -0.53538582675E+02  0.26961491727E+03  0.25000000000E+03 0.  0.
<mgrwt>
<rscale>  0 0.64571204E+03</rscale>
<asrwt>0</asrwt>
<pdfrwt beam="1">  1        2 0.78136597E-01 0.64571204E+03</pdfrwt>
<pdfrwt beam="2">  1       -2 0.31574507E-01 0.64571204E+03</pdfrwt>
<totfact> 0.56688670E+02</totfact>
</mgrwt>
</event>
<event>
 4    1  0.1805887E-005  0.6237217E+03  0.7818608E-02  0.9857378E-01
         -2   -1    0    0    0  501 -0.00000000000E+00  0.00000000000E+00  0.58574056717E+02  0.58574056773E+02  0.25500000000E-02 0. -1.
          2   -1    0    0  501    0  0.00000000000E+00 -0.00000000000E+00 -0.16604140122E+04  0.16604140122E+04  0.25500000000E-02 0.  1.
   -5000001    1    1    2    0    0 -0.12682861582E+03 -0.46636227872E+02 -0.11549019981E+04  0.11893523703E+04  0.25000000000E+03 0.  0.
    5000001    1    1    2    0    0  0.12682861582E+03  0.46636227872E+02 -0.44693795731E+03  0.52963569859E+03  0.25000000000E+03 0.  0.
<mgrwt>
<rscale>  0 0.62372168E+03</rscale>
<asrwt>0</asrwt>
<pdfrwt beam="1">  1        2 0.25544827E+00 0.62372168E+03</pdfrwt>
<pdfrwt beam="2">  1       -2 0.90113946E-02 0.62372168E+03</pdfrwt>
<totfact> 0.85697394E+02</totfact>
</mgrwt>
</event>
<event>
 4    1  0.1805887E-005  0.1172035E+04  0.7818608E-02  0.9137693E-01
         -2   -1    0    0    0  501 -0.00000000000E+00  0.00000000000E+00  0.17722436757E+03  0.17722436759E+03  0.25500000000E-02 0. -1.
          2   -1    0    0  501    0  0.00000000000E+00 -0.00000000000E+00 -0.19377497992E+04  0.19377497992E+04  0.25500000000E-02 0.  1.
   -5000001    1    1    2    0    0 -0.24523583554E+03  0.46985099768E+03 -0.87306545091E+03  0.10514960088E+04  0.25000000000E+03 0.  0.
    5000001    1    1    2    0    0  0.24523583554E+03 -0.46985099768E+03 -0.88745998074E+03  0.10634781580E+04  0.25000000000E+03 0.  0.
<mgrwt>
<rscale>  0 0.11720350E+04</rscale>
<asrwt>0</asrwt>
<pdfrwt beam="1">  1        2 0.29811534E+00 0.11720350E+04</pdfrwt>
<pdfrwt beam="2">  1       -2 0.27265289E-01 0.11720350E+04</pdfrwt>
<totfact> 0.87663370E+01</totfact>
</mgrwt>
</event>
<event>
 4    1  0.1805887E-005  0.1022601E+04  0.7818608E-02  0.9284098E-01
         -2   -1    0    0    0  501 -0.00000000000E+00  0.00000000000E+00  0.16796514424E+03  0.16796514426E+03  0.25500000000E-02 0. -1.
          2   -1    0    0  501    0  0.00000000000E+00 -0.00000000000E+00 -0.15564444470E+04  0.15564444470E+04  0.25500000000E-02 0.  1.
   -5000001    1    1    2    0    0 -0.35286764535E+03  0.76578321957E+02 -0.25273697779E+03  0.50671076017E+03  0.25000000000E+03 0.  0.
    5000001    1    1    2    0    0  0.35286764535E+03 -0.76578321957E+02 -0.11357423250E+04  0.12176988311E+04  0.25000000000E+03 0.  0.
<mgrwt>
<rscale>  0 0.10226014E+04</rscale>
<asrwt>0</asrwt>
<pdfrwt beam="1">  1        2 0.23945298E+00 0.10226014E+04</pdfrwt>
<pdfrwt beam="2">  1       -2 0.25840793E-01 0.10226014E+04</pdfrwt>
<totfact> 0.15881346E+02</totfact>
</mgrwt>
</event>
<event>
 4    1  0.1805887E-005  0.6205745E+03  0.7818608E-02  0.9863616E-01
         -2   -1    0    0    0  501 -0.00000000000E+00  0.00000000000E+00  0.96344820468E+02  0.96344820501E+02  0.25500000000E-02 0. -1.
          2   -1    0    0  501    0  0.00000000000E+00 -0.00000000000E+00 -0.99930841228E+03  0.99930841229E+03  0.25500000000E-02 0.  1.
   -5000001    1    1    2    0    0 -0.19594696395E+02 -0.16295724237E+03 -0.30547232825E+03  0.42749544827E+03  0.25000000000E+03 0.  0.
    5000001    1    1    2    0    0  0.19594696395E+02  0.16295724237E+03 -0.59749126357E+03  0.66815778451E+03  0.25000000000E+03 0.  0.
<mgrwt>
<rscale>  0 0.62057454E+03</rscale>
<asrwt>0</asrwt>
<pdfrwt beam="1">  1        2 0.15373975E+00 0.62057454E+03</pdfrwt>
<pdfrwt beam="2">  1       -2 0.14822281E-01 0.62057454E+03</pdfrwt>
<totfact> 0.90853678E+02</totfact>
</mgrwt>
</event>
<event>
 4    1  0.1805887E-005  0.7767363E+03  0.7818608E-02  0.9594314E-01
         -2   -1    0    0    0  501 -0.00000000000E+00  0.00000000000E+00  0.10144468082E+03  0.10144468085E+03  0.25500000000E-02 0.  1.
          2   -1    0    0  501    0  0.00000000000E+00 -0.00000000000E+00 -0.14868184672E+04  0.14868184672E+04  0.25500000000E-02 0. -1.
   -5000001    1    1    2    0    0  0.84825469623E+02  0.28482651782E+03 -0.69858473106E+03  0.79927600491E+03  0.25000000000E+03 0.  0.
    5000001    1    1    2    0    0 -0.84825469623E+02 -0.28482651782E+03 -0.68678905532E+03  0.78898714315E+03  0.25000000000E+03 0.  0.
<mgrwt>
<rscale>  0 0.77673631E+03</rscale>
<asrwt>0</asrwt>
<pdfrwt beam="1">  1        2 0.22874129E+00 0.77673631E+03</pdfrwt>
<pdfrwt beam="2">  1       -2 0.15606875E-01 0.77673631E+03</pdfrwt>
<totfact> 0.42754083E+02</totfact>
</mgrwt>
</event>
<event>
 4    1  0.1805887E-005  0.8502748E+03  0.7818608E-02  0.9489968E-01
         -2   -1    0    0    0  501 -0.00000000000E+00  0.00000000000E+00  0.10831446792E+03  0.10831446795E+03  0.25500000000E-02 0. -1.
          2   -1    0    0  501    0  0.00000000000E+00 -0.00000000000E+00 -0.16686766801E+04  0.16686766801E+04  0.25500000000E-02 0.  1.
   -5000001    1    1    2    0    0 -0.12842358467E+03  0.30785750533E+03 -0.60566532261E+03  0.73525461148E+03  0.25000000000E+03 0.  0.
    5000001    1    1    2    0    0  0.12842358467E+03 -0.30785750533E+03 -0.95469688955E+03  0.10417365366E+04  0.25000000000E+03 0.  0.
<mgrwt>
<rscale>  0 0.85027484E+03</rscale>
<asrwt>0</asrwt>
<pdfrwt beam="1">  1        2 0.25671947E+00 0.85027484E+03</pdfrwt>
<pdfrwt beam="2">  1       -2 0.16663766E-01 0.85027484E+03</pdfrwt>
<totfact> 0.30181142E+02</totfact>
</mgrwt>
</event>
<event>
 4    1  0.1805887E-005  0.1490653E+04  0.7818608E-02  0.8890693E-01
          2   -1    0    0  501    0  0.00000000000E+00  0.00000000000E+00  0.19298699508E+04  0.19298699508E+04  0.25500000000E-02 0.  1.
         -2   -1    0    0    0  501 -0.00000000000E+00 -0.00000000000E+00 -0.28784905836E+03  0.28784905837E+03  0.25500000000E-02 0. -1.
   -5000001    1    1    2    0    0  0.41079116287E+03  0.39711449226E+03  0.14281911922E+04  0.15584220805E+04  0.25000000000E+03 0.  0.
    5000001    1    1    2    0    0 -0.41079116287E+03 -0.39711449226E+03  0.21382970020E+03  0.65929692866E+03  0.25000000000E+03 0.  0.
<mgrwt>
<rscale>  0 0.14906525E+04</rscale>
<asrwt>0</asrwt>
<pdfrwt beam="1">  1        2 0.29690306E+00 0.14906525E+04</pdfrwt>
<pdfrwt beam="2">  1       -2 0.44284471E-01 0.14906525E+04</pdfrwt>
<totfact> 0.34180173E+01</totfact>
</mgrwt>
</event>
<event>
 4    1  0.1805887E-005  0.1099011E+04  0.7818608E-02  0.9206157E-01
          2   -1    0    0  501    0  0.00000000000E+00  0.00000000000E+00  0.68119565217E+03  0.68119565217E+03  0.25500000000E-02 0.  1.
         -2   -1    0    0    0  501 -0.00000000000E+00 -0.00000000000E+00 -0.44327379715E+03  0.44327379716E+03  0.25500000000E-02 0. -1.
   -5000001    1    1    2    0    0  0.23220860279E+02 -0.48668085433E+03  0.72536725162E+02  0.55241201908E+03  0.25000000000E+03 0.  0.
    5000001    1    1    2    0    0 -0.23220860279E+02  0.48668085433E+03  0.16538512985E+03  0.57205743025E+03  0.25000000000E+03 0.  0.
<mgrwt>
<rscale>  0 0.10990108E+04</rscale>
<asrwt>0</asrwt>
<pdfrwt beam="1">  1        2 0.10479933E+00 0.10990108E+04</pdfrwt>
<pdfrwt beam="2">  1       -2 0.68195970E-01 0.10990108E+04</pdfrwt>
<totfact> 0.82907548E+01</totfact>
</mgrwt>
</event>
<event>
 4    1  0.1805887E-005  0.5831994E+03  0.7818608E-02  0.9940888E-01
         -2   -1    0    0    0  501 -0.00000000000E+00  0.00000000000E+00  0.48747833270E+02  0.48747833337E+02  0.25500000000E-02 0.  1.
          2   -1    0    0  501    0  0.00000000000E+00 -0.00000000000E+00 -0.17442905032E+04  0.17442905032E+04  0.25500000000E-02 0. -1.
   -5000001    1    1    2    0    0  0.31681637075E+02  0.14020062609E+03 -0.98073853382E+03  0.10222563345E+04  0.25000000000E+03 0.  0.
    5000001    1    1    2    0    0 -0.31681637075E+02 -0.14020062609E+03 -0.71480413613E+03  0.77078200207E+03  0.25000000000E+03 0.  0.
<mgrwt>
<rscale>  0 0.58319939E+03</rscale>
<asrwt>0</asrwt>
<pdfrwt beam="1">  1        2 0.26835234E+00 0.58319939E+03</pdfrwt>
<pdfrwt beam="2">  1       -2 0.74996680E-02 0.58319939E+03</pdfrwt>
<totfact> 0.10370109E+03</totfact>
</mgrwt>
</event>
<event>
 4    1  0.1805887E-005  0.5865952E+03  0.7818608E-02  0.9933614E-01
          2   -1    0    0  501    0  0.00000000000E+00  0.00000000000E+00  0.37820680700E+03  0.37820680701E+03  0.25500000000E-02 0.  1.
         -2   -1    0    0    0  501 -0.00000000000E+00 -0.00000000000E+00 -0.22745092411E+03  0.22745092413E+03  0.25500000000E-02 0. -1.
   -5000001    1    1    2    0    0  0.51125998841E+02 -0.14321588974E+03  0.95997628772E+02  0.30796136699E+03  0.25000000000E+03 0.  0.
    5000001    1    1    2    0    0 -0.51125998841E+02  0.14321588974E+03  0.54758254114E+02  0.29769636414E+03  0.25000000000E+03 0.  0.
<mgrwt>
<rscale>  0 0.58659522E+03</rscale>
<asrwt>0</asrwt>
<pdfrwt beam="1">  1        2 0.58185662E-01 0.58659522E+03</pdfrwt>
<pdfrwt beam="2">  1       -2 0.34992450E-01 0.58659522E+03</pdfrwt>
<totfact> 0.65320911E+02</totfact>
</mgrwt>
</event>
<event>
 4    1  0.1805887E-005  0.7750637E+03  0.7818608E-02  0.9596830E-01
         -2   -1    0    0    0  501 -0.00000000000E+00  0.00000000000E+00  0.32044394535E+03  0.32044394536E+03  0.25500000000E-02 0. -1.
          2   -1    0    0  501    0  0.00000000000E+00 -0.00000000000E+00 -0.46866525847E+03  0.46866525847E+03  0.25500000000E-02 0.  1.
   -5000001    1    1    2    0    0  0.24706228905E+03 -0.14215502824E+03 -0.15577085819E+03  0.40989314094E+03  0.25000000000E+03 0.  0.
    5000001    1    1    2    0    0 -0.24706228905E+03  0.14215502824E+03  0.75495450764E+01  0.37921606289E+03  0.25000000000E+03 0.  0.
<mgrwt>
<rscale>  0 0.77506373E+03</rscale>
<asrwt>0</asrwt>
<pdfrwt beam="1">  1        2 0.72102347E-01 0.77506373E+03</pdfrwt>
<pdfrwt beam="2">  1       -2 0.49299069E-01 0.77506373E+03</pdfrwt>
<totfact> 0.26051768E+02</totfact>
</mgrwt>
</event>
<event>
 4    1  0.1805887E-005  0.7071919E+03  0.7818608E-02  0.9705011E-01
         -2   -1    0    0    0  501 -0.00000000000E+00  0.00000000000E+00  0.25741894423E+03  0.25741894424E+03  0.25500000000E-02 0. -1.
          2   -1    0    0  501    0  0.00000000000E+00 -0.00000000000E+00 -0.48570670873E+03  0.48570670874E+03  0.25500000000E-02 0.  1.
   -5000001    1    1    2    0    0  0.81804394898E+02  0.14553243114E+03  0.81483475525E+02  0.31146621698E+03  0.25000000000E+03 0.  0.
    5000001    1    1    2    0    0 -0.81804394898E+02 -0.14553243114E+03 -0.30977124002E+03  0.43165943600E+03  0.25000000000E+03 0.  0.
<mgrwt>
<rscale>  0 0.70719193E+03</rscale>
<asrwt>0</asrwt>
<pdfrwt beam="1">  1        2 0.74724108E-01 0.70719193E+03</pdfrwt>
<pdfrwt beam="2">  1       -2 0.39602915E-01 0.70719193E+03</pdfrwt>
<totfact> 0.38712468E+02</totfact>
</mgrwt>
</event>
<event>
 4    1  0.1805887E-005  0.5526877E+03  0.7818608E-02  0.1000874E+00
         -2   -1    0    0    0  501 -0.00000000000E+00  0.00000000000E+00  0.17643379417E+03  0.17643379419E+03  0.25500000000E-02 0. -1.
          2   -1    0    0  501    0  0.00000000000E+00 -0.00000000000E+00 -0.43283041492E+03  0.43283041493E+03  0.25500000000E-02 0.  1.
   -5000001    1    1    2    0    0 -0.10611872100E+03 -0.23616049966E+02 -0.17807367096E+03  0.32562114958E+03  0.25000000000E+03 0.  0.
    5000001    1    1    2    0    0  0.10611872100E+03  0.23616049966E+02 -0.78322949796E+02  0.28364305954E+03  0.25000000000E+03 0.  0.
<mgrwt>
<rscale>  0 0.55268766E+03</rscale>
<asrwt>0</asrwt>
<pdfrwt beam="1">  1        2 0.66589294E-01 0.55268766E+03</pdfrwt>
<pdfrwt beam="2">  1       -2 0.27143661E-01 0.55268766E+03</pdfrwt>
<totfact> 0.90015357E+02</totfact>
</mgrwt>
</event>
<event>
 4    1  0.1805887E-005  0.5970254E+03  0.7818608E-02  0.9911597E-01
         -2   -1    0    0    0  501 -0.00000000000E+00  0.00000000000E+00  0.58589442777E+02  0.58589442832E+02  0.25500000000E-02 0. -1.
          2   -1    0    0  501    0  0.00000000000E+00 -0.00000000000E+00 -0.15209197333E+04  0.15209197333E+04  0.25500000000E-02 0.  1.
   -5000001    1    1    2    0    0 -0.30056913789E+01 -0.16300544677E+03 -0.74566307686E+03  0.80317696309E+03  0.25000000000E+03 0.  0.
    5000001    1    1    2    0    0  0.30056913789E+01  0.16300544677E+03 -0.71666721367E+03  0.77633221304E+03  0.25000000000E+03 0.  0.
<mgrwt>
<rscale>  0 0.59702543E+03</rscale>
<asrwt>0</asrwt>
<pdfrwt beam="1">  1        2 0.23398762E+00 0.59702543E+03</pdfrwt>
<pdfrwt beam="2">  1       -2 0.90137616E-02 0.59702543E+03</pdfrwt>
<totfact> 0.10227741E+03</totfact>
</mgrwt>
</event>
<event>
 4    1  0.1805887E-005  0.5620264E+03  0.7818608E-02  0.9987480E-01
          2   -1    0    0  501    0  0.00000000000E+00  0.00000000000E+00  0.19433985925E+04  0.19433985925E+04  0.25500000000E-02 0.  1.
         -2   -1    0    0    0  501 -0.00000000000E+00 -0.00000000000E+00 -0.40634188093E+02  0.40634188173E+02  0.25500000000E-02 0. -1.
   -5000001    1    1    2    0    0  0.11163832589E+03 -0.63139999717E+02  0.96662679762E+03  0.10066365487E+04  0.25000000000E+03 0.  0.
    5000001    1    1    2    0    0 -0.11163832589E+03  0.63139999717E+02  0.93613760679E+03  0.97739623194E+03  0.25000000000E+03 0.  0.
<mgrwt>
<rscale>  0 0.56202642E+03</rscale>
<asrwt>0</asrwt>
<pdfrwt beam="1">  1        2 0.29898442E+00 0.56202642E+03</pdfrwt>
<pdfrwt beam="2">  1       -2 0.62514130E-02 0.56202642E+03</pdfrwt>
<totfact> 0.10800795E+03</totfact>
</mgrwt>
</event>
<event>
 4    1  0.1805887E-005  0.8576654E+03  0.7818608E-02  0.9480106E-01
         -2   -1    0    0    0  501 -0.00000000000E+00  0.00000000000E+00  0.99310709629E+02  0.99310709661E+02  0.25500000000E-02 0. -1.
          2   -1    0    0  501    0  0.00000000000E+00 -0.00000000000E+00 -0.18517388243E+04  0.18517388243E+04  0.25500000000E-02 0.  1.
   -5000001    1    1    2    0    0  0.13964606426E+02  0.34478501290E+03 -0.76650693206E+03  0.87698608441E+03  0.25000000000E+03 0.  0.
    5000001    1    1    2    0    0 -0.13964606426E+02 -0.34478501290E+03 -0.98592118264E+03  0.10740634496E+04  0.25000000000E+03 0.  0.
<mgrwt>
<rscale>  0 0.85766543E+03</rscale>
<asrwt>0</asrwt>
<pdfrwt beam="1">  1        2 0.28488287E+00 0.85766543E+03</pdfrwt>
<pdfrwt beam="2">  1       -2 0.15278572E-01 0.85766543E+03</pdfrwt>
<totfact> 0.27761064E+02</totfact>
</mgrwt>
</event>
<event>
 4    1  0.1805887E-005  0.8137197E+03  0.7818608E-02  0.9540368E-01
          2   -1    0    0  501    0  0.00000000000E+00  0.00000000000E+00  0.70104098471E+03  0.70104098471E+03  0.25500000000E-02 0. -1.
         -2   -1    0    0    0  501 -0.00000000000E+00 -0.00000000000E+00 -0.23612734911E+03  0.23612734913E+03  0.25500000000E-02 0.  1.
   -5000001    1    1    2    0    0  0.30340838405E+03 -0.94187994972E+02  0.17959195162E+03  0.44235878537E+03  0.25000000000E+03 0.  0.
    5000001    1    1    2    0    0 -0.30340838405E+03  0.94187994972E+02  0.28532168397E+03  0.49480954846E+03  0.25000000000E+03 0.  0.
<mgrwt>
<rscale>  0 0.81371973E+03</rscale>
<asrwt>0</asrwt>
<pdfrwt beam="1">  1        2 0.10785246E+00 0.81371973E+03</pdfrwt>
<pdfrwt beam="2">  1       -2 0.36327284E-01 0.81371973E+03</pdfrwt>
<totfact> 0.29311017E+02</totfact>
</mgrwt>
</event>
<event>
 4    1  0.1805887E-005  0.7254718E+03  0.7818608E-02  0.9674637E-01
          2   -1    0    0  501    0  0.00000000000E+00  0.00000000000E+00  0.95141372262E+03  0.95141372262E+03  0.25500000000E-02 0.  1.
         -2   -1    0    0    0  501 -0.00000000000E+00 -0.00000000000E+00 -0.13829664162E+03  0.13829664165E+03  0.25500000000E-02 0. -1.
   -5000001    1    1    2    0    0  0.15680857923E+03  0.20496675967E+03  0.33180095241E+03  0.48907277077E+03  0.25000000000E+03 0.  0.
    5000001    1    1    2    0    0 -0.15680857923E+03 -0.20496675967E+03  0.48131612858E+03  0.60063759350E+03  0.25000000000E+03 0.  0.
<mgrwt>
<rscale>  0 0.72547177E+03</rscale>
<asrwt>0</asrwt>
<pdfrwt beam="1">  1        2 0.14637134E+00 0.72547177E+03</pdfrwt>
<pdfrwt beam="2">  1       -2 0.21276407E-01 0.72547177E+03</pdfrwt>
<totfact> 0.52159849E+02</totfact>
</mgrwt>
</event>
<event>
 4    1  0.1805887E-005  0.7835186E+03  0.7818608E-02  0.9584184E-01
          2   -1    0    0  501    0  0.00000000000E+00  0.00000000000E+00  0.20970181993E+04  0.20970181993E+04  0.25500000000E-02 0.  1.
         -2   -1    0    0    0  501 -0.00000000000E+00 -0.00000000000E+00 -0.73187426679E+02  0.73187426723E+02  0.25500000000E-02 0. -1.
   -5000001    1    1    2    0    0 -0.21286336115E+03 -0.21272450991E+03  0.95563702454E+03  0.10326202837E+04  0.25000000000E+03 0.  0.
    5000001    1    1    2    0    0  0.21286336115E+03  0.21272450991E+03  0.10681937481E+04  0.11375853424E+04  0.25000000000E+03 0.  0.
<mgrwt>
<rscale>  0 0.78351864E+03</rscale>
<asrwt>0</asrwt>
<pdfrwt beam="1">  1        2 0.32261822E+00 0.78351864E+03</pdfrwt>
<pdfrwt beam="2">  1       -2 0.11259603E-01 0.78351864E+03</pdfrwt>
<totfact> 0.34125391E+02</totfact>
</mgrwt>
</event>
<event>
 4    1  0.1805887E-005  0.6322292E+03  0.7818608E-02  0.9840708E-01
         -2   -1    0    0    0  501 -0.00000000000E+00  0.00000000000E+00  0.32324748179E+02  0.32324748280E+02  0.25500000000E-02 0. -1.
          2   -1    0    0  501    0  0.00000000000E+00 -0.00000000000E+00 -0.30913915292E+04  0.30913915292E+04  0.25500000000E-02 0.  1.
   -5000001    1    1    2    0    0  0.84833069251E+02  0.17365277597E+03 -0.15727524090E+04  0.16041826817E+04  0.25000000000E+03 0.  0.
    5000001    1    1    2    0    0 -0.84833069251E+02 -0.17365277597E+03 -0.14863143720E+04  0.15195335957E+04  0.25000000000E+03 0.  0.
<mgrwt>
<rscale>  0 0.63222924E+03</rscale>
<asrwt>0</asrwt>
<pdfrwt beam="1">  1        2 0.47559846E+00 0.63222924E+03</pdfrwt>
<pdfrwt beam="2">  1       -2 0.49730406E-02 0.63222924E+03</pdfrwt>
<totfact> 0.34054575E+02</totfact>
</mgrwt>
</event>
<event>
 4    1  0.1805887E-005  0.5457186E+03  0.7818608E-02  0.1002490E+00
          2   -1    0    0  501    0  0.00000000000E+00  0.00000000000E+00  0.54251380887E+03  0.54251380888E+03  0.25500000000E-02 0.  1.
         -2   -1    0    0    0  501 -0.00000000000E+00 -0.00000000000E+00 -0.13723557030E+03  0.13723557032E+03  0.25500000000E-02 0. -1.
   -5000001    1    1    2    0    0  0.21089851213E+02  0.10725797659E+03  0.20043309946E+03  0.33855942274E+03  0.25000000000E+03 0.  0.
    5000001    1    1    2    0    0 -0.21089851213E+02 -0.10725797659E+03  0.20484513912E+03  0.34118995646E+03  0.25000000000E+03 0.  0.
<mgrwt>
<rscale>  0 0.54571858E+03</rscale>
<asrwt>0</asrwt>
<pdfrwt beam="1">  1        2 0.83463663E-01 0.54571858E+03</pdfrwt>
<pdfrwt beam="2">  1       -2 0.21113165E-01 0.54571858E+03</pdfrwt>
<totfact> 0.10879360E+03</totfact>
</mgrwt>
</event>
<event>
 4    1  0.1805887E-005  0.1056239E+04  0.7818608E-02  0.9248926E-01
          2   -1    0    0  501    0  0.00000000000E+00  0.00000000000E+00  0.23786884280E+04  0.23786884280E+04  0.25500000000E-02 0.  1.
         -2   -1    0    0    0  501 -0.00000000000E+00 -0.00000000000E+00 -0.11725376313E+03  0.11725376315E+03  0.25500000000E-02 0. -1.
   -5000001    1    1    2    0    0 -0.27709260180E+03  0.33328016251E+03  0.15300246748E+04  0.16097613122E+04  0.25000000000E+03 0.  0.
    5000001    1    1    2    0    0  0.27709260180E+03 -0.33328016251E+03  0.73140999007E+03  0.88618087898E+03  0.25000000000E+03 0.  0.
<mgrwt>
<rscale>  0 0.10562389E+04</rscale>
<asrwt>0</asrwt>
<pdfrwt beam="1">  1        2 0.36595205E+00 0.10562389E+04</pdfrwt>
<pdfrwt beam="2">  1       -2 0.18039041E-01 0.10562389E+04</pdfrwt>
<totfact> 0.10501202E+02</totfact>
</mgrwt>
</event>
<event>
 4    1  0.1805887E-005  0.5598980E+03  0.7818608E-02  0.9992285E-01
          2   -1    0    0  501    0  0.00000000000E+00  0.00000000000E+00  0.53987769647E+02  0.53987769707E+02  0.25500000000E-02 0.  1.
         -2   -1    0    0    0  501 -0.00000000000E+00 -0.00000000000E+00 -0.14516519567E+04  0.14516519567E+04  0.25500000000E-02 0. -1.
   -5000001    1    1    2    0    0 -0.46101133926E+02  0.11376200093E+03 -0.62256572611E+03  0.68202286672E+03  0.25000000000E+03 0.  0.
    5000001    1    1    2    0    0  0.46101133926E+02 -0.11376200093E+03 -0.77509846093E+03  0.82361685967E+03  0.25000000000E+03 0.  0.
<mgrwt>
<rscale>  0 0.55989803E+03</rscale>
<asrwt>0</asrwt>
<pdfrwt beam="1">  1        2 0.83058118E-02 0.55989803E+03</pdfrwt>
<pdfrwt beam="2">  1       -2 0.22333104E+00 0.55989803E+03</pdfrwt>
<totfact> 0.82130727E+01</totfact>
</mgrwt>
</event>
<event>
 4    1  0.1805887E-005  0.5501944E+03  0.7818608E-02  0.1001449E+00
         -2   -1    0    0    0  501 -0.00000000000E+00  0.00000000000E+00  0.45346567754E+02  0.45346567826E+02  0.25500000000E-02 0. -1.
          2   -1    0    0  501    0  0.00000000000E+00 -0.00000000000E+00 -0.16688907417E+04  0.16688907417E+04  0.25500000000E-02 0.  1.
   -5000001    1    1    2    0    0 -0.63570635635E+02  0.64123940338E+02 -0.59090121417E+03  0.64793313725E+03  0.25000000000E+03 0.  0.
    5000001    1    1    2    0    0  0.63570635635E+02 -0.64123940338E+02 -0.10326429597E+04  0.10663041722E+04  0.25000000000E+03 0.  0.
<mgrwt>
<rscale>  0 0.55019439E+03</rscale>
<asrwt>0</asrwt>
<pdfrwt beam="1">  1        2 0.25675237E+00 0.55019439E+03</pdfrwt>
<pdfrwt beam="2">  1       -2 0.69763963E-02 0.55019439E+03</pdfrwt>
<totfact> 0.12796001E+03</totfact>
</mgrwt>
</event>
<event>
 4    1  0.1805887E-005  0.1689824E+04  0.7818608E-02  0.8767189E-01
         -2   -1    0    0    0  501 -0.00000000000E+00  0.00000000000E+00  0.67406997596E+03  0.67406997596E+03  0.25500000000E-02 0. -1.
          2   -1    0    0  501    0  0.00000000000E+00 -0.00000000000E+00 -0.10590538553E+04  0.10590538553E+04  0.25500000000E-02 0.  1.
   -5000001    1    1    2    0    0  0.47558113275E+03  0.52634976267E+03 -0.58726374115E+03  0.95425373364E+03  0.25000000000E+03 0.  0.
    5000001    1    1    2    0    0 -0.47558113275E+03 -0.52634976267E+03  0.20227986181E+03  0.77887009763E+03  0.25000000000E+03 0.  0.
<mgrwt>
<rscale>  0 0.16898241E+04</rscale>
<asrwt>0</asrwt>
<pdfrwt beam="1">  1        2 0.16293136E+00 0.16898241E+04</pdfrwt>
<pdfrwt beam="2">  1       -2 0.10370307E+00 0.16898241E+04</pdfrwt>
<totfact> 0.16665565E+01</totfact>
</mgrwt>
</event>
<event>
 4    1  0.1805887E-005  0.6498392E+03  0.7818608E-02  0.9807081E-01
         -2   -1    0    0    0  501 -0.00000000000E+00  0.00000000000E+00  0.27365672457E+03  0.27365672458E+03  0.25500000000E-02 0. -1.
          2   -1    0    0  501    0  0.00000000000E+00 -0.00000000000E+00 -0.38578536806E+03  0.38578536807E+03  0.25500000000E-02 0.  1.
   -5000001    1    1    2    0    0 -0.14475907652E+03 -0.56468683818E+02 -0.19567959629E+03  0.35346061576E+03  0.25000000000E+03 0.  0.
    5000001    1    1    2    0    0  0.14475907652E+03  0.56468683818E+02  0.83550952803E+02  0.30598147689E+03  0.25000000000E+03 0.  0.
<mgrwt>
<rscale>  0 0.64983924E+03</rscale>
<asrwt>0</asrwt>
<pdfrwt beam="1">  1        2 0.59351595E-01 0.64983924E+03</pdfrwt>
<pdfrwt beam="2">  1       -2 0.42101034E-01 0.64983924E+03</pdfrwt>
<totfact> 0.44665302E+02</totfact>
</mgrwt>
</event>
<event>
 4    1  0.1805887E-005  0.7658967E+03  0.7818608E-02  0.9610736E-01
          2   -1    0    0  501    0  0.00000000000E+00  0.00000000000E+00  0.96181153005E+03  0.96181153005E+03  0.25500000000E-02 0. -1.
         -2   -1    0    0    0  501 -0.00000000000E+00 -0.00000000000E+00 -0.15247211947E+03  0.15247211949E+03  0.25500000000E-02 0.  1.
   -5000001    1    1    2    0    0  0.38968872879E+02 -0.26863276174E+03  0.55351772885E+03  0.66525484582E+03  0.25000000000E+03 0.  0.
    5000001    1    1    2    0    0 -0.38968872879E+02  0.26863276174E+03  0.25582168173E+03  0.44902880372E+03  0.25000000000E+03 0.  0.
<mgrwt>
<rscale>  0 0.76589671E+03</rscale>
<asrwt>0</asrwt>
<pdfrwt beam="1">  1        2 0.14797100E+00 0.76589671E+03</pdfrwt>
<pdfrwt beam="2">  1       -2 0.23457250E-01 0.76589671E+03</pdfrwt>
<totfact> 0.43113015E+02</totfact>
</mgrwt>
</event>
<event>
 4    1  0.1805887E-005  0.5532096E+03  0.7818608E-02  0.1000754E+00
         -2   -1    0    0    0  501 -0.00000000000E+00  0.00000000000E+00  0.40748844393E+02  0.40748844472E+02  0.25500000000E-02 0. -1.
          2   -1    0    0  501    0  0.00000000000E+00 -0.00000000000E+00 -0.18776048304E+04  0.18776048304E+04  0.25500000000E-02 0.  1.
   -5000001    1    1    2    0    0 -0.10353544285E+03 -0.45455462311E+02 -0.79708695097E+03  0.84299074395E+03  0.25000000000E+03 0.  0.
    5000001    1    1    2    0    0  0.10353544285E+03  0.45455462311E+02 -0.10397690350E+04  0.10753629309E+04  0.25000000000E+03 0.  0.
<mgrwt>
<rscale>  0 0.55320964E+03</rscale>
<asrwt>0</asrwt>
<pdfrwt beam="1">  1        2 0.28886221E+00 0.55320964E+03</pdfrwt>
<pdfrwt beam="2">  1       -2 0.62690545E-02 0.55320964E+03</pdfrwt>
<totfact> 0.11675153E+03</totfact>
</mgrwt>
</event>
<event>
 4    1  0.1805887E-005  0.5455425E+03  0.7818608E-02  0.1002531E+00
          2   -1    0    0  501    0  0.00000000000E+00  0.00000000000E+00  0.23216595599E+03  0.23216595600E+03  0.25500000000E-02 0.  1.
         -2   -1    0    0    0  501 -0.00000000000E+00 -0.00000000000E+00 -0.32047836662E+03  0.32047836663E+03  0.25500000000E-02 0. -1.
   -5000001    1    1    2    0    0  0.45938880551E+02  0.41408935074E+02 -0.13521003096E+03  0.29087253759E+03  0.25000000000E+03 0.  0.
    5000001    1    1    2    0    0 -0.45938880551E+02 -0.41408935074E+02  0.46897620337E+02  0.26177178504E+03  0.25000000000E+03 0.  0.
<mgrwt>
<rscale>  0 0.54554254E+03</rscale>
<asrwt>0</asrwt>
<pdfrwt beam="1">  1        2 0.35717839E-01 0.54554254E+03</pdfrwt>
<pdfrwt beam="2">  1       -2 0.49304364E-01 0.54554254E+03</pdfrwt>
<totfact> 0.57353334E+02</totfact>
</mgrwt>
</event>
<event>
 4    1  0.1805887E-005  0.7954065E+03  0.7818608E-02  0.9566690E-01
         -2   -1    0    0    0  501 -0.00000000000E+00  0.00000000000E+00  0.30012083968E+03  0.30012083969E+03  0.25500000000E-02 0. -1.
          2   -1    0    0  501    0  0.00000000000E+00 -0.00000000000E+00 -0.52701391307E+03  0.52701391308E+03  0.25500000000E-02 0.  1.
   -5000001    1    1    2    0    0  0.30587166973E+03 -0.39746772997E+02 -0.13739954480E+03  0.42013797641E+03  0.25000000000E+03 0.  0.
    5000001    1    1    2    0    0 -0.30587166973E+03  0.39746772997E+02 -0.89493528589E+02  0.40699677636E+03  0.25000000000E+03 0.  0.
<mgrwt>
<rscale>  0 0.79540646E+03</rscale>
<asrwt>0</asrwt>
<pdfrwt beam="1">  1        2 0.81079064E-01 0.79540646E+03</pdfrwt>
<pdfrwt beam="2">  1       -2 0.46172437E-01 0.79540646E+03</pdfrwt>
<totfact> 0.25927496E+02</totfact>
</mgrwt>
</event>
<event>
 4    1  0.1805887E-005  0.6613079E+03  0.7818608E-02  0.9785789E-01
          2   -1    0    0  501    0  0.00000000000E+00  0.00000000000E+00  0.10147440726E+04  0.10147440726E+04  0.25500000000E-02 0.  1.
         -2   -1    0    0    0  501 -0.00000000000E+00 -0.00000000000E+00 -0.10774346367E+03  0.10774346370E+03  0.25500000000E-02 0. -1.
   -5000001    1    1    2    0    0  0.82912457175E+02 -0.15013269974E+03  0.22948706770E+03  0.38023495017E+03  0.25000000000E+03 0.  0.
    5000001    1    1    2    0    0 -0.82912457175E+02  0.15013269974E+03  0.67751354122E+03  0.74225258614E+03  0.25000000000E+03 0.  0.
<mgrwt>
<rscale>  0 0.66130792E+03</rscale>
<asrwt>0</asrwt>
<pdfrwt beam="1">  1        2 0.15611447E+00 0.66130792E+03</pdfrwt>
<pdfrwt beam="2">  1       -2 0.16575918E-01 0.66130792E+03</pdfrwt>
<totfact> 0.73401127E+02</totfact>
</mgrwt>
</event>
<event>
 4    1  0.1805887E-005  0.8487575E+03  0.7818608E-02  0.9492006E-01
          2   -1    0    0  501    0  0.00000000000E+00  0.00000000000E+00  0.20722541307E+04  0.20722541307E+04  0.25500000000E-02 0.  1.
         -2   -1    0    0    0  501 -0.00000000000E+00 -0.00000000000E+00 -0.86908907384E+02  0.86908907422E+02  0.25500000000E-02 0. -1.
   -5000001    1    1    2    0    0 -0.75632207335E+02  0.32722994943E+03  0.11688771363E+04  0.12416011559E+04  0.25000000000E+03 0.  0.
    5000001    1    1    2    0    0  0.75632207335E+02 -0.32722994943E+03  0.81646808706E+03  0.91756188226E+03  0.25000000000E+03 0.  0.
<mgrwt>
<rscale>  0 0.84875754E+03</rscale>
<asrwt>0</asrwt>
<pdfrwt beam="1">  1        2 0.31880832E+00 0.84875754E+03</pdfrwt>
<pdfrwt beam="2">  1       -2 0.13370601E-01 0.84875754E+03</pdfrwt>
<totfact> 0.26340945E+02</totfact>
</mgrwt>
</event>
<event>
 4    1  0.1805887E-005  0.1429875E+04  0.7818608E-02  0.8932473E-01
         -2   -1    0    0    0  501 -0.00000000000E+00  0.00000000000E+00  0.67674220137E+03  0.67674220137E+03  0.25500000000E-02 0. -1.
          2   -1    0    0  501    0  0.00000000000E+00 -0.00000000000E+00 -0.75528842431E+03  0.75528842432E+03  0.25500000000E-02 0.  1.
   -5000001    1    1    2    0    0  0.16993461135E+03 -0.62540081072E+03  0.13019075508E+03  0.70672029750E+03  0.25000000000E+03 0.  0.
    5000001    1    1    2    0    0 -0.16993461135E+03  0.62540081072E+03 -0.20873697803E+03  0.72531032819E+03  0.25000000000E+03 0.  0.
<mgrwt>
<rscale>  0 0.14298749E+04</rscale>
<asrwt>0</asrwt>
<pdfrwt beam="1">  1        2 0.11619822E+00 0.14298749E+04</pdfrwt>
<pdfrwt beam="2">  1       -2 0.10411419E+00 0.14298749E+04</pdfrwt>
<totfact> 0.27077836E+01</totfact>
</mgrwt>
</event>
<event>
 4    1  0.1805887E-005  0.6476702E+03  0.7818608E-02  0.9811161E-01
         -2   -1    0    0    0  501 -0.00000000000E+00  0.00000000000E+00  0.54209162420E+03  0.54209162420E+03  0.25500000000E-02 0. -1.
          2   -1    0    0  501    0  0.00000000000E+00 -0.00000000000E+00 -0.19345284073E+03  0.19345284075E+03  0.25500000000E-02 0.  1.
   -5000001    1    1    2    0    0 -0.75029848227E+02  0.14600669316E+03  0.31535267245E+03  0.43462022571E+03  0.25000000000E+03 0.  0.
    5000001    1    1    2    0    0  0.75029848227E+02 -0.14600669316E+03  0.33286111010E+02  0.30092423924E+03  0.25000000000E+03 0.  0.
<mgrwt>
<rscale>  0 0.64767018E+03</rscale>
<asrwt>0</asrwt>
<pdfrwt beam="1">  1        2 0.29761976E-01 0.64767018E+03</pdfrwt>
<pdfrwt beam="2">  1       -2 0.83398709E-01 0.64767018E+03</pdfrwt>
<totfact> 0.22839321E+02</totfact>
</mgrwt>
</event>
<event>
 4    1  0.1805887E-005  0.6905415E+03  0.7818608E-02  0.9733546E-01
          2   -1    0    0  501    0  0.00000000000E+00  0.00000000000E+00  0.26417356442E+03  0.26417356443E+03  0.25500000000E-02 0.  1.
         -2   -1    0    0    0  501 -0.00000000000E+00 -0.00000000000E+00 -0.45126349688E+03  0.45126349688E+03  0.25500000000E-02 0. -1.
   -5000001    1    1    2    0    0  0.12930021181E+03 -0.19077273604E+03 -0.31389559997E+02  0.34146461905E+03  0.25000000000E+03 0.  0.
    5000001    1    1    2    0    0 -0.12930021181E+03  0.19077273604E+03 -0.15570037246E+03  0.37397244226E+03  0.25000000000E+03 0.  0.
<mgrwt>
<rscale>  0 0.69054149E+03</rscale>
<asrwt>0</asrwt>
<pdfrwt beam="1">  1        2 0.40642087E-01 0.69054149E+03</pdfrwt>
<pdfrwt beam="2">  1       -2 0.69425153E-01 0.69054149E+03</pdfrwt>
<totfact> 0.24187655E+02</totfact>
</mgrwt>
</event>
<event>
 4    1  0.1805887E-005  0.6876607E+03  0.7818608E-02  0.9738570E-01
         -2   -1    0    0    0  501 -0.00000000000E+00  0.00000000000E+00  0.10188983538E+03  0.10188983541E+03  0.25500000000E-02 0. -1.
          2   -1    0    0  501    0  0.00000000000E+00 -0.00000000000E+00 -0.11602660996E+04  0.11602660996E+04  0.25500000000E-02 0.  1.
   -5000001    1    1    2    0    0  0.47713857537E+02 -0.22549151486E+03 -0.62271041267E+03  0.70950073540E+03  0.25000000000E+03 0.  0.
    5000001    1    1    2    0    0 -0.47713857537E+02  0.22549151486E+03 -0.43566585157E+03  0.55265519965E+03  0.25000000000E+03 0.  0.
<mgrwt>
<rscale>  0 0.68766074E+03</rscale>
<asrwt>0</asrwt>
<pdfrwt beam="1">  1        2 0.17850247E+00 0.68766074E+03</pdfrwt>
<pdfrwt beam="2">  1       -2 0.15675360E-01 0.68766074E+03</pdfrwt>
<totfact> 0.65665762E+02</totfact>
</mgrwt>
</event>
<event>
 4    1  0.1805887E-005  0.5610632E+03  0.7818608E-02  0.9989652E-01
          2   -1    0    0  501    0  0.00000000000E+00  0.00000000000E+00  0.14439621981E+04  0.14439621981E+04  0.25500000000E-02 0.  1.
         -2   -1    0    0    0  501 -0.00000000000E+00 -0.00000000000E+00 -0.54501403153E+02  0.54501403213E+02  0.25500000000E-02 0. -1.
   -5000001    1    1    2    0    0 -0.11861955649E+03  0.12393671463E+02  0.57607649578E+03  0.63920914516E+03  0.25000000000E+03 0.  0.
    5000001    1    1    2    0    0  0.11861955649E+03 -0.12393671463E+02  0.81338429912E+03  0.85925445610E+03  0.25000000000E+03 0.  0.
<mgrwt>
<rscale>  0 0.56106315E+03</rscale>
<asrwt>0</asrwt>
<pdfrwt beam="1">  1        2 0.22214799E+00 0.56106315E+03</pdfrwt>
<pdfrwt beam="2">  1       -2 0.83848327E-02 0.56106315E+03</pdfrwt>
<totfact> 0.12687235E+03</totfact>
</mgrwt>
</event>
<event>
 4    1  0.1805887E-005  0.8432620E+03  0.7818608E-02  0.9499425E-01
          2   -1    0    0  501    0  0.00000000000E+00  0.00000000000E+00  0.60964483162E+03  0.60964483162E+03  0.25500000000E-02 0.  1.
         -2   -1    0    0    0  501 -0.00000000000E+00 -0.00000000000E+00 -0.29160042913E+03  0.29160042914E+03  0.25500000000E-02 0. -1.
   -5000001    1    1    2    0    0 -0.22400444139E+03 -0.18320788768E+03  0.34879743136E+03  0.51759324570E+03  0.25000000000E+03 0.  0.
    5000001    1    1    2    0    0  0.22400444139E+03  0.18320788768E+03 -0.30753028875E+02  0.38365201506E+03  0.25000000000E+03 0.  0.
<mgrwt>
<rscale>  0 0.84326199E+03</rscale>
<asrwt>0</asrwt>
<pdfrwt beam="1">  1        2 0.93791512E-01 0.84326199E+03</pdfrwt>
<pdfrwt beam="2">  1       -2 0.44861605E-01 0.84326199E+03</pdfrwt>
<totfact> 0.23039663E+02</totfact>
</mgrwt>
</event>
<event>
 4    1  0.1805887E-005  0.5677385E+03  0.7818608E-02  0.9974696E-01
          2   -1    0    0  501    0  0.00000000000E+00  0.00000000000E+00  0.82764371462E+03  0.82764371463E+03  0.25500000000E-02 0.  1.
         -2   -1    0    0    0  501 -0.00000000000E+00 -0.00000000000E+00 -0.97362837513E+02  0.97362837547E+02  0.25500000000E-02 0. -1.
   -5000001    1    1    2    0    0 -0.40965220215E+02  0.10102642872E+03  0.23687901135E+03  0.36124251492E+03  0.25000000000E+03 0.  0.
    5000001    1    1    2    0    0  0.40965220215E+02 -0.10102642872E+03  0.49340186576E+03  0.56376403725E+03  0.25000000000E+03 0.  0.
<mgrwt>
<rscale>  0 0.56773846E+03</rscale>
<asrwt>0</asrwt>
<pdfrwt beam="1">  1        2 0.12732980E+00 0.56773846E+03</pdfrwt>
<pdfrwt beam="2">  1       -2 0.14978899E-01 0.56773846E+03</pdfrwt>
<totfact> 0.11617236E+03</totfact>
</mgrwt>
</event>
<event>
 4    1  0.1805887E-005  0.1222716E+04  0.7818608E-02  0.9093202E-01
         -2   -1    0    0    0  501 -0.00000000000E+00  0.00000000000E+00  0.35076065470E+03  0.35076065471E+03  0.25500000000E-02 0. -1.
          2   -1    0    0  501    0  0.00000000000E+00 -0.00000000000E+00 -0.10655663979E+04  0.10655663979E+04  0.25500000000E-02 0.  1.
   -5000001    1    1    2    0    0  0.22235083441E+03 -0.50632495353E+03 -0.44294736362E+03  0.75133695441E+03  0.25000000000E+03 0.  0.
    5000001    1    1    2    0    0 -0.22235083441E+03  0.50632495353E+03 -0.27185837957E+03  0.66499009818E+03  0.25000000000E+03 0.  0.
<mgrwt>
<rscale>  0 0.12227163E+04</rscale>
<asrwt>0</asrwt>
<pdfrwt beam="1">  1        2 0.16393329E+00 0.12227163E+04</pdfrwt>
<pdfrwt beam="2">  1       -2 0.53963178E-01 0.12227163E+04</pdfrwt>
<totfact> 0.72931140E+01</totfact>
</mgrwt>
</event>
<event>
 4    1  0.1805887E-005  0.7236679E+03  0.7818608E-02  0.9677592E-01
         -2   -1    0    0    0  501 -0.00000000000E+00  0.00000000000E+00  0.17932015891E+03  0.17932015893E+03  0.25500000000E-02 0. -1.
          2   -1    0    0  501    0  0.00000000000E+00 -0.00000000000E+00 -0.73011199979E+03  0.73011199980E+03  0.25500000000E-02 0.  1.
   -5000001    1    1    2    0    0  0.15815803114E+03 -0.18305801927E+03 -0.15035855804E+03  0.37898799085E+03  0.25000000000E+03 0.  0.
    5000001    1    1    2    0    0 -0.15815803114E+03  0.18305801927E+03 -0.40043328284E+03  0.53044416788E+03  0.25000000000E+03 0.  0.
<mgrwt>
<rscale>  0 0.72366788E+03</rscale>
<asrwt>0</asrwt>
<pdfrwt beam="1">  1        2 0.11232492E+00 0.72366788E+03</pdfrwt>
<pdfrwt beam="2">  1       -2 0.27587717E-01 0.72366788E+03</pdfrwt>
<totfact> 0.46762768E+02</totfact>
</mgrwt>
</event>
<event>
 4    1  0.1805887E-005  0.6604352E+03  0.7818608E-02  0.9787393E-01
          2   -1    0    0  501    0  0.00000000000E+00  0.00000000000E+00  0.17126180860E+04  0.17126180860E+04  0.25500000000E-02 0.  1.
         -2   -1    0    0    0  501 -0.00000000000E+00 -0.00000000000E+00 -0.63670740364E+02  0.63670740415E+02  0.25500000000E-02 0. -1.
   -5000001    1    1    2    0    0  0.79894208538E+02 -0.13413457025E+03  0.42402074709E+03  0.51639980776E+03  0.25000000000E+03 0.  0.
    5000001    1    1    2    0    0 -0.79894208538E+02  0.13413457025E+03  0.12249265986E+04  0.12598890187E+04  0.25000000000E+03 0.  0.
<mgrwt>
<rscale>  0 0.66043519E+03</rscale>
<asrwt>0</asrwt>
<pdfrwt beam="1">  1        2 0.26347966E+00 0.66043519E+03</pdfrwt>
<pdfrwt beam="2">  1       -2 0.97955004E-02 0.66043519E+03</pdfrwt>
<totfact> 0.69995363E+02</totfact>
</mgrwt>
</event>
<event>
 4    1  0.1805887E-005  0.6880859E+03  0.7818608E-02  0.9737827E-01
         -2   -1    0    0    0  501 -0.00000000000E+00  0.00000000000E+00  0.77866369046E+02  0.77866369088E+02  0.25500000000E-02 0. -1.
          2   -1    0    0  501    0  0.00000000000E+00 -0.00000000000E+00 -0.15201113243E+04  0.15201113243E+04  0.25500000000E-02 0.  1.
   -5000001    1    1    2    0    0 -0.19910730723E+03  0.12693112134E+03 -0.69673003629E+03  0.77697359853E+03  0.25000000000E+03 0.  0.
    5000001    1    1    2    0    0  0.19910730723E+03 -0.12693112134E+03 -0.74551491892E+03  0.82100409481E+03  0.25000000000E+03 0.  0.
<mgrwt>
<rscale>  0 0.68808589E+03</rscale>
<asrwt>0</asrwt>
<pdfrwt beam="1">  1        2 0.23386326E+00 0.68808589E+03</pdfrwt>
<pdfrwt beam="2">  1       -2 0.11979443E-01 0.68808589E+03</pdfrwt>
<totfact> 0.64119052E+02</totfact>
</mgrwt>
</event>
<event>
 4    1  0.1805887E-005  0.9993910E+03  0.7818608E-02  0.9309213E-01
          2   -1    0    0  501    0  0.00000000000E+00  0.00000000000E+00  0.36637619794E+04  0.36637619794E+04  0.25500000000E-02 0.  1.
         -2   -1    0    0    0  501 -0.00000000000E+00 -0.00000000000E+00 -0.68152792236E+02  0.68152792283E+02  0.25500000000E-02 0. -1.
   -5000001    1    1    2    0    0 -0.99708011464E+02 -0.40536478521E+03  0.22224741741E+04  0.22751162061E+04  0.25000000000E+03 0.  0.
    5000001    1    1    2    0    0  0.99708011464E+02  0.40536478521E+03  0.13731350131E+04  0.14567985656E+04  0.25000000000E+03 0.  0.
<mgrwt>
<rscale>  0 0.99939103E+03</rscale>
<asrwt>0</asrwt>
<pdfrwt beam="1">  1        2 0.56365564E+00 0.99939103E+03</pdfrwt>
<pdfrwt beam="2">  1       -2 0.10485046E-01 0.99939103E+03</pdfrwt>
<totfact> 0.41273771E+01</totfact>
</mgrwt>
</event>
<event>
 4    1  0.1805887E-005  0.9121221E+03  0.7818608E-02  0.9410554E-01
         -2   -1    0    0    0  501 -0.00000000000E+00  0.00000000000E+00  0.13627620609E+03  0.13627620612E+03  0.25500000000E-02 0. -1.
          2   -1    0    0  501    0  0.00000000000E+00 -0.00000000000E+00 -0.15262508801E+04  0.15262508801E+04  0.25500000000E-02 0.  1.
   -5000001    1    1    2    0    0 -0.27786642044E+03  0.39829979906E+02 -0.11657088364E+04  0.12248156049E+04  0.25000000000E+03 0.  0.
    5000001    1    1    2    0    0  0.27786642044E+03 -0.39829979906E+02 -0.22426583763E+03  0.43771148127E+03  0.25000000000E+03 0.  0.
<mgrwt>
<rscale>  0 0.91212210E+03</rscale>
<asrwt>0</asrwt>
<pdfrwt beam="1">  1        2 0.23480782E+00 0.91212210E+03</pdfrwt>
<pdfrwt beam="2">  1       -2 0.20965571E-01 0.91212210E+03</pdfrwt>
<totfact> 0.24183134E+02</totfact>
</mgrwt>
</event>
<event>
 4    1  0.1805887E-005  0.1104874E+04  0.7818608E-02  0.9200454E-01
          2   -1    0    0  501    0  0.00000000000E+00  0.00000000000E+00  0.58776424480E+03  0.58776424481E+03  0.25500000000E-02 0.  1.
         -2   -1    0    0    0  501 -0.00000000000E+00 -0.00000000000E+00 -0.51923348574E+03  0.51923348575E+03  0.25500000000E-02 0. -1.
   -5000001    1    1    2    0    0  0.45182712611E+03 -0.18523057872E+03  0.99419253879E+02  0.55753233738E+03  0.25000000000E+03 0.  0.
    5000001    1    1    2    0    0 -0.45182712611E+03  0.18523057872E+03 -0.30888494817E+02  0.54946539318E+03  0.25000000000E+03 0.  0.
<mgrwt>
<rscale>  0 0.11048744E+04</rscale>
<asrwt>0</asrwt>
<pdfrwt beam="1">  1        2 0.90425268E-01 0.11048744E+04</pdfrwt>
<pdfrwt beam="2">  1       -2 0.79882075E-01 0.11048744E+04</pdfrwt>
<totfact> 0.70040097E+01</totfact>
</mgrwt>
</event>
<event>
 4    1  0.1805887E-005  0.7602971E+03  0.7818608E-02  0.9619333E-01
          2   -1    0    0  501    0  0.00000000000E+00  0.00000000000E+00  0.46778810567E+03  0.46778810567E+03  0.25500000000E-02 0.  1.
         -2   -1    0    0    0  501 -0.00000000000E+00 -0.00000000000E+00 -0.30892813424E+03  0.30892813425E+03  0.25500000000E-02 0. -1.
   -5000001    1    1    2    0    0 -0.26879078644E+03  0.27609585364E+01  0.18033963693E+03  0.40899693693E+03  0.25000000000E+03 0.  0.
    5000001    1    1    2    0    0  0.26879078644E+03 -0.27609585364E+01 -0.21479665509E+02  0.36771930300E+03  0.25000000000E+03 0.  0.
<mgrwt>
<rscale>  0 0.76029706E+03</rscale>
<asrwt>0</asrwt>
<pdfrwt beam="1">  1        2 0.71967400E-01 0.76029706E+03</pdfrwt>
<pdfrwt beam="2">  1       -2 0.47527406E-01 0.76029706E+03</pdfrwt>
<totfact> 0.28127838E+02</totfact>
</mgrwt>
</event>
<event>
 4    1  0.1805887E-005  0.1010913E+04  0.7818608E-02  0.9296656E-01
         -2   -1    0    0    0  501 -0.00000000000E+00  0.00000000000E+00  0.75382103453E+02  0.75382103496E+02  0.25500000000E-02 0. -1.
          2   -1    0    0  501    0  0.00000000000E+00 -0.00000000000E+00 -0.33892180274E+04  0.33892180274E+04  0.25500000000E-02 0.  1.
   -5000001    1    1    2    0    0  0.36498388211E+03  0.14368762264E+03 -0.23348366578E+04  0.23807187120E+04  0.25000000000E+03 0.  0.
    5000001    1    1    2    0    0 -0.36498388211E+03 -0.14368762264E+03 -0.97899926616E+03  0.10838814189E+04  0.25000000000E+03 0.  0.
<mgrwt>
<rscale>  0 0.10109132E+04</rscale>
<asrwt>0</asrwt>
<pdfrwt beam="1">  1        2 0.52141804E+00 0.10109132E+04</pdfrwt>
<pdfrwt beam="2">  1       -2 0.11597249E-01 0.10109132E+04</pdfrwt>
<totfact> 0.54075173E+01</totfact>
</mgrwt>
</event>
<event>
 4    1  0.1805887E-005  0.5727291E+03  0.7818608E-02  0.9963658E-01
          2   -1    0    0  501    0  0.00000000000E+00  0.00000000000E+00  0.84085348279E+03  0.84085348279E+03  0.25500000000E-02 0.  1.
         -2   -1    0    0    0  501 -0.00000000000E+00 -0.00000000000E+00 -0.97525513631E+02  0.97525513664E+02  0.25500000000E-02 0. -1.
   -5000001    1    1    2    0    0  0.11611933643E+03  0.76115944654E+02  0.39636744768E+03  0.48875811084E+03  0.25000000000E+03 0.  0.
    5000001    1    1    2    0    0 -0.11611933643E+03 -0.76115944654E+02  0.34696052147E+03  0.44962088562E+03  0.25000000000E+03 0.  0.
<mgrwt>
<rscale>  0 0.57272914E+03</rscale>
<asrwt>0</asrwt>
<pdfrwt beam="1">  1        2 0.12936207E+00 0.57272914E+03</pdfrwt>
<pdfrwt beam="2">  1       -2 0.15003926E-01 0.57272914E+03</pdfrwt>
<totfact> 0.11341269E+03</totfact>
</mgrwt>
</event>
<event>
 4    1  0.1805887E-005  0.1153291E+04  0.7818608E-02  0.9154753E-01
          2   -1    0    0  501    0  0.00000000000E+00  0.00000000000E+00  0.20569590927E+04  0.20569590927E+04  0.25500000000E-02 0.  1.
         -2   -1    0    0    0  501 -0.00000000000E+00 -0.00000000000E+00 -0.16165609019E+03  0.16165609021E+03  0.25500000000E-02 0. -1.
   -5000001    1    1    2    0    0 -0.44917547858E+03  0.51335550957E+02  0.14404633486E+04  0.15303034366E+04  0.25000000000E+03 0.  0.
    5000001    1    1    2    0    0  0.44917547858E+03 -0.51335550957E+02  0.45483965388E+03  0.68831174630E+03  0.25000000000E+03 0.  0.
<mgrwt>
<rscale>  0 0.11532909E+04</rscale>
<asrwt>0</asrwt>
<pdfrwt beam="1">  1        2 0.31645525E+00 0.11532909E+04</pdfrwt>
<pdfrwt beam="2">  1       -2 0.24870167E-01 0.11532909E+04</pdfrwt>
<totfact> 0.89203974E+01</totfact>
</mgrwt>
</event>
<event>
 4    1  0.1805887E-005  0.9113212E+03  0.7818608E-02  0.9411539E-01
          2   -1    0    0  501    0  0.00000000000E+00  0.00000000000E+00  0.17623806860E+04  0.17623806860E+04  0.25500000000E-02 0.  1.
         -2   -1    0    0    0  501 -0.00000000000E+00 -0.00000000000E+00 -0.11781029613E+03  0.11781029616E+03  0.25500000000E-02 0. -1.
   -5000001    1    1    2    0    0  0.25670765771E+03 -0.51749250887E+02  0.25146087433E+03  0.44080537407E+03  0.25000000000E+03 0.  0.
    5000001    1    1    2    0    0 -0.25670765771E+03  0.51749250887E+02  0.13931095155E+04  0.14393856081E+04  0.25000000000E+03 0.  0.
<mgrwt>
<rscale>  0 0.91132122E+03</rscale>
<asrwt>0</asrwt>
<pdfrwt beam="1">  1        2 0.27113548E+00 0.91132122E+03</pdfrwt>
<pdfrwt beam="2">  1       -2 0.18124662E-01 0.91132122E+03</pdfrwt>
<totfact> 0.23098086E+02</totfact>
</mgrwt>
</event>
<event>
 4    1  0.1805887E-005  0.8879339E+03  0.7818608E-02  0.9440792E-01
          2   -1    0    0  501    0  0.00000000000E+00  0.00000000000E+00  0.18665766616E+04  0.18665766616E+04  0.25500000000E-02 0.  1.
         -2   -1    0    0    0  501 -0.00000000000E+00 -0.00000000000E+00 -0.10559795209E+03  0.10559795212E+03  0.25500000000E-02 0. -1.
   -5000001    1    1    2    0    0 -0.24140815681E+03 -0.27355323839E+03  0.79454176701E+03  0.90934365997E+03  0.25000000000E+03 0.  0.
    5000001    1    1    2    0    0  0.24140815681E+03  0.27355323839E+03  0.96643694249E+03  0.10628309537E+04  0.25000000000E+03 0.  0.
<mgrwt>
<rscale>  0 0.88793395E+03</rscale>
<asrwt>0</asrwt>
<pdfrwt beam="1">  1        2 0.28716563E+00 0.88793395E+03</pdfrwt>
<pdfrwt beam="2">  1       -2 0.16245839E-01 0.88793395E+03</pdfrwt>
<totfact> 0.24488243E+02</totfact>
</mgrwt>
</event>
<event>
 4    1  0.1805887E-005  0.5476619E+03  0.7818608E-02  0.1002037E+00
          2   -1    0    0  501    0  0.00000000000E+00  0.00000000000E+00  0.17716762066E+04  0.17716762066E+04  0.25500000000E-02 0.  1.
         -2   -1    0    0    0  501 -0.00000000000E+00 -0.00000000000E+00 -0.42323409595E+02  0.42323409672E+02  0.25500000000E-02 0. -1.
   -5000001    1    1    2    0    0  0.96243008908E+02  0.27112729651E+02  0.69954224501E+03  0.74957132378E+03  0.25000000000E+03 0.  0.
    5000001    1    1    2    0    0 -0.96243008908E+02 -0.27112729651E+02  0.10298105520E+04  0.10644282925E+04  0.25000000000E+03 0.  0.
<mgrwt>
<rscale>  0 0.54766186E+03</rscale>
<asrwt>0</asrwt>
<pdfrwt beam="1">  1        2 0.27256556E+00 0.54766186E+03</pdfrwt>
<pdfrwt beam="2">  1       -2 0.65112941E-02 0.54766186E+03</pdfrwt>
<totfact> 0.12551464E+03</totfact>
</mgrwt>
</event>
<event>
 4    1  0.1805887E-005  0.9853221E+03  0.7818608E-02  0.9324791E-01
         -2   -1    0    0    0  501 -0.00000000000E+00  0.00000000000E+00  0.25354569085E+03  0.25354569086E+03  0.25500000000E-02 0. -1.
          2   -1    0    0  501    0  0.00000000000E+00 -0.00000000000E+00 -0.95728271586E+03  0.95728271586E+03  0.25500000000E-02 0.  1.
   -5000001    1    1    2    0    0  0.21096317131E+02  0.40726309671E+03 -0.49678413960E+03  0.68963959131E+03  0.25000000000E+03 0.  0.
    5000001    1    1    2    0    0 -0.21096317131E+02 -0.40726309671E+03 -0.20695288541E+03  0.52118881542E+03  0.25000000000E+03 0.  0.
<mgrwt>
<rscale>  0 0.98532209E+03</rscale>
<asrwt>0</asrwt>
<pdfrwt beam="1">  1        2 0.14727426E+00 0.98532209E+03</pdfrwt>
<pdfrwt beam="2">  1       -2 0.39007030E-01 0.98532209E+03</pdfrwt>
<totfact> 0.16650949E+02</totfact>
</mgrwt>
</event>
<event>
 4    1  0.1805887E-005  0.6321522E+03  0.7818608E-02  0.9840858E-01
          2   -1    0    0  501    0  0.00000000000E+00  0.00000000000E+00  0.13679228334E+04  0.13679228334E+04  0.25500000000E-02 0.  1.
         -2   -1    0    0    0  501 -0.00000000000E+00 -0.00000000000E+00 -0.73033426431E+02  0.73033426476E+02  0.25500000000E-02 0. -1.
   -5000001    1    1    2    0    0 -0.10929707599E+03 -0.61565676101E+02  0.31190983395E+03  0.41895575877E+03  0.25000000000E+03 0.  0.
    5000001    1    1    2    0    0  0.10929707599E+03  0.61565676101E+02  0.98297957304E+03  0.10220005011E+04  0.25000000000E+03 0.  0.
<mgrwt>
<rscale>  0 0.63215217E+03</rscale>
<asrwt>0</asrwt>
<pdfrwt beam="1">  1        2 0.21044964E+00 0.63215217E+03</pdfrwt>
<pdfrwt beam="2">  1       -2 0.11235913E-01 0.63215217E+03</pdfrwt>
<totfact> 0.86902294E+02</totfact>
</mgrwt>
</event>
<event>
 4    1  0.1805887E-005  0.8466895E+03  0.7818608E-02  0.9494791E-01
          2   -1    0    0  501    0  0.00000000000E+00  0.00000000000E+00  0.10552676417E+04  0.10552676417E+04  0.25500000000E-02 0.  1.
         -2   -1    0    0    0  501 -0.00000000000E+00 -0.00000000000E+00 -0.16983441299E+03  0.16983441301E+03  0.25500000000E-02 0. -1.
   -5000001    1    1    2    0    0  0.13256398815E+03 -0.15643949179E+03  0.83811373796E+03  0.89832130293E+03  0.25000000000E+03 0.  0.
    5000001    1    1    2    0    0 -0.13256398815E+03  0.15643949179E+03  0.47319490772E+02  0.32678075181E+03  0.25000000000E+03 0.  0.
<mgrwt>
<rscale>  0 0.84668946E+03</rscale>
<asrwt>0</asrwt>
<pdfrwt beam="1">  1        2 0.16234887E+00 0.84668946E+03</pdfrwt>
<pdfrwt beam="2">  1       -2 0.26128371E-01 0.84668946E+03</pdfrwt>
<totfact> 0.30833652E+02</totfact>
</mgrwt>
</event>
<event>
 4    1  0.1805887E-005  0.5577731E+03  0.7818608E-02  0.9997106E-01
         -2   -1    0    0    0  501 -0.00000000000E+00  0.00000000000E+00  0.94018557921E+02  0.94018557956E+02  0.25500000000E-02 0. -1.
          2   -1    0    0  501    0  0.00000000000E+00 -0.00000000000E+00 -0.82725923195E+03  0.82725923196E+03  0.25500000000E-02 0.  1.
   -5000001    1    1    2    0    0 -0.80806242322E+02  0.20784456785E+02 -0.51724367505E+03  0.58051930358E+03  0.25000000000E+03 0.  0.
    5000001    1    1    2    0    0  0.80806242322E+02 -0.20784456785E+02 -0.21599699898E+03  0.34075848633E+03  0.25000000000E+03 0.  0.
<mgrwt>
<rscale>  0 0.55777314E+03</rscale>
<asrwt>0</asrwt>
<pdfrwt beam="1">  1        2 0.12727065E+00 0.55777314E+03</pdfrwt>
<pdfrwt beam="2">  1       -2 0.14464394E-01 0.55777314E+03</pdfrwt>
<totfact> 0.12328991E+03</totfact>
</mgrwt>
</event>
<event>
 4    1  0.1805887E-005  0.6206183E+03  0.7818608E-02  0.9863529E-01
         -2   -1    0    0    0  501 -0.00000000000E+00  0.00000000000E+00  0.10613465904E+03  0.10613465907E+03  0.25500000000E-02 0. -1.
          2   -1    0    0  501    0  0.00000000000E+00 -0.00000000000E+00 -0.90726040428E+03  0.90726040428E+03  0.25500000000E-02 0.  1.
   -5000001    1    1    2    0    0  0.14981756377E+02  0.18289715231E+03 -0.41814591212E+03  0.52059756546E+03  0.25000000000E+03 0.  0.
    5000001    1    1    2    0    0 -0.14981756377E+02 -0.18289715231E+03 -0.38297983312E+03  0.49279749789E+03  0.25000000000E+03 0.  0.
<mgrwt>
<rscale>  0 0.62061832E+03</rscale>
<asrwt>0</asrwt>
<pdfrwt beam="1">  1        2 0.13957852E+00 0.62061832E+03</pdfrwt>
<pdfrwt beam="2">  1       -2 0.16328410E-01 0.62061832E+03</pdfrwt>
<totfact> 0.88505107E+02</totfact>
</mgrwt>
</event>
<event>
 4    1  0.1805887E-005  0.6061304E+03  0.7818608E-02  0.9892768E-01
          2   -1    0    0  501    0  0.00000000000E+00  0.00000000000E+00  0.47922810260E+03  0.47922810260E+03  0.25500000000E-02 0.  1.
         -2   -1    0    0    0  501 -0.00000000000E+00 -0.00000000000E+00 -0.19165930554E+03  0.19165930556E+03  0.25500000000E-02 0. -1.
   -5000001    1    1    2    0    0  0.32283163482E+02  0.16587270016E+03  0.17494475224E+03  0.34880026037E+03  0.25000000000E+03 0.  0.
    5000001    1    1    2    0    0 -0.32283163482E+02 -0.16587270016E+03  0.11262404482E+03  0.32208714779E+03  0.25000000000E+03 0.  0.
<mgrwt>
<rscale>  0 0.60613043E+03</rscale>
<asrwt>0</asrwt>
<pdfrwt beam="1">  1        2 0.73727399E-01 0.60613043E+03</pdfrwt>
<pdfrwt beam="2">  1       -2 0.29486047E-01 0.60613043E+03</pdfrwt>
<totfact> 0.68871460E+02</totfact>
</mgrwt>
</event>
<event>
 4    1  0.1805887E-005  0.5503947E+03  0.7818608E-02  0.1001403E+00
         -2   -1    0    0    0  501 -0.00000000000E+00  0.00000000000E+00  0.10179630277E+03  0.10179630280E+03  0.25500000000E-02 0. -1.
          2   -1    0    0  501    0  0.00000000000E+00 -0.00000000000E+00 -0.74397177024E+03  0.74397177024E+03  0.25500000000E-02 0.  1.
   -5000001    1    1    2    0    0 -0.82912597544E+02  0.73812950078E+02 -0.36746132477E+03  0.45809461428E+03  0.25000000000E+03 0.  0.
    5000001    1    1    2    0    0  0.82912597544E+02 -0.73812950078E+02 -0.27471414270E+03  0.38767345876E+03  0.25000000000E+03 0.  0.
<mgrwt>
<rscale>  0 0.55039468E+03</rscale>
<asrwt>0</asrwt>
<pdfrwt beam="1">  1        2 0.11445719E+00 0.55039468E+03</pdfrwt>
<pdfrwt beam="2">  1       -2 0.15660970E-01 0.55039468E+03</pdfrwt>
<totfact> 0.12384722E+03</totfact>
</mgrwt>
</event>
<event>
 4    1  0.1805887E-005  0.9711381E+03  0.7818608E-02  0.9340779E-01
         -2   -1    0    0    0  501 -0.00000000000E+00  0.00000000000E+00  0.16615711709E+03  0.16615711711E+03  0.25500000000E-02 0. -1.
          2   -1    0    0  501    0  0.00000000000E+00 -0.00000000000E+00 -0.14190020213E+04  0.14190020213E+04  0.25500000000E-02 0.  1.
   -5000001    1    1    2    0    0  0.41407090925E+03  0.24284014485E+02 -0.68373473123E+03  0.83787684890E+03  0.25000000000E+03 0.  0.
    5000001    1    1    2    0    0 -0.41407090925E+03 -0.24284014485E+02 -0.56911017301E+03  0.74728228954E+03  0.25000000000E+03 0.  0.
<mgrwt>
<rscale>  0 0.97113806E+03</rscale>
<asrwt>0</asrwt>
<pdfrwt beam="1">  1        2 0.21830800E+00 0.97113806E+03</pdfrwt>
<pdfrwt beam="2">  1       -2 0.25562634E-01 0.97113806E+03</pdfrwt>
<totfact> 0.19417180E+02</totfact>
</mgrwt>
</event>
<event>
 4    1  0.1805887E-005  0.7630323E+03  0.7818608E-02  0.9615124E-01
         -2   -1    0    0    0  501 -0.00000000000E+00  0.00000000000E+00  0.97200070802E+03  0.97200070803E+03  0.25500000000E-02 0. -1.
          2   -1    0    0  501    0  0.00000000000E+00 -0.00000000000E+00 -0.14974738536E+03  0.14974738538E+03  0.25500000000E-02 0.  1.
   -5000001    1    1    2    0    0  0.26376694400E+03 -0.86040158587E+01  0.24090026876E+03  0.43609628447E+03  0.25000000000E+03 0.  0.
    5000001    1    1    2    0    0 -0.26376694400E+03  0.86040158587E+01  0.58135305390E+03  0.68565180895E+03  0.25000000000E+03 0.  0.
<mgrwt>
<rscale>  0 0.76303228E+03</rscale>
<asrwt>0</asrwt>
<pdfrwt beam="1">  1        2 0.23038060E-01 0.76303228E+03</pdfrwt>
<pdfrwt beam="2">  1       -2 0.14953856E+00 0.76303228E+03</pdfrwt>
<totfact> 0.73502222E+01</totfact>
</mgrwt>
</event>
<event>
 4    1  0.1805887E-005  0.8932904E+03  0.7818608E-02  0.9434008E-01
          2   -1    0    0  501    0  0.00000000000E+00  0.00000000000E+00  0.28263868264E+04  0.28263868264E+04  0.25500000000E-02 0. -1.
         -2   -1    0    0    0  501 -0.00000000000E+00 -0.00000000000E+00 -0.70581958431E+02  0.70581958477E+02  0.25500000000E-02 0.  1.
   -5000001    1    1    2    0    0  0.30807861171E+03 -0.19554452847E+03  0.11768914001E+04  0.12572682535E+04  0.25000000000E+03 0.  0.
    5000001    1    1    2    0    0 -0.30807861171E+03  0.19554452847E+03  0.15789134679E+04  0.16397005314E+04  0.25000000000E+03 0.  0.
<mgrwt>
<rscale>  0 0.89329036E+03</rscale>
<asrwt>0</asrwt>
<pdfrwt beam="1">  1        2 0.43482867E+00 0.89329036E+03</pdfrwt>
<pdfrwt beam="2">  1       -2 0.10858765E-01 0.89329036E+03</pdfrwt>
<totfact> 0.13809643E+02</totfact>
</mgrwt>
</event>
<event>
 4    1  0.1805887E-005  0.1282982E+04  0.7818608E-02  0.9043170E-01
          2   -1    0    0  501    0  0.00000000000E+00  0.00000000000E+00  0.19911992803E+04  0.19911992803E+04  0.25500000000E-02 0. -1.
         -2   -1    0    0    0  501 -0.00000000000E+00 -0.00000000000E+00 -0.20666487177E+03  0.20666487178E+03  0.25500000000E-02 0.  1.
   -5000001    1    1    2    0    0  0.19943597079E+03  0.54854863859E+03  0.10486248207E+04  0.12258851211E+04  0.25000000000E+03 0.  0.
    5000001    1    1    2    0    0 -0.19943597079E+03 -0.54854863859E+03  0.73590958775E+03  0.97197903099E+03  0.25000000000E+03 0.  0.
<mgrwt>
<rscale>  0 0.12829824E+04</rscale>
<asrwt>0</asrwt>
<pdfrwt beam="1">  1        2 0.30633834E+00 0.12829824E+04</pdfrwt>
<pdfrwt beam="2">  1       -2 0.31794597E-01 0.12829824E+04</pdfrwt>
<totfact> 0.61025219E+01</totfact>
</mgrwt>
</event>
<event>
 4    1  0.1805887E-005  0.6656260E+03  0.7818608E-02  0.9777892E-01
          2   -1    0    0  501    0  0.00000000000E+00  0.00000000000E+00  0.13626343524E+04  0.13626343524E+04  0.25500000000E-02 0.  1.
         -2   -1    0    0    0  501 -0.00000000000E+00 -0.00000000000E+00 -0.81287035438E+02  0.81287035478E+02  0.25500000000E-02 0. -1.
   -5000001    1    1    2    0    0  0.14220256769E+02 -0.20750926162E+03  0.79409778671E+03  0.85811048486E+03  0.25000000000E+03 0.  0.
    5000001    1    1    2    0    0 -0.14220256769E+02  0.20750926162E+03  0.48724953020E+03  0.58581090298E+03  0.25000000000E+03 0.  0.
<mgrwt>
<rscale>  0 0.66562604E+03</rscale>
<asrwt>0</asrwt>
<pdfrwt beam="1">  1        2 0.20963604E+00 0.66562604E+03</pdfrwt>
<pdfrwt beam="2">  1       -2 0.12505698E-01 0.66562604E+03</pdfrwt>
<totfact> 0.73239253E+02</totfact>
</mgrwt>
</event>
<event>
 4    1  0.1805887E-005  0.6586676E+03  0.7818608E-02  0.9790650E-01
          2   -1    0    0  501    0  0.00000000000E+00  0.00000000000E+00  0.27566570591E+04  0.27566570591E+04  0.25500000000E-02 0.  1.
         -2   -1    0    0    0  501 -0.00000000000E+00 -0.00000000000E+00 -0.39345031498E+02  0.39345031581E+02  0.25500000000E-02 0. -1.
   -5000001    1    1    2    0    0 -0.57182501868E+02 -0.18930557945E+03  0.17100977222E+04  0.17395518562E+04  0.25000000000E+03 0.  0.
    5000001    1    1    2    0    0  0.57182501868E+02  0.18930557945E+03  0.10072143054E+04  0.10564502344E+04  0.25000000000E+03 0.  0.
<mgrwt>
<rscale>  0 0.65866762E+03</rscale>
<asrwt>0</asrwt>
<pdfrwt beam="1">  1        2 0.42410133E+00 0.65866762E+03</pdfrwt>
<pdfrwt beam="2">  1       -2 0.60530783E-02 0.65866762E+03</pdfrwt>
<totfact> 0.39714597E+02</totfact>
</mgrwt>
</event>
<event>
 4    1  0.1805887E-005  0.5888684E+03  0.7818608E-02  0.9928774E-01
          2   -1    0    0  501    0  0.00000000000E+00  0.00000000000E+00  0.13966570144E+04  0.13966570144E+04  0.25500000000E-02 0.  1.
         -2   -1    0    0    0  501 -0.00000000000E+00 -0.00000000000E+00 -0.62070713171E+02  0.62070713223E+02  0.25500000000E-02 0. -1.
   -5000001    1    1    2    0    0  0.13877366298E+03  0.69605506980E+02  0.69058920729E+03  0.75067736702E+03  0.25000000000E+03 0.  0.
    5000001    1    1    2    0    0 -0.13877366298E+03 -0.69605506980E+02  0.64399709393E+03  0.70805036059E+03  0.25000000000E+03 0.  0.
<mgrwt>
<rscale>  0 0.58886840E+03</rscale>
<asrwt>0</asrwt>
<pdfrwt beam="1">  1        2 0.21487029E+00 0.58886840E+03</pdfrwt>
<pdfrwt beam="2">  1       -2 0.95493412E-02 0.58886840E+03</pdfrwt>
<totfact> 0.10928766E+03</totfact>
</mgrwt>
</event>
<event>
 4    1  0.1805887E-005  0.7230860E+03  0.7818608E-02  0.9678547E-01
         -2   -1    0    0    0  501 -0.00000000000E+00  0.00000000000E+00  0.59228399143E+02  0.59228399198E+02  0.25500000000E-02 0. -1.
          2   -1    0    0  501    0  0.00000000000E+00 -0.00000000000E+00 -0.22069368956E+04  0.22069368956E+04  0.25500000000E-02 0.  1.
   -5000001    1    1    2    0    0 -0.17778943124E+03 -0.11920578907E+01 -0.16734506319E+04  0.17013369802E+04  0.25000000000E+03 0.  0.
    5000001    1    1    2    0    0  0.17778943124E+03  0.11920578907E+01 -0.47425786460E+03  0.56482831462E+03  0.25000000000E+03 0.  0.
<mgrwt>
<rscale>  0 0.72308600E+03</rscale>
<asrwt>0</asrwt>
<pdfrwt beam="1">  1        2 0.33952869E+00 0.72308600E+03</pdfrwt>
<pdfrwt beam="2">  1       -2 0.91120631E-02 0.72308600E+03</pdfrwt>
<totfact> 0.42125162E+02</totfact>
</mgrwt>
</event>
<event>
 4    1  0.1805887E-005  0.1160038E+04  0.7818608E-02  0.9148573E-01
         -2   -1    0    0    0  501 -0.00000000000E+00  0.00000000000E+00  0.79313571378E+03  0.79313571379E+03  0.25500000000E-02 0. -1.
          2   -1    0    0  501    0  0.00000000000E+00 -0.00000000000E+00 -0.42416710905E+03  0.42416710906E+03  0.25500000000E-02 0.  1.
   -5000001    1    1    2    0    0 -0.32539363699E+03  0.15612045657E+03 -0.21326149819E+03  0.48809331338E+03  0.25000000000E+03 0.  0.
    5000001    1    1    2    0    0  0.32539363699E+03 -0.15612045657E+03  0.58223010292E+03  0.72920950947E+03  0.25000000000E+03 0.  0.
<mgrwt>
<rscale>  0 0.11600381E+04</rscale>
<asrwt>0</asrwt>
<pdfrwt beam="1">  1        2 0.65256479E-01 0.11600381E+04</pdfrwt>
<pdfrwt beam="2">  1       -2 0.12202088E+00 0.11600381E+04</pdfrwt>
<totfact> 0.37473742E+01</totfact>
</mgrwt>
</event>
<event>
 4    1  0.1805887E-005  0.1007382E+04  0.7818608E-02  0.9300486E-01
          2   -1    0    0  501    0  0.00000000000E+00  0.00000000000E+00  0.32736842935E+04  0.32736842935E+04  0.25500000000E-02 0.  1.
         -2   -1    0    0    0  501 -0.00000000000E+00 -0.00000000000E+00 -0.77498126622E+02  0.77498126664E+02  0.25500000000E-02 0. -1.
   -5000001    1    1    2    0    0  0.43408559893E+03 -0.40277701328E+01  0.17727922995E+04  0.18422103754E+04  0.25000000000E+03 0.  0.
    5000001    1    1    2    0    0 -0.43408559893E+03  0.40277701328E+01  0.14233938674E+04  0.15089720447E+04  0.25000000000E+03 0.  0.
<mgrwt>
<rscale>  0 0.10073816E+04</rscale>
<asrwt>0</asrwt>
<pdfrwt beam="1">  1        2 0.50364364E+00 0.10073816E+04</pdfrwt>
<pdfrwt beam="2">  1       -2 0.11922791E-01 0.10073816E+04</pdfrwt>
<totfact> 0.61592704E+01</totfact>
</mgrwt>
</event>
<event>
 4    1  0.1805887E-005  0.6872913E+03  0.7818608E-02  0.9739216E-01
          2   -1    0    0  501    0  0.00000000000E+00  0.00000000000E+00  0.22666635577E+03  0.22666635578E+03  0.25500000000E-02 0.  1.
         -2   -1    0    0    0  501 -0.00000000000E+00 -0.00000000000E+00 -0.52099630925E+03  0.52099630926E+03  0.25500000000E-02 0. -1.
   -5000001    1    1    2    0    0 -0.76380195828E+02 -0.20824815513E+03 -0.60198301542E+02  0.33959544157E+03  0.25000000000E+03 0.  0.
    5000001    1    1    2    0    0  0.76380195828E+02  0.20824815513E+03 -0.23413165194E+03  0.40806722347E+03  0.25000000000E+03 0.  0.
<mgrwt>
<rscale>  0 0.68729131E+03</rscale>
<asrwt>0</asrwt>
<pdfrwt beam="1">  1        2 0.34871747E-01 0.68729131E+03</pdfrwt>
<pdfrwt beam="2">  1       -2 0.80153278E-01 0.68729131E+03</pdfrwt>
<totfact> 0.20882749E+02</totfact>
</mgrwt>
</event>
<event>
 4    1  0.1805887E-005  0.6095781E+03  0.7818608E-02  0.9885731E-01
         -2   -1    0    0    0  501 -0.00000000000E+00  0.00000000000E+00  0.24665943325E+03  0.24665943326E+03  0.25500000000E-02 0. -1.
          2   -1    0    0  501    0  0.00000000000E+00 -0.00000000000E+00 -0.37661793124E+03  0.37661793125E+03  0.25500000000E-02 0.  1.
   -5000001    1    1    2    0    0 -0.10886622319E+03 -0.13498523645E+03 -0.46589024210E+02  0.30780416792E+03  0.25000000000E+03 0.  0.
    5000001    1    1    2    0    0  0.10886622319E+03  0.13498523645E+03 -0.83369473786E+02  0.31547319660E+03  0.25000000000E+03 0.  0.
<mgrwt>
<rscale>  0 0.60957810E+03</rscale>
<asrwt>0</asrwt>
<pdfrwt beam="1">  1        2 0.57941220E-01 0.60957810E+03</pdfrwt>
<pdfrwt beam="2">  1       -2 0.37947605E-01 0.60957810E+03</pdfrwt>
<totfact> 0.56192325E+02</totfact>
</mgrwt>
</event>
<event>
 4    1  0.1805887E-005  0.5508079E+03  0.7818608E-02  0.1001307E+00
         -2   -1    0    0    0  501 -0.00000000000E+00  0.00000000000E+00  0.40318679480E+02  0.40318679561E+02  0.25500000000E-02 0. -1.
          2   -1    0    0  501    0  0.00000000000E+00 -0.00000000000E+00 -0.18811956608E+04  0.18811956608E+04  0.25500000000E-02 0.  1.
   -5000001    1    1    2    0    0  0.10051675810E+03  0.41739969959E+02 -0.10556156924E+04  0.10902615896E+04  0.25000000000E+03 0.  0.
    5000001    1    1    2    0    0 -0.10051675810E+03 -0.41739969959E+02 -0.78526128897E+03  0.83125275080E+03  0.25000000000E+03 0.  0.
<mgrwt>
<rscale>  0 0.55080786E+03</rscale>
<asrwt>0</asrwt>
<pdfrwt beam="1">  1        2 0.28941465E+00 0.55080786E+03</pdfrwt>
<pdfrwt beam="2">  1       -2 0.62028752E-02 0.55080786E+03</pdfrwt>
<totfact> 0.11819794E+03</totfact>
</mgrwt>
</event>
<event>
 4    1  0.1805887E-005  0.1830298E+04  0.7818608E-02  0.8690351E-01
         -2   -1    0    0    0  501 -0.00000000000E+00  0.00000000000E+00  0.48525941767E+03  0.48525941768E+03  0.25500000000E-02 0. -1.
          2   -1    0    0  501    0  0.00000000000E+00 -0.00000000000E+00 -0.17258758989E+04  0.17258758989E+04  0.25500000000E-02 0.  1.
   -5000001    1    1    2    0    0 -0.57613038073E+03  0.47059695187E+03 -0.11890145737E+04  0.14246555244E+04  0.25000000000E+03 0.  0.
    5000001    1    1    2    0    0  0.57613038073E+03 -0.47059695187E+03 -0.51601907569E+02  0.78647979222E+03  0.25000000000E+03 0.  0.
<mgrwt>
<rscale>  0 0.18302978E+04</rscale>
<asrwt>0</asrwt>
<pdfrwt beam="1">  1        2 0.26551937E+00 0.18302978E+04</pdfrwt>
<pdfrwt beam="2">  1       -2 0.74655296E-01 0.18302978E+04</pdfrwt>
<totfact> 0.14412361E+01</totfact>
</mgrwt>
</event>
<event>
 4    1  0.1805887E-005  0.8890997E+03  0.7818608E-02  0.9439311E-01
         -2   -1    0    0    0  501 -0.00000000000E+00  0.00000000000E+00  0.11234402567E+03  0.11234402570E+03  0.25500000000E-02 0. -1.
          2   -1    0    0  501    0  0.00000000000E+00 -0.00000000000E+00 -0.17591015856E+04  0.17591015856E+04  0.25500000000E-02 0.  1.
   -5000001    1    1    2    0    0  0.29464255572E+03  0.39375361642E+02 -0.12785382104E+04  0.13362352376E+04  0.25000000000E+03 0.  0.
    5000001    1    1    2    0    0 -0.29464255572E+03 -0.39375361642E+02 -0.36821934949E+03  0.53521037367E+03  0.25000000000E+03 0.  0.
<mgrwt>
<rscale>  0 0.88909967E+03</rscale>
<asrwt>0</asrwt>
<pdfrwt beam="1">  1        2 0.27063099E+00 0.88909967E+03</pdfrwt>
<pdfrwt beam="2">  1       -2 0.17283698E-01 0.88909967E+03</pdfrwt>
<totfact> 0.25215767E+02</totfact>
</mgrwt>
</event>
<event>
 4    1  0.1805887E-005  0.1017972E+04  0.7818608E-02  0.9289050E-01
         -2   -1    0    0    0  501 -0.00000000000E+00  0.00000000000E+00  0.18408442581E+03  0.18408442583E+03  0.25500000000E-02 0. -1.
          2   -1    0    0  501    0  0.00000000000E+00 -0.00000000000E+00 -0.14073269015E+04  0.14073269015E+04  0.25500000000E-02 0.  1.
   -5000001    1    1    2    0    0 -0.32837568858E+03 -0.29638418005E+03 -0.56491004196E+03  0.75980098088E+03  0.25000000000E+03 0.  0.
    5000001    1    1    2    0    0  0.32837568858E+03  0.29638418005E+03 -0.65833243371E+03  0.83161034644E+03  0.25000000000E+03 0.  0.
<mgrwt>
<rscale>  0 0.10179724E+04</rscale>
<asrwt>0</asrwt>
<pdfrwt beam="1">  1        2 0.21651182E+00 0.10179724E+04</pdfrwt>
<pdfrwt beam="2">  1       -2 0.28320682E-01 0.10179724E+04</pdfrwt>
<totfact> 0.16297495E+02</totfact>
</mgrwt>
</event>
<event>
 4    1  0.1805887E-005  0.6602601E+03  0.7818608E-02  0.9787715E-01
         -2   -1    0    0    0  501 -0.00000000000E+00  0.00000000000E+00  0.36627479976E+03  0.36627479977E+03  0.25500000000E-02 0. -1.
          2   -1    0    0  501    0  0.00000000000E+00 -0.00000000000E+00 -0.29755216441E+03  0.29755216443E+03  0.25500000000E-02 0.  1.
   -5000001    1    1    2    0    0  0.19835603161E+03 -0.82375412480E+02  0.15417139891E+02  0.32995228755E+03  0.25000000000E+03 0.  0.
    5000001    1    1    2    0    0 -0.19835603161E+03  0.82375412480E+02  0.53305495457E+02  0.33387467664E+03  0.25000000000E+03 0.  0.
<mgrwt>
<rscale>  0 0.66026013E+03</rscale>
<asrwt>0</asrwt>
<pdfrwt beam="1">  1        2 0.45777256E-01 0.66026013E+03</pdfrwt>
<pdfrwt beam="2">  1       -2 0.56349969E-01 0.66026013E+03</pdfrwt>
<totfact> 0.33068205E+02</totfact>
</mgrwt>
</event>
<event>
 4    1  0.1805887E-005  0.6839465E+03  0.7818608E-02  0.9745087E-01
         -2   -1    0    0    0  501 -0.00000000000E+00  0.00000000000E+00  0.80060494919E+02  0.80060494960E+02  0.25500000000E-02 0. -1.
          2   -1    0    0  501    0  0.00000000000E+00 -0.00000000000E+00 -0.14607168311E+04  0.14607168311E+04  0.25500000000E-02 0.  1.
   -5000001    1    1    2    0    0  0.17804893321E+03 -0.52071292448E+02 -0.37147603897E+03  0.48467235288E+03  0.25000000000E+03 0.  0.
    5000001    1    1    2    0    0 -0.17804893321E+03  0.52071292448E+02 -0.10091802973E+04  0.10561049732E+04  0.25000000000E+03 0.  0.
<mgrwt>
<rscale>  0 0.68394653E+03</rscale>
<asrwt>0</asrwt>
<pdfrwt beam="1">  1        2 0.22472565E+00 0.68394653E+03</pdfrwt>
<pdfrwt beam="2">  1       -2 0.12317000E-01 0.68394653E+03</pdfrwt>
<totfact> 0.66092037E+02</totfact>
</mgrwt>
</event>
<event>
 4    1  0.1805887E-005  0.1041423E+04  0.7818608E-02  0.9264244E-01
         -2   -1    0    0    0  501 -0.00000000000E+00  0.00000000000E+00  0.61285452672E+03  0.61285452673E+03  0.25500000000E-02 0. -1.
          2   -1    0    0  501    0  0.00000000000E+00 -0.00000000000E+00 -0.44242229825E+03  0.44242229825E+03  0.25500000000E-02 0.  1.
   -5000001    1    1    2    0    0  0.12847124073E+02  0.40743540124E+03 -0.12361240496E+03  0.49391161299E+03  0.25000000000E+03 0.  0.
    5000001    1    1    2    0    0 -0.12847124073E+02 -0.40743540124E+03  0.29404463344E+03  0.56136521200E+03  0.25000000000E+03 0.  0.
<mgrwt>
<rscale>  0 0.10414231E+04</rscale>
<asrwt>0</asrwt>
<pdfrwt beam="1">  1        2 0.68064969E-01 0.10414231E+04</pdfrwt>
<pdfrwt beam="2">  1       -2 0.94285312E-01 0.10414231E+04</pdfrwt>
<totfact> 0.67039817E+01</totfact>
</mgrwt>
</event>
<event>
 4    1  0.1805887E-005  0.1031672E+04  0.7818608E-02  0.9274474E-01
         -2   -1    0    0    0  501 -0.00000000000E+00  0.00000000000E+00  0.83757041182E+02  0.83757041221E+02  0.25500000000E-02 0. -1.
          2   -1    0    0  501    0  0.00000000000E+00 -0.00000000000E+00 -0.31768874749E+04  0.31768874749E+04  0.25500000000E-02 0.  1.
   -5000001    1    1    2    0    0 -0.30340912494E+02 -0.33093746495E+03 -0.25111606279E+04  0.25453620324E+04  0.25000000000E+03 0.  0.
    5000001    1    1    2    0    0  0.30340912494E+02  0.33093746495E+03 -0.58196980579E+03  0.71528248373E+03  0.25000000000E+03 0.  0.
<mgrwt>
<rscale>  0 0.10316718E+04</rscale>
<asrwt>0</asrwt>
<pdfrwt beam="1">  1        2 0.48875183E+00 0.10316718E+04</pdfrwt>
<pdfrwt beam="2">  1       -2 0.12885701E-01 0.10316718E+04</pdfrwt>
<totfact> 0.62319989E+01</totfact>
</mgrwt>
</event>
<event>
 4    1  0.1805887E-005  0.9010749E+03  0.7818608E-02  0.9424239E-01
          2   -1    0    0  501    0  0.00000000000E+00  0.00000000000E+00  0.14771917714E+04  0.14771917714E+04  0.25500000000E-02 0. -1.
         -2   -1    0    0    0  501 -0.00000000000E+00 -0.00000000000E+00 -0.13741206796E+03  0.13741206798E+03  0.25500000000E-02 0.  1.
   -5000001    1    1    2    0    0  0.10334364529E+03  0.32028077067E+03  0.37423607661E+03  0.56197181613E+03  0.25000000000E+03 0.  0.
    5000001    1    1    2    0    0 -0.10334364529E+03 -0.32028077067E+03  0.96554362684E+03  0.10526320233E+04  0.25000000000E+03 0.  0.
<mgrwt>
<rscale>  0 0.90107486E+03</rscale>
<asrwt>0</asrwt>
<pdfrwt beam="1">  1        2 0.22726027E+00 0.90107486E+03</pdfrwt>
<pdfrwt beam="2">  1       -2 0.21140318E-01 0.90107486E+03</pdfrwt>
<totfact> 0.25404744E+02</totfact>
</mgrwt>
</event>
<event>
 4    1  0.1805887E-005  0.8887382E+03  0.7818608E-02  0.9439770E-01
          2   -1    0    0  501    0  0.00000000000E+00  0.00000000000E+00  0.52213147391E+03  0.52213147391E+03  0.25500000000E-02 0.  1.
         -2   -1    0    0    0  501 -0.00000000000E+00 -0.00000000000E+00 -0.37818811530E+03  0.37818811531E+03  0.25500000000E-02 0. -1.
   -5000001    1    1    2    0    0 -0.13000445639E+03 -0.30376548362E+03  0.23465481126E+03  0.47616962121E+03  0.25000000000E+03 0.  0.
    5000001    1    1    2    0    0  0.13000445639E+03  0.30376548362E+03 -0.90711452650E+02  0.42414996801E+03  0.25000000000E+03 0.  0.
<mgrwt>
<rscale>  0 0.88873825E+03</rscale>
<asrwt>0</asrwt>
<pdfrwt beam="1">  1        2 0.80327919E-01 0.88873825E+03</pdfrwt>
<pdfrwt beam="2">  1       -2 0.58182787E-01 0.88873825E+03</pdfrwt>
<totfact> 0.16247238E+02</totfact>
</mgrwt>
</event>
<event>
 4    1  0.1805887E-005  0.1238332E+04  0.7818608E-02  0.9079951E-01
          2   -1    0    0  501    0  0.00000000000E+00  0.00000000000E+00  0.72548803876E+03  0.72548803876E+03  0.25500000000E-02 0.  1.
         -2   -1    0    0    0  501 -0.00000000000E+00 -0.00000000000E+00 -0.52842531807E+03  0.52842531807E+03  0.25500000000E-02 0. -1.
   -5000001    1    1    2    0    0  0.56356353496E+03 -0.56110115154E+02  0.87717814748E+02  0.62525724145E+03  0.25000000000E+03 0.  0.
    5000001    1    1    2    0    0 -0.56356353496E+03  0.56110115154E+02  0.10934490594E+03  0.62865611539E+03  0.25000000000E+03 0.  0.
<mgrwt>
<rscale>  0 0.12383315E+04</rscale>
<asrwt>0</asrwt>
<pdfrwt beam="1">  1        2 0.11161354E+00 0.12383315E+04</pdfrwt>
<pdfrwt beam="2">  1       -2 0.81296203E-01 0.12383315E+04</pdfrwt>
<totfact> 0.51386996E+01</totfact>
</mgrwt>
</event>
<event>
 4    1  0.1805887E-005  0.7338443E+03  0.7818608E-02  0.9661043E-01
          2   -1    0    0  501    0  0.00000000000E+00  0.00000000000E+00  0.12924078750E+04  0.12924078750E+04  0.25500000000E-02 0.  1.
         -2   -1    0    0    0  501 -0.00000000000E+00 -0.00000000000E+00 -0.10417135043E+03  0.10417135047E+03  0.25500000000E-02 0. -1.
   -5000001    1    1    2    0    0 -0.61858682193E+02 -0.18592913375E+03  0.24457034334E+03  0.40088750564E+03  0.25000000000E+03 0.  0.
    5000001    1    1    2    0    0  0.61858682193E+02  0.18592913375E+03  0.94366618126E+03  0.99569171986E+03  0.25000000000E+03 0.  0.
<mgrwt>
<rscale>  0 0.73384433E+03</rscale>
<asrwt>0</asrwt>
<pdfrwt beam="1">  1        2 0.19883199E+00 0.73384433E+03</pdfrwt>
<pdfrwt beam="2">  1       -2 0.16026361E-01 0.73384433E+03</pdfrwt>
<totfact> 0.52791954E+02</totfact>
</mgrwt>
</event>
<event>
 4    1  0.1805887E-005  0.5684104E+03  0.7818608E-02  0.9973202E-01
         -2   -1    0    0    0  501 -0.00000000000E+00  0.00000000000E+00  0.10322122941E+03  0.10322122944E+03  0.25500000000E-02 0. -1.
          2   -1    0    0  501    0  0.00000000000E+00 -0.00000000000E+00 -0.78251920238E+03  0.78251920238E+03  0.25500000000E-02 0.  1.
   -5000001    1    1    2    0    0  0.35711814393E+02  0.12278517082E+03 -0.40794811764E+03  0.49525064214E+03  0.25000000000E+03 0.  0.
    5000001    1    1    2    0    0 -0.35711814393E+02 -0.12278517082E+03 -0.27134985533E+03  0.39048978968E+03  0.25000000000E+03 0.  0.
<mgrwt>
<rscale>  0 0.56841039E+03</rscale>
<asrwt>0</asrwt>
<pdfrwt beam="1">  1        2 0.12038757E+00 0.56841039E+03</pdfrwt>
<pdfrwt beam="2">  1       -2 0.15880190E-01 0.56841039E+03</pdfrwt>
<totfact> 0.11332075E+03</totfact>
</mgrwt>
</event>
<event>
 4    1  0.1805887E-005  0.6431305E+03  0.7818608E-02  0.9819755E-01
          2   -1    0    0  501    0  0.00000000000E+00  0.00000000000E+00  0.96483687851E+03  0.96483687852E+03  0.25500000000E-02 0.  1.
         -2   -1    0    0    0  501 -0.00000000000E+00 -0.00000000000E+00 -0.10717274152E+03  0.10717274155E+03  0.25500000000E-02 0. -1.
   -5000001    1    1    2    0    0  0.12862090139E+03 -0.14991568962E+03  0.35644029835E+03  0.47808758252E+03  0.25000000000E+03 0.  0.
    5000001    1    1    2    0    0 -0.12862090139E+03  0.14991568962E+03  0.50122383864E+03  0.59392203755E+03  0.25000000000E+03 0.  0.
<mgrwt>
<rscale>  0 0.64313051E+03</rscale>
<asrwt>0</asrwt>
<pdfrwt beam="1">  1        2 0.14843644E+00 0.64313051E+03</pdfrwt>
<pdfrwt beam="2">  1       -2 0.16488115E-01 0.64313051E+03</pdfrwt>
<totfact> 0.79753031E+02</totfact>
</mgrwt>
</event>
<event>
 4    1  0.1805887E-005  0.7414500E+03  0.7818608E-02  0.9648860E-01
          2   -1    0    0  501    0  0.00000000000E+00  0.00000000000E+00  0.16031350756E+04  0.16031350756E+04  0.25500000000E-02 0.  1.
         -2   -1    0    0    0  501 -0.00000000000E+00 -0.00000000000E+00 -0.85730148429E+02  0.85730148467E+02  0.25500000000E-02 0. -1.
   -5000001    1    1    2    0    0 -0.14351634952E+03  0.22332041269E+03  0.60644710477E+03  0.70763482121E+03  0.25000000000E+03 0.  0.
    5000001    1    1    2    0    0  0.14351634952E+03 -0.22332041269E+03  0.91095782245E+03  0.98123040290E+03  0.25000000000E+03 0.  0.
<mgrwt>
<rscale>  0 0.74144995E+03</rscale>
<asrwt>0</asrwt>
<pdfrwt beam="1">  1        2 0.24663615E+00 0.74144995E+03</pdfrwt>
<pdfrwt beam="2">  1       -2 0.13189254E-01 0.74144995E+03</pdfrwt>
<totfact> 0.49032297E+02</totfact>
</mgrwt>
</event>
<event>
 4    1  0.1805887E-005  0.1025947E+04  0.7818608E-02  0.9280536E-01
          2   -1    0    0  501    0  0.00000000000E+00  0.00000000000E+00  0.43634649530E+03  0.43634649531E+03  0.25500000000E-02 0.  1.
         -2   -1    0    0    0  501 -0.00000000000E+00 -0.00000000000E+00 -0.60305700281E+03  0.60305700281E+03  0.25500000000E-02 0. -1.
   -5000001    1    1    2    0    0 -0.31902373479E+03  0.31373700612E+03 -0.62230936599E+02  0.51631360803E+03  0.25000000000E+03 0.  0.
    5000001    1    1    2    0    0  0.31902373479E+03 -0.31373700612E+03 -0.10447957091E+03  0.52308989008E+03  0.25000000000E+03 0.  0.
<mgrwt>
<rscale>  0 0.10259470E+04</rscale>
<asrwt>0</asrwt>
<pdfrwt beam="1">  1        2 0.67130230E-01 0.10259470E+04</pdfrwt>
<pdfrwt beam="2">  1       -2 0.92778001E-01 0.10259470E+04</pdfrwt>
<totfact> 0.70776357E+01</totfact>
</mgrwt>
</event>
<event>
 4    1  0.1805887E-005  0.8669595E+03  0.7818608E-02  0.9467853E-01
          2   -1    0    0  501    0  0.00000000000E+00  0.00000000000E+00  0.57654868111E+03  0.57654868111E+03  0.25500000000E-02 0.  1.
         -2   -1    0    0    0  501 -0.00000000000E+00 -0.00000000000E+00 -0.32591294420E+03  0.32591294421E+03  0.25500000000E-02 0. -1.
   -5000001    1    1    2    0    0  0.27616426172E+03 -0.16555485282E+03 -0.28128110410E+02  0.40861509925E+03  0.25000000000E+03 0.  0.
    5000001    1    1    2    0    0 -0.27616426172E+03  0.16555485282E+03  0.27876384732E+03  0.49384652607E+03  0.25000000000E+03 0.  0.
<mgrwt>
<rscale>  0 0.86695946E+03</rscale>
<asrwt>0</asrwt>
<pdfrwt beam="1">  1        2 0.88699797E-01 0.86695946E+03</pdfrwt>
<pdfrwt beam="2">  1       -2 0.50140453E-01 0.86695946E+03</pdfrwt>
<totfact> 0.19673060E+02</totfact>
</mgrwt>
</event>
<event>
 4    1  0.1805887E-005  0.5449194E+03  0.7818608E-02  0.1002677E+00
          2   -1    0    0  501    0  0.00000000000E+00  0.00000000000E+00  0.30329578172E+03  0.30329578173E+03  0.25500000000E-02 0.  1.
         -2   -1    0    0    0  501 -0.00000000000E+00 -0.00000000000E+00 -0.24475870969E+03  0.24475870970E+03  0.25500000000E-02 0. -1.
   -5000001    1    1    2    0    0 -0.55597103966E+02  0.35475992844E+02 -0.57160151131E+02  0.26479589671E+03  0.25000000000E+03 0.  0.
    5000001    1    1    2    0    0  0.55597103966E+02 -0.35475992844E+02  0.11569722316E+03  0.28325859472E+03  0.25000000000E+03 0.  0.
<mgrwt>
<rscale>  0 0.54491939E+03</rscale>
<asrwt>0</asrwt>
<pdfrwt beam="1">  1        2 0.46660890E-01 0.54491939E+03</pdfrwt>
<pdfrwt beam="2">  1       -2 0.37655186E-01 0.54491939E+03</pdfrwt>
<totfact> 0.72548437E+02</totfact>
</mgrwt>
</event>
<event>
 4    1  0.1805887E-005  0.1142175E+04  0.7818608E-02  0.9165033E-01
          2   -1    0    0  501    0  0.00000000000E+00  0.00000000000E+00  0.16782587371E+04  0.16782587371E+04  0.25500000000E-02 0.  1.
         -2   -1    0    0    0  501 -0.00000000000E+00 -0.00000000000E+00 -0.19433303784E+03  0.19433303785E+03  0.25500000000E-02 0. -1.
   -5000001    1    1    2    0    0 -0.27745618790E+03  0.36173829931E+03  0.11292608727E+04  0.12432082094E+04  0.25000000000E+03 0.  0.
    5000001    1    1    2    0    0  0.27745618790E+03 -0.36173829931E+03  0.35466482665E+03  0.62938356560E+03  0.25000000000E+03 0.  0.
<mgrwt>
<rscale>  0 0.11421753E+04</rscale>
<asrwt>0</asrwt>
<pdfrwt beam="1">  1        2 0.25819366E+00 0.11421753E+04</pdfrwt>
<pdfrwt beam="2">  1       -2 0.29897390E-01 0.11421753E+04</pdfrwt>
<totfact> 0.10304791E+02</totfact>
</mgrwt>
</event>
<event>
 4    1  0.1805887E-005  0.9511153E+03  0.7818608E-02  0.9363848E-01
          2   -1    0    0  501    0  0.00000000000E+00  0.00000000000E+00  0.67602149298E+03  0.67602149298E+03  0.25500000000E-02 0.  1.
         -2   -1    0    0    0  501 -0.00000000000E+00 -0.00000000000E+00 -0.33453827905E+03  0.33453827906E+03  0.25500000000E-02 0. -1.
   -5000001    1    1    2    0    0 -0.29176108877E+03 -0.86415396400E+02 -0.11249563246E+03  0.40956979989E+03  0.25000000000E+03 0.  0.
    5000001    1    1    2    0    0  0.29176108877E+03  0.86415396400E+02  0.45397884639E+03  0.60098997215E+03  0.25000000000E+03 0.  0.
<mgrwt>
<rscale>  0 0.95111528E+03</rscale>
<asrwt>0</asrwt>
<pdfrwt beam="1">  1        2 0.10400331E+00 0.95111528E+03</pdfrwt>
<pdfrwt beam="2">  1       -2 0.51467428E-01 0.95111528E+03</pdfrwt>
<totfact> 0.15285662E+02</totfact>
</mgrwt>
</event>
<event>
 4    1  0.1805887E-005  0.1550910E+04  0.7818608E-02  0.8851287E-01
         -2   -1    0    0    0  501 -0.00000000000E+00  0.00000000000E+00  0.24820412344E+03  0.24820412345E+03  0.25500000000E-02 0. -1.
          2   -1    0    0  501    0  0.00000000000E+00 -0.00000000000E+00 -0.24227243437E+04  0.24227243437E+04  0.25500000000E-02 0.  1.
   -5000001    1    1    2    0    0  0.71423604678E+03  0.16724114782E+02 -0.79694641893E+03  0.10991071018E+04  0.25000000000E+03 0.  0.
    5000001    1    1    2    0    0 -0.71423604678E+03 -0.16724114782E+02 -0.13775738013E+04  0.15718213653E+04  0.25000000000E+03 0.  0.
<mgrwt>
<rscale>  0 0.15509096E+04</rscale>
<asrwt>0</asrwt>
<pdfrwt beam="1">  1        2 0.37272681E+00 0.15509096E+04</pdfrwt>
<pdfrwt beam="2">  1       -2 0.38185251E-01 0.15509096E+04</pdfrwt>
<totfact> 0.24092117E+01</totfact>
</mgrwt>
</event>
<event>
 4    1  0.1805887E-005  0.1753479E+04  0.7818608E-02  0.8731438E-01
          2   -1    0    0  501    0  0.00000000000E+00  0.00000000000E+00  0.91932352111E+03  0.91932352111E+03  0.25500000000E-02 0.  1.
         -2   -1    0    0    0  501 -0.00000000000E+00 -0.00000000000E+00 -0.83612762842E+03  0.83612762842E+03  0.25500000000E-02 0. -1.
   -5000001    1    1    2    0    0  0.10598108644E+03  0.31002728880E+03  0.81630493621E+03  0.91444117327E+03  0.25000000000E+03 0.  0.
    5000001    1    1    2    0    0 -0.10598108644E+03 -0.31002728880E+03 -0.73310904352E+03  0.84100997627E+03  0.25000000000E+03 0.  0.
<mgrwt>
<rscale>  0 0.17534786E+04</rscale>
<asrwt>0</asrwt>
<pdfrwt beam="1">  1        2 0.14143439E+00 0.17534786E+04</pdfrwt>
<pdfrwt beam="2">  1       -2 0.12863502E+00 0.17534786E+04</pdfrwt>
<totfact> 0.12026543E+01</totfact>
</mgrwt>
</event>
<event>
 4    1  0.1805887E-005  0.5886678E+03  0.7818608E-02  0.9929200E-01
         -2   -1    0    0    0  501 -0.00000000000E+00  0.00000000000E+00  0.23032807883E+02  0.23032808024E+02  0.25500000000E-02 0. -1.
          2   -1    0    0  501    0  0.00000000000E+00 -0.00000000000E+00 -0.37612629958E+04  0.37612629958E+04  0.25500000000E-02 0.  1.
   -5000001    1    1    2    0    0  0.13557949396E+03 -0.61979743378E+02 -0.21500049165E+04  0.21696184984E+04  0.25000000000E+03 0.  0.
    5000001    1    1    2    0    0 -0.13557949396E+03  0.61979743378E+02 -0.15882252714E+04  0.16146773054E+04  0.25000000000E+03 0.  0.
<mgrwt>
<rscale>  0 0.58866781E+03</rscale>
<asrwt>0</asrwt>
<pdfrwt beam="1">  1        2 0.57865536E+00 0.58866781E+03</pdfrwt>
<pdfrwt beam="2">  1       -2 0.35435119E-02 0.58866781E+03</pdfrwt>
<totfact> 0.20581743E+02</totfact>
</mgrwt>
</event>
<event>
 4    1  0.1805887E-005  0.7583050E+03  0.7818608E-02  0.9622411E-01
          2   -1    0    0  501    0  0.00000000000E+00  0.00000000000E+00  0.94383937929E+03  0.94383937929E+03  0.25500000000E-02 0.  1.
         -2   -1    0    0    0  501 -0.00000000000E+00 -0.00000000000E+00 -0.15231045071E+03  0.15231045073E+03  0.25500000000E-02 0. -1.
   -5000001    1    1    2    0    0  0.18436052088E+03 -0.21661457047E+03  0.36887893719E+03  0.52866089708E+03  0.25000000000E+03 0.  0.
    5000001    1    1    2    0    0 -0.18436052088E+03  0.21661457047E+03  0.42264999139E+03  0.56748893295E+03  0.25000000000E+03 0.  0.
<mgrwt>
<rscale>  0 0.75830496E+03</rscale>
<asrwt>0</asrwt>
<pdfrwt beam="1">  1        2 0.14520606E+00 0.75830496E+03</pdfrwt>
<pdfrwt beam="2">  1       -2 0.23432377E-01 0.75830496E+03</pdfrwt>
<totfact> 0.44392773E+02</totfact>
</mgrwt>
</event>
<event>
 4    1  0.1805887E-005  0.7495790E+03  0.7818608E-02  0.9636011E-01
         -2   -1    0    0    0  501 -0.00000000000E+00  0.00000000000E+00  0.17187007171E+03  0.17187007173E+03  0.25500000000E-02 0. -1.
          2   -1    0    0  501    0  0.00000000000E+00 -0.00000000000E+00 -0.81728689106E+03  0.81728689107E+03  0.25500000000E-02 0.  1.
   -5000001    1    1    2    0    0 -0.11168900652E+03 -0.25546762161E+03 -0.34267856386E+03  0.50760884350E+03  0.25000000000E+03 0.  0.
    5000001    1    1    2    0    0  0.11168900652E+03  0.25546762161E+03 -0.30273825549E+03  0.48154811930E+03  0.25000000000E+03 0.  0.
<mgrwt>
<rscale>  0 0.74957897E+03</rscale>
<asrwt>0</asrwt>
<pdfrwt beam="1">  1        2 0.12573644E+00 0.74957897E+03</pdfrwt>
<pdfrwt beam="2">  1       -2 0.26441550E-01 0.74957897E+03</pdfrwt>
<totfact> 0.43562934E+02</totfact>
</mgrwt>
</event>
<event>
 4    1  0.1805887E-005  0.6097829E+03  0.7818608E-02  0.9885315E-01
         -2   -1    0    0    0  501 -0.00000000000E+00  0.00000000000E+00  0.39082334497E+03  0.39082334498E+03  0.25500000000E-02 0. -1.
          2   -1    0    0  501    0  0.00000000000E+00 -0.00000000000E+00 -0.23785377700E+03  0.23785377702E+03  0.25500000000E-02 0.  1.
   -5000001    1    1    2    0    0  0.65496085701E+02 -0.14528163626E+03  0.31302296041E+01  0.29648994825E+03  0.25000000000E+03 0.  0.
    5000001    1    1    2    0    0 -0.65496085701E+02  0.14528163626E+03  0.14983933837E+03  0.33218717374E+03  0.25000000000E+03 0.  0.
<mgrwt>
<rscale>  0 0.60978294E+03</rscale>
<asrwt>0</asrwt>
<pdfrwt beam="1">  1        2 0.36592889E-01 0.60978294E+03</pdfrwt>
<pdfrwt beam="2">  1       -2 0.60126668E-01 0.60978294E+03</pdfrwt>
<totfact> 0.37049287E+02</totfact>
</mgrwt>
</event>
<event>
 4    1  0.1805887E-005  0.1184357E+04  0.7818608E-02  0.9126660E-01
          2   -1    0    0  501    0  0.00000000000E+00  0.00000000000E+00  0.69671489341E+03  0.69671489342E+03  0.25500000000E-02 0.  1.
         -2   -1    0    0    0  501 -0.00000000000E+00 -0.00000000000E+00 -0.50332677218E+03  0.50332677219E+03  0.25500000000E-02 0. -1.
   -5000001    1    1    2    0    0  0.25244892282E+03  0.47339538231E+03  0.77966543378E+02  0.59700287145E+03  0.25000000000E+03 0.  0.
    5000001    1    1    2    0    0 -0.25244892282E+03 -0.47339538231E+03  0.11542157785E+03  0.60303879416E+03  0.25000000000E+03 0.  0.
<mgrwt>
<rscale>  0 0.11843568E+04</rscale>
<asrwt>0</asrwt>
<pdfrwt beam="1">  1        2 0.10718691E+00 0.11843568E+04</pdfrwt>
<pdfrwt beam="2">  1       -2 0.77434888E-01 0.11843568E+04</pdfrwt>
<totfact> 0.60577141E+01</totfact>
</mgrwt>
</event>
<event>
 4    1  0.1805887E-005  0.1049810E+04  0.7818608E-02  0.9255541E-01
          2   -1    0    0  501    0  0.00000000000E+00  0.00000000000E+00  0.68586592595E+03  0.68586592595E+03  0.25500000000E-02 0.  1.
         -2   -1    0    0    0  501 -0.00000000000E+00 -0.00000000000E+00 -0.40171856145E+03  0.40171856146E+03  0.25500000000E-02 0. -1.
   -5000001    1    1    2    0    0  0.43526579257E+03 -0.15346982823E+03  0.13795902288E+03  0.54271722873E+03  0.25000000000E+03 0.  0.
    5000001    1    1    2    0    0 -0.43526579257E+03  0.15346982823E+03  0.14618834162E+03  0.54486725868E+03  0.25000000000E+03 0.  0.
<mgrwt>
<rscale>  0 0.10498096E+04</rscale>
<asrwt>0</asrwt>
<pdfrwt beam="1">  1        2 0.10551783E+00 0.10498096E+04</pdfrwt>
<pdfrwt beam="2">  1       -2 0.61802856E-01 0.10498096E+04</pdfrwt>
<totfact> 0.10187296E+02</totfact>
</mgrwt>
</event>
<event>
 4    1  0.1805887E-005  0.6855889E+03  0.7818608E-02  0.9742200E-01
         -2   -1    0    0    0  501 -0.00000000000E+00  0.00000000000E+00  0.93474829808E+02  0.93474829842E+02  0.25500000000E-02 0. -1.
          2   -1    0    0  501    0  0.00000000000E+00 -0.00000000000E+00 -0.12571086769E+04  0.12571086769E+04  0.25500000000E-02 0.  1.
   -5000001    1    1    2    0    0  0.10467913675E+03  0.12727521812E+02 -0.16911916282E+03  0.31972019441E+03  0.25000000000E+03 0.  0.
    5000001    1    1    2    0    0 -0.10467913675E+03 -0.12727521812E+02 -0.99451468422E+03  0.10308633123E+04  0.25000000000E+03 0.  0.
<mgrwt>
<rscale>  0 0.68558886E+03</rscale>
<asrwt>0</asrwt>
<pdfrwt beam="1">  1        2 0.19340132E+00 0.68558886E+03</pdfrwt>
<pdfrwt beam="2">  1       -2 0.14380744E-01 0.68558886E+03</pdfrwt>
<totfact> 0.66618877E+02</totfact>
</mgrwt>
</event>
<event>
 4    1  0.1805887E-005  0.8725315E+03  0.7818608E-02  0.9460585E-01
          2   -1    0    0  501    0  0.00000000000E+00  0.00000000000E+00  0.17259098762E+04  0.17259098762E+04  0.25500000000E-02 0.  1.
         -2   -1    0    0    0  501 -0.00000000000E+00 -0.00000000000E+00 -0.11027679795E+03  0.11027679798E+03  0.25500000000E-02 0. -1.
   -5000001    1    1    2    0    0  0.38689642060E+02  0.32616669831E+03  0.51060483217E+03  0.65658121975E+03  0.25000000000E+03 0.  0.
    5000001    1    1    2    0    0 -0.38689642060E+02 -0.32616669831E+03  0.11050282461E+04  0.11796054544E+04  0.25000000000E+03 0.  0.
<mgrwt>
<rscale>  0 0.87253152E+03</rscale>
<asrwt>0</asrwt>
<pdfrwt beam="1">  1        2 0.26552460E+00 0.87253152E+03</pdfrwt>
<pdfrwt beam="2">  1       -2 0.16965661E-01 0.87253152E+03</pdfrwt>
<totfact> 0.27180031E+02</totfact>
</mgrwt>
</event>
<event>
 4    1  0.1805887E-005  0.5514514E+03  0.7818608E-02  0.1001159E+00
          2   -1    0    0  501    0  0.00000000000E+00  0.00000000000E+00  0.23778823272E+04  0.23778823272E+04  0.25500000000E-02 0.  1.
         -2   -1    0    0    0  501 -0.00000000000E+00 -0.00000000000E+00 -0.31971583546E+02  0.31971583647E+02  0.25500000000E-02 0. -1.
   -5000001    1    1    2    0    0 -0.46096334781E+02  0.94675907643E+02  0.13886531364E+04  0.14149013863E+04  0.25000000000E+03 0.  0.
    5000001    1    1    2    0    0  0.46096334781E+02 -0.94675907643E+02  0.95725760726E+03  0.99495252460E+03  0.25000000000E+03 0.  0.
<mgrwt>
<rscale>  0 0.55145141E+03</rscale>
<asrwt>0</asrwt>
<pdfrwt beam="1">  1        2 0.36582801E+00 0.55145141E+03</pdfrwt>
<pdfrwt beam="2">  1       -2 0.49187057E-02 0.55145141E+03</pdfrwt>
<totfact> 0.90996995E+02</totfact>
</mgrwt>
</event>
<event>
 4    1  0.1805887E-005  0.8141030E+03  0.7818608E-02  0.9539825E-01
         -2   -1    0    0    0  501 -0.00000000000E+00  0.00000000000E+00  0.48175061810E+03  0.48175061811E+03  0.25500000000E-02 0. -1.
          2   -1    0    0  501    0  0.00000000000E+00 -0.00000000000E+00 -0.34393506498E+03  0.34393506499E+03  0.25500000000E-02 0.  1.
   -5000001    1    1    2    0    0  0.19925297661E+03 -0.21546072717E+03 -0.63587206948E+02  0.39072804676E+03  0.25000000000E+03 0.  0.
    5000001    1    1    2    0    0 -0.19925297661E+03  0.21546072717E+03  0.20140276007E+03  0.43495763633E+03  0.25000000000E+03 0.  0.
<mgrwt>
<rscale>  0 0.81410302E+03</rscale>
<asrwt>0</asrwt>
<pdfrwt beam="1">  1        2 0.52913087E-01 0.81410302E+03</pdfrwt>
<pdfrwt beam="2">  1       -2 0.74115480E-01 0.81410302E+03</pdfrwt>
<totfact> 0.15561268E+02</totfact>
</mgrwt>
</event>
<event>
 4    1  0.1805887E-005  0.1288448E+04  0.7818608E-02  0.9038776E-01
          2   -1    0    0  501    0  0.00000000000E+00  0.00000000000E+00  0.91856871792E+03  0.91856871792E+03  0.25500000000E-02 0.  1.
         -2   -1    0    0    0  501 -0.00000000000E+00 -0.00000000000E+00 -0.45181689064E+03  0.45181689064E+03  0.25500000000E-02 0. -1.
   -5000001    1    1    2    0    0 -0.46338519798E+03 -0.95046547335E+02  0.61503441994E+03  0.81518527071E+03  0.25000000000E+03 0.  0.
    5000001    1    1    2    0    0  0.46338519798E+03  0.95046547335E+02 -0.14828259266E+03  0.55520033786E+03  0.25000000000E+03 0.  0.
<mgrwt>
<rscale>  0 0.12884485E+04</rscale>
<asrwt>0</asrwt>
<pdfrwt beam="1">  1        2 0.14131826E+00 0.12884485E+04</pdfrwt>
<pdfrwt beam="2">  1       -2 0.69510291E-01 0.12884485E+04</pdfrwt>
<totfact> 0.52768382E+01</totfact>
</mgrwt>
</event>
<event>
 4    1  0.1805887E-005  0.8496220E+03  0.7818608E-02  0.9490844E-01
         -2   -1    0    0    0  501 -0.00000000000E+00  0.00000000000E+00  0.34700747121E+03  0.34700747122E+03  0.25500000000E-02 0. -1.
          2   -1    0    0  501    0  0.00000000000E+00 -0.00000000000E+00 -0.52005903334E+03  0.52005903335E+03  0.25500000000E-02 0.  1.
   -5000001    1    1    2    0    0  0.33923736856E+03  0.53484115738E+02 -0.91293663588E+02  0.43448483964E+03  0.25000000000E+03 0.  0.
    5000001    1    1    2    0    0 -0.33923736856E+03 -0.53484115738E+02 -0.81757898540E+02  0.43258166493E+03  0.25000000000E+03 0.  0.
<mgrwt>
<rscale>  0 0.84962196E+03</rscale>
<asrwt>0</asrwt>
<pdfrwt beam="1">  1        2 0.80009082E-01 0.84962196E+03</pdfrwt>
<pdfrwt beam="2">  1       -2 0.53385765E-01 0.84962196E+03</pdfrwt>
<totfact> 0.19560116E+02</totfact>
</mgrwt>
</event>
<event>
 4    1  0.1805887E-005  0.6650412E+03  0.7818608E-02  0.9778958E-01
         -2   -1    0    0    0  501 -0.00000000000E+00  0.00000000000E+00  0.13042047561E+03  0.13042047563E+03  0.25500000000E-02 0. -1.
          2   -1    0    0  501    0  0.00000000000E+00 -0.00000000000E+00 -0.84779597695E+03  0.84779597695E+03  0.25500000000E-02 0.  1.
   -5000001    1    1    2    0    0  0.21027274666E+03 -0.11836346480E+02 -0.26903180295E+03  0.42335899433E+03  0.25000000000E+03 0.  0.
    5000001    1    1    2    0    0 -0.21027274666E+03  0.11836346480E+02 -0.44834369840E+03  0.55485745825E+03  0.25000000000E+03 0.  0.
<mgrwt>
<rscale>  0 0.66504122E+03</rscale>
<asrwt>0</asrwt>
<pdfrwt beam="1">  1        2 0.13043015E+00 0.66504122E+03</pdfrwt>
<pdfrwt beam="2">  1       -2 0.20064689E-01 0.66504122E+03</pdfrwt>
<totfact> 0.68004010E+02</totfact>
</mgrwt>
</event>
<event>
 4    1  0.1805887E-005  0.6579849E+03  0.7818608E-02  0.9791910E-01
         -2   -1    0    0    0  501 -0.00000000000E+00  0.00000000000E+00  0.93899870297E+03  0.93899870298E+03  0.25500000000E-02 0. -1.
          2   -1    0    0  501    0  0.00000000000E+00 -0.00000000000E+00 -0.11526748734E+03  0.11526748736E+03  0.25500000000E-02 0.  1.
   -5000001    1    1    2    0    0  0.65964366843E+02  0.12518595174E+03  0.66879420507E+03  0.72787946045E+03  0.25000000000E+03 0.  0.
    5000001    1    1    2    0    0 -0.65964366843E+02 -0.12518595174E+03  0.15493701057E+03  0.32638672989E+03  0.25000000000E+03 0.  0.
<mgrwt>
<rscale>  0 0.65798487E+03</rscale>
<asrwt>0</asrwt>
<pdfrwt beam="1">  1        2 0.17733459E-01 0.65798487E+03</pdfrwt>
<pdfrwt beam="2">  1       -2 0.14446134E+00 0.65798487E+03</pdfrwt>
<totfact> 0.10998080E+02</totfact>
</mgrwt>
</event>
<event>
 4    1  0.1805887E-005  0.6339697E+03  0.7818608E-02  0.9837333E-01
         -2   -1    0    0    0  501 -0.00000000000E+00  0.00000000000E+00  0.14171428201E+03  0.14171428204E+03  0.25500000000E-02 0. -1.
          2   -1    0    0  501    0  0.00000000000E+00 -0.00000000000E+00 -0.70902792316E+03  0.70902792316E+03  0.25500000000E-02 0.  1.
   -5000001    1    1    2    0    0  0.10187156306E+03  0.16313881734E+03 -0.24149175802E+03  0.39725351889E+03  0.25000000000E+03 0.  0.
    5000001    1    1    2    0    0 -0.10187156306E+03 -0.16313881734E+03 -0.32582188313E+03  0.45348868630E+03  0.25000000000E+03 0.  0.
<mgrwt>
<rscale>  0 0.63396966E+03</rscale>
<asrwt>0</asrwt>
<pdfrwt beam="1">  1        2 0.10908122E+00 0.63396966E+03</pdfrwt>
<pdfrwt beam="2">  1       -2 0.21802198E-01 0.63396966E+03</pdfrwt>
<totfact> 0.74265863E+02</totfact>
</mgrwt>
</event>
<event>
 4    1  0.1805887E-005  0.5836380E+03  0.7818608E-02  0.9939946E-01
         -2   -1    0    0    0  501 -0.00000000000E+00  0.00000000000E+00  0.17744400327E+03  0.17744400328E+03  0.25500000000E-02 0. -1.
          2   -1    0    0  501    0  0.00000000000E+00 -0.00000000000E+00 -0.47991660665E+03  0.47991660665E+03  0.25500000000E-02 0.  1.
   -5000001    1    1    2    0    0 -0.77638064563E+02 -0.68265137992E+02 -0.27446638499E+03  0.38538240051E+03  0.25000000000E+03 0.  0.
    5000001    1    1    2    0    0  0.77638064563E+02  0.68265137992E+02 -0.28006218390E+02  0.27197820943E+03  0.25000000000E+03 0.  0.
<mgrwt>
<rscale>  0 0.58363798E+03</rscale>
<asrwt>0</asrwt>
<pdfrwt beam="1">  1        2 0.73833324E-01 0.58363798E+03</pdfrwt>
<pdfrwt beam="2">  1       -2 0.27299078E-01 0.58363798E+03</pdfrwt>
<totfact> 0.79211838E+02</totfact>
</mgrwt>
</event>
<event>
 4    1  0.1805887E-005  0.1596137E+04  0.7818608E-02  0.8822925E-01
          2   -1    0    0  501    0  0.00000000000E+00  0.00000000000E+00  0.32896301736E+04  0.32896301736E+04  0.25500000000E-02 0.  1.
         -2   -1    0    0    0  501 -0.00000000000E+00 -0.00000000000E+00 -0.19361243485E+03  0.19361243486E+03  0.25500000000E-02 0. -1.
   -5000001    1    1    2    0    0  0.74170491592E+02 -0.68741731858E+03  0.22254683358E+04  0.23437690042E+04  0.25000000000E+03 0.  0.
    5000001    1    1    2    0    0 -0.74170491592E+02  0.68741731858E+03  0.87054940299E+03  0.11394736042E+04  0.25000000000E+03 0.  0.
<mgrwt>
<rscale>  0 0.15961370E+04</rscale>
<asrwt>0</asrwt>
<pdfrwt beam="1">  1        2 0.50609692E+00 0.15961370E+04</pdfrwt>
<pdfrwt beam="2">  1       -2 0.29786530E-01 0.15961370E+04</pdfrwt>
<totfact> 0.11385592E+01</totfact>
</mgrwt>
</event>
<event>
 4    1  0.1805887E-005  0.7345670E+03  0.7818608E-02  0.9659878E-01
         -2   -1    0    0    0  501 -0.00000000000E+00  0.00000000000E+00  0.46249898024E+03  0.46249898024E+03  0.25500000000E-02 0. -1.
          2   -1    0    0  501    0  0.00000000000E+00 -0.00000000000E+00 -0.29167019766E+03  0.29167019767E+03  0.25500000000E-02 0.  1.
   -5000001    1    1    2    0    0 -0.14786254006E+03 -0.10370693389E+03  0.29018268620E+03  0.42346717731E+03  0.25000000000E+03 0.  0.
    5000001    1    1    2    0    0  0.14786254006E+03  0.10370693389E+03 -0.11935390362E+03  0.33070200060E+03  0.25000000000E+03 0.  0.
<mgrwt>
<rscale>  0 0.73456700E+03</rscale>
<asrwt>0</asrwt>
<pdfrwt beam="1">  1        2 0.44872338E-01 0.73456700E+03</pdfrwt>
<pdfrwt beam="2">  1       -2 0.71153689E-01 0.73456700E+03</pdfrwt>
<totfact> 0.20509539E+02</totfact>
</mgrwt>
</event>
<event>
 4    1  0.1805887E-005  0.6364582E+03  0.7818608E-02  0.9832527E-01
          2   -1    0    0  501    0  0.00000000000E+00  0.00000000000E+00  0.56873798318E+03  0.56873798318E+03  0.25500000000E-02 0.  1.
         -2   -1    0    0    0  501 -0.00000000000E+00 -0.00000000000E+00 -0.17806047841E+03  0.17806047843E+03  0.25500000000E-02 0. -1.
   -5000001    1    1    2    0    0  0.16519890562E+03  0.10712350749E+03  0.19310223306E+03  0.37222922600E+03  0.25000000000E+03 0.  0.
    5000001    1    1    2    0    0 -0.16519890562E+03 -0.10712350749E+03  0.19757527170E+03  0.37456923561E+03  0.25000000000E+03 0.  0.
<mgrwt>
<rscale>  0 0.63645819E+03</rscale>
<asrwt>0</asrwt>
<pdfrwt beam="1">  1        2 0.87498152E-01 0.63645819E+03</pdfrwt>
<pdfrwt beam="2">  1       -2 0.27393920E-01 0.63645819E+03</pdfrwt>
<totfact> 0.64538336E+02</totfact>
</mgrwt>
</event>
<event>
 4    1  0.1805887E-005  0.9309099E+03  0.7818608E-02  0.9387747E-01
          2   -1    0    0  501    0  0.00000000000E+00  0.00000000000E+00  0.79316676364E+03  0.79316676365E+03  0.25500000000E-02 0.  1.
         -2   -1    0    0    0  501 -0.00000000000E+00 -0.00000000000E+00 -0.27314343448E+03  0.27314343450E+03  0.25500000000E-02 0. -1.
   -5000001    1    1    2    0    0 -0.22023375667E+03 -0.32496967407E+03  0.25275840018E+03  0.52961779191E+03  0.25000000000E+03 0.  0.
    5000001    1    1    2    0    0  0.22023375667E+03  0.32496967407E+03  0.26726492898E+03  0.53669240623E+03  0.25000000000E+03 0.  0.
<mgrwt>
<rscale>  0 0.93090986E+03</rscale>
<asrwt>0</asrwt>
<pdfrwt beam="1">  1        2 0.12202566E+00 0.93090986E+03</pdfrwt>
<pdfrwt beam="2">  1       -2 0.42022066E-01 0.93090986E+03</pdfrwt>
<totfact> 0.18720351E+02</totfact>
</mgrwt>
</event>
