<event>
 4    1  0.2892809E-005  0.4898978E+03  0.7818608E-02  0.1016450E+00
          2   -1    0    0  501    0  0.00000000000E+00  0.00000000000E+00  0.17878934795E+04  0.17878934795E+04  0.25500000000E-02 0.  1.
         -2   -1    0    0    0  501 -0.00000000000E+00 -0.00000000000E+00 -0.33559022158E+02  0.33559022255E+02  0.25500000000E-02 0. -1.
    5000001    1    1    2    0    0 -0.10852164716E+03  0.73552248302E+02  0.11639394884E+04  0.11869313433E+04  0.19200000000E+03 0.  0.
   -5000001    1    1    2    0    0  0.10852164716E+03 -0.73552248302E+02  0.59039496893E+03  0.63452115841E+03  0.19200000000E+03 0.  0.
<mgrwt>
<rscale>  0 0.48989777E+03</rscale>
<asrwt>0</asrwt>
<pdfrwt beam="1">  1        2 0.25541331E+00 0.48989777E+03</pdfrwt>
<pdfrwt beam="2">  1       -2 0.47941468E-02 0.48989777E+03</pdfrwt>
<totfact> 0.23268266E+03</totfact>
</mgrwt>
</event>
<event>
 4    1  0.2892809E-005  0.4466975E+03  0.7818608E-02  0.1028711E+00
          2   -1    0    0  501    0  0.00000000000E+00  0.00000000000E+00  0.84503630318E+03  0.84503630319E+03  0.25500000000E-02 0. -1.
         -2   -1    0    0    0  501 -0.00000000000E+00 -0.00000000000E+00 -0.59032569260E+02  0.59032569316E+02  0.25500000000E-02 0.  1.
    5000001    1    1    2    0    0 -0.95030382004E+02  0.70693773927E+00  0.26516936512E+03  0.34089597455E+03  0.19200000000E+03 0.  0.
   -5000001    1    1    2    0    0  0.95030382004E+02 -0.70693773927E+00  0.52083436880E+03  0.56317289796E+03  0.19200000000E+03 0.  0.
<mgrwt>
<rscale>  0 0.44669750E+03</rscale>
<asrwt>0</asrwt>
<pdfrwt beam="1">  1        2 0.12071947E+00 0.44669750E+03</pdfrwt>
<pdfrwt beam="2">  1       -2 0.84332244E-02 0.44669750E+03</pdfrwt>
<totfact> 0.31834798E+03</totfact>
</mgrwt>
</event>
<event>
 4    1  0.2892809E-005  0.7869058E+03  0.7818608E-02  0.9579166E-01
          2   -1    0    0  501    0  0.00000000000E+00  0.00000000000E+00  0.12837407755E+03  0.12837407757E+03  0.25500000000E-02 0.  1.
         -2   -1    0    0    0  501 -0.00000000000E+00 -0.00000000000E+00 -0.12058914406E+04  0.12058914406E+04  0.25500000000E-02 0. -1.
    5000001    1    1    2    0    0  0.26257475112E+03 -0.60855448187E+02 -0.17790448839E+03  0.37571650548E+03  0.19200000000E+03 0.  0.
   -5000001    1    1    2    0    0 -0.26257475112E+03  0.60855448187E+02 -0.89961287467E+03  0.95854901271E+03  0.19200000000E+03 0.  0.
<mgrwt>
<rscale>  0 0.78690584E+03</rscale>
<asrwt>0</asrwt>
<pdfrwt beam="1">  1        2 0.18339155E-01 0.78690584E+03</pdfrwt>
<pdfrwt beam="2">  1       -2 0.17227020E+00 0.78690584E+03</pdfrwt>
<totfact> 0.65408693E+01</totfact>
</mgrwt>
</event>
<event>
 4    1  0.2892809E-005  0.4434396E+03  0.7818608E-02  0.1029697E+00
         -2   -1    0    0    0  501 -0.00000000000E+00  0.00000000000E+00  0.41971892794E+02  0.41971892872E+02  0.25500000000E-02 0. -1.
          2   -1    0    0  501    0  0.00000000000E+00 -0.00000000000E+00 -0.11712520390E+04  0.11712520390E+04  0.25500000000E-02 0.  1.
    5000001    1    1    2    0    0  0.63758349572E+02  0.62262207633E+02 -0.38411043792E+03  0.43857329850E+03  0.19200000000E+03 0.  0.
   -5000001    1    1    2    0    0 -0.63758349572E+02 -0.62262207633E+02 -0.74516970829E+03  0.77465063338E+03  0.19200000000E+03 0.  0.
<mgrwt>
<rscale>  0 0.44343958E+03</rscale>
<asrwt>0</asrwt>
<pdfrwt beam="1">  1        2 0.16732170E+00 0.44343958E+03</pdfrwt>
<pdfrwt beam="2">  1       -2 0.59959854E-02 0.44343958E+03</pdfrwt>
<totfact> 0.34567579E+03</totfact>
</mgrwt>
</event>
<event>
 4    1  0.2892809E-005  0.7485926E+03  0.7818608E-02  0.9637561E-01
          2   -1    0    0  501    0  0.00000000000E+00  0.00000000000E+00  0.20635506746E+04  0.20635506746E+04  0.25500000000E-02 0.  1.
         -2   -1    0    0    0  501 -0.00000000000E+00 -0.00000000000E+00 -0.67891576344E+02  0.67891576391E+02  0.25500000000E-02 0. -1.
    5000001    1    1    2    0    0 -0.19243226442E+03  0.25528881798E+03  0.90639943908E+03  0.98011555448E+03  0.19200000000E+03 0.  0.
   -5000001    1    1    2    0    0  0.19243226442E+03 -0.25528881798E+03  0.10892596591E+04  0.11513266965E+04  0.19200000000E+03 0.  0.
<mgrwt>
<rscale>  0 0.74859257E+03</rscale>
<asrwt>0</asrwt>
<pdfrwt beam="1">  1        2 0.29479292E+00 0.74859257E+03</pdfrwt>
<pdfrwt beam="2">  1       -2 0.96987976E-02 0.74859257E+03</pdfrwt>
<totfact> 0.54819685E+02</totfact>
</mgrwt>
</event>
<event>
 4    1  0.2892809E-005  0.6645968E+03  0.7818608E-02  0.9779768E-01
         -2   -1    0    0    0  501 -0.00000000000E+00  0.00000000000E+00  0.11152745387E+03  0.11152745390E+03  0.25500000000E-02 0. -1.
          2   -1    0    0  501    0  0.00000000000E+00 -0.00000000000E+00 -0.99009006050E+03  0.99009006050E+03  0.25500000000E-02 0.  1.
    5000001    1    1    2    0    0  0.23189612911E+03 -0.14064995070E+03 -0.43925580941E+03  0.55078842529E+03  0.19200000000E+03 0.  0.
   -5000001    1    1    2    0    0 -0.23189612911E+03  0.14064995070E+03 -0.43930679722E+03  0.55082908911E+03  0.19200000000E+03 0.  0.
<mgrwt>
<rscale>  0 0.66459679E+03</rscale>
<asrwt>0</asrwt>
<pdfrwt beam="1">  1        2 0.14144143E+00 0.66459679E+03</pdfrwt>
<pdfrwt beam="2">  1       -2 0.15932494E-01 0.66459679E+03</pdfrwt>
<totfact> 0.90483010E+02</totfact>
</mgrwt>
</event>
<event>
 4    1  0.2892809E-005  0.4943887E+03  0.7818608E-02  0.1015254E+00
          2   -1    0    0  501    0  0.00000000000E+00  0.00000000000E+00  0.11355212645E+03  0.11355212648E+03  0.25500000000E-02 0.  1.
         -2   -1    0    0    0  501 -0.00000000000E+00 -0.00000000000E+00 -0.53812338313E+03  0.53812338313E+03  0.25500000000E-02 0. -1.
    5000001    1    1    2    0    0  0.43075552608E+02 -0.12587427915E+03 -0.10567705841E+03  0.25638150881E+03  0.19200000000E+03 0.  0.
   -5000001    1    1    2    0    0 -0.43075552608E+02  0.12587427915E+03 -0.31889419827E+03  0.39529400081E+03  0.19200000000E+03 0.  0.
<mgrwt>
<rscale>  0 0.49438873E+03</rscale>
<asrwt>0</asrwt>
<pdfrwt beam="1">  1        2 0.16221733E-01 0.49438873E+03</pdfrwt>
<pdfrwt beam="2">  1       -2 0.76874768E-01 0.49438873E+03</pdfrwt>
<totfact> 0.55557243E+02</totfact>
</mgrwt>
</event>
<event>
 4    1  0.2892809E-005  0.5006703E+03  0.7818608E-02  0.1013604E+00
          2   -1    0    0  501    0  0.00000000000E+00  0.00000000000E+00  0.17954228474E+04  0.17954228474E+04  0.25500000000E-02 0.  1.
         -2   -1    0    0    0  501 -0.00000000000E+00 -0.00000000000E+00 -0.34904132655E+02  0.34904132748E+02  0.25500000000E-02 0. -1.
    5000001    1    1    2    0    0 -0.49808396754E+02 -0.14094019903E+03  0.10952556147E+04  0.11219598378E+04  0.19200000000E+03 0.  0.
   -5000001    1    1    2    0    0  0.49808396754E+02  0.14094019903E+03  0.66526310005E+03  0.70836714236E+03  0.19200000000E+03 0.  0.
<mgrwt>
<rscale>  0 0.50067026E+03</rscale>
<asrwt>0</asrwt>
<pdfrwt beam="1">  1        2 0.25648884E+00 0.50067026E+03</pdfrwt>
<pdfrwt beam="2">  1       -2 0.49863073E-02 0.50067026E+03</pdfrwt>
<totfact> 0.21702281E+03</totfact>
</mgrwt>
</event>
<event>
 4    1  0.2892809E-005  0.7566712E+03  0.7818608E-02  0.9624942E-01
          2   -1    0    0  501    0  0.00000000000E+00  0.00000000000E+00  0.63573515904E+03  0.63573515904E+03  0.25500000000E-02 0.  1.
         -2   -1    0    0    0  501 -0.00000000000E+00 -0.00000000000E+00 -0.22515321784E+03  0.22515321785E+03  0.25500000000E-02 0. -1.
    5000001    1    1    2    0    0  0.18226970061E+03  0.23380707845E+03  0.51021072562E+02  0.35686852416E+03  0.19200000000E+03 0.  0.
   -5000001    1    1    2    0    0 -0.18226970061E+03 -0.23380707845E+03  0.35956086864E+03  0.50401985273E+03  0.19200000000E+03 0.  0.
<mgrwt>
<rscale>  0 0.75667117E+03</rscale>
<asrwt>0</asrwt>
<pdfrwt beam="1">  1        2 0.90819309E-01 0.75667117E+03</pdfrwt>
<pdfrwt beam="2">  1       -2 0.32164745E-01 0.75667117E+03</pdfrwt>
<totfact> 0.45730173E+02</totfact>
</mgrwt>
</event>
<event>
 4    1  0.2892809E-005  0.6159064E+03  0.7818608E-02  0.9872944E-01
         -2   -1    0    0    0  501 -0.00000000000E+00  0.00000000000E+00  0.17594569277E+03  0.17594569279E+03  0.25500000000E-02 0. -1.
          2   -1    0    0  501    0  0.00000000000E+00 -0.00000000000E+00 -0.53900258985E+03  0.53900258986E+03  0.25500000000E-02 0.  1.
    5000001    1    1    2    0    0  0.16427557843E+03  0.72783807940E+02 -0.36757369213E+03  0.45194951877E+03  0.19200000000E+03 0.  0.
   -5000001    1    1    2    0    0 -0.16427557843E+03 -0.72783807940E+02  0.45167950496E+01  0.26299876388E+03  0.19200000000E+03 0.  0.
<mgrwt>
<rscale>  0 0.61590643E+03</rscale>
<asrwt>0</asrwt>
<pdfrwt beam="1">  1        2 0.77000369E-01 0.61590643E+03</pdfrwt>
<pdfrwt beam="2">  1       -2 0.25135099E-01 0.61590643E+03</pdfrwt>
<totfact> 0.87618695E+02</totfact>
</mgrwt>
</event>
<event>
 4    1  0.2892809E-005  0.4539545E+03  0.7818608E-02  0.1026549E+00
          2   -1    0    0  501    0  0.00000000000E+00  0.00000000000E+00  0.39232440944E+03  0.39232440945E+03  0.25500000000E-02 0.  1.
         -2   -1    0    0    0  501 -0.00000000000E+00 -0.00000000000E+00 -0.13131649064E+03  0.13131649066E+03  0.25500000000E-02 0. -1.
    5000001    1    1    2    0    0  0.54822257233E+02 -0.91855793104E+02  0.65132433988E+02  0.22923612406E+03  0.19200000000E+03 0.  0.
   -5000001    1    1    2    0    0 -0.54822257233E+02  0.91855793104E+02  0.19587548482E+03  0.29440477606E+03  0.19200000000E+03 0.  0.
<mgrwt>
<rscale>  0 0.45395447E+03</rscale>
<asrwt>0</asrwt>
<pdfrwt beam="1">  1        2 0.56046345E-01 0.45395447E+03</pdfrwt>
<pdfrwt beam="2">  1       -2 0.18759499E-01 0.45395447E+03</pdfrwt>
<totfact> 0.20922120E+03</totfact>
</mgrwt>
</event>
<event>
 4    1  0.2892809E-005  0.4470933E+03  0.7818608E-02  0.1028592E+00
          2   -1    0    0  501    0  0.00000000000E+00  0.00000000000E+00  0.91516794346E+03  0.91516794346E+03  0.25500000000E-02 0.  1.
         -2   -1    0    0    0  501 -0.00000000000E+00 -0.00000000000E+00 -0.54605399683E+02  0.54605399743E+02  0.25500000000E-02 0. -1.
    5000001    1    1    2    0    0 -0.28241600471E+02  0.10961331218E+03  0.39293525998E+03  0.45174637214E+03  0.19200000000E+03 0.  0.
   -5000001    1    1    2    0    0  0.28241600471E+02 -0.10961331218E+03  0.46762728380E+03  0.51802697107E+03  0.19200000000E+03 0.  0.
<mgrwt>
<rscale>  0 0.44709333E+03</rscale>
<asrwt>0</asrwt>
<pdfrwt beam="1">  1        2 0.13073827E+00 0.44709333E+03</pdfrwt>
<pdfrwt beam="2">  1       -2 0.78007716E-02 0.44709333E+03</pdfrwt>
<totfact> 0.32446148E+03</totfact>
</mgrwt>
</event>
<event>
 4    1  0.2892809E-005  0.7773595E+03  0.7818608E-02  0.9593379E-01
         -2   -1    0    0    0  501 -0.00000000000E+00  0.00000000000E+00  0.12222295878E+03  0.12222295881E+03  0.25500000000E-02 0. -1.
          2   -1    0    0  501    0  0.00000000000E+00 -0.00000000000E+00 -0.12360357259E+04  0.12360357259E+04  0.25500000000E-02 0.  1.
    5000001    1    1    2    0    0  0.16547887626E+03  0.15844586934E+03 -0.12282405267E+03  0.32316884118E+03  0.19200000000E+03 0.  0.
   -5000001    1    1    2    0    0 -0.16547887626E+03 -0.15844586934E+03 -0.99098871442E+03  0.10350898435E+04  0.19200000000E+03 0.  0.
<mgrwt>
<rscale>  0 0.77735949E+03</rscale>
<asrwt>0</asrwt>
<pdfrwt beam="1">  1        2 0.17657652E+00 0.77735949E+03</pdfrwt>
<pdfrwt beam="2">  1       -2 0.17460423E-01 0.77735949E+03</pdfrwt>
<totfact> 0.55362494E+02</totfact>
</mgrwt>
</event>
<event>
 4    1  0.2892809E-005  0.1093443E+04  0.7818608E-02  0.9211606E-01
         -2   -1    0    0    0  501 -0.00000000000E+00  0.00000000000E+00  0.28944818369E+03  0.28944818370E+03  0.25500000000E-02 0. -1.
          2   -1    0    0  501    0  0.00000000000E+00 -0.00000000000E+00 -0.10326707368E+04  0.10326707368E+04  0.25500000000E-02 0.  1.
    5000001    1    1    2    0    0  0.15745483132E+03 -0.42403512086E+03 -0.66140715736E+03  0.82396676840E+03  0.19200000000E+03 0.  0.
   -5000001    1    1    2    0    0 -0.15745483132E+03  0.42403512086E+03 -0.81815395719E+02  0.49815215206E+03  0.19200000000E+03 0.  0.
<mgrwt>
<rscale>  0 0.10934435E+04</rscale>
<asrwt>0</asrwt>
<pdfrwt beam="1">  1        2 0.14752439E+00 0.10934435E+04</pdfrwt>
<pdfrwt beam="2">  1       -2 0.41349741E-01 0.10934435E+04</pdfrwt>
<totfact> 0.14741482E+02</totfact>
</mgrwt>
</event>
<event>
 4    1  0.2892809E-005  0.5336645E+03  0.7818608E-02  0.1005347E+00
         -2   -1    0    0    0  501 -0.00000000000E+00  0.00000000000E+00  0.36467372221E+02  0.36467372310E+02  0.25500000000E-02 0. -1.
          2   -1    0    0  501    0  0.00000000000E+00 -0.00000000000E+00 -0.19524154647E+04  0.19524154647E+04  0.25500000000E-02 0.  1.
    5000001    1    1    2    0    0 -0.17975069960E+03 -0.53633120194E+00 -0.11256760844E+04  0.11559936196E+04  0.19200000000E+03 0.  0.
   -5000001    1    1    2    0    0  0.17975069960E+03  0.53633120194E+00 -0.79027200811E+03  0.83288921740E+03  0.19200000000E+03 0.  0.
<mgrwt>
<rscale>  0 0.53366454E+03</rscale>
<asrwt>0</asrwt>
<pdfrwt beam="1">  1        2 0.27891643E+00 0.53366454E+03</pdfrwt>
<pdfrwt beam="2">  1       -2 0.52096259E-02 0.53366454E+03</pdfrwt>
<totfact> 0.16899677E+03</totfact>
</mgrwt>
</event>
<event>
 4    1  0.2892809E-005  0.4397254E+03  0.7818608E-02  0.1030831E+00
          2   -1    0    0  501    0  0.00000000000E+00  0.00000000000E+00  0.13529017652E+03  0.13529017654E+03  0.25500000000E-02 0.  1.
         -2   -1    0    0    0  501 -0.00000000000E+00 -0.00000000000E+00 -0.35730322714E+03  0.35730322715E+03  0.25500000000E-02 0. -1.
    5000001    1    1    2    0    0  0.27456852860E+02  0.77248769938E+02 -0.33764567003E+02  0.21148356251E+03  0.19200000000E+03 0.  0.
   -5000001    1    1    2    0    0 -0.27456852860E+02 -0.77248769938E+02 -0.18824848361E+03  0.28110984118E+03  0.19200000000E+03 0.  0.
<mgrwt>
<rscale>  0 0.43972544E+03</rscale>
<asrwt>0</asrwt>
<pdfrwt beam="1">  1        2 0.19327168E-01 0.43972544E+03</pdfrwt>
<pdfrwt beam="2">  1       -2 0.51043318E-01 0.43972544E+03</pdfrwt>
<totfact> 0.10734542E+03</totfact>
</mgrwt>
</event>
<event>
 4    1  0.2892809E-005  0.7180194E+03  0.7818608E-02  0.9686903E-01
         -2   -1    0    0    0  501 -0.00000000000E+00  0.00000000000E+00  0.27225795488E+03  0.27225795489E+03  0.25500000000E-02 0. -1.
          2   -1    0    0  501    0  0.00000000000E+00 -0.00000000000E+00 -0.47340386789E+03  0.47340386789E+03  0.25500000000E-02 0.  1.
    5000001    1    1    2    0    0 -0.21901190402E+03  0.10112895367E+03 -0.29158517443E+03  0.42435738867E+03  0.19200000000E+03 0.  0.
   -5000001    1    1    2    0    0  0.21901190402E+03 -0.10112895367E+03  0.90439261423E+02  0.32130443411E+03  0.19200000000E+03 0.  0.
<mgrwt>
<rscale>  0 0.71801941E+03</rscale>
<asrwt>0</asrwt>
<pdfrwt beam="1">  1        2 0.67629124E-01 0.71801941E+03</pdfrwt>
<pdfrwt beam="2">  1       -2 0.38893994E-01 0.71801941E+03</pdfrwt>
<totfact> 0.44935265E+02</totfact>
</mgrwt>
</event>
<event>
 4    1  0.2892809E-005  0.4892444E+03  0.7818608E-02  0.1016625E+00
         -2   -1    0    0    0  501 -0.00000000000E+00  0.00000000000E+00  0.56000689065E+02  0.56000689123E+02  0.25500000000E-02 0. -1.
          2   -1    0    0  501    0  0.00000000000E+00 -0.00000000000E+00 -0.10685588064E+04  0.10685588064E+04  0.25500000000E-02 0.  1.
    5000001    1    1    2    0    0  0.21106232074E+02 -0.11234387837E+03 -0.27746619903E+03  0.35625568296E+03  0.19200000000E+03 0.  0.
   -5000001    1    1    2    0    0 -0.21106232074E+02  0.11234387837E+03 -0.73509191830E+03  0.76830381256E+03  0.19200000000E+03 0.  0.
<mgrwt>
<rscale>  0 0.48924444E+03</rscale>
<asrwt>0</asrwt>
<pdfrwt beam="1">  1        2 0.15265125E+00 0.48924444E+03</pdfrwt>
<pdfrwt beam="2">  1       -2 0.80000991E-02 0.48924444E+03</pdfrwt>
<totfact> 0.25167093E+03</totfact>
</mgrwt>
</event>
<event>
 4    1  0.2892809E-005  0.7454293E+03  0.7818608E-02  0.9642548E-01
         -2   -1    0    0    0  501 -0.00000000000E+00  0.00000000000E+00  0.19163247876E+03  0.19163247878E+03  0.25500000000E-02 0. -1.
          2   -1    0    0  501    0  0.00000000000E+00 -0.00000000000E+00 -0.72490958453E+03  0.72490958453E+03  0.25500000000E-02 0.  1.
    5000001    1    1    2    0    0 -0.21729820029E+03  0.19009490152E+03 -0.98510828085E+02  0.36044828018E+03  0.19200000000E+03 0.  0.
   -5000001    1    1    2    0    0  0.21729820029E+03 -0.19009490152E+03 -0.43476627768E+03  0.55609378313E+03  0.19200000000E+03 0.  0.
<mgrwt>
<rscale>  0 0.74542933E+03</rscale>
<asrwt>0</asrwt>
<pdfrwt beam="1">  1        2 0.10355851E+00 0.74542933E+03</pdfrwt>
<pdfrwt beam="2">  1       -2 0.27376069E-01 0.74542933E+03</pdfrwt>
<totfact> 0.52516873E+02</totfact>
</mgrwt>
</event>
<event>
 4    1  0.2892809E-005  0.7352453E+03  0.7818608E-02  0.9658787E-01
          2   -1    0    0  501    0  0.00000000000E+00  0.00000000000E+00  0.56934256134E+03  0.56934256134E+03  0.25500000000E-02 0.  1.
         -2   -1    0    0    0  501 -0.00000000000E+00 -0.00000000000E+00 -0.23737275071E+03  0.23737275072E+03  0.25500000000E-02 0. -1.
    5000001    1    1    2    0    0  0.23642505485E+03  0.20580599369E+03  0.17194388269E+03  0.40580982294E+03  0.19200000000E+03 0.  0.
   -5000001    1    1    2    0    0 -0.23642505485E+03 -0.20580599369E+03  0.16002592794E+03  0.40090548913E+03  0.19200000000E+03 0.  0.
<mgrwt>
<rscale>  0 0.73524529E+03</rscale>
<asrwt>0</asrwt>
<pdfrwt beam="1">  1        2 0.81334651E-01 0.73524529E+03</pdfrwt>
<pdfrwt beam="2">  1       -2 0.33910393E-01 0.73524529E+03</pdfrwt>
<totfact> 0.47210112E+02</totfact>
</mgrwt>
</event>
<event>
 4    1  0.2892809E-005  0.7581261E+03  0.7818608E-02  0.9622687E-01
          2   -1    0    0  501    0  0.00000000000E+00  0.00000000000E+00  0.17333165728E+04  0.17333165729E+04  0.25500000000E-02 0.  1.
         -2   -1    0    0    0  501 -0.00000000000E+00 -0.00000000000E+00 -0.82898186561E+02  0.82898186600E+02  0.25500000000E-02 0. -1.
    5000001    1    1    2    0    0  0.17363192708E+03 -0.27377654828E+03  0.72576302239E+03  0.81773932836E+03  0.19200000000E+03 0.  0.
   -5000001    1    1    2    0    0 -0.17363192708E+03  0.27377654828E+03  0.92465536390E+03  0.99847543109E+03  0.19200000000E+03 0.  0.
<mgrwt>
<rscale>  0 0.75812611E+03</rscale>
<asrwt>0</asrwt>
<pdfrwt beam="1">  1        2 0.24761662E+00 0.75812611E+03</pdfrwt>
<pdfrwt beam="2">  1       -2 0.11842600E-01 0.75812611E+03</pdfrwt>
<totfact> 0.58108620E+02</totfact>
</mgrwt>
</event>
<event>
 4    1  0.2892809E-005  0.8537378E+03  0.7818608E-02  0.9485334E-01
         -2   -1    0    0    0  501 -0.00000000000E+00  0.00000000000E+00  0.15904742254E+03  0.15904742256E+03  0.25500000000E-02 0. -1.
          2   -1    0    0  501    0  0.00000000000E+00 -0.00000000000E+00 -0.11456774673E+04  0.11456774673E+04  0.25500000000E-02 0.  1.
    5000001    1    1    2    0    0 -0.42768280951E+01 -0.34412333877E+03 -0.24259868084E+03  0.46277130798E+03  0.19200000000E+03 0.  0.
   -5000001    1    1    2    0    0  0.42768280951E+01  0.34412333877E+03 -0.74403136389E+03  0.84195358185E+03  0.19200000000E+03 0.  0.
<mgrwt>
<rscale>  0 0.85373778E+03</rscale>
<asrwt>0</asrwt>
<pdfrwt beam="1">  1        2 0.16366821E+00 0.85373778E+03</pdfrwt>
<pdfrwt beam="2">  1       -2 0.22721061E-01 0.85373778E+03</pdfrwt>
<totfact> 0.39161489E+02</totfact>
</mgrwt>
</event>
<event>
 4    1  0.2892809E-005  0.1000618E+04  0.7818608E-02  0.9307867E-01
          2   -1    0    0  501    0  0.00000000000E+00  0.00000000000E+00  0.94332496754E+03  0.94332496754E+03  0.25500000000E-02 0.  1.
         -2   -1    0    0    0  501 -0.00000000000E+00 -0.00000000000E+00 -0.26534777918E+03  0.26534777919E+03  0.25500000000E-02 0. -1.
    5000001    1    1    2    0    0  0.20107924769E+03 -0.33085017470E+03  0.34479849147E+02  0.43352919388E+03  0.19200000000E+03 0.  0.
   -5000001    1    1    2    0    0 -0.20107924769E+03  0.33085017470E+03  0.64349733921E+03  0.77514355285E+03  0.19200000000E+03 0.  0.
<mgrwt>
<rscale>  0 0.10006182E+04</rscale>
<asrwt>0</asrwt>
<pdfrwt beam="1">  1        2 0.13476071E+00 0.10006182E+04</pdfrwt>
<pdfrwt beam="2">  1       -2 0.37906826E-01 0.10006182E+04</pdfrwt>
<totfact> 0.19954112E+02</totfact>
</mgrwt>
</event>
<event>
 4    1  0.2892809E-005  0.4961972E+03  0.7818608E-02  0.1014776E+00
          2   -1    0    0  501    0  0.00000000000E+00  0.00000000000E+00  0.18148487016E+03  0.18148487018E+03  0.25500000000E-02 0.  1.
         -2   -1    0    0    0  501 -0.00000000000E+00 -0.00000000000E+00 -0.33916286035E+03  0.33916286036E+03  0.25500000000E-02 0. -1.
    5000001    1    1    2    0    0  0.12611880138E+02 -0.13474425447E+03  0.49314232239E+01  0.23495402224E+03  0.19200000000E+03 0.  0.
   -5000001    1    1    2    0    0 -0.12611880138E+02  0.13474425447E+03 -0.16260941341E+03  0.28569370830E+03  0.19200000000E+03 0.  0.
<mgrwt>
<rscale>  0 0.49619725E+03</rscale>
<asrwt>0</asrwt>
<pdfrwt beam="1">  1        2 0.25926410E-01 0.49619725E+03</pdfrwt>
<pdfrwt beam="2">  1       -2 0.48451837E-01 0.49619725E+03</pdfrwt>
<totfact> 0.85101527E+02</totfact>
</mgrwt>
</event>
<event>
 4    1  0.2892809E-005  0.4716177E+03  0.7818608E-02  0.1021465E+00
         -2   -1    0    0    0  501 -0.00000000000E+00  0.00000000000E+00  0.71933461140E+02  0.71933461185E+02  0.25500000000E-02 0. -1.
          2   -1    0    0  501    0  0.00000000000E+00 -0.00000000000E+00 -0.77301746348E+03  0.77301746348E+03  0.25500000000E-02 0.  1.
    5000001    1    1    2    0    0  0.11368676649E+03 -0.45175367208E+02 -0.46063917128E+03  0.51382676146E+03  0.19200000000E+03 0.  0.
   -5000001    1    1    2    0    0 -0.11368676649E+03  0.45175367208E+02 -0.24044483106E+03  0.33112416321E+03  0.19200000000E+03 0.  0.
<mgrwt>
<rscale>  0 0.47161773E+03</rscale>
<asrwt>0</asrwt>
<pdfrwt beam="1">  1        2 0.11043106E+00 0.47161773E+03</pdfrwt>
<pdfrwt beam="2">  1       -2 0.10276209E-01 0.47161773E+03</pdfrwt>
<totfact> 0.25983735E+03</totfact>
</mgrwt>
</event>
<event>
 4    1  0.2892809E-005  0.4857497E+03  0.7818608E-02  0.1017567E+00
          2   -1    0    0  501    0  0.00000000000E+00  0.00000000000E+00  0.34625502817E+03  0.34625502818E+03  0.25500000000E-02 0.  1.
         -2   -1    0    0    0  501 -0.00000000000E+00 -0.00000000000E+00 -0.17036055981E+03  0.17036055983E+03  0.25500000000E-02 0. -1.
    5000001    1    1    2    0    0 -0.11516982149E+03  0.94123504514E+02  0.88944108820E+02  0.25864720447E+03  0.19200000000E+03 0.  0.
   -5000001    1    1    2    0    0  0.11516982149E+03 -0.94123504514E+02  0.86950359537E+02  0.25796838354E+03  0.19200000000E+03 0.  0.
<mgrwt>
<rscale>  0 0.48574973E+03</rscale>
<asrwt>0</asrwt>
<pdfrwt beam="1">  1        2 0.49465003E-01 0.48574973E+03</pdfrwt>
<pdfrwt beam="2">  1       -2 0.24337223E-01 0.48574973E+03</pdfrwt>
<totfact> 0.15235737E+03</totfact>
</mgrwt>
</event>
<event>
 4    1  0.2892809E-005  0.6329945E+03  0.7818608E-02  0.9839223E-01
          2   -1    0    0  501    0  0.00000000000E+00  0.00000000000E+00  0.65191363816E+03  0.65191363817E+03  0.25500000000E-02 0.  1.
         -2   -1    0    0    0  501 -0.00000000000E+00 -0.00000000000E+00 -0.15365610210E+03  0.15365610213E+03  0.25500000000E-02 0. -1.
    5000001    1    1    2    0    0 -0.17441402200E+03  0.67542498784E+02  0.46331056578E+03  0.53525967584E+03  0.19200000000E+03 0.  0.
   -5000001    1    1    2    0    0  0.17441402200E+03 -0.67542498784E+02  0.34946970274E+02  0.27031006445E+03  0.19200000000E+03 0.  0.
<mgrwt>
<rscale>  0 0.63299450E+03</rscale>
<asrwt>0</asrwt>
<pdfrwt beam="1">  1        2 0.93130518E-01 0.63299450E+03</pdfrwt>
<pdfrwt beam="2">  1       -2 0.21950872E-01 0.63299450E+03</pdfrwt>
<totfact> 0.89149311E+02</totfact>
</mgrwt>
</event>
<event>
 4    1  0.2892809E-005  0.6713293E+03  0.7818608E-02  0.9767559E-01
          2   -1    0    0  501    0  0.00000000000E+00  0.00000000000E+00  0.13123766477E+04  0.13123766477E+04  0.25500000000E-02 0.  1.
         -2   -1    0    0    0  501 -0.00000000000E+00 -0.00000000000E+00 -0.85852443792E+02  0.85852443830E+02  0.25500000000E-02 0. -1.
    5000001    1    1    2    0    0  0.23132731489E+03  0.21123589939E+02  0.30540392852E+03  0.42906187459E+03  0.19200000000E+03 0.  0.
   -5000001    1    1    2    0    0 -0.23132731489E+03 -0.21123589939E+02  0.92112027534E+03  0.96916721690E+03  0.19200000000E+03 0.  0.
<mgrwt>
<rscale>  0 0.67132926E+03</rscale>
<asrwt>0</asrwt>
<pdfrwt beam="1">  1        2 0.18748237E+00 0.67132926E+03</pdfrwt>
<pdfrwt beam="2">  1       -2 0.12264636E-01 0.67132926E+03</pdfrwt>
<totfact> 0.91533817E+02</totfact>
</mgrwt>
</event>
<event>
 4    1  0.2892809E-005  0.4545480E+03  0.7818608E-02  0.1026374E+00
         -2   -1    0    0    0  501 -0.00000000000E+00  0.00000000000E+00  0.23906890097E+02  0.23906890233E+02  0.25500000000E-02 0. -1.
          2   -1    0    0  501    0  0.00000000000E+00 -0.00000000000E+00 -0.21606106024E+04  0.21606106024E+04  0.25500000000E-02 0.  1.
    5000001    1    1    2    0    0 -0.66019974486E+02  0.15972472118E+02 -0.15531471381E+04  0.15664430374E+04  0.19200000000E+03 0.  0.
   -5000001    1    1    2    0    0  0.66019974486E+02 -0.15972472118E+02 -0.58355657427E+03  0.61807445528E+03  0.19200000000E+03 0.  0.
<mgrwt>
<rscale>  0 0.45454804E+03</rscale>
<asrwt>0</asrwt>
<pdfrwt beam="1">  1        2 0.30865853E+00 0.45454804E+03</pdfrwt>
<pdfrwt beam="2">  1       -2 0.34152714E-02 0.45454804E+03</pdfrwt>
<totfact> 0.25503190E+03</totfact>
</mgrwt>
</event>
<event>
 4    1  0.2892809E-005  0.9525828E+03  0.7818608E-02  0.9362137E-01
         -2   -1    0    0    0  501 -0.00000000000E+00  0.00000000000E+00  0.10793005598E+04  0.10793005598E+04  0.25500000000E-02 0. -1.
          2   -1    0    0  501    0  0.00000000000E+00 -0.00000000000E+00 -0.21018566078E+03  0.21018566080E+03  0.25500000000E-02 0.  1.
    5000001    1    1    2    0    0  0.11047438267E+03 -0.37963301150E+03  0.68292497919E+03  0.81214305380E+03  0.19200000000E+03 0.  0.
   -5000001    1    1    2    0    0 -0.11047438267E+03  0.37963301150E+03  0.18618991983E+03  0.47734316680E+03  0.19200000000E+03 0.  0.
<mgrwt>
<rscale>  0 0.95258281E+03</rscale>
<asrwt>0</asrwt>
<pdfrwt beam="1">  1        2 0.30026522E-01 0.95258281E+03</pdfrwt>
<pdfrwt beam="2">  1       -2 0.15418580E+00 0.95258281E+03</pdfrwt>
<totfact> 0.49552768E+01</totfact>
</mgrwt>
</event>
<event>
 4    1  0.2892809E-005  0.1234404E+04  0.7818608E-02  0.9083265E-01
          2   -1    0    0  501    0  0.00000000000E+00  0.00000000000E+00  0.17547167861E+04  0.17547167861E+04  0.25500000000E-02 0.  1.
         -2   -1    0    0    0  501 -0.00000000000E+00 -0.00000000000E+00 -0.21709387670E+03  0.21709387671E+03  0.25500000000E-02 0. -1.
    5000001    1    1    2    0    0  0.54722053464E+03  0.17990527632E+03  0.94566695249E+03  0.11238176930E+04  0.19200000000E+03 0.  0.
   -5000001    1    1    2    0    0 -0.54722053464E+03 -0.17990527632E+03  0.59195595686E+03  0.84799296981E+03  0.19200000000E+03 0.  0.
<mgrwt>
<rscale>  0 0.12344039E+04</rscale>
<asrwt>0</asrwt>
<pdfrwt beam="1">  1        2 0.25067380E+00 0.12344039E+04</pdfrwt>
<pdfrwt beam="2">  1       -2 0.31013414E-01 0.12344039E+04</pdfrwt>
<totfact> 0.10187687E+02</totfact>
</mgrwt>
</event>
<event>
 4    1  0.2892809E-005  0.8040750E+03  0.7818608E-02  0.9554137E-01
          2   -1    0    0  501    0  0.00000000000E+00  0.00000000000E+00  0.12511840556E+04  0.12511840556E+04  0.25500000000E-02 0.  1.
         -2   -1    0    0    0  501 -0.00000000000E+00 -0.00000000000E+00 -0.12918496639E+03  0.12918496642E+03  0.25500000000E-02 0. -1.
    5000001    1    1    2    0    0  0.19468401359E+03 -0.18986004594E+03  0.94800957636E+03  0.10047561192E+04  0.19200000000E+03 0.  0.
   -5000001    1    1    2    0    0 -0.19468401359E+03  0.18986004594E+03  0.17398951286E+03  0.37561290284E+03  0.19200000000E+03 0.  0.
<mgrwt>
<rscale>  0 0.80407505E+03</rscale>
<asrwt>0</asrwt>
<pdfrwt beam="1">  1        2 0.17874059E+00 0.80407505E+03</pdfrwt>
<pdfrwt beam="2">  1       -2 0.18454995E-01 0.80407505E+03</pdfrwt>
<totfact> 0.49284865E+02</totfact>
</mgrwt>
</event>
<event>
 4    1  0.2892809E-005  0.4938581E+03  0.7818608E-02  0.1015395E+00
          2   -1    0    0  501    0  0.00000000000E+00  0.00000000000E+00  0.18919577506E+04  0.18919577506E+04  0.25500000000E-02 0.  1.
         -2   -1    0    0    0  501 -0.00000000000E+00 -0.00000000000E+00 -0.32227974746E+02  0.32227974847E+02  0.25500000000E-02 0. -1.
    5000001    1    1    2    0    0 -0.15097175869E+03  0.16418791519E+02  0.80373778146E+03  0.84019073429E+03  0.19200000000E+03 0.  0.
   -5000001    1    1    2    0    0  0.15097175869E+03 -0.16418791519E+02  0.10559919943E+04  0.10839949911E+04  0.19200000000E+03 0.  0.
<mgrwt>
<rscale>  0 0.49385814E+03</rscale>
<asrwt>0</asrwt>
<pdfrwt beam="1">  1        2 0.27027968E+00 0.49385814E+03</pdfrwt>
<pdfrwt beam="2">  1       -2 0.46039963E-02 0.49385814E+03</pdfrwt>
<totfact> 0.21962697E+03</totfact>
</mgrwt>
</event>
<event>
 4    1  0.2892809E-005  0.1085771E+04  0.7818608E-02  0.9219173E-01
         -2   -1    0    0    0  501 -0.00000000000E+00  0.00000000000E+00  0.21199107697E+03  0.21199107699E+03  0.25500000000E-02 0. -1.
          2   -1    0    0  501    0  0.00000000000E+00 -0.00000000000E+00 -0.13902682355E+04  0.13902682355E+04  0.25500000000E-02 0.  1.
    5000001    1    1    2    0    0  0.46698905375E+03  0.13495879151E+03 -0.37241920876E+03  0.64175752335E+03  0.19200000000E+03 0.  0.
   -5000001    1    1    2    0    0 -0.46698905375E+03 -0.13495879151E+03 -0.80585794980E+03  0.96050178916E+03  0.19200000000E+03 0.  0.
<mgrwt>
<rscale>  0 0.10857706E+04</rscale>
<asrwt>0</asrwt>
<pdfrwt beam="1">  1        2 0.19860974E+00 0.10857706E+04</pdfrwt>
<pdfrwt beam="2">  1       -2 0.30284440E-01 0.10857706E+04</pdfrwt>
<totfact> 0.16734183E+02</totfact>
</mgrwt>
</event>
<event>
 4    1  0.2892809E-005  0.1254690E+04  0.7818608E-02  0.9066289E-01
          2   -1    0    0  501    0  0.00000000000E+00  0.00000000000E+00  0.43293061296E+03  0.43293061297E+03  0.25500000000E-02 0.  1.
         -2   -1    0    0    0  501 -0.00000000000E+00 -0.00000000000E+00 -0.90906408159E+03  0.90906408159E+03  0.25500000000E-02 0. -1.
    5000001    1    1    2    0    0 -0.39522857847E+03 -0.38220019880E+03 -0.48756866900E+03  0.75951947190E+03  0.19200000000E+03 0.  0.
   -5000001    1    1    2    0    0  0.39522857847E+03  0.38220019880E+03  0.11435200366E+02  0.58247522266E+03  0.19200000000E+03 0.  0.
<mgrwt>
<rscale>  0 0.12546899E+04</rscale>
<asrwt>0</asrwt>
<pdfrwt beam="1">  1        2 0.61847231E-01 0.12546899E+04</pdfrwt>
<pdfrwt beam="2">  1       -2 0.12986630E+00 0.12546899E+04</pdfrwt>
<totfact> 0.33892214E+01</totfact>
</mgrwt>
</event>
<event>
 4    1  0.2892809E-005  0.4874881E+03  0.7818608E-02  0.1017097E+00
          2   -1    0    0  501    0  0.00000000000E+00  0.00000000000E+00  0.23549405829E+04  0.23549405829E+04  0.25500000000E-02 0.  1.
         -2   -1    0    0    0  501 -0.00000000000E+00 -0.00000000000E+00 -0.25228307152E+02  0.25228307280E+02  0.25500000000E-02 0. -1.
    5000001    1    1    2    0    0  0.10660322113E+03 -0.10525334333E+03  0.11149083331E+04  0.11411954716E+04  0.19200000000E+03 0.  0.
   -5000001    1    1    2    0    0 -0.10660322113E+03  0.10525334333E+03  0.12148039426E+04  0.12389734186E+04  0.19200000000E+03 0.  0.
<mgrwt>
<rscale>  0 0.48748811E+03</rscale>
<asrwt>0</asrwt>
<pdfrwt beam="1">  1        2 0.33642003E+00 0.48748811E+03</pdfrwt>
<pdfrwt beam="2">  1       -2 0.36040445E-02 0.48748811E+03</pdfrwt>
<totfact> 0.18751317E+03</totfact>
</mgrwt>
</event>
<event>
 4    1  0.2892809E-005  0.9867199E+03  0.7818608E-02  0.9323231E-01
          2   -1    0    0  501    0  0.00000000000E+00  0.00000000000E+00  0.85780660947E+03  0.85780660947E+03  0.25500000000E-02 0.  1.
         -2   -1    0    0    0  501 -0.00000000000E+00 -0.00000000000E+00 -0.28375164656E+03  0.28375164657E+03  0.25500000000E-02 0. -1.
    5000001    1    1    2    0    0  0.38950073554E+03 -0.33336373889E+02  0.55516878226E+03  0.70561924124E+03  0.19200000000E+03 0.  0.
   -5000001    1    1    2    0    0 -0.38950073554E+03  0.33336373889E+02  0.18886180652E+02  0.43593901480E+03  0.19200000000E+03 0.  0.
<mgrwt>
<rscale>  0 0.98671990E+03</rscale>
<asrwt>0</asrwt>
<pdfrwt beam="1">  1        2 0.12254380E+00 0.98671990E+03</pdfrwt>
<pdfrwt beam="2">  1       -2 0.40535950E-01 0.98671990E+03</pdfrwt>
<totfact> 0.19936239E+02</totfact>
</mgrwt>
</event>
<event>
 4    1  0.2892809E-005  0.4715651E+03  0.7818608E-02  0.1021479E+00
         -2   -1    0    0    0  501 -0.00000000000E+00  0.00000000000E+00  0.24612133295E+02  0.24612133427E+02  0.25500000000E-02 0. -1.
          2   -1    0    0  501    0  0.00000000000E+00 -0.00000000000E+00 -0.22587802771E+04  0.22587802771E+04  0.25500000000E-02 0.  1.
    5000001    1    1    2    0    0  0.78382039413E+00 -0.13270409676E+03 -0.12790185798E+04  0.13001398075E+04  0.19200000000E+03 0.  0.
   -5000001    1    1    2    0    0 -0.78382039413E+00  0.13270409676E+03 -0.95514956406E+03  0.98325260304E+03  0.19200000000E+03 0.  0.
<mgrwt>
<rscale>  0 0.47156506E+03</rscale>
<asrwt>0</asrwt>
<pdfrwt beam="1">  1        2 0.32268276E+00 0.47156506E+03</pdfrwt>
<pdfrwt beam="2">  1       -2 0.35160205E-02 0.47156506E+03</pdfrwt>
<totfact> 0.21779809E+03</totfact>
</mgrwt>
</event>
<event>
 4    1  0.2892809E-005  0.4401898E+03  0.7818608E-02  0.1030689E+00
         -2   -1    0    0    0  501 -0.00000000000E+00  0.00000000000E+00  0.17819937283E+03  0.17819937284E+03  0.25500000000E-02 0. -1.
          2   -1    0    0  501    0  0.00000000000E+00 -0.00000000000E+00 -0.27184020574E+03  0.27184020575E+03  0.25500000000E-02 0.  1.
    5000001    1    1    2    0    0  0.45845473648E+02  0.30932836693E+01 -0.14629284279E+03  0.24571725969E+03  0.19200000000E+03 0.  0.
   -5000001    1    1    2    0    0 -0.45845473648E+02 -0.30932836693E+01  0.52652009877E+02  0.20432231890E+03  0.19200000000E+03 0.  0.
<mgrwt>
<rscale>  0 0.44018975E+03</rscale>
<asrwt>0</asrwt>
<pdfrwt beam="1">  1        2 0.38834315E-01 0.44018975E+03</pdfrwt>
<pdfrwt beam="2">  1       -2 0.25457053E-01 0.44018975E+03</pdfrwt>
<totfact> 0.18314694E+03</totfact>
</mgrwt>
</event>
<event>
 4    1  0.2892809E-005  0.8372843E+03  0.7818608E-02  0.9507564E-01
          2   -1    0    0  501    0  0.00000000000E+00  0.00000000000E+00  0.28955202781E+04  0.28955202781E+04  0.25500000000E-02 0.  1.
         -2   -1    0    0    0  501 -0.00000000000E+00 -0.00000000000E+00 -0.60528407865E+02  0.60528407918E+02  0.25500000000E-02 0. -1.
    5000001    1    1    2    0    0  0.37322461701E+01 -0.36355938086E+03  0.16956659356E+04  0.17448026588E+04  0.19200000000E+03 0.  0.
   -5000001    1    1    2    0    0 -0.37322461701E+01  0.36355938086E+03  0.11393259346E+04  0.12112460272E+04  0.19200000000E+03 0.  0.
<mgrwt>
<rscale>  0 0.83728426E+03</rscale>
<asrwt>0</asrwt>
<pdfrwt beam="1">  1        2 0.41364570E+00 0.83728426E+03</pdfrwt>
<pdfrwt beam="2">  1       -2 0.86469166E-02 0.83728426E+03</pdfrwt>
<totfact> 0.24254279E+02</totfact>
</mgrwt>
</event>
<event>
 4    1  0.2892809E-005  0.6958724E+03  0.7818608E-02  0.9724317E-01
          2   -1    0    0  501    0  0.00000000000E+00  0.00000000000E+00  0.33068767955E+03  0.33068767956E+03  0.25500000000E-02 0.  1.
         -2   -1    0    0    0  501 -0.00000000000E+00 -0.00000000000E+00 -0.36608437418E+03  0.36608437419E+03  0.25500000000E-02 0. -1.
    5000001    1    1    2    0    0  0.20687086647E+01  0.28626188310E+03  0.29749064211E+02  0.34597565245E+03  0.19200000000E+03 0.  0.
   -5000001    1    1    2    0    0 -0.20687086647E+01 -0.28626188310E+03 -0.65145758841E+02  0.35079640130E+03  0.19200000000E+03 0.  0.
<mgrwt>
<rscale>  0 0.69587238E+03</rscale>
<asrwt>0</asrwt>
<pdfrwt beam="1">  1        2 0.47241097E-01 0.69587238E+03</pdfrwt>
<pdfrwt beam="2">  1       -2 0.52297768E-01 0.69587238E+03</pdfrwt>
<totfact> 0.37230562E+02</totfact>
</mgrwt>
</event>
<event>
 4    1  0.2892809E-005  0.5053589E+03  0.7818608E-02  0.1012390E+00
          2   -1    0    0  501    0  0.00000000000E+00  0.00000000000E+00  0.14260714289E+04  0.14260714289E+04  0.25500000000E-02 0.  1.
         -2   -1    0    0    0  501 -0.00000000000E+00 -0.00000000000E+00 -0.44771181227E+02  0.44771181299E+02  0.25500000000E-02 0. -1.
    5000001    1    1    2    0    0  0.92468024770E+02  0.13193739672E+03  0.78383540671E+03  0.82293362859E+03  0.19200000000E+03 0.  0.
   -5000001    1    1    2    0    0 -0.92468024770E+02 -0.13193739672E+03  0.59746484094E+03  0.64790898159E+03  0.19200000000E+03 0.  0.
<mgrwt>
<rscale>  0 0.50535889E+03</rscale>
<asrwt>0</asrwt>
<pdfrwt beam="1">  1        2 0.20372450E+00 0.50535889E+03</pdfrwt>
<pdfrwt beam="2">  1       -2 0.63958829E-02 0.50535889E+03</pdfrwt>
<totfact> 0.22757469E+03</totfact>
</mgrwt>
</event>
<event>
 4    1  0.2892809E-005  0.7369972E+03  0.7818608E-02  0.9655973E-01
         -2   -1    0    0    0  501 -0.00000000000E+00  0.00000000000E+00  0.33965323758E+03  0.33965323759E+03  0.25500000000E-02 0. -1.
          2   -1    0    0  501    0  0.00000000000E+00 -0.00000000000E+00 -0.39979368177E+03  0.39979368178E+03  0.25500000000E-02 0.  1.
    5000001    1    1    2    0    0 -0.25855832852E+03 -0.78572098447E+02  0.13140332947E+03  0.35659054796E+03  0.19200000000E+03 0.  0.
   -5000001    1    1    2    0    0  0.25855832852E+03  0.78572098447E+02 -0.19154377366E+03  0.38285637141E+03  0.19200000000E+03 0.  0.
<mgrwt>
<rscale>  0 0.73699720E+03</rscale>
<asrwt>0</asrwt>
<pdfrwt beam="1">  1        2 0.57113383E-01 0.73699720E+03</pdfrwt>
<pdfrwt beam="2">  1       -2 0.48521891E-01 0.73699720E+03</pdfrwt>
<totfact> 0.35070380E+02</totfact>
</mgrwt>
</event>
<event>
 4    1  0.2892809E-005  0.7080447E+03  0.7818608E-02  0.9703573E-01
          2   -1    0    0  501    0  0.00000000000E+00  0.00000000000E+00  0.17822678295E+04  0.17822678295E+04  0.25500000000E-02 0.  1.
         -2   -1    0    0    0  501 -0.00000000000E+00 -0.00000000000E+00 -0.70321550557E+02  0.70321550604E+02  0.25500000000E-02 0. -1.
    5000001    1    1    2    0    0  0.21803661107E+03  0.11370773044E+03  0.12937827360E+04  0.13308670781E+04  0.19200000000E+03 0.  0.
   -5000001    1    1    2    0    0 -0.21803661107E+03 -0.11370773044E+03  0.41816354302E+03  0.52172230203E+03  0.19200000000E+03 0.  0.
<mgrwt>
<rscale>  0 0.70804474E+03</rscale>
<asrwt>0</asrwt>
<pdfrwt beam="1">  1        2 0.25460964E+00 0.70804474E+03</pdfrwt>
<pdfrwt beam="2">  1       -2 0.10045938E-01 0.70804474E+03</pdfrwt>
<totfact> 0.72043435E+02</totfact>
</mgrwt>
</event>
<event>
 4    1  0.2892809E-005  0.6508239E+03  0.7818608E-02  0.9805234E-01
         -2   -1    0    0    0  501 -0.00000000000E+00  0.00000000000E+00  0.39542127336E+02  0.39542127418E+02  0.25500000000E-02 0. -1.
          2   -1    0    0  501    0  0.00000000000E+00 -0.00000000000E+00 -0.26779779424E+04  0.26779779424E+04  0.25500000000E-02 0.  1.
    5000001    1    1    2    0    0  0.16579614489E+03 -0.19541589421E+03 -0.10774271323E+04  0.11240057645E+04  0.19200000000E+03 0.  0.
   -5000001    1    1    2    0    0 -0.16579614489E+03  0.19541589421E+03 -0.15610086828E+04  0.15935143053E+04  0.19200000000E+03 0.  0.
<mgrwt>
<rscale>  0 0.65082392E+03</rscale>
<asrwt>0</asrwt>
<pdfrwt beam="1">  1        2 0.38256816E+00 0.65082392E+03</pdfrwt>
<pdfrwt beam="2">  1       -2 0.56488770E-02 0.65082392E+03</pdfrwt>
<totfact> 0.63262702E+02</totfact>
</mgrwt>
</event>
<event>
 4    1  0.2892809E-005  0.5991727E+03  0.7818608E-02  0.9907124E-01
          2   -1    0    0  501    0  0.00000000000E+00  0.00000000000E+00  0.83415972007E+03  0.83415972007E+03  0.25500000000E-02 0.  1.
         -2   -1    0    0    0  501 -0.00000000000E+00 -0.00000000000E+00 -0.10759567551E+03  0.10759567554E+03  0.25500000000E-02 0. -1.
    5000001    1    1    2    0    0  0.46657738387E+02  0.13422120548E+03  0.64748684229E+03  0.69014164307E+03  0.19200000000E+03 0.  0.
   -5000001    1    1    2    0    0 -0.46657738387E+02 -0.13422120548E+03  0.79077202265E+02  0.25161375255E+03  0.19200000000E+03 0.  0.
<mgrwt>
<rscale>  0 0.59917269E+03</rscale>
<asrwt>0</asrwt>
<pdfrwt beam="1">  1        2 0.11916568E+00 0.59917269E+03</pdfrwt>
<pdfrwt beam="2">  1       -2 0.15370810E-01 0.59917269E+03</pdfrwt>
<totfact> 0.12130045E+03</totfact>
</mgrwt>
</event>
<event>
 4    1  0.2892809E-005  0.5369821E+03  0.7818608E-02  0.1004553E+00
          2   -1    0    0  501    0  0.00000000000E+00  0.00000000000E+00  0.42362937751E+03  0.42362937752E+03  0.25500000000E-02 0.  1.
         -2   -1    0    0    0  501 -0.00000000000E+00 -0.00000000000E+00 -0.17016628921E+03  0.17016628923E+03  0.25500000000E-02 0. -1.
    5000001    1    1    2    0    0 -0.14661741970E+03 -0.85691788406E+02  0.21508287254E+03  0.33461080738E+03  0.19200000000E+03 0.  0.
   -5000001    1    1    2    0    0  0.14661741970E+03  0.85691788406E+02  0.38380215767E+02  0.25918485936E+03  0.19200000000E+03 0.  0.
<mgrwt>
<rscale>  0 0.53698208E+03</rscale>
<asrwt>0</asrwt>
<pdfrwt beam="1">  1        2 0.60518482E-01 0.53698208E+03</pdfrwt>
<pdfrwt beam="2">  1       -2 0.24309470E-01 0.53698208E+03</pdfrwt>
<totfact> 0.12221025E+03</totfact>
</mgrwt>
</event>
<event>
 4    1  0.2892809E-005  0.3932012E+03  0.7818608E-02  0.1046160E+00
          2   -1    0    0  501    0  0.00000000000E+00  0.00000000000E+00  0.82255455861E+03  0.82255455861E+03  0.25500000000E-02 0.  1.
         -2   -1    0    0    0  501 -0.00000000000E+00 -0.00000000000E+00 -0.46989944724E+02  0.46989944793E+02  0.25500000000E-02 0. -1.
    5000001    1    1    2    0    0 -0.32908490657E+02  0.21451446676E+02  0.42237293415E+03  0.46562434303E+03  0.19200000000E+03 0.  0.
   -5000001    1    1    2    0    0  0.32908490657E+02 -0.21451446676E+02  0.35319167973E+03  0.40392016037E+03  0.19200000000E+03 0.  0.
<mgrwt>
<rscale>  0 0.39320119E+03</rscale>
<asrwt>0</asrwt>
<pdfrwt beam="1">  1        2 0.11750780E+00 0.39320119E+03</pdfrwt>
<pdfrwt beam="2">  1       -2 0.67128492E-02 0.39320119E+03</pdfrwt>
<totfact> 0.47114944E+03</totfact>
</mgrwt>
</event>
<event>
 4    1  0.2892809E-005  0.5557545E+03  0.7818608E-02  0.1000171E+00
         -2   -1    0    0    0  501 -0.00000000000E+00  0.00000000000E+00  0.38754997043E+02  0.38754997127E+02  0.25500000000E-02 0. -1.
          2   -1    0    0  501    0  0.00000000000E+00 -0.00000000000E+00 -0.19924079270E+04  0.19924079270E+04  0.25500000000E-02 0.  1.
    5000001    1    1    2    0    0 -0.99706029751E+02  0.12130126178E+03 -0.14347182431E+04  0.14559999057E+04  0.19200000000E+03 0.  0.
   -5000001    1    1    2    0    0  0.99706029751E+02 -0.12130126178E+03 -0.51893468686E+03  0.57516301837E+03  0.19200000000E+03 0.  0.
<mgrwt>
<rscale>  0 0.55575449E+03</rscale>
<asrwt>0</asrwt>
<pdfrwt beam="1">  1        2 0.28462964E+00 0.55575449E+03</pdfrwt>
<pdfrwt beam="2">  1       -2 0.55364294E-02 0.55575449E+03</pdfrwt>
<totfact> 0.14667675E+03</totfact>
</mgrwt>
</event>
<event>
 4    1  0.2892809E-005  0.9209579E+03  0.7818608E-02  0.9399756E-01
          2   -1    0    0  501    0  0.00000000000E+00  0.00000000000E+00  0.16334058045E+04  0.16334058045E+04  0.25500000000E-02 0.  1.
         -2   -1    0    0    0  501 -0.00000000000E+00 -0.00000000000E+00 -0.12981519044E+03  0.12981519047E+03  0.25500000000E-02 0. -1.
    5000001    1    1    2    0    0  0.32373606841E+03  0.24374456948E+03  0.55135700554E+03  0.71068629134E+03  0.19200000000E+03 0.  0.
   -5000001    1    1    2    0    0 -0.32373606841E+03 -0.24374456948E+03  0.95223360848E+03  0.10525347036E+04  0.19200000000E+03 0.  0.
<mgrwt>
<rscale>  0 0.92095795E+03</rscale>
<asrwt>0</asrwt>
<pdfrwt beam="1">  1        2 0.23334369E+00 0.92095795E+03</pdfrwt>
<pdfrwt beam="2">  1       -2 0.18545027E-01 0.92095795E+03</pdfrwt>
<totfact> 0.30340408E+02</totfact>
</mgrwt>
</event>
<event>
 4    1  0.2892809E-005  0.5477306E+03  0.7818608E-02  0.1002021E+00
         -2   -1    0    0    0  501 -0.00000000000E+00  0.00000000000E+00  0.70768613906E+03  0.70768613907E+03  0.25500000000E-02 0. -1.
          2   -1    0    0  501    0  0.00000000000E+00 -0.00000000000E+00 -0.10598228233E+03  0.10598228236E+03  0.25500000000E-02 0.  1.
    5000001    1    1    2    0    0 -0.17931184415E+03  0.75049507734E+02  0.32876347608E+03  0.42747466506E+03  0.19200000000E+03 0.  0.
   -5000001    1    1    2    0    0  0.17931184415E+03 -0.75049507734E+02  0.27294038065E+03  0.38619375636E+03  0.19200000000E+03 0.  0.
<mgrwt>
<rscale>  0 0.54773056E+03</rscale>
<asrwt>0</asrwt>
<pdfrwt beam="1">  1        2 0.15140326E-01 0.54773056E+03</pdfrwt>
<pdfrwt beam="2">  1       -2 0.10109802E+00 0.54773056E+03</pdfrwt>
<totfact> 0.32278305E+02</totfact>
</mgrwt>
</event>
<event>
 4    1  0.2892809E-005  0.4942215E+03  0.7818608E-02  0.1015298E+00
          2   -1    0    0  501    0  0.00000000000E+00  0.00000000000E+00  0.14453391579E+04  0.14453391579E+04  0.25500000000E-02 0.  1.
         -2   -1    0    0    0  501 -0.00000000000E+00 -0.00000000000E+00 -0.42248717031E+02  0.42248717108E+02  0.25500000000E-02 0. -1.
    5000001    1    1    2    0    0  0.13640940262E+03  0.10595823686E+02  0.47872816278E+03  0.53363325463E+03  0.19200000000E+03 0.  0.
   -5000001    1    1    2    0    0 -0.13640940262E+03 -0.10595823686E+02  0.92436227811E+03  0.95395462041E+03  0.19200000000E+03 0.  0.
<mgrwt>
<rscale>  0 0.49422151E+03</rscale>
<asrwt>0</asrwt>
<pdfrwt beam="1">  1        2 0.20647706E+00 0.49422151E+03</pdfrwt>
<pdfrwt beam="2">  1       -2 0.60355299E-02 0.49422151E+03</pdfrwt>
<totfact> 0.24348533E+03</totfact>
</mgrwt>
</event>
<event>
 4    1  0.2892809E-005  0.6861628E+03  0.7818608E-02  0.9741193E-01
          2   -1    0    0  501    0  0.00000000000E+00  0.00000000000E+00  0.16602719997E+04  0.16602719997E+04  0.25500000000E-02 0.  1.
         -2   -1    0    0    0  501 -0.00000000000E+00 -0.00000000000E+00 -0.70894909607E+02  0.70894909653E+02  0.25500000000E-02 0. -1.
    5000001    1    1    2    0    0 -0.18357749651E+03 -0.16385863133E+03  0.11540719450E+04  0.11955318493E+04  0.19200000000E+03 0.  0.
   -5000001    1    1    2    0    0  0.18357749651E+03  0.16385863133E+03  0.43530514506E+03  0.53563506010E+03  0.19200000000E+03 0.  0.
<mgrwt>
<rscale>  0 0.68616276E+03</rscale>
<asrwt>0</asrwt>
<pdfrwt beam="1">  1        2 0.23718175E+00 0.68616276E+03</pdfrwt>
<pdfrwt beam="2">  1       -2 0.10127842E-01 0.68616276E+03</pdfrwt>
<totfact> 0.82154022E+02</totfact>
</mgrwt>
</event>
<event>
 4    1  0.2892809E-005  0.4898690E+03  0.7818608E-02  0.1016458E+00
          2   -1    0    0  501    0  0.00000000000E+00  0.00000000000E+00  0.21888307023E+03  0.21888307024E+03  0.25500000000E-02 0.  1.
         -2   -1    0    0    0  501 -0.00000000000E+00 -0.00000000000E+00 -0.27408654363E+03  0.27408654364E+03  0.25500000000E-02 0. -1.
    5000001    1    1    2    0    0  0.23837722187E+02 -0.91773561729E+02  0.92055373353E+02  0.23308542510E+03  0.19200000000E+03 0.  0.
   -5000001    1    1    2    0    0 -0.23837722187E+02  0.91773561729E+02 -0.14725884676E+03  0.25988418878E+03  0.19200000000E+03 0.  0.
<mgrwt>
<rscale>  0 0.48986898E+03</rscale>
<asrwt>0</asrwt>
<pdfrwt beam="1">  1        2 0.31269010E-01 0.48986898E+03</pdfrwt>
<pdfrwt beam="2">  1       -2 0.39155220E-01 0.48986898E+03</pdfrwt>
<totfact> 0.10480264E+03</totfact>
</mgrwt>
</event>
<event>
 4    1  0.2892809E-005  0.7103713E+03  0.7818608E-02  0.9699658E-01
          2   -1    0    0  501    0  0.00000000000E+00  0.00000000000E+00  0.24024752979E+04  0.24024752979E+04  0.25500000000E-02 0.  1.
         -2   -1    0    0    0  501 -0.00000000000E+00 -0.00000000000E+00 -0.52511194311E+02  0.52511194373E+02  0.25500000000E-02 0. -1.
    5000001    1    1    2    0    0  0.12298106011E+03 -0.25242393731E+03  0.15282755121E+04  0.15656730905E+04  0.19200000000E+03 0.  0.
   -5000001    1    1    2    0    0 -0.12298106011E+03  0.25242393731E+03  0.82168859143E+03  0.88931340176E+03  0.19200000000E+03 0.  0.
<mgrwt>
<rscale>  0 0.71037130E+03</rscale>
<asrwt>0</asrwt>
<pdfrwt beam="1">  1        2 0.34321088E+00 0.71037130E+03</pdfrwt>
<pdfrwt beam="2">  1       -2 0.75015965E-02 0.71037130E+03</pdfrwt>
<totfact> 0.55877639E+02</totfact>
</mgrwt>
</event>
<event>
 4    1  0.2892809E-005  0.5484135E+03  0.7818608E-02  0.1001862E+00
          2   -1    0    0  501    0  0.00000000000E+00  0.00000000000E+00  0.66691043084E+03  0.66691043084E+03  0.25500000000E-02 0.  1.
         -2   -1    0    0    0  501 -0.00000000000E+00 -0.00000000000E+00 -0.11274278340E+03  0.11274278343E+03  0.25500000000E-02 0. -1.
    5000001    1    1    2    0    0  0.10247345864E+03 -0.10855330118E+03  0.97028846310E+02  0.26184580566E+03  0.19200000000E+03 0.  0.
   -5000001    1    1    2    0    0 -0.10247345864E+03  0.10855330118E+03  0.45713880113E+03  0.51780740862E+03  0.19200000000E+03 0.  0.
<mgrwt>
<rscale>  0 0.54841349E+03</rscale>
<asrwt>0</asrwt>
<pdfrwt beam="1">  1        2 0.95272921E-01 0.54841349E+03</pdfrwt>
<pdfrwt beam="2">  1       -2 0.16106112E-01 0.54841349E+03</pdfrwt>
<totfact> 0.14825177E+03</totfact>
</mgrwt>
</event>
<event>
 4    1  0.2892809E-005  0.5139897E+03  0.7818608E-02  0.1010191E+00
         -2   -1    0    0    0  501 -0.00000000000E+00  0.00000000000E+00  0.84493420213E+03  0.84493420213E+03  0.25500000000E-02 0. -1.
          2   -1    0    0  501    0  0.00000000000E+00 -0.00000000000E+00 -0.78167450226E+02  0.78167450267E+02  0.25500000000E-02 0.  1.
    5000001    1    1    2    0    0  0.70786749847E+02 -0.78781139527E+02  0.62410227010E+03  0.66150198446E+03  0.19200000000E+03 0.  0.
   -5000001    1    1    2    0    0 -0.70786749847E+02  0.78781139527E+02  0.14266448181E+03  0.26159966794E+03  0.19200000000E+03 0.  0.
<mgrwt>
<rscale>  0 0.51398970E+03</rscale>
<asrwt>0</asrwt>
<pdfrwt beam="1">  1        2 0.11166779E-01 0.51398970E+03</pdfrwt>
<pdfrwt beam="2">  1       -2 0.12070488E+00 0.51398970E+03</pdfrwt>
<totfact> 0.30635097E+02</totfact>
</mgrwt>
</event>
<event>
 4    1  0.2892809E-005  0.4882806E+03  0.7818608E-02  0.1016884E+00
          2   -1    0    0  501    0  0.00000000000E+00  0.00000000000E+00  0.21671266776E+04  0.21671266776E+04  0.25500000000E-02 0. -1.
         -2   -1    0    0    0  501 -0.00000000000E+00 -0.00000000000E+00 -0.27503918559E+02  0.27503918677E+02  0.25500000000E-02 0.  1.
    5000001    1    1    2    0    0 -0.11916075698E+03  0.79532864439E+02  0.12813787922E+04  0.13035798294E+04  0.19200000000E+03 0.  0.
   -5000001    1    1    2    0    0  0.11916075698E+03 -0.79532864439E+02  0.85824396684E+03  0.89105076688E+03  0.19200000000E+03 0.  0.
<mgrwt>
<rscale>  0 0.48828056E+03</rscale>
<asrwt>0</asrwt>
<pdfrwt beam="1">  1        2 0.30958956E+00 0.48828056E+03</pdfrwt>
<pdfrwt beam="2">  1       -2 0.39291308E-02 0.48828056E+03</pdfrwt>
<totfact> 0.20418740E+03</totfact>
</mgrwt>
</event>
<event>
 4    1  0.2892809E-005  0.6920822E+03  0.7818608E-02  0.9730869E-01
          2   -1    0    0  501    0  0.00000000000E+00  0.00000000000E+00  0.16848122957E+03  0.16848122959E+03  0.25500000000E-02 0.  1.
         -2   -1    0    0    0  501 -0.00000000000E+00 -0.00000000000E+00 -0.71072858743E+03  0.71072858744E+03  0.25500000000E-02 0. -1.
    5000001    1    1    2    0    0  0.23789537812E+03  0.15544152176E+03 -0.32967373784E+03  0.47571530461E+03  0.19200000000E+03 0.  0.
   -5000001    1    1    2    0    0 -0.23789537812E+03 -0.15544152176E+03 -0.21257362002E+03  0.40349451241E+03  0.19200000000E+03 0.  0.
<mgrwt>
<rscale>  0 0.69208215E+03</rscale>
<asrwt>0</asrwt>
<pdfrwt beam="1">  1        2 0.24068748E-01 0.69208215E+03</pdfrwt>
<pdfrwt beam="2">  1       -2 0.10153265E+00 0.69208215E+03</pdfrwt>
<totfact> 0.18427887E+02</totfact>
</mgrwt>
</event>
<event>
 4    1  0.2892809E-005  0.5654621E+03  0.7818608E-02  0.9979771E-01
          2   -1    0    0  501    0  0.00000000000E+00  0.00000000000E+00  0.18150424400E+04  0.18150424400E+04  0.25500000000E-02 0.  1.
         -2   -1    0    0    0  501 -0.00000000000E+00 -0.00000000000E+00 -0.44041305932E+02  0.44041306005E+02  0.25500000000E-02 0. -1.
    5000001    1    1    2    0    0  0.16777421084E+03 -0.12180209459E+03  0.85450107251E+03  0.90001112160E+03  0.19200000000E+03 0.  0.
   -5000001    1    1    2    0    0 -0.16777421084E+03  0.12180209459E+03  0.91650006154E+03  0.95907262440E+03  0.19200000000E+03 0.  0.
<mgrwt>
<rscale>  0 0.56546207E+03</rscale>
<asrwt>0</asrwt>
<pdfrwt beam="1">  1        2 0.25929177E+00 0.56546207E+03</pdfrwt>
<pdfrwt beam="2">  1       -2 0.62916154E-02 0.56546207E+03</pdfrwt>
<totfact> 0.14737569E+03</totfact>
</mgrwt>
</event>
<event>
 4    1  0.2892809E-005  0.4954175E+03  0.7818608E-02  0.1014982E+00
         -2   -1    0    0    0  501 -0.00000000000E+00  0.00000000000E+00  0.43828395655E+02  0.43828395729E+02  0.25500000000E-02 0. -1.
          2   -1    0    0  501    0  0.00000000000E+00 -0.00000000000E+00 -0.13999972085E+04  0.13999972085E+04  0.25500000000E-02 0.  1.
    5000001    1    1    2    0    0 -0.15521170723E+03  0.13677590348E+02 -0.63506611709E+03  0.68150621685E+03  0.19200000000E+03 0.  0.
   -5000001    1    1    2    0    0  0.15521170723E+03 -0.13677590348E+02 -0.72110269573E+03  0.76231938735E+03  0.19200000000E+03 0.  0.
<mgrwt>
<rscale>  0 0.49541753E+03</rscale>
<asrwt>0</asrwt>
<pdfrwt beam="1">  1        2 0.19999957E+00 0.49541753E+03</pdfrwt>
<pdfrwt beam="2">  1       -2 0.62612003E-02 0.49541753E+03</pdfrwt>
<totfact> 0.24286950E+03</totfact>
</mgrwt>
</event>
<event>
 4    1  0.2892809E-005  0.4595368E+03  0.7818608E-02  0.1024916E+00
         -2   -1    0    0    0  501 -0.00000000000E+00  0.00000000000E+00  0.30124094907E+03  0.30124094908E+03  0.25500000000E-02 0. -1.
          2   -1    0    0  501    0  0.00000000000E+00 -0.00000000000E+00 -0.17525345878E+03  0.17525345880E+03  0.25500000000E-02 0.  1.
    5000001    1    1    2    0    0  0.51647702117E+02  0.28167968334E+02  0.17877715442E+03  0.26886091296E+03  0.19200000000E+03 0.  0.
   -5000001    1    1    2    0    0 -0.51647702117E+02 -0.28167968334E+02 -0.52789664130E+02  0.20763349492E+03  0.19200000000E+03 0.  0.
<mgrwt>
<rscale>  0 0.45953680E+03</rscale>
<asrwt>0</asrwt>
<pdfrwt beam="1">  1        2 0.25036208E-01 0.45953680E+03</pdfrwt>
<pdfrwt beam="2">  1       -2 0.43034421E-01 0.45953680E+03</pdfrwt>
<totfact> 0.11197139E+03</totfact>
</mgrwt>
</event>
<event>
 4    1  0.2892809E-005  0.6740495E+03  0.7818608E-02  0.9762670E-01
          2   -1    0    0  501    0  0.00000000000E+00  0.00000000000E+00  0.71587745039E+03  0.71587745040E+03  0.25500000000E-02 0.  1.
         -2   -1    0    0    0  501 -0.00000000000E+00 -0.00000000000E+00 -0.15866637680E+03  0.15866637682E+03  0.25500000000E-02 0. -1.
    5000001    1    1    2    0    0  0.20250778139E+03  0.57433137765E+02  0.45015567031E+02  0.28844127325E+03  0.19200000000E+03 0.  0.
   -5000001    1    1    2    0    0 -0.20250778139E+03 -0.57433137765E+02  0.51219550656E+03  0.58610255397E+03  0.19200000000E+03 0.  0.
<mgrwt>
<rscale>  0 0.67404950E+03</rscale>
<asrwt>0</asrwt>
<pdfrwt beam="1">  1        2 0.10226821E+00 0.67404950E+03</pdfrwt>
<pdfrwt beam="2">  1       -2 0.22666625E-01 0.67404950E+03</pdfrwt>
<totfact> 0.75079446E+02</totfact>
</mgrwt>
</event>
<event>
 4    1  0.2892809E-005  0.7226903E+03  0.7818608E-02  0.9679197E-01
         -2   -1    0    0    0  501 -0.00000000000E+00  0.00000000000E+00  0.21516578217E+03  0.21516578218E+03  0.25500000000E-02 0. -1.
          2   -1    0    0  501    0  0.00000000000E+00 -0.00000000000E+00 -0.60683583401E+03  0.60683583401E+03  0.25500000000E-02 0.  1.
    5000001    1    1    2    0    0  0.21348402276E+03 -0.16876874646E+03 -0.35526850305E+03  0.48696819919E+03  0.19200000000E+03 0.  0.
   -5000001    1    1    2    0    0 -0.21348402276E+03  0.16876874646E+03 -0.36401548787E+02  0.33503341701E+03  0.19200000000E+03 0.  0.
<mgrwt>
<rscale>  0 0.72269027E+03</rscale>
<asrwt>0</asrwt>
<pdfrwt beam="1">  1        2 0.86690832E-01 0.72269027E+03</pdfrwt>
<pdfrwt beam="2">  1       -2 0.30737969E-01 0.72269027E+03</pdfrwt>
<totfact> 0.52671791E+02</totfact>
</mgrwt>
</event>
<event>
 4    1  0.2892809E-005  0.5526128E+03  0.7818608E-02  0.1000891E+00
         -2   -1    0    0    0  501 -0.00000000000E+00  0.00000000000E+00  0.42915209977E+02  0.42915210053E+02  0.25500000000E-02 0. -1.
          2   -1    0    0  501    0  0.00000000000E+00 -0.00000000000E+00 -0.17789781668E+04  0.17789781668E+04  0.25500000000E-02 0.  1.
    5000001    1    1    2    0    0 -0.43749371918E+02 -0.19381375936E+03 -0.87414696079E+03  0.91677406700E+03  0.19200000000E+03 0.  0.
   -5000001    1    1    2    0    0  0.43749371918E+02  0.19381375936E+03 -0.86191599606E+03  0.90511930989E+03  0.19200000000E+03 0.  0.
<mgrwt>
<rscale>  0 0.55261278E+03</rscale>
<asrwt>0</asrwt>
<pdfrwt beam="1">  1        2 0.25413969E+00 0.55261278E+03</pdfrwt>
<pdfrwt beam="2">  1       -2 0.61307454E-02 0.55261278E+03</pdfrwt>
<totfact> 0.16012408E+03</totfact>
</mgrwt>
</event>
<event>
 4    1  0.2892809E-005  0.4677967E+03  0.7818608E-02  0.1022544E+00
         -2   -1    0    0    0  501 -0.00000000000E+00  0.00000000000E+00  0.72037936407E+03  0.72037936407E+03  0.25500000000E-02 0. -1.
          2   -1    0    0  501    0  0.00000000000E+00 -0.00000000000E+00 -0.75943926834E+02  0.75943926877E+02  0.25500000000E-02 0.  1.
    5000001    1    1    2    0    0  0.12226052840E+03 -0.49236870549E+02  0.35922163176E+03  0.42810756470E+03  0.19200000000E+03 0.  0.
   -5000001    1    1    2    0    0 -0.12226052840E+03  0.49236870549E+02  0.28521380547E+03  0.36821572625E+03  0.19200000000E+03 0.  0.
<mgrwt>
<rscale>  0 0.46779670E+03</rscale>
<asrwt>0</asrwt>
<pdfrwt beam="1">  1        2 0.10849132E-01 0.46779670E+03</pdfrwt>
<pdfrwt beam="2">  1       -2 0.10291134E+00 0.46779670E+03</pdfrwt>
<totfact> 0.46669584E+02</totfact>
</mgrwt>
</event>
<event>
 4    1  0.2892809E-005  0.4730565E+03  0.7818608E-02  0.1021061E+00
          2   -1    0    0  501    0  0.00000000000E+00  0.00000000000E+00  0.62348948020E+03  0.62348948021E+03  0.25500000000E-02 0.  1.
         -2   -1    0    0    0  501 -0.00000000000E+00 -0.00000000000E+00 -0.89729827292E+02  0.89729827328E+02  0.25500000000E-02 0. -1.
    5000001    1    1    2    0    0 -0.95756977496E+02 -0.84200440362E+02  0.34697869081E+03  0.41655410786E+03  0.19200000000E+03 0.  0.
   -5000001    1    1    2    0    0  0.95756977496E+02  0.84200440362E+02  0.18678096210E+03  0.29666519967E+03  0.19200000000E+03 0.  0.
<mgrwt>
<rscale>  0 0.47305646E+03</rscale>
<asrwt>0</asrwt>
<pdfrwt beam="1">  1        2 0.89069924E-01 0.47305646E+03</pdfrwt>
<pdfrwt beam="2">  1       -2 0.12818547E-01 0.47305646E+03</pdfrwt>
<totfact> 0.23510067E+03</totfact>
</mgrwt>
</event>
<event>
 4    1  0.2892809E-005  0.5689615E+03  0.7818608E-02  0.9971979E-01
         -2   -1    0    0    0  501 -0.00000000000E+00  0.00000000000E+00  0.79089855429E+02  0.79089855470E+02  0.25500000000E-02 0. -1.
          2   -1    0    0  501    0  0.00000000000E+00 -0.00000000000E+00 -0.10232576490E+04  0.10232576490E+04  0.25500000000E-02 0.  1.
    5000001    1    1    2    0    0 -0.27851369629E+02  0.17757543607E+03 -0.26200817403E+03  0.37124253197E+03  0.19200000000E+03 0.  0.
   -5000001    1    1    2    0    0  0.27851369629E+02 -0.17757543607E+03 -0.68215961952E+03  0.73110497248E+03  0.19200000000E+03 0.  0.
<mgrwt>
<rscale>  0 0.56896151E+03</rscale>
<asrwt>0</asrwt>
<pdfrwt beam="1">  1        2 0.14617966E+00 0.56896151E+03</pdfrwt>
<pdfrwt beam="2">  1       -2 0.11298551E-01 0.56896151E+03</pdfrwt>
<totfact> 0.15344850E+03</totfact>
</mgrwt>
</event>
<event>
 4    1  0.2892809E-005  0.4227222E+03  0.7818608E-02  0.1036184E+00
         -2   -1    0    0    0  501 -0.00000000000E+00  0.00000000000E+00  0.52791374855E+02  0.52791374917E+02  0.25500000000E-02 0. -1.
          2   -1    0    0  501    0  0.00000000000E+00 -0.00000000000E+00 -0.84622758204E+03  0.84622758204E+03  0.25500000000E-02 0.  1.
    5000001    1    1    2    0    0  0.22543470171E+02  0.78118562686E+02 -0.47035357666E+03  0.51449704077E+03  0.19200000000E+03 0.  0.
   -5000001    1    1    2    0    0 -0.22543470171E+02 -0.78118562686E+02 -0.32308263052E+03  0.38452191618E+03  0.19200000000E+03 0.  0.
<mgrwt>
<rscale>  0 0.42272221E+03</rscale>
<asrwt>0</asrwt>
<pdfrwt beam="1">  1        2 0.12088965E+00 0.42272221E+03</pdfrwt>
<pdfrwt beam="2">  1       -2 0.75416255E-02 0.42272221E+03</pdfrwt>
<totfact> 0.37898433E+03</totfact>
</mgrwt>
</event>
<event>
 4    1  0.2892809E-005  0.4966490E+03  0.7818608E-02  0.1014657E+00
         -2   -1    0    0    0  501 -0.00000000000E+00  0.00000000000E+00  0.92949575328E+02  0.92949575363E+02  0.25500000000E-02 0. -1.
          2   -1    0    0  501    0  0.00000000000E+00 -0.00000000000E+00 -0.66342474867E+03  0.66342474868E+03  0.25500000000E-02 0.  1.
    5000001    1    1    2    0    0  0.12161819434E+03 -0.70133398954E+02 -0.39390631001E+03  0.46014765011E+03  0.19200000000E+03 0.  0.
   -5000001    1    1    2    0    0 -0.12161819434E+03  0.70133398954E+02 -0.17656886334E+03  0.29622667393E+03  0.19200000000E+03 0.  0.
<mgrwt>
<rscale>  0 0.49664897E+03</rscale>
<asrwt>0</asrwt>
<pdfrwt beam="1">  1        2 0.94774961E-01 0.49664897E+03</pdfrwt>
<pdfrwt beam="2">  1       -2 0.13278511E-01 0.49664897E+03</pdfrwt>
<totfact> 0.20610044E+03</totfact>
</mgrwt>
</event>
<event>
 4    1  0.2892809E-005  0.6086802E+03  0.7818608E-02  0.9887559E-01
         -2   -1    0    0    0  501 -0.00000000000E+00  0.00000000000E+00  0.53620901044E+02  0.53620901104E+02  0.25500000000E-02 0. -1.
          2   -1    0    0  501    0  0.00000000000E+00 -0.00000000000E+00 -0.17273658115E+04  0.17273658115E+04  0.25500000000E-02 0.  1.
    5000001    1    1    2    0    0 -0.20405353655E+03  0.10890841239E+03 -0.69777220163E+03  0.75976900005E+03  0.19200000000E+03 0.  0.
   -5000001    1    1    2    0    0  0.20405353655E+03 -0.10890841239E+03 -0.97597270882E+03  0.10212177126E+04  0.19200000000E+03 0.  0.
<mgrwt>
<rscale>  0 0.60868025E+03</rscale>
<asrwt>0</asrwt>
<pdfrwt beam="1">  1        2 0.24676651E+00 0.60868025E+03</pdfrwt>
<pdfrwt beam="2">  1       -2 0.76601298E-02 0.60868025E+03</pdfrwt>
<totfact> 0.11939048E+03</totfact>
</mgrwt>
</event>
<event>
 4    1  0.2892809E-005  0.4887905E+03  0.7818608E-02  0.1016747E+00
         -2   -1    0    0    0  501 -0.00000000000E+00  0.00000000000E+00  0.11140720692E+03  0.11140720695E+03  0.25500000000E-02 0. -1.
          2   -1    0    0  501    0  0.00000000000E+00 -0.00000000000E+00 -0.53613254293E+03  0.53613254294E+03  0.25500000000E-02 0.  1.
    5000001    1    1    2    0    0 -0.95531123301E+02 -0.11483019646E+03 -0.18121316338E+03  0.30333872177E+03  0.19200000000E+03 0.  0.
   -5000001    1    1    2    0    0  0.95531123301E+02  0.11483019646E+03 -0.24351217263E+03  0.34420102812E+03  0.19200000000E+03 0.  0.
<mgrwt>
<rscale>  0 0.48879046E+03</rscale>
<asrwt>0</asrwt>
<pdfrwt beam="1">  1        2 0.76590362E-01 0.48879046E+03</pdfrwt>
<pdfrwt beam="2">  1       -2 0.15915316E-01 0.48879046E+03</pdfrwt>
<totfact> 0.19529579E+03</totfact>
</mgrwt>
</event>
<event>
 4    1  0.2892809E-005  0.4685218E+03  0.7818608E-02  0.1022338E+00
         -2   -1    0    0    0  501 -0.00000000000E+00  0.00000000000E+00  0.30069767048E+03  0.30069767050E+03  0.25500000000E-02 0. -1.
          2   -1    0    0  501    0  0.00000000000E+00 -0.00000000000E+00 -0.18250281157E+03  0.18250281158E+03  0.25500000000E-02 0.  1.
    5000001    1    1    2    0    0 -0.63965541041E+02 -0.68199195850E+02 -0.40207628988E+02  0.21730939737E+03  0.19200000000E+03 0.  0.
   -5000001    1    1    2    0    0  0.63965541041E+02  0.68199195850E+02  0.15840248791E+03  0.26589108471E+03  0.19200000000E+03 0.  0.
<mgrwt>
<rscale>  0 0.46852180E+03</rscale>
<asrwt>0</asrwt>
<pdfrwt beam="1">  1        2 0.26071830E-01 0.46852180E+03</pdfrwt>
<pdfrwt beam="2">  1       -2 0.42956810E-01 0.46852180E+03</pdfrwt>
<totfact> 0.10733299E+03</totfact>
</mgrwt>
</event>
<event>
 4    1  0.2892809E-005  0.1065735E+04  0.7818608E-02  0.9239247E-01
          2   -1    0    0  501    0  0.00000000000E+00  0.00000000000E+00  0.12957740951E+04  0.12957740952E+04  0.25500000000E-02 0.  1.
         -2   -1    0    0    0  501 -0.00000000000E+00 -0.00000000000E+00 -0.21913389241E+03  0.21913389243E+03  0.25500000000E-02 0. -1.
    5000001    1    1    2    0    0  0.41628167855E+03  0.54899844324E+02  0.91649340300E+03  0.10262205350E+04  0.19200000000E+03 0.  0.
   -5000001    1    1    2    0    0 -0.41628167855E+03 -0.54899844324E+02  0.16014679974E+03  0.48868745253E+03  0.19200000000E+03 0.  0.
<mgrwt>
<rscale>  0 0.10657355E+04</rscale>
<asrwt>0</asrwt>
<pdfrwt beam="1">  1        2 0.18511058E+00 0.10657355E+04</pdfrwt>
<pdfrwt beam="2">  1       -2 0.31304842E-01 0.10657355E+04</pdfrwt>
<totfact> 0.17739818E+02</totfact>
</mgrwt>
</event>
<event>
 4    1  0.2892809E-005  0.4422235E+03  0.7818608E-02  0.1030067E+00
         -2   -1    0    0    0  501 -0.00000000000E+00  0.00000000000E+00  0.12005559544E+03  0.12005559546E+03  0.25500000000E-02 0. -1.
          2   -1    0    0  501    0  0.00000000000E+00 -0.00000000000E+00 -0.40723141769E+03  0.40723141770E+03  0.25500000000E-02 0.  1.
    5000001    1    1    2    0    0  0.58662650339E+02 -0.56565356229E+02 -0.23108967600E+03  0.31129950919E+03  0.19200000000E+03 0.  0.
   -5000001    1    1    2    0    0 -0.58662650339E+02  0.56565356229E+02 -0.56086146259E+02  0.21598750397E+03  0.19200000000E+03 0.  0.
<mgrwt>
<rscale>  0 0.44222352E+03</rscale>
<asrwt>0</asrwt>
<pdfrwt beam="1">  1        2 0.58175916E-01 0.44222352E+03</pdfrwt>
<pdfrwt beam="2">  1       -2 0.17150800E-01 0.44222352E+03</pdfrwt>
<totfact> 0.23393243E+03</totfact>
</mgrwt>
</event>
<event>
 4    1  0.2892809E-005  0.5003379E+03  0.7818608E-02  0.1013691E+00
          2   -1    0    0  501    0  0.00000000000E+00  0.00000000000E+00  0.22388245023E+04  0.22388245023E+04  0.25500000000E-02 0.  1.
         -2   -1    0    0    0  501 -0.00000000000E+00 -0.00000000000E+00 -0.27954175416E+02  0.27954175532E+02  0.25500000000E-02 0. -1.
    5000001    1    1    2    0    0 -0.55660926316E+02  0.71521954828E+02  0.50598763138E+03  0.54872671873E+03  0.19200000000E+03 0.  0.
   -5000001    1    1    2    0    0  0.55660926316E+02 -0.71521954828E+02  0.17048826955E+04  0.17180519591E+04  0.19200000000E+03 0.  0.
<mgrwt>
<rscale>  0 0.50033786E+03</rscale>
<asrwt>0</asrwt>
<pdfrwt beam="1">  1        2 0.31983207E+00 0.50033786E+03</pdfrwt>
<pdfrwt beam="2">  1       -2 0.39934536E-02 0.50033786E+03</pdfrwt>
<totfact> 0.18327362E+03</totfact>
</mgrwt>
</event>
<event>
 4    1  0.2892809E-005  0.1102776E+04  0.7818608E-02  0.9202490E-01
         -2   -1    0    0    0  501 -0.00000000000E+00  0.00000000000E+00  0.24094111484E+03  0.24094111486E+03  0.25500000000E-02 0. -1.
          2   -1    0    0  501    0  0.00000000000E+00 -0.00000000000E+00 -0.12618385824E+04  0.12618385824E+04  0.25500000000E-02 0.  1.
    5000001    1    1    2    0    0  0.18164607064E+03  0.48291128992E+03 -0.55280701299E+03  0.78016549688E+03  0.19200000000E+03 0.  0.
   -5000001    1    1    2    0    0 -0.18164607064E+03 -0.48291128992E+03 -0.46809045453E+03  0.72261420034E+03  0.19200000000E+03 0.  0.
<mgrwt>
<rscale>  0 0.11027761E+04</rscale>
<asrwt>0</asrwt>
<pdfrwt beam="1">  1        2 0.18026265E+00 0.11027761E+04</pdfrwt>
<pdfrwt beam="2">  1       -2 0.34420160E-01 0.11027761E+04</pdfrwt>
<totfact> 0.15454788E+02</totfact>
</mgrwt>
</event>
<event>
 4    1  0.2892809E-005  0.5115453E+03  0.7818608E-02  0.1010809E+00
          2   -1    0    0  501    0  0.00000000000E+00  0.00000000000E+00  0.35049393979E+04  0.35049393979E+04  0.25500000000E-02 0.  1.
         -2   -1    0    0    0  501 -0.00000000000E+00 -0.00000000000E+00 -0.18664984165E+02  0.18664984339E+02  0.25500000000E-02 0. -1.
    5000001    1    1    2    0    0 -0.14410121692E+03  0.43945604265E+02  0.12158775683E+04  0.12401284764E+04  0.19200000000E+03 0.  0.
   -5000001    1    1    2    0    0  0.14410121692E+03 -0.43945604265E+02  0.22703968454E+04  0.22834759058E+04  0.19200000000E+03 0.  0.
<mgrwt>
<rscale>  0 0.51154526E+03</rscale>
<asrwt>0</asrwt>
<pdfrwt beam="1">  1        2 0.50070613E+00 0.51154526E+03</pdfrwt>
<pdfrwt beam="2">  1       -2 0.26664237E-02 0.51154526E+03</pdfrwt>
<totfact> 0.70777131E+02</totfact>
</mgrwt>
</event>
<event>
 4    1  0.2892809E-005  0.5527584E+03  0.7818608E-02  0.1000857E+00
          2   -1    0    0  501    0  0.00000000000E+00  0.00000000000E+00  0.70379567180E+02  0.70379567226E+02  0.25500000000E-02 0.  1.
         -2   -1    0    0    0  501 -0.00000000000E+00 -0.00000000000E+00 -0.10853359673E+04  0.10853359673E+04  0.25500000000E-02 0. -1.
    5000001    1    1    2    0    0 -0.15182461904E+03 -0.92024139329E+02 -0.32044294441E+03  0.41360227005E+03  0.19200000000E+03 0.  0.
   -5000001    1    1    2    0    0  0.15182461904E+03  0.92024139329E+02 -0.69451345575E+03  0.74211326453E+03  0.19200000000E+03 0.  0.
<mgrwt>
<rscale>  0 0.55275845E+03</rscale>
<asrwt>0</asrwt>
<pdfrwt beam="1">  1        2 0.10054225E-01 0.55275845E+03</pdfrwt>
<pdfrwt beam="2">  1       -2 0.15504798E+00 0.55275845E+03</pdfrwt>
<totfact> 0.18427409E+02</totfact>
</mgrwt>
</event>
<event>
 4    1  0.2892809E-005  0.4051135E+03  0.7818608E-02  0.1042023E+00
         -2   -1    0    0    0  501 -0.00000000000E+00  0.00000000000E+00  0.86913310404E+02  0.86913310441E+02  0.25500000000E-02 0. -1.
          2   -1    0    0  501    0  0.00000000000E+00 -0.00000000000E+00 -0.47207089806E+03  0.47207089807E+03  0.25500000000E-02 0.  1.
    5000001    1    1    2    0    0 -0.53944308770E+02 -0.13737036109E+01 -0.14372905372E+03  0.24583310679E+03  0.19200000000E+03 0.  0.
   -5000001    1    1    2    0    0  0.53944308770E+02  0.13737036109E+01 -0.24142853394E+03  0.31315110172E+03  0.19200000000E+03 0.  0.
<mgrwt>
<rscale>  0 0.40511354E+03</rscale>
<asrwt>0</asrwt>
<pdfrwt beam="1">  1        2 0.67438698E-01 0.40511354E+03</pdfrwt>
<pdfrwt beam="2">  1       -2 0.12416187E-01 0.40511354E+03</pdfrwt>
<totfact> 0.33979204E+03</totfact>
</mgrwt>
</event>
<event>
 4    1  0.2892809E-005  0.8650885E+03  0.7818608E-02  0.9470306E-01
         -2   -1    0    0    0  501 -0.00000000000E+00  0.00000000000E+00  0.51095091974E+02  0.51095092038E+02  0.25500000000E-02 0. -1.
          2   -1    0    0  501    0  0.00000000000E+00 -0.00000000000E+00 -0.36616928037E+04  0.36616928037E+04  0.25500000000E-02 0.  1.
    5000001    1    1    2    0    0  0.74863896691E+02  0.36714479355E+03 -0.22308289058E+04  0.22702117764E+04  0.19200000000E+03 0.  0.
   -5000001    1    1    2    0    0 -0.74863896691E+02 -0.36714479355E+03 -0.13797688058E+04  0.14425761193E+04  0.19200000000E+03 0.  0.
<mgrwt>
<rscale>  0 0.86508851E+03</rscale>
<asrwt>0</asrwt>
<pdfrwt beam="1">  1        2 0.52309881E+00 0.86508851E+03</pdfrwt>
<pdfrwt beam="2">  1       -2 0.72993012E-02 0.86508851E+03</pdfrwt>
<totfact> 0.11468896E+02</totfact>
</mgrwt>
</event>
<event>
 4    1  0.2892809E-005  0.5841851E+03  0.7818608E-02  0.9938771E-01
          2   -1    0    0  501    0  0.00000000000E+00  0.00000000000E+00  0.27866027666E+04  0.27866027666E+04  0.25500000000E-02 0.  1.
         -2   -1    0    0    0  501 -0.00000000000E+00 -0.00000000000E+00 -0.30617231061E+02  0.30617231167E+02  0.25500000000E-02 0. -1.
    5000001    1    1    2    0    0  0.61140817598E+02 -0.19259782578E+03  0.95697249429E+03  0.99674092768E+03  0.19200000000E+03 0.  0.
   -5000001    1    1    2    0    0 -0.61140817598E+02  0.19259782578E+03  0.17990130413E+04  0.18204790701E+04  0.19200000000E+03 0.  0.
<mgrwt>
<rscale>  0 0.58418511E+03</rscale>
<asrwt>0</asrwt>
<pdfrwt beam="1">  1        2 0.39808625E+00 0.58418511E+03</pdfrwt>
<pdfrwt beam="2">  1       -2 0.43738886E-02 0.58418511E+03</pdfrwt>
<totfact> 0.82964761E+02</totfact>
</mgrwt>
</event>
<event>
 4    1  0.2892809E-005  0.5194268E+03  0.7818608E-02  0.1008829E+00
         -2   -1    0    0    0  501 -0.00000000000E+00  0.00000000000E+00  0.25000080396E+03  0.25000080397E+03  0.25500000000E-02 0. -1.
          2   -1    0    0  501    0  0.00000000000E+00 -0.00000000000E+00 -0.26980337828E+03  0.26980337829E+03  0.25500000000E-02 0.  1.
    5000001    1    1    2    0    0  0.15251027767E+03  0.85593772110E+02 -0.87244787884E+01  0.25985725918E+03  0.19200000000E+03 0.  0.
   -5000001    1    1    2    0    0 -0.15251027767E+03 -0.85593772110E+02 -0.11078095529E+02  0.25994692308E+03  0.19200000000E+03 0.  0.
<mgrwt>
<rscale>  0 0.51942684E+03</rscale>
<asrwt>0</asrwt>
<pdfrwt beam="1">  1        2 0.38543339E-01 0.51942684E+03</pdfrwt>
<pdfrwt beam="2">  1       -2 0.35714401E-01 0.51942684E+03</pdfrwt>
<totfact> 0.99097799E+02</totfact>
</mgrwt>
</event>
<event>
 4    1  0.2892809E-005  0.7842634E+03  0.7818608E-02  0.9583079E-01
         -2   -1    0    0    0  501 -0.00000000000E+00  0.00000000000E+00  0.15222165937E+03  0.15222165939E+03  0.25500000000E-02 0. -1.
          2   -1    0    0  501    0  0.00000000000E+00 -0.00000000000E+00 -0.10101537213E+04  0.10101537213E+04  0.25500000000E-02 0.  1.
    5000001    1    1    2    0    0  0.28270552618E+03 -0.44531818822E+02 -0.15169488016E+03  0.37653795836E+03  0.19200000000E+03 0.  0.
   -5000001    1    1    2    0    0 -0.28270552618E+03  0.44531818822E+02 -0.70623718178E+03  0.78583742234E+03  0.19200000000E+03 0.  0.
<mgrwt>
<rscale>  0 0.78426341E+03</rscale>
<asrwt>0</asrwt>
<pdfrwt beam="1">  1        2 0.14430767E+00 0.78426341E+03</pdfrwt>
<pdfrwt beam="2">  1       -2 0.21745952E-01 0.78426341E+03</pdfrwt>
<totfact> 0.51103937E+02</totfact>
</mgrwt>
</event>
<event>
 4    1  0.2892809E-005  0.5193411E+03  0.7818608E-02  0.1008850E+00
         -2   -1    0    0    0  501 -0.00000000000E+00  0.00000000000E+00  0.33800057586E+02  0.33800057682E+02  0.25500000000E-02 0. -1.
          2   -1    0    0  501    0  0.00000000000E+00 -0.00000000000E+00 -0.19949312440E+04  0.19949312440E+04  0.25500000000E-02 0.  1.
    5000001    1    1    2    0    0 -0.91851438958E+02  0.12422714543E+03 -0.13002125007E+04  0.13233614840E+04  0.19200000000E+03 0.  0.
   -5000001    1    1    2    0    0  0.91851438958E+02 -0.12422714543E+03 -0.66091868574E+03  0.70536981766E+03  0.19200000000E+03 0.  0.
<mgrwt>
<rscale>  0 0.51934109E+03</rscale>
<asrwt>0</asrwt>
<pdfrwt beam="1">  1        2 0.28499010E+00 0.51934109E+03</pdfrwt>
<pdfrwt beam="2">  1       -2 0.48285809E-02 0.51934109E+03</pdfrwt>
<totfact> 0.18110592E+03</totfact>
</mgrwt>
</event>
<event>
 4    1  0.2892809E-005  0.7672808E+03  0.7818608E-02  0.9608623E-01
          2   -1    0    0  501    0  0.00000000000E+00  0.00000000000E+00  0.43804957938E+04  0.43804957938E+04  0.25500000000E-02 0.  1.
         -2   -1    0    0    0  501 -0.00000000000E+00 -0.00000000000E+00 -0.33598929712E+02  0.33598929808E+02  0.25500000000E-02 0. -1.
    5000001    1    1    2    0    0 -0.11880121301E+03 -0.26339349360E+03  0.12311984319E+04  0.12791416807E+04  0.19200000000E+03 0.  0.
   -5000001    1    1    2    0    0  0.11880121301E+03  0.26339349360E+03  0.31156984322E+04  0.31349530429E+04  0.19200000000E+03 0.  0.
<mgrwt>
<rscale>  0 0.76728084E+03</rscale>
<asrwt>0</asrwt>
<pdfrwt beam="1">  1        2 0.62578508E+00 0.76728084E+03</pdfrwt>
<pdfrwt beam="2">  1       -2 0.47998473E-02 0.76728084E+03</pdfrwt>
<totfact> 0.73070290E+01</totfact>
</mgrwt>
</event>
<event>
 4    1  0.2892809E-005  0.5038193E+03  0.7818608E-02  0.1012787E+00
          2   -1    0    0  501    0  0.00000000000E+00  0.00000000000E+00  0.17819540621E+04  0.17819540621E+04  0.25500000000E-02 0.  1.
         -2   -1    0    0    0  501 -0.00000000000E+00 -0.00000000000E+00 -0.35611733042E+02  0.35611733133E+02  0.25500000000E-02 0. -1.
    5000001    1    1    2    0    0 -0.41103989423E+02  0.14703013560E+03  0.10800042737E+04  0.11075110067E+04  0.19200000000E+03 0.  0.
   -5000001    1    1    2    0    0  0.41103989423E+02 -0.14703013560E+03  0.66633805537E+03  0.71005478856E+03  0.19200000000E+03 0.  0.
<mgrwt>
<rscale>  0 0.50381930E+03</rscale>
<asrwt>0</asrwt>
<pdfrwt beam="1">  1        2 0.25456491E+00 0.50381930E+03</pdfrwt>
<pdfrwt beam="2">  1       -2 0.50873895E-02 0.50381930E+03</pdfrwt>
<totfact> 0.21367431E+03</totfact>
</mgrwt>
</event>
<event>
 4    1  0.2892809E-005  0.7004541E+03  0.7818608E-02  0.9716456E-01
         -2   -1    0    0    0  501 -0.00000000000E+00  0.00000000000E+00  0.10695381183E+03  0.10695381186E+03  0.25500000000E-02 0. -1.
          2   -1    0    0  501    0  0.00000000000E+00 -0.00000000000E+00 -0.11468406592E+04  0.11468406592E+04  0.25500000000E-02 0.  1.
    5000001    1    1    2    0    0 -0.16356493146E+03 -0.24150339206E+03 -0.47199333884E+03  0.58712782857E+03  0.19200000000E+03 0.  0.
   -5000001    1    1    2    0    0  0.16356493146E+03  0.24150339206E+03 -0.56789350853E+03  0.66666664249E+03  0.19200000000E+03 0.  0.
<mgrwt>
<rscale>  0 0.70045408E+03</rscale>
<asrwt>0</asrwt>
<pdfrwt beam="1">  1        2 0.16383437E+00 0.70045408E+03</pdfrwt>
<pdfrwt beam="2">  1       -2 0.15279117E-01 0.70045408E+03</pdfrwt>
<totfact> 0.78328904E+02</totfact>
</mgrwt>
</event>
<event>
 4    1  0.2892809E-005  0.6531422E+03  0.7818608E-02  0.9800901E-01
         -2   -1    0    0    0  501 -0.00000000000E+00  0.00000000000E+00  0.44498943823E+02  0.44498943896E+02  0.25500000000E-02 0. -1.
          2   -1    0    0  501    0  0.00000000000E+00 -0.00000000000E+00 -0.23966566139E+04  0.23966566139E+04  0.25500000000E-02 0.  1.
    5000001    1    1    2    0    0 -0.25810466364E+03 -0.47483153498E+02 -0.12889518395E+04  0.13293357408E+04  0.19200000000E+03 0.  0.
   -5000001    1    1    2    0    0  0.25810466364E+03  0.47483153498E+02 -0.10632058306E+04  0.11118198170E+04  0.19200000000E+03 0.  0.
<mgrwt>
<rscale>  0 0.65314221E+03</rscale>
<asrwt>0</asrwt>
<pdfrwt beam="1">  1        2 0.34237944E+00 0.65314221E+03</pdfrwt>
<pdfrwt beam="2">  1       -2 0.63569935E-02 0.65314221E+03</pdfrwt>
<totfact> 0.73433700E+02</totfact>
</mgrwt>
</event>
<event>
 4    1  0.2892809E-005  0.7830877E+03  0.7818608E-02  0.9584825E-01
         -2   -1    0    0    0  501 -0.00000000000E+00  0.00000000000E+00  0.35421916390E+03  0.35421916391E+03  0.25500000000E-02 0. -1.
          2   -1    0    0  501    0  0.00000000000E+00 -0.00000000000E+00 -0.43280145275E+03  0.43280145276E+03  0.25500000000E-02 0.  1.
    5000001    1    1    2    0    0 -0.30669458830E+03  0.13644986013E+03  0.22355603651E+02  0.38735501524E+03  0.19200000000E+03 0.  0.
   -5000001    1    1    2    0    0  0.30669458830E+03 -0.13644986013E+03 -0.10093789251E+03  0.39966560143E+03  0.19200000000E+03 0.  0.
<mgrwt>
<rscale>  0 0.78308765E+03</rscale>
<asrwt>0</asrwt>
<pdfrwt beam="1">  1        2 0.61828779E-01 0.78308765E+03</pdfrwt>
<pdfrwt beam="2">  1       -2 0.50602738E-01 0.78308765E+03</pdfrwt>
<totfact> 0.29420553E+02</totfact>
</mgrwt>
</event>
<event>
 4    1  0.2892809E-005  0.4893350E+03  0.7818608E-02  0.1016601E+00
         -2   -1    0    0    0  501 -0.00000000000E+00  0.00000000000E+00  0.10677316647E+03  0.10677316650E+03  0.25500000000E-02 0. -1.
          2   -1    0    0  501    0  0.00000000000E+00 -0.00000000000E+00 -0.56064830136E+03  0.56064830137E+03  0.25500000000E-02 0.  1.
    5000001    1    1    2    0    0  0.15022661434E+03 -0.93685049249E+01 -0.25217553174E+03  0.35087362875E+03  0.19200000000E+03 0.  0.
   -5000001    1    1    2    0    0 -0.15022661434E+03  0.93685049249E+01 -0.20169960315E+03  0.31654783912E+03  0.19200000000E+03 0.  0.
<mgrwt>
<rscale>  0 0.48933504E+03</rscale>
<asrwt>0</asrwt>
<pdfrwt beam="1">  1        2 0.80092613E-01 0.48933504E+03</pdfrwt>
<pdfrwt beam="2">  1       -2 0.15253310E-01 0.48933504E+03</pdfrwt>
<totfact> 0.19927659E+03</totfact>
</mgrwt>
</event>
<event>
 4    1  0.2892809E-005  0.4832839E+03  0.7818608E-02  0.1018237E+00
          2   -1    0    0  501    0  0.00000000000E+00  0.00000000000E+00  0.75305035019E+02  0.75305035063E+02  0.25500000000E-02 0.  1.
         -2   -1    0    0    0  501 -0.00000000000E+00 -0.00000000000E+00 -0.77539092071E+03  0.77539092071E+03  0.25500000000E-02 0. -1.
    5000001    1    1    2    0    0  0.31188856363E+02 -0.42269093472E+02 -0.59118573731E+03  0.62379804185E+03  0.19200000000E+03 0.  0.
   -5000001    1    1    2    0    0 -0.31188856363E+02  0.42269093472E+02 -0.10890014838E+03  0.22689791392E+03  0.19200000000E+03 0.  0.
<mgrwt>
<rscale>  0 0.48328394E+03</rscale>
<asrwt>0</asrwt>
<pdfrwt beam="1">  1        2 0.10757863E-01 0.48328394E+03</pdfrwt>
<pdfrwt beam="2">  1       -2 0.11077013E+00 0.48328394E+03</pdfrwt>
<totfact> 0.39565119E+02</totfact>
</mgrwt>
</event>
<event>
 4    1  0.2892809E-005  0.6617842E+03  0.7818608E-02  0.9784915E-01
         -2   -1    0    0    0  501 -0.00000000000E+00  0.00000000000E+00  0.43377697869E+03  0.43377697869E+03  0.25500000000E-02 0. -1.
          2   -1    0    0  501    0  0.00000000000E+00 -0.00000000000E+00 -0.25240983245E+03  0.25240983246E+03  0.25500000000E-02 0.  1.
    5000001    1    1    2    0    0  0.20499854487E+03  0.17463329173E+03  0.80089960895E+02  0.34029339079E+03  0.19200000000E+03 0.  0.
   -5000001    1    1    2    0    0 -0.20499854487E+03 -0.17463329173E+03  0.10127718534E+03  0.34589342036E+03  0.19200000000E+03 0.  0.
<mgrwt>
<rscale>  0 0.66178418E+03</rscale>
<asrwt>0</asrwt>
<pdfrwt beam="1">  1        2 0.36058548E-01 0.66178418E+03</pdfrwt>
<pdfrwt beam="2">  1       -2 0.61968139E-01 0.66178418E+03</pdfrwt>
<totfact> 0.35302314E+02</totfact>
</mgrwt>
</event>
<event>
 4    1  0.2892809E-005  0.5882972E+03  0.7818608E-02  0.9929988E-01
         -2   -1    0    0    0  501 -0.00000000000E+00  0.00000000000E+00  0.45487379207E+03  0.45487379208E+03  0.25500000000E-02 0. -1.
          2   -1    0    0  501    0  0.00000000000E+00 -0.00000000000E+00 -0.19021406896E+03  0.19021406897E+03  0.25500000000E-02 0.  1.
    5000001    1    1    2    0    0  0.13971392178E+03  0.16422572118E+03  0.19406119421E+03  0.34787039905E+03  0.19200000000E+03 0.  0.
   -5000001    1    1    2    0    0 -0.13971392178E+03 -0.16422572118E+03  0.70598528902E+02  0.29721746200E+03  0.19200000000E+03 0.  0.
<mgrwt>
<rscale>  0 0.58829719E+03</rscale>
<asrwt>0</asrwt>
<pdfrwt beam="1">  1        2 0.27173439E-01 0.58829719E+03</pdfrwt>
<pdfrwt beam="2">  1       -2 0.64981970E-01 0.58829719E+03</pdfrwt>
<totfact> 0.43898799E+02</totfact>
</mgrwt>
</event>
<event>
 4    1  0.2892809E-005  0.6264608E+03  0.7818608E-02  0.9851980E-01
          2   -1    0    0  501    0  0.00000000000E+00  0.00000000000E+00  0.21182911777E+04  0.21182911777E+04  0.25500000000E-02 0.  1.
         -2   -1    0    0    0  501 -0.00000000000E+00 -0.00000000000E+00 -0.46317177193E+02  0.46317177263E+02  0.25500000000E-02 0. -1.
    5000001    1    1    2    0    0  0.14911417794E+03  0.16296211721E+03  0.14216449384E+04  0.14514578949E+04  0.19200000000E+03 0.  0.
   -5000001    1    1    2    0    0 -0.14911417794E+03 -0.16296211721E+03  0.65032906214E+03  0.71315046012E+03  0.19200000000E+03 0.  0.
<mgrwt>
<rscale>  0 0.62646075E+03</rscale>
<asrwt>0</asrwt>
<pdfrwt beam="1">  1        2 0.30261303E+00 0.62646075E+03</pdfrwt>
<pdfrwt beam="2">  1       -2 0.66167395E-02 0.62646075E+03</pdfrwt>
<totfact> 0.95546990E+02</totfact>
</mgrwt>
</event>
<event>
 4    1  0.2892809E-005  0.4805100E+03  0.7818608E-02  0.1018995E+00
          2   -1    0    0  501    0  0.00000000000E+00  0.00000000000E+00  0.15401533154E+04  0.15401533154E+04  0.25500000000E-02 0.  1.
         -2   -1    0    0    0  501 -0.00000000000E+00 -0.00000000000E+00 -0.37478392756E+02  0.37478392843E+02  0.25500000000E-02 0. -1.
    5000001    1    1    2    0    0 -0.17971654920E+02 -0.12915916946E+03  0.95514732183E+03  0.98294225560E+03  0.19200000000E+03 0.  0.
   -5000001    1    1    2    0    0  0.17971654920E+02  0.12915916946E+03  0.54752760077E+03  0.59468945260E+03  0.19200000000E+03 0.  0.
<mgrwt>
<rscale>  0 0.48051002E+03</rscale>
<asrwt>0</asrwt>
<pdfrwt beam="1">  1        2 0.22002184E+00 0.48051002E+03</pdfrwt>
<pdfrwt beam="2">  1       -2 0.53540575E-02 0.48051002E+03</pdfrwt>
<totfact> 0.26200710E+03</totfact>
</mgrwt>
</event>
<event>
 4    1  0.2892809E-005  0.6849231E+03  0.7818608E-02  0.9743369E-01
         -2   -1    0    0    0  501 -0.00000000000E+00  0.00000000000E+00  0.16727785959E+03  0.16727785961E+03  0.25500000000E-02 0. -1.
          2   -1    0    0  501    0  0.00000000000E+00 -0.00000000000E+00 -0.70110848831E+03  0.70110848832E+03  0.25500000000E-02 0.  1.
    5000001    1    1    2    0    0  0.15135912465E+03 -0.21359793215E+03 -0.40511936865E+03  0.51915254414E+03  0.19200000000E+03 0.  0.
   -5000001    1    1    2    0    0 -0.15135912465E+03  0.21359793215E+03 -0.12871126008E+03  0.34923380378E+03  0.19200000000E+03 0.  0.
<mgrwt>
<rscale>  0 0.68492314E+03</rscale>
<asrwt>0</asrwt>
<pdfrwt beam="1">  1        2 0.10015835E+00 0.68492314E+03</pdfrwt>
<pdfrwt beam="2">  1       -2 0.23896837E-01 0.68492314E+03</pdfrwt>
<totfact> 0.70093641E+02</totfact>
</mgrwt>
</event>
<event>
 4    1  0.2892809E-005  0.4148645E+03  0.7818608E-02  0.1038751E+00
         -2   -1    0    0    0  501 -0.00000000000E+00  0.00000000000E+00  0.16666373722E+03  0.16666373724E+03  0.25500000000E-02 0. -1.
          2   -1    0    0  501    0  0.00000000000E+00 -0.00000000000E+00 -0.25817341777E+03  0.25817341778E+03  0.25500000000E-02 0.  1.
    5000001    1    1    2    0    0  0.35626756115E+02 -0.52924892451E+02 -0.92613253372E+02  0.22251185293E+03  0.19200000000E+03 0.  0.
   -5000001    1    1    2    0    0 -0.35626756115E+02  0.52924892451E+02  0.11035728217E+01  0.20232530209E+03  0.19200000000E+03 0.  0.
<mgrwt>
<rscale>  0 0.41486454E+03</rscale>
<asrwt>0</asrwt>
<pdfrwt beam="1">  1        2 0.36881917E-01 0.41486454E+03</pdfrwt>
<pdfrwt beam="2">  1       -2 0.23809105E-01 0.41486454E+03</pdfrwt>
<totfact> 0.21816995E+03</totfact>
</mgrwt>
</event>
<event>
 4    1  0.2892809E-005  0.1428684E+04  0.7818608E-02  0.8933314E-01
          2   -1    0    0  501    0  0.00000000000E+00  0.00000000000E+00  0.18400068141E+04  0.18400068141E+04  0.25500000000E-02 0.  1.
         -2   -1    0    0    0  501 -0.00000000000E+00 -0.00000000000E+00 -0.27732740097E+03  0.27732740099E+03  0.25500000000E-02 0. -1.
    5000001    1    1    2    0    0  0.44225605974E+02 -0.68449234814E+03  0.86162387079E+03  0.11179201106E+04  0.19200000000E+03 0.  0.
   -5000001    1    1    2    0    0 -0.44225605974E+02  0.68449234814E+03  0.70105554234E+03  0.99941410453E+03  0.19200000000E+03 0.  0.
<mgrwt>
<rscale>  0 0.14286837E+04</rscale>
<asrwt>0</asrwt>
<pdfrwt beam="1">  1        2 0.26285811E+00 0.14286837E+04</pdfrwt>
<pdfrwt beam="2">  1       -2 0.39618201E-01 0.14286837E+04</pdfrwt>
<totfact> 0.56847188E+01</totfact>
</mgrwt>
</event>
<event>
 4    1  0.2892809E-005  0.6922316E+03  0.7818608E-02  0.9730610E-01
         -2   -1    0    0    0  501 -0.00000000000E+00  0.00000000000E+00  0.31752139013E+03  0.31752139014E+03  0.25500000000E-02 0. -1.
          2   -1    0    0  501    0  0.00000000000E+00 -0.00000000000E+00 -0.37728530477E+03  0.37728530478E+03  0.25500000000E-02 0.  1.
    5000001    1    1    2    0    0  0.27336415550E+03  0.88083258714E+02 -0.86957975243E+01  0.34558101636E+03  0.19200000000E+03 0.  0.
   -5000001    1    1    2    0    0 -0.27336415550E+03 -0.88083258714E+02 -0.51068117111E+02  0.34922567855E+03  0.19200000000E+03 0.  0.
<mgrwt>
<rscale>  0 0.69223162E+03</rscale>
<asrwt>0</asrwt>
<pdfrwt beam="1">  1        2 0.53897900E-01 0.69223162E+03</pdfrwt>
<pdfrwt beam="2">  1       -2 0.45360199E-01 0.69223162E+03</pdfrwt>
<totfact> 0.42881219E+02</totfact>
</mgrwt>
</event>
<event>
 4    1  0.2892809E-005  0.5638637E+03  0.7818608E-02  0.9983350E-01
          2   -1    0    0  501    0  0.00000000000E+00  0.00000000000E+00  0.20472400916E+03  0.20472400918E+03  0.25500000000E-02 0. -1.
         -2   -1    0    0    0  501 -0.00000000000E+00 -0.00000000000E+00 -0.38825723427E+03  0.38825723428E+03  0.25500000000E-02 0.  1.
    5000001    1    1    2    0    0  0.19566437963E+03 -0.63447024272E+02 -0.11032747206E+03  0.30223538085E+03  0.19200000000E+03 0.  0.
   -5000001    1    1    2    0    0 -0.19566437963E+03  0.63447024272E+02 -0.73205753053E+02  0.29074586261E+03  0.19200000000E+03 0.  0.
<mgrwt>
<rscale>  0 0.56386373E+03</rscale>
<asrwt>0</asrwt>
<pdfrwt beam="1">  1        2 0.29246287E-01 0.56386373E+03</pdfrwt>
<pdfrwt beam="2">  1       -2 0.55465319E-01 0.56386373E+03</pdfrwt>
<totfact> 0.56376800E+02</totfact>
</mgrwt>
</event>
<event>
 4    1  0.2892809E-005  0.4380554E+03  0.7818608E-02  0.1031345E+00
         -2   -1    0    0    0  501 -0.00000000000E+00  0.00000000000E+00  0.40554172501E+02  0.40554172581E+02  0.25500000000E-02 0.  1.
          2   -1    0    0  501    0  0.00000000000E+00 -0.00000000000E+00 -0.11829397461E+04  0.11829397461E+04  0.25500000000E-02 0. -1.
    5000001    1    1    2    0    0 -0.10438293211E+03 -0.93771243434E+01 -0.60247147294E+03  0.64095210639E+03  0.19200000000E+03 0.  0.
   -5000001    1    1    2    0    0  0.10438293211E+03  0.93771243434E+01 -0.53991410063E+03  0.58254181226E+03  0.19200000000E+03 0.  0.
<mgrwt>
<rscale>  0 0.43805544E+03</rscale>
<asrwt>0</asrwt>
<pdfrwt beam="1">  1        2 0.16899137E+00 0.43805544E+03</pdfrwt>
<pdfrwt beam="2">  1       -2 0.57934540E-02 0.43805544E+03</pdfrwt>
<totfact> 0.35916615E+03</totfact>
</mgrwt>
</event>
<event>
 4    1  0.2892809E-005  0.6101537E+03  0.7818608E-02  0.9884561E-01
         -2   -1    0    0    0  501 -0.00000000000E+00  0.00000000000E+00  0.57667093662E+03  0.57667093662E+03  0.25500000000E-02 0. -1.
          2   -1    0    0  501    0  0.00000000000E+00 -0.00000000000E+00 -0.16139515014E+03  0.16139515016E+03  0.25500000000E-02 0.  1.
    5000001    1    1    2    0    0 -0.18210462804E+03 -0.14536191529E+03  0.15469338541E+03  0.33924360784E+03  0.19200000000E+03 0.  0.
   -5000001    1    1    2    0    0  0.18210462804E+03  0.14536191529E+03  0.26058240106E+03  0.39882247895E+03  0.19200000000E+03 0.  0.
<mgrwt>
<rscale>  0 0.61015373E+03</rscale>
<asrwt>0</asrwt>
<pdfrwt beam="1">  1        2 0.23056450E-01 0.61015373E+03</pdfrwt>
<pdfrwt beam="2">  1       -2 0.82381562E-01 0.61015373E+03</pdfrwt>
<totfact> 0.31454820E+02</totfact>
</mgrwt>
</event>
<event>
 4    1  0.2892809E-005  0.5500875E+03  0.7818608E-02  0.1001474E+00
          2   -1    0    0  501    0  0.00000000000E+00  0.00000000000E+00  0.79094710024E+03  0.79094710025E+03  0.25500000000E-02 0.  1.
         -2   -1    0    0    0  501 -0.00000000000E+00 -0.00000000000E+00 -0.95643632642E+02  0.95643632676E+02  0.25500000000E-02 0. -1.
    5000001    1    1    2    0    0  0.15540594316E+03  0.11695562247E+03  0.29783323036E+03  0.40422550377E+03  0.19200000000E+03 0.  0.
   -5000001    1    1    2    0    0 -0.15540594316E+03 -0.11695562247E+03  0.39747023724E+03  0.48236522915E+03  0.19200000000E+03 0.  0.
<mgrwt>
<rscale>  0 0.55008746E+03</rscale>
<asrwt>0</asrwt>
<pdfrwt beam="1">  1        2 0.11299244E+00 0.55008746E+03</pdfrwt>
<pdfrwt beam="2">  1       -2 0.13663376E-01 0.55008746E+03</pdfrwt>
<totfact> 0.15828783E+03</totfact>
</mgrwt>
</event>
<event>
 4    1  0.2892809E-005  0.8445915E+03  0.7818608E-02  0.9497625E-01
         -2   -1    0    0    0  501 -0.00000000000E+00  0.00000000000E+00  0.66928841632E+03  0.66928841632E+03  0.25500000000E-02 0. -1.
          2   -1    0    0  501    0  0.00000000000E+00 -0.00000000000E+00 -0.26645270463E+03  0.26645270464E+03  0.25500000000E-02 0.  1.
    5000001    1    1    2    0    0 -0.26447560593E+03  0.15233822701E+03  0.44494754269E+03  0.57270987182E+03  0.19200000000E+03 0.  0.
   -5000001    1    1    2    0    0  0.26447560593E+03 -0.15233822701E+03 -0.42111831000E+02  0.36303124914E+03  0.19200000000E+03 0.  0.
<mgrwt>
<rscale>  0 0.84459152E+03</rscale>
<asrwt>0</asrwt>
<pdfrwt beam="1">  1        2 0.38064672E-01 0.84459152E+03</pdfrwt>
<pdfrwt beam="2">  1       -2 0.95612631E-01 0.84459152E+03</pdfrwt>
<totfact> 0.12570776E+02</totfact>
</mgrwt>
</event>
<event>
 4    1  0.2892809E-005  0.4868957E+03  0.7818608E-02  0.1017257E+00
          2   -1    0    0  501    0  0.00000000000E+00  0.00000000000E+00  0.54438775631E+03  0.54438775632E+03  0.25500000000E-02 0.  1.
         -2   -1    0    0    0  501 -0.00000000000E+00 -0.00000000000E+00 -0.10886884168E+03  0.10886884171E+03  0.25500000000E-02 0. -1.
    5000001    1    1    2    0    0  0.12579782885E+03 -0.80392816848E+02  0.20338624195E+03  0.31704583606E+03  0.19200000000E+03 0.  0.
   -5000001    1    1    2    0    0 -0.12579782885E+03  0.80392816848E+02  0.23213267268E+03  0.33621076197E+03  0.19200000000E+03 0.  0.
<mgrwt>
<rscale>  0 0.48689574E+03</rscale>
<asrwt>0</asrwt>
<pdfrwt beam="1">  1        2 0.77769683E-01 0.48689574E+03</pdfrwt>
<pdfrwt beam="2">  1       -2 0.15552691E-01 0.48689574E+03</pdfrwt>
<totfact> 0.19950180E+03</totfact>
</mgrwt>
</event>
<event>
 4    1  0.2892809E-005  0.5056006E+03  0.7818608E-02  0.1012327E+00
          2   -1    0    0  501    0  0.00000000000E+00  0.00000000000E+00  0.93059278777E+03  0.93059278777E+03  0.25500000000E-02 0.  1.
         -2   -1    0    0    0  501 -0.00000000000E+00 -0.00000000000E+00 -0.68674507971E+02  0.68674508018E+02  0.25500000000E-02 0. -1.
    5000001    1    1    2    0    0 -0.16122350561E+03  0.17963012663E+02  0.37762157708E+03  0.45362731847E+03  0.19200000000E+03 0.  0.
   -5000001    1    1    2    0    0  0.16122350561E+03 -0.17963012663E+02  0.48429670272E+03  0.54563997732E+03  0.19200000000E+03 0.  0.
<mgrwt>
<rscale>  0 0.50560064E+03</rscale>
<asrwt>0</asrwt>
<pdfrwt beam="1">  1        2 0.13294181E+00 0.50560064E+03</pdfrwt>
<pdfrwt beam="2">  1       -2 0.98106454E-02 0.50560064E+03</pdfrwt>
<totfact> 0.22016776E+03</totfact>
</mgrwt>
</event>
<event>
 4    1  0.2892809E-005  0.6062111E+03  0.7818608E-02  0.9892603E-01
          2   -1    0    0  501    0  0.00000000000E+00  0.00000000000E+00  0.52688482169E+04  0.52688482169E+04  0.25500000000E-02 0.  1.
         -2   -1    0    0    0  501 -0.00000000000E+00 -0.00000000000E+00 -0.17437015630E+02  0.17437015816E+02  0.25500000000E-02 0. -1.
    5000001    1    1    2    0    0 -0.31673009314E+02  0.23224066618E+03  0.26987071274E+04  0.27156625464E+04  0.19200000000E+03 0.  0.
   -5000001    1    1    2    0    0  0.31673009314E+02 -0.23224066618E+03  0.25527040739E+04  0.25706226863E+04  0.19200000000E+03 0.  0.
<mgrwt>
<rscale>  0 0.60621115E+03</rscale>
<asrwt>0</asrwt>
<pdfrwt beam="1">  1        2 0.75269266E+00 0.60621115E+03</pdfrwt>
<pdfrwt beam="2">  1       -2 0.24910020E-02 0.60621115E+03</pdfrwt>
<totfact> 0.33537495E+01</totfact>
</mgrwt>
</event>
<event>
 4    1  0.2892809E-005  0.4771914E+03  0.7818608E-02  0.1019910E+00
         -2   -1    0    0    0  501 -0.00000000000E+00  0.00000000000E+00  0.31527067523E+02  0.31527067626E+02  0.25500000000E-02 0. -1.
          2   -1    0    0  501    0  0.00000000000E+00 -0.00000000000E+00 -0.18056836111E+04  0.18056836111E+04  0.25500000000E-02 0.  1.
    5000001    1    1    2    0    0  0.28833251984E+02  0.13226766022E+03 -0.72658064960E+03  0.76361608857E+03  0.19200000000E+03 0.  0.
   -5000001    1    1    2    0    0 -0.28833251984E+02 -0.13226766022E+03 -0.10475758940E+04  0.10735945902E+04  0.19200000000E+03 0.  0.
<mgrwt>
<rscale>  0 0.47719140E+03</rscale>
<asrwt>0</asrwt>
<pdfrwt beam="1">  1        2 0.25795474E+00 0.47719140E+03</pdfrwt>
<pdfrwt beam="2">  1       -2 0.45038679E-02 0.47719140E+03</pdfrwt>
<totfact> 0.25103908E+03</totfact>
</mgrwt>
</event>
<event>
 4    1  0.2892809E-005  0.8257947E+03  0.7818608E-02  0.9523413E-01
         -2   -1    0    0    0  501 -0.00000000000E+00  0.00000000000E+00  0.96240997822E+03  0.96240997822E+03  0.25500000000E-02 0. -1.
          2   -1    0    0  501    0  0.00000000000E+00 -0.00000000000E+00 -0.17714303541E+03  0.17714303543E+03  0.25500000000E-02 0.  1.
    5000001    1    1    2    0    0  0.21103273071E+03 -0.24071797506E+03  0.14911965280E+03  0.40197092905E+03  0.19200000000E+03 0.  0.
   -5000001    1    1    2    0    0 -0.21103273071E+03  0.24071797506E+03  0.63614729000E+03  0.73758208460E+03  0.19200000000E+03 0.  0.
<mgrwt>
<rscale>  0 0.82579471E+03</rscale>
<asrwt>0</asrwt>
<pdfrwt beam="1">  1        2 0.25306148E-01 0.82579471E+03</pdfrwt>
<pdfrwt beam="2">  1       -2 0.13748714E+00 0.82579471E+03</pdfrwt>
<totfact> 0.81909181E+01</totfact>
</mgrwt>
</event>
<event>
 4    1  0.2892809E-005  0.5296348E+03  0.7818608E-02  0.1006321E+00
         -2   -1    0    0    0  501 -0.00000000000E+00  0.00000000000E+00  0.87747191543E+02  0.87747191580E+02  0.25500000000E-02 0. -1.
          2   -1    0    0  501    0  0.00000000000E+00 -0.00000000000E+00 -0.79920782835E+03  0.79920782835E+03  0.25500000000E-02 0.  1.
    5000001    1    1    2    0    0  0.11856929107E+03  0.10561997020E+03 -0.50598317129E+03  0.56400108556E+03  0.19200000000E+03 0.  0.
   -5000001    1    1    2    0    0 -0.11856929107E+03 -0.10561997020E+03 -0.20547746552E+03  0.32295393437E+03  0.19200000000E+03 0.  0.
<mgrwt>
<rscale>  0 0.52963475E+03</rscale>
<asrwt>0</asrwt>
<pdfrwt beam="1">  1        2 0.11417254E+00 0.52963475E+03</pdfrwt>
<pdfrwt beam="2">  1       -2 0.12535314E-01 0.52963475E+03</pdfrwt>
<totfact> 0.18019749E+03</totfact>
</mgrwt>
</event>
<event>
 4    1  0.2892809E-005  0.7272017E+03  0.7818608E-02  0.9671812E-01
         -2   -1    0    0    0  501 -0.00000000000E+00  0.00000000000E+00  0.12173535716E+03  0.12173535719E+03  0.25500000000E-02 0. -1.
          2   -1    0    0  501    0  0.00000000000E+00 -0.00000000000E+00 -0.10860079880E+04  0.10860079880E+04  0.25500000000E-02 0.  1.
    5000001    1    1    2    0    0  0.30066335774E+03  0.45507614698E+02 -0.57114349712E+03  0.67493576879E+03  0.19200000000E+03 0.  0.
   -5000001    1    1    2    0    0 -0.30066335774E+03 -0.45507614698E+02 -0.39312913367E+03  0.53280757636E+03  0.19200000000E+03 0.  0.
<mgrwt>
<rscale>  0 0.72720168E+03</rscale>
<asrwt>0</asrwt>
<pdfrwt beam="1">  1        2 0.15514399E+00 0.72720168E+03</pdfrwt>
<pdfrwt beam="2">  1       -2 0.17390766E-01 0.72720168E+03</pdfrwt>
<totfact> 0.68084617E+02</totfact>
</mgrwt>
</event>
<event>
 4    1  0.2892809E-005  0.4330246E+03  0.7818608E-02  0.1032909E+00
         -2   -1    0    0    0  501 -0.00000000000E+00  0.00000000000E+00  0.17989347454E+02  0.17989347634E+02  0.25500000000E-02 0. -1.
          2   -1    0    0  501    0  0.00000000000E+00 -0.00000000000E+00 -0.26058518518E+04  0.26058518518E+04  0.25500000000E-02 0.  1.
    5000001    1    1    2    0    0  0.25189255118E+02  0.67863157157E+02 -0.17125812444E+04  0.17248299700E+04  0.19200000000E+03 0.  0.
   -5000001    1    1    2    0    0 -0.25189255118E+02 -0.67863157157E+02 -0.87528125994E+03  0.89901122945E+03  0.19200000000E+03 0.  0.
<mgrwt>
<rscale>  0 0.43302459E+03</rscale>
<asrwt>0</asrwt>
<pdfrwt beam="1">  1        2 0.37226431E+00 0.43302459E+03</pdfrwt>
<pdfrwt beam="2">  1       -2 0.25699085E-02 0.43302459E+03</pdfrwt>
<totfact> 0.23387141E+03</totfact>
</mgrwt>
</event>
<event>
 4    1  0.2892809E-005  0.5110538E+03  0.7818608E-02  0.1010933E+00
         -2   -1    0    0    0  501 -0.00000000000E+00  0.00000000000E+00  0.13612223094E+03  0.13612223096E+03  0.25500000000E-02 0. -1.
          2   -1    0    0  501    0  0.00000000000E+00 -0.00000000000E+00 -0.47967176012E+03  0.47967176013E+03  0.25500000000E-02 0.  1.
    5000001    1    1    2    0    0 -0.79692351997E+02 -0.14095936549E+03 -0.22841477972E+03  0.33949628169E+03  0.19200000000E+03 0.  0.
   -5000001    1    1    2    0    0  0.79692351997E+02  0.14095936549E+03 -0.11513474946E+03  0.27629770940E+03  0.19200000000E+03 0.  0.
<mgrwt>
<rscale>  0 0.51105377E+03</rscale>
<asrwt>0</asrwt>
<pdfrwt beam="1">  1        2 0.68524536E-01 0.51105377E+03</pdfrwt>
<pdfrwt beam="2">  1       -2 0.19446033E-01 0.51105377E+03</pdfrwt>
<totfact> 0.15740020E+03</totfact>
</mgrwt>
</event>
<event>
 4    1  0.2892809E-005  0.6797007E+03  0.7818608E-02  0.9752591E-01
         -2   -1    0    0    0  501 -0.00000000000E+00  0.00000000000E+00  0.38271327289E+02  0.38271327374E+02  0.25500000000E-02 0. -1.
          2   -1    0    0  501    0  0.00000000000E+00 -0.00000000000E+00 -0.30178792721E+04  0.30178792721E+04  0.25500000000E-02 0.  1.
    5000001    1    1    2    0    0 -0.15967830185E+03  0.22942168386E+03 -0.15906234607E+04  0.16263697190E+04  0.19200000000E+03 0.  0.
   -5000001    1    1    2    0    0  0.15967830185E+03 -0.22942168386E+03 -0.13889844841E+04  0.14297808805E+04  0.19200000000E+03 0.  0.
<mgrwt>
<rscale>  0 0.67970066E+03</rscale>
<asrwt>0</asrwt>
<pdfrwt beam="1">  1        2 0.43112546E+00 0.67970066E+03</pdfrwt>
<pdfrwt beam="2">  1       -2 0.54673344E-02 0.67970066E+03</pdfrwt>
<totfact> 0.43694645E+02</totfact>
</mgrwt>
</event>
<event>
 4    1  0.2892809E-005  0.5916869E+03  0.7818608E-02  0.9922805E-01
          2   -1    0    0  501    0  0.00000000000E+00  0.00000000000E+00  0.25476561419E+04  0.25476561419E+04  0.25500000000E-02 0.  1.
         -2   -1    0    0    0  501 -0.00000000000E+00 -0.00000000000E+00 -0.34354463600E+02  0.34354463694E+02  0.25500000000E-02 0. -1.
    5000001    1    1    2    0    0 -0.19740587993E+03 -0.10794075719E+03  0.12839279186E+04  0.13175565220E+04  0.19200000000E+03 0.  0.
   -5000001    1    1    2    0    0  0.19740587993E+03  0.10794075719E+03  0.12293737596E+04  0.12644540836E+04  0.19200000000E+03 0.  0.
<mgrwt>
<rscale>  0 0.59168695E+03</rscale>
<asrwt>0</asrwt>
<pdfrwt beam="1">  1        2 0.36395091E+00 0.59168695E+03</pdfrwt>
<pdfrwt beam="2">  1       -2 0.49077800E-02 0.59168695E+03</pdfrwt>
<totfact> 0.92446581E+02</totfact>
</mgrwt>
</event>
<event>
 4    1  0.2892809E-005  0.7965949E+03  0.7818608E-02  0.9564959E-01
          2   -1    0    0  501    0  0.00000000000E+00  0.00000000000E+00  0.16741948265E+04  0.16741948265E+04  0.25500000000E-02 0. -1.
         -2   -1    0    0    0  501 -0.00000000000E+00 -0.00000000000E+00 -0.94756508211E+02  0.94756508245E+02  0.25500000000E-02 0.  1.
    5000001    1    1    2    0    0  0.32546770144E+03 -0.19654908185E+02  0.10658415291E+04  0.11310162268E+04  0.19200000000E+03 0.  0.
   -5000001    1    1    2    0    0 -0.32546770144E+03  0.19654908185E+02  0.51359678914E+03  0.63793510791E+03  0.19200000000E+03 0.  0.
<mgrwt>
<rscale>  0 0.79659489E+03</rscale>
<asrwt>0</asrwt>
<pdfrwt beam="1">  1        2 0.23917066E+00 0.79659489E+03</pdfrwt>
<pdfrwt beam="2">  1       -2 0.13536646E-01 0.79659489E+03</pdfrwt>
<totfact> 0.49784067E+02</totfact>
</mgrwt>
</event>
<event>
 4    1  0.2892809E-005  0.5227043E+03  0.7818608E-02  0.1008017E+00
          2   -1    0    0  501    0  0.00000000000E+00  0.00000000000E+00  0.65496204398E+03  0.65496204398E+03  0.25500000000E-02 0. -1.
         -2   -1    0    0    0  501 -0.00000000000E+00 -0.00000000000E+00 -0.10428839953E+03  0.10428839956E+03  0.25500000000E-02 0.  1.
    5000001    1    1    2    0    0 -0.15204979915E+03  0.31027148364E+02  0.15072998479E+03  0.28924963902E+03  0.19200000000E+03 0.  0.
   -5000001    1    1    2    0    0  0.15204979915E+03 -0.31027148364E+02  0.39994365966E+03  0.47000080453E+03  0.19200000000E+03 0.  0.
<mgrwt>
<rscale>  0 0.52270429E+03</rscale>
<asrwt>0</asrwt>
<pdfrwt beam="1">  1        2 0.93566008E-01 0.52270429E+03</pdfrwt>
<pdfrwt beam="2">  1       -2 0.14898343E-01 0.52270429E+03</pdfrwt>
<totfact> 0.17277831E+03</totfact>
</mgrwt>
</event>
<event>
 4    1  0.2892809E-005  0.4397373E+03  0.7818608E-02  0.1030827E+00
          2   -1    0    0  501    0  0.00000000000E+00  0.00000000000E+00  0.50128488865E+03  0.50128488865E+03  0.25500000000E-02 0.  1.
         -2   -1    0    0    0  501 -0.00000000000E+00 -0.00000000000E+00 -0.96436606241E+02  0.96436606275E+02  0.25500000000E-02 0. -1.
    5000001    1    1    2    0    0  0.79883183925E+02  0.38936667292E+01  0.29932137830E+03  0.36449111268E+03  0.19200000000E+03 0.  0.
   -5000001    1    1    2    0    0 -0.79883183925E+02 -0.38936667292E+01  0.10552690411E+03  0.23323038225E+03  0.19200000000E+03 0.  0.
<mgrwt>
<rscale>  0 0.43973726E+03</rscale>
<asrwt>0</asrwt>
<pdfrwt beam="1">  1        2 0.71612127E-01 0.43973726E+03</pdfrwt>
<pdfrwt beam="2">  1       -2 0.13776658E-01 0.43973726E+03</pdfrwt>
<totfact> 0.26801340E+03</totfact>
</mgrwt>
</event>
<event>
 4    1  0.2892809E-005  0.6061074E+03  0.7818608E-02  0.9892815E-01
          2   -1    0    0  501    0  0.00000000000E+00  0.00000000000E+00  0.18794412412E+03  0.18794412414E+03  0.25500000000E-02 0.  1.
         -2   -1    0    0    0  501 -0.00000000000E+00 -0.00000000000E+00 -0.48866413997E+03  0.48866413997E+03  0.25500000000E-02 0. -1.
    5000001    1    1    2    0    0  0.20829209045E+03  0.93368233305E+02 -0.21020890408E+03  0.36490410424E+03  0.19200000000E+03 0.  0.
   -5000001    1    1    2    0    0 -0.20829209045E+03 -0.93368233305E+02 -0.90511111762E+02  0.31170415988E+03  0.19200000000E+03 0.  0.
<mgrwt>
<rscale>  0 0.60610743E+03</rscale>
<asrwt>0</asrwt>
<pdfrwt beam="1">  1        2 0.26849161E-01 0.60610743E+03</pdfrwt>
<pdfrwt beam="2">  1       -2 0.69809162E-01 0.60610743E+03</pdfrwt>
<totfact> 0.38120982E+02</totfact>
</mgrwt>
</event>
<event>
 4    1  0.2892809E-005  0.7525336E+03  0.7818608E-02  0.9631384E-01
         -2   -1    0    0    0  501 -0.00000000000E+00  0.00000000000E+00  0.62896194309E+02  0.62896194361E+02  0.25500000000E-02 0. -1.
          2   -1    0    0  501    0  0.00000000000E+00 -0.00000000000E+00 -0.22509584806E+04  0.22509584806E+04  0.25500000000E-02 0.  1.
    5000001    1    1    2    0    0  0.60246985033E+02  0.30883416018E+03 -0.13262611596E+04  0.13765322013E+04  0.19200000000E+03 0.  0.
   -5000001    1    1    2    0    0 -0.60246985033E+02 -0.30883416018E+03 -0.86180112665E+03  0.93732247364E+03  0.19200000000E+03 0.  0.
<mgrwt>
<rscale>  0 0.75253365E+03</rscale>
<asrwt>0</asrwt>
<pdfrwt beam="1">  1        2 0.32156545E+00 0.75253365E+03</pdfrwt>
<pdfrwt beam="2">  1       -2 0.89851721E-02 0.75253365E+03</pdfrwt>
<totfact> 0.49838491E+02</totfact>
</mgrwt>
</event>
<event>
 4    1  0.2892809E-005  0.4974856E+03  0.7818608E-02  0.1014437E+00
         -2   -1    0    0    0  501 -0.00000000000E+00  0.00000000000E+00  0.57375872358E+02  0.57375872414E+02  0.25500000000E-02 0. -1.
          2   -1    0    0  501    0  0.00000000000E+00 -0.00000000000E+00 -0.10783797009E+04  0.10783797009E+04  0.25500000000E-02 0.  1.
    5000001    1    1    2    0    0 -0.52958683446E+02  0.90475432698E+02 -0.24019576491E+03  0.32488218104E+03  0.19200000000E+03 0.  0.
   -5000001    1    1    2    0    0  0.52958683446E+02 -0.90475432698E+02 -0.78080806359E+03  0.81087339224E+03  0.19200000000E+03 0.  0.
<mgrwt>
<rscale>  0 0.49748558E+03</rscale>
<asrwt>0</asrwt>
<pdfrwt beam="1">  1        2 0.15405423E+00 0.49748558E+03</pdfrwt>
<pdfrwt beam="2">  1       -2 0.81965538E-02 0.49748558E+03</pdfrwt>
<totfact> 0.23897746E+03</totfact>
</mgrwt>
</event>
<event>
 4    1  0.2892809E-005  0.8421809E+03  0.7818608E-02  0.9500892E-01
         -2   -1    0    0    0  501 -0.00000000000E+00  0.00000000000E+00  0.33756986356E+03  0.33756986357E+03  0.25500000000E-02 0. -1.
          2   -1    0    0  501    0  0.00000000000E+00 -0.00000000000E+00 -0.52527552629E+03  0.52527552630E+03  0.25500000000E-02 0.  1.
    5000001    1    1    2    0    0  0.36510235157E+03  0.20584927770E+02 -0.17790058530E+03  0.44970666508E+03  0.19200000000E+03 0.  0.
   -5000001    1    1    2    0    0 -0.36510235157E+03 -0.20584927770E+02 -0.98050774376E+01  0.41313872478E+03  0.19200000000E+03 0.  0.
<mgrwt>
<rscale>  0 0.84218095E+03</rscale>
<asrwt>0</asrwt>
<pdfrwt beam="1">  1        2 0.75039360E-01 0.84218095E+03</pdfrwt>
<pdfrwt beam="2">  1       -2 0.48224266E-01 0.84218095E+03</pdfrwt>
<totfact> 0.25959582E+02</totfact>
</mgrwt>
</event>
<event>
 4    1  0.2892809E-005  0.4992575E+03  0.7818608E-02  0.1013973E+00
          2   -1    0    0  501    0  0.00000000000E+00  0.00000000000E+00  0.38131221525E+03  0.38131221526E+03  0.25500000000E-02 0.  1.
         -2   -1    0    0    0  501 -0.00000000000E+00 -0.00000000000E+00 -0.16342123728E+03  0.16342123730E+03  0.25500000000E-02 0. -1.
    5000001    1    1    2    0    0 -0.14320383637E+03  0.34253048069E+02  0.17593774265E+03  0.29916333221E+03  0.19200000000E+03 0.  0.
   -5000001    1    1    2    0    0  0.14320383637E+03 -0.34253048069E+02  0.41953235320E+02  0.24557012034E+03  0.19200000000E+03 0.  0.
<mgrwt>
<rscale>  0 0.49925750E+03</rscale>
<asrwt>0</asrwt>
<pdfrwt beam="1">  1        2 0.54473174E-01 0.49925750E+03</pdfrwt>
<pdfrwt beam="2">  1       -2 0.23345891E-01 0.49925750E+03</pdfrwt>
<totfact> 0.14753850E+03</totfact>
</mgrwt>
</event>
<event>
 4    1  0.2892809E-005  0.1130706E+04  0.7818608E-02  0.9175770E-01
          2   -1    0    0  501    0  0.00000000000E+00  0.00000000000E+00  0.11061941766E+04  0.11061941766E+04  0.25500000000E-02 0.  1.
         -2   -1    0    0    0  501 -0.00000000000E+00 -0.00000000000E+00 -0.28894036477E+03  0.28894036478E+03  0.25500000000E-02 0. -1.
    5000001    1    1    2    0    0  0.37565308719E+03 -0.31044104164E+02 -0.54163439247E+02  0.42646999481E+03  0.19200000000E+03 0.  0.
   -5000001    1    1    2    0    0 -0.37565308719E+03  0.31044104164E+02  0.87141725107E+03  0.96866454657E+03  0.19200000000E+03 0.  0.
<mgrwt>
<rscale>  0 0.11307062E+04</rscale>
<asrwt>0</asrwt>
<pdfrwt beam="1">  1        2 0.15802774E+00 0.11307062E+04</pdfrwt>
<pdfrwt beam="2">  1       -2 0.41277194E-01 0.11307062E+04</pdfrwt>
<totfact> 0.13336107E+02</totfact>
</mgrwt>
</event>
<event>
 4    1  0.2892809E-005  0.5204767E+03  0.7818608E-02  0.1008568E+00
         -2   -1    0    0    0  501 -0.00000000000E+00  0.00000000000E+00  0.59973925685E+02  0.59973925739E+02  0.25500000000E-02 0. -1.
          2   -1    0    0  501    0  0.00000000000E+00 -0.00000000000E+00 -0.11292240140E+04  0.11292240140E+04  0.25500000000E-02 0.  1.
    5000001    1    1    2    0    0  0.12851581619E+03  0.54116435468E+02 -0.77873899427E+03  0.81409048931E+03  0.19200000000E+03 0.  0.
   -5000001    1    1    2    0    0 -0.12851581619E+03 -0.54116435468E+02 -0.29051109403E+03  0.37510745041E+03  0.19200000000E+03 0.  0.
<mgrwt>
<rscale>  0 0.52047669E+03</rscale>
<asrwt>0</asrwt>
<pdfrwt beam="1">  1        2 0.16131770E+00 0.52047669E+03</pdfrwt>
<pdfrwt beam="2">  1       -2 0.85677043E-02 0.52047669E+03</pdfrwt>
<totfact> 0.20810628E+03</totfact>
</mgrwt>
</event>
<event>
 4    1  0.2892809E-005  0.7908932E+03  0.7818608E-02  0.9573293E-01
          2   -1    0    0  501    0  0.00000000000E+00  0.00000000000E+00  0.11948428833E+04  0.11948428834E+04  0.25500000000E-02 0.  1.
         -2   -1    0    0    0  501 -0.00000000000E+00 -0.00000000000E+00 -0.13087747505E+03  0.13087747507E+03  0.25500000000E-02 0. -1.
    5000001    1    1    2    0    0 -0.28669534942E+03  0.54567634872E+02  0.22134945508E+03  0.41355946539E+03  0.19200000000E+03 0.  0.
   -5000001    1    1    2    0    0  0.28669534942E+03 -0.54567634872E+02  0.84261595322E+03  0.91216089303E+03  0.19200000000E+03 0.  0.
<mgrwt>
<rscale>  0 0.79089322E+03</rscale>
<asrwt>0</asrwt>
<pdfrwt beam="1">  1        2 0.17069184E+00 0.79089322E+03</pdfrwt>
<pdfrwt beam="2">  1       -2 0.18696783E-01 0.79089322E+03</pdfrwt>
<totfact> 0.51857770E+02</totfact>
</mgrwt>
</event>
<event>
 4    1  0.2892809E-005  0.8028456E+03  0.7818608E-02  0.9555907E-01
          2   -1    0    0  501    0  0.00000000000E+00  0.00000000000E+00  0.13778527413E+04  0.13778527413E+04  0.25500000000E-02 0.  1.
         -2   -1    0    0    0  501 -0.00000000000E+00 -0.00000000000E+00 -0.11695028700E+03  0.11695028703E+03  0.25500000000E-02 0. -1.
    5000001    1    1    2    0    0  0.78060833543E+02  0.20301381705E+03  0.11469954460E+04  0.11831190374E+04  0.19200000000E+03 0.  0.
   -5000001    1    1    2    0    0 -0.78060833543E+02 -0.20301381705E+03  0.11390700835E+03  0.31168399093E+03  0.19200000000E+03 0.  0.
<mgrwt>
<rscale>  0 0.80284562E+03</rscale>
<asrwt>0</asrwt>
<pdfrwt beam="1">  1        2 0.19683610E+00 0.80284562E+03</pdfrwt>
<pdfrwt beam="2">  1       -2 0.16707184E-01 0.80284562E+03</pdfrwt>
<totfact> 0.49867686E+02</totfact>
</mgrwt>
</event>
<event>
 4    1  0.2892809E-005  0.4551094E+03  0.7818608E-02  0.1026209E+00
         -2   -1    0    0    0  501 -0.00000000000E+00  0.00000000000E+00  0.15640795131E+02  0.15640795339E+02  0.25500000000E-02 0. -1.
          2   -1    0    0  501    0  0.00000000000E+00 -0.00000000000E+00 -0.33106468841E+04  0.33106468841E+04  0.25500000000E-02 0.  1.
    5000001    1    1    2    0    0 -0.10097818313E+03 -0.49276824438E+01 -0.11466380243E+04  0.11669891320E+04  0.19200000000E+03 0.  0.
   -5000001    1    1    2    0    0  0.10097818313E+03  0.49276824438E+01 -0.21483680647E+04  0.21592985474E+04  0.19200000000E+03 0.  0.
<mgrwt>
<rscale>  0 0.45510944E+03</rscale>
<asrwt>0</asrwt>
<pdfrwt beam="1">  1        2 0.47294911E+00 0.45510944E+03</pdfrwt>
<pdfrwt beam="2">  1       -2 0.22344014E-02 0.45510944E+03</pdfrwt>
<totfact> 0.12041569E+03</totfact>
</mgrwt>
</event>
<event>
 4    1  0.2892809E-005  0.7104566E+03  0.7818608E-02  0.9699515E-01
         -2   -1    0    0    0  501 -0.00000000000E+00  0.00000000000E+00  0.21413070065E+03  0.21413070067E+03  0.25500000000E-02 0. -1.
          2   -1    0    0  501    0  0.00000000000E+00 -0.00000000000E+00 -0.58929967966E+03  0.58929967967E+03  0.25500000000E-02 0.  1.
    5000001    1    1    2    0    0 -0.69587254266E+02  0.28946339073E+03 -0.15784225580E+03  0.38782678898E+03  0.19200000000E+03 0.  0.
   -5000001    1    1    2    0    0  0.69587254266E+02 -0.28946339073E+03 -0.21732672321E+03  0.41560359136E+03  0.19200000000E+03 0.  0.
<mgrwt>
<rscale>  0 0.71045662E+03</rscale>
<asrwt>0</asrwt>
<pdfrwt beam="1">  1        2 0.84185668E-01 0.71045662E+03</pdfrwt>
<pdfrwt beam="2">  1       -2 0.30590100E-01 0.71045662E+03</pdfrwt>
<totfact> 0.55039097E+02</totfact>
</mgrwt>
</event>
<event>
 4    1  0.2892809E-005  0.1223811E+04  0.7818608E-02  0.9092266E-01
          2   -1    0    0  501    0  0.00000000000E+00  0.00000000000E+00  0.89190341824E+03  0.89190341825E+03  0.25500000000E-02 0.  1.
         -2   -1    0    0    0  501 -0.00000000000E+00 -0.00000000000E+00 -0.41980827899E+03  0.41980827899E+03  0.25500000000E-02 0. -1.
    5000001    1    1    2    0    0  0.48210566922E+03 -0.27945667547E+03  0.59790057255E+02  0.59241941284E+03  0.19200000000E+03 0.  0.
   -5000001    1    1    2    0    0 -0.48210566922E+03  0.27945667547E+03  0.41230508200E+03  0.71929228440E+03  0.19200000000E+03 0.  0.
<mgrwt>
<rscale>  0 0.12238112E+04</rscale>
<asrwt>0</asrwt>
<pdfrwt beam="1">  1        2 0.12741477E+00 0.12238112E+04</pdfrwt>
<pdfrwt beam="2">  1       -2 0.59972612E-01 0.12238112E+04</pdfrwt>
<totfact> 0.84143691E+01</totfact>
</mgrwt>
</event>
<event>
 4    1  0.2892809E-005  0.4586168E+03  0.7818608E-02  0.1025183E+00
         -2   -1    0    0    0  501 -0.00000000000E+00  0.00000000000E+00  0.35067473086E+02  0.35067473178E+02  0.25500000000E-02 0. -1.
          2   -1    0    0  501    0  0.00000000000E+00 -0.00000000000E+00 -0.14994619865E+04  0.14994619865E+04  0.25500000000E-02 0.  1.
    5000001    1    1    2    0    0  0.10317806051E+03 -0.70076629850E+02 -0.68962327461E+03  0.72663657154E+03  0.19200000000E+03 0.  0.
   -5000001    1    1    2    0    0 -0.10317806051E+03  0.70076629850E+02 -0.77477123880E+03  0.80789288813E+03  0.19200000000E+03 0.  0.
<mgrwt>
<rscale>  0 0.45861680E+03</rscale>
<asrwt>0</asrwt>
<pdfrwt beam="1">  1        2 0.21420881E+00 0.45861680E+03</pdfrwt>
<pdfrwt beam="2">  1       -2 0.50096400E-02 0.45861680E+03</pdfrwt>
<totfact> 0.30479464E+03</totfact>
</mgrwt>
</event>
<event>
 4    1  0.2892809E-005  0.7267300E+03  0.7818608E-02  0.9672582E-01
          2   -1    0    0  501    0  0.00000000000E+00  0.00000000000E+00  0.13753875600E+04  0.13753875600E+04  0.25500000000E-02 0.  1.
         -2   -1    0    0    0  501 -0.00000000000E+00 -0.00000000000E+00 -0.95997754058E+02  0.95997754092E+02  0.25500000000E-02 0. -1.
    5000001    1    1    2    0    0 -0.27599914869E+03 -0.93598805282E+02  0.84451514239E+03  0.91378667760E+03  0.19200000000E+03 0.  0.
   -5000001    1    1    2    0    0  0.27599914869E+03  0.93598805282E+02  0.43487466357E+03  0.55759863652E+03  0.19200000000E+03 0.  0.
<mgrwt>
<rscale>  0 0.72672998E+03</rscale>
<asrwt>0</asrwt>
<pdfrwt beam="1">  1        2 0.19648393E+00 0.72672998E+03</pdfrwt>
<pdfrwt beam="2">  1       -2 0.13713965E-01 0.72672998E+03</pdfrwt>
<totfact> 0.70117555E+02</totfact>
</mgrwt>
</event>
<event>
 4    1  0.2892809E-005  0.4989415E+03  0.7818608E-02  0.1014056E+00
         -2   -1    0    0    0  501 -0.00000000000E+00  0.00000000000E+00  0.20834748623E+03  0.20834748624E+03  0.25500000000E-02 0. -1.
          2   -1    0    0  501    0  0.00000000000E+00 -0.00000000000E+00 -0.29871085919E+03  0.29871085920E+03  0.25500000000E-02 0.  1.
    5000001    1    1    2    0    0  0.59048176190E+02  0.14284482787E+03 -0.84282589686E+02  0.26049738364E+03  0.19200000000E+03 0.  0.
   -5000001    1    1    2    0    0 -0.59048176190E+02 -0.14284482787E+03 -0.60807832788E+01  0.24656096180E+03  0.19200000000E+03 0.  0.
<mgrwt>
<rscale>  0 0.49894151E+03</rscale>
<asrwt>0</asrwt>
<pdfrwt beam="1">  1        2 0.42672980E-01 0.49894151E+03</pdfrwt>
<pdfrwt beam="2">  1       -2 0.29763927E-01 0.49894151E+03</pdfrwt>
<totfact> 0.12450687E+03</totfact>
</mgrwt>
</event>
<event>
 4    1  0.2892809E-005  0.4406201E+03  0.7818608E-02  0.1030557E+00
         -2   -1    0    0    0  501 -0.00000000000E+00  0.00000000000E+00  0.23302397268E+02  0.23302397408E+02  0.25500000000E-02 0. -1.
          2   -1    0    0  501    0  0.00000000000E+00 -0.00000000000E+00 -0.20828984361E+04  0.20828984361E+04  0.25500000000E-02 0.  1.
    5000001    1    1    2    0    0  0.10618256382E+03 -0.19769529116E+02 -0.10171910681E+04  0.10407724248E+04  0.19200000000E+03 0.  0.
   -5000001    1    1    2    0    0 -0.10618256382E+03  0.19769529116E+02 -0.10424049707E+04  0.10654284087E+04  0.19200000000E+03 0.  0.
<mgrwt>
<rscale>  0 0.44062014E+03</rscale>
<asrwt>0</asrwt>
<pdfrwt beam="1">  1        2 0.29755680E+00 0.44062014E+03</pdfrwt>
<pdfrwt beam="2">  1       -2 0.33289152E-02 0.44062014E+03</pdfrwt>
<totfact> 0.28995857E+03</totfact>
</mgrwt>
</event>
<event>
 4    1  0.2892809E-005  0.1189286E+04  0.7818608E-02  0.9122287E-01
          2   -1    0    0  501    0  0.00000000000E+00  0.00000000000E+00  0.88130473449E+03  0.88130473450E+03  0.25500000000E-02 0. -1.
         -2   -1    0    0    0  501 -0.00000000000E+00 -0.00000000000E+00 -0.40122338932E+03  0.40122338933E+03  0.25500000000E-02 0.  1.
    5000001    1    1    2    0    0  0.31410881322E+03 -0.17162985658E+03  0.70838875767E+03  0.81657809559E+03  0.19200000000E+03 0.  0.
   -5000001    1    1    2    0    0 -0.31410881322E+03  0.17162985658E+03 -0.22830741249E+03  0.46595002823E+03  0.19200000000E+03 0.  0.
<mgrwt>
<rscale>  0 0.11892856E+04</rscale>
<asrwt>0</asrwt>
<pdfrwt beam="1">  1        2 0.12590068E+00 0.11892856E+04</pdfrwt>
<pdfrwt beam="2">  1       -2 0.57317627E-01 0.11892856E+04</pdfrwt>
<totfact> 0.94263221E+01</totfact>
</mgrwt>
</event>
<event>
 4    1  0.2892809E-005  0.8135102E+03  0.7818608E-02  0.9540665E-01
          2   -1    0    0  501    0  0.00000000000E+00  0.00000000000E+00  0.79654795773E+03  0.79654795773E+03  0.25500000000E-02 0.  1.
         -2   -1    0    0    0  501 -0.00000000000E+00 -0.00000000000E+00 -0.20770841020E+03  0.20770841022E+03  0.25500000000E-02 0. -1.
    5000001    1    1    2    0    0 -0.85274166509E+02  0.27902299963E+03  0.55177169491E+03  0.65302490083E+03  0.19200000000E+03 0.  0.
   -5000001    1    1    2    0    0  0.85274166509E+02 -0.27902299963E+03  0.37067852615E+02  0.35123146712E+03  0.19200000000E+03 0.  0.
<mgrwt>
<rscale>  0 0.81351020E+03</rscale>
<asrwt>0</asrwt>
<pdfrwt beam="1">  1        2 0.11379257E+00 0.81351020E+03</pdfrwt>
<pdfrwt beam="2">  1       -2 0.29672630E-01 0.81351020E+03</pdfrwt>
<totfact> 0.40093051E+02</totfact>
</mgrwt>
</event>
<event>
 4    1  0.2892809E-005  0.5021305E+03  0.7818608E-02  0.1013224E+00
          2   -1    0    0  501    0  0.00000000000E+00  0.00000000000E+00  0.12601038936E+04  0.12601038936E+04  0.25500000000E-02 0.  1.
         -2   -1    0    0    0  501 -0.00000000000E+00 -0.00000000000E+00 -0.50022664949E+02  0.50022665014E+02  0.25500000000E-02 0. -1.
    5000001    1    1    2    0    0  0.11929463696E+03  0.75508971945E+02  0.81109527251E+03  0.84538296430E+03  0.19200000000E+03 0.  0.
   -5000001    1    1    2    0    0 -0.11929463696E+03 -0.75508971945E+02  0.39898595611E+03  0.46474359428E+03  0.19200000000E+03 0.  0.
<mgrwt>
<rscale>  0 0.50213048E+03</rscale>
<asrwt>0</asrwt>
<pdfrwt beam="1">  1        2 0.18001487E+00 0.50213048E+03</pdfrwt>
<pdfrwt beam="2">  1       -2 0.71460939E-02 0.50213048E+03</pdfrwt>
<totfact> 0.23455716E+03</totfact>
</mgrwt>
</event>
<event>
 4    1  0.2892809E-005  0.5220825E+03  0.7818608E-02  0.1008171E+00
         -2   -1    0    0    0  501 -0.00000000000E+00  0.00000000000E+00  0.39268825147E+03  0.39268825147E+03  0.25500000000E-02 0. -1.
          2   -1    0    0  501    0  0.00000000000E+00 -0.00000000000E+00 -0.17352829318E+03  0.17352829320E+03  0.25500000000E-02 0.  1.
    5000001    1    1    2    0    0 -0.49896258995E+02 -0.16699061415E+03  0.76989392261E+02  0.27049374927E+03  0.19200000000E+03 0.  0.
   -5000001    1    1    2    0    0  0.49896258995E+02  0.16699061415E+03  0.14217056602E+03  0.29572279540E+03  0.19200000000E+03 0.  0.
<mgrwt>
<rscale>  0 0.52208245E+03</rscale>
<asrwt>0</asrwt>
<pdfrwt beam="1">  1        2 0.24789757E-01 0.52208245E+03</pdfrwt>
<pdfrwt beam="2">  1       -2 0.56098321E-01 0.52208245E+03</pdfrwt>
<totfact> 0.66430499E+02</totfact>
</mgrwt>
</event>
<event>
 4    1  0.2892809E-005  0.8934093E+03  0.7818608E-02  0.9433858E-01
         -2   -1    0    0    0  501 -0.00000000000E+00  0.00000000000E+00  0.20959887895E+03  0.20959887896E+03  0.25500000000E-02 0. -1.
          2   -1    0    0  501    0  0.00000000000E+00 -0.00000000000E+00 -0.95203292997E+03  0.95203292997E+03  0.25500000000E-02 0.  1.
    5000001    1    1    2    0    0 -0.28777466449E+03  0.79930689679E+02 -0.72366603404E+03  0.80607673425E+03  0.19200000000E+03 0.  0.
   -5000001    1    1    2    0    0  0.28777466449E+03 -0.79930689679E+02 -0.18768016981E+02  0.35555507469E+03  0.19200000000E+03 0.  0.
<mgrwt>
<rscale>  0 0.89340928E+03</rscale>
<asrwt>0</asrwt>
<pdfrwt beam="1">  1        2 0.13600470E+00 0.89340928E+03</pdfrwt>
<pdfrwt beam="2">  1       -2 0.29942698E-01 0.89340928E+03</pdfrwt>
<totfact> 0.30968058E+02</totfact>
</mgrwt>
</event>
<event>
 4    1  0.2892809E-005  0.8926789E+03  0.7818608E-02  0.9434780E-01
          2   -1    0    0  501    0  0.00000000000E+00  0.00000000000E+00  0.56845114612E+03  0.56845114612E+03  0.25500000000E-02 0.  1.
         -2   -1    0    0    0  501 -0.00000000000E+00 -0.00000000000E+00 -0.35045916495E+03  0.35045916496E+03  0.25500000000E-02 0. -1.
    5000001    1    1    2    0    0 -0.30637889884E+03 -0.25275717009E+03  0.39174410126E+02  0.44289146650E+03  0.19200000000E+03 0.  0.
   -5000001    1    1    2    0    0  0.30637889884E+03  0.25275717009E+03  0.17881757104E+03  0.47601884458E+03  0.19200000000E+03 0.  0.
<mgrwt>
<rscale>  0 0.89267892E+03</rscale>
<asrwt>0</asrwt>
<pdfrwt beam="1">  1        2 0.81207306E-01 0.89267892E+03</pdfrwt>
<pdfrwt beam="2">  1       -2 0.50065595E-01 0.89267892E+03</pdfrwt>
<totfact> 0.21897158E+02</totfact>
</mgrwt>
</event>
<event>
 4    1  0.2892809E-005  0.5132493E+03  0.7818608E-02  0.1010377E+00
         -2   -1    0    0    0  501 -0.00000000000E+00  0.00000000000E+00  0.25821261007E+03  0.25821261008E+03  0.25500000000E-02 0. -1.
          2   -1    0    0  501    0  0.00000000000E+00 -0.00000000000E+00 -0.25504648489E+03  0.25504648491E+03  0.25500000000E-02 0.  1.
    5000001    1    1    2    0    0 -0.38148691325E+02  0.11206898038E+03 -0.12080161577E+03  0.25587459699E+03  0.19200000000E+03 0.  0.
   -5000001    1    1    2    0    0  0.38148691325E+02 -0.11206898038E+03  0.12396774095E+03  0.25738449800E+03  0.19200000000E+03 0.  0.
<mgrwt>
<rscale>  0 0.51324933E+03</rscale>
<asrwt>0</asrwt>
<pdfrwt beam="1">  1        2 0.36435212E-01 0.51324933E+03</pdfrwt>
<pdfrwt beam="2">  1       -2 0.36887516E-01 0.51324933E+03</pdfrwt>
<totfact> 0.99164232E+02</totfact>
</mgrwt>
</event>
<event>
 4    1  0.2892809E-005  0.5322735E+03  0.7818608E-02  0.1005682E+00
          2   -1    0    0  501    0  0.00000000000E+00  0.00000000000E+00  0.19961040297E+03  0.19961040299E+03  0.25500000000E-02 0.  1.
         -2   -1    0    0    0  501 -0.00000000000E+00 -0.00000000000E+00 -0.35483508283E+03  0.35483508284E+03  0.25500000000E-02 0. -1.
    5000001    1    1    2    0    0 -0.19495561457E+02  0.18304244719E+03 -0.86938470087E+02  0.27983372200E+03  0.19200000000E+03 0.  0.
   -5000001    1    1    2    0    0  0.19495561457E+02 -0.18304244719E+03 -0.68286209772E+02  0.27461176383E+03  0.19200000000E+03 0.  0.
<mgrwt>
<rscale>  0 0.53227352E+03</rscale>
<asrwt>0</asrwt>
<pdfrwt beam="1">  1        2 0.28515772E-01 0.53227352E+03</pdfrwt>
<pdfrwt beam="2">  1       -2 0.50690726E-01 0.53227352E+03</pdfrwt>
<totfact> 0.69761318E+02</totfact>
</mgrwt>
</event>
<event>
 4    1  0.2892809E-005  0.7406096E+03  0.7818608E-02  0.9650199E-01
         -2   -1    0    0    0  501 -0.00000000000E+00  0.00000000000E+00  0.13462520069E+03  0.13462520072E+03  0.25500000000E-02 0. -1.
          2   -1    0    0  501    0  0.00000000000E+00 -0.00000000000E+00 -0.10185732716E+04  0.10185732716E+04  0.25500000000E-02 0.  1.
    5000001    1    1    2    0    0 -0.15322101413E+03  0.12033205896E+03 -0.83064017564E+03  0.87451905924E+03  0.19200000000E+03 0.  0.
   -5000001    1    1    2    0    0  0.15322101413E+03 -0.12033205896E+03 -0.53307895288E+02  0.27867941310E+03  0.19200000000E+03 0.  0.
<mgrwt>
<rscale>  0 0.74060956E+03</rscale>
<asrwt>0</asrwt>
<pdfrwt beam="1">  1        2 0.14551046E+00 0.74060956E+03</pdfrwt>
<pdfrwt beam="2">  1       -2 0.19232172E-01 0.74060956E+03</pdfrwt>
<totfact> 0.62753439E+02</totfact>
</mgrwt>
</event>
<event>
 4    1  0.2892809E-005  0.8423148E+03  0.7818608E-02  0.9500710E-01
          2   -1    0    0  501    0  0.00000000000E+00  0.00000000000E+00  0.19947194594E+04  0.19947194594E+04  0.25500000000E-02 0.  1.
         -2   -1    0    0    0  501 -0.00000000000E+00 -0.00000000000E+00 -0.88921558273E+02  0.88921558309E+02  0.25500000000E-02 0. -1.
    5000001    1    1    2    0    0  0.29717337359E+03  0.22212436092E+03  0.82064652259E+03  0.92085610208E+03  0.19200000000E+03 0.  0.
   -5000001    1    1    2    0    0 -0.29717337359E+03 -0.22212436092E+03  0.10851513785E+04  0.11627849156E+04  0.19200000000E+03 0.  0.
<mgrwt>
<rscale>  0 0.84231482E+03</rscale>
<asrwt>0</asrwt>
<pdfrwt beam="1">  1        2 0.28495991E+00 0.84231482E+03</pdfrwt>
<pdfrwt beam="2">  1       -2 0.12703080E-01 0.84231482E+03</pdfrwt>
<totfact> 0.37888209E+02</totfact>
</mgrwt>
</event>
<event>
 4    1  0.2892809E-005  0.7359881E+03  0.7818608E-02  0.9657593E-01
          2   -1    0    0  501    0  0.00000000000E+00  0.00000000000E+00  0.64582506471E+03  0.64582506471E+03  0.25500000000E-02 0.  1.
         -2   -1    0    0    0  501 -0.00000000000E+00 -0.00000000000E+00 -0.20968467213E+03  0.20968467215E+03  0.25500000000E-02 0. -1.
    5000001    1    1    2    0    0 -0.17331098974E+03  0.11497366558E+03  0.49141865799E+03  0.56710840266E+03  0.19200000000E+03 0.  0.
   -5000001    1    1    2    0    0  0.17331098974E+03 -0.11497366558E+03 -0.55278265419E+02  0.28840133420E+03  0.19200000000E+03 0.  0.
<mgrwt>
<rscale>  0 0.73598809E+03</rscale>
<asrwt>0</asrwt>
<pdfrwt beam="1">  1        2 0.92260724E-01 0.73598809E+03</pdfrwt>
<pdfrwt beam="2">  1       -2 0.29954953E-01 0.73598809E+03</pdfrwt>
<totfact> 0.51273132E+02</totfact>
</mgrwt>
</event>
<event>
 4    1  0.2892809E-005  0.6861379E+03  0.7818608E-02  0.9741236E-01
         -2   -1    0    0    0  501 -0.00000000000E+00  0.00000000000E+00  0.66424143959E+02  0.66424144008E+02  0.25500000000E-02 0. -1.
          2   -1    0    0  501    0  0.00000000000E+00 -0.00000000000E+00 -0.17718902149E+04  0.17718902149E+04  0.25500000000E-02 0.  1.
    5000001    1    1    2    0    0  0.19420681327E+03 -0.18220763035E+03 -0.11195325660E+04  0.11666760789E+04  0.19200000000E+03 0.  0.
   -5000001    1    1    2    0    0 -0.19420681327E+03  0.18220763035E+03 -0.58593350493E+03  0.67163827994E+03  0.19200000000E+03 0.  0.
<mgrwt>
<rscale>  0 0.68613786E+03</rscale>
<asrwt>0</asrwt>
<pdfrwt beam="1">  1        2 0.25312714E+00 0.68613786E+03</pdfrwt>
<pdfrwt beam="2">  1       -2 0.94891645E-02 0.68613786E+03</pdfrwt>
<totfact> 0.80087576E+02</totfact>
</mgrwt>
</event>
<event>
 4    1  0.2892809E-005  0.7695986E+03  0.7818608E-02  0.9605095E-01
          2   -1    0    0  501    0  0.00000000000E+00  0.00000000000E+00  0.15550059102E+04  0.15550059102E+04  0.25500000000E-02 0.  1.
         -2   -1    0    0    0  501 -0.00000000000E+00 -0.00000000000E+00 -0.95221827667E+02  0.95221827702E+02  0.25500000000E-02 0. -1.
    5000001    1    1    2    0    0 -0.23240373768E+02 -0.23343789902E+03  0.22168117338E+03  0.37555280627E+03  0.19200000000E+03 0.  0.
   -5000001    1    1    2    0    0  0.23240373768E+02  0.23343789902E+03  0.12381029091E+04  0.12746749316E+04  0.19200000000E+03 0.  0.
<mgrwt>
<rscale>  0 0.76959861E+03</rscale>
<asrwt>0</asrwt>
<pdfrwt beam="1">  1        2 0.22214369E+00 0.76959861E+03</pdfrwt>
<pdfrwt beam="2">  1       -2 0.13603119E-01 0.76959861E+03</pdfrwt>
<totfact> 0.56999599E+02</totfact>
</mgrwt>
</event>
<event>
 4    1  0.2892809E-005  0.6410963E+03  0.7818608E-02  0.9823631E-01
         -2   -1    0    0    0  501 -0.00000000000E+00  0.00000000000E+00  0.34979202546E+02  0.34979202639E+02  0.25500000000E-02 0. -1.
          2   -1    0    0  501    0  0.00000000000E+00 -0.00000000000E+00 -0.29374914698E+04  0.29374914698E+04  0.25500000000E-02 0.  1.
    5000001    1    1    2    0    0 -0.22951635233E+03  0.55424372903E+02 -0.19180870269E+04  0.19420791590E+04  0.19200000000E+03 0.  0.
   -5000001    1    1    2    0    0  0.22951635233E+03 -0.55424372903E+02 -0.98442524035E+03  0.10303915134E+04  0.19200000000E+03 0.  0.
<mgrwt>
<rscale>  0 0.64109628E+03</rscale>
<asrwt>0</asrwt>
<pdfrwt beam="1">  1        2 0.41964148E+00 0.64109628E+03</pdfrwt>
<pdfrwt beam="2">  1       -2 0.49970308E-02 0.64109628E+03</pdfrwt>
<totfact> 0.55795714E+02</totfact>
</mgrwt>
</event>
<event>
 4    1  0.2892809E-005  0.8379144E+03  0.7818608E-02  0.9506703E-01
         -2   -1    0    0    0  501 -0.00000000000E+00  0.00000000000E+00  0.97044418109E+02  0.97044418143E+02  0.25500000000E-02 0. -1.
          2   -1    0    0  501    0  0.00000000000E+00 -0.00000000000E+00 -0.18087091513E+04  0.18087091513E+04  0.25500000000E-02 0.  1.
    5000001    1    1    2    0    0 -0.15929999799E+02 -0.33953452148E+03 -0.50997622773E+03  0.64224388593E+03  0.19200000000E+03 0.  0.
   -5000001    1    1    2    0    0  0.15929999799E+02  0.33953452148E+03 -0.12016885055E+04  0.12635096835E+04  0.19200000000E+03 0.  0.
<mgrwt>
<rscale>  0 0.83791438E+03</rscale>
<asrwt>0</asrwt>
<pdfrwt beam="1">  1        2 0.25838700E+00 0.83791438E+03</pdfrwt>
<pdfrwt beam="2">  1       -2 0.13863489E-01 0.83791438E+03</pdfrwt>
<totfact> 0.40714340E+02</totfact>
</mgrwt>
</event>
<event>
 4    1  0.2892809E-005  0.4958196E+03  0.7818608E-02  0.1014876E+00
         -2   -1    0    0    0  501 -0.00000000000E+00  0.00000000000E+00  0.31168930890E+02  0.31168930994E+02  0.25500000000E-02 0. -1.
          2   -1    0    0  501    0  0.00000000000E+00 -0.00000000000E+00 -0.19718120562E+04  0.19718120562E+04  0.25500000000E-02 0.  1.
    5000001    1    1    2    0    0  0.12152166948E+03  0.68970863578E+02 -0.12579887998E+04  0.12802047948E+04  0.19200000000E+03 0.  0.
   -5000001    1    1    2    0    0 -0.12152166948E+03 -0.68970863578E+02 -0.68265432552E+03  0.72277619242E+03  0.19200000000E+03 0.  0.
<mgrwt>
<rscale>  0 0.49581962E+03</rscale>
<asrwt>0</asrwt>
<pdfrwt beam="1">  1        2 0.28168736E+00 0.49581962E+03</pdfrwt>
<pdfrwt beam="2">  1       -2 0.44527057E-02 0.49581962E+03</pdfrwt>
<totfact> 0.21091409E+03</totfact>
</mgrwt>
</event>
<event>
 4    1  0.2892809E-005  0.6024807E+03  0.7818608E-02  0.9900273E-01
         -2   -1    0    0    0  501 -0.00000000000E+00  0.00000000000E+00  0.13846141583E+03  0.13846141586E+03  0.25500000000E-02 0.  1.
          2   -1    0    0  501    0  0.00000000000E+00 -0.00000000000E+00 -0.65538660020E+03  0.65538660021E+03  0.25500000000E-02 0. -1.
    5000001    1    1    2    0    0 -0.91092606515E+02 -0.21173644255E+03 -0.22233993800E+03  0.37340223901E+03  0.19200000000E+03 0.  0.
   -5000001    1    1    2    0    0  0.91092606515E+02  0.21173644255E+03 -0.29458524637E+03  0.42044577706E+03  0.19200000000E+03 0.  0.
<mgrwt>
<rscale>  0 0.60248073E+03</rscale>
<asrwt>0</asrwt>
<pdfrwt beam="1">  1        2 0.93626656E-01 0.60248073E+03</pdfrwt>
<pdfrwt beam="2">  1       -2 0.19780203E-01 0.60248073E+03</pdfrwt>
<totfact> 0.10636495E+03</totfact>
</mgrwt>
</event>
<event>
 4    1  0.2892809E-005  0.5651749E+03  0.7818608E-02  0.9980413E-01
         -2   -1    0    0    0  501 -0.00000000000E+00  0.00000000000E+00  0.46609366948E+02  0.46609367018E+02  0.25500000000E-02 0. -1.
          2   -1    0    0  501    0  0.00000000000E+00 -0.00000000000E+00 -0.17132965083E+04  0.17132965083E+04  0.25500000000E-02 0.  1.
    5000001    1    1    2    0    0  0.26089670091E+02 -0.20349338049E+03 -0.92683563124E+03  0.96849290866E+03  0.19200000000E+03 0.  0.
   -5000001    1    1    2    0    0 -0.26089670091E+02  0.20349338049E+03 -0.73985151014E+03  0.79141296669E+03  0.19200000000E+03 0.  0.
<mgrwt>
<rscale>  0 0.56517490E+03</rscale>
<asrwt>0</asrwt>
<pdfrwt beam="1">  1        2 0.24475660E+00 0.56517490E+03</pdfrwt>
<pdfrwt beam="2">  1       -2 0.66584821E-02 0.56517490E+03</pdfrwt>
<totfact> 0.15176179E+03</totfact>
</mgrwt>
</event>
<event>
 4    1  0.2892809E-005  0.4686984E+03  0.7818608E-02  0.1022288E+00
          2   -1    0    0  501    0  0.00000000000E+00  0.00000000000E+00  0.11908357726E+04  0.11908357726E+04  0.25500000000E-02 0.  1.
         -2   -1    0    0    0  501 -0.00000000000E+00 -0.00000000000E+00 -0.46118493584E+02  0.46118493655E+02  0.25500000000E-02 0. -1.
    5000001    1    1    2    0    0  0.11925322192E+03 -0.60731534626E+02  0.54048068853E+03  0.58897625157E+03  0.19200000000E+03 0.  0.
   -5000001    1    1    2    0    0 -0.11925322192E+03  0.60731534626E+02  0.60423659045E+03  0.64797801465E+03  0.19200000000E+03 0.  0.
<mgrwt>
<rscale>  0 0.46869842E+03</rscale>
<asrwt>0</asrwt>
<pdfrwt beam="1">  1        2 0.17011939E+00 0.46869842E+03</pdfrwt>
<pdfrwt beam="2">  1       -2 0.65883566E-02 0.46869842E+03</pdfrwt>
<totfact> 0.29104156E+03</totfact>
</mgrwt>
</event>
<event>
 4    1  0.2892809E-005  0.7729153E+03  0.7818608E-02  0.9600070E-01
          2   -1    0    0  501    0  0.00000000000E+00  0.00000000000E+00  0.29159683625E+04  0.29159683625E+04  0.25500000000E-02 0.  1.
         -2   -1    0    0    0  501 -0.00000000000E+00 -0.00000000000E+00 -0.51217808108E+02  0.51217808172E+02  0.25500000000E-02 0. -1.
    5000001    1    1    2    0    0 -0.92790991409E+02 -0.31728403746E+03  0.16497488918E+04  0.16934623511E+04  0.19200000000E+03 0.  0.
   -5000001    1    1    2    0    0  0.92790991409E+02  0.31728403746E+03  0.12150016626E+04  0.12737238196E+04  0.19200000000E+03 0.  0.
<mgrwt>
<rscale>  0 0.77291528E+03</rscale>
<asrwt>0</asrwt>
<pdfrwt beam="1">  1        2 0.41656702E+00 0.77291528E+03</pdfrwt>
<pdfrwt beam="2">  1       -2 0.73168278E-02 0.77291528E+03</pdfrwt>
<totfact> 0.31083466E+02</totfact>
</mgrwt>
</event>
<event>
 4    1  0.2892809E-005  0.4821504E+03  0.7818608E-02  0.1018546E+00
          2   -1    0    0  501    0  0.00000000000E+00  0.00000000000E+00  0.62669920677E+03  0.62669920677E+03  0.25500000000E-02 0.  1.
         -2   -1    0    0    0  501 -0.00000000000E+00 -0.00000000000E+00 -0.92735478761E+02  0.92735478796E+02  0.25500000000E-02 0. -1.
    5000001    1    1    2    0    0 -0.13195505327E+03 -0.31812768191E+02  0.18761666117E+03  0.30081256598E+03  0.19200000000E+03 0.  0.
   -5000001    1    1    2    0    0  0.13195505327E+03  0.31812768191E+02  0.34634706683E+03  0.41862211959E+03  0.19200000000E+03 0.  0.
<mgrwt>
<rscale>  0 0.48215040E+03</rscale>
<asrwt>0</asrwt>
<pdfrwt beam="1">  1        2 0.89528463E-01 0.48215040E+03</pdfrwt>
<pdfrwt beam="2">  1       -2 0.13247925E-01 0.48215040E+03</pdfrwt>
<totfact> 0.22134001E+03</totfact>
</mgrwt>
</event>
<event>
 4    1  0.2892809E-005  0.7213342E+03  0.7818608E-02  0.9681428E-01
         -2   -1    0    0    0  501 -0.00000000000E+00  0.00000000000E+00  0.52034161005E+02  0.52034161067E+02  0.25500000000E-02 0. -1.
          2   -1    0    0  501    0  0.00000000000E+00 -0.00000000000E+00 -0.24999110410E+04  0.24999110410E+04  0.25500000000E-02 0.  1.
    5000001    1    1    2    0    0 -0.16511898898E+03  0.23587348225E+03 -0.15832693140E+04  0.16206499625E+04  0.19200000000E+03 0.  0.
   -5000001    1    1    2    0    0  0.16511898898E+03 -0.23587348225E+03 -0.86460756598E+03  0.93129523960E+03  0.19200000000E+03 0.  0.
<mgrwt>
<rscale>  0 0.72133425E+03</rscale>
<asrwt>0</asrwt>
<pdfrwt beam="1">  1        2 0.35713007E+00 0.72133425E+03</pdfrwt>
<pdfrwt beam="2">  1       -2 0.74334532E-02 0.72133425E+03</pdfrwt>
<totfact> 0.50477131E+02</totfact>
</mgrwt>
</event>
<event>
 4    1  0.2892809E-005  0.6659912E+03  0.7818608E-02  0.9777227E-01
          2   -1    0    0  501    0  0.00000000000E+00  0.00000000000E+00  0.69401552175E+02  0.69401552222E+02  0.25500000000E-02 0.  1.
         -2   -1    0    0    0  501 -0.00000000000E+00 -0.00000000000E+00 -0.15977463089E+04  0.15977463089E+04  0.25500000000E-02 0. -1.
    5000001    1    1    2    0    0  0.20843035293E+03 -0.74826320688E+02 -0.11598129544E+04  0.11962743329E+04  0.19200000000E+03 0.  0.
   -5000001    1    1    2    0    0 -0.20843035293E+03  0.74826320688E+02 -0.36853180235E+03  0.47087352828E+03  0.19200000000E+03 0.  0.
<mgrwt>
<rscale>  0 0.66599121E+03</rscale>
<asrwt>0</asrwt>
<pdfrwt beam="1">  1        2 0.99145084E-02 0.66599121E+03</pdfrwt>
<pdfrwt beam="2">  1       -2 0.22824945E+00 0.66599121E+03</pdfrwt>
<totfact> 0.60627457E+01</totfact>
</mgrwt>
</event>
<event>
 4    1  0.2892809E-005  0.7255726E+03  0.7818608E-02  0.9674472E-01
         -2   -1    0    0    0  501 -0.00000000000E+00  0.00000000000E+00  0.27455029845E+03  0.27455029846E+03  0.25500000000E-02 0. -1.
          2   -1    0    0  501    0  0.00000000000E+00 -0.00000000000E+00 -0.47937997879E+03  0.47937997879E+03  0.25500000000E-02 0.  1.
    5000001    1    1    2    0    0 -0.21455147616E+03 -0.17224548544E+03 -0.24582740630E+03  0.41592782651E+03  0.19200000000E+03 0.  0.
   -5000001    1    1    2    0    0  0.21455147616E+03  0.17224548544E+03  0.40997725962E+02  0.33800245075E+03  0.19200000000E+03 0.  0.
<mgrwt>
<rscale>  0 0.72557265E+03</rscale>
<asrwt>0</asrwt>
<pdfrwt beam="1">  1        2 0.68482854E-01 0.72557265E+03</pdfrwt>
<pdfrwt beam="2">  1       -2 0.39221471E-01 0.72557265E+03</pdfrwt>
<totfact> 0.43575821E+02</totfact>
</mgrwt>
</event>
<event>
 4    1  0.2892809E-005  0.5025654E+03  0.7818608E-02  0.1013111E+00
          2   -1    0    0  501    0  0.00000000000E+00  0.00000000000E+00  0.57375875598E+03  0.57375875599E+03  0.25500000000E-02 0.  1.
         -2   -1    0    0    0  501 -0.00000000000E+00 -0.00000000000E+00 -0.11005149313E+03  0.11005149315E+03  0.25500000000E-02 0. -1.
    5000001    1    1    2    0    0 -0.15414565668E+03 -0.33663338631E+02  0.18121839924E+03  0.30756822343E+03  0.19200000000E+03 0.  0.
   -5000001    1    1    2    0    0  0.15414565668E+03  0.33663338631E+02  0.28248886362E+03  0.37624202571E+03  0.19200000000E+03 0.  0.
<mgrwt>
<rscale>  0 0.50256545E+03</rscale>
<asrwt>0</asrwt>
<pdfrwt beam="1">  1        2 0.81965538E-01 0.50256545E+03</pdfrwt>
<pdfrwt beam="2">  1       -2 0.15721642E-01 0.50256545E+03</pdfrwt>
<totfact> 0.18442111E+03</totfact>
</mgrwt>
</event>
<event>
 4    1  0.2892809E-005  0.7688378E+03  0.7818608E-02  0.9606252E-01
         -2   -1    0    0    0  501 -0.00000000000E+00  0.00000000000E+00  0.11794074130E+03  0.11794074133E+03  0.25500000000E-02 0. -1.
          2   -1    0    0  501    0  0.00000000000E+00 -0.00000000000E+00 -0.12529842790E+04  0.12529842790E+04  0.25500000000E-02 0.  1.
    5000001    1    1    2    0    0  0.24136627875E+03 -0.66195122988E+01 -0.97652148881E+03  0.10240897014E+04  0.19200000000E+03 0.  0.
   -5000001    1    1    2    0    0 -0.24136627875E+03  0.66195122988E+01 -0.15852204892E+03  0.34683531893E+03  0.19200000000E+03 0.  0.
<mgrwt>
<rscale>  0 0.76883781E+03</rscale>
<asrwt>0</asrwt>
<pdfrwt beam="1">  1        2 0.17899775E+00 0.76883781E+03</pdfrwt>
<pdfrwt beam="2">  1       -2 0.16848678E-01 0.76883781E+03</pdfrwt>
<totfact> 0.57612707E+02</totfact>
</mgrwt>
</event>
<event>
 4    1  0.2892809E-005  0.1159505E+04  0.7818608E-02  0.9149059E-01
         -2   -1    0    0    0  501 -0.00000000000E+00  0.00000000000E+00  0.29634240340E+03  0.29634240341E+03  0.25500000000E-02 0.  1.
          2   -1    0    0  501    0  0.00000000000E+00 -0.00000000000E+00 -0.11342051648E+04  0.11342051648E+04  0.25500000000E-02 0. -1.
    5000001    1    1    2    0    0 -0.17655921860E+03  0.25682482888E+03  0.13573385778E+03  0.39040982384E+03  0.19200000000E+03 0.  0.
   -5000001    1    1    2    0    0  0.17655921860E+03 -0.25682482888E+03 -0.97359661921E+03  0.10401377444E+04  0.19200000000E+03 0.  0.
<mgrwt>
<rscale>  0 0.11595052E+04</rscale>
<asrwt>0</asrwt>
<pdfrwt beam="1">  1        2 0.16202931E+00 0.11595052E+04</pdfrwt>
<pdfrwt beam="2">  1       -2 0.42334629E-01 0.11595052E+04</pdfrwt>
<totfact> 0.12195138E+02</totfact>
</mgrwt>
</event>
<event>
 4    1  0.2892809E-005  0.4427898E+03  0.7818608E-02  0.1029894E+00
          2   -1    0    0  501    0  0.00000000000E+00  0.00000000000E+00  0.47145122628E+02  0.47145122697E+02  0.25500000000E-02 0.  1.
         -2   -1    0    0    0  501 -0.00000000000E+00 -0.00000000000E+00 -0.10396769757E+04  0.10396769757E+04  0.25500000000E-02 0. -1.
    5000001    1    1    2    0    0  0.63276724503E+02  0.85803920593E+02 -0.56505475275E+03  0.60623191128E+03  0.19200000000E+03 0.  0.
   -5000001    1    1    2    0    0 -0.63276724503E+02 -0.85803920593E+02 -0.42747710031E+03  0.48059018711E+03  0.19200000000E+03 0.  0.
<mgrwt>
<rscale>  0 0.44278979E+03</rscale>
<asrwt>0</asrwt>
<pdfrwt beam="1">  1        2 0.67350182E-02 0.44278979E+03</pdfrwt>
<pdfrwt beam="2">  1       -2 0.14852527E+00 0.44278979E+03</pdfrwt>
<totfact> 0.34669460E+02</totfact>
</mgrwt>
</event>
<event>
 4    1  0.2892809E-005  0.6671761E+03  0.7818608E-02  0.9775073E-01
         -2   -1    0    0    0  501 -0.00000000000E+00  0.00000000000E+00  0.10877939612E+03  0.10877939615E+03  0.25500000000E-02 0. -1.
          2   -1    0    0  501    0  0.00000000000E+00 -0.00000000000E+00 -0.10229969327E+04  0.10229969327E+04  0.25500000000E-02 0.  1.
    5000001    1    1    2    0    0  0.26870317219E+03 -0.39920310049E+02 -0.41480273651E+03  0.53171452502E+03  0.19200000000E+03 0.  0.
   -5000001    1    1    2    0    0 -0.26870317219E+03  0.39920310049E+02 -0.49941480011E+03  0.60006180387E+03  0.19200000000E+03 0.  0.
<mgrwt>
<rscale>  0 0.66717610E+03</rscale>
<asrwt>0</asrwt>
<pdfrwt beam="1">  1        2 0.14614241E+00 0.66717610E+03</pdfrwt>
<pdfrwt beam="2">  1       -2 0.15539914E-01 0.66717610E+03</pdfrwt>
<totfact> 0.90125075E+02</totfact>
</mgrwt>
</event>
<event>
 4    1  0.2892809E-005  0.5210879E+03  0.7818608E-02  0.1008417E+00
          2   -1    0    0  501    0  0.00000000000E+00  0.00000000000E+00  0.14250204630E+04  0.14250204630E+04  0.25500000000E-02 0.  1.
         -2   -1    0    0    0  501 -0.00000000000E+00 -0.00000000000E+00 -0.47636610987E+02  0.47636611055E+02  0.25500000000E-02 0. -1.
    5000001    1    1    2    0    0  0.17052912173E+03 -0.17459503747E+02  0.57444778498E+03  0.62947539530E+03  0.19200000000E+03 0.  0.
   -5000001    1    1    2    0    0 -0.17052912173E+03  0.17459503747E+02  0.80293606699E+03  0.84318167870E+03  0.19200000000E+03 0.  0.
<mgrwt>
<rscale>  0 0.52108788E+03</rscale>
<asrwt>0</asrwt>
<pdfrwt beam="1">  1        2 0.20357438E+00 0.52108788E+03</pdfrwt>
<pdfrwt beam="2">  1       -2 0.68052293E-02 0.52108788E+03</pdfrwt>
<totfact> 0.20666358E+03</totfact>
</mgrwt>
</event>
<event>
 4    1  0.2892809E-005  0.5583980E+03  0.7818608E-02  0.9995686E-01
         -2   -1    0    0    0  501 -0.00000000000E+00  0.00000000000E+00  0.62933902166E+02  0.62933902218E+02  0.25500000000E-02 0. -1.
          2   -1    0    0  501    0  0.00000000000E+00 -0.00000000000E+00 -0.12386343259E+04  0.12386343260E+04  0.25500000000E-02 0.  1.
    5000001    1    1    2    0    0  0.20141851851E+03 -0.22510755169E+02 -0.57979669287E+03  0.64350940845E+03  0.19200000000E+03 0.  0.
   -5000001    1    1    2    0    0 -0.20141851851E+03  0.22510755169E+02 -0.59590373091E+03  0.65805881972E+03  0.19200000000E+03 0.  0.
<mgrwt>
<rscale>  0 0.55839804E+03</rscale>
<asrwt>0</asrwt>
<pdfrwt beam="1">  1        2 0.17694774E+00 0.55839804E+03</pdfrwt>
<pdfrwt beam="2">  1       -2 0.89905583E-02 0.55839804E+03</pdfrwt>
<totfact> 0.16714579E+03</totfact>
</mgrwt>
</event>
<event>
 4    1  0.2892809E-005  0.6190237E+03  0.7818608E-02  0.9866705E-01
          2   -1    0    0  501    0  0.00000000000E+00  0.00000000000E+00  0.17520594111E+03  0.17520594112E+03  0.25500000000E-02 0.  1.
         -2   -1    0    0    0  501 -0.00000000000E+00 -0.00000000000E+00 -0.54677136860E+03  0.54677136861E+03  0.25500000000E-02 0. -1.
    5000001    1    1    2    0    0  0.22155934433E+03  0.88153548901E+02 -0.23889814770E+03  0.38832449861E+03  0.19200000000E+03 0.  0.
   -5000001    1    1    2    0    0 -0.22155934433E+03 -0.88153548901E+02 -0.13266727980E+03  0.33365281112E+03  0.19200000000E+03 0.  0.
<mgrwt>
<rscale>  0 0.61902372E+03</rscale>
<asrwt>0</asrwt>
<pdfrwt beam="1">  1        2 0.25029420E-01 0.61902372E+03</pdfrwt>
<pdfrwt beam="2">  1       -2 0.78110195E-01 0.61902372E+03</pdfrwt>
<totfact> 0.32243664E+02</totfact>
</mgrwt>
</event>
<event>
 4    1  0.2892809E-005  0.4308614E+03  0.7818608E-02  0.1033588E+00
          2   -1    0    0  501    0  0.00000000000E+00  0.00000000000E+00  0.89214821647E+03  0.89214821647E+03  0.25500000000E-02 0.  1.
         -2   -1    0    0    0  501 -0.00000000000E+00 -0.00000000000E+00 -0.52020940667E+02  0.52020940730E+02  0.25500000000E-02 0. -1.
    5000001    1    1    2    0    0 -0.85547984027E+02  0.37153571579E+02  0.35626765429E+03  0.41531853672E+03  0.19200000000E+03 0.  0.
   -5000001    1    1    2    0    0  0.85547984027E+02 -0.37153571579E+02  0.48385962152E+03  0.52885062048E+03  0.19200000000E+03 0.  0.
<mgrwt>
<rscale>  0 0.43086141E+03</rscale>
<asrwt>0</asrwt>
<pdfrwt beam="1">  1        2 0.12744975E+00 0.43086141E+03</pdfrwt>
<pdfrwt beam="2">  1       -2 0.74315627E-02 0.43086141E+03</pdfrwt>
<totfact> 0.36214566E+03</totfact>
</mgrwt>
</event>
<event>
 4    1  0.2892809E-005  0.6041759E+03  0.7818608E-02  0.9896780E-01
          2   -1    0    0  501    0  0.00000000000E+00  0.00000000000E+00  0.40363263442E+03  0.40363263442E+03  0.25500000000E-02 0.  1.
         -2   -1    0    0    0  501 -0.00000000000E+00 -0.00000000000E+00 -0.22608955196E+03  0.22608955197E+03  0.25500000000E-02 0. -1.
    5000001    1    1    2    0    0 -0.67160012130E+02 -0.21736789730E+03  0.35280474761E+02  0.29977988909E+03  0.19200000000E+03 0.  0.
   -5000001    1    1    2    0    0  0.67160012130E+02  0.21736789730E+03  0.14226260769E+03  0.32994229731E+03  0.19200000000E+03 0.  0.
<mgrwt>
<rscale>  0 0.60417587E+03</rscale>
<asrwt>0</asrwt>
<pdfrwt beam="1">  1        2 0.57661804E-01 0.60417587E+03</pdfrwt>
<pdfrwt beam="2">  1       -2 0.32298508E-01 0.60417587E+03</pdfrwt>
<totfact> 0.76722874E+02</totfact>
</mgrwt>
</event>
<event>
 4    1  0.2892809E-005  0.4838795E+03  0.7818608E-02  0.1018074E+00
         -2   -1    0    0    0  501 -0.00000000000E+00  0.00000000000E+00  0.13109509241E+02  0.13109509490E+02  0.25500000000E-02 0. -1.
          2   -1    0    0  501    0  0.00000000000E+00 -0.00000000000E+00 -0.44650681228E+04  0.44650681228E+04  0.25500000000E-02 0.  1.
    5000001    1    1    2    0    0  0.54275766221E+02  0.10348816634E+03 -0.30545337476E+04  0.30627922023E+04  0.19200000000E+03 0.  0.
   -5000001    1    1    2    0    0 -0.54275766221E+02 -0.10348816634E+03 -0.13974248660E+04  0.14153854300E+04  0.19200000000E+03 0.  0.
<mgrwt>
<rscale>  0 0.48387954E+03</rscale>
<asrwt>0</asrwt>
<pdfrwt beam="1">  1        2 0.63786590E+00 0.48387954E+03</pdfrwt>
<pdfrwt beam="2">  1       -2 0.18727899E-02 0.48387954E+03</pdfrwt>
<totfact> 0.27701921E+02</totfact>
</mgrwt>
</event>
<event>
 4    1  0.2892809E-005  0.4123308E+03  0.7818608E-02  0.1039592E+00
         -2   -1    0    0    0  501 -0.00000000000E+00  0.00000000000E+00  0.20917495633E+02  0.20917495788E+02  0.25500000000E-02 0.  1.
          2   -1    0    0  501    0  0.00000000000E+00 -0.00000000000E+00 -0.20319914450E+04  0.20319914450E+04  0.25500000000E-02 0. -1.
    5000001    1    1    2    0    0 -0.23209117975E+02  0.71217779111E+02 -0.97847820977E+03  0.99994711971E+03  0.19200000000E+03 0.  0.
   -5000001    1    1    2    0    0  0.23209117975E+02 -0.71217779111E+02 -0.10325957396E+04  0.10529618210E+04  0.19200000000E+03 0.  0.
<mgrwt>
<rscale>  0 0.41233080E+03</rscale>
<asrwt>0</asrwt>
<pdfrwt beam="1">  1        2 0.29028437E+00 0.41233080E+03</pdfrwt>
<pdfrwt beam="2">  1       -2 0.29882150E-02 0.41233080E+03</pdfrwt>
<totfact> 0.36202841E+03</totfact>
</mgrwt>
</event>
<event>
 4    1  0.2892809E-005  0.6350824E+03  0.7818608E-02  0.9835181E-01
          2   -1    0    0  501    0  0.00000000000E+00  0.00000000000E+00  0.14396519031E+03  0.14396519034E+03  0.25500000000E-02 0.  1.
         -2   -1    0    0    0  501 -0.00000000000E+00 -0.00000000000E+00 -0.70039440263E+03  0.70039440264E+03  0.25500000000E-02 0. -1.
    5000001    1    1    2    0    0  0.45340484563E+02 -0.24063820736E+03 -0.19406583045E+03  0.36672612796E+03  0.19200000000E+03 0.  0.
   -5000001    1    1    2    0    0 -0.45340484563E+02  0.24063820736E+03 -0.36236338187E+03  0.47763346501E+03  0.19200000000E+03 0.  0.
<mgrwt>
<rscale>  0 0.63508240E+03</rscale>
<asrwt>0</asrwt>
<pdfrwt beam="1">  1        2 0.20566456E-01 0.63508240E+03</pdfrwt>
<pdfrwt beam="2">  1       -2 0.10005634E+00 0.63508240E+03</pdfrwt>
<totfact> 0.22938274E+02</totfact>
</mgrwt>
</event>
<event>
 4    1  0.2892809E-005  0.4920895E+03  0.7818608E-02  0.1015865E+00
         -2   -1    0    0    0  501 -0.00000000000E+00  0.00000000000E+00  0.42033023316E+03  0.42033023317E+03  0.25500000000E-02 0. -1.
          2   -1    0    0  501    0  0.00000000000E+00 -0.00000000000E+00 -0.14402488327E+03  0.14402488330E+03  0.25500000000E-02 0.  1.
    5000001    1    1    2    0    0 -0.23393086376E+02  0.14428978285E+03  0.19324033083E+03  0.30914819001E+03  0.19200000000E+03 0.  0.
   -5000001    1    1    2    0    0  0.23393086376E+02 -0.14428978285E+03  0.83065019058E+02  0.25520692646E+03  0.19200000000E+03 0.  0.
<mgrwt>
<rscale>  0 0.49208947E+03</rscale>
<asrwt>0</asrwt>
<pdfrwt beam="1">  1        2 0.20574983E-01 0.49208947E+03</pdfrwt>
<pdfrwt beam="2">  1       -2 0.60047177E-01 0.49208947E+03</pdfrwt>
<totfact> 0.71457569E+02</totfact>
</mgrwt>
</event>
<event>
 4    1  0.2892809E-005  0.7257141E+03  0.7818608E-02  0.9674241E-01
         -2   -1    0    0    0  501 -0.00000000000E+00  0.00000000000E+00  0.98415022077E+02  0.98415022110E+02  0.25500000000E-02 0. -1.
          2   -1    0    0  501    0  0.00000000000E+00 -0.00000000000E+00 -0.13378572192E+04  0.13378572192E+04  0.25500000000E-02 0.  1.
    5000001    1    1    2    0    0 -0.29368755712E+03  0.45923161733E+02 -0.46089869743E+03  0.58107910587E+03  0.19200000000E+03 0.  0.
   -5000001    1    1    2    0    0  0.29368755712E+03 -0.45923161733E+02 -0.77854349972E+03  0.85519313546E+03  0.19200000000E+03 0.  0.
<mgrwt>
<rscale>  0 0.72571412E+03</rscale>
<asrwt>0</asrwt>
<pdfrwt beam="1">  1        2 0.19112245E+00 0.72571412E+03</pdfrwt>
<pdfrwt beam="2">  1       -2 0.14059290E-01 0.72571412E+03</pdfrwt>
<totfact> 0.70469397E+02</totfact>
</mgrwt>
</event>
<event>
 4    1  0.2892809E-005  0.6775088E+03  0.7818608E-02  0.9756487E-01
         -2   -1    0    0    0  501 -0.00000000000E+00  0.00000000000E+00  0.41190168368E+03  0.41190168369E+03  0.25500000000E-02 0. -1.
          2   -1    0    0  501    0  0.00000000000E+00 -0.00000000000E+00 -0.27859694004E+03  0.27859694005E+03  0.25500000000E-02 0.  1.
    5000001    1    1    2    0    0 -0.19626701037E+02 -0.26903270114E+03 -0.63217386734E+01  0.33116123876E+03  0.19200000000E+03 0.  0.
   -5000001    1    1    2    0    0  0.19626701037E+02  0.26903270114E+03  0.13962648232E+03  0.35933738498E+03  0.19200000000E+03 0.  0.
<mgrwt>
<rscale>  0 0.67750882E+03</rscale>
<asrwt>0</asrwt>
<pdfrwt beam="1">  1        2 0.39799563E-01 0.67750882E+03</pdfrwt>
<pdfrwt beam="2">  1       -2 0.58843097E-01 0.67750882E+03</pdfrwt>
<totfact> 0.35266749E+02</totfact>
</mgrwt>
</event>
<event>
 4    1  0.2892809E-005  0.4317537E+03  0.7818608E-02  0.1033307E+00
          2   -1    0    0  501    0  0.00000000000E+00  0.00000000000E+00  0.68942081531E+03  0.68942081532E+03  0.25500000000E-02 0.  1.
         -2   -1    0    0    0  501 -0.00000000000E+00 -0.00000000000E+00 -0.67597041674E+02  0.67597041722E+02  0.25500000000E-02 0. -1.
    5000001    1    1    2    0    0  0.14631736137E+02 -0.78550983131E+02  0.20936149878E+03  0.29509419144E+03  0.19200000000E+03 0.  0.
   -5000001    1    1    2    0    0 -0.14631736137E+02  0.78550983131E+02  0.41246227486E+03  0.46192366560E+03  0.19200000000E+03 0.  0.
<mgrwt>
<rscale>  0 0.43175367E+03</rscale>
<asrwt>0</asrwt>
<pdfrwt beam="1">  1        2 0.98488691E-01 0.43175367E+03</pdfrwt>
<pdfrwt beam="2">  1       -2 0.96567199E-02 0.43175367E+03</pdfrwt>
<totfact> 0.33021881E+03</totfact>
</mgrwt>
</event>
<event>
 4    1  0.2892809E-005  0.5497475E+03  0.7818608E-02  0.1001552E+00
          2   -1    0    0  501    0  0.00000000000E+00  0.00000000000E+00  0.73221265024E+03  0.73221265025E+03  0.25500000000E-02 0.  1.
         -2   -1    0    0    0  501 -0.00000000000E+00 -0.00000000000E+00 -0.10318802442E+03  0.10318802445E+03  0.25500000000E-02 0. -1.
    5000001    1    1    2    0    0  0.18099722343E+03  0.53132172593E+02  0.39923715828E+03  0.48149489219E+03  0.19200000000E+03 0.  0.
   -5000001    1    1    2    0    0 -0.18099722343E+03 -0.53132172593E+02  0.22978746754E+03  0.35390578251E+03  0.19200000000E+03 0.  0.
<mgrwt>
<rscale>  0 0.54974749E+03</rscale>
<asrwt>0</asrwt>
<pdfrwt beam="1">  1        2 0.10460181E+00 0.54974749E+03</pdfrwt>
<pdfrwt beam="2">  1       -2 0.14741146E-01 0.54974749E+03</pdfrwt>
<totfact> 0.15357571E+03</totfact>
</mgrwt>
</event>
<event>
 4    1  0.2892809E-005  0.8489688E+03  0.7818608E-02  0.9491722E-01
         -2   -1    0    0    0  501 -0.00000000000E+00  0.00000000000E+00  0.65638602680E+02  0.65638602729E+02  0.25500000000E-02 0. -1.
          2   -1    0    0  501    0  0.00000000000E+00 -0.00000000000E+00 -0.27451378524E+04  0.27451378524E+04  0.25500000000E-02 0.  1.
    5000001    1    1    2    0    0 -0.11906444293E+03 -0.21317917822E+03 -0.38189258793E+03  0.49226786643E+03  0.19200000000E+03 0.  0.
   -5000001    1    1    2    0    0  0.11906444293E+03  0.21317917822E+03 -0.22976066618E+04  0.23185085887E+04  0.19200000000E+03 0.  0.
<mgrwt>
<rscale>  0 0.84896882E+03</rscale>
<asrwt>0</asrwt>
<pdfrwt beam="1">  1        2 0.39216248E+00 0.84896882E+03</pdfrwt>
<pdfrwt beam="2">  1       -2 0.93769450E-02 0.84896882E+03</pdfrwt>
<totfact> 0.25587371E+02</totfact>
</mgrwt>
</event>
<event>
 4    1  0.2892809E-005  0.7997849E+03  0.7818608E-02  0.9560329E-01
          2   -1    0    0  501    0  0.00000000000E+00  0.00000000000E+00  0.15610761131E+04  0.15610761131E+04  0.25500000000E-02 0.  1.
         -2   -1    0    0    0  501 -0.00000000000E+00 -0.00000000000E+00 -0.10243828980E+03  0.10243828983E+03  0.25500000000E-02 0. -1.
    5000001    1    1    2    0    0 -0.22714208280E+03 -0.24379761794E+03  0.95734812208E+03  0.10317025885E+04  0.19200000000E+03 0.  0.
   -5000001    1    1    2    0    0  0.22714208280E+03  0.24379761794E+03  0.50128970122E+03  0.63181181442E+03  0.19200000000E+03 0.  0.
<mgrwt>
<rscale>  0 0.79978489E+03</rscale>
<asrwt>0</asrwt>
<pdfrwt beam="1">  1        2 0.22301087E+00 0.79978489E+03</pdfrwt>
<pdfrwt beam="2">  1       -2 0.14634041E-01 0.79978489E+03</pdfrwt>
<totfact> 0.49967318E+02</totfact>
</mgrwt>
</event>
<event>
 4    1  0.2892809E-005  0.7573698E+03  0.7818608E-02  0.9623859E-01
         -2   -1    0    0    0  501 -0.00000000000E+00  0.00000000000E+00  0.13861534375E+03  0.13861534377E+03  0.25500000000E-02 0. -1.
          2   -1    0    0  501    0  0.00000000000E+00 -0.00000000000E+00 -0.10345339008E+04  0.10345339008E+04  0.25500000000E-02 0.  1.
    5000001    1    1    2    0    0 -0.27795348042E+03  0.17056645596E+03 -0.42676491694E+03  0.57038876875E+03  0.19200000000E+03 0.  0.
   -5000001    1    1    2    0    0  0.27795348042E+03 -0.17056645596E+03 -0.46915364008E+03  0.60276047579E+03  0.19200000000E+03 0.  0.
<mgrwt>
<rscale>  0 0.75736985E+03</rscale>
<asrwt>0</asrwt>
<pdfrwt beam="1">  1        2 0.14779055E+00 0.75736985E+03</pdfrwt>
<pdfrwt beam="2">  1       -2 0.19802192E-01 0.75736985E+03</pdfrwt>
<totfact> 0.58288198E+02</totfact>
</mgrwt>
</event>
<event>
 4    1  0.2892809E-005  0.4678818E+03  0.7818608E-02  0.1022520E+00
          2   -1    0    0  501    0  0.00000000000E+00  0.00000000000E+00  0.23916605153E+03  0.23916605154E+03  0.25500000000E-02 0.  1.
         -2   -1    0    0    0  501 -0.00000000000E+00 -0.00000000000E+00 -0.22882993854E+03  0.22882993856E+03  0.25500000000E-02 0. -1.
    5000001    1    1    2    0    0 -0.77988068194E+02 -0.10421542514E+03 -0.25193249588E+02  0.23332743826E+03  0.19200000000E+03 0.  0.
   -5000001    1    1    2    0    0  0.77988068194E+02  0.10421542514E+03  0.35529362571E+02  0.23466855184E+03  0.19200000000E+03 0.  0.
<mgrwt>
<rscale>  0 0.46788183E+03</rscale>
<asrwt>0</asrwt>
<pdfrwt beam="1">  1        2 0.34166579E-01 0.46788183E+03</pdfrwt>
<pdfrwt beam="2">  1       -2 0.32689991E-01 0.46788183E+03</pdfrwt>
<totfact> 0.13366770E+03</totfact>
</mgrwt>
</event>
<event>
 4    1  0.2892809E-005  0.6206244E+03  0.7818608E-02  0.9863517E-01
         -2   -1    0    0    0  501 -0.00000000000E+00  0.00000000000E+00  0.45794949073E+02  0.45794949144E+02  0.25500000000E-02 0. -1.
          2   -1    0    0  501    0  0.00000000000E+00 -0.00000000000E+00 -0.21027137644E+04  0.21027137644E+04  0.25500000000E-02 0.  1.
    5000001    1    1    2    0    0  0.12672955334E+02  0.21224454470E+03 -0.14412960126E+04  0.14694919348E+04  0.19200000000E+03 0.  0.
   -5000001    1    1    2    0    0 -0.12672955334E+02 -0.21224454470E+03 -0.61562280266E+03  0.67901677867E+03  0.19200000000E+03 0.  0.
<mgrwt>
<rscale>  0 0.62062443E+03</rscale>
<asrwt>0</asrwt>
<pdfrwt beam="1">  1        2 0.30038762E+00 0.62062443E+03</pdfrwt>
<pdfrwt beam="2">  1       -2 0.65421369E-02 0.62062443E+03</pdfrwt>
<totfact> 0.99075748E+02</totfact>
</mgrwt>
</event>
<event>
 4    1  0.2892809E-005  0.7057375E+03  0.7818608E-02  0.9707470E-01
          2   -1    0    0  501    0  0.00000000000E+00  0.00000000000E+00  0.10698933404E+04  0.10698933404E+04  0.25500000000E-02 0.  1.
         -2   -1    0    0    0  501 -0.00000000000E+00 -0.00000000000E+00 -0.11638202633E+03  0.11638202636E+03  0.25500000000E-02 0. -1.
    5000001    1    1    2    0    0  0.20520999234E+03  0.20697681656E+03  0.56412716502E+03  0.66336566225E+03  0.19200000000E+03 0.  0.
   -5000001    1    1    2    0    0 -0.20520999234E+03 -0.20697681656E+03  0.38938414909E+03  0.52290970455E+03  0.19200000000E+03 0.  0.
<mgrwt>
<rscale>  0 0.70573750E+03</rscale>
<asrwt>0</asrwt>
<pdfrwt beam="1">  1        2 0.15284191E+00 0.70573750E+03</pdfrwt>
<pdfrwt beam="2">  1       -2 0.16626004E-01 0.70573750E+03</pdfrwt>
<totfact> 0.75222963E+02</totfact>
</mgrwt>
</event>
<event>
 4    1  0.2892809E-005  0.7658518E+03  0.7818608E-02  0.9610804E-01
          2   -1    0    0  501    0  0.00000000000E+00  0.00000000000E+00  0.20542870160E+04  0.20542870160E+04  0.25500000000E-02 0.  1.
         -2   -1    0    0    0  501 -0.00000000000E+00 -0.00000000000E+00 -0.71378651418E+02  0.71378651463E+02  0.25500000000E-02 0. -1.
    5000001    1    1    2    0    0  0.27839030058E+03  0.17876620676E+03  0.94260746547E+03  0.10172666072E+04  0.19200000000E+03 0.  0.
   -5000001    1    1    2    0    0 -0.27839030058E+03 -0.17876620676E+03  0.10403008991E+04  0.11083990603E+04  0.19200000000E+03 0.  0.
<mgrwt>
<rscale>  0 0.76585178E+03</rscale>
<asrwt>0</asrwt>
<pdfrwt beam="1">  1        2 0.29346955E+00 0.76585178E+03</pdfrwt>
<pdfrwt beam="2">  1       -2 0.10196951E-01 0.76585178E+03</pdfrwt>
<totfact> 0.51019507E+02</totfact>
</mgrwt>
</event>
<event>
 4    1  0.2892809E-005  0.5624743E+03  0.7818608E-02  0.9986472E-01
         -2   -1    0    0    0  501 -0.00000000000E+00  0.00000000000E+00  0.92375871980E+02  0.92375872015E+02  0.25500000000E-02 0.  1.
          2   -1    0    0  501    0  0.00000000000E+00 -0.00000000000E+00 -0.85622276819E+03  0.85622276820E+03  0.25500000000E-02 0. -1.
    5000001    1    1    2    0    0  0.18632911466E+03 -0.54909729598E+02 -0.49501421734E+03  0.56536421248E+03  0.19200000000E+03 0.  0.
   -5000001    1    1    2    0    0 -0.18632911466E+03  0.54909729598E+02 -0.26883267887E+03  0.38323442774E+03  0.19200000000E+03 0.  0.
<mgrwt>
<rscale>  0 0.56247427E+03</rscale>
<asrwt>0</asrwt>
<pdfrwt beam="1">  1        2 0.12231753E+00 0.56247427E+03</pdfrwt>
<pdfrwt beam="2">  1       -2 0.13196554E-01 0.56247427E+03</pdfrwt>
<totfact> 0.15140577E+03</totfact>
</mgrwt>
</event>
<event>
 4    1  0.2892809E-005  0.4338546E+03  0.7818608E-02  0.1032649E+00
         -2   -1    0    0    0  501 -0.00000000000E+00  0.00000000000E+00  0.31741555338E+03  0.31741555339E+03  0.25500000000E-02 0. -1.
          2   -1    0    0  501    0  0.00000000000E+00 -0.00000000000E+00 -0.14825191602E+03  0.14825191604E+03  0.25500000000E-02 0.  1.
    5000001    1    1    2    0    0 -0.95476403764E+02  0.30402659769E+02  0.97875409481E+02  0.23766291502E+03  0.19200000000E+03 0.  0.
   -5000001    1    1    2    0    0  0.95476403764E+02 -0.30402659769E+02  0.71288227885E+02  0.22800455441E+03  0.19200000000E+03 0.  0.
<mgrwt>
<rscale>  0 0.43385465E+03</rscale>
<asrwt>0</asrwt>
<pdfrwt beam="1">  1        2 0.21178846E-01 0.43385465E+03</pdfrwt>
<pdfrwt beam="2">  1       -2 0.45345078E-01 0.43385465E+03</pdfrwt>
<totfact> 0.12229969E+03</totfact>
</mgrwt>
</event>
<event>
 4    1  0.2892809E-005  0.4057547E+03  0.7818608E-02  0.1041805E+00
         -2   -1    0    0    0  501 -0.00000000000E+00  0.00000000000E+00  0.23457711179E+02  0.23457711317E+02  0.25500000000E-02 0. -1.
          2   -1    0    0  501    0  0.00000000000E+00 -0.00000000000E+00 -0.17546138190E+04  0.17546138190E+04  0.25500000000E-02 0.  1.
    5000001    1    1    2    0    0  0.47214866492E+02 -0.29824613529E+01 -0.66682590785E+03  0.69552780683E+03  0.19200000000E+03 0.  0.
   -5000001    1    1    2    0    0 -0.47214866492E+02  0.29824613529E+01 -0.10643302000E+04  0.10825437235E+04  0.19200000000E+03 0.  0.
<mgrwt>
<rscale>  0 0.40575473E+03</rscale>
<asrwt>0</asrwt>
<pdfrwt beam="1">  1        2 0.25065903E+00 0.40575473E+03</pdfrwt>
<pdfrwt beam="2">  1       -2 0.33511027E-02 0.40575473E+03</pdfrwt>
<totfact> 0.41819353E+03</totfact>
</mgrwt>
</event>
<event>
 4    1  0.2892809E-005  0.7482741E+03  0.7818608E-02  0.9638062E-01
          2   -1    0    0  501    0  0.00000000000E+00  0.00000000000E+00  0.74973737973E+03  0.74973737974E+03  0.25500000000E-02 0.  1.
         -2   -1    0    0    0  501 -0.00000000000E+00 -0.00000000000E+00 -0.18670341787E+03  0.18670341789E+03  0.25500000000E-02 0. -1.
    5000001    1    1    2    0    0 -0.12341545170E+03 -0.28580735689E+03  0.18299768340E+03  0.40898578350E+03  0.19200000000E+03 0.  0.
   -5000001    1    1    2    0    0  0.12341545170E+03  0.28580735689E+03  0.38003627847E+03  0.52745501412E+03  0.19200000000E+03 0.  0.
<mgrwt>
<rscale>  0 0.74827410E+03</rscale>
<asrwt>0</asrwt>
<pdfrwt beam="1">  1        2 0.10710534E+00 0.74827410E+03</pdfrwt>
<pdfrwt beam="2">  1       -2 0.26671916E-01 0.74827410E+03</pdfrwt>
<totfact> 0.52794387E+02</totfact>
</mgrwt>
</event>
<event>
 4    1  0.2892809E-005  0.5367334E+03  0.7818608E-02  0.1004612E+00
          2   -1    0    0  501    0  0.00000000000E+00  0.00000000000E+00  0.30794675040E+03  0.30794675041E+03  0.25500000000E-02 0.  1.
         -2   -1    0    0    0  501 -0.00000000000E+00 -0.00000000000E+00 -0.23387379411E+03  0.23387379413E+03  0.25500000000E-02 0. -1.
    5000001    1    1    2    0    0  0.63959585605E+02 -0.11421800731E+03 -0.98474785410E+02  0.25238435995E+03  0.19200000000E+03 0.  0.
   -5000001    1    1    2    0    0 -0.63959585605E+02  0.11421800731E+03  0.17254774170E+03  0.28943618459E+03  0.19200000000E+03 0.  0.
<mgrwt>
<rscale>  0 0.53673336E+03</rscale>
<asrwt>0</asrwt>
<pdfrwt beam="1">  1        2 0.43992393E-01 0.53673336E+03</pdfrwt>
<pdfrwt beam="2">  1       -2 0.33410542E-01 0.53673336E+03</pdfrwt>
<totfact> 0.97153450E+02</totfact>
</mgrwt>
</event>
<event>
 4    1  0.2892809E-005  0.5314739E+03  0.7818608E-02  0.1005875E+00
         -2   -1    0    0    0  501 -0.00000000000E+00  0.00000000000E+00  0.86873848884E+02  0.86873848921E+02  0.25500000000E-02 0. -1.
          2   -1    0    0  501    0  0.00000000000E+00 -0.00000000000E+00 -0.81285822611E+03  0.81285822612E+03  0.25500000000E-02 0.  1.
    5000001    1    1    2    0    0 -0.83943341881E+02  0.15982759134E+03 -0.42066964065E+03  0.49640536879E+03  0.19200000000E+03 0.  0.
   -5000001    1    1    2    0    0  0.83943341881E+02 -0.15982759134E+03 -0.30531473658E+03  0.40332670625E+03  0.19200000000E+03 0.  0.
<mgrwt>
<rscale>  0 0.53147389E+03</rscale>
<asrwt>0</asrwt>
<pdfrwt beam="1">  1        2 0.11612260E+00 0.53147389E+03</pdfrwt>
<pdfrwt beam="2">  1       -2 0.12410550E-01 0.53147389E+03</pdfrwt>
<totfact> 0.17927625E+03</totfact>
</mgrwt>
</event>
<event>
 4    1  0.2892809E-005  0.4349109E+03  0.7818608E-02  0.1032320E+00
          2   -1    0    0  501    0  0.00000000000E+00  0.00000000000E+00  0.43266639654E+03  0.43266639655E+03  0.25500000000E-02 0.  1.
         -2   -1    0    0    0  501 -0.00000000000E+00 -0.00000000000E+00 -0.10929173817E+03  0.10929173820E+03  0.25500000000E-02 0. -1.
    5000001    1    1    2    0    0 -0.52894994776E+02  0.87313293604E+02  0.16022832503E+03  0.27010851126E+03  0.19200000000E+03 0.  0.
   -5000001    1    1    2    0    0  0.52894994776E+02 -0.87313293604E+02  0.16314633334E+03  0.27184962350E+03  0.19200000000E+03 0.  0.
<mgrwt>
<rscale>  0 0.43491085E+03</rscale>
<asrwt>0</asrwt>
<pdfrwt beam="1">  1        2 0.61809486E-01 0.43491085E+03</pdfrwt>
<pdfrwt beam="2">  1       -2 0.15613105E-01 0.43491085E+03</pdfrwt>
<totfact> 0.25633370E+03</totfact>
</mgrwt>
</event>
<event>
 4    1  0.2892809E-005  0.5380671E+03  0.7818608E-02  0.1004294E+00
         -2   -1    0    0    0  501 -0.00000000000E+00  0.00000000000E+00  0.68203283744E+02  0.68203283792E+02  0.25500000000E-02 0.  1.
          2   -1    0    0  501    0  0.00000000000E+00 -0.00000000000E+00 -0.10612254769E+04  0.10612254769E+04  0.25500000000E-02 0. -1.
    5000001    1    1    2    0    0  0.17628898918E+03 -0.65941224247E+02 -0.47670765117E+03  0.54730269270E+03  0.19200000000E+03 0.  0.
   -5000001    1    1    2    0    0 -0.17628898918E+03  0.65941224247E+02 -0.51631454196E+03  0.58212606796E+03  0.19200000000E+03 0.  0.
<mgrwt>
<rscale>  0 0.53806714E+03</rscale>
<asrwt>0</asrwt>
<pdfrwt beam="1">  1        2 0.15160363E+00 0.53806714E+03</pdfrwt>
<pdfrwt beam="2">  1       -2 0.97433269E-02 0.53806714E+03</pdfrwt>
<totfact> 0.18536683E+03</totfact>
</mgrwt>
</event>
<event>
 4    1  0.2892809E-005  0.8415535E+03  0.7818608E-02  0.9501744E-01
          2   -1    0    0  501    0  0.00000000000E+00  0.00000000000E+00  0.71610463308E+03  0.71610463308E+03  0.25500000000E-02 0.  1.
         -2   -1    0    0    0  501 -0.00000000000E+00 -0.00000000000E+00 -0.24724469794E+03  0.24724469795E+03  0.25500000000E-02 0. -1.
    5000001    1    1    2    0    0  0.27658973122E+03  0.19955019054E+03  0.41127799462E+03  0.56774619930E+03  0.19200000000E+03 0.  0.
   -5000001    1    1    2    0    0 -0.27658973122E+03 -0.19955019054E+03  0.57581940516E+02  0.39560313173E+03  0.19200000000E+03 0.  0.
<mgrwt>
<rscale>  0 0.84155350E+03</rscale>
<asrwt>0</asrwt>
<pdfrwt beam="1">  1        2 0.10230066E+00 0.84155350E+03</pdfrwt>
<pdfrwt beam="2">  1       -2 0.35320671E-01 0.84155350E+03</pdfrwt>
<totfact> 0.33023222E+02</totfact>
</mgrwt>
</event>
<event>
 4    1  0.2892809E-005  0.1074555E+04  0.7818608E-02  0.9230354E-01
         -2   -1    0    0    0  501 -0.00000000000E+00  0.00000000000E+00  0.12414374819E+04  0.12414374819E+04  0.25500000000E-02 0. -1.
          2   -1    0    0  501    0  0.00000000000E+00 -0.00000000000E+00 -0.23252643381E+03  0.23252643382E+03  0.25500000000E-02 0.  1.
    5000001    1    1    2    0    0  0.36799478236E+03 -0.48273728330E+02  0.41210564915E+02  0.41989620545E+03  0.19200000000E+03 0.  0.
   -5000001    1    1    2    0    0 -0.36799478236E+03  0.48273728330E+02  0.96770048316E+03  0.10540677103E+04  0.19200000000E+03 0.  0.
<mgrwt>
<rscale>  0 0.10745548E+04</rscale>
<asrwt>0</asrwt>
<pdfrwt beam="1">  1        2 0.33218063E-01 0.10745548E+04</pdfrwt>
<pdfrwt beam="2">  1       -2 0.17734821E+00 0.10745548E+04</pdfrwt>
<totfact> 0.29850052E+01</totfact>
</mgrwt>
</event>
<event>
 4    1  0.2892809E-005  0.7433204E+03  0.7818608E-02  0.9645888E-01
         -2   -1    0    0    0  501 -0.00000000000E+00  0.00000000000E+00  0.16228708526E+03  0.16228708528E+03  0.25500000000E-02 0. -1.
          2   -1    0    0  501    0  0.00000000000E+00 -0.00000000000E+00 -0.85115397336E+03  0.85115397336E+03  0.25500000000E-02 0.  1.
    5000001    1    1    2    0    0  0.13840768574E+03  0.18201784678E+03 -0.42693818249E+02  0.30161887563E+03  0.19200000000E+03 0.  0.
   -5000001    1    1    2    0    0 -0.13840768574E+03 -0.18201784678E+03 -0.64617306985E+03  0.71182218301E+03  0.19200000000E+03 0.  0.
<mgrwt>
<rscale>  0 0.74332038E+03</rscale>
<asrwt>0</asrwt>
<pdfrwt beam="1">  1        2 0.12159342E+00 0.74332038E+03</pdfrwt>
<pdfrwt beam="2">  1       -2 0.23183870E-01 0.74332038E+03</pdfrwt>
<totfact> 0.57730715E+02</totfact>
</mgrwt>
</event>
<event>
 4    1  0.2892809E-005  0.5025628E+03  0.7818608E-02  0.1013112E+00
          2   -1    0    0  501    0  0.00000000000E+00  0.00000000000E+00  0.22878430715E+04  0.22878430715E+04  0.25500000000E-02 0.  1.
         -2   -1    0    0    0  501 -0.00000000000E+00 -0.00000000000E+00 -0.27599069939E+02  0.27599070057E+02  0.25500000000E-02 0. -1.
    5000001    1    1    2    0    0  0.10211226634E+03 -0.11081236507E+03  0.85476120232E+03  0.88892463583E+03  0.19200000000E+03 0.  0.
   -5000001    1    1    2    0    0 -0.10211226634E+03  0.11081236507E+03  0.14054827992E+04  0.14265175057E+04  0.19200000000E+03 0.  0.
<mgrwt>
<rscale>  0 0.50256280E+03</rscale>
<asrwt>0</asrwt>
<pdfrwt beam="1">  1        2 0.32683469E+00 0.50256280E+03</pdfrwt>
<pdfrwt beam="2">  1       -2 0.39427247E-02 0.50256280E+03</pdfrwt>
<totfact> 0.17657525E+03</totfact>
</mgrwt>
</event>
<event>
 4    1  0.2892809E-005  0.5605726E+03  0.7818608E-02  0.9990760E-01
         -2   -1    0    0    0  501 -0.00000000000E+00  0.00000000000E+00  0.17132784407E+03  0.17132784409E+03  0.25500000000E-02 0. -1.
          2   -1    0    0  501    0  0.00000000000E+00 -0.00000000000E+00 -0.45853848962E+03  0.45853848963E+03  0.25500000000E-02 0.  1.
    5000001    1    1    2    0    0  0.20110994811E+03 -0.25237779905E+02 -0.17145310144E+03  0.32763138243E+03  0.19200000000E+03 0.  0.
   -5000001    1    1    2    0    0 -0.20110994811E+03  0.25237779905E+02 -0.11575754411E+03  0.30223495129E+03  0.19200000000E+03 0.  0.
<mgrwt>
<rscale>  0 0.56057260E+03</rscale>
<asrwt>0</asrwt>
<pdfrwt beam="1">  1        2 0.65505498E-01 0.56057260E+03</pdfrwt>
<pdfrwt beam="2">  1       -2 0.24475407E-01 0.56057260E+03</pdfrwt>
<totfact> 0.11050392E+03</totfact>
</mgrwt>
</event>
<event>
 4    1  0.2892809E-005  0.4599709E+03  0.7818608E-02  0.1024790E+00
         -2   -1    0    0    0  501 -0.00000000000E+00  0.00000000000E+00  0.70971874430E+02  0.70971874475E+02  0.25500000000E-02 0.  1.
          2   -1    0    0  501    0  0.00000000000E+00 -0.00000000000E+00 -0.74527141226E+03  0.74527141227E+03  0.25500000000E-02 0. -1.
    5000001    1    1    2    0    0  0.62845472019E+02 -0.54417159991E+02 -0.16769584245E+03  0.26813555570E+03  0.19200000000E+03 0.  0.
   -5000001    1    1    2    0    0 -0.62845472019E+02  0.54417159991E+02 -0.50660369538E+03  0.54810773104E+03  0.19200000000E+03 0.  0.
<mgrwt>
<rscale>  0 0.45997091E+03</rscale>
<asrwt>0</asrwt>
<pdfrwt beam="1">  1        2 0.10646734E+00 0.45997091E+03</pdfrwt>
<pdfrwt beam="2">  1       -2 0.10138840E-01 0.45997091E+03</pdfrwt>
<totfact> 0.27784033E+03</totfact>
</mgrwt>
</event>
<event>
 4    1  0.2892809E-005  0.5104174E+03  0.7818608E-02  0.1011095E+00
         -2   -1    0    0    0  501 -0.00000000000E+00  0.00000000000E+00  0.18974816524E+02  0.18974816695E+02  0.25500000000E-02 0. -1.
          2   -1    0    0  501    0  0.00000000000E+00 -0.00000000000E+00 -0.34325220095E+04  0.34325220095E+04  0.25500000000E-02 0.  1.
    5000001    1    1    2    0    0 -0.47049233856E+01 -0.15023575783E+03 -0.11973864495E+04  0.12219620406E+04  0.19200000000E+03 0.  0.
   -5000001    1    1    2    0    0  0.47049233856E+01  0.15023575783E+03 -0.22161607435E+04  0.22295347856E+04  0.19200000000E+03 0.  0.
<mgrwt>
<rscale>  0 0.51041738E+03</rscale>
<asrwt>0</asrwt>
<pdfrwt beam="1">  1        2 0.49035989E+00 0.51041738E+03</pdfrwt>
<pdfrwt beam="2">  1       -2 0.27106903E-02 0.51041738E+03</pdfrwt>
<totfact> 0.76154226E+02</totfact>
</mgrwt>
</event>
<event>
 4    1  0.2892809E-005  0.6226202E+03  0.7818608E-02  0.9859557E-01
         -2   -1    0    0    0  501 -0.00000000000E+00  0.00000000000E+00  0.23671972664E+03  0.23671972665E+03  0.25500000000E-02 0. -1.
          2   -1    0    0  501    0  0.00000000000E+00 -0.00000000000E+00 -0.40940383598E+03  0.40940383599E+03  0.25500000000E-02 0.  1.
    5000001    1    1    2    0    0  0.23033383562E+03  0.35493595888E+02 -0.16494080424E+03  0.34406822010E+03  0.19200000000E+03 0.  0.
   -5000001    1    1    2    0    0 -0.23033383562E+03 -0.35493595888E+02 -0.77433050949E+01  0.30205534254E+03  0.19200000000E+03 0.  0.
<mgrwt>
<rscale>  0 0.62262015E+03</rscale>
<asrwt>0</asrwt>
<pdfrwt beam="1">  1        2 0.58486262E-01 0.62262015E+03</pdfrwt>
<pdfrwt beam="2">  1       -2 0.33817104E-01 0.62262015E+03</pdfrwt>
<totfact> 0.69258035E+02</totfact>
</mgrwt>
</event>
<event>
 4    1  0.2892809E-005  0.1251372E+04  0.7818608E-02  0.9069042E-01
         -2   -1    0    0    0  501 -0.00000000000E+00  0.00000000000E+00  0.78935861123E+03  0.78935861123E+03  0.25500000000E-02 0. -1.
          2   -1    0    0  501    0  0.00000000000E+00 -0.00000000000E+00 -0.49595038264E+03  0.49595038265E+03  0.25500000000E-02 0.  1.
    5000001    1    1    2    0    0 -0.38715328243E+03 -0.31732072989E+03 -0.18459364680E+03  0.56702638753E+03  0.19200000000E+03 0.  0.
   -5000001    1    1    2    0    0  0.38715328243E+03  0.31732072989E+03  0.47800187539E+03  0.71828260635E+03  0.19200000000E+03 0.  0.
<mgrwt>
<rscale>  0 0.12513716E+04</rscale>
<asrwt>0</asrwt>
<pdfrwt beam="1">  1        2 0.70850055E-01 0.12513716E+04</pdfrwt>
<pdfrwt beam="2">  1       -2 0.11276552E+00 0.12513716E+04</pdfrwt>
<totfact> 0.41272830E+01</totfact>
</mgrwt>
</event>
<event>
 4    1  0.2892809E-005  0.6251441E+03  0.7818608E-02  0.9854571E-01
         -2   -1    0    0    0  501 -0.00000000000E+00  0.00000000000E+00  0.12497756048E+03  0.12497756050E+03  0.25500000000E-02 0. -1.
          2   -1    0    0  501    0  0.00000000000E+00 -0.00000000000E+00 -0.78175056516E+03  0.78175056516E+03  0.25500000000E-02 0.  1.
    5000001    1    1    2    0    0  0.23959173693E+03  0.48502711365E+02 -0.37606498693E+03  0.48789915742E+03  0.19200000000E+03 0.  0.
   -5000001    1    1    2    0    0 -0.23959173693E+03 -0.48502711365E+02 -0.28070801775E+03  0.41882896825E+03  0.19200000000E+03 0.  0.
<mgrwt>
<rscale>  0 0.62514407E+03</rscale>
<asrwt>0</asrwt>
<pdfrwt beam="1">  1        2 0.11167865E+00 0.62514407E+03</pdfrwt>
<pdfrwt beam="2">  1       -2 0.17853938E-01 0.62514407E+03</pdfrwt>
<totfact> 0.10211126E+03</totfact>
</mgrwt>
</event>
<event>
 4    1  0.2892809E-005  0.7442751E+03  0.7818608E-02  0.9644375E-01
          2   -1    0    0  501    0  0.00000000000E+00  0.00000000000E+00  0.17665018294E+04  0.17665018294E+04  0.25500000000E-02 0.  1.
         -2   -1    0    0    0  501 -0.00000000000E+00 -0.00000000000E+00 -0.78395828399E+02  0.78395828440E+02  0.25500000000E-02 0. -1.
    5000001    1    1    2    0    0  0.27479716329E+03 -0.64732266944E+02  0.47707043352E+03  0.58665487799E+03  0.19200000000E+03 0.  0.
   -5000001    1    1    2    0    0 -0.27479716329E+03  0.64732266944E+02  0.12110355675E+04  0.12582427798E+04  0.19200000000E+03 0.  0.
<mgrwt>
<rscale>  0 0.74427515E+03</rscale>
<asrwt>0</asrwt>
<pdfrwt beam="1">  1        2 0.25235740E+00 0.74427515E+03</pdfrwt>
<pdfrwt beam="2">  1       -2 0.11199404E-01 0.74427515E+03</pdfrwt>
<totfact> 0.61317245E+02</totfact>
</mgrwt>
</event>
<event>
 4    1  0.2892809E-005  0.5960432E+03  0.7818608E-02  0.9913649E-01
          2   -1    0    0  501    0  0.00000000000E+00  0.00000000000E+00  0.13691674048E+04  0.13691674048E+04  0.25500000000E-02 0.  1.
         -2   -1    0    0    0  501 -0.00000000000E+00 -0.00000000000E+00 -0.64869259666E+02  0.64869259716E+02  0.25500000000E-02 0. -1.
    5000001    1    1    2    0    0  0.17190722738E+03  0.12090379073E+03  0.86440388668E+03  0.91007027242E+03  0.19200000000E+03 0.  0.
   -5000001    1    1    2    0    0 -0.17190722738E+03 -0.12090379073E+03  0.43989425850E+03  0.52396639215E+03  0.19200000000E+03 0.  0.
<mgrwt>
<rscale>  0 0.59604321E+03</rscale>
<asrwt>0</asrwt>
<pdfrwt beam="1">  1        2 0.19559536E+00 0.59604321E+03</pdfrwt>
<pdfrwt beam="2">  1       -2 0.92670363E-02 0.59604321E+03</pdfrwt>
<totfact> 0.13510200E+03</totfact>
</mgrwt>
</event>
<event>
 4    1  0.2892809E-005  0.9072179E+03  0.7818608E-02  0.9416603E-01
         -2   -1    0    0    0  501 -0.00000000000E+00  0.00000000000E+00  0.10439820407E+03  0.10439820410E+03  0.25500000000E-02 0. -1.
          2   -1    0    0  501    0  0.00000000000E+00 -0.00000000000E+00 -0.19709255638E+04  0.19709255638E+04  0.25500000000E-02 0.  1.
    5000001    1    1    2    0    0 -0.33564861012E+03 -0.22388566089E+03 -0.11121087393E+04  0.11985135071E+04  0.19200000000E+03 0.  0.
   -5000001    1    1    2    0    0  0.33564861012E+03  0.22388566089E+03 -0.75441862044E+03  0.87681026083E+03  0.19200000000E+03 0.  0.
<mgrwt>
<rscale>  0 0.90721792E+03</rscale>
<asrwt>0</asrwt>
<pdfrwt beam="1">  1        2 0.28156077E+00 0.90721792E+03</pdfrwt>
<pdfrwt beam="2">  1       -2 0.14914030E-01 0.90721792E+03</pdfrwt>
<totfact> 0.29626099E+02</totfact>
</mgrwt>
</event>
<event>
 4    1  0.2892809E-005  0.1145283E+04  0.7818608E-02  0.9162146E-01
         -2   -1    0    0    0  501 -0.00000000000E+00  0.00000000000E+00  0.33912787044E+03  0.33912787045E+03  0.25500000000E-02 0. -1.
          2   -1    0    0  501    0  0.00000000000E+00 -0.00000000000E+00 -0.96694608634E+03  0.96694608634E+03  0.25500000000E-02 0.  1.
    5000001    1    1    2    0    0  0.22456553829E+03  0.48498356929E+03 -0.22998646739E+03  0.61269610628E+03  0.19200000000E+03 0.  0.
   -5000001    1    1    2    0    0 -0.22456553829E+03 -0.48498356929E+03 -0.39783174850E+03  0.69337785052E+03  0.19200000000E+03 0.  0.
<mgrwt>
<rscale>  0 0.11452831E+04</rscale>
<asrwt>0</asrwt>
<pdfrwt beam="1">  1        2 0.13813515E+00 0.11452831E+04</pdfrwt>
<pdfrwt beam="2">  1       -2 0.48446839E-01 0.11452831E+04</pdfrwt>
<totfact> 0.11766098E+02</totfact>
</mgrwt>
</event>
<event>
 4    1  0.2892809E-005  0.8783088E+03  0.7818608E-02  0.9453110E-01
         -2   -1    0    0    0  501 -0.00000000000E+00  0.00000000000E+00  0.88242989475E+02  0.88242989512E+02  0.25500000000E-02 0. -1.
          2   -1    0    0  501    0  0.00000000000E+00 -0.00000000000E+00 -0.21855175394E+04  0.21855175394E+04  0.25500000000E-02 0.  1.
    5000001    1    1    2    0    0 -0.74626200930E+02 -0.38780137976E+03 -0.10636480973E+04  0.11507259686E+04  0.19200000000E+03 0.  0.
   -5000001    1    1    2    0    0  0.74626200930E+02  0.38780137976E+03 -0.10336264527E+04  0.11230345603E+04  0.19200000000E+03 0.  0.
<mgrwt>
<rscale>  0 0.87830883E+03</rscale>
<asrwt>0</asrwt>
<pdfrwt beam="1">  1        2 0.31221676E+00 0.87830883E+03</pdfrwt>
<pdfrwt beam="2">  1       -2 0.12606143E-01 0.87830883E+03</pdfrwt>
<totfact> 0.30617627E+02</totfact>
</mgrwt>
</event>
<event>
 4    1  0.2892809E-005  0.4333940E+03  0.7818608E-02  0.1032793E+00
         -2   -1    0    0    0  501 -0.00000000000E+00  0.00000000000E+00  0.40382222307E+02  0.40382222387E+02  0.25500000000E-02 0. -1.
          2   -1    0    0  501    0  0.00000000000E+00 -0.00000000000E+00 -0.11628280843E+04  0.11628280843E+04  0.25500000000E-02 0.  1.
    5000001    1    1    2    0    0  0.93997225659E+02 -0.32809168885E+02 -0.52380402909E+03  0.56669796266E+03  0.19200000000E+03 0.  0.
   -5000001    1    1    2    0    0 -0.93997225659E+02  0.32809168885E+02 -0.59864183286E+03  0.63651234399E+03  0.19200000000E+03 0.  0.
<mgrwt>
<rscale>  0 0.43339397E+03</rscale>
<asrwt>0</asrwt>
<pdfrwt beam="1">  1        2 0.16611828E+00 0.43339397E+03</pdfrwt>
<pdfrwt beam="2">  1       -2 0.57688896E-02 0.43339397E+03</pdfrwt>
<totfact> 0.37099884E+03</totfact>
</mgrwt>
</event>
<event>
 4    1  0.2892809E-005  0.4535336E+03  0.7818608E-02  0.1026674E+00
          2   -1    0    0  501    0  0.00000000000E+00  0.00000000000E+00  0.10686222024E+04  0.10686222024E+04  0.25500000000E-02 0.  1.
         -2   -1    0    0    0  501 -0.00000000000E+00 -0.00000000000E+00 -0.48121008826E+02  0.48121008893E+02  0.25500000000E-02 0. -1.
    5000001    1    1    2    0    0 -0.64396083961E+02  0.70664124281E+02  0.69150960982E+03  0.72400954038E+03  0.19200000000E+03 0.  0.
   -5000001    1    1    2    0    0  0.64396083961E+02 -0.70664124281E+02  0.32899158376E+03  0.39273367092E+03  0.19200000000E+03 0.  0.
<mgrwt>
<rscale>  0 0.45353359E+03</rscale>
<asrwt>0</asrwt>
<pdfrwt beam="1">  1        2 0.15266033E+00 0.45353359E+03</pdfrwt>
<pdfrwt beam="2">  1       -2 0.68744290E-02 0.45353359E+03</pdfrwt>
<totfact> 0.31959180E+03</totfact>
</mgrwt>
</event>
<event>
 4    1  0.2892809E-005  0.6414183E+03  0.7818608E-02  0.9823017E-01
         -2   -1    0    0    0  501 -0.00000000000E+00  0.00000000000E+00  0.85859322440E+02  0.85859322478E+02  0.25500000000E-02 0. -1.
          2   -1    0    0  501    0  0.00000000000E+00 -0.00000000000E+00 -0.11979405010E+04  0.11979405010E+04  0.25500000000E-02 0.  1.
    5000001    1    1    2    0    0 -0.17204571488E+03 -0.17340396130E+03 -0.71517820052E+03  0.77975157602E+03  0.19200000000E+03 0.  0.
   -5000001    1    1    2    0    0  0.17204571488E+03  0.17340396130E+03 -0.39690297808E+03  0.50404824750E+03  0.19200000000E+03 0.  0.
<mgrwt>
<rscale>  0 0.64141830E+03</rscale>
<asrwt>0</asrwt>
<pdfrwt beam="1">  1        2 0.17113435E+00 0.64141830E+03</pdfrwt>
<pdfrwt beam="2">  1       -2 0.12265618E-01 0.64141830E+03</pdfrwt>
<totfact> 0.10598130E+03</totfact>
</mgrwt>
</event>
<event>
 4    1  0.2892809E-005  0.8763375E+03  0.7818608E-02  0.9455654E-01
          2   -1    0    0  501    0  0.00000000000E+00  0.00000000000E+00  0.91727486928E+03  0.91727486929E+03  0.25500000000E-02 0.  1.
         -2   -1    0    0    0  501 -0.00000000000E+00 -0.00000000000E+00 -0.20930677733E+03  0.20930677734E+03  0.25500000000E-02 0. -1.
    5000001    1    1    2    0    0  0.24276632131E+03  0.30401811016E+03  0.27509914458E+03  0.51371785779E+03  0.19200000000E+03 0.  0.
   -5000001    1    1    2    0    0 -0.24276632131E+03 -0.30401811016E+03  0.43286894737E+03  0.61286378884E+03  0.19200000000E+03 0.  0.
<mgrwt>
<rscale>  0 0.87633748E+03</rscale>
<asrwt>0</asrwt>
<pdfrwt beam="1">  1        2 0.13103926E+00 0.87633748E+03</pdfrwt>
<pdfrwt beam="2">  1       -2 0.29900969E-01 0.87633748E+03</pdfrwt>
<totfact> 0.32703861E+02</totfact>
</mgrwt>
</event>
<event>
 4    1  0.2892809E-005  0.5415283E+03  0.7818608E-02  0.1003474E+00
         -2   -1    0    0    0  501 -0.00000000000E+00  0.00000000000E+00  0.33745451361E+02  0.33745451457E+02  0.25500000000E-02 0. -1.
          2   -1    0    0  501    0  0.00000000000E+00 -0.00000000000E+00 -0.21725364589E+04  0.21725364589E+04  0.25500000000E-02 0.  1.
    5000001    1    1    2    0    0  0.17869014321E+03  0.66535460923E+02 -0.10302985476E+04  0.10652399880E+04  0.19200000000E+03 0.  0.
   -5000001    1    1    2    0    0 -0.17869014321E+03 -0.66535460923E+02 -0.11084924599E+04  0.11410419224E+04  0.19200000000E+03 0.  0.
<mgrwt>
<rscale>  0 0.54152829E+03</rscale>
<asrwt>0</asrwt>
<pdfrwt beam="1">  1        2 0.31036226E+00 0.54152829E+03</pdfrwt>
<pdfrwt beam="2">  1       -2 0.48207801E-02 0.54152829E+03</pdfrwt>
<totfact> 0.14780203E+03</totfact>
</mgrwt>
</event>
<event>
 4    1  0.2892809E-005  0.6900694E+03  0.7818608E-02  0.9734367E-01
          2   -1    0    0  501    0  0.00000000000E+00  0.00000000000E+00  0.12703212595E+04  0.12703212595E+04  0.25500000000E-02 0.  1.
         -2   -1    0    0    0  501 -0.00000000000E+00 -0.00000000000E+00 -0.93715624131E+02  0.93715624166E+02  0.25500000000E-02 0. -1.
    5000001    1    1    2    0    0  0.17546498781E+03 -0.21669263926E+03  0.45657187646E+03  0.56838854689E+03  0.19200000000E+03 0.  0.
   -5000001    1    1    2    0    0 -0.17546498781E+03  0.21669263926E+03  0.72003375890E+03  0.79564833677E+03  0.19200000000E+03 0.  0.
<mgrwt>
<rscale>  0 0.69006942E+03</rscale>
<asrwt>0</asrwt>
<pdfrwt beam="1">  1        2 0.18147446E+00 0.69006942E+03</pdfrwt>
<pdfrwt beam="2">  1       -2 0.13387947E-01 0.69006942E+03</pdfrwt>
<totfact> 0.83386664E+02</totfact>
</mgrwt>
</event>
<event>
 4    1  0.2892809E-005  0.7360751E+03  0.7818608E-02  0.9657453E-01
          2   -1    0    0  501    0  0.00000000000E+00  0.00000000000E+00  0.11546766521E+04  0.11546766521E+04  0.25500000000E-02 0.  1.
         -2   -1    0    0    0  501 -0.00000000000E+00 -0.00000000000E+00 -0.11730698871E+03  0.11730698874E+03  0.25500000000E-02 0. -1.
    5000001    1    1    2    0    0 -0.52260855749E+01  0.70109202199E+02 -0.10127724442E+02  0.20471732464E+03  0.19200000000E+03 0.  0.
   -5000001    1    1    2    0    0  0.52260855749E+01 -0.70109202199E+02  0.10474973878E+04  0.10672663162E+04  0.19200000000E+03 0.  0.
<mgrwt>
<rscale>  0 0.73607511E+03</rscale>
<asrwt>0</asrwt>
<pdfrwt beam="1">  1        2 0.16495381E+00 0.73607511E+03</pdfrwt>
<pdfrwt beam="2">  1       -2 0.16758141E-01 0.73607511E+03</pdfrwt>
<totfact> 0.66158454E+02</totfact>
</mgrwt>
</event>
<event>
 4    1  0.2892809E-005  0.4748545E+03  0.7818608E-02  0.1020559E+00
          2   -1    0    0  501    0  0.00000000000E+00  0.00000000000E+00  0.34505852808E+03  0.34505852809E+03  0.25500000000E-02 0.  1.
         -2   -1    0    0    0  501 -0.00000000000E+00 -0.00000000000E+00 -0.16336852966E+03  0.16336852968E+03  0.25500000000E-02 0. -1.
    5000001    1    1    2    0    0 -0.12644893113E+03 -0.79876934857E+01  0.27913944658E+02  0.23172467227E+03  0.19200000000E+03 0.  0.
   -5000001    1    1    2    0    0  0.12644893113E+03  0.79876934857E+01  0.15377605376E+03  0.27670238550E+03  0.19200000000E+03 0.  0.
<mgrwt>
<rscale>  0 0.47485452E+03</rscale>
<asrwt>0</asrwt>
<pdfrwt beam="1">  1        2 0.49294075E-01 0.47485452E+03</pdfrwt>
<pdfrwt beam="2">  1       -2 0.23338361E-01 0.47485452E+03</pdfrwt>
<totfact> 0.16472292E+03</totfact>
</mgrwt>
</event>
<event>
 4    1  0.2892809E-005  0.1123652E+04  0.7818608E-02  0.9182441E-01
         -2   -1    0    0    0  501 -0.00000000000E+00  0.00000000000E+00  0.62382434791E+03  0.62382434792E+03  0.25500000000E-02 0.  1.
          2   -1    0    0  501    0  0.00000000000E+00 -0.00000000000E+00 -0.50598901324E+03  0.50598901324E+03  0.25500000000E-02 0. -1.
    5000001    1    1    2    0    0 -0.47855362497E+03  0.18511847304E+03  0.18410682136E+03  0.57796344408E+03  0.19200000000E+03 0.  0.
   -5000001    1    1    2    0    0  0.47855362497E+03 -0.18511847304E+03 -0.66271486683E+02  0.55184991707E+03  0.19200000000E+03 0.  0.
<mgrwt>
<rscale>  0 0.11236517E+04</rscale>
<asrwt>0</asrwt>
<pdfrwt beam="1">  1        2 0.72284145E-01 0.11236517E+04</pdfrwt>
<pdfrwt beam="2">  1       -2 0.89117764E-01 0.11236517E+04</pdfrwt>
<totfact> 0.71073155E+01</totfact>
</mgrwt>
</event>
<event>
 4    1  0.2892809E-005  0.5124669E+03  0.7818608E-02  0.1010575E+00
         -2   -1    0    0    0  501 -0.00000000000E+00  0.00000000000E+00  0.63939714154E+02  0.63939714205E+02  0.25500000000E-02 0. -1.
          2   -1    0    0  501    0  0.00000000000E+00 -0.00000000000E+00 -0.10268357356E+04  0.10268357356E+04  0.25500000000E-02 0.  1.
    5000001    1    1    2    0    0 -0.16525700269E+03  0.30405748213E+02 -0.43120520247E+03  0.50103524137E+03  0.19200000000E+03 0.  0.
   -5000001    1    1    2    0    0  0.16525700269E+03 -0.30405748213E+02 -0.53169081902E+03  0.58974020848E+03  0.19200000000E+03 0.  0.
<mgrwt>
<rscale>  0 0.51246691E+03</rscale>
<asrwt>0</asrwt>
<pdfrwt beam="1">  1        2 0.14669081E+00 0.51246691E+03</pdfrwt>
<pdfrwt beam="2">  1       -2 0.91342455E-02 0.51246691E+03</pdfrwt>
<totfact> 0.21559694E+03</totfact>
</mgrwt>
</event>
<event>
 4    1  0.2892809E-005  0.1153686E+04  0.7818608E-02  0.9154390E-01
          2   -1    0    0  501    0  0.00000000000E+00  0.00000000000E+00  0.68421586314E+03  0.68421586315E+03  0.25500000000E-02 0.  1.
         -2   -1    0    0    0  501 -0.00000000000E+00 -0.00000000000E+00 -0.48631992625E+03  0.48631992626E+03  0.25500000000E-02 0. -1.
    5000001    1    1    2    0    0  0.14832831080E+02 -0.54371340836E+03  0.92569271368E+02  0.58418948408E+03  0.19200000000E+03 0.  0.
   -5000001    1    1    2    0    0 -0.14832831080E+02  0.54371340836E+03  0.10532666553E+03  0.58634630533E+03  0.19200000000E+03 0.  0.
<mgrwt>
<rscale>  0 0.11536859E+04</rscale>
<asrwt>0</asrwt>
<pdfrwt beam="1">  1        2 0.97745123E-01 0.11536859E+04</pdfrwt>
<pdfrwt beam="2">  1       -2 0.69474275E-01 0.11536859E+04</pdfrwt>
<totfact> 0.86674440E+01</totfact>
</mgrwt>
</event>
<event>
 4    1  0.2892809E-005  0.7144593E+03  0.7818608E-02  0.9692820E-01
          2   -1    0    0  501    0  0.00000000000E+00  0.00000000000E+00  0.11936051861E+04  0.11936051861E+04  0.25500000000E-02 0.  1.
         -2   -1    0    0    0  501 -0.00000000000E+00 -0.00000000000E+00 -0.10691392444E+03  0.10691392447E+03  0.25500000000E-02 0. -1.
    5000001    1    1    2    0    0  0.51095954974E+02  0.27667369415E+03  0.73931077114E+03  0.81400463510E+03  0.19200000000E+03 0.  0.
   -5000001    1    1    2    0    0 -0.51095954974E+02 -0.27667369415E+03  0.34738049051E+03  0.48651447547E+03  0.19200000000E+03 0.  0.
<mgrwt>
<rscale>  0 0.71445928E+03</rscale>
<asrwt>0</asrwt>
<pdfrwt beam="1">  1        2 0.17051502E+00 0.71445928E+03</pdfrwt>
<pdfrwt beam="2">  1       -2 0.15273418E-01 0.71445928E+03</pdfrwt>
<totfact> 0.73677935E+02</totfact>
</mgrwt>
</event>
<event>
 4    1  0.2892809E-005  0.4721418E+03  0.7818608E-02  0.1021317E+00
         -2   -1    0    0    0  501 -0.00000000000E+00  0.00000000000E+00  0.72321238886E+02  0.72321238931E+02  0.25500000000E-02 0. -1.
          2   -1    0    0  501    0  0.00000000000E+00 -0.00000000000E+00 -0.77058246029E+03  0.77058246029E+03  0.25500000000E-02 0.  1.
    5000001    1    1    2    0    0 -0.45489823749E+02 -0.12956341544E+03 -0.35462610996E+03  0.42600431988E+03  0.19200000000E+03 0.  0.
   -5000001    1    1    2    0    0  0.45489823749E+02  0.12956341544E+03 -0.34363511144E+03  0.41689937935E+03  0.19200000000E+03 0.  0.
<mgrwt>
<rscale>  0 0.47214184E+03</rscale>
<asrwt>0</asrwt>
<pdfrwt beam="1">  1        2 0.11008320E+00 0.47214184E+03</pdfrwt>
<pdfrwt beam="2">  1       -2 0.10331606E-01 0.47214184E+03</pdfrwt>
<totfact> 0.25861010E+03</totfact>
</mgrwt>
</event>
<event>
 4    1  0.2892809E-005  0.4671715E+03  0.7818608E-02  0.1022722E+00
          2   -1    0    0  501    0  0.00000000000E+00  0.00000000000E+00  0.17179557280E+03  0.17179557282E+03  0.25500000000E-02 0.  1.
         -2   -1    0    0    0  501 -0.00000000000E+00 -0.00000000000E+00 -0.31760023270E+03  0.31760023271E+03  0.25500000000E-02 0. -1.
    5000001    1    1    2    0    0  0.12632510409E+03  0.35130429656E+01 -0.11644832817E+03  0.25767147015E+03  0.19200000000E+03 0.  0.
   -5000001    1    1    2    0    0 -0.12632510409E+03 -0.35130429656E+01 -0.29356331729E+02  0.23172433538E+03  0.19200000000E+03 0.  0.
<mgrwt>
<rscale>  0 0.46717155E+03</rscale>
<asrwt>0</asrwt>
<pdfrwt beam="1">  1        2 0.24542225E-01 0.46717155E+03</pdfrwt>
<pdfrwt beam="2">  1       -2 0.45371462E-01 0.46717155E+03</pdfrwt>
<totfact> 0.10322277E+03</totfact>
</mgrwt>
</event>
<event>
 4    1  0.2892809E-005  0.6458568E+03  0.7818608E-02  0.9814585E-01
         -2   -1    0    0    0  501 -0.00000000000E+00  0.00000000000E+00  0.12830903542E+03  0.12830903545E+03  0.25500000000E-02 0. -1.
          2   -1    0    0  501    0  0.00000000000E+00 -0.00000000000E+00 -0.81274683417E+03  0.81274683418E+03  0.25500000000E-02 0.  1.
    5000001    1    1    2    0    0 -0.17912327951E+03 -0.18032850263E+03 -0.41952916887E+03  0.52675633993E+03  0.19200000000E+03 0.  0.
   -5000001    1    1    2    0    0  0.17912327951E+03  0.18032850263E+03 -0.26490862988E+03  0.41429952970E+03  0.19200000000E+03 0.  0.
<mgrwt>
<rscale>  0 0.64585683E+03</rscale>
<asrwt>0</asrwt>
<pdfrwt beam="1">  1        2 0.11610669E+00 0.64585683E+03</pdfrwt>
<pdfrwt beam="2">  1       -2 0.18329863E-01 0.64585683E+03</pdfrwt>
<totfact> 0.92816991E+02</totfact>
</mgrwt>
</event>
<event>
 4    1  0.2892809E-005  0.5221845E+03  0.7818608E-02  0.1008145E+00
          2   -1    0    0  501    0  0.00000000000E+00  0.00000000000E+00  0.22782003053E+04  0.22782003053E+04  0.25500000000E-02 0.  1.
         -2   -1    0    0    0  501 -0.00000000000E+00 -0.00000000000E+00 -0.29922371020E+02  0.29922371129E+02  0.25500000000E-02 0. -1.
    5000001    1    1    2    0    0 -0.90057842744E+02  0.47929914866E+02  0.17631108103E+04  0.17764659921E+04  0.19200000000E+03 0.  0.
   -5000001    1    1    2    0    0  0.90057842744E+02 -0.47929914866E+02  0.48516712402E+03  0.53165668435E+03  0.19200000000E+03 0.  0.
<mgrwt>
<rscale>  0 0.52218447E+03</rscale>
<asrwt>0</asrwt>
<pdfrwt beam="1">  1        2 0.32545726E+00 0.52218447E+03</pdfrwt>
<pdfrwt beam="2">  1       -2 0.42746235E-02 0.52218447E+03</pdfrwt>
<totfact> 0.15758772E+03</totfact>
</mgrwt>
</event>
<event>
 4    1  0.2892809E-005  0.5403551E+03  0.7818608E-02  0.1003751E+00
          2   -1    0    0  501    0  0.00000000000E+00  0.00000000000E+00  0.11883003384E+04  0.11883003384E+04  0.25500000000E-02 0.  1.
         -2   -1    0    0    0  501 -0.00000000000E+00 -0.00000000000E+00 -0.61428839427E+02  0.61428839480E+02  0.25500000000E-02 0. -1.
    5000001    1    1    2    0    0 -0.12134640508E+03  0.78798741994E+02  0.27831695070E+03  0.36777508998E+03  0.19200000000E+03 0.  0.
   -5000001    1    1    2    0    0  0.12134640508E+03 -0.78798741994E+02  0.84855454825E+03  0.88195408787E+03  0.19200000000E+03 0.  0.
<mgrwt>
<rscale>  0 0.54035511E+03</rscale>
<asrwt>0</asrwt>
<pdfrwt beam="1">  1        2 0.16975719E+00 0.54035511E+03</pdfrwt>
<pdfrwt beam="2">  1       -2 0.87755487E-02 0.54035511E+03</pdfrwt>
<totfact> 0.18539011E+03</totfact>
</mgrwt>
</event>
<event>
 4    1  0.2892809E-005  0.9360673E+03  0.7818608E-02  0.9381586E-01
          2   -1    0    0  501    0  0.00000000000E+00  0.00000000000E+00  0.16757986190E+04  0.16757986190E+04  0.25500000000E-02 0.  1.
         -2   -1    0    0    0  501 -0.00000000000E+00 -0.00000000000E+00 -0.13071708722E+03  0.13071708724E+03  0.25500000000E-02 0. -1.
    5000001    1    1    2    0    0 -0.36566892811E+03 -0.20310493062E+03  0.60848642371E+03  0.76294502139E+03  0.19200000000E+03 0.  0.
   -5000001    1    1    2    0    0  0.36566892811E+03  0.20310493062E+03  0.93659510809E+03  0.10435706849E+04  0.19200000000E+03 0.  0.
<mgrwt>
<rscale>  0 0.93606734E+03</rscale>
<asrwt>0</asrwt>
<pdfrwt beam="1">  1        2 0.23939977E+00 0.93606734E+03</pdfrwt>
<pdfrwt beam="2">  1       -2 0.18673872E-01 0.93606734E+03</pdfrwt>
<totfact> 0.28473579E+02</totfact>
</mgrwt>
</event>
<event>
 4    1  0.2892809E-005  0.7212315E+03  0.7818608E-02  0.9681597E-01
         -2   -1    0    0    0  501 -0.00000000000E+00  0.00000000000E+00  0.13300783596E+03  0.13300783598E+03  0.25500000000E-02 0. -1.
          2   -1    0    0  501    0  0.00000000000E+00 -0.00000000000E+00 -0.97771464136E+03  0.97771464137E+03  0.25500000000E-02 0.  1.
    5000001    1    1    2    0    0  0.23660543691E+03 -0.12897237716E+03 -0.64319533606E+03  0.72331199850E+03  0.19200000000E+03 0.  0.
   -5000001    1    1    2    0    0 -0.23660543691E+03  0.12897237716E+03 -0.20151146935E+03  0.38741047885E+03  0.19200000000E+03 0.  0.
<mgrwt>
<rscale>  0 0.72123147E+03</rscale>
<asrwt>0</asrwt>
<pdfrwt beam="1">  1        2 0.13967352E+00 0.72123147E+03</pdfrwt>
<pdfrwt beam="2">  1       -2 0.19001120E-01 0.72123147E+03</pdfrwt>
<totfact> 0.67944383E+02</totfact>
</mgrwt>
</event>
<event>
 4    1  0.2892809E-005  0.6070586E+03  0.7818608E-02  0.9890869E-01
          2   -1    0    0  501    0  0.00000000000E+00  0.00000000000E+00  0.24281356624E+03  0.24281356625E+03  0.25500000000E-02 0.  1.
         -2   -1    0    0    0  501 -0.00000000000E+00 -0.00000000000E+00 -0.37942708384E+03  0.37942708385E+03  0.25500000000E-02 0. -1.
    5000001    1    1    2    0    0  0.20116279690E+03 -0.99894584556E+02  0.28605098037E+01  0.29549548456E+03  0.19200000000E+03 0.  0.
   -5000001    1    1    2    0    0 -0.20116279690E+03  0.99894584556E+02 -0.13947402740E+03  0.32674516554E+03  0.19200000000E+03 0.  0.
<mgrwt>
<rscale>  0 0.60705862E+03</rscale>
<asrwt>0</asrwt>
<pdfrwt beam="1">  1        2 0.34687652E-01 0.60705862E+03</pdfrwt>
<pdfrwt beam="2">  1       -2 0.54203869E-01 0.60705862E+03</pdfrwt>
<totfact> 0.48814708E+02</totfact>
</mgrwt>
</event>
<event>
 4    1  0.2892809E-005  0.5198048E+03  0.7818608E-02  0.1008735E+00
          2   -1    0    0  501    0  0.00000000000E+00  0.00000000000E+00  0.78083102322E+03  0.78083102322E+03  0.25500000000E-02 0.  1.
         -2   -1    0    0    0  501 -0.00000000000E+00 -0.00000000000E+00 -0.86509443275E+02  0.86509443313E+02  0.25500000000E-02 0. -1.
    5000001    1    1    2    0    0  0.16663152297E+03  0.40953086168E+02  0.28835546369E+03  0.38659551621E+03  0.19200000000E+03 0.  0.
   -5000001    1    1    2    0    0 -0.16663152297E+03 -0.40953086168E+02  0.40596611625E+03  0.48074495032E+03  0.19200000000E+03 0.  0.
<mgrwt>
<rscale>  0 0.51980480E+03</rscale>
<asrwt>0</asrwt>
<pdfrwt beam="1">  1        2 0.11154729E+00 0.51980480E+03</pdfrwt>
<pdfrwt beam="2">  1       -2 0.12358492E-01 0.51980480E+03</pdfrwt>
<totfact> 0.18997979E+03</totfact>
</mgrwt>
</event>
<event>
 4    1  0.2892809E-005  0.4571364E+03  0.7818608E-02  0.1025615E+00
          2   -1    0    0  501    0  0.00000000000E+00  0.00000000000E+00  0.15448529361E+04  0.15448529361E+04  0.25500000000E-02 0. -1.
         -2   -1    0    0    0  501 -0.00000000000E+00 -0.00000000000E+00 -0.33817736854E+02  0.33817736950E+02  0.25500000000E-02 0.  1.
    5000001    1    1    2    0    0  0.43498401109E+02  0.10844210825E+03  0.89905691549E+03  0.92672495328E+03  0.19200000000E+03 0.  0.
   -5000001    1    1    2    0    0 -0.43498401109E+02 -0.10844210825E+03  0.61197828376E+03  0.65194571977E+03  0.19200000000E+03 0.  0.
<mgrwt>
<rscale>  0 0.45713644E+03</rscale>
<asrwt>0</asrwt>
<pdfrwt beam="1">  1        2 0.22069335E+00 0.45713644E+03</pdfrwt>
<pdfrwt beam="2">  1       -2 0.48311036E-02 0.45713644E+03</pdfrwt>
<totfact> 0.30545703E+03</totfact>
</mgrwt>
</event>
<event>
 4    1  0.2892809E-005  0.7126930E+03  0.7818608E-02  0.9695768E-01
          2   -1    0    0  501    0  0.00000000000E+00  0.00000000000E+00  0.23579950855E+04  0.23579950855E+04  0.25500000000E-02 0.  1.
         -2   -1    0    0    0  501 -0.00000000000E+00 -0.00000000000E+00 -0.53852034190E+02  0.53852034250E+02  0.25500000000E-02 0. -1.
    5000001    1    1    2    0    0  0.57069700648E+01 -0.28638456507E+03  0.14560815485E+04  0.14963576326E+04  0.19200000000E+03 0.  0.
   -5000001    1    1    2    0    0 -0.57069700648E+01  0.28638456507E+03  0.84806150278E+03  0.91548948717E+03  0.19200000000E+03 0.  0.
<mgrwt>
<rscale>  0 0.71269301E+03</rscale>
<asrwt>0</asrwt>
<pdfrwt beam="1">  1        2 0.33685644E+00 0.71269301E+03</pdfrwt>
<pdfrwt beam="2">  1       -2 0.76931478E-02 0.71269301E+03</pdfrwt>
<totfact> 0.56552534E+02</totfact>
</mgrwt>
</event>
<event>
 4    1  0.2892809E-005  0.4382989E+03  0.7818608E-02  0.1031270E+00
         -2   -1    0    0    0  501 -0.00000000000E+00  0.00000000000E+00  0.81042609375E+02  0.81042609415E+02  0.25500000000E-02 0.  1.
          2   -1    0    0  501    0  0.00000000000E+00 -0.00000000000E+00 -0.59260782051E+03  0.59260782051E+03  0.25500000000E-02 0. -1.
    5000001    1    1    2    0    0  0.10241597146E+03  0.18259081259E+02 -0.22743990361E+03  0.31530197433E+03  0.19200000000E+03 0.  0.
   -5000001    1    1    2    0    0 -0.10241597146E+03 -0.18259081259E+02 -0.28412530752E+03  0.35834845560E+03  0.19200000000E+03 0.  0.
<mgrwt>
<rscale>  0 0.43829891E+03</rscale>
<asrwt>0</asrwt>
<pdfrwt beam="1">  1        2 0.84658257E-01 0.43829891E+03</pdfrwt>
<pdfrwt beam="2">  1       -2 0.11577516E-01 0.43829891E+03</pdfrwt>
<totfact> 0.29454910E+03</totfact>
</mgrwt>
</event>
<event>
 4    1  0.2892809E-005  0.6225623E+03  0.7818608E-02  0.9859671E-01
          2   -1    0    0  501    0  0.00000000000E+00  0.00000000000E+00  0.20693255036E+04  0.20693255036E+04  0.25500000000E-02 0.  1.
         -2   -1    0    0    0  501 -0.00000000000E+00 -0.00000000000E+00 -0.46824893794E+02  0.46824893863E+02  0.25500000000E-02 0. -1.
    5000001    1    1    2    0    0  0.14044648238E+03 -0.53610841623E+02  0.35360945026E+03  0.42953810083E+03  0.19200000000E+03 0.  0.
   -5000001    1    1    2    0    0 -0.14044648238E+03  0.53610841623E+02  0.16688911595E+04  0.16866122966E+04  0.19200000000E+03 0.  0.
<mgrwt>
<rscale>  0 0.62256228E+03</rscale>
<asrwt>0</asrwt>
<pdfrwt beam="1">  1        2 0.29561796E+00 0.62256228E+03</pdfrwt>
<pdfrwt beam="2">  1       -2 0.66892700E-02 0.62256228E+03</pdfrwt>
<totfact> 0.99422944E+02</totfact>
</mgrwt>
</event>
<event>
 4    1  0.2892809E-005  0.5881932E+03  0.7818608E-02  0.9930209E-01
         -2   -1    0    0    0  501 -0.00000000000E+00  0.00000000000E+00  0.30856425304E+02  0.30856425409E+02  0.25500000000E-02 0. -1.
          2   -1    0    0  501    0  0.00000000000E+00 -0.00000000000E+00 -0.28030732907E+04  0.28030732907E+04  0.25500000000E-02 0.  1.
    5000001    1    1    2    0    0  0.67874439687E+02 -0.21202760017E+03 -0.14253032867E+04  0.14553061883E+04  0.19200000000E+03 0.  0.
   -5000001    1    1    2    0    0 -0.67874439687E+02  0.21202760017E+03 -0.13469135787E+04  0.13786235278E+04  0.19200000000E+03 0.  0.
<mgrwt>
<rscale>  0 0.58819324E+03</rscale>
<asrwt>0</asrwt>
<pdfrwt beam="1">  1        2 0.40043888E+00 0.58819324E+03</pdfrwt>
<pdfrwt beam="2">  1       -2 0.44080625E-02 0.58819324E+03</pdfrwt>
<totfact> 0.80319715E+02</totfact>
</mgrwt>
</event>
<event>
 4    1  0.2892809E-005  0.4455940E+03  0.7818608E-02  0.1029044E+00
          2   -1    0    0  501    0  0.00000000000E+00  0.00000000000E+00  0.72319936192E+02  0.72319936237E+02  0.25500000000E-02 0.  1.
         -2   -1    0    0    0  501 -0.00000000000E+00 -0.00000000000E+00 -0.68637359204E+03  0.68637359205E+03  0.25500000000E-02 0. -1.
    5000001    1    1    2    0    0  0.65743802937E+02 -0.51290907428E+02 -0.43693729561E+03  0.48449066566E+03  0.19200000000E+03 0.  0.
   -5000001    1    1    2    0    0 -0.65743802937E+02  0.51290907428E+02 -0.17711636023E+03  0.27420286263E+03  0.19200000000E+03 0.  0.
<mgrwt>
<rscale>  0 0.44559396E+03</rscale>
<asrwt>0</asrwt>
<pdfrwt beam="1">  1        2 0.10331420E-01 0.44559396E+03</pdfrwt>
<pdfrwt beam="2">  1       -2 0.98053367E-01 0.44559396E+03</pdfrwt>
<totfact> 0.55595058E+02</totfact>
</mgrwt>
</event>
<event>
 4    1  0.2892809E-005  0.7859208E+03  0.7818608E-02  0.9580623E-01
          2   -1    0    0  501    0  0.00000000000E+00  0.00000000000E+00  0.13778209981E+04  0.13778209981E+04  0.25500000000E-02 0.  1.
         -2   -1    0    0    0  501 -0.00000000000E+00 -0.00000000000E+00 -0.11207398272E+03  0.11207398275E+03  0.25500000000E-02 0. -1.
    5000001    1    1    2    0    0 -0.28450456527E+03 -0.16739911370E+03  0.45718739387E+03  0.59569255832E+03  0.19200000000E+03 0.  0.
   -5000001    1    1    2    0    0  0.28450456527E+03  0.16739911370E+03  0.80855962147E+03  0.89420242250E+03  0.19200000000E+03 0.  0.
<mgrwt>
<rscale>  0 0.78592083E+03</rscale>
<asrwt>0</asrwt>
<pdfrwt beam="1">  1        2 0.19683157E+00 0.78592083E+03</pdfrwt>
<pdfrwt beam="2">  1       -2 0.16010569E-01 0.78592083E+03</pdfrwt>
<totfact> 0.53676314E+02</totfact>
</mgrwt>
</event>
<event>
 4    1  0.2892809E-005  0.6717465E+03  0.7818608E-02  0.9766808E-01
          2   -1    0    0  501    0  0.00000000000E+00  0.00000000000E+00  0.42919978591E+03  0.42919978592E+03  0.25500000000E-02 0.  1.
         -2   -1    0    0    0  501 -0.00000000000E+00 -0.00000000000E+00 -0.26283992385E+03  0.26283992387E+03  0.25500000000E-02 0. -1.
    5000001    1    1    2    0    0  0.66670422895E+02 -0.16107666815E+03 -0.13670696765E+03  0.29316110471E+03  0.19200000000E+03 0.  0.
   -5000001    1    1    2    0    0 -0.66670422895E+02  0.16107666815E+03  0.30306682971E+03  0.39887860507E+03  0.19200000000E+03 0.  0.
<mgrwt>
<rscale>  0 0.67174650E+03</rscale>
<asrwt>0</asrwt>
<pdfrwt beam="1">  1        2 0.61314254E-01 0.67174650E+03</pdfrwt>
<pdfrwt beam="2">  1       -2 0.37548561E-01 0.67174650E+03</pdfrwt>
<totfact> 0.53776628E+02</totfact>
</mgrwt>
</event>
<event>
 4    1  0.2892809E-005  0.9204131E+03  0.7818608E-02  0.9400418E-01
          2   -1    0    0  501    0  0.00000000000E+00  0.00000000000E+00  0.89288669243E+03  0.89288669243E+03  0.25500000000E-02 0.  1.
         -2   -1    0    0    0  501 -0.00000000000E+00 -0.00000000000E+00 -0.23719700970E+03  0.23719700971E+03  0.25500000000E-02 0. -1.
    5000001    1    1    2    0    0  0.41201459184E+03  0.69168051964E+02  0.30372832017E+03  0.55104912283E+03  0.19200000000E+03 0.  0.
   -5000001    1    1    2    0    0 -0.41201459184E+03 -0.69168051964E+02  0.35196136256E+03  0.57903457931E+03  0.19200000000E+03 0.  0.
<mgrwt>
<rscale>  0 0.92041307E+03</rscale>
<asrwt>0</asrwt>
<pdfrwt beam="1">  1        2 0.12755524E+00 0.92041307E+03</pdfrwt>
<pdfrwt beam="2">  1       -2 0.33885287E-01 0.92041307E+03</pdfrwt>
<totfact> 0.26771260E+02</totfact>
</mgrwt>
</event>
<event>
 4    1  0.2892809E-005  0.7173021E+03  0.7818608E-02  0.9688092E-01
          2   -1    0    0  501    0  0.00000000000E+00  0.00000000000E+00  0.31179122957E+04  0.31179122957E+04  0.25500000000E-02 0. -1.
         -2   -1    0    0    0  501 -0.00000000000E+00 -0.00000000000E+00 -0.41255356894E+02  0.41255356972E+02  0.25500000000E-02 0.  1.
    5000001    1    1    2    0    0  0.87723305350E+01 -0.27238781204E+03  0.21208627088E+04  0.21469035152E+04  0.19200000000E+03 0.  0.
   -5000001    1    1    2    0    0 -0.87723305350E+01  0.27238781204E+03  0.95579422996E+03  0.10122641374E+04  0.19200000000E+03 0.  0.
<mgrwt>
<rscale>  0 0.71730213E+03</rscale>
<asrwt>0</asrwt>
<pdfrwt beam="1">  1        2 0.44541609E+00 0.71730213E+03</pdfrwt>
<pdfrwt beam="2">  1       -2 0.58936218E-02 0.71730213E+03</pdfrwt>
<totfact> 0.34079655E+02</totfact>
</mgrwt>
</event>
<event>
 4    1  0.2892809E-005  0.6453453E+03  0.7818608E-02  0.9815553E-01
          2   -1    0    0  501    0  0.00000000000E+00  0.00000000000E+00  0.12368240795E+04  0.12368240795E+04  0.25500000000E-02 0.  1.
         -2   -1    0    0    0  501 -0.00000000000E+00 -0.00000000000E+00 -0.84181435404E+02  0.84181435443E+02  0.25500000000E-02 0. -1.
    5000001    1    1    2    0    0  0.20100503762E+03  0.34109434810E+02  0.90439428959E+03  0.94676264699E+03  0.19200000000E+03 0.  0.
   -5000001    1    1    2    0    0 -0.20100503762E+03 -0.34109434810E+02  0.24824835447E+03  0.37424286792E+03  0.19200000000E+03 0.  0.
<mgrwt>
<rscale>  0 0.64534526E+03</rscale>
<asrwt>0</asrwt>
<pdfrwt beam="1">  1        2 0.17668916E+00 0.64534526E+03</pdfrwt>
<pdfrwt beam="2">  1       -2 0.12025919E-01 0.64534526E+03</pdfrwt>
<totfact> 0.10413501E+03</totfact>
</mgrwt>
</event>
<event>
 4    1  0.2892809E-005  0.6540853E+03  0.7818608E-02  0.9799144E-01
          2   -1    0    0  501    0  0.00000000000E+00  0.00000000000E+00  0.23860516228E+04  0.23860516228E+04  0.25500000000E-02 0.  1.
         -2   -1    0    0    0  501 -0.00000000000E+00 -0.00000000000E+00 -0.44825888813E+02  0.44825888885E+02  0.25500000000E-02 0. -1.
    5000001    1    1    2    0    0 -0.79817841978E+02 -0.24037885144E+03  0.14570452410E+04  0.14913073843E+04  0.19200000000E+03 0.  0.
   -5000001    1    1    2    0    0  0.79817841978E+02  0.24037885144E+03  0.88418049301E+03  0.93957012742E+03  0.19200000000E+03 0.  0.
<mgrwt>
<rscale>  0 0.65408527E+03</rscale>
<asrwt>0</asrwt>
<pdfrwt beam="1">  1        2 0.34086441E+00 0.65408527E+03</pdfrwt>
<pdfrwt beam="2">  1       -2 0.64037004E-02 0.65408527E+03</pdfrwt>
<totfact> 0.73497365E+02</totfact>
</mgrwt>
</event>
<event>
 4    1  0.2892809E-005  0.6025880E+03  0.7818608E-02  0.9900051E-01
         -2   -1    0    0    0  501 -0.00000000000E+00  0.00000000000E+00  0.18336327731E+03  0.18336327732E+03  0.25500000000E-02 0. -1.
          2   -1    0    0  501    0  0.00000000000E+00 -0.00000000000E+00 -0.49507235138E+03  0.49507235139E+03  0.25500000000E-02 0.  1.
    5000001    1    1    2    0    0 -0.16057892046E+03  0.10916257511E+03 -0.12501515425E+02  0.27335388307E+03  0.19200000000E+03 0.  0.
   -5000001    1    1    2    0    0  0.16057892046E+03 -0.10916257511E+03 -0.29920755865E+03  0.40508174564E+03  0.19200000000E+03 0.  0.
<mgrwt>
<rscale>  0 0.60258805E+03</rscale>
<asrwt>0</asrwt>
<pdfrwt beam="1">  1        2 0.70724621E-01 0.60258805E+03</pdfrwt>
<pdfrwt beam="2">  1       -2 0.26194754E-01 0.60258805E+03</pdfrwt>
<totfact> 0.89662348E+02</totfact>
</mgrwt>
</event>
<event>
 4    1  0.2892809E-005  0.7180825E+03  0.7818608E-02  0.9686799E-01
         -2   -1    0    0    0  501 -0.00000000000E+00  0.00000000000E+00  0.12547595488E+03  0.12547595491E+03  0.25500000000E-02 0. -1.
          2   -1    0    0  501    0  0.00000000000E+00 -0.00000000000E+00 -0.10273729461E+04  0.10273729461E+04  0.25500000000E-02 0.  1.
    5000001    1    1    2    0    0 -0.23222722029E+03 -0.12298050123E+03 -0.69439026867E+03  0.76687386886E+03  0.19200000000E+03 0.  0.
   -5000001    1    1    2    0    0  0.23222722029E+03  0.12298050123E+03 -0.20750672253E+03  0.38597503212E+03  0.19200000000E+03 0.  0.
<mgrwt>
<rscale>  0 0.71808245E+03</rscale>
<asrwt>0</asrwt>
<pdfrwt beam="1">  1        2 0.14676756E+00 0.71808245E+03</pdfrwt>
<pdfrwt beam="2">  1       -2 0.17925137E-01 0.71808245E+03</pdfrwt>
<totfact> 0.70076292E+02</totfact>
</mgrwt>
</event>
<event>
 4    1  0.2892809E-005  0.5164284E+03  0.7818608E-02  0.1009578E+00
          2   -1    0    0  501    0  0.00000000000E+00  0.00000000000E+00  0.75757210711E+02  0.75757210754E+02  0.25500000000E-02 0.  1.
         -2   -1    0    0    0  501 -0.00000000000E+00 -0.00000000000E+00 -0.88010870728E+03  0.88010870728E+03  0.25500000000E-02 0. -1.
    5000001    1    1    2    0    0 -0.57006161612E+02  0.16196950145E+03 -0.36871770196E+03  0.44977835163E+03  0.19200000000E+03 0.  0.
   -5000001    1    1    2    0    0  0.57006161612E+02 -0.16196950145E+03 -0.43563379461E+03  0.50608756640E+03  0.19200000000E+03 0.  0.
<mgrwt>
<rscale>  0 0.51642843E+03</rscale>
<asrwt>0</asrwt>
<pdfrwt beam="1">  1        2 0.10822459E-01 0.51642843E+03</pdfrwt>
<pdfrwt beam="2">  1       -2 0.12572981E+00 0.51642843E+03</pdfrwt>
<totfact> 0.28794176E+02</totfact>
</mgrwt>
</event>
<event>
 4    1  0.2892809E-005  0.6221382E+03  0.7818608E-02  0.9860512E-01
         -2   -1    0    0    0  501 -0.00000000000E+00  0.00000000000E+00  0.12075277415E+03  0.12075277417E+03  0.25500000000E-02 0. -1.
          2   -1    0    0  501    0  0.00000000000E+00 -0.00000000000E+00 -0.80133965689E+03  0.80133965689E+03  0.25500000000E-02 0.  1.
    5000001    1    1    2    0    0  0.16606102783E+03  0.74914622821E+02 -0.58252844146E+03  0.63983736276E+03  0.19200000000E+03 0.  0.
   -5000001    1    1    2    0    0 -0.16606102783E+03 -0.74914622821E+02 -0.98058441282E+02  0.28225506830E+03  0.19200000000E+03 0.  0.
<mgrwt>
<rscale>  0 0.62213821E+03</rscale>
<asrwt>0</asrwt>
<pdfrwt beam="1">  1        2 0.11447709E+00 0.62213821E+03</pdfrwt>
<pdfrwt beam="2">  1       -2 0.17250397E-01 0.62213821E+03</pdfrwt>
<totfact> 0.10495569E+03</totfact>
</mgrwt>
</event>
<event>
 4    1  0.2892809E-005  0.6207373E+03  0.7818608E-02  0.9863293E-01
          2   -1    0    0  501    0  0.00000000000E+00  0.00000000000E+00  0.19746465175E+04  0.19746465175E+04  0.25500000000E-02 0.  1.
         -2   -1    0    0    0  501 -0.00000000000E+00 -0.00000000000E+00 -0.48782759732E+02  0.48782759799E+02  0.25500000000E-02 0. -1.
    5000001    1    1    2    0    0  0.21899984163E+03 -0.10721720102E+03  0.95357026217E+03  0.10028044195E+04  0.19200000000E+03 0.  0.
   -5000001    1    1    2    0    0 -0.21899984163E+03  0.10721720102E+03  0.97229349565E+03  0.10206248579E+04  0.19200000000E+03 0.  0.
<mgrwt>
<rscale>  0 0.62073733E+03</rscale>
<asrwt>0</asrwt>
<pdfrwt beam="1">  1        2 0.28209231E+00 0.62073733E+03</pdfrwt>
<pdfrwt beam="2">  1       -2 0.69689668E-02 0.62073733E+03</pdfrwt>
<totfact> 0.10400164E+03</totfact>
</mgrwt>
</event>
<event>
 4    1  0.2892809E-005  0.4692699E+03  0.7818608E-02  0.1022126E+00
         -2   -1    0    0    0  501 -0.00000000000E+00  0.00000000000E+00  0.14900885261E+03  0.14900885263E+03  0.25500000000E-02 0. -1.
          2   -1    0    0  501    0  0.00000000000E+00 -0.00000000000E+00 -0.36946498453E+03  0.36946498454E+03  0.25500000000E-02 0.  1.
    5000001    1    1    2    0    0 -0.77395610780E+02 -0.10418203565E+03 -0.15075636148E+03  0.27646963241E+03  0.19200000000E+03 0.  0.
   -5000001    1    1    2    0    0  0.77395610780E+02  0.10418203565E+03 -0.69699770446E+02  0.24200420476E+03  0.19200000000E+03 0.  0.
<mgrwt>
<rscale>  0 0.46926987E+03</rscale>
<asrwt>0</asrwt>
<pdfrwt beam="1">  1        2 0.52780712E-01 0.46926987E+03</pdfrwt>
<pdfrwt beam="2">  1       -2 0.21286979E-01 0.46926987E+03</pdfrwt>
<totfact> 0.17962254E+03</totfact>
</mgrwt>
</event>
<event>
 4    1  0.2892809E-005  0.4100521E+03  0.7818608E-02  0.1040354E+00
          2   -1    0    0  501    0  0.00000000000E+00  0.00000000000E+00  0.86695979471E+03  0.86695979471E+03  0.25500000000E-02 0.  1.
         -2   -1    0    0    0  501 -0.00000000000E+00 -0.00000000000E+00 -0.48486312912E+02  0.48486312979E+02  0.25500000000E-02 0. -1.
    5000001    1    1    2    0    0  0.26351744280E+02 -0.39229081364E+02  0.53025346493E+03  0.56592055301E+03  0.19200000000E+03 0.  0.
   -5000001    1    1    2    0    0 -0.26351744280E+02  0.39229081364E+02  0.28822001686E+03  0.34952555468E+03  0.19200000000E+03 0.  0.
<mgrwt>
<rscale>  0 0.41005211E+03</rscale>
<asrwt>0</asrwt>
<pdfrwt beam="1">  1        2 0.12385140E+00 0.41005211E+03</pdfrwt>
<pdfrwt beam="2">  1       -2 0.69266163E-02 0.41005211E+03</pdfrwt>
<totfact> 0.41961807E+03</totfact>
</mgrwt>
</event>
<event>
 4    1  0.2892809E-005  0.8647059E+03  0.7818608E-02  0.9470809E-01
          2   -1    0    0  501    0  0.00000000000E+00  0.00000000000E+00  0.17938846210E+04  0.17938846210E+04  0.25500000000E-02 0.  1.
         -2   -1    0    0    0  501 -0.00000000000E+00 -0.00000000000E+00 -0.10420350896E+03  0.10420350899E+03  0.25500000000E-02 0. -1.
    5000001    1    1    2    0    0  0.87011566949E+02 -0.32609400780E+03  0.12622311815E+04  0.13206058724E+04  0.19200000000E+03 0.  0.
   -5000001    1    1    2    0    0 -0.87011566949E+02  0.32609400780E+03  0.42744993055E+03  0.57748225759E+03  0.19200000000E+03 0.  0.
<mgrwt>
<rscale>  0 0.86470590E+03</rscale>
<asrwt>0</asrwt>
<pdfrwt beam="1">  1        2 0.25626920E+00 0.86470590E+03</pdfrwt>
<pdfrwt beam="2">  1       -2 0.14886217E-01 0.86470590E+03</pdfrwt>
<totfact> 0.36684015E+02</totfact>
</mgrwt>
</event>
<event>
 4    1  0.2892809E-005  0.4377186E+03  0.7818608E-02  0.1031449E+00
          2   -1    0    0  501    0  0.00000000000E+00  0.00000000000E+00  0.28889522293E+03  0.28889522294E+03  0.25500000000E-02 0.  1.
         -2   -1    0    0    0  501 -0.00000000000E+00 -0.00000000000E+00 -0.16580193442E+03  0.16580193444E+03  0.25500000000E-02 0. -1.
    5000001    1    1    2    0    0 -0.60501057575E+02  0.85605104030E+02  0.68651155522E+02  0.22927187564E+03  0.19200000000E+03 0.  0.
   -5000001    1    1    2    0    0  0.60501057575E+02 -0.85605104030E+02  0.54442132985E+02  0.22542528174E+03  0.19200000000E+03 0.  0.
<mgrwt>
<rscale>  0 0.43771857E+03</rscale>
<asrwt>0</asrwt>
<pdfrwt beam="1">  1        2 0.41270746E-01 0.43771857E+03</pdfrwt>
<pdfrwt beam="2">  1       -2 0.23685991E-01 0.43771857E+03</pdfrwt>
<totfact> 0.19477818E+03</totfact>
</mgrwt>
</event>
<event>
 4    1  0.2892809E-005  0.4536256E+03  0.7818608E-02  0.1026646E+00
         -2   -1    0    0    0  501 -0.00000000000E+00  0.00000000000E+00  0.21998103087E+03  0.21998103088E+03  0.25500000000E-02 0. -1.
          2   -1    0    0  501    0  0.00000000000E+00 -0.00000000000E+00 -0.23385672946E+03  0.23385672947E+03  0.25500000000E-02 0.  1.
    5000001    1    1    2    0    0 -0.82837745595E+02 -0.85222331086E+02 -0.28281055212E+02  0.22757143031E+03  0.19200000000E+03 0.  0.
   -5000001    1    1    2    0    0  0.82837745595E+02  0.85222331086E+02  0.14405356623E+02  0.22626633004E+03  0.19200000000E+03 0.  0.
<mgrwt>
<rscale>  0 0.45362559E+03</rscale>
<asrwt>0</asrwt>
<pdfrwt beam="1">  1        2 0.33408104E-01 0.45362559E+03</pdfrwt>
<pdfrwt beam="2">  1       -2 0.31425862E-01 0.45362559E+03</pdfrwt>
<totfact> 0.14741326E+03</totfact>
</mgrwt>
</event>
<event>
 4    1  0.2892809E-005  0.5139478E+03  0.7818608E-02  0.1010201E+00
         -2   -1    0    0    0  501 -0.00000000000E+00  0.00000000000E+00  0.42321377578E+02  0.42321377655E+02  0.25500000000E-02 0. -1.
          2   -1    0    0  501    0  0.00000000000E+00 -0.00000000000E+00 -0.15603363394E+04  0.15603363394E+04  0.25500000000E-02 0.  1.
    5000001    1    1    2    0    0 -0.51212362458E+02  0.12315304446E+03 -0.10916938257E+04  0.11164447087E+04  0.19200000000E+03 0.  0.
   -5000001    1    1    2    0    0  0.51212362458E+02 -0.12315304446E+03 -0.42632113612E+03  0.48621300839E+03  0.19200000000E+03 0.  0.
<mgrwt>
<rscale>  0 0.51394779E+03</rscale>
<asrwt>0</asrwt>
<pdfrwt beam="1">  1        2 0.22290516E+00 0.51394779E+03</pdfrwt>
<pdfrwt beam="2">  1       -2 0.60459121E-02 0.51394779E+03</pdfrwt>
<totfact> 0.21163282E+03</totfact>
</mgrwt>
</event>
<event>
 4    1  0.2892809E-005  0.4952057E+03  0.7818608E-02  0.1015038E+00
          2   -1    0    0  501    0  0.00000000000E+00  0.00000000000E+00  0.75549077301E+02  0.75549077344E+02  0.25500000000E-02 0.  1.
         -2   -1    0    0    0  501 -0.00000000000E+00 -0.00000000000E+00 -0.81148786851E+03  0.81148786851E+03  0.25500000000E-02 0. -1.
    5000001    1    1    2    0    0  0.92177071723E+02 -0.10207154640E+03 -0.50114909622E+03  0.55401230111E+03  0.19200000000E+03 0.  0.
   -5000001    1    1    2    0    0 -0.92177071723E+02  0.10207154640E+03 -0.23478969499E+03  0.33302464475E+03  0.19200000000E+03 0.  0.
<mgrwt>
<rscale>  0 0.49520565E+03</rscale>
<asrwt>0</asrwt>
<pdfrwt beam="1">  1        2 0.10792726E-01 0.49520565E+03</pdfrwt>
<pdfrwt beam="2">  1       -2 0.11592683E+00 0.49520565E+03</pdfrwt>
<totfact> 0.35300646E+02</totfact>
</mgrwt>
</event>
<event>
 4    1  0.2892809E-005  0.5065228E+03  0.7818608E-02  0.1012090E+00
         -2   -1    0    0    0  501 -0.00000000000E+00  0.00000000000E+00  0.64677075591E+02  0.64677075642E+02  0.25500000000E-02 0. -1.
          2   -1    0    0  501    0  0.00000000000E+00 -0.00000000000E+00 -0.99171655847E+03  0.99171655847E+03  0.25500000000E-02 0.  1.
    5000001    1    1    2    0    0 -0.12512708657E+02  0.12358561205E+03 -0.23651364564E+03  0.32898734924E+03  0.19200000000E+03 0.  0.
   -5000001    1    1    2    0    0  0.12512708657E+02 -0.12358561205E+03 -0.69052583724E+03  0.72740628488E+03  0.19200000000E+03 0.  0.
<mgrwt>
<rscale>  0 0.50652276E+03</rscale>
<asrwt>0</asrwt>
<pdfrwt beam="1">  1        2 0.14167378E+00 0.50652276E+03</pdfrwt>
<pdfrwt beam="2">  1       -2 0.92395829E-02 0.50652276E+03</pdfrwt>
<totfact> 0.22224893E+03</totfact>
</mgrwt>
</event>
<event>
 4    1  0.2892809E-005  0.9870980E+03  0.7818608E-02  0.9322810E-01
         -2   -1    0    0    0  501 -0.00000000000E+00  0.00000000000E+00  0.87614734523E+03  0.87614734523E+03  0.25500000000E-02 0. -1.
          2   -1    0    0  501    0  0.00000000000E+00 -0.00000000000E+00 -0.27802473394E+03  0.27802473395E+03  0.25500000000E-02 0.  1.
    5000001    1    1    2    0    0 -0.31039200023E+03 -0.28624796196E+03  0.10185654670E+03  0.47488929830E+03  0.19200000000E+03 0.  0.
   -5000001    1    1    2    0    0  0.31039200023E+03  0.28624796196E+03  0.49626606458E+03  0.67928278088E+03  0.19200000000E+03 0.  0.
<mgrwt>
<rscale>  0 0.98709803E+03</rscale>
<asrwt>0</asrwt>
<pdfrwt beam="1">  1        2 0.39717819E-01 0.98709803E+03</pdfrwt>
<pdfrwt beam="2">  1       -2 0.12516391E+00 0.98709803E+03</pdfrwt>
<totfact> 0.61983882E+01</totfact>
</mgrwt>
</event>
<event>
 4    1  0.2892809E-005  0.5002478E+03  0.7818608E-02  0.1013714E+00
          2   -1    0    0  501    0  0.00000000000E+00  0.00000000000E+00  0.33012037620E+03  0.33012037621E+03  0.25500000000E-02 0. -1.
         -2   -1    0    0    0  501 -0.00000000000E+00 -0.00000000000E+00 -0.18951257279E+03  0.18951257281E+03  0.25500000000E-02 0.  1.
    5000001    1    1    2    0    0  0.34068549085E+02 -0.14821033481E+03  0.17634072911E+02  0.24556451272E+03  0.19200000000E+03 0.  0.
   -5000001    1    1    2    0    0 -0.34068549085E+02  0.14821033481E+03  0.12297373050E+03  0.27406843630E+03  0.19200000000E+03 0.  0.
<mgrwt>
<rscale>  0 0.50024779E+03</rscale>
<asrwt>0</asrwt>
<pdfrwt beam="1">  1        2 0.47160054E-01 0.50024779E+03</pdfrwt>
<pdfrwt beam="2">  1       -2 0.27073225E-01 0.50024779E+03</pdfrwt>
<totfact> 0.13261985E+03</totfact>
</mgrwt>
</event>
<event>
 4    1  0.2892809E-005  0.4297504E+03  0.7818608E-02  0.1033939E+00
          2   -1    0    0  501    0  0.00000000000E+00  0.00000000000E+00  0.48715987642E+03  0.48715987643E+03  0.25500000000E-02 0.  1.
         -2   -1    0    0    0  501 -0.00000000000E+00 -0.00000000000E+00 -0.94776609199E+02  0.94776609233E+02  0.25500000000E-02 0. -1.
    5000001    1    1    2    0    0  0.85288099221E+02  0.40484559462E+02  0.16930269627E+03  0.27283779501E+03  0.19200000000E+03 0.  0.
   -5000001    1    1    2    0    0 -0.85288099221E+02 -0.40484559462E+02  0.22308057095E+03  0.30909869065E+03  0.19200000000E+03 0.  0.
<mgrwt>
<rscale>  0 0.42975044E+03</rscale>
<asrwt>0</asrwt>
<pdfrwt beam="1">  1        2 0.69594269E-01 0.42975044E+03</pdfrwt>
<pdfrwt beam="2">  1       -2 0.13539515E-01 0.42975044E+03</pdfrwt>
<totfact> 0.28474947E+03</totfact>
</mgrwt>
</event>
<event>
 4    1  0.2892809E-005  0.4260745E+03  0.7818608E-02  0.1035107E+00
          2   -1    0    0  501    0  0.00000000000E+00  0.00000000000E+00  0.32312987983E+03  0.32312987984E+03  0.25500000000E-02 0.  1.
         -2   -1    0    0    0  501 -0.00000000000E+00 -0.00000000000E+00 -0.14045396954E+03  0.14045396956E+03  0.25500000000E-02 0. -1.
    5000001    1    1    2    0    0  0.89032655096E+02 -0.14626707635E+02  0.11255100565E+03  0.24015095903E+03  0.19200000000E+03 0.  0.
   -5000001    1    1    2    0    0 -0.89032655096E+02  0.14626707635E+02  0.70124904631E+02  0.22343289037E+03  0.19200000000E+03 0.  0.
<mgrwt>
<rscale>  0 0.42607452E+03</rscale>
<asrwt>0</asrwt>
<pdfrwt beam="1">  1        2 0.46161412E-01 0.42607452E+03</pdfrwt>
<pdfrwt beam="2">  1       -2 0.20064853E-01 0.42607452E+03</pdfrwt>
<totfact> 0.23030105E+03</totfact>
</mgrwt>
</event>
<event>
 4    1  0.2892809E-005  0.7760814E+03  0.7818608E-02  0.9595298E-01
         -2   -1    0    0    0  501 -0.00000000000E+00  0.00000000000E+00  0.17103449919E+03  0.17103449921E+03  0.25500000000E-02 0. -1.
          2   -1    0    0  501    0  0.00000000000E+00 -0.00000000000E+00 -0.88038137681E+03  0.88038137681E+03  0.25500000000E-02 0.  1.
    5000001    1    1    2    0    0 -0.20640426408E+02  0.32069502941E+03 -0.49310110061E+03  0.61909936562E+03  0.19200000000E+03 0.  0.
   -5000001    1    1    2    0    0  0.20640426408E+02 -0.32069502941E+03 -0.21624577701E+03  0.43231651040E+03  0.19200000000E+03 0.  0.
<mgrwt>
<rscale>  0 0.77608141E+03</rscale>
<asrwt>0</asrwt>
<pdfrwt beam="1">  1        2 0.12576877E+00 0.77608141E+03</pdfrwt>
<pdfrwt beam="2">  1       -2 0.24433500E-01 0.77608141E+03</pdfrwt>
<totfact> 0.50191811E+02</totfact>
</mgrwt>
</event>
<event>
 4    1  0.2892809E-005  0.7618566E+03  0.7818608E-02  0.9616931E-01
          2   -1    0    0  501    0  0.00000000000E+00  0.00000000000E+00  0.51045006824E+03  0.51045006825E+03  0.25500000000E-02 0.  1.
         -2   -1    0    0    0  501 -0.00000000000E+00 -0.00000000000E+00 -0.28427140313E+03  0.28427140314E+03  0.25500000000E-02 0. -1.
    5000001    1    1    2    0    0  0.32674387598E+03  0.37654591325E+02  0.12136427669E+03  0.39971579453E+03  0.19200000000E+03 0.  0.
   -5000001    1    1    2    0    0 -0.32674387598E+03 -0.37654591325E+02  0.10481438842E+03  0.39500567687E+03  0.19200000000E+03 0.  0.
<mgrwt>
<rscale>  0 0.76185657E+03</rscale>
<asrwt>0</asrwt>
<pdfrwt beam="1">  1        2 0.72921437E-01 0.76185657E+03</pdfrwt>
<pdfrwt beam="2">  1       -2 0.40610201E-01 0.76185657E+03</pdfrwt>
<totfact> 0.37858629E+02</totfact>
</mgrwt>
</event>
<event>
 4    1  0.2892809E-005  0.6428191E+03  0.7818608E-02  0.9820348E-01
          2   -1    0    0  501    0  0.00000000000E+00  0.00000000000E+00  0.83053548372E+03  0.83053548373E+03  0.25500000000E-02 0.  1.
         -2   -1    0    0    0  501 -0.00000000000E+00 -0.00000000000E+00 -0.12438251566E+03  0.12438251569E+03  0.25500000000E-02 0. -1.
    5000001    1    1    2    0    0  0.59049063060E+02  0.19286410073E+03  0.11466741953E+03  0.30115771665E+03  0.19200000000E+03 0.  0.
   -5000001    1    1    2    0    0 -0.59049063060E+02 -0.19286410073E+03  0.59148554853E+03  0.65376028276E+03  0.19200000000E+03 0.  0.
<mgrwt>
<rscale>  0 0.64281908E+03</rscale>
<asrwt>0</asrwt>
<pdfrwt beam="1">  1        2 0.11864792E+00 0.64281908E+03</pdfrwt>
<pdfrwt beam="2">  1       -2 0.17768931E-01 0.64281908E+03</pdfrwt>
<totfact> 0.95220484E+02</totfact>
</mgrwt>
</event>
<event>
 4    1  0.2892809E-005  0.1249285E+04  0.7818608E-02  0.9070778E-01
         -2   -1    0    0    0  501 -0.00000000000E+00  0.00000000000E+00  0.19188617013E+03  0.19188617015E+03  0.25500000000E-02 0. -1.
          2   -1    0    0  501    0  0.00000000000E+00 -0.00000000000E+00 -0.20333852956E+04  0.20333852956E+04  0.25500000000E-02 0.  1.
    5000001    1    1    2    0    0 -0.34550119323E+03 -0.46561985817E+03 -0.68753971915E+03  0.91964547096E+03  0.19200000000E+03 0.  0.
   -5000001    1    1    2    0    0  0.34550119323E+03  0.46561985817E+03 -0.11539594063E+04  0.13056259948E+04  0.19200000000E+03 0.  0.
<mgrwt>
<rscale>  0 0.12492854E+04</rscale>
<asrwt>0</asrwt>
<pdfrwt beam="1">  1        2 0.29048360E+00 0.12492854E+04</pdfrwt>
<pdfrwt beam="2">  1       -2 0.27412311E-01 0.12492854E+04</pdfrwt>
<totfact> 0.92004229E+01</totfact>
</mgrwt>
</event>
<event>
 4    1  0.2892809E-005  0.4306541E+03  0.7818608E-02  0.1033654E+00
          2   -1    0    0  501    0  0.00000000000E+00  0.00000000000E+00  0.16252589760E+04  0.16252589760E+04  0.25500000000E-02 0.  1.
         -2   -1    0    0    0  501 -0.00000000000E+00 -0.00000000000E+00 -0.28528211694E+02  0.28528211808E+02  0.25500000000E-02 0. -1.
    5000001    1    1    2    0    0  0.11949046467E+02  0.36538305284E+02  0.45437686254E+03  0.49477283745E+03  0.19200000000E+03 0.  0.
   -5000001    1    1    2    0    0 -0.11949046467E+02 -0.36538305284E+02  0.11423539018E+04  0.11590143504E+04  0.19200000000E+03 0.  0.
<mgrwt>
<rscale>  0 0.43065407E+03</rscale>
<asrwt>0</asrwt>
<pdfrwt beam="1">  1        2 0.23217986E+00 0.43065407E+03</pdfrwt>
<pdfrwt beam="2">  1       -2 0.40754588E-02 0.43065407E+03</pdfrwt>
<totfact> 0.36081301E+03</totfact>
</mgrwt>
</event>
<event>
 4    1  0.2892809E-005  0.4850545E+03  0.7818608E-02  0.1017755E+00
         -2   -1    0    0    0  501 -0.00000000000E+00  0.00000000000E+00  0.10354549293E+03  0.10354549297E+03  0.25500000000E-02 0. -1.
          2   -1    0    0  501    0  0.00000000000E+00 -0.00000000000E+00 -0.56805442032E+03  0.56805442032E+03  0.25500000000E-02 0.  1.
    5000001    1    1    2    0    0 -0.60031973311E+01 -0.14694359568E+03 -0.25729275891E+03  0.35311757600E+03  0.19200000000E+03 0.  0.
   -5000001    1    1    2    0    0  0.60031973311E+01  0.14694359568E+03 -0.20721616848E+03  0.31848233729E+03  0.19200000000E+03 0.  0.
<mgrwt>
<rscale>  0 0.48505453E+03</rscale>
<asrwt>0</asrwt>
<pdfrwt beam="1">  1        2 0.81150630E-01 0.48505453E+03</pdfrwt>
<pdfrwt beam="2">  1       -2 0.14792214E-01 0.48505453E+03</pdfrwt>
<totfact> 0.20663241E+03</totfact>
</mgrwt>
</event>
<event>
 4    1  0.2892809E-005  0.6100449E+03  0.7818608E-02  0.9884782E-01
          2   -1    0    0  501    0  0.00000000000E+00  0.00000000000E+00  0.27157924692E+03  0.27157924693E+03  0.25500000000E-02 0.  1.
         -2   -1    0    0    0  501 -0.00000000000E+00 -0.00000000000E+00 -0.34258396840E+03  0.34258396841E+03  0.25500000000E-02 0. -1.
    5000001    1    1    2    0    0 -0.19906251129E+03 -0.75252011657E+02  0.69537736579E+02  0.29493769760E+03  0.19200000000E+03 0.  0.
   -5000001    1    1    2    0    0  0.19906251129E+03  0.75252011657E+02 -0.14054245806E+03  0.31922551774E+03  0.19200000000E+03 0.  0.
<mgrwt>
<rscale>  0 0.61004490E+03</rscale>
<asrwt>0</asrwt>
<pdfrwt beam="1">  1        2 0.38797035E-01 0.61004490E+03</pdfrwt>
<pdfrwt beam="2">  1       -2 0.48940567E-01 0.61004490E+03</pdfrwt>
<totfact> 0.53084258E+02</totfact>
</mgrwt>
</event>
<event>
 4    1  0.2892809E-005  0.5619986E+03  0.7818608E-02  0.9987542E-01
          2   -1    0    0  501    0  0.00000000000E+00  0.00000000000E+00  0.23896328664E+04  0.23896328665E+04  0.25500000000E-02 0. -1.
         -2   -1    0    0    0  501 -0.00000000000E+00 -0.00000000000E+00 -0.33042992034E+02  0.33042992133E+02  0.25500000000E-02 0.  1.
    5000001    1    1    2    0    0 -0.18303546432E+03  0.82679203023E+02  0.99750810368E+03  0.10354826163E+04  0.19200000000E+03 0.  0.
   -5000001    1    1    2    0    0  0.18303546432E+03 -0.82679203023E+02  0.13590817707E+04  0.13871932423E+04  0.19200000000E+03 0.  0.
<mgrwt>
<rscale>  0 0.56199865E+03</rscale>
<asrwt>0</asrwt>
<pdfrwt beam="1">  1        2 0.34137614E+00 0.56199865E+03</pdfrwt>
<pdfrwt beam="2">  1       -2 0.47204273E-02 0.56199865E+03</pdfrwt>
<totfact> 0.11851349E+03</totfact>
</mgrwt>
</event>
<event>
 4    1  0.2892809E-005  0.5534365E+03  0.7818608E-02  0.1000702E+00
          2   -1    0    0  501    0  0.00000000000E+00  0.00000000000E+00  0.59736219548E+03  0.59736219549E+03  0.25500000000E-02 0.  1.
         -2   -1    0    0    0  501 -0.00000000000E+00 -0.00000000000E+00 -0.12818519513E+03  0.12818519515E+03  0.25500000000E-02 0. -1.
    5000001    1    1    2    0    0 -0.17976962644E+03 -0.11969442699E+02  0.12297283341E+03  0.29059715055E+03  0.19200000000E+03 0.  0.
   -5000001    1    1    2    0    0  0.17976962644E+03  0.11969442699E+02  0.34620416694E+03  0.43495024009E+03  0.19200000000E+03 0.  0.
<mgrwt>
<rscale>  0 0.55343650E+03</rscale>
<asrwt>0</asrwt>
<pdfrwt beam="1">  1        2 0.85337455E-01 0.55343650E+03</pdfrwt>
<pdfrwt beam="2">  1       -2 0.18312171E-01 0.55343650E+03</pdfrwt>
<totfact> 0.13573181E+03</totfact>
</mgrwt>
</event>
<event>
 4    1  0.2892809E-005  0.6602802E+03  0.7818608E-02  0.9787678E-01
         -2   -1    0    0    0  501 -0.00000000000E+00  0.00000000000E+00  0.27970357706E+03  0.27970357707E+03  0.25500000000E-02 0. -1.
          2   -1    0    0  501    0  0.00000000000E+00 -0.00000000000E+00 -0.38967144498E+03  0.38967144499E+03  0.25500000000E-02 0.  1.
    5000001    1    1    2    0    0 -0.10754959863E+03  0.23876292187E+03 -0.11541922686E+03  0.34461608633E+03  0.19200000000E+03 0.  0.
   -5000001    1    1    2    0    0  0.10754959863E+03 -0.23876292187E+03  0.54513589387E+01  0.32475893574E+03  0.19200000000E+03 0.  0.
<mgrwt>
<rscale>  0 0.66028023E+03</rscale>
<asrwt>0</asrwt>
<pdfrwt beam="1">  1        2 0.55667349E-01 0.66028023E+03</pdfrwt>
<pdfrwt beam="2">  1       -2 0.39957654E-01 0.66028023E+03</pdfrwt>
<totfact> 0.53131410E+02</totfact>
</mgrwt>
</event>
<event>
 4    1  0.2892809E-005  0.5741728E+03  0.7818608E-02  0.9960487E-01
         -2   -1    0    0    0  501 -0.00000000000E+00  0.00000000000E+00  0.16415278222E+03  0.16415278224E+03  0.25500000000E-02 0. -1.
          2   -1    0    0  501    0  0.00000000000E+00 -0.00000000000E+00 -0.50208476777E+03  0.50208476777E+03  0.25500000000E-02 0.  1.
    5000001    1    1    2    0    0  0.51099743837E+02  0.83797332789E+02 -0.38888527079E+03  0.44466721337E+03  0.19200000000E+03 0.  0.
   -5000001    1    1    2    0    0 -0.51099743837E+02 -0.83797332789E+02  0.50953285244E+02  0.22157033664E+03  0.19200000000E+03 0.  0.
<mgrwt>
<rscale>  0 0.57417284E+03</rscale>
<asrwt>0</asrwt>
<pdfrwt beam="1">  1        2 0.71726395E-01 0.57417284E+03</pdfrwt>
<pdfrwt beam="2">  1       -2 0.23450398E-01 0.57417284E+03</pdfrwt>
<totfact> 0.10763405E+03</totfact>
</mgrwt>
</event>
<event>
 4    1  0.2892809E-005  0.5550366E+03  0.7818608E-02  0.1000335E+00
         -2   -1    0    0    0  501 -0.00000000000E+00  0.00000000000E+00  0.55213172780E+02  0.55213172839E+02  0.25500000000E-02 0. -1.
          2   -1    0    0  501    0  0.00000000000E+00 -0.00000000000E+00 -0.13948917196E+04  0.13948917196E+04  0.25500000000E-02 0.  1.
    5000001    1    1    2    0    0  0.57672235321E+02  0.19190103008E+03 -0.66839523540E+03  0.72371837256E+03  0.19200000000E+03 0.  0.
   -5000001    1    1    2    0    0 -0.57672235321E+02 -0.19190103008E+03 -0.67128331141E+03  0.72638651987E+03  0.19200000000E+03 0.  0.
<mgrwt>
<rscale>  0 0.55503657E+03</rscale>
<asrwt>0</asrwt>
<pdfrwt beam="1">  1        2 0.19927022E+00 0.55503657E+03</pdfrwt>
<pdfrwt beam="2">  1       -2 0.78875970E-02 0.55503657E+03</pdfrwt>
<totfact> 0.16961820E+03</totfact>
</mgrwt>
</event>
<event>
 4    1  0.2892809E-005  0.4935121E+03  0.7818608E-02  0.1015486E+00
         -2   -1    0    0    0  501 -0.00000000000E+00  0.00000000000E+00  0.36226770286E+02  0.36226770375E+02  0.25500000000E-02 0. -1.
          2   -1    0    0  501    0  0.00000000000E+00 -0.00000000000E+00 -0.16807614113E+04  0.16807614113E+04  0.25500000000E-02 0.  1.
    5000001    1    1    2    0    0  0.14574204461E+03 -0.21765598927E+02 -0.65504960068E+03  0.69833263150E+03  0.19200000000E+03 0.  0.
   -5000001    1    1    2    0    0 -0.14574204461E+03  0.21765598927E+02 -0.98948504034E+03  0.10186555502E+04  0.19200000000E+03 0.  0.
<mgrwt>
<rscale>  0 0.49351214E+03</rscale>
<asrwt>0</asrwt>
<pdfrwt beam="1">  1        2 0.24010872E+00 0.49351214E+03</pdfrwt>
<pdfrwt beam="2">  1       -2 0.51752540E-02 0.49351214E+03</pdfrwt>
<totfact> 0.23408972E+03</totfact>
</mgrwt>
</event>
<event>
 4    1  0.2892809E-005  0.7963368E+03  0.7818608E-02  0.9565335E-01
         -2   -1    0    0    0  501 -0.00000000000E+00  0.00000000000E+00  0.40981425386E+03  0.40981425387E+03  0.25500000000E-02 0. -1.
          2   -1    0    0  501    0  0.00000000000E+00 -0.00000000000E+00 -0.38685351514E+03  0.38685351515E+03  0.25500000000E-02 0.  1.
    5000001    1    1    2    0    0  0.17683236662E+03 -0.26221186498E+03  0.15867865258E+03  0.40257628197E+03  0.19200000000E+03 0.  0.
   -5000001    1    1    2    0    0 -0.17683236662E+03  0.26221186498E+03 -0.13571791385E+03  0.39409148705E+03  0.19200000000E+03 0.  0.
<mgrwt>
<rscale>  0 0.79633682E+03</rscale>
<asrwt>0</asrwt>
<pdfrwt beam="1">  1        2 0.55264788E-01 0.79633682E+03</pdfrwt>
<pdfrwt beam="2">  1       -2 0.58544894E-01 0.79633682E+03</pdfrwt>
<totfact> 0.24664035E+02</totfact>
</mgrwt>
</event>
<event>
 4    1  0.2892809E-005  0.9970489E+03  0.7818608E-02  0.9311787E-01
          2   -1    0    0  501    0  0.00000000000E+00  0.00000000000E+00  0.71711074672E+03  0.71711074672E+03  0.25500000000E-02 0.  1.
         -2   -1    0    0    0  501 -0.00000000000E+00 -0.00000000000E+00 -0.34656657602E+03  0.34656657603E+03  0.25500000000E-02 0. -1.
    5000001    1    1    2    0    0  0.70943148072E+02  0.42130130618E+03  0.31761792719E+01  0.46840346814E+03  0.19200000000E+03 0.  0.
   -5000001    1    1    2    0    0 -0.70943148072E+02 -0.42130130618E+03  0.36736799143E+03  0.59527385461E+03  0.19200000000E+03 0.  0.
<mgrwt>
<rscale>  0 0.99704888E+03</rscale>
<asrwt>0</asrwt>
<pdfrwt beam="1">  1        2 0.10244439E+00 0.99704888E+03</pdfrwt>
<pdfrwt beam="2">  1       -2 0.49509510E-01 0.99704888E+03</pdfrwt>
<totfact> 0.16834667E+02</totfact>
</mgrwt>
</event>
<event>
 4    1  0.2892809E-005  0.8561210E+03  0.7818608E-02  0.9482158E-01
         -2   -1    0    0    0  501 -0.00000000000E+00  0.00000000000E+00  0.72646839942E+02  0.72646839987E+02  0.25500000000E-02 0. -1.
          2   -1    0    0  501    0  0.00000000000E+00 -0.00000000000E+00 -0.25222815591E+04  0.25222815591E+04  0.25500000000E-02 0.  1.
    5000001    1    1    2    0    0  0.68303176802E+02  0.31134404821E+03 -0.58347443898E+03  0.69203096843E+03  0.19200000000E+03 0.  0.
   -5000001    1    1    2    0    0 -0.68303176802E+02 -0.31134404821E+03 -0.18661602802E+04  0.19028974307E+04  0.19200000000E+03 0.  0.
<mgrwt>
<rscale>  0 0.85612098E+03</rscale>
<asrwt>0</asrwt>
<pdfrwt beam="1">  1        2 0.36032588E+00 0.85612098E+03</pdfrwt>
<pdfrwt beam="2">  1       -2 0.10378122E-01 0.85612098E+03</pdfrwt>
<totfact> 0.28381131E+02</totfact>
</mgrwt>
</event>
<event>
 4    1  0.2892809E-005  0.6466532E+03  0.7818608E-02  0.9813080E-01
          2   -1    0    0  501    0  0.00000000000E+00  0.00000000000E+00  0.34477096134E+04  0.34477096134E+04  0.25500000000E-02 0.  1.
         -2   -1    0    0    0  501 -0.00000000000E+00 -0.00000000000E+00 -0.30321603578E+02  0.30321603685E+02  0.25500000000E-02 0. -1.
    5000001    1    1    2    0    0  0.14858035311E+03 -0.17071297866E+03  0.10187117134E+04  0.10610638988E+04  0.19200000000E+03 0.  0.
   -5000001    1    1    2    0    0 -0.14858035311E+03  0.17071297866E+03  0.23986762964E+04  0.24169673182E+04  0.19200000000E+03 0.  0.
<mgrwt>
<rscale>  0 0.64665318E+03</rscale>
<asrwt>0</asrwt>
<pdfrwt beam="1">  1        2 0.49252943E+00 0.64665318E+03</pdfrwt>
<pdfrwt beam="2">  1       -2 0.43316622E-02 0.64665318E+03</pdfrwt>
<totfact> 0.35915878E+02</totfact>
</mgrwt>
</event>
<event>
 4    1  0.2892809E-005  0.6330881E+03  0.7818608E-02  0.9839041E-01
         -2   -1    0    0    0  501 -0.00000000000E+00  0.00000000000E+00  0.13464390948E+03  0.13464390951E+03  0.25500000000E-02 0. -1.
          2   -1    0    0  501    0  0.00000000000E+00 -0.00000000000E+00 -0.74418621761E+03  0.74418621762E+03  0.25500000000E-02 0.  1.
    5000001    1    1    2    0    0 -0.22017868005E+03 -0.11808608559E+03 -0.26282270853E+03  0.41032030279E+03  0.19200000000E+03 0.  0.
   -5000001    1    1    2    0    0  0.22017868005E+03  0.11808608559E+03 -0.34671959960E+03  0.46850982434E+03  0.19200000000E+03 0.  0.
<mgrwt>
<rscale>  0 0.63308812E+03</rscale>
<asrwt>0</asrwt>
<pdfrwt beam="1">  1        2 0.10631231E+00 0.63308812E+03</pdfrwt>
<pdfrwt beam="2">  1       -2 0.19234845E-01 0.63308812E+03</pdfrwt>
<totfact> 0.95516063E+02</totfact>
</mgrwt>
</event>
<event>
 4    1  0.2892809E-005  0.8843866E+03  0.7818608E-02  0.9445312E-01
         -2   -1    0    0    0  501 -0.00000000000E+00  0.00000000000E+00  0.67165469531E+02  0.67165469579E+02  0.25500000000E-02 0. -1.
          2   -1    0    0  501    0  0.00000000000E+00 -0.00000000000E+00 -0.29112415182E+04  0.29112415182E+04  0.25500000000E-02 0.  1.
    5000001    1    1    2    0    0  0.21288188133E+03  0.35948211727E+02 -0.29466644462E+03  0.41267818323E+03  0.19200000000E+03 0.  0.
   -5000001    1    1    2    0    0 -0.21288188133E+03 -0.35948211727E+02 -0.25494096041E+04  0.25657288046E+04  0.19200000000E+03 0.  0.
<mgrwt>
<rscale>  0 0.88438658E+03</rscale>
<asrwt>0</asrwt>
<pdfrwt beam="1">  1        2 0.41589157E+00 0.88438658E+03</pdfrwt>
<pdfrwt beam="2">  1       -2 0.95950689E-02 0.88438658E+03</pdfrwt>
<totfact> 0.20007224E+02</totfact>
</mgrwt>
</event>
<event>
 4    1  0.2892809E-005  0.5900091E+03  0.7818608E-02  0.9926354E-01
          2   -1    0    0  501    0  0.00000000000E+00  0.00000000000E+00  0.14746416234E+04  0.14746416234E+04  0.25500000000E-02 0.  1.
         -2   -1    0    0    0  501 -0.00000000000E+00 -0.00000000000E+00 -0.59016154750E+02  0.59016154805E+02  0.25500000000E-02 0. -1.
    5000001    1    1    2    0    0  0.50288027827E+02 -0.21344912038E+03  0.58942629871E+03  0.65755362849E+03  0.19200000000E+03 0.  0.
   -5000001    1    1    2    0    0 -0.50288027827E+02  0.21344912038E+03  0.82619916990E+03  0.87610414968E+03  0.19200000000E+03 0.  0.
<mgrwt>
<rscale>  0 0.59000908E+03</rscale>
<asrwt>0</asrwt>
<pdfrwt beam="1">  1        2 0.21066309E+00 0.59000908E+03</pdfrwt>
<pdfrwt beam="2">  1       -2 0.84308793E-02 0.59000908E+03</pdfrwt>
<totfact> 0.13832650E+03</totfact>
</mgrwt>
</event>
<event>
 4    1  0.2892809E-005  0.6345845E+03  0.7818608E-02  0.9836143E-01
          2   -1    0    0  501    0  0.00000000000E+00  0.00000000000E+00  0.29578533462E+04  0.29578533462E+04  0.25500000000E-02 0.  1.
         -2   -1    0    0    0  501 -0.00000000000E+00 -0.00000000000E+00 -0.34036296860E+02  0.34036296956E+02  0.25500000000E-02 0. -1.
    5000001    1    1    2    0    0  0.17833008676E+03  0.13156161187E+03  0.89027306517E+03  0.93731542617E+03  0.19200000000E+03 0.  0.
   -5000001    1    1    2    0    0 -0.17833008676E+03 -0.13156161187E+03  0.20335439841E+04  0.20545742169E+04  0.19200000000E+03 0.  0.
<mgrwt>
<rscale>  0 0.63458451E+03</rscale>
<asrwt>0</asrwt>
<pdfrwt beam="1">  1        2 0.42255054E+00 0.63458451E+03</pdfrwt>
<pdfrwt beam="2">  1       -2 0.48623274E-02 0.63458451E+03</pdfrwt>
<totfact> 0.56790093E+02</totfact>
</mgrwt>
</event>
<event>
 4    1  0.2892809E-005  0.8422623E+03  0.7818608E-02  0.9500782E-01
          2   -1    0    0  501    0  0.00000000000E+00  0.00000000000E+00  0.17214684118E+04  0.17214684118E+04  0.25500000000E-02 0.  1.
         -2   -1    0    0    0  501 -0.00000000000E+00 -0.00000000000E+00 -0.10302333983E+03  0.10302333986E+03  0.25500000000E-02 0. -1.
    5000001    1    1    2    0    0 -0.34078150544E+03 -0.35414774822E+02  0.11384618526E+04  0.12043029646E+04  0.19200000000E+03 0.  0.
   -5000001    1    1    2    0    0  0.34078150544E+03  0.35414774822E+02  0.47998321939E+03  0.62018878709E+03  0.19200000000E+03 0.  0.
<mgrwt>
<rscale>  0 0.84226225E+03</rscale>
<asrwt>0</asrwt>
<pdfrwt beam="1">  1        2 0.24592405E+00 0.84226225E+03</pdfrwt>
<pdfrwt beam="2">  1       -2 0.14717620E-01 0.84226225E+03</pdfrwt>
<totfact> 0.40788093E+02</totfact>
</mgrwt>
</event>
<event>
 4    1  0.2892809E-005  0.6975467E+03  0.7818608E-02  0.9721437E-01
          2   -1    0    0  501    0  0.00000000000E+00  0.00000000000E+00  0.10215172268E+04  0.10215172268E+04  0.25500000000E-02 0.  1.
         -2   -1    0    0    0  501 -0.00000000000E+00 -0.00000000000E+00 -0.11908055249E+03  0.11908055252E+03  0.25500000000E-02 0. -1.
    5000001    1    1    2    0    0  0.15036718233E+03  0.23943400071E+03  0.56497522466E+03  0.66030291132E+03  0.19200000000E+03 0.  0.
   -5000001    1    1    2    0    0 -0.15036718233E+03 -0.23943400071E+03  0.33746144963E+03  0.48029486797E+03  0.19200000000E+03 0.  0.
<mgrwt>
<rscale>  0 0.69754666E+03</rscale>
<asrwt>0</asrwt>
<pdfrwt beam="1">  1        2 0.14593103E+00 0.69754666E+03</pdfrwt>
<pdfrwt beam="2">  1       -2 0.17011508E-01 0.69754666E+03</pdfrwt>
<totfact> 0.77345322E+02</totfact>
</mgrwt>
</event>
<event>
 4    1  0.2892809E-005  0.5708801E+03  0.7818608E-02  0.9967733E-01
         -2   -1    0    0    0  501 -0.00000000000E+00  0.00000000000E+00  0.15754733995E+04  0.15754733995E+04  0.25500000000E-02 0. -1.
          2   -1    0    0  501    0  0.00000000000E+00 -0.00000000000E+00 -0.51715262317E+02  0.51715262380E+02  0.25500000000E-02 0.  1.
    5000001    1    1    2    0    0  0.12264562215E+03 -0.15550126588E+03  0.55262961060E+03  0.61764559323E+03  0.19200000000E+03 0.  0.
   -5000001    1    1    2    0    0 -0.12264562215E+03  0.15550126588E+03  0.97112852660E+03  0.10095430687E+04  0.19200000000E+03 0.  0.
<mgrwt>
<rscale>  0 0.57088009E+03</rscale>
<asrwt>0</asrwt>
<pdfrwt beam="1">  1        2 0.73878966E-02 0.57088009E+03</pdfrwt>
<pdfrwt beam="2">  1       -2 0.22506757E+00 0.57088009E+03</pdfrwt>
<totfact> 0.93291431E+01</totfact>
</mgrwt>
</event>
<event>
 4    1  0.2892809E-005  0.5528115E+03  0.7818608E-02  0.1000845E+00
          2   -1    0    0  501    0  0.00000000000E+00  0.00000000000E+00  0.11132422118E+03  0.11132422121E+03  0.25500000000E-02 0.  1.
         -2   -1    0    0    0  501 -0.00000000000E+00 -0.00000000000E+00 -0.68628483890E+03  0.68628483890E+03  0.25500000000E-02 0. -1.
    5000001    1    1    2    0    0  0.59167311377E+02 -0.77101326085E+02 -0.53776223103E+03  0.57922154858E+03  0.19200000000E+03 0.  0.
   -5000001    1    1    2    0    0 -0.59167311377E+02  0.77101326085E+02 -0.37198386691E+02  0.21838751153E+03  0.19200000000E+03 0.  0.
<mgrwt>
<rscale>  0 0.55281145E+03</rscale>
<asrwt>0</asrwt>
<pdfrwt beam="1">  1        2 0.15903460E-01 0.55281145E+03</pdfrwt>
<pdfrwt beam="2">  1       -2 0.98040689E-01 0.55281145E+03</pdfrwt>
<totfact> 0.32697556E+02</totfact>
</mgrwt>
</event>
<event>
 4    1  0.2892809E-005  0.6522352E+03  0.7818608E-02  0.9802594E-01
         -2   -1    0    0    0  501 -0.00000000000E+00  0.00000000000E+00  0.33014855666E+02  0.33014855765E+02  0.25500000000E-02 0. -1.
          2   -1    0    0  501    0  0.00000000000E+00 -0.00000000000E+00 -0.32213586859E+04  0.32213586859E+04  0.25500000000E-02 0.  1.
    5000001    1    1    2    0    0 -0.26041526350E+03  0.21567281157E+01 -0.17979475421E+04  0.18268278860E+04  0.19200000000E+03 0.  0.
   -5000001    1    1    2    0    0  0.26041526350E+03 -0.21567281157E+01 -0.13903962882E+04  0.14275456557E+04  0.19200000000E+03 0.  0.
<mgrwt>
<rscale>  0 0.65223521E+03</rscale>
<asrwt>0</asrwt>
<pdfrwt beam="1">  1        2 0.46019390E+00 0.65223521E+03</pdfrwt>
<pdfrwt beam="2">  1       -2 0.47164100E-02 0.65223521E+03</pdfrwt>
<totfact> 0.42496309E+02</totfact>
</mgrwt>
</event>
<event>
 4    1  0.2892809E-005  0.6531284E+03  0.7818608E-02  0.9800927E-01
          2   -1    0    0  501    0  0.00000000000E+00  0.00000000000E+00  0.72329900246E+03  0.72329900247E+03  0.25500000000E-02 0.  1.
         -2   -1    0    0    0  501 -0.00000000000E+00 -0.00000000000E+00 -0.14744135869E+03  0.14744135871E+03  0.25500000000E-02 0. -1.
    5000001    1    1    2    0    0 -0.20461564671E+03 -0.12867896791E+03  0.42998861746E+03  0.52932036689E+03  0.19200000000E+03 0.  0.
   -5000001    1    1    2    0    0  0.20461564671E+03  0.12867896791E+03  0.14586902631E+03  0.34141999429E+03  0.19200000000E+03 0.  0.
<mgrwt>
<rscale>  0 0.65312843E+03</rscale>
<asrwt>0</asrwt>
<pdfrwt beam="1">  1        2 0.10332843E+00 0.65312843E+03</pdfrwt>
<pdfrwt beam="2">  1       -2 0.21063051E-01 0.65312843E+03</pdfrwt>
<totfact> 0.84419575E+02</totfact>
</mgrwt>
</event>
<event>
 4    1  0.2892809E-005  0.4203913E+03  0.7818608E-02  0.1036939E+00
         -2   -1    0    0    0  501 -0.00000000000E+00  0.00000000000E+00  0.72801503813E+02  0.72801503858E+02  0.25500000000E-02 0. -1.
          2   -1    0    0  501    0  0.00000000000E+00 -0.00000000000E+00 -0.60688586759E+03  0.60688586759E+03  0.25500000000E-02 0.  1.
    5000001    1    1    2    0    0 -0.32671864768E+02  0.56141032458E+02 -0.35704620651E+03  0.41056699801E+03  0.19200000000E+03 0.  0.
   -5000001    1    1    2    0    0  0.32671864768E+02 -0.56141032458E+02 -0.17703815727E+03  0.26912037344E+03  0.19200000000E+03 0.  0.
<mgrwt>
<rscale>  0 0.42039126E+03</rscale>
<asrwt>0</asrwt>
<pdfrwt beam="1">  1        2 0.86697978E-01 0.42039126E+03</pdfrwt>
<pdfrwt beam="2">  1       -2 0.10400215E-01 0.42039126E+03</pdfrwt>
<totfact> 0.34070912E+03</totfact>
</mgrwt>
</event>
<event>
 4    1  0.2892809E-005  0.4900728E+03  0.7818608E-02  0.1016403E+00
         -2   -1    0    0    0  501 -0.00000000000E+00  0.00000000000E+00  0.14630454121E+03  0.14630454123E+03  0.25500000000E-02 0. -1.
          2   -1    0    0  501    0  0.00000000000E+00 -0.00000000000E+00 -0.41039623702E+03  0.41039623703E+03  0.25500000000E-02 0.  1.
    5000001    1    1    2    0    0  0.14363342767E+03  0.40282779155E+02 -0.16660521054E+03  0.29474490669E+03  0.19200000000E+03 0.  0.
   -5000001    1    1    2    0    0 -0.14363342767E+03 -0.40282779155E+02 -0.97486485275E+02  0.26195587157E+03  0.19200000000E+03 0.  0.
<mgrwt>
<rscale>  0 0.49007278E+03</rscale>
<asrwt>0</asrwt>
<pdfrwt beam="1">  1        2 0.58628033E-01 0.49007278E+03</pdfrwt>
<pdfrwt beam="2">  1       -2 0.20900649E-01 0.49007278E+03</pdfrwt>
<totfact> 0.16521719E+03</totfact>
</mgrwt>
</event>
<event>
 4    1  0.2892809E-005  0.5770574E+03  0.7818608E-02  0.9954182E-01
          2   -1    0    0  501    0  0.00000000000E+00  0.00000000000E+00  0.91786607799E+03  0.91786607799E+03  0.25500000000E-02 0.  1.
         -2   -1    0    0    0  501 -0.00000000000E+00 -0.00000000000E+00 -0.90698210105E+02  0.90698210140E+02  0.25500000000E-02 0. -1.
    5000001    1    1    2    0    0  0.12102822702E+03  0.17752967891E+03  0.38764900140E+03  0.48301176685E+03  0.19200000000E+03 0.  0.
   -5000001    1    1    2    0    0 -0.12102822702E+03 -0.17752967891E+03  0.43951886649E+03  0.52555252129E+03  0.19200000000E+03 0.  0.
<mgrwt>
<rscale>  0 0.57705740E+03</rscale>
<asrwt>0</asrwt>
<pdfrwt beam="1">  1        2 0.13112373E+00 0.57705740E+03</pdfrwt>
<pdfrwt beam="2">  1       -2 0.12956886E-01 0.57705740E+03</pdfrwt>
<totfact> 0.14229617E+03</totfact>
</mgrwt>
</event>
<event>
 4    1  0.2892809E-005  0.5255451E+03  0.7818608E-02  0.1007318E+00
          2   -1    0    0  501    0  0.00000000000E+00  0.00000000000E+00  0.38254011848E+02  0.38254011933E+02  0.25500000000E-02 0.  1.
         -2   -1    0    0    0  501 -0.00000000000E+00 -0.00000000000E+00 -0.18050243575E+04  0.18050243575E+04  0.25500000000E-02 0. -1.
    5000001    1    1    2    0    0 -0.16326519273E+03  0.65834295481E+02 -0.10046682768E+04  0.10378882522E+04  0.19200000000E+03 0.  0.
   -5000001    1    1    2    0    0  0.16326519273E+03 -0.65834295481E+02 -0.76210206891E+03  0.80539011731E+03  0.19200000000E+03 0.  0.
<mgrwt>
<rscale>  0 0.52554514E+03</rscale>
<asrwt>0</asrwt>
<pdfrwt beam="1">  1        2 0.54648600E-02 0.52554514E+03</pdfrwt>
<pdfrwt beam="2">  1       -2 0.25786057E+00 0.52554514E+03</pdfrwt>
<totfact> 0.88315998E+01</totfact>
</mgrwt>
</event>
<event>
 4    1  0.2892809E-005  0.4941761E+03  0.7818608E-02  0.1015310E+00
          2   -1    0    0  501    0  0.00000000000E+00  0.00000000000E+00  0.98535322221E+03  0.98535322222E+03  0.25500000000E-02 0.  1.
         -2   -1    0    0    0  501 -0.00000000000E+00 -0.00000000000E+00 -0.61960013513E+02  0.61960013565E+02  0.25500000000E-02 0. -1.
    5000001    1    1    2    0    0 -0.79776083739E+02  0.10272013288E+03  0.28095955750E+03  0.36430471063E+03  0.19200000000E+03 0.  0.
   -5000001    1    1    2    0    0  0.79776083739E+02 -0.10272013288E+03  0.64243365120E+03  0.68300852515E+03  0.19200000000E+03 0.  0.
<mgrwt>
<rscale>  0 0.49417608E+03</rscale>
<asrwt>0</asrwt>
<pdfrwt beam="1">  1        2 0.14076475E+00 0.49417608E+03</pdfrwt>
<pdfrwt beam="2">  1       -2 0.88514300E-02 0.49417608E+03</pdfrwt>
<totfact> 0.24020445E+03</totfact>
</mgrwt>
</event>
<event>
 4    1  0.2892809E-005  0.8661778E+03  0.7818608E-02  0.9468877E-01
          2   -1    0    0  501    0  0.00000000000E+00  0.00000000000E+00  0.94686842708E+03  0.94686842708E+03  0.25500000000E-02 0.  1.
         -2   -1    0    0    0  501 -0.00000000000E+00 -0.00000000000E+00 -0.19809087540E+03  0.19809087542E+03  0.25500000000E-02 0. -1.
    5000001    1    1    2    0    0  0.35026326157E+03  0.16564646398E+03  0.34258476858E+03  0.55168054805E+03  0.19200000000E+03 0.  0.
   -5000001    1    1    2    0    0 -0.35026326157E+03 -0.16564646398E+03  0.40619278310E+03  0.59327875444E+03  0.19200000000E+03 0.  0.
<mgrwt>
<rscale>  0 0.86617780E+03</rscale>
<asrwt>0</asrwt>
<pdfrwt beam="1">  1        2 0.13526691E+00 0.86617780E+03</pdfrwt>
<pdfrwt beam="2">  1       -2 0.28298697E-01 0.86617780E+03</pdfrwt>
<totfact> 0.34679475E+02</totfact>
</mgrwt>
</event>
<event>
 4    1  0.2892809E-005  0.5469787E+03  0.7818608E-02  0.1002196E+00
          2   -1    0    0  501    0  0.00000000000E+00  0.00000000000E+00  0.31168062474E+03  0.31168062475E+03  0.25500000000E-02 0.  1.
         -2   -1    0    0    0  501 -0.00000000000E+00 -0.00000000000E+00 -0.23997781226E+03  0.23997781228E+03  0.25500000000E-02 0. -1.
    5000001    1    1    2    0    0 -0.19422465011E+03  0.93689169742E+01  0.24736998802E+02  0.27438460312E+03  0.19200000000E+03 0.  0.
   -5000001    1    1    2    0    0  0.19422465011E+03 -0.93689169742E+01  0.46965813677E+02  0.27727383391E+03  0.19200000000E+03 0.  0.
<mgrwt>
<rscale>  0 0.54697874E+03</rscale>
<asrwt>0</asrwt>
<pdfrwt beam="1">  1        2 0.44525804E-01 0.54697874E+03</pdfrwt>
<pdfrwt beam="2">  1       -2 0.34282544E-01 0.54697874E+03</pdfrwt>
<totfact> 0.91334898E+02</totfact>
</mgrwt>
</event>
<event>
 4    1  0.2892809E-005  0.5076647E+03  0.7818608E-02  0.1011797E+00
          2   -1    0    0  501    0  0.00000000000E+00  0.00000000000E+00  0.15157303242E+04  0.15157303242E+04  0.25500000000E-02 0. -1.
         -2   -1    0    0    0  501 -0.00000000000E+00 -0.00000000000E+00 -0.42508124535E+02  0.42508124611E+02  0.25500000000E-02 0.  1.
    5000001    1    1    2    0    0  0.81175106804E+02 -0.95019343879E+02  0.10721313654E+04  0.10963337714E+04  0.19200000000E+03 0.  0.
   -5000001    1    1    2    0    0 -0.81175106804E+02  0.95019343879E+02  0.40109083432E+03  0.46190467745E+03  0.19200000000E+03 0.  0.
<mgrwt>
<rscale>  0 0.50766467E+03</rscale>
<asrwt>0</asrwt>
<pdfrwt beam="1">  1        2 0.21653290E+00 0.50766467E+03</pdfrwt>
<pdfrwt beam="2">  1       -2 0.60725892E-02 0.50766467E+03</pdfrwt>
<totfact> 0.22163689E+03</totfact>
</mgrwt>
</event>
<event>
 4    1  0.2892809E-005  0.6071725E+03  0.7818608E-02  0.9890636E-01
         -2   -1    0    0    0  501 -0.00000000000E+00  0.00000000000E+00  0.57857930548E+03  0.57857930549E+03  0.25500000000E-02 0.  1.
          2   -1    0    0  501    0  0.00000000000E+00 -0.00000000000E+00 -0.15929471385E+03  0.15929471387E+03  0.25500000000E-02 0. -1.
    5000001    1    1    2    0    0  0.15172572686E+03  0.14281164783E+03  0.77157714570E+02  0.29365485840E+03  0.19200000000E+03 0.  0.
   -5000001    1    1    2    0    0 -0.15172572686E+03 -0.14281164783E+03  0.34212687707E+03  0.44421916095E+03  0.19200000000E+03 0.  0.
<mgrwt>
<rscale>  0 0.60717255E+03</rscale>
<asrwt>0</asrwt>
<pdfrwt beam="1">  1        2 0.22756388E-01 0.60717255E+03</pdfrwt>
<pdfrwt beam="2">  1       -2 0.82654187E-01 0.60717255E+03</pdfrwt>
<totfact> 0.31699263E+02</totfact>
</mgrwt>
</event>
<event>
 4    1  0.2892809E-005  0.4996455E+03  0.7818608E-02  0.1013871E+00
          2   -1    0    0  501    0  0.00000000000E+00  0.00000000000E+00  0.45103349737E+03  0.45103349738E+03  0.25500000000E-02 0.  1.
         -2   -1    0    0    0  501 -0.00000000000E+00 -0.00000000000E+00 -0.13837422613E+03  0.13837422616E+03  0.25500000000E-02 0. -1.
    5000001    1    1    2    0    0  0.99475330867E+02  0.48438551380E+02  0.29240325513E+03  0.36688594729E+03  0.19200000000E+03 0.  0.
   -5000001    1    1    2    0    0 -0.99475330867E+02 -0.48438551380E+02  0.20256016105E+02  0.22252177624E+03  0.19200000000E+03 0.  0.
<mgrwt>
<rscale>  0 0.49964552E+03</rscale>
<asrwt>0</asrwt>
<pdfrwt beam="1">  1        2 0.64433356E-01 0.49964552E+03</pdfrwt>
<pdfrwt beam="2">  1       -2 0.19767747E-01 0.49964552E+03</pdfrwt>
<totfact> 0.16391177E+03</totfact>
</mgrwt>
</event>
<event>
 4    1  0.2892809E-005  0.9717589E+03  0.7818608E-02  0.9340073E-01
         -2   -1    0    0    0  501 -0.00000000000E+00  0.00000000000E+00  0.33131932212E+03  0.33131932213E+03  0.25500000000E-02 0. -1.
          2   -1    0    0  501    0  0.00000000000E+00 -0.00000000000E+00 -0.71254166697E+03  0.71254166697E+03  0.25500000000E-02 0.  1.
    5000001    1    1    2    0    0  0.37003825991E+03  0.71319643743E+02 -0.44752189755E+03  0.61575535253E+03  0.19200000000E+03 0.  0.
   -5000001    1    1    2    0    0 -0.37003825991E+03 -0.71319643743E+02  0.66299552702E+02  0.42810563658E+03  0.19200000000E+03 0.  0.
<mgrwt>
<rscale>  0 0.97175886E+03</rscale>
<asrwt>0</asrwt>
<pdfrwt beam="1">  1        2 0.10179167E+00 0.97175886E+03</pdfrwt>
<pdfrwt beam="2">  1       -2 0.47331332E-01 0.97175886E+03</pdfrwt>
<totfact> 0.18611316E+02</totfact>
</mgrwt>
</event>
<event>
 4    1  0.2892809E-005  0.4506738E+03  0.7818608E-02  0.1027521E+00
         -2   -1    0    0    0  501 -0.00000000000E+00  0.00000000000E+00  0.13594310471E+03  0.13594310474E+03  0.25500000000E-02 0. -1.
          2   -1    0    0  501    0  0.00000000000E+00 -0.00000000000E+00 -0.37351449005E+03  0.37351449006E+03  0.25500000000E-02 0.  1.
    5000001    1    1    2    0    0 -0.50648823737E+02 -0.30416445540E+02 -0.23419121548E+03  0.30854495444E+03  0.19200000000E+03 0.  0.
   -5000001    1    1    2    0    0  0.50648823737E+02  0.30416445540E+02 -0.33801698576E+01  0.20091264035E+03  0.19200000000E+03 0.  0.
<mgrwt>
<rscale>  0 0.45067380E+03</rscale>
<asrwt>0</asrwt>
<pdfrwt beam="1">  1        2 0.53359213E-01 0.45067380E+03</pdfrwt>
<pdfrwt beam="2">  1       -2 0.19420444E-01 0.45067380E+03</pdfrwt>
<totfact> 0.20804905E+03</totfact>
</mgrwt>
</event>
<event>
 4    1  0.2892809E-005  0.4957205E+03  0.7818608E-02  0.1014902E+00
          2   -1    0    0  501    0  0.00000000000E+00  0.00000000000E+00  0.58576653254E+03  0.58576653254E+03  0.25500000000E-02 0.  1.
         -2   -1    0    0    0  501 -0.00000000000E+00 -0.00000000000E+00 -0.10487914558E+03  0.10487914561E+03  0.25500000000E-02 0. -1.
    5000001    1    1    2    0    0 -0.86679929381E+02 -0.13060013608E+03  0.23913099764E+03  0.34440882644E+03  0.19200000000E+03 0.  0.
   -5000001    1    1    2    0    0  0.86679929381E+02  0.13060013608E+03  0.24175638933E+03  0.34623685171E+03  0.19200000000E+03 0.  0.
<mgrwt>
<rscale>  0 0.49572046E+03</rscale>
<asrwt>0</asrwt>
<pdfrwt beam="1">  1        2 0.83680935E-01 0.49572046E+03</pdfrwt>
<pdfrwt beam="2">  1       -2 0.14982735E-01 0.49572046E+03</pdfrwt>
<totfact> 0.19520423E+03</totfact>
</mgrwt>
</event>
<event>
 4    1  0.2892809E-005  0.8302334E+03  0.7818608E-02  0.9517258E-01
         -2   -1    0    0    0  501 -0.00000000000E+00  0.00000000000E+00  0.10320232434E+03  0.10320232437E+03  0.25500000000E-02 0. -1.
          2   -1    0    0  501    0  0.00000000000E+00 -0.00000000000E+00 -0.16697478466E+04  0.16697478466E+04  0.25500000000E-02 0.  1.
    5000001    1    1    2    0    0 -0.80810688039E+02 -0.35616618843E+03 -0.88050503271E+03  0.97238769722E+03  0.19200000000E+03 0.  0.
   -5000001    1    1    2    0    0  0.80810688039E+02  0.35616618843E+03 -0.68604048954E+03  0.80056247374E+03  0.19200000000E+03 0.  0.
<mgrwt>
<rscale>  0 0.83023336E+03</rscale>
<asrwt>0</asrwt>
<pdfrwt beam="1">  1        2 0.23853539E+00 0.83023336E+03</pdfrwt>
<pdfrwt beam="2">  1       -2 0.14743190E-01 0.83023336E+03</pdfrwt>
<totfact> 0.43268620E+02</totfact>
</mgrwt>
</event>
<event>
 4    1  0.2892809E-005  0.8560276E+03  0.7818608E-02  0.9482282E-01
         -2   -1    0    0    0  501 -0.00000000000E+00  0.00000000000E+00  0.58296942453E+02  0.58296942509E+02  0.25500000000E-02 0. -1.
          2   -1    0    0  501    0  0.00000000000E+00 -0.00000000000E+00 -0.31424600139E+04  0.31424600139E+04  0.25500000000E-02 0.  1.
    5000001    1    1    2    0    0  0.37929518231E+03 -0.16259034679E+02 -0.17175643692E+04  0.17694690033E+04  0.19200000000E+03 0.  0.
   -5000001    1    1    2    0    0 -0.37929518231E+03  0.16259034679E+02 -0.13665987022E+04  0.14312879530E+04  0.19200000000E+03 0.  0.
<mgrwt>
<rscale>  0 0.85602759E+03</rscale>
<asrwt>0</asrwt>
<pdfrwt beam="1">  1        2 0.44892275E+00 0.85602759E+03</pdfrwt>
<pdfrwt beam="2">  1       -2 0.83281366E-02 0.85602759E+03</pdfrwt>
<totfact> 0.18800311E+02</totfact>
</mgrwt>
</event>
<event>
 4    1  0.2892809E-005  0.1012074E+04  0.7818608E-02  0.9295401E-01
         -2   -1    0    0    0  501 -0.00000000000E+00  0.00000000000E+00  0.22664392567E+03  0.22664392568E+03  0.25500000000E-02 0. -1.
          2   -1    0    0  501    0  0.00000000000E+00 -0.00000000000E+00 -0.11298486548E+04  0.11298486548E+04  0.25500000000E-02 0.  1.
    5000001    1    1    2    0    0 -0.35483441338E+03  0.27043312242E+03 -0.64194431305E+03  0.80498325180E+03  0.19200000000E+03 0.  0.
   -5000001    1    1    2    0    0  0.35483441338E+03 -0.27043312242E+03 -0.26126041610E+03  0.55150932870E+03  0.19200000000E+03 0.  0.
<mgrwt>
<rscale>  0 0.10120738E+04</rscale>
<asrwt>0</asrwt>
<pdfrwt beam="1">  1        2 0.16140695E+00 0.10120738E+04</pdfrwt>
<pdfrwt beam="2">  1       -2 0.32377704E-01 0.10120738E+04</pdfrwt>
<totfact> 0.20747444E+02</totfact>
</mgrwt>
</event>
<event>
 4    1  0.2892809E-005  0.6688842E+03  0.7818608E-02  0.9771976E-01
          2   -1    0    0  501    0  0.00000000000E+00  0.00000000000E+00  0.63759548000E+03  0.63759548001E+03  0.25500000000E-02 0.  1.
         -2   -1    0    0    0  501 -0.00000000000E+00 -0.00000000000E+00 -0.17542711022E+03  0.17542711024E+03  0.25500000000E-02 0. -1.
    5000001    1    1    2    0    0 -0.25353725669E+03 -0.10163974761E+03  0.20752266529E+03  0.39311758474E+03  0.19200000000E+03 0.  0.
   -5000001    1    1    2    0    0  0.25353725669E+03  0.10163974761E+03  0.25464570450E+03  0.41990500550E+03  0.19200000000E+03 0.  0.
<mgrwt>
<rscale>  0 0.66888424E+03</rscale>
<asrwt>0</asrwt>
<pdfrwt beam="1">  1        2 0.91085071E-01 0.66888424E+03</pdfrwt>
<pdfrwt beam="2">  1       -2 0.25061015E-01 0.66888424E+03</pdfrwt>
<totfact> 0.72245921E+02</totfact>
</mgrwt>
</event>
<event>
 4    1  0.2892809E-005  0.8510694E+03  0.7818608E-02  0.9488903E-01
          2   -1    0    0  501    0  0.00000000000E+00  0.00000000000E+00  0.35811099519E+03  0.35811099520E+03  0.25500000000E-02 0.  1.
         -2   -1    0    0    0  501 -0.00000000000E+00 -0.00000000000E+00 -0.50565261280E+03  0.50565261280E+03  0.25500000000E-02 0. -1.
    5000001    1    1    2    0    0 -0.34806193922E+03  0.12924762261E+03 -0.15473346782E+03  0.44571123785E+03  0.19200000000E+03 0.  0.
   -5000001    1    1    2    0    0  0.34806193922E+03 -0.12924762261E+03  0.71918502147E+01  0.41805237015E+03  0.19200000000E+03 0.  0.
<mgrwt>
<rscale>  0 0.85106935E+03</rscale>
<asrwt>0</asrwt>
<pdfrwt beam="1">  1        2 0.51158714E-01 0.85106935E+03</pdfrwt>
<pdfrwt beam="2">  1       -2 0.72236087E-01 0.85106935E+03</pdfrwt>
<totfact> 0.17081200E+02</totfact>
</mgrwt>
</event>
<event>
 4    1  0.2892809E-005  0.4922247E+03  0.7818608E-02  0.1015829E+00
          2   -1    0    0  501    0  0.00000000000E+00  0.00000000000E+00  0.10686287253E+04  0.10686287253E+04  0.25500000000E-02 0.  1.
         -2   -1    0    0    0  501 -0.00000000000E+00 -0.00000000000E+00 -0.56681331834E+02  0.56681331892E+02  0.25500000000E-02 0. -1.
    5000001    1    1    2    0    0 -0.50491067756E+02 -0.86397311566E+02  0.23844812832E+03  0.32207973123E+03  0.19200000000E+03 0.  0.
   -5000001    1    1    2    0    0  0.50491067756E+02  0.86397311566E+02  0.77349926513E+03  0.80323032595E+03  0.19200000000E+03 0.  0.
<mgrwt>
<rscale>  0 0.49222474E+03</rscale>
<asrwt>0</asrwt>
<pdfrwt beam="1">  1        2 0.15266124E+00 0.49222474E+03</pdfrwt>
<pdfrwt beam="2">  1       -2 0.80973334E-02 0.49222474E+03</pdfrwt>
<totfact> 0.24686749E+03</totfact>
</mgrwt>
</event>
<event>
 4    1  0.2892809E-005  0.8657657E+03  0.7818608E-02  0.9469418E-01
         -2   -1    0    0    0  501 -0.00000000000E+00  0.00000000000E+00  0.20234641185E+03  0.20234641187E+03  0.25500000000E-02 0. -1.
          2   -1    0    0  501    0  0.00000000000E+00 -0.00000000000E+00 -0.92607315421E+03  0.92607315421E+03  0.25500000000E-02 0.  1.
    5000001    1    1    2    0    0 -0.25225747350E+03 -0.20638138226E+03 -0.87545071506E+02  0.38827213063E+03  0.19200000000E+03 0.  0.
   -5000001    1    1    2    0    0  0.25225747350E+03  0.20638138226E+03 -0.63618167085E+03  0.74014743545E+03  0.19200000000E+03 0.  0.
<mgrwt>
<rscale>  0 0.86576574E+03</rscale>
<asrwt>0</asrwt>
<pdfrwt beam="1">  1        2 0.13229616E+00 0.86576574E+03</pdfrwt>
<pdfrwt beam="2">  1       -2 0.28906631E-01 0.86576574E+03</pdfrwt>
<totfact> 0.34382312E+02</totfact>
</mgrwt>
</event>
<event>
 4    1  0.2892809E-005  0.5342767E+03  0.7818608E-02  0.1005200E+00
          2   -1    0    0  501    0  0.00000000000E+00  0.00000000000E+00  0.15555174393E+04  0.15555174393E+04  0.25500000000E-02 0.  1.
         -2   -1    0    0    0  501 -0.00000000000E+00 -0.00000000000E+00 -0.45877270796E+02  0.45877270867E+02  0.25500000000E-02 0. -1.
    5000001    1    1    2    0    0 -0.11798576229E+03 -0.12469265401E+03  0.96739695902E+03  0.10010942885E+04  0.19200000000E+03 0.  0.
   -5000001    1    1    2    0    0  0.11798576229E+03  0.12469265401E+03  0.54224320943E+03  0.60030042166E+03  0.19200000000E+03 0.  0.
<mgrwt>
<rscale>  0 0.53427669E+03</rscale>
<asrwt>0</asrwt>
<pdfrwt beam="1">  1        2 0.22221675E+00 0.53427669E+03</pdfrwt>
<pdfrwt beam="2">  1       -2 0.65538965E-02 0.53427669E+03</pdfrwt>
<totfact> 0.18748557E+03</totfact>
</mgrwt>
</event>
<event>
 4    1  0.2892809E-005  0.9973029E+03  0.7818608E-02  0.9311508E-01
          2   -1    0    0  501    0  0.00000000000E+00  0.00000000000E+00  0.22745629722E+04  0.22745629722E+04  0.25500000000E-02 0.  1.
         -2   -1    0    0    0  501 -0.00000000000E+00 -0.00000000000E+00 -0.10931915067E+03  0.10931915069E+03  0.25500000000E-02 0. -1.
    5000001    1    1    2    0    0  0.32441300416E+03  0.18440784302E+03  0.43883197657E+03  0.60719647026E+03  0.19200000000E+03 0.  0.
   -5000001    1    1    2    0    0 -0.32441300416E+03 -0.18440784302E+03  0.17264118450E+04  0.17766856526E+04  0.19200000000E+03 0.  0.
<mgrwt>
<rscale>  0 0.99730295E+03</rscale>
<asrwt>0</asrwt>
<pdfrwt beam="1">  1        2 0.32493754E+00 0.99730295E+03</pdfrwt>
<pdfrwt beam="2">  1       -2 0.15617023E-01 0.99730295E+03</pdfrwt>
<totfact> 0.19052363E+02</totfact>
</mgrwt>
</event>
<event>
 4    1  0.2892809E-005  0.5939364E+03  0.7818608E-02  0.9918067E-01
          2   -1    0    0  501    0  0.00000000000E+00  0.00000000000E+00  0.18742199582E+04  0.18742199582E+04  0.25500000000E-02 0.  1.
         -2   -1    0    0    0  501 -0.00000000000E+00 -0.00000000000E+00 -0.47054297724E+02  0.47054297793E+02  0.25500000000E-02 0. -1.
    5000001    1    1    2    0    0  0.10595612201E+03 -0.23545976292E+02  0.15568556211E+04  0.15724008833E+04  0.19200000000E+03 0.  0.
   -5000001    1    1    2    0    0 -0.10595612201E+03  0.23545976292E+02  0.27031003930E+03  0.34887337264E+03  0.19200000000E+03 0.  0.
<mgrwt>
<rscale>  0 0.59393637E+03</rscale>
<asrwt>0</asrwt>
<pdfrwt beam="1">  1        2 0.26774574E+00 0.59393637E+03</pdfrwt>
<pdfrwt beam="2">  1       -2 0.67220417E-02 0.59393637E+03</pdfrwt>
<totfact> 0.12384506E+03</totfact>
</mgrwt>
</event>
<event>
 4    1  0.2892809E-005  0.4501968E+03  0.7818608E-02  0.1027663E+00
          2   -1    0    0  501    0  0.00000000000E+00  0.00000000000E+00  0.18218479457E+03  0.18218479458E+03  0.25500000000E-02 0.  1.
         -2   -1    0    0    0  501 -0.00000000000E+00 -0.00000000000E+00 -0.27812028464E+03  0.27812028465E+03  0.25500000000E-02 0. -1.
    5000001    1    1    2    0    0 -0.10130487903E+03 -0.16873600933E+01  0.12864011817E+02  0.21747415593E+03  0.19200000000E+03 0.  0.
   -5000001    1    1    2    0    0  0.10130487903E+03  0.16873600933E+01 -0.10879950189E+03  0.24283092330E+03  0.19200000000E+03 0.  0.
<mgrwt>
<rscale>  0 0.45019679E+03</rscale>
<asrwt>0</asrwt>
<pdfrwt beam="1">  1        2 0.26026399E-01 0.45019679E+03</pdfrwt>
<pdfrwt beam="2">  1       -2 0.39731469E-01 0.45019679E+03</pdfrwt>
<totfact> 0.12512777E+03</totfact>
</mgrwt>
</event>
<event>
 4    1  0.2892809E-005  0.4653704E+03  0.7818608E-02  0.1023235E+00
          2   -1    0    0  501    0  0.00000000000E+00  0.00000000000E+00  0.20553545534E+04  0.20553545534E+04  0.25500000000E-02 0.  1.
         -2   -1    0    0    0  501 -0.00000000000E+00 -0.00000000000E+00 -0.26342127012E+02  0.26342127136E+02  0.25500000000E-02 0. -1.
    5000001    1    1    2    0    0 -0.78283387539E+02 -0.55971977069E+02  0.61397935961E+03  0.65045815008E+03  0.19200000000E+03 0.  0.
   -5000001    1    1    2    0    0  0.78283387539E+02  0.55971977069E+02  0.14150330667E+04  0.14312385304E+04  0.19200000000E+03 0.  0.
<mgrwt>
<rscale>  0 0.46537044E+03</rscale>
<asrwt>0</asrwt>
<pdfrwt beam="1">  1        2 0.29362209E+00 0.46537044E+03</pdfrwt>
<pdfrwt beam="2">  1       -2 0.37631609E-02 0.46537044E+03</pdfrwt>
<totfact> 0.24818590E+03</totfact>
</mgrwt>
</event>
<event>
 4    1  0.2892809E-005  0.8181540E+03  0.7818608E-02  0.9534105E-01
          2   -1    0    0  501    0  0.00000000000E+00  0.00000000000E+00  0.18233036889E+04  0.18233036889E+04  0.25500000000E-02 0.  1.
         -2   -1    0    0    0  501 -0.00000000000E+00 -0.00000000000E+00 -0.91780640099E+02  0.91780640134E+02  0.25500000000E-02 0. -1.
    5000001    1    1    2    0    0  0.11784255282E+03  0.14251478495E+03  0.13944341194E+03  0.30084181278E+03  0.19200000000E+03 0.  0.
   -5000001    1    1    2    0    0 -0.11784255282E+03 -0.14251478495E+03  0.15920796369E+04  0.16142425163E+04  0.19200000000E+03 0.  0.
<mgrwt>
<rscale>  0 0.81815397E+03</rscale>
<asrwt>0</asrwt>
<pdfrwt beam="1">  1        2 0.26047193E+00 0.81815397E+03</pdfrwt>
<pdfrwt beam="2">  1       -2 0.13111521E-01 0.81815397E+03</pdfrwt>
<totfact> 0.43994036E+02</totfact>
</mgrwt>
</event>
<event>
 4    1  0.2892809E-005  0.5307535E+03  0.7818608E-02  0.1006050E+00
         -2   -1    0    0    0  501 -0.00000000000E+00  0.00000000000E+00  0.29564558730E+03  0.29564558731E+03  0.25500000000E-02 0. -1.
          2   -1    0    0  501    0  0.00000000000E+00 -0.00000000000E+00 -0.23820686585E+03  0.23820686587E+03  0.25500000000E-02 0.  1.
    5000001    1    1    2    0    0  0.78381222662E+02  0.48640103585E+02  0.18791964139E+03  0.28405504284E+03  0.19200000000E+03 0.  0.
   -5000001    1    1    2    0    0 -0.78381222662E+02 -0.48640103585E+02 -0.13048091994E+03  0.24979741034E+03  0.19200000000E+03 0.  0.
<mgrwt>
<rscale>  0 0.53075346E+03</rscale>
<asrwt>0</asrwt>
<pdfrwt beam="1">  1        2 0.34029552E-01 0.53075346E+03</pdfrwt>
<pdfrwt beam="2">  1       -2 0.42235084E-01 0.53075346E+03</pdfrwt>
<totfact> 0.82348164E+02</totfact>
</mgrwt>
</event>
<event>
 4    1  0.2892809E-005  0.1190744E+04  0.7818608E-02  0.9120997E-01
          2   -1    0    0  501    0  0.00000000000E+00  0.00000000000E+00  0.81718670427E+03  0.81718670428E+03  0.25500000000E-02 0.  1.
         -2   -1    0    0    0  501 -0.00000000000E+00 -0.00000000000E+00 -0.43376585092E+03  0.43376585093E+03  0.25500000000E-02 0. -1.
    5000001    1    1    2    0    0 -0.11444544223E+03 -0.10453930497E+03  0.76093530446E+03  0.79994547508E+03  0.19200000000E+03 0.  0.
   -5000001    1    1    2    0    0  0.11444544223E+03  0.10453930497E+03 -0.37751445111E+03  0.45100708013E+03  0.19200000000E+03 0.  0.
<mgrwt>
<rscale>  0 0.11907438E+04</rscale>
<asrwt>0</asrwt>
<pdfrwt beam="1">  1        2 0.11674096E+00 0.11907438E+04</pdfrwt>
<pdfrwt beam="2">  1       -2 0.61966550E-01 0.11907438E+04</pdfrwt>
<totfact> 0.88363728E+01</totfact>
</mgrwt>
</event>
<event>
 4    1  0.2892809E-005  0.5168730E+03  0.7818608E-02  0.1009466E+00
          2   -1    0    0  501    0  0.00000000000E+00  0.00000000000E+00  0.21231532815E+04  0.21231532815E+04  0.25500000000E-02 0.  1.
         -2   -1    0    0    0  501 -0.00000000000E+00 -0.00000000000E+00 -0.31457661260E+02  0.31457661363E+02  0.25500000000E-02 0. -1.
    5000001    1    1    2    0    0  0.61677445423E+02  0.13161366017E+03  0.14368740739E+04  0.14569136444E+04  0.19200000000E+03 0.  0.
   -5000001    1    1    2    0    0 -0.61677445423E+02 -0.13161366017E+03  0.65482154632E+03  0.69769729851E+03  0.19200000000E+03 0.  0.
<mgrwt>
<rscale>  0 0.51687305E+03</rscale>
<asrwt>0</asrwt>
<pdfrwt beam="1">  1        2 0.30330773E+00 0.51687305E+03</pdfrwt>
<pdfrwt beam="2">  1       -2 0.44939498E-02 0.51687305E+03</pdfrwt>
<totfact> 0.17457543E+03</totfact>
</mgrwt>
</event>
<event>
 4    1  0.2892809E-005  0.6947268E+03  0.7818608E-02  0.9726293E-01
         -2   -1    0    0    0  501 -0.00000000000E+00  0.00000000000E+00  0.24190856424E+03  0.24190856425E+03  0.25500000000E-02 0. -1.
          2   -1    0    0  501    0  0.00000000000E+00 -0.00000000000E+00 -0.49878899527E+03  0.49878899528E+03  0.25500000000E-02 0.  1.
    5000001    1    1    2    0    0 -0.27626074928E+03  0.60338676047E+02 -0.19447892196E+03  0.39325158424E+03  0.19200000000E+03 0.  0.
   -5000001    1    1    2    0    0  0.27626074928E+03 -0.60338676047E+02 -0.62401509073E+02  0.34744597530E+03  0.19200000000E+03 0.  0.
<mgrwt>
<rscale>  0 0.69472679E+03</rscale>
<asrwt>0</asrwt>
<pdfrwt beam="1">  1        2 0.71255570E-01 0.69472679E+03</pdfrwt>
<pdfrwt beam="2">  1       -2 0.34558367E-01 0.69472679E+03</pdfrwt>
<totfact> 0.53133294E+02</totfact>
</mgrwt>
</event>
<event>
 4    1  0.2892809E-005  0.1025207E+04  0.7818608E-02  0.9281323E-01
         -2   -1    0    0    0  501 -0.00000000000E+00  0.00000000000E+00  0.45978929480E+03  0.45978929480E+03  0.25500000000E-02 0. -1.
          2   -1    0    0  501    0  0.00000000000E+00 -0.00000000000E+00 -0.57148399275E+03  0.57148399276E+03  0.25500000000E-02 0.  1.
    5000001    1    1    2    0    0  0.49337924076E+02  0.24986751087E+03  0.34781291594E+03  0.47191718366E+03  0.19200000000E+03 0.  0.
   -5000001    1    1    2    0    0 -0.49337924076E+02 -0.24986751087E+03 -0.45950761389E+03  0.55935610390E+03  0.19200000000E+03 0.  0.
<mgrwt>
<rscale>  0 0.10252068E+04</rscale>
<asrwt>0</asrwt>
<pdfrwt beam="1">  1        2 0.81640570E-01 0.10252068E+04</pdfrwt>
<pdfrwt beam="2">  1       -2 0.65684185E-01 0.10252068E+04</pdfrwt>
<totfact> 0.12242827E+02</totfact>
</mgrwt>
</event>
<event>
 4    1  0.2892809E-005  0.6753524E+03  0.7818608E-02  0.9760337E-01
         -2   -1    0    0    0  501 -0.00000000000E+00  0.00000000000E+00  0.43819883690E+03  0.43819883691E+03  0.25500000000E-02 0. -1.
          2   -1    0    0  501    0  0.00000000000E+00 -0.00000000000E+00 -0.26021339438E+03  0.26021339439E+03  0.25500000000E-02 0.  1.
    5000001    1    1    2    0    0  0.23276884117E+03  0.10141492304E+03  0.20551147259E+03  0.37890009950E+03  0.19200000000E+03 0.  0.
   -5000001    1    1    2    0    0 -0.23276884117E+03 -0.10141492304E+03 -0.27526030067E+02  0.31951213180E+03  0.19200000000E+03 0.  0.
<mgrwt>
<rscale>  0 0.67535237E+03</rscale>
<asrwt>0</asrwt>
<pdfrwt beam="1">  1        2 0.37173343E-01 0.67535237E+03</pdfrwt>
<pdfrwt beam="2">  1       -2 0.62599833E-01 0.67535237E+03</pdfrwt>
<totfact> 0.33387515E+02</totfact>
</mgrwt>
</event>
<event>
 4    1  0.2892809E-005  0.5235671E+03  0.7818608E-02  0.1007804E+00
          2   -1    0    0  501    0  0.00000000000E+00  0.00000000000E+00  0.30527830722E+04  0.30527830722E+04  0.25500000000E-02 0.  1.
         -2   -1    0    0    0  501 -0.00000000000E+00 -0.00000000000E+00 -0.22448570021E+02  0.22448570165E+02  0.25500000000E-02 0. -1.
    5000001    1    1    2    0    0 -0.12126990882E+03  0.11365121180E+02  0.22771782386E+04  0.22885017560E+04  0.19200000000E+03 0.  0.
   -5000001    1    1    2    0    0  0.12126990882E+03 -0.11365121180E+02  0.75315626357E+03  0.78672988638E+03  0.19200000000E+03 0.  0.
<mgrwt>
<rscale>  0 0.52356705E+03</rscale>
<asrwt>0</asrwt>
<pdfrwt beam="1">  1        2 0.43611188E+00 0.52356705E+03</pdfrwt>
<pdfrwt beam="2">  1       -2 0.32069385E-02 0.52356705E+03</pdfrwt>
<totfact> 0.96511287E+02</totfact>
</mgrwt>
</event>
<event>
 4    1  0.2892809E-005  0.5446561E+03  0.7818608E-02  0.1002738E+00
         -2   -1    0    0    0  501 -0.00000000000E+00  0.00000000000E+00  0.63095230132E+02  0.63095230183E+02  0.25500000000E-02 0. -1.
          2   -1    0    0  501    0  0.00000000000E+00 -0.00000000000E+00 -0.11754068018E+04  0.11754068018E+04  0.25500000000E-02 0.  1.
    5000001    1    1    2    0    0 -0.10988999331E+03 -0.15881644158E+03 -0.55683774088E+03  0.61986348692E+03  0.19200000000E+03 0.  0.
   -5000001    1    1    2    0    0  0.10988999331E+03  0.15881644158E+03 -0.55547383075E+03  0.61863854503E+03  0.19200000000E+03 0.  0.
<mgrwt>
<rscale>  0 0.54465608E+03</rscale>
<asrwt>0</asrwt>
<pdfrwt beam="1">  1        2 0.16791524E+00 0.54465608E+03</pdfrwt>
<pdfrwt beam="2">  1       -2 0.90136050E-02 0.54465608E+03</pdfrwt>
<totfact> 0.18058078E+03</totfact>
</mgrwt>
</event>
<event>
 4    1  0.2892809E-005  0.5488072E+03  0.7818608E-02  0.1001770E+00
          2   -1    0    0  501    0  0.00000000000E+00  0.00000000000E+00  0.13911180181E+04  0.13911180181E+04  0.25500000000E-02 0.  1.
         -2   -1    0    0    0  501 -0.00000000000E+00 -0.00000000000E+00 -0.54127202713E+02  0.54127202773E+02  0.25500000000E-02 0. -1.
    5000001    1    1    2    0    0  0.19083004245E+03 -0.10416796620E+02  0.78354683158E+03  0.82905624178E+03  0.19200000000E+03 0.  0.
   -5000001    1    1    2    0    0 -0.19083004245E+03  0.10416796620E+02  0.55344398385E+03  0.61618897914E+03  0.19200000000E+03 0.  0.
<mgrwt>
<rscale>  0 0.54880717E+03</rscale>
<asrwt>0</asrwt>
<pdfrwt beam="1">  1        2 0.19873112E+00 0.54880717E+03</pdfrwt>
<pdfrwt beam="2">  1       -2 0.77324585E-02 0.54880717E+03</pdfrwt>
<totfact> 0.17589177E+03</totfact>
</mgrwt>
</event>
<event>
 4    1  0.2892809E-005  0.5632437E+03  0.7818608E-02  0.9984742E-01
         -2   -1    0    0    0  501 -0.00000000000E+00  0.00000000000E+00  0.39103727491E+03  0.39103727492E+03  0.25500000000E-02 0.  1.
          2   -1    0    0  501    0  0.00000000000E+00 -0.00000000000E+00 -0.20282174806E+03  0.20282174807E+03  0.25500000000E-02 0. -1.
    5000001    1    1    2    0    0  0.38022478769E+02 -0.18688532951E+03  0.17628682542E+03  0.32297504562E+03  0.19200000000E+03 0.  0.
   -5000001    1    1    2    0    0 -0.38022478769E+02  0.18688532951E+03  0.11928701431E+02  0.27088397737E+03  0.19200000000E+03 0.  0.
<mgrwt>
<rscale>  0 0.56324369E+03</rscale>
<asrwt>0</asrwt>
<pdfrwt beam="1">  1        2 0.28974536E-01 0.56324369E+03</pdfrwt>
<pdfrwt beam="2">  1       -2 0.55862467E-01 0.56324369E+03</pdfrwt>
<totfact> 0.56137628E+02</totfact>
</mgrwt>
</event>
<event>
 4    1  0.2892809E-005  0.4588200E+03  0.7818608E-02  0.1025124E+00
         -2   -1    0    0    0  501 -0.00000000000E+00  0.00000000000E+00  0.72949253616E+03  0.72949253616E+03  0.25500000000E-02 0. -1.
          2   -1    0    0  501    0  0.00000000000E+00 -0.00000000000E+00 -0.72144613123E+02  0.72144613168E+02  0.25500000000E-02 0.  1.
    5000001    1    1    2    0    0 -0.36958629116E+02 -0.11991402817E+03  0.32093054314E+03  0.39446891885E+03  0.19200000000E+03 0.  0.
   -5000001    1    1    2    0    0  0.36958629116E+02  0.11991402817E+03  0.33641737990E+03  0.40716823048E+03  0.19200000000E+03 0.  0.
<mgrwt>
<rscale>  0 0.45882004E+03</rscale>
<asrwt>0</asrwt>
<pdfrwt beam="1">  1        2 0.10306373E-01 0.45882004E+03</pdfrwt>
<pdfrwt beam="2">  1       -2 0.10421322E+00 0.45882004E+03</pdfrwt>
<totfact> 0.48311568E+02</totfact>
</mgrwt>
</event>
<event>
 4    1  0.2892809E-005  0.5151824E+03  0.7818608E-02  0.1009890E+00
          2   -1    0    0  501    0  0.00000000000E+00  0.00000000000E+00  0.33120483225E+03  0.33120483226E+03  0.25500000000E-02 0.  1.
         -2   -1    0    0    0  501 -0.00000000000E+00 -0.00000000000E+00 -0.20033890771E+03  0.20033890773E+03  0.25500000000E-02 0. -1.
    5000001    1    1    2    0    0 -0.17089585214E+03  0.78596323818E+01  0.50058437999E+02  0.26198666629E+03  0.19200000000E+03 0.  0.
   -5000001    1    1    2    0    0  0.17089585214E+03 -0.78596323818E+01  0.80807486545E+02  0.26955707370E+03  0.19200000000E+03 0.  0.
<mgrwt>
<rscale>  0 0.51518235E+03</rscale>
<asrwt>0</asrwt>
<pdfrwt beam="1">  1        2 0.47314975E-01 0.51518235E+03</pdfrwt>
<pdfrwt beam="2">  1       -2 0.28619844E-01 0.51518235E+03</pdfrwt>
<totfact> 0.11944491E+03</totfact>
</mgrwt>
</event>
<event>
 4    1  0.2892809E-005  0.5434000E+03  0.7818608E-02  0.1003033E+00
         -2   -1    0    0    0  501 -0.00000000000E+00  0.00000000000E+00  0.10526410314E+03  0.10526410318E+03  0.25500000000E-02 0. -1.
          2   -1    0    0  501    0  0.00000000000E+00 -0.00000000000E+00 -0.70129224960E+03  0.70129224961E+03  0.25500000000E-02 0.  1.
    5000001    1    1    2    0    0  0.78080805645E+02 -0.14506677368E+03 -0.44506932173E+03  0.51194890583E+03  0.19200000000E+03 0.  0.
   -5000001    1    1    2    0    0 -0.78080805645E+02  0.14506677368E+03 -0.15095882473E+03  0.29460744695E+03  0.19200000000E+03 0.  0.
<mgrwt>
<rscale>  0 0.54340004E+03</rscale>
<asrwt>0</asrwt>
<pdfrwt beam="1">  1        2 0.10018460E+00 0.54340004E+03</pdfrwt>
<pdfrwt beam="2">  1       -2 0.15037729E-01 0.54340004E+03</pdfrwt>
<totfact> 0.15661441E+03</totfact>
</mgrwt>
</event>
<event>
 4    1  0.2892809E-005  0.1411562E+04  0.7818608E-02  0.8945491E-01
          2   -1    0    0  501    0  0.00000000000E+00  0.00000000000E+00  0.68206723558E+03  0.68206723558E+03  0.25500000000E-02 0.  1.
         -2   -1    0    0    0  501 -0.00000000000E+00 -0.00000000000E+00 -0.73031950325E+03  0.73031950326E+03  0.25500000000E-02 0. -1.
    5000001    1    1    2    0    0 -0.47329404790E+03 -0.33443129629E+03 -0.37846778042E+03  0.71829896876E+03  0.19200000000E+03 0.  0.
   -5000001    1    1    2    0    0  0.47329404790E+03  0.33443129629E+03  0.33021551274E+03  0.69408777008E+03  0.19200000000E+03 0.  0.
<mgrwt>
<rscale>  0 0.14115623E+04</rscale>
<asrwt>0</asrwt>
<pdfrwt beam="1">  1        2 0.97438177E-01 0.14115623E+04</pdfrwt>
<pdfrwt beam="2">  1       -2 0.10433136E+00 0.14115623E+04</pdfrwt>
<totfact> 0.33798115E+01</totfact>
</mgrwt>
</event>
<event>
 4    1  0.2892809E-005  0.1265786E+04  0.7818608E-02  0.9057146E-01
         -2   -1    0    0    0  501 -0.00000000000E+00  0.00000000000E+00  0.14175621338E+03  0.14175621341E+03  0.25500000000E-02 0. -1.
          2   -1    0    0  501    0  0.00000000000E+00 -0.00000000000E+00 -0.28256508240E+04  0.28256508240E+04  0.25500000000E-02 0.  1.
    5000001    1    1    2    0    0 -0.17621296409E+03  0.57294388211E+03 -0.11869053316E+04  0.13434745873E+04  0.19200000000E+03 0.  0.
   -5000001    1    1    2    0    0  0.17621296409E+03 -0.57294388211E+03 -0.14969892791E+04  0.16239324501E+04  0.19200000000E+03 0.  0.
<mgrwt>
<rscale>  0 0.12657860E+04</rscale>
<asrwt>0</asrwt>
<pdfrwt beam="1">  1        2 0.40366437E+00 0.12657860E+04</pdfrwt>
<pdfrwt beam="2">  1       -2 0.20250889E-01 0.12657860E+04</pdfrwt>
<totfact> 0.60989193E+01</totfact>
</mgrwt>
</event>
<event>
 4    1  0.2892809E-005  0.6578054E+03  0.7818608E-02  0.9792242E-01
          2   -1    0    0  501    0  0.00000000000E+00  0.00000000000E+00  0.15555824001E+04  0.15555824001E+04  0.25500000000E-02 0.  1.
         -2   -1    0    0    0  501 -0.00000000000E+00 -0.00000000000E+00 -0.69541149647E+02  0.69541149693E+02  0.25500000000E-02 0. -1.
    5000001    1    1    2    0    0  0.15007115629E+03 -0.21856568551E+03  0.66409223348E+03  0.74038828016E+03  0.19200000000E+03 0.  0.
   -5000001    1    1    2    0    0 -0.15007115629E+03  0.21856568551E+03  0.82194901698E+03  0.88473526964E+03  0.19200000000E+03 0.  0.
<mgrwt>
<rscale>  0 0.65780541E+03</rscale>
<asrwt>0</asrwt>
<pdfrwt beam="1">  1        2 0.22222604E+00 0.65780541E+03</pdfrwt>
<pdfrwt beam="2">  1       -2 0.99344507E-02 0.65780541E+03</pdfrwt>
<totfact> 0.96113472E+02</totfact>
</mgrwt>
</event>
<event>
 4    1  0.2892809E-005  0.5546873E+03  0.7818608E-02  0.1000415E+00
          2   -1    0    0  501    0  0.00000000000E+00  0.00000000000E+00  0.15354762083E+04  0.15354762083E+04  0.25500000000E-02 0.  1.
         -2   -1    0    0    0  501 -0.00000000000E+00 -0.00000000000E+00 -0.50094886914E+02  0.50094886979E+02  0.25500000000E-02 0. -1.
    5000001    1    1    2    0    0  0.98130845288E+02 -0.16185998642E+03  0.55684034017E+03  0.61867882010E+03  0.19200000000E+03 0.  0.
   -5000001    1    1    2    0    0 -0.98130845288E+02  0.16185998642E+03  0.92854098117E+03  0.96689227513E+03  0.19200000000E+03 0.  0.
<mgrwt>
<rscale>  0 0.55468732E+03</rscale>
<asrwt>0</asrwt>
<pdfrwt beam="1">  1        2 0.21935373E+00 0.55468732E+03</pdfrwt>
<pdfrwt beam="2">  1       -2 0.71564129E-02 0.55468732E+03</pdfrwt>
<totfact> 0.16706616E+03</totfact>
</mgrwt>
</event>
<event>
 4    1  0.2892809E-005  0.4477154E+03  0.7818608E-02  0.1028406E+00
         -2   -1    0    0    0  501 -0.00000000000E+00  0.00000000000E+00  0.21277757676E+02  0.21277757829E+02  0.25500000000E-02 0. -1.
          2   -1    0    0  501    0  0.00000000000E+00 -0.00000000000E+00 -0.23551477237E+04  0.23551477237E+04  0.25500000000E-02 0.  1.
    5000001    1    1    2    0    0 -0.60506610831E+02  0.77040147805E+01 -0.16850425120E+04  0.16970423298E+04  0.19200000000E+03 0.  0.
   -5000001    1    1    2    0    0  0.60506610831E+02 -0.77040147805E+01 -0.64882745406E+03  0.67938315180E+03  0.19200000000E+03 0.  0.
<mgrwt>
<rscale>  0 0.44771537E+03</rscale>
<asrwt>0</asrwt>
<pdfrwt beam="1">  1        2 0.33644951E+00 0.44771537E+03</pdfrwt>
<pdfrwt beam="2">  1       -2 0.30396812E-02 0.44771537E+03</pdfrwt>
<totfact> 0.24322778E+03</totfact>
</mgrwt>
</event>
<event>
 4    1  0.2892809E-005  0.7474836E+03  0.7818608E-02  0.9639306E-01
         -2   -1    0    0    0  501 -0.00000000000E+00  0.00000000000E+00  0.29772087540E+02  0.29772087649E+02  0.25500000000E-02 0.  1.
          2   -1    0    0  501    0  0.00000000000E+00 -0.00000000000E+00 -0.46917412454E+04  0.46917412454E+04  0.25500000000E-02 0. -1.
    5000001    1    1    2    0    0 -0.14587907859E+03  0.21059909716E+03 -0.35490503067E+04  0.35634610654E+04  0.19200000000E+03 0.  0.
   -5000001    1    1    2    0    0  0.14587907859E+03 -0.21059909716E+03 -0.11129188512E+04  0.11580522677E+04  0.19200000000E+03 0.  0.
<mgrwt>
<rscale>  0 0.74748360E+03</rscale>
<asrwt>0</asrwt>
<pdfrwt beam="1">  1        2 0.67024828E+00 0.74748360E+03</pdfrwt>
<pdfrwt beam="2">  1       -2 0.42531584E-02 0.74748360E+03</pdfrwt>
<totfact> 0.50216350E+01</totfact>
</mgrwt>
</event>
<event>
 4    1  0.2892809E-005  0.5046922E+03  0.7818608E-02  0.1012561E+00
         -2   -1    0    0    0  501 -0.00000000000E+00  0.00000000000E+00  0.66639775961E+02  0.66639776010E+02  0.25500000000E-02 0. -1.
          2   -1    0    0  501    0  0.00000000000E+00 -0.00000000000E+00 -0.95556376970E+03  0.95556376970E+03  0.25500000000E-02 0.  1.
    5000001    1    1    2    0    0  0.10875176430E+03 -0.54216628523E+02 -0.22214571723E+03  0.31777210187E+03  0.19200000000E+03 0.  0.
   -5000001    1    1    2    0    0 -0.10875176430E+03  0.54216628523E+02 -0.66677827651E+03  0.70443144384E+03  0.19200000000E+03 0.  0.
<mgrwt>
<rscale>  0 0.50469221E+03</rscale>
<asrwt>0</asrwt>
<pdfrwt beam="1">  1        2 0.13650910E+00 0.50469221E+03</pdfrwt>
<pdfrwt beam="2">  1       -2 0.95199686E-02 0.50469221E+03</pdfrwt>
<totfact> 0.22293934E+03</totfact>
</mgrwt>
</event>
<event>
 4    1  0.2892809E-005  0.9799673E+03  0.7818608E-02  0.9330793E-01
         -2   -1    0    0    0  501 -0.00000000000E+00  0.00000000000E+00  0.18016337148E+03  0.18016337150E+03  0.25500000000E-02 0. -1.
          2   -1    0    0  501    0  0.00000000000E+00 -0.00000000000E+00 -0.13325903408E+04  0.13325903408E+04  0.25500000000E-02 0.  1.
    5000001    1    1    2    0    0 -0.28072812171E+03  0.35144891022E+03 -0.62240412583E+03  0.79156522831E+03  0.19200000000E+03 0.  0.
   -5000001    1    1    2    0    0  0.28072812171E+03 -0.35144891022E+03 -0.53002284347E+03  0.72118848398E+03  0.19200000000E+03 0.  0.
<mgrwt>
<rscale>  0 0.97996728E+03</rscale>
<asrwt>0</asrwt>
<pdfrwt beam="1">  1        2 0.19037004E+00 0.97996728E+03</pdfrwt>
<pdfrwt beam="2">  1       -2 0.25737625E-01 0.97996728E+03</pdfrwt>
<totfact> 0.24416881E+02</totfact>
</mgrwt>
</event>
<event>
 4    1  0.2892809E-005  0.5863832E+03  0.7818608E-02  0.9934066E-01
         -2   -1    0    0    0  501 -0.00000000000E+00  0.00000000000E+00  0.68613199816E+02  0.68613199864E+02  0.25500000000E-02 0. -1.
          2   -1    0    0  501    0  0.00000000000E+00 -0.00000000000E+00 -0.12528392984E+04  0.12528392984E+04  0.25500000000E-02 0.  1.
    5000001    1    1    2    0    0  0.73265099239E+02  0.17879413156E+03 -0.83652039959E+03  0.87975308762E+03  0.19200000000E+03 0.  0.
   -5000001    1    1    2    0    0 -0.73265099239E+02 -0.17879413156E+03 -0.34770569896E+03  0.44169941061E+03  0.19200000000E+03 0.  0.
<mgrwt>
<rscale>  0 0.58638320E+03</rscale>
<asrwt>0</asrwt>
<pdfrwt beam="1">  1        2 0.17897703E+00 0.58638320E+03</pdfrwt>
<pdfrwt beam="2">  1       -2 0.98018865E-02 0.58638320E+03</pdfrwt>
<totfact> 0.14273072E+03</totfact>
</mgrwt>
</event>
<event>
 4    1  0.2892809E-005  0.8486219E+03  0.7818608E-02  0.9492188E-01
          2   -1    0    0  501    0  0.00000000000E+00  0.00000000000E+00  0.11868045778E+04  0.11868045778E+04  0.25500000000E-02 0.  1.
         -2   -1    0    0    0  501 -0.00000000000E+00 -0.00000000000E+00 -0.15170127857E+03  0.15170127859E+03  0.25500000000E-02 0. -1.
    5000001    1    1    2    0    0  0.13026068665E+03 -0.31133644997E+03  0.78743329356E+03  0.87795980738E+03  0.19200000000E+03 0.  0.
   -5000001    1    1    2    0    0 -0.13026068665E+03  0.31133644997E+03  0.24767000570E+03  0.46054604904E+03  0.19200000000E+03 0.  0.
<mgrwt>
<rscale>  0 0.84862188E+03</rscale>
<asrwt>0</asrwt>
<pdfrwt beam="1">  1        2 0.16954351E+00 0.84862188E+03</pdfrwt>
<pdfrwt beam="2">  1       -2 0.21671611E-01 0.84862188E+03</pdfrwt>
<totfact> 0.40350495E+02</totfact>
</mgrwt>
</event>
<event>
 4    1  0.2892809E-005  0.6949404E+03  0.7818608E-02  0.9725924E-01
          2   -1    0    0  501    0  0.00000000000E+00  0.00000000000E+00  0.11659011687E+04  0.11659011687E+04  0.25500000000E-02 0.  1.
         -2   -1    0    0    0  501 -0.00000000000E+00 -0.00000000000E+00 -0.10355556436E+03  0.10355556439E+03  0.25500000000E-02 0. -1.
    5000001    1    1    2    0    0  0.18869897984E+03 -0.21961709099E+03  0.52074582530E+03  0.62600254489E+03  0.19200000000E+03 0.  0.
   -5000001    1    1    2    0    0 -0.18869897984E+03  0.21961709099E+03  0.54159977903E+03  0.64345418818E+03  0.19200000000E+03 0.  0.
<mgrwt>
<rscale>  0 0.69494044E+03</rscale>
<asrwt>0</asrwt>
<pdfrwt beam="1">  1        2 0.16655730E+00 0.69494044E+03</pdfrwt>
<pdfrwt beam="2">  1       -2 0.14793653E-01 0.69494044E+03</pdfrwt>
<totfact> 0.80683494E+02</totfact>
</mgrwt>
</event>
<event>
 4    1  0.2892809E-005  0.5182950E+03  0.7818608E-02  0.1009111E+00
          2   -1    0    0  501    0  0.00000000000E+00  0.00000000000E+00  0.24597238558E+04  0.24597238558E+04  0.25500000000E-02 0.  1.
         -2   -1    0    0    0  501 -0.00000000000E+00 -0.00000000000E+00 -0.27302826803E+02  0.27302826922E+02  0.25500000000E-02 0. -1.
    5000001    1    1    2    0    0  0.30625527529E+02 -0.15373525463E+03  0.85326783696E+03  0.88853950562E+03  0.19200000000E+03 0.  0.
   -5000001    1    1    2    0    0 -0.30625527529E+02  0.15373525463E+03  0.15791531920E+04  0.15984871771E+04  0.19200000000E+03 0.  0.
<mgrwt>
<rscale>  0 0.51829495E+03</rscale>
<asrwt>0</asrwt>
<pdfrwt beam="1">  1        2 0.35138916E+00 0.51829495E+03</pdfrwt>
<pdfrwt beam="2">  1       -2 0.39004034E-02 0.51829495E+03</pdfrwt>
<totfact> 0.14681752E+03</totfact>
</mgrwt>
</event>
<event>
 4    1  0.2892809E-005  0.6133920E+03  0.7818608E-02  0.9878005E-01
         -2   -1    0    0    0  501 -0.00000000000E+00  0.00000000000E+00  0.32134183619E+02  0.32134183720E+02  0.25500000000E-02 0.  1.
          2   -1    0    0  501    0  0.00000000000E+00 -0.00000000000E+00 -0.29271771060E+04  0.29271771060E+04  0.25500000000E-02 0. -1.
    5000001    1    1    2    0    0  0.16218530621E+03 -0.14170420554E+03 -0.19492300691E+04  0.19704684767E+04  0.19200000000E+03 0.  0.
   -5000001    1    1    2    0    0 -0.16218530621E+03  0.14170420554E+03 -0.94581285330E+03  0.98884281303E+03  0.19200000000E+03 0.  0.
<mgrwt>
<rscale>  0 0.61339203E+03</rscale>
<asrwt>0</asrwt>
<pdfrwt beam="1">  1        2 0.41816799E+00 0.61339203E+03</pdfrwt>
<pdfrwt beam="2">  1       -2 0.45905996E-02 0.61339203E+03</pdfrwt>
<totfact> 0.64620557E+02</totfact>
</mgrwt>
</event>
<event>
 4    1  0.2892809E-005  0.1452196E+04  0.7818608E-02  0.8916880E-01
          2   -1    0    0  501    0  0.00000000000E+00  0.00000000000E+00  0.17688553695E+04  0.17688553695E+04  0.25500000000E-02 0.  1.
         -2   -1    0    0    0  501 -0.00000000000E+00 -0.00000000000E+00 -0.29805611180E+03  0.29805611181E+03  0.25500000000E-02 0. -1.
    5000001    1    1    2    0    0 -0.13575320043E+03  0.65355569386E+03  0.10366226050E+04  0.12478038314E+04  0.19200000000E+03 0.  0.
   -5000001    1    1    2    0    0  0.13575320043E+03 -0.65355569386E+03  0.43417665265E+03  0.81910764989E+03  0.19200000000E+03 0.  0.
<mgrwt>
<rscale>  0 0.14521958E+04</rscale>
<asrwt>0</asrwt>
<pdfrwt beam="1">  1        2 0.25269363E+00 0.14521958E+04</pdfrwt>
<pdfrwt beam="2">  1       -2 0.42579444E-01 0.14521958E+04</pdfrwt>
<totfact> 0.53602198E+01</totfact>
</mgrwt>
</event>
<event>
 4    1  0.2892809E-005  0.9642988E+03  0.7818608E-02  0.9348592E-01
          2   -1    0    0  501    0  0.00000000000E+00  0.00000000000E+00  0.13744231835E+04  0.13744231835E+04  0.25500000000E-02 0.  1.
         -2   -1    0    0    0  501 -0.00000000000E+00 -0.00000000000E+00 -0.16913863844E+03  0.16913863845E+03  0.25500000000E-02 0. -1.
    5000001    1    1    2    0    0  0.39022907244E+03 -0.11557869543E+03  0.32554432694E+03  0.55541000407E+03  0.19200000000E+03 0.  0.
   -5000001    1    1    2    0    0 -0.39022907244E+03  0.11557869543E+03  0.87974021811E+03  0.98815181788E+03  0.19200000000E+03 0.  0.
<mgrwt>
<rscale>  0 0.96429885E+03</rscale>
<asrwt>0</asrwt>
<pdfrwt beam="1">  1        2 0.19634618E+00 0.96429885E+03</pdfrwt>
<pdfrwt beam="2">  1       -2 0.24162661E-01 0.96429885E+03</pdfrwt>
<totfact> 0.25993133E+02</totfact>
</mgrwt>
</event>
<event>
 4    1  0.2892809E-005  0.4471099E+03  0.7818608E-02  0.1028587E+00
          2   -1    0    0  501    0  0.00000000000E+00  0.00000000000E+00  0.14336951509E+03  0.14336951511E+03  0.25500000000E-02 0.  1.
         -2   -1    0    0    0  501 -0.00000000000E+00 -0.00000000000E+00 -0.34858748682E+03  0.34858748683E+03  0.25500000000E-02 0. -1.
    5000001    1    1    2    0    0 -0.53430341187E+02  0.44246094619E+02 -0.23646693559E+01  0.20416196979E+03  0.19200000000E+03 0.  0.
   -5000001    1    1    2    0    0  0.53430341187E+02 -0.44246094619E+02 -0.20285330237E+03  0.28779503215E+03  0.19200000000E+03 0.  0.
<mgrwt>
<rscale>  0 0.44710991E+03</rscale>
<asrwt>0</asrwt>
<pdfrwt beam="1">  1        2 0.20481359E-01 0.44710991E+03</pdfrwt>
<pdfrwt beam="2">  1       -2 0.49798212E-01 0.44710991E+03</pdfrwt>
<totfact> 0.10548415E+03</totfact>
</mgrwt>
</event>
<event>
 4    1  0.2892809E-005  0.8289879E+03  0.7818608E-02  0.9518981E-01
          2   -1    0    0  501    0  0.00000000000E+00  0.00000000000E+00  0.15912244551E+04  0.15912244551E+04  0.25500000000E-02 0.  1.
         -2   -1    0    0    0  501 -0.00000000000E+00 -0.00000000000E+00 -0.10797045145E+03  0.10797045148E+03  0.25500000000E-02 0. -1.
    5000001    1    1    2    0    0  0.22498408577E+03  0.26087365825E+03  0.10030635812E+04  0.10778095622E+04  0.19200000000E+03 0.  0.
   -5000001    1    1    2    0    0 -0.22498408577E+03 -0.26087365825E+03  0.48019042241E+03  0.62138534436E+03  0.19200000000E+03 0.  0.
<mgrwt>
<rscale>  0 0.82898787E+03</rscale>
<asrwt>0</asrwt>
<pdfrwt beam="1">  1        2 0.22731776E+00 0.82898787E+03</pdfrwt>
<pdfrwt beam="2">  1       -2 0.15424352E-01 0.82898787E+03</pdfrwt>
<totfact> 0.44017345E+02</totfact>
</mgrwt>
</event>
<event>
 4    1  0.2892809E-005  0.8861040E+03  0.7818608E-02  0.9443121E-01
         -2   -1    0    0    0  501 -0.00000000000E+00  0.00000000000E+00  0.29779529642E+03  0.29779529643E+03  0.25500000000E-02 0. -1.
          2   -1    0    0  501    0  0.00000000000E+00 -0.00000000000E+00 -0.65916105660E+03  0.65916105661E+03  0.25500000000E-02 0.  1.
    5000001    1    1    2    0    0 -0.27144574239E+03 -0.14159347323E+03  0.96131518069E+02  0.37394755179E+03  0.19200000000E+03 0.  0.
   -5000001    1    1    2    0    0  0.27144574239E+03  0.14159347323E+03 -0.45749727825E+03  0.58300880125E+03  0.19200000000E+03 0.  0.
<mgrwt>
<rscale>  0 0.88610397E+03</rscale>
<asrwt>0</asrwt>
<pdfrwt beam="1">  1        2 0.94165865E-01 0.88610397E+03</pdfrwt>
<pdfrwt beam="2">  1       -2 0.42542185E-01 0.88610397E+03</pdfrwt>
<totfact> 0.25439720E+02</totfact>
</mgrwt>
</event>
<event>
 4    1  0.2892809E-005  0.5084762E+03  0.7818608E-02  0.1011590E+00
          2   -1    0    0  501    0  0.00000000000E+00  0.00000000000E+00  0.40756000734E+03  0.40756000735E+03  0.25500000000E-02 0.  1.
         -2   -1    0    0    0  501 -0.00000000000E+00 -0.00000000000E+00 -0.15859507911E+03  0.15859507913E+03  0.25500000000E-02 0. -1.
    5000001    1    1    2    0    0  0.16031634387E+03 -0.99275419329E+00  0.17514920269E+03  0.30535808303E+03  0.19200000000E+03 0.  0.
   -5000001    1    1    2    0    0 -0.16031634387E+03  0.99275419329E+00  0.73815725542E+02  0.26079700345E+03  0.19200000000E+03 0.  0.
<mgrwt>
<rscale>  0 0.50847620E+03</rscale>
<asrwt>0</asrwt>
<pdfrwt beam="1">  1        2 0.58222858E-01 0.50847620E+03</pdfrwt>
<pdfrwt beam="2">  1       -2 0.22656440E-01 0.50847620E+03</pdfrwt>
<totfact> 0.14453988E+03</totfact>
</mgrwt>
</event>
<event>
 4    1  0.2892809E-005  0.6092637E+03  0.7818608E-02  0.9886371E-01
         -2   -1    0    0    0  501 -0.00000000000E+00  0.00000000000E+00  0.53370435690E+03  0.53370435690E+03  0.25500000000E-02 0. -1.
          2   -1    0    0  501    0  0.00000000000E+00 -0.00000000000E+00 -0.17388008009E+03  0.17388008011E+03  0.25500000000E-02 0.  1.
    5000001    1    1    2    0    0  0.57944590051E+02 -0.19484905116E+03  0.32030341529E+03  0.42518467294E+03  0.19200000000E+03 0.  0.
   -5000001    1    1    2    0    0 -0.57944590051E+02  0.19484905116E+03  0.39520861518E+02  0.28239976407E+03  0.19200000000E+03 0.  0.
<mgrwt>
<rscale>  0 0.60926367E+03</rscale>
<asrwt>0</asrwt>
<pdfrwt beam="1">  1        2 0.24840012E-01 0.60926367E+03</pdfrwt>
<pdfrwt beam="2">  1       -2 0.76243479E-01 0.60926367E+03</pdfrwt>
<totfact> 0.34328601E+02</totfact>
</mgrwt>
</event>
<event>
 4    1  0.2892809E-005  0.4043441E+03  0.7818608E-02  0.1042286E+00
          2   -1    0    0  501    0  0.00000000000E+00  0.00000000000E+00  0.85205656854E+02  0.85205656892E+02  0.25500000000E-02 0.  1.
         -2   -1    0    0    0  501 -0.00000000000E+00 -0.00000000000E+00 -0.47970459903E+03  0.47970459903E+03  0.25500000000E-02 0. -1.
    5000001    1    1    2    0    0 -0.33270380093E+02  0.35490242742E+02 -0.25388074541E+03  0.32200296336E+03  0.19200000000E+03 0.  0.
   -5000001    1    1    2    0    0  0.33270380093E+02 -0.35490242742E+02 -0.14061819676E+03  0.24290729256E+03  0.19200000000E+03 0.  0.
<mgrwt>
<rscale>  0 0.40434414E+03</rscale>
<asrwt>0</asrwt>
<pdfrwt beam="1">  1        2 0.12172237E-01 0.40434414E+03</pdfrwt>
<pdfrwt beam="2">  1       -2 0.68529227E-01 0.40434414E+03</pdfrwt>
<totfact> 0.10102727E+03</totfact>
</mgrwt>
</event>
<event>
 4    1  0.2892809E-005  0.7163036E+03  0.7818608E-02  0.9689750E-01
          2   -1    0    0  501    0  0.00000000000E+00  0.00000000000E+00  0.42412476005E+04  0.42412476005E+04  0.25500000000E-02 0.  1.
         -2   -1    0    0    0  501 -0.00000000000E+00 -0.00000000000E+00 -0.30244094787E+02  0.30244094895E+02  0.25500000000E-02 0. -1.
    5000001    1    1    2    0    0  0.35844227102E+02  0.20671187889E+03  0.34037105089E+04  0.34155707924E+04  0.19200000000E+03 0.  0.
   -5000001    1    1    2    0    0 -0.35844227102E+02 -0.20671187889E+03  0.80729299687E+03  0.85592090305E+03  0.19200000000E+03 0.  0.
<mgrwt>
<rscale>  0 0.71630355E+03</rscale>
<asrwt>0</asrwt>
<pdfrwt beam="1">  1        2 0.60589181E+00 0.71630355E+03</pdfrwt>
<pdfrwt beam="2">  1       -2 0.43205900E-02 0.71630355E+03</pdfrwt>
<totfact> 0.10962716E+02</totfact>
</mgrwt>
</event>
<event>
 4    1  0.2892809E-005  0.5631432E+03  0.7818608E-02  0.9984967E-01
         -2   -1    0    0    0  501 -0.00000000000E+00  0.00000000000E+00  0.86494104494E+02  0.86494104532E+02  0.25500000000E-02 0. -1.
          2   -1    0    0  501    0  0.00000000000E+00 -0.00000000000E+00 -0.91662406420E+03  0.91662406421E+03  0.25500000000E-02 0.  1.
    5000001    1    1    2    0    0 -0.22947514596E+02 -0.20176506502E+03 -0.35380206743E+03  0.45086099056E+03  0.19200000000E+03 0.  0.
   -5000001    1    1    2    0    0  0.22947514596E+02  0.20176506502E+03 -0.47632789227E+03  0.55225717818E+03  0.19200000000E+03 0.  0.
<mgrwt>
<rscale>  0 0.56314324E+03</rscale>
<asrwt>0</asrwt>
<pdfrwt beam="1">  1        2 0.13094629E+00 0.56314324E+03</pdfrwt>
<pdfrwt beam="2">  1       -2 0.12356301E-01 0.56314324E+03</pdfrwt>
<totfact> 0.15421526E+03</totfact>
</mgrwt>
</event>
<event>
 4    1  0.2892809E-005  0.4612632E+03  0.7818608E-02  0.1024416E+00
         -2   -1    0    0    0  501 -0.00000000000E+00  0.00000000000E+00  0.16627645622E+03  0.16627645624E+03  0.25500000000E-02 0. -1.
          2   -1    0    0  501    0  0.00000000000E+00 -0.00000000000E+00 -0.31989453177E+03  0.31989453178E+03  0.25500000000E-02 0.  1.
    5000001    1    1    2    0    0  0.34248677839E+02 -0.12301570283E+03 -0.81649870934E+02  0.24461507824E+03  0.19200000000E+03 0.  0.
   -5000001    1    1    2    0    0 -0.34248677839E+02  0.12301570283E+03 -0.71968204613E+02  0.24155590979E+03  0.19200000000E+03 0.  0.
<mgrwt>
<rscale>  0 0.46126317E+03</rscale>
<asrwt>0</asrwt>
<pdfrwt beam="1">  1        2 0.45699219E-01 0.46126317E+03</pdfrwt>
<pdfrwt beam="2">  1       -2 0.23753780E-01 0.46126317E+03</pdfrwt>
<totfact> 0.17343012E+03</totfact>
</mgrwt>
</event>
<event>
 4    1  0.2892809E-005  0.6549285E+03  0.7818608E-02  0.9797575E-01
          2   -1    0    0  501    0  0.00000000000E+00  0.00000000000E+00  0.68863337975E+03  0.68863337975E+03  0.25500000000E-02 0.  1.
         -2   -1    0    0    0  501 -0.00000000000E+00 -0.00000000000E+00 -0.15571832017E+03  0.15571832019E+03  0.25500000000E-02 0. -1.
    5000001    1    1    2    0    0  0.11481116798E+03  0.54442538940E+02  0.56666550377E+03  0.61165299599E+03  0.19200000000E+03 0.  0.
   -5000001    1    1    2    0    0 -0.11481116798E+03 -0.54442538940E+02 -0.33750444192E+02  0.23269870395E+03  0.19200000000E+03 0.  0.
<mgrwt>
<rscale>  0 0.65492849E+03</rscale>
<asrwt>0</asrwt>
<pdfrwt beam="1">  1        2 0.98376195E-01 0.65492849E+03</pdfrwt>
<pdfrwt beam="2">  1       -2 0.22245475E-01 0.65492849E+03</pdfrwt>
<totfact> 0.81443363E+02</totfact>
</mgrwt>
</event>
<event>
 4    1  0.2892809E-005  0.5445930E+03  0.7818608E-02  0.1002753E+00
         -2   -1    0    0    0  501 -0.00000000000E+00  0.00000000000E+00  0.68568218188E+02  0.68568218235E+02  0.25500000000E-02 0.  1.
          2   -1    0    0  501    0  0.00000000000E+00 -0.00000000000E+00 -0.10813372974E+04  0.10813372974E+04  0.25500000000E-02 0. -1.
    5000001    1    1    2    0    0 -0.15820864865E+03 -0.10729134347E+03 -0.56382198364E+03  0.62554027698E+03  0.19200000000E+03 0.  0.
   -5000001    1    1    2    0    0  0.15820864865E+03  0.10729134347E+03 -0.44894709561E+03  0.52436523869E+03  0.19200000000E+03 0.  0.
<mgrwt>
<rscale>  0 0.54459296E+03</rscale>
<asrwt>0</asrwt>
<pdfrwt beam="1">  1        2 0.15447675E+00 0.54459296E+03</pdfrwt>
<pdfrwt beam="2">  1       -2 0.97954604E-02 0.54459296E+03</pdfrwt>
<totfact> 0.17883532E+03</totfact>
</mgrwt>
</event>
<event>
 4    1  0.2892809E-005  0.6166429E+03  0.7818608E-02  0.9871467E-01
         -2   -1    0    0    0  501 -0.00000000000E+00  0.00000000000E+00  0.21557088026E+03  0.21557088028E+03  0.25500000000E-02 0. -1.
          2   -1    0    0  501    0  0.00000000000E+00 -0.00000000000E+00 -0.44097841215E+03  0.44097841216E+03  0.25500000000E-02 0.  1.
    5000001    1    1    2    0    0 -0.14176207448E+03  0.19507040288E+03 -0.12016867930E+03  0.33083751197E+03  0.19200000000E+03 0.  0.
   -5000001    1    1    2    0    0  0.14176207448E+03 -0.19507040288E+03 -0.10523885259E+03  0.32571178047E+03  0.19200000000E+03 0.  0.
<mgrwt>
<rscale>  0 0.61664286E+03</rscale>
<asrwt>0</asrwt>
<pdfrwt beam="1">  1        2 0.62996916E-01 0.61664286E+03</pdfrwt>
<pdfrwt beam="2">  1       -2 0.30795840E-01 0.61664286E+03</pdfrwt>
<totfact> 0.75942832E+02</totfact>
</mgrwt>
</event>
<event>
 4    1  0.2892809E-005  0.6715984E+03  0.7818608E-02  0.9767075E-01
         -2   -1    0    0    0  501 -0.00000000000E+00  0.00000000000E+00  0.60869519760E+02  0.60869519814E+02  0.25500000000E-02 0. -1.
          2   -1    0    0  501    0  0.00000000000E+00 -0.00000000000E+00 -0.18525050599E+04  0.18525050599E+04  0.25500000000E-02 0.  1.
    5000001    1    1    2    0    0  0.27530198981E+03 -0.10091113065E+02 -0.90157049677E+03  0.96207399758E+03  0.19200000000E+03 0.  0.
   -5000001    1    1    2    0    0 -0.27530198981E+03  0.10091113065E+02 -0.89006504336E+03  0.95130058213E+03  0.19200000000E+03 0.  0.
<mgrwt>
<rscale>  0 0.67159837E+03</rscale>
<asrwt>0</asrwt>
<pdfrwt beam="1">  1        2 0.26464354E+00 0.67159837E+03</pdfrwt>
<pdfrwt beam="2">  1       -2 0.86956468E-02 0.67159837E+03</pdfrwt>
<totfact> 0.83986159E+02</totfact>
</mgrwt>
</event>
<event>
 4    1  0.2892809E-005  0.7377920E+03  0.7818608E-02  0.9654700E-01
          2   -1    0    0  501    0  0.00000000000E+00  0.00000000000E+00  0.26774218507E+04  0.26774218507E+04  0.25500000000E-02 0.  1.
         -2   -1    0    0    0  501 -0.00000000000E+00 -0.00000000000E+00 -0.50826608483E+02  0.50826608547E+02  0.25500000000E-02 0. -1.
    5000001    1    1    2    0    0 -0.10998779142E+03  0.28364258485E+03  0.10112970741E+04  0.10733760768E+04  0.19200000000E+03 0.  0.
   -5000001    1    1    2    0    0  0.10998779142E+03 -0.28364258485E+03  0.16152981681E+04  0.16548723824E+04  0.19200000000E+03 0.  0.
<mgrwt>
<rscale>  0 0.73779204E+03</rscale>
<asrwt>0</asrwt>
<pdfrwt beam="1">  1        2 0.38248883E+00 0.73779204E+03</pdfrwt>
<pdfrwt beam="2">  1       -2 0.72609443E-02 0.73779204E+03</pdfrwt>
<totfact> 0.42300535E+02</totfact>
</mgrwt>
</event>
<event>
 4    1  0.2892809E-005  0.1018130E+04  0.7818608E-02  0.9288881E-01
         -2   -1    0    0    0  501 -0.00000000000E+00  0.00000000000E+00  0.36335212270E+03  0.36335212271E+03  0.25500000000E-02 0. -1.
          2   -1    0    0  501    0  0.00000000000E+00 -0.00000000000E+00 -0.71321170238E+03  0.71321170238E+03  0.25500000000E-02 0.  1.
    5000001    1    1    2    0    0  0.26168483402E+03  0.19348847085E+03  0.18577359392E+03  0.42106124128E+03  0.19200000000E+03 0.  0.
   -5000001    1    1    2    0    0 -0.26168483402E+03 -0.19348847085E+03 -0.53563317361E+03  0.65550258381E+03  0.19200000000E+03 0.  0.
<mgrwt>
<rscale>  0 0.10181296E+04</rscale>
<asrwt>0</asrwt>
<pdfrwt beam="1">  1        2 0.10188739E+00 0.10181296E+04</pdfrwt>
<pdfrwt beam="2">  1       -2 0.51907446E-01 0.10181296E+04</pdfrwt>
<totfact> 0.15371278E+02</totfact>
</mgrwt>
</event>
<event>
 4    1  0.2892809E-005  0.8150771E+03  0.7818608E-02  0.9538446E-01
         -2   -1    0    0    0  501 -0.00000000000E+00  0.00000000000E+00  0.25084236138E+03  0.25084236139E+03  0.25500000000E-02 0. -1.
          2   -1    0    0  501    0  0.00000000000E+00 -0.00000000000E+00 -0.66211972053E+03  0.66211972053E+03  0.25500000000E-02 0.  1.
    5000001    1    1    2    0    0  0.10963882297E+03  0.32406083932E+03 -0.81983390822E+02  0.40077596666E+03  0.19200000000E+03 0.  0.
   -5000001    1    1    2    0    0 -0.10963882297E+03 -0.32406083932E+03 -0.32929396833E+03  0.51218611526E+03  0.19200000000E+03 0.  0.
<mgrwt>
<rscale>  0 0.81507711E+03</rscale>
<asrwt>0</asrwt>
<pdfrwt beam="1">  1        2 0.94588531E-01 0.81507711E+03</pdfrwt>
<pdfrwt beam="2">  1       -2 0.35834623E-01 0.81507711E+03</pdfrwt>
<totfact> 0.35410349E+02</totfact>
</mgrwt>
</event>
<event>
 4    1  0.2892809E-005  0.6322219E+03  0.7818608E-02  0.9840722E-01
         -2   -1    0    0    0  501 -0.00000000000E+00  0.00000000000E+00  0.39631773372E+02  0.39631773454E+02  0.25500000000E-02 0. -1.
          2   -1    0    0  501    0  0.00000000000E+00 -0.00000000000E+00 -0.25213644260E+04  0.25213644260E+04  0.25500000000E-02 0.  1.
    5000001    1    1    2    0    0 -0.89003276762E+02  0.16621356861E+02 -0.21896872639E+04  0.21999527646E+04  0.19200000000E+03 0.  0.
   -5000001    1    1    2    0    0  0.89003276762E+02 -0.16621356861E+02 -0.29204538875E+03  0.36104343487E+03  0.19200000000E+03 0.  0.
<mgrwt>
<rscale>  0 0.63222193E+03</rscale>
<asrwt>0</asrwt>
<pdfrwt beam="1">  1        2 0.36019481E+00 0.63222193E+03</pdfrwt>
<pdfrwt beam="2">  1       -2 0.56616835E-02 0.63222193E+03</pdfrwt>
<totfact> 0.76126493E+02</totfact>
</mgrwt>
</event>
<event>
 4    1  0.2892809E-005  0.6987784E+03  0.7818608E-02  0.9719324E-01
          2   -1    0    0  501    0  0.00000000000E+00  0.00000000000E+00  0.54108009284E+03  0.54108009284E+03  0.25500000000E-02 0.  1.
         -2   -1    0    0    0  501 -0.00000000000E+00 -0.00000000000E+00 -0.22560952088E+03  0.22560952090E+03  0.25500000000E-02 0. -1.
    5000001    1    1    2    0    0 -0.11860613705E+03 -0.14126744869E+03 -0.90492891248E+02  0.28120610088E+03  0.19200000000E+03 0.  0.
   -5000001    1    1    2    0    0  0.11860613705E+03  0.14126744869E+03  0.40596346320E+03  0.48548351286E+03  0.19200000000E+03 0.  0.
<mgrwt>
<rscale>  0 0.69877842E+03</rscale>
<asrwt>0</asrwt>
<pdfrwt beam="1">  1        2 0.77297157E-01 0.69877842E+03</pdfrwt>
<pdfrwt beam="2">  1       -2 0.32229931E-01 0.69877842E+03</pdfrwt>
<totfact> 0.55179182E+02</totfact>
</mgrwt>
</event>
<event>
 4    1  0.2892809E-005  0.6147706E+03  0.7818608E-02  0.9875227E-01
         -2   -1    0    0    0  501 -0.00000000000E+00  0.00000000000E+00  0.42769537963E+03  0.42769537964E+03  0.25500000000E-02 0. -1.
          2   -1    0    0  501    0  0.00000000000E+00 -0.00000000000E+00 -0.22091824042E+03  0.22091824044E+03  0.25500000000E-02 0.  1.
    5000001    1    1    2    0    0  0.14690270238E+03 -0.43873435501E+02 -0.91485825870E+02  0.26218111802E+03  0.19200000000E+03 0.  0.
   -5000001    1    1    2    0    0 -0.14690270238E+03  0.43873435501E+02  0.29826296508E+03  0.38643250206E+03  0.19200000000E+03 0.  0.
<mgrwt>
<rscale>  0 0.61477056E+03</rscale>
<asrwt>0</asrwt>
<pdfrwt beam="1">  1        2 0.31559749E-01 0.61477056E+03</pdfrwt>
<pdfrwt beam="2">  1       -2 0.61099340E-01 0.61477056E+03</pdfrwt>
<totfact> 0.42254684E+02</totfact>
</mgrwt>
</event>
<event>
 4    1  0.2892809E-005  0.6397928E+03  0.7818608E-02  0.9826123E-01
          2   -1    0    0  501    0  0.00000000000E+00  0.00000000000E+00  0.61845517254E+03  0.61845517254E+03  0.25500000000E-02 0.  1.
         -2   -1    0    0    0  501 -0.00000000000E+00 -0.00000000000E+00 -0.16546666387E+03  0.16546666389E+03  0.25500000000E-02 0. -1.
    5000001    1    1    2    0    0  0.92861272055E+02 -0.11305571682E+03 -0.30710983304E+02  0.24333510937E+03  0.19200000000E+03 0.  0.
   -5000001    1    1    2    0    0 -0.92861272055E+02  0.11305571682E+03  0.48369949197E+03  0.54058672707E+03  0.19200000000E+03 0.  0.
<mgrwt>
<rscale>  0 0.63979282E+03</rscale>
<asrwt>0</asrwt>
<pdfrwt beam="1">  1        2 0.88350742E-01 0.63979282E+03</pdfrwt>
<pdfrwt beam="2">  1       -2 0.23638094E-01 0.63979282E+03</pdfrwt>
<totfact> 0.83241589E+02</totfact>
</mgrwt>
</event>
<event>
 4    1  0.2892809E-005  0.4735769E+03  0.7818608E-02  0.1020915E+00
         -2   -1    0    0    0  501 -0.00000000000E+00  0.00000000000E+00  0.47081135337E+02  0.47081135406E+02  0.25500000000E-02 0. -1.
          2   -1    0    0  501    0  0.00000000000E+00 -0.00000000000E+00 -0.11908969274E+04  0.11908969274E+04  0.25500000000E-02 0.  1.
    5000001    1    1    2    0    0  0.43412012899E+02  0.85757522511E+02 -0.83287093855E+03  0.86010287513E+03  0.19200000000E+03 0.  0.
   -5000001    1    1    2    0    0 -0.43412012899E+02 -0.85757522511E+02 -0.31094485348E+03  0.37787518765E+03  0.19200000000E+03 0.  0.
<mgrwt>
<rscale>  0 0.47357694E+03</rscale>
<asrwt>0</asrwt>
<pdfrwt beam="1">  1        2 0.17012811E+00 0.47357694E+03</pdfrwt>
<pdfrwt beam="2">  1       -2 0.67258772E-02 0.47357694E+03</pdfrwt>
<totfact> 0.28175073E+03</totfact>
</mgrwt>
</event>
<event>
 4    1  0.2892809E-005  0.5175996E+03  0.7818608E-02  0.1009285E+00
         -2   -1    0    0    0  501 -0.00000000000E+00  0.00000000000E+00  0.27070498506E+03  0.27070498507E+03  0.25500000000E-02 0. -1.
          2   -1    0    0  501    0  0.00000000000E+00 -0.00000000000E+00 -0.24741823338E+03  0.24741823339E+03  0.25500000000E-02 0.  1.
    5000001    1    1    2    0    0  0.22037650684E+02 -0.17086268045E+03  0.32488357876E+02  0.25999847503E+03  0.19200000000E+03 0.  0.
   -5000001    1    1    2    0    0 -0.22037650684E+02  0.17086268045E+03 -0.92016061997E+01  0.25812474344E+03  0.19200000000E+03 0.  0.
<mgrwt>
<rscale>  0 0.51759965E+03</rscale>
<asrwt>0</asrwt>
<pdfrwt beam="1">  1        2 0.35345462E-01 0.51759965E+03</pdfrwt>
<pdfrwt beam="2">  1       -2 0.38672140E-01 0.51759965E+03</pdfrwt>
<totfact> 0.93680178E+02</totfact>
</mgrwt>
</event>
<event>
 4    1  0.2892809E-005  0.8288840E+03  0.7818608E-02  0.9519125E-01
         -2   -1    0    0    0  501 -0.00000000000E+00  0.00000000000E+00  0.49977967217E+02  0.49977967282E+02  0.25500000000E-02 0. -1.
          2   -1    0    0  501    0  0.00000000000E+00 -0.00000000000E+00 -0.34367580731E+04  0.34367580731E+04  0.25500000000E-02 0.  1.
    5000001    1    1    2    0    0  0.18713081776E+03 -0.19036014388E+03 -0.27546004403E+04  0.27741561804E+04  0.19200000000E+03 0.  0.
   -5000001    1    1    2    0    0 -0.18713081776E+03  0.19036014388E+03 -0.63217966560E+03  0.71257986003E+03  0.19200000000E+03 0.  0.
<mgrwt>
<rscale>  0 0.82888403E+03</rscale>
<asrwt>0</asrwt>
<pdfrwt beam="1">  1        2 0.49096529E+00 0.82888403E+03</pdfrwt>
<pdfrwt beam="2">  1       -2 0.71397118E-02 0.82888403E+03</pdfrwt>
<totfact> 0.16325283E+02</totfact>
</mgrwt>
</event>
<event>
 4    1  0.2892809E-005  0.6836335E+03  0.7818608E-02  0.9745638E-01
          2   -1    0    0  501    0  0.00000000000E+00  0.00000000000E+00  0.11329659783E+04  0.11329659783E+04  0.25500000000E-02 0.  1.
         -2   -1    0    0    0  501 -0.00000000000E+00 -0.00000000000E+00 -0.10312638197E+03  0.10312638200E+03  0.25500000000E-02 0. -1.
    5000001    1    1    2    0    0 -0.70197480613E+02  0.26808801667E+03  0.41302431199E+03  0.53315284231E+03  0.19200000000E+03 0.  0.
   -5000001    1    1    2    0    0  0.70197480613E+02 -0.26808801667E+03  0.61681528434E+03  0.70293951799E+03  0.19200000000E+03 0.  0.
<mgrwt>
<rscale>  0 0.68363348E+03</rscale>
<asrwt>0</asrwt>
<pdfrwt beam="1">  1        2 0.16185229E+00 0.68363348E+03</pdfrwt>
<pdfrwt beam="2">  1       -2 0.14732340E-01 0.68363348E+03</pdfrwt>
<totfact> 0.84894270E+02</totfact>
</mgrwt>
</event>
<event>
 4    1  0.2892809E-005  0.5100751E+03  0.7818608E-02  0.1011182E+00
         -2   -1    0    0    0  501 -0.00000000000E+00  0.00000000000E+00  0.12067727753E+03  0.12067727756E+03  0.25500000000E-02 0. -1.
          2   -1    0    0  501    0  0.00000000000E+00 -0.00000000000E+00 -0.53899257890E+03  0.53899257891E+03  0.25500000000E-02 0.  1.
    5000001    1    1    2    0    0 -0.16337886533E+03 -0.37870057893E+02 -0.21860497945E+03  0.33582574642E+03  0.19200000000E+03 0.  0.
   -5000001    1    1    2    0    0  0.16337886533E+03  0.37870057893E+02 -0.19971032192E+03  0.32384411004E+03  0.19200000000E+03 0.  0.
<mgrwt>
<rscale>  0 0.51007512E+03</rscale>
<asrwt>0</asrwt>
<pdfrwt beam="1">  1        2 0.76998938E-01 0.51007512E+03</pdfrwt>
<pdfrwt beam="2">  1       -2 0.17239611E-01 0.51007512E+03</pdfrwt>
<totfact> 0.16954315E+03</totfact>
</mgrwt>
</event>
<event>
 4    1  0.2892809E-005  0.7410193E+03  0.7818608E-02  0.9649546E-01
          2   -1    0    0  501    0  0.00000000000E+00  0.00000000000E+00  0.57947413130E+03  0.57947413130E+03  0.25500000000E-02 0.  1.
         -2   -1    0    0    0  501 -0.00000000000E+00 -0.00000000000E+00 -0.23689995739E+03  0.23689995740E+03  0.25500000000E-02 0. -1.
    5000001    1    1    2    0    0  0.59887667247E+02 -0.18044284643E+03 -0.10800236570E+03  0.29098911408E+03  0.19200000000E+03 0.  0.
   -5000001    1    1    2    0    0 -0.59887667247E+02  0.18044284643E+03  0.45057653961E+03  0.52538497463E+03  0.19200000000E+03 0.  0.
<mgrwt>
<rscale>  0 0.74101929E+03</rscale>
<asrwt>0</asrwt>
<pdfrwt beam="1">  1        2 0.82782019E-01 0.74101929E+03</pdfrwt>
<pdfrwt beam="2">  1       -2 0.33842851E-01 0.74101929E+03</pdfrwt>
<totfact> 0.46409832E+02</totfact>
</mgrwt>
</event>
<event>
 4    1  0.2892809E-005  0.6468207E+03  0.7818608E-02  0.9812763E-01
          2   -1    0    0  501    0  0.00000000000E+00  0.00000000000E+00  0.17620562805E+04  0.17620562805E+04  0.25500000000E-02 0.  1.
         -2   -1    0    0    0  501 -0.00000000000E+00 -0.00000000000E+00 -0.59359204310E+02  0.59359204364E+02  0.25500000000E-02 0. -1.
    5000001    1    1    2    0    0 -0.23468530469E+03 -0.38419142782E+01  0.11679183827E+04  0.12066438171E+04  0.19200000000E+03 0.  0.
   -5000001    1    1    2    0    0  0.23468530469E+03  0.38419142782E+01  0.53477869342E+03  0.61477166776E+03  0.19200000000E+03 0.  0.
<mgrwt>
<rscale>  0 0.64682071E+03</rscale>
<asrwt>0</asrwt>
<pdfrwt beam="1">  1        2 0.25172229E+00 0.64682071E+03</pdfrwt>
<pdfrwt beam="2">  1       -2 0.84798875E-02 0.64682071E+03</pdfrwt>
<totfact> 0.97296547E+02</totfact>
</mgrwt>
</event>
<event>
 4    1  0.2892809E-005  0.7199874E+03  0.7818608E-02  0.9683649E-01
          2   -1    0    0  501    0  0.00000000000E+00  0.00000000000E+00  0.95583518860E+03  0.95583518860E+03  0.25500000000E-02 0.  1.
         -2   -1    0    0    0  501 -0.00000000000E+00 -0.00000000000E+00 -0.13558347069E+03  0.13558347072E+03  0.25500000000E-02 0. -1.
    5000001    1    1    2    0    0 -0.15863666077E+03  0.56937974566E+02  0.79458729207E+03  0.83464991931E+03  0.19200000000E+03 0.  0.
   -5000001    1    1    2    0    0  0.15863666077E+03 -0.56937974566E+02  0.25664425829E+02  0.25676874000E+03  0.19200000000E+03 0.  0.
<mgrwt>
<rscale>  0 0.71998737E+03</rscale>
<asrwt>0</asrwt>
<pdfrwt beam="1">  1        2 0.13654789E+00 0.71998737E+03</pdfrwt>
<pdfrwt beam="2">  1       -2 0.19369067E-01 0.71998737E+03</pdfrwt>
<totfact> 0.67818590E+02</totfact>
</mgrwt>
</event>
<event>
 4    1  0.2892809E-005  0.1000639E+04  0.7818608E-02  0.9307844E-01
         -2   -1    0    0    0  501 -0.00000000000E+00  0.00000000000E+00  0.23892182076E+03  0.23892182077E+03  0.25500000000E-02 0. -1.
          2   -1    0    0  501    0  0.00000000000E+00 -0.00000000000E+00 -0.10477049151E+04  0.10477049151E+04  0.25500000000E-02 0.  1.
    5000001    1    1    2    0    0 -0.38605779955E+03  0.21662641648E+03 -0.23435414236E+03  0.53642659605E+03  0.19200000000E+03 0.  0.
   -5000001    1    1    2    0    0  0.38605779955E+03 -0.21662641648E+03 -0.57442895196E+03  0.75020013980E+03  0.19200000000E+03 0.  0.
<mgrwt>
<rscale>  0 0.10006389E+04</rscale>
<asrwt>0</asrwt>
<pdfrwt beam="1">  1        2 0.14967213E+00 0.10006389E+04</pdfrwt>
<pdfrwt beam="2">  1       -2 0.34131689E-01 0.10006389E+04</pdfrwt>
<totfact> 0.21020660E+02</totfact>
</mgrwt>
</event>
<event>
 4    1  0.2892809E-005  0.9110553E+03  0.7818608E-02  0.9411866E-01
         -2   -1    0    0    0  501 -0.00000000000E+00  0.00000000000E+00  0.12347843024E+03  0.12347843027E+03  0.25500000000E-02 0. -1.
          2   -1    0    0  501    0  0.00000000000E+00 -0.00000000000E+00 -0.16804995326E+04  0.16804995326E+04  0.25500000000E-02 0.  1.
    5000001    1    1    2    0    0 -0.35285455804E+03 -0.15028172561E+03 -0.47464139097E+03  0.63971820844E+03  0.19200000000E+03 0.  0.
   -5000001    1    1    2    0    0  0.35285455804E+03  0.15028172561E+03 -0.10823797114E+04  0.11642597545E+04  0.19200000000E+03 0.  0.
<mgrwt>
<rscale>  0 0.91105531E+03</rscale>
<asrwt>0</asrwt>
<pdfrwt beam="1">  1        2 0.24007135E+00 0.91105531E+03</pdfrwt>
<pdfrwt beam="2">  1       -2 0.17639777E-01 0.91105531E+03</pdfrwt>
<totfact> 0.31298616E+02</totfact>
</mgrwt>
</event>
<event>
 4    1  0.2892809E-005  0.6800289E+03  0.7818608E-02  0.9752008E-01
          2   -1    0    0  501    0  0.00000000000E+00  0.00000000000E+00  0.16386041296E+04  0.16386041296E+04  0.25500000000E-02 0.  1.
         -2   -1    0    0    0  501 -0.00000000000E+00 -0.00000000000E+00 -0.70553841655E+02  0.70553841701E+02  0.25500000000E-02 0. -1.
    5000001    1    1    2    0    0  0.26278439191E+03 -0.28677091476E+02  0.10207058737E+04  0.10717194095E+04  0.19200000000E+03 0.  0.
   -5000001    1    1    2    0    0 -0.26278439191E+03  0.28677091476E+02  0.54734441426E+03  0.63743856177E+03  0.19200000000E+03 0.  0.
<mgrwt>
<rscale>  0 0.68002887E+03</rscale>
<asrwt>0</asrwt>
<pdfrwt beam="1">  1        2 0.23408628E+00 0.68002887E+03</pdfrwt>
<pdfrwt beam="2">  1       -2 0.10079121E-01 0.68002887E+03</pdfrwt>
<totfact> 0.84974664E+02</totfact>
</mgrwt>
</event>
<event>
 4    1  0.2892809E-005  0.6885377E+03  0.7818608E-02  0.9737038E-01
          2   -1    0    0  501    0  0.00000000000E+00  0.00000000000E+00  0.14441117723E+04  0.14441117723E+04  0.25500000000E-02 0.  1.
         -2   -1    0    0    0  501 -0.00000000000E+00 -0.00000000000E+00 -0.82071921538E+02  0.82071921578E+02  0.25500000000E-02 0. -1.
    5000001    1    1    2    0    0 -0.79900687428E+02  0.27435236132E+03  0.67676200458E+03  0.75929187330E+03  0.19200000000E+03 0.  0.
   -5000001    1    1    2    0    0  0.79900687428E+02 -0.27435236132E+03  0.68527784618E+03  0.76689182058E+03  0.19200000000E+03 0.  0.
<mgrwt>
<rscale>  0 0.68853766E+03</rscale>
<asrwt>0</asrwt>
<pdfrwt beam="1">  1        2 0.20630168E+00 0.68853766E+03</pdfrwt>
<pdfrwt beam="2">  1       -2 0.11724560E-01 0.68853766E+03</pdfrwt>
<totfact> 0.83738299E+02</totfact>
</mgrwt>
</event>
<event>
 4    1  0.2892809E-005  0.5755610E+03  0.7818608E-02  0.9957448E-01
         -2   -1    0    0    0  501 -0.00000000000E+00  0.00000000000E+00  0.11794162904E+03  0.11794162906E+03  0.25500000000E-02 0. -1.
          2   -1    0    0  501    0  0.00000000000E+00 -0.00000000000E+00 -0.70219150293E+03  0.70219150293E+03  0.25500000000E-02 0.  1.
    5000001    1    1    2    0    0  0.15356807770E+03 -0.14943458725E+03 -0.30110983099E+03  0.41646726243E+03  0.19200000000E+03 0.  0.
   -5000001    1    1    2    0    0 -0.15356807770E+03  0.14943458725E+03 -0.28314004290E+03  0.40366586956E+03  0.19200000000E+03 0.  0.
<mgrwt>
<rscale>  0 0.57556098E+03</rscale>
<asrwt>0</asrwt>
<pdfrwt beam="1">  1        2 0.10031307E+00 0.57556098E+03</pdfrwt>
<pdfrwt beam="2">  1       -2 0.16848805E-01 0.57556098E+03</pdfrwt>
<totfact> 0.12897401E+03</totfact>
</mgrwt>
</event>
<event>
 4    1  0.2892809E-005  0.5933523E+03  0.7818608E-02  0.9919295E-01
         -2   -1    0    0    0  501 -0.00000000000E+00  0.00000000000E+00  0.10266436854E+03  0.10266436858E+03  0.25500000000E-02 0. -1.
          2   -1    0    0  501    0  0.00000000000E+00 -0.00000000000E+00 -0.85732496807E+03  0.85732496807E+03  0.25500000000E-02 0.  1.
    5000001    1    1    2    0    0 -0.16922582716E+03 -0.14582255563E+03 -0.43455779165E+03  0.52498197359E+03  0.19200000000E+03 0.  0.
   -5000001    1    1    2    0    0  0.16922582716E+03  0.14582255563E+03 -0.32010280788E+03  0.43500736306E+03  0.19200000000E+03 0.  0.
<mgrwt>
<rscale>  0 0.59335226E+03</rscale>
<asrwt>0</asrwt>
<pdfrwt beam="1">  1        2 0.12247499E+00 0.59335226E+03</pdfrwt>
<pdfrwt beam="2">  1       -2 0.14666339E-01 0.59335226E+03</pdfrwt>
<totfact> 0.12667383E+03</totfact>
</mgrwt>
</event>
<event>
 4    1  0.2892809E-005  0.4964897E+03  0.7818608E-02  0.1014699E+00
          2   -1    0    0  501    0  0.00000000000E+00  0.00000000000E+00  0.29117547600E+04  0.29117547600E+04  0.25500000000E-02 0.  1.
         -2   -1    0    0    0  501 -0.00000000000E+00 -0.00000000000E+00 -0.21164388960E+02  0.21164389113E+02  0.25500000000E-02 0. -1.
    5000001    1    1    2    0    0 -0.11306243805E+03 -0.81721449341E+02  0.10152364445E+04  0.10426075717E+04  0.19200000000E+03 0.  0.
   -5000001    1    1    2    0    0  0.11306243805E+03  0.81721449341E+02  0.18753539265E+04  0.18903115774E+04  0.19200000000E+03 0.  0.
<mgrwt>
<rscale>  0 0.49648972E+03</rscale>
<asrwt>0</asrwt>
<pdfrwt beam="1">  1        2 0.41596507E+00 0.49648972E+03</pdfrwt>
<pdfrwt beam="2">  1       -2 0.30234834E-02 0.49648972E+03</pdfrwt>
<totfact> 0.12605890E+03</totfact>
</mgrwt>
</event>
<event>
 4    1  0.2892809E-005  0.7205240E+03  0.7818608E-02  0.9682763E-01
         -2   -1    0    0    0  501 -0.00000000000E+00  0.00000000000E+00  0.11517385217E+03  0.11517385220E+03  0.25500000000E-02 0. -1.
          2   -1    0    0  501    0  0.00000000000E+00 -0.00000000000E+00 -0.11268938149E+04  0.11268938149E+04  0.25500000000E-02 0.  1.
    5000001    1    1    2    0    0 -0.11258476038E+03  0.22772972480E+03 -0.21541198130E+03  0.38445087790E+03  0.19200000000E+03 0.  0.
   -5000001    1    1    2    0    0  0.11258476038E+03 -0.22772972480E+03 -0.79630798146E+03  0.85761678923E+03  0.19200000000E+03 0.  0.
<mgrwt>
<rscale>  0 0.72052398E+03</rscale>
<asrwt>0</asrwt>
<pdfrwt beam="1">  1        2 0.16098482E+00 0.72052398E+03</pdfrwt>
<pdfrwt beam="2">  1       -2 0.16453408E-01 0.72052398E+03</pdfrwt>
<totfact> 0.70871442E+02</totfact>
</mgrwt>
</event>
<event>
 4    1  0.2892809E-005  0.5435662E+03  0.7818608E-02  0.1002994E+00
          2   -1    0    0  501    0  0.00000000000E+00  0.00000000000E+00  0.42362391785E+03  0.42362391786E+03  0.25500000000E-02 0.  1.
         -2   -1    0    0    0  501 -0.00000000000E+00 -0.00000000000E+00 -0.17436703254E+03  0.17436703256E+03  0.25500000000E-02 0. -1.
    5000001    1    1    2    0    0 -0.77039998130E+02  0.17550321811E+03  0.10670265636E+03  0.29152358010E+03  0.19200000000E+03 0.  0.
   -5000001    1    1    2    0    0  0.77039998130E+02 -0.17550321811E+03  0.14255422895E+03  0.30646737032E+03  0.19200000000E+03 0.  0.
<mgrwt>
<rscale>  0 0.54356617E+03</rscale>
<asrwt>0</asrwt>
<pdfrwt beam="1">  1        2 0.60517702E-01 0.54356617E+03</pdfrwt>
<pdfrwt beam="2">  1       -2 0.24909576E-01 0.54356617E+03</pdfrwt>
<totfact> 0.11699756E+03</totfact>
</mgrwt>
</event>
<event>
 4    1  0.2892809E-005  0.1124334E+04  0.7818608E-02  0.9181793E-01
          2   -1    0    0  501    0  0.00000000000E+00  0.00000000000E+00  0.99231337270E+03  0.99231337270E+03  0.25500000000E-02 0.  1.
         -2   -1    0    0    0  501 -0.00000000000E+00 -0.00000000000E+00 -0.31848001302E+03  0.31848001303E+03  0.25500000000E-02 0. -1.
    5000001    1    1    2    0    0  0.69933036849E+02 -0.40751698598E+03  0.72041804751E+03  0.85254142813E+03  0.19200000000E+03 0.  0.
   -5000001    1    1    2    0    0 -0.69933036849E+02  0.40751698598E+03 -0.46584687824E+02  0.45825195760E+03  0.19200000000E+03 0.  0.
<mgrwt>
<rscale>  0 0.11243344E+04</rscale>
<asrwt>0</asrwt>
<pdfrwt beam="1">  1        2 0.14175906E+00 0.11243344E+04</pdfrwt>
<pdfrwt beam="2">  1       -2 0.45497143E-01 0.11243344E+04</pdfrwt>
<totfact> 0.12889597E+02</totfact>
</mgrwt>
</event>
<event>
 4    1  0.2892809E-005  0.1000330E+04  0.7818608E-02  0.9308183E-01
          2   -1    0    0  501    0  0.00000000000E+00  0.00000000000E+00  0.10474171544E+04  0.10474171544E+04  0.25500000000E-02 0.  1.
         -2   -1    0    0    0  501 -0.00000000000E+00 -0.00000000000E+00 -0.23883997537E+03  0.23883997539E+03  0.25500000000E-02 0. -1.
    5000001    1    1    2    0    0  0.42757307227E+03 -0.14932062638E+03  0.52062415760E+03  0.71626035425E+03  0.19200000000E+03 0.  0.
   -5000001    1    1    2    0    0 -0.42757307227E+03  0.14932062638E+03  0.28795302145E+03  0.56999677556E+03  0.19200000000E+03 0.  0.
<mgrwt>
<rscale>  0 0.10003301E+04</rscale>
<asrwt>0</asrwt>
<pdfrwt beam="1">  1        2 0.14963102E+00 0.10003301E+04</pdfrwt>
<pdfrwt beam="2">  1       -2 0.34119998E-01 0.10003301E+04</pdfrwt>
<totfact> 0.21043114E+02</totfact>
</mgrwt>
</event>
<event>
 4    1  0.2892809E-005  0.8807995E+03  0.7818608E-02  0.9449906E-01
          2   -1    0    0  501    0  0.00000000000E+00  0.00000000000E+00  0.73722011969E+03  0.73722011969E+03  0.25500000000E-02 0.  1.
         -2   -1    0    0    0  501 -0.00000000000E+00 -0.00000000000E+00 -0.26308549341E+03  0.26308549342E+03  0.25500000000E-02 0. -1.
    5000001    1    1    2    0    0 -0.11467158199E+02  0.57159479732E+02 -0.20815545846E+03  0.28912176799E+03  0.19200000000E+03 0.  0.
   -5000001    1    1    2    0    0  0.11467158199E+02 -0.57159479732E+02  0.68229008474E+03  0.71118384513E+03  0.19200000000E+03 0.  0.
<mgrwt>
<rscale>  0 0.88079945E+03</rscale>
<asrwt>0</asrwt>
<pdfrwt beam="1">  1        2 0.10531716E+00 0.88079945E+03</pdfrwt>
<pdfrwt beam="2">  1       -2 0.37583642E-01 0.88079945E+03</pdfrwt>
<totfact> 0.28222033E+02</totfact>
</mgrwt>
</event>
<event>
 4    1  0.2892809E-005  0.9169682E+03  0.7818608E-02  0.9404615E-01
          2   -1    0    0  501    0  0.00000000000E+00  0.00000000000E+00  0.64580167181E+03  0.64580167181E+03  0.25500000000E-02 0.  1.
         -2   -1    0    0    0  501 -0.00000000000E+00 -0.00000000000E+00 -0.32549879823E+03  0.32549879824E+03  0.25500000000E-02 0. -1.
    5000001    1    1    2    0    0 -0.85028056632E+02  0.40065413608E+03  0.23934893818E+03  0.51176696003E+03  0.19200000000E+03 0.  0.
   -5000001    1    1    2    0    0  0.85028056632E+02 -0.40065413608E+03  0.80953935397E+02  0.45953351002E+03  0.19200000000E+03 0.  0.
<mgrwt>
<rscale>  0 0.91696820E+03</rscale>
<asrwt>0</asrwt>
<pdfrwt beam="1">  1        2 0.92257381E-01 0.91696820E+03</pdfrwt>
<pdfrwt beam="2">  1       -2 0.46499828E-01 0.91696820E+03</pdfrwt>
<totfact> 0.21816970E+02</totfact>
</mgrwt>
</event>
<event>
 4    1  0.2892809E-005  0.4832247E+03  0.7818608E-02  0.1018253E+00
         -2   -1    0    0    0  501 -0.00000000000E+00  0.00000000000E+00  0.63626942851E+02  0.63626942902E+02  0.25500000000E-02 0. -1.
          2   -1    0    0  501    0  0.00000000000E+00 -0.00000000000E+00 -0.91748113964E+03  0.91748113964E+03  0.25500000000E-02 0.  1.
    5000001    1    1    2    0    0  0.95786805523E+02  0.96886457671E+02 -0.31664377486E+03  0.39457493325E+03  0.19200000000E+03 0.  0.
   -5000001    1    1    2    0    0 -0.95786805523E+02 -0.96886457671E+02 -0.53721042193E+03  0.58653314929E+03  0.19200000000E+03 0.  0.
<mgrwt>
<rscale>  0 0.48322467E+03</rscale>
<asrwt>0</asrwt>
<pdfrwt beam="1">  1        2 0.13106873E+00 0.48322467E+03</pdfrwt>
<pdfrwt beam="2">  1       -2 0.90895638E-02 0.48322467E+03</pdfrwt>
<totfact> 0.25367472E+03</totfact>
</mgrwt>
</event>
<event>
 4    1  0.2892809E-005  0.1043326E+04  0.7818608E-02  0.9262261E-01
         -2   -1    0    0    0  501 -0.00000000000E+00  0.00000000000E+00  0.11575240951E+03  0.11575240954E+03  0.25500000000E-02 0. -1.
          2   -1    0    0  501    0  0.00000000000E+00 -0.00000000000E+00 -0.23509876574E+04  0.23509876574E+04  0.25500000000E-02 0.  1.
    5000001    1    1    2    0    0  0.46211600458E+03 -0.12807560212E+03 -0.12899674662E+04  0.13895447547E+04  0.19200000000E+03 0.  0.
   -5000001    1    1    2    0    0 -0.46211600458E+03  0.12807560212E+03 -0.94526778169E+03  0.10771953122E+04  0.19200000000E+03 0.  0.
<mgrwt>
<rscale>  0 0.10433264E+04</rscale>
<asrwt>0</asrwt>
<pdfrwt beam="1">  1        2 0.33585535E+00 0.10433264E+04</pdfrwt>
<pdfrwt beam="2">  1       -2 0.16536060E-01 0.10433264E+04</pdfrwt>
<totfact> 0.15725865E+02</totfact>
</mgrwt>
</event>
<event>
 4    1  0.2892809E-005  0.9624430E+03  0.7818608E-02  0.9350724E-01
          2   -1    0    0  501    0  0.00000000000E+00  0.00000000000E+00  0.21326223254E+03  0.21326223255E+03  0.25500000000E-02 0.  1.
         -2   -1    0    0    0  501 -0.00000000000E+00 -0.00000000000E+00 -0.10858656017E+04  0.10858656017E+04  0.25500000000E-02 0. -1.
    5000001    1    1    2    0    0  0.30240260351E+03 -0.29727679979E+03 -0.27159398388E+03  0.53893239129E+03  0.19200000000E+03 0.  0.
   -5000001    1    1    2    0    0 -0.30240260351E+03  0.29727679979E+03 -0.60100938527E+03  0.76019544295E+03  0.19200000000E+03 0.  0.
<mgrwt>
<rscale>  0 0.96244298E+03</rscale>
<asrwt>0</asrwt>
<pdfrwt beam="1">  1        2 0.30466034E-01 0.96244298E+03</pdfrwt>
<pdfrwt beam="2">  1       -2 0.15512365E+00 0.96244298E+03</pdfrwt>
<totfact> 0.47933473E+01</totfact>
</mgrwt>
</event>
<event>
 4    1  0.2892809E-005  0.4840453E+03  0.7818608E-02  0.1018029E+00
          2   -1    0    0  501    0  0.00000000000E+00  0.00000000000E+00  0.28756833373E+04  0.28756833374E+04  0.25500000000E-02 0.  1.
         -2   -1    0    0    0  501 -0.00000000000E+00 -0.00000000000E+00 -0.20369058946E+02  0.20369059106E+02  0.25500000000E-02 0. -1.
    5000001    1    1    2    0    0  0.16565899375E+02  0.14272017303E+03  0.12321774371E+04  0.12552962651E+04  0.19200000000E+03 0.  0.
   -5000001    1    1    2    0    0 -0.16565899375E+02 -0.14272017303E+03  0.16231368413E+04  0.16407561313E+04  0.19200000000E+03 0.  0.
<mgrwt>
<rscale>  0 0.48404530E+03</rscale>
<asrwt>0</asrwt>
<pdfrwt beam="1">  1        2 0.41081185E+00 0.48404530E+03</pdfrwt>
<pdfrwt beam="2">  1       -2 0.29098660E-02 0.48404530E+03</pdfrwt>
<totfact> 0.13977018E+03</totfact>
</mgrwt>
</event>
<event>
 4    1  0.2892809E-005  0.5488065E+03  0.7818608E-02  0.1001771E+00
         -2   -1    0    0    0  501 -0.00000000000E+00  0.00000000000E+00  0.33343053700E+02  0.33343053797E+02  0.25500000000E-02 0. -1.
          2   -1    0    0  501    0  0.00000000000E+00 -0.00000000000E+00 -0.22582556216E+04  0.22582556216E+04  0.25500000000E-02 0.  1.
    5000001    1    1    2    0    0 -0.80401338076E+02  0.11510517345E+03 -0.16837601689E+04  0.17004781335E+04  0.19200000000E+03 0.  0.
   -5000001    1    1    2    0    0  0.80401338076E+02 -0.11510517345E+03 -0.54115239900E+03  0.59112054191E+03  0.19200000000E+03 0.  0.
<mgrwt>
<rscale>  0 0.54880648E+03</rscale>
<asrwt>0</asrwt>
<pdfrwt beam="1">  1        2 0.32260785E+00 0.54880648E+03</pdfrwt>
<pdfrwt beam="2">  1       -2 0.47632948E-02 0.54880648E+03</pdfrwt>
<totfact> 0.13629393E+03</totfact>
</mgrwt>
</event>
<event>
 4    1  0.2892809E-005  0.7178609E+03  0.7818608E-02  0.9687166E-01
          2   -1    0    0  501    0  0.00000000000E+00  0.00000000000E+00  0.19988484594E+04  0.19988484594E+04  0.25500000000E-02 0.  1.
         -2   -1    0    0    0  501 -0.00000000000E+00 -0.00000000000E+00 -0.64452641697E+02  0.64452641748E+02  0.25500000000E-02 0. -1.
    5000001    1    1    2    0    0  0.24586428776E+03  0.15636879396E+03  0.12088152278E+04  0.12581727635E+04  0.19200000000E+03 0.  0.
   -5000001    1    1    2    0    0 -0.24586428776E+03 -0.15636879396E+03  0.72558058988E+03  0.80512833768E+03  0.19200000000E+03 0.  0.
<mgrwt>
<rscale>  0 0.71786089E+03</rscale>
<asrwt>0</asrwt>
<pdfrwt beam="1">  1        2 0.28554977E+00 0.71786089E+03</pdfrwt>
<pdfrwt beam="2">  1       -2 0.92075206E-02 0.71786089E+03</pdfrwt>
<totfact> 0.64425521E+02</totfact>
</mgrwt>
</event>
<event>
 4    1  0.2892809E-005  0.6855568E+03  0.7818608E-02  0.9742256E-01
          2   -1    0    0  501    0  0.00000000000E+00  0.00000000000E+00  0.25306227632E+03  0.25306227634E+03  0.25500000000E-02 0.  1.
         -2   -1    0    0    0  501 -0.00000000000E+00 -0.00000000000E+00 -0.46430082557E+03  0.46430082557E+03  0.25500000000E-02 0. -1.
    5000001    1    1    2    0    0  0.27166811323E+03  0.51206449683E+02 -0.37745747011E+02  0.33869515151E+03  0.19200000000E+03 0.  0.
   -5000001    1    1    2    0    0 -0.27166811323E+03 -0.51206449683E+02 -0.17349280223E+03  0.37866795040E+03  0.19200000000E+03 0.  0.
<mgrwt>
<rscale>  0 0.68555678E+03</rscale>
<asrwt>0</asrwt>
<pdfrwt beam="1">  1        2 0.36151754E-01 0.68555678E+03</pdfrwt>
<pdfrwt beam="2">  1       -2 0.66328689E-01 0.68555678E+03</pdfrwt>
<totfact> 0.30423085E+02</totfact>
</mgrwt>
</event>
<event>
 4    1  0.2892809E-005  0.1051217E+04  0.7818608E-02  0.9254088E-01
          2   -1    0    0  501    0  0.00000000000E+00  0.00000000000E+00  0.63068835446E+03  0.63068835446E+03  0.25500000000E-02 0.  1.
         -2   -1    0    0    0  501 -0.00000000000E+00 -0.00000000000E+00 -0.43803616689E+03  0.43803616690E+03  0.25500000000E-02 0. -1.
    5000001    1    1    2    0    0 -0.11431433086E+03  0.33217616051E+03 -0.24992132744E+03  0.47194643527E+03  0.19200000000E+03 0.  0.
   -5000001    1    1    2    0    0  0.11431433086E+03 -0.33217616051E+03  0.44257351501E+03  0.59677808609E+03  0.19200000000E+03 0.  0.
<mgrwt>
<rscale>  0 0.10512170E+04</rscale>
<asrwt>0</asrwt>
<pdfrwt beam="1">  1        2 0.90098335E-01 0.10512170E+04</pdfrwt>
<pdfrwt beam="2">  1       -2 0.62576596E-01 0.10512170E+04</pdfrwt>
<totfact> 0.12062869E+02</totfact>
</mgrwt>
</event>
<event>
 4    1  0.2892809E-005  0.6536642E+03  0.7818608E-02  0.9799928E-01
         -2   -1    0    0    0  501 -0.00000000000E+00  0.00000000000E+00  0.10779321750E+04  0.10779321750E+04  0.25500000000E-02 0. -1.
          2   -1    0    0  501    0  0.00000000000E+00 -0.00000000000E+00 -0.99096422484E+02  0.99096422517E+02  0.25500000000E-02 0.  1.
    5000001    1    1    2    0    0 -0.23183233661E+02 -0.21412221445E+03  0.76586171791E+03  0.81840940611E+03  0.19200000000E+03 0.  0.
   -5000001    1    1    2    0    0  0.23183233661E+02  0.21412221445E+03  0.21297403464E+03  0.35861919145E+03  0.19200000000E+03 0.  0.
<mgrwt>
<rscale>  0 0.65366420E+03</rscale>
<asrwt>0</asrwt>
<pdfrwt beam="1">  1        2 0.14156632E-01 0.65366420E+03</pdfrwt>
<pdfrwt beam="2">  1       -2 0.15399031E+00 0.65366420E+03</pdfrwt>
<totfact> 0.12208543E+02</totfact>
</mgrwt>
</event>
<event>
 4    1  0.2892809E-005  0.4687765E+03  0.7818608E-02  0.1022266E+00
         -2   -1    0    0    0  501 -0.00000000000E+00  0.00000000000E+00  0.13106268674E+02  0.13106268922E+02  0.25500000000E-02 0. -1.
          2   -1    0    0  501    0  0.00000000000E+00 -0.00000000000E+00 -0.41917236006E+04  0.41917236006E+04  0.25500000000E-02 0.  1.
    5000001    1    1    2    0    0  0.10944775582E+03  0.46023668136E+02 -0.15236517390E+04  0.15402842630E+04  0.19200000000E+03 0.  0.
   -5000001    1    1    2    0    0 -0.10944775582E+03 -0.46023668136E+02 -0.26549655929E+04  0.26645456064E+04  0.19200000000E+03 0.  0.
<mgrwt>
<rscale>  0 0.46877652E+03</rscale>
<asrwt>0</asrwt>
<pdfrwt beam="1">  1        2 0.59881680E+00 0.46877652E+03</pdfrwt>
<pdfrwt beam="2">  1       -2 0.18723268E-02 0.46877652E+03</pdfrwt>
<totfact> 0.43959782E+02</totfact>
</mgrwt>
</event>
<event>
 4    1  0.2892809E-005  0.7604649E+03  0.7818608E-02  0.9619074E-01
         -2   -1    0    0    0  501 -0.00000000000E+00  0.00000000000E+00  0.23953918827E+03  0.23953918828E+03  0.25500000000E-02 0. -1.
          2   -1    0    0  501    0  0.00000000000E+00 -0.00000000000E+00 -0.60356183323E+03  0.60356183324E+03  0.25500000000E-02 0.  1.
    5000001    1    1    2    0    0  0.11630440999E+03 -0.20725604662E+03 -0.43294939372E+03  0.52989712413E+03  0.19200000000E+03 0.  0.
   -5000001    1    1    2    0    0 -0.11630440999E+03  0.20725604662E+03  0.68926748753E+02  0.31320389738E+03  0.19200000000E+03 0.  0.
<mgrwt>
<rscale>  0 0.76046489E+03</rscale>
<asrwt>0</asrwt>
<pdfrwt beam="1">  1        2 0.86223119E-01 0.76046489E+03</pdfrwt>
<pdfrwt beam="2">  1       -2 0.34219884E-01 0.76046489E+03</pdfrwt>
<totfact> 0.43286552E+02</totfact>
</mgrwt>
</event>
<event>
 4    1  0.2892809E-005  0.5076743E+03  0.7818608E-02  0.1011795E+00
         -2   -1    0    0    0  501 -0.00000000000E+00  0.00000000000E+00  0.91788961852E+02  0.91788961887E+02  0.25500000000E-02 0. -1.
          2   -1    0    0  501    0  0.00000000000E+00 -0.00000000000E+00 -0.70197209185E+03  0.70197209186E+03  0.25500000000E-02 0.  1.
    5000001    1    1    2    0    0  0.12944054536E+03  0.24477921425E+02 -0.46311790499E+03  0.51835915863E+03  0.19200000000E+03 0.  0.
   -5000001    1    1    2    0    0 -0.12944054536E+03 -0.24477921425E+02 -0.14706522501E+03  0.27540189511E+03  0.19200000000E+03 0.  0.
<mgrwt>
<rscale>  0 0.50767426E+03</rscale>
<asrwt>0</asrwt>
<pdfrwt beam="1">  1        2 0.10028172E+00 0.50767426E+03</pdfrwt>
<pdfrwt beam="2">  1       -2 0.13112709E-01 0.50767426E+03</pdfrwt>
<totfact> 0.19656889E+03</totfact>
</mgrwt>
</event>
<event>
 4    1  0.2892809E-005  0.1383472E+04  0.7818608E-02  0.8965870E-01
         -2   -1    0    0    0  501 -0.00000000000E+00  0.00000000000E+00  0.30949141785E+03  0.30949141786E+03  0.25500000000E-02 0. -1.
          2   -1    0    0  501    0  0.00000000000E+00 -0.00000000000E+00 -0.15460796589E+04  0.15460796589E+04  0.25500000000E-02 0.  1.
    5000001    1    1    2    0    0 -0.30660218930E+03  0.56119506265E+03 -0.86079429943E+03  0.10893923199E+04  0.19200000000E+03 0.  0.
   -5000001    1    1    2    0    0  0.30660218930E+03 -0.56119506265E+03 -0.37579394160E+03  0.76617875680E+03  0.19200000000E+03 0.  0.
<mgrwt>
<rscale>  0 0.13834716E+04</rscale>
<asrwt>0</asrwt>
<pdfrwt beam="1">  1        2 0.22086852E+00 0.13834716E+04</pdfrwt>
<pdfrwt beam="2">  1       -2 0.44213061E-01 0.13834716E+04</pdfrwt>
<totfact> 0.65353002E+01</totfact>
</mgrwt>
</event>
<event>
 4    1  0.2892809E-005  0.1801144E+04  0.7818608E-02  0.8705692E-01
         -2   -1    0    0    0  501 -0.00000000000E+00  0.00000000000E+00  0.62745958006E+03  0.62745958006E+03  0.25500000000E-02 0. -1.
          2   -1    0    0  501    0  0.00000000000E+00 -0.00000000000E+00 -0.12925605994E+04  0.12925605994E+04  0.25500000000E-02 0.  1.
    5000001    1    1    2    0    0  0.78476468880E+03  0.17769719942E+03  0.46942152376E+02  0.82855263993E+03  0.19200000000E+03 0.  0.
   -5000001    1    1    2    0    0 -0.78476468880E+03 -0.17769719942E+03 -0.71204317174E+03  0.10914675395E+04  0.19200000000E+03 0.  0.
<mgrwt>
<rscale>  0 0.18011436E+04</rscale>
<asrwt>0</asrwt>
<pdfrwt beam="1">  1        2 0.18465152E+00 0.18011436E+04</pdfrwt>
<pdfrwt beam="2">  1       -2 0.89637082E-01 0.18011436E+04</pdfrwt>
<totfact> 0.19147138E+01</totfact>
</mgrwt>
</event>
<event>
 4    1  0.2892809E-005  0.4604260E+03  0.7818608E-02  0.1024658E+00
          2   -1    0    0  501    0  0.00000000000E+00  0.00000000000E+00  0.14442637126E+04  0.14442637126E+04  0.25500000000E-02 0. -1.
         -2   -1    0    0    0  501 -0.00000000000E+00 -0.00000000000E+00 -0.36695524189E+02  0.36695524278E+02  0.25500000000E-02 0.  1.
    5000001    1    1    2    0    0 -0.90887235735E+02  0.74235117134E+02  0.54743872840E+03  0.59188217036E+03  0.19200000000E+03 0.  0.
   -5000001    1    1    2    0    0  0.90887235735E+02 -0.74235117134E+02  0.86012945996E+03  0.88907706648E+03  0.19200000000E+03 0.  0.
<mgrwt>
<rscale>  0 0.46042595E+03</rscale>
<asrwt>0</asrwt>
<pdfrwt beam="1">  1        2 0.20632336E+00 0.46042595E+03</pdfrwt>
<pdfrwt beam="2">  1       -2 0.52422183E-02 0.46042595E+03</pdfrwt>
<totfact> 0.30353080E+03</totfact>
</mgrwt>
</event>
<event>
 4    1  0.2892809E-005  0.4528414E+03  0.7818608E-02  0.1026878E+00
          2   -1    0    0  501    0  0.00000000000E+00  0.00000000000E+00  0.16091420325E+04  0.16091420325E+04  0.25500000000E-02 0.  1.
         -2   -1    0    0    0  501 -0.00000000000E+00 -0.00000000000E+00 -0.31859414132E+02  0.31859414234E+02  0.25500000000E-02 0. -1.
    5000001    1    1    2    0    0  0.10653690949E+03 -0.34205192962E+02  0.63142506864E+03  0.66938906894E+03  0.19200000000E+03 0.  0.
   -5000001    1    1    2    0    0 -0.10653690949E+03  0.34205192962E+02  0.94585754970E+03  0.97161237777E+03  0.19200000000E+03 0.  0.
<mgrwt>
<rscale>  0 0.45284135E+03</rscale>
<asrwt>0</asrwt>
<pdfrwt beam="1">  1        2 0.22987748E+00 0.45284135E+03</pdfrwt>
<pdfrwt beam="2">  1       -2 0.45513439E-02 0.45284135E+03</pdfrwt>
<totfact> 0.31044712E+03</totfact>
</mgrwt>
</event>
<event>
 4    1  0.2892809E-005  0.6613475E+03  0.7818608E-02  0.9785716E-01
         -2   -1    0    0    0  501 -0.00000000000E+00  0.00000000000E+00  0.13501108062E+03  0.13501108065E+03  0.25500000000E-02 0. -1.
          2   -1    0    0  501    0  0.00000000000E+00 -0.00000000000E+00 -0.80989738305E+03  0.80989738305E+03  0.25500000000E-02 0.  1.
    5000001    1    1    2    0    0 -0.95281145941E+02 -0.25167240075E+03 -0.34883987848E+03  0.48059416859E+03  0.19200000000E+03 0.  0.
   -5000001    1    1    2    0    0  0.95281145941E+02  0.25167240075E+03 -0.32604642395E+03  0.46431429510E+03  0.19200000000E+03 0.  0.
<mgrwt>
<rscale>  0 0.66134748E+03</rscale>
<asrwt>0</asrwt>
<pdfrwt beam="1">  1        2 0.11569962E+00 0.66134748E+03</pdfrwt>
<pdfrwt beam="2">  1       -2 0.19287298E-01 0.66134748E+03</pdfrwt>
<totfact> 0.85341827E+02</totfact>
</mgrwt>
</event>
<event>
 4    1  0.2892809E-005  0.6958166E+03  0.7818608E-02  0.9724413E-01
         -2   -1    0    0    0  501 -0.00000000000E+00  0.00000000000E+00  0.34850568030E+03  0.34850568031E+03  0.25500000000E-02 0. -1.
          2   -1    0    0  501    0  0.00000000000E+00 -0.00000000000E+00 -0.34731196877E+03  0.34731196878E+03  0.25500000000E-02 0.  1.
    5000001    1    1    2    0    0 -0.56585581910E+02  0.23870079213E+03  0.15550414526E+03  0.34817457609E+03  0.19200000000E+03 0.  0.
   -5000001    1    1    2    0    0  0.56585581910E+02 -0.23870079213E+03 -0.15431043374E+03  0.34764307300E+03  0.19200000000E+03 0.  0.
<mgrwt>
<rscale>  0 0.69581663E+03</rscale>
<asrwt>0</asrwt>
<pdfrwt beam="1">  1        2 0.49615995E-01 0.69581663E+03</pdfrwt>
<pdfrwt beam="2">  1       -2 0.49786526E-01 0.69581663E+03</pdfrwt>
<totfact> 0.38982083E+02</totfact>
</mgrwt>
</event>
<event>
 4    1  0.2892809E-005  0.6877179E+03  0.7818608E-02  0.9738470E-01
         -2   -1    0    0    0  501 -0.00000000000E+00  0.00000000000E+00  0.18002139275E+04  0.18002139275E+04  0.25500000000E-02 0. -1.
          2   -1    0    0  501    0  0.00000000000E+00 -0.00000000000E+00 -0.65680514707E+02  0.65680514756E+02  0.25500000000E-02 0.  1.
    5000001    1    1    2    0    0 -0.10780629024E+03 -0.18650902795E+03  0.13746158669E+04  0.14045784404E+04  0.19200000000E+03 0.  0.
   -5000001    1    1    2    0    0  0.10780629024E+03  0.18650902795E+03  0.35991754589E+03  0.46131600184E+03  0.19200000000E+03 0.  0.
<mgrwt>
<rscale>  0 0.68771790E+03</rscale>
<asrwt>0</asrwt>
<pdfrwt beam="1">  1        2 0.93829304E-02 0.68771790E+03</pdfrwt>
<pdfrwt beam="2">  1       -2 0.25717343E+00 0.68771790E+03</pdfrwt>
<totfact> 0.43335466E+01</totfact>
</mgrwt>
</event>
<event>
 4    1  0.2892809E-005  0.9566762E+03  0.7818608E-02  0.9357381E-01
         -2   -1    0    0    0  501 -0.00000000000E+00  0.00000000000E+00  0.15280619817E+03  0.15280619819E+03  0.25500000000E-02 0. -1.
          2   -1    0    0  501    0  0.00000000000E+00 -0.00000000000E+00 -0.14973695440E+04  0.14973695440E+04  0.25500000000E-02 0.  1.
    5000001    1    1    2    0    0  0.80882400656E+01 -0.40464708913E+03 -0.38293603926E+03  0.58932902230E+03  0.19200000000E+03 0.  0.
   -5000001    1    1    2    0    0 -0.80882400656E+01  0.40464708913E+03 -0.96162730659E+03  0.10608467199E+04  0.19200000000E+03 0.  0.
<mgrwt>
<rscale>  0 0.95667622E+03</rscale>
<asrwt>0</asrwt>
<pdfrwt beam="1">  1        2 0.21390993E+00 0.95667622E+03</pdfrwt>
<pdfrwt beam="2">  1       -2 0.21829458E-01 0.95667622E+03</pdfrwt>
<totfact> 0.26794263E+02</totfact>
</mgrwt>
</event>
<event>
 4    1  0.2892809E-005  0.4675945E+03  0.7818608E-02  0.1022601E+00
         -2   -1    0    0    0  501 -0.00000000000E+00  0.00000000000E+00  0.64915018589E+02  0.64915018639E+02  0.25500000000E-02 0. -1.
          2   -1    0    0  501    0  0.00000000000E+00 -0.00000000000E+00 -0.84204163863E+03  0.84204163863E+03  0.25500000000E-02 0.  1.
    5000001    1    1    2    0    0  0.35700983692E+02 -0.10803040636E+03 -0.52367049296E+03  0.56924503874E+03  0.19200000000E+03 0.  0.
   -5000001    1    1    2    0    0 -0.35700983692E+02  0.10803040636E+03 -0.25345612708E+03  0.33771161853E+03  0.19200000000E+03 0.  0.
<mgrwt>
<rscale>  0 0.46759448E+03</rscale>
<asrwt>0</asrwt>
<pdfrwt beam="1">  1        2 0.12029166E+00 0.46759448E+03</pdfrwt>
<pdfrwt beam="2">  1       -2 0.92735746E-02 0.46759448E+03</pdfrwt>
<totfact> 0.27493054E+03</totfact>
</mgrwt>
</event>
<event>
 4    1  0.2892809E-005  0.5504938E+03  0.7818608E-02  0.1001380E+00
         -2   -1    0    0    0  501 -0.00000000000E+00  0.00000000000E+00  0.13023331803E+03  0.13023331806E+03  0.25500000000E-02 0. -1.
          2   -1    0    0  501    0  0.00000000000E+00 -0.00000000000E+00 -0.58173173915E+03  0.58173173915E+03  0.25500000000E-02 0.  1.
    5000001    1    1    2    0    0 -0.19435938108E+03  0.17755078613E+02 -0.26246774140E+03  0.37926788304E+03  0.19200000000E+03 0.  0.
   -5000001    1    1    2    0    0  0.19435938108E+03 -0.17755078613E+02 -0.18903067971E+03  0.33269717417E+03  0.19200000000E+03 0.  0.
<mgrwt>
<rscale>  0 0.55049380E+03</rscale>
<asrwt>0</asrwt>
<pdfrwt beam="1">  1        2 0.83104533E-01 0.55049380E+03</pdfrwt>
<pdfrwt beam="2">  1       -2 0.18604760E-01 0.55049380E+03</pdfrwt>
<totfact> 0.13623891E+03</totfact>
</mgrwt>
</event>
<event>
 4    1  0.2892809E-005  0.4275591E+03  0.7818608E-02  0.1034634E+00
          2   -1    0    0  501    0  0.00000000000E+00  0.00000000000E+00  0.86826368046E+03  0.86826368046E+03  0.25500000000E-02 0.  1.
         -2   -1    0    0    0  501 -0.00000000000E+00 -0.00000000000E+00 -0.52635745074E+02  0.52635745136E+02  0.25500000000E-02 0. -1.
    5000001    1    1    2    0    0  0.54450085802E+02  0.76555312992E+02  0.40029767580E+03  0.45379263661E+03  0.19200000000E+03 0.  0.
   -5000001    1    1    2    0    0 -0.54450085802E+02 -0.76555312992E+02  0.41533025958E+03  0.46710678898E+03  0.19200000000E+03 0.  0.
<mgrwt>
<rscale>  0 0.42755915E+03</rscale>
<asrwt>0</asrwt>
<pdfrwt beam="1">  1        2 0.12403767E+00 0.42755915E+03</pdfrwt>
<pdfrwt beam="2">  1       -2 0.75193924E-02 0.42755915E+03</pdfrwt>
<totfact> 0.36833386E+03</totfact>
</mgrwt>
</event>
<event>
 4    1  0.2892809E-005  0.6774349E+03  0.7818608E-02  0.9756619E-01
          2   -1    0    0  501    0  0.00000000000E+00  0.00000000000E+00  0.13688980754E+04  0.13688980754E+04  0.25500000000E-02 0.  1.
         -2   -1    0    0    0  501 -0.00000000000E+00 -0.00000000000E+00 -0.83811589445E+02  0.83811589484E+02  0.25500000000E-02 0. -1.
    5000001    1    1    2    0    0  0.10622162634E+03 -0.23924507481E+03  0.43525042991E+03  0.54298082513E+03  0.19200000000E+03 0.  0.
   -5000001    1    1    2    0    0 -0.10622162634E+03  0.23924507481E+03  0.84983605605E+03  0.90972883976E+03  0.19200000000E+03 0.  0.
<mgrwt>
<rscale>  0 0.67743494E+03</rscale>
<asrwt>0</asrwt>
<pdfrwt beam="1">  1        2 0.19555685E+00 0.67743494E+03</pdfrwt>
<pdfrwt beam="2">  1       -2 0.11973086E-01 0.67743494E+03</pdfrwt>
<totfact> 0.88752963E+02</totfact>
</mgrwt>
</event>
<event>
 4    1  0.2892809E-005  0.5689925E+03  0.7818608E-02  0.9971910E-01
         -2   -1    0    0    0  501 -0.00000000000E+00  0.00000000000E+00  0.72676440627E+02  0.72676440672E+02  0.25500000000E-02 0.  1.
          2   -1    0    0  501    0  0.00000000000E+00 -0.00000000000E+00 -0.11136775988E+04  0.11136775988E+04  0.25500000000E-02 0. -1.
    5000001    1    1    2    0    0 -0.16746804161E+03  0.64152625294E+02 -0.74807250212E+03  0.79286668029E+03  0.19200000000E+03 0.  0.
   -5000001    1    1    2    0    0  0.16746804161E+03 -0.64152625294E+02 -0.29292865603E+03  0.39348735916E+03  0.19200000000E+03 0.  0.
<mgrwt>
<rscale>  0 0.56899253E+03</rscale>
<asrwt>0</asrwt>
<pdfrwt beam="1">  1        2 0.15909679E+00 0.56899253E+03</pdfrwt>
<pdfrwt beam="2">  1       -2 0.10382349E-01 0.56899253E+03</pdfrwt>
<totfact> 0.15580267E+03</totfact>
</mgrwt>
</event>
<event>
 4    1  0.2892809E-005  0.5275709E+03  0.7818608E-02  0.1006823E+00
          2   -1    0    0  501    0  0.00000000000E+00  0.00000000000E+00  0.11119053090E+04  0.11119053090E+04  0.25500000000E-02 0.  1.
         -2   -1    0    0    0  501 -0.00000000000E+00 -0.00000000000E+00 -0.62579757057E+02  0.62579757109E+02  0.25500000000E-02 0. -1.
    5000001    1    1    2    0    0  0.17644327027E+03 -0.14278638922E+02  0.44188306770E+03  0.51328428057E+03  0.19200000000E+03 0.  0.
   -5000001    1    1    2    0    0 -0.17644327027E+03  0.14278638922E+02  0.60744248428E+03  0.66120078559E+03  0.19200000000E+03 0.  0.
<mgrwt>
<rscale>  0 0.52757090E+03</rscale>
<asrwt>0</asrwt>
<pdfrwt beam="1">  1        2 0.15884361E+00 0.52757090E+03</pdfrwt>
<pdfrwt beam="2">  1       -2 0.89399659E-02 0.52757090E+03</pdfrwt>
<totfact> 0.19890868E+03</totfact>
</mgrwt>
</event>
<event>
 4    1  0.2892809E-005  0.6131659E+03  0.7818608E-02  0.9878461E-01
          2   -1    0    0  501    0  0.00000000000E+00  0.00000000000E+00  0.27013547382E+03  0.27013547384E+03  0.25500000000E-02 0.  1.
         -2   -1    0    0    0  501 -0.00000000000E+00 -0.00000000000E+00 -0.34794806263E+03  0.34794806264E+03  0.25500000000E-02 0. -1.
    5000001    1    1    2    0    0 -0.12752880080E+03  0.19478965885E+03 -0.93400089434E+02  0.31590217304E+03  0.19200000000E+03 0.  0.
   -5000001    1    1    2    0    0  0.12752880080E+03 -0.19478965885E+03  0.15587500629E+02  0.30218136343E+03  0.19200000000E+03 0.  0.
<mgrwt>
<rscale>  0 0.61316593E+03</rscale>
<asrwt>0</asrwt>
<pdfrwt beam="1">  1        2 0.38590782E-01 0.61316593E+03</pdfrwt>
<pdfrwt beam="2">  1       -2 0.49706866E-01 0.61316593E+03</pdfrwt>
<totfact> 0.51745025E+02</totfact>
</mgrwt>
</event>
<event>
 4    1  0.2892809E-005  0.4637819E+03  0.7818608E-02  0.1023690E+00
          2   -1    0    0  501    0  0.00000000000E+00  0.00000000000E+00  0.17085956926E+04  0.17085956926E+04  0.25500000000E-02 0.  1.
         -2   -1    0    0    0  501 -0.00000000000E+00 -0.00000000000E+00 -0.31472292804E+02  0.31472292907E+02  0.25500000000E-02 0. -1.
    5000001    1    1    2    0    0 -0.11746610239E+03 -0.31321300629E+02  0.10117242184E+04  0.10369325934E+04  0.19200000000E+03 0.  0.
   -5000001    1    1    2    0    0  0.11746610239E+03  0.31321300629E+02  0.66539918137E+03  0.70313539212E+03  0.19200000000E+03 0.  0.
<mgrwt>
<rscale>  0 0.46378195E+03</rscale>
<asrwt>0</asrwt>
<pdfrwt beam="1">  1        2 0.24408519E+00 0.46378195E+03</pdfrwt>
<pdfrwt beam="2">  1       -2 0.44960402E-02 0.46378195E+03</pdfrwt>
<totfact> 0.28169304E+03</totfact>
</mgrwt>
</event>
<event>
 4    1  0.2892809E-005  0.4556063E+03  0.7818608E-02  0.1026063E+00
         -2   -1    0    0    0  501 -0.00000000000E+00  0.00000000000E+00  0.55952687308E+02  0.55952687366E+02  0.25500000000E-02 0. -1.
          2   -1    0    0  501    0  0.00000000000E+00 -0.00000000000E+00 -0.92746725755E+03  0.92746725756E+03  0.25500000000E-02 0.  1.
    5000001    1    1    2    0    0  0.56595263509E+02  0.62652435047E+02 -0.62763120470E+03  0.66175016478E+03  0.19200000000E+03 0.  0.
   -5000001    1    1    2    0    0 -0.56595263509E+02 -0.62652435047E+02 -0.24388336554E+03  0.32166978014E+03  0.19200000000E+03 0.  0.
<mgrwt>
<rscale>  0 0.45560635E+03</rscale>
<asrwt>0</asrwt>
<pdfrwt beam="1">  1        2 0.13249531E+00 0.45560635E+03</pdfrwt>
<pdfrwt beam="2">  1       -2 0.79932416E-02 0.45560635E+03</pdfrwt>
<totfact> 0.30670691E+03</totfact>
</mgrwt>
</event>
<event>
 4    1  0.2892809E-005  0.4243149E+03  0.7818608E-02  0.1035671E+00
          2   -1    0    0  501    0  0.00000000000E+00  0.00000000000E+00  0.94814829154E+03  0.94814829155E+03  0.25500000000E-02 0.  1.
         -2   -1    0    0    0  501 -0.00000000000E+00 -0.00000000000E+00 -0.47472296730E+02  0.47472296798E+02  0.25500000000E-02 0. -1.
    5000001    1    1    2    0    0  0.88319525313E+02  0.88104962083E+01  0.48880880484E+03  0.53261243985E+03  0.19200000000E+03 0.  0.
   -5000001    1    1    2    0    0 -0.88319525313E+02 -0.88104962083E+01  0.41186718998E+03  0.46300814850E+03  0.19200000000E+03 0.  0.
<mgrwt>
<rscale>  0 0.42431487E+03</rscale>
<asrwt>0</asrwt>
<pdfrwt beam="1">  1        2 0.13544976E+00 0.42431487E+03</pdfrwt>
<pdfrwt beam="2">  1       -2 0.67817563E-02 0.42431487E+03</pdfrwt>
<totfact> 0.38540339E+03</totfact>
</mgrwt>
</event>
<event>
 4    1  0.2892809E-005  0.5252263E+03  0.7818608E-02  0.1007396E+00
         -2   -1    0    0    0  501 -0.00000000000E+00  0.00000000000E+00  0.11794260138E+03  0.11794260141E+03  0.25500000000E-02 0. -1.
          2   -1    0    0  501    0  0.00000000000E+00 -0.00000000000E+00 -0.58473919223E+03  0.58473919224E+03  0.25500000000E-02 0.  1.
    5000001    1    1    2    0    0 -0.18633648123E+02  0.16861161643E+03 -0.15625821508E+03  0.30009618428E+03  0.19200000000E+03 0.  0.
   -5000001    1    1    2    0    0  0.18633648123E+02 -0.16861161643E+03 -0.31053837578E+03  0.40258560937E+03  0.19200000000E+03 0.  0.
<mgrwt>
<rscale>  0 0.52522628E+03</rscale>
<asrwt>0</asrwt>
<pdfrwt beam="1">  1        2 0.83534168E-01 0.52522628E+03</pdfrwt>
<pdfrwt beam="2">  1       -2 0.16848943E-01 0.52522628E+03</pdfrwt>
<totfact> 0.16046048E+03</totfact>
</mgrwt>
</event>
<event>
 4    1  0.2892809E-005  0.9356397E+03  0.7818608E-02  0.9382095E-01
          2   -1    0    0  501    0  0.00000000000E+00  0.00000000000E+00  0.13268291613E+04  0.13268291613E+04  0.25500000000E-02 0.  1.
         -2   -1    0    0    0  501 -0.00000000000E+00 -0.00000000000E+00 -0.16494618321E+03  0.16494618323E+03  0.25500000000E-02 0. -1.
    5000001    1    1    2    0    0 -0.30998646079E+03 -0.29296942520E+03  0.59415820632E+03  0.75618163434E+03  0.19200000000E+03 0.  0.
   -5000001    1    1    2    0    0  0.30998646079E+03  0.29296942520E+03  0.56772477176E+03  0.73559371018E+03  0.19200000000E+03 0.  0.
<mgrwt>
<rscale>  0 0.93563969E+03</rscale>
<asrwt>0</asrwt>
<pdfrwt beam="1">  1        2 0.18954703E+00 0.93563969E+03</pdfrwt>
<pdfrwt beam="2">  1       -2 0.23563739E-01 0.93563969E+03</pdfrwt>
<totfact> 0.28910276E+02</totfact>
</mgrwt>
</event>
<event>
 4    1  0.2892809E-005  0.2256594E+04  0.7818608E-02  0.8495235E-01
         -2   -1    0    0    0  501 -0.00000000000E+00  0.00000000000E+00  0.56101127828E+03  0.56101127829E+03  0.25500000000E-02 0. -1.
          2   -1    0    0  501    0  0.00000000000E+00 -0.00000000000E+00 -0.22692129117E+04  0.22692129117E+04  0.25500000000E-02 0.  1.
    5000001    1    1    2    0    0 -0.94604196564E+03 -0.53797388195E+03 -0.56870792368E+03  0.12428612154E+04  0.19200000000E+03 0.  0.
   -5000001    1    1    2    0    0  0.94604196564E+03  0.53797388195E+03 -0.11394937097E+04  0.15873629745E+04  0.19200000000E+03 0.  0.
<mgrwt>
<rscale>  0 0.22565939E+04</rscale>
<asrwt>0</asrwt>
<pdfrwt beam="1">  1        2 0.32417327E+00 0.22565939E+04</pdfrwt>
<pdfrwt beam="2">  1       -2 0.80144470E-01 0.22565939E+04</pdfrwt>
<totfact> 0.73270052E+00</totfact>
</mgrwt>
</event>
<event>
 4    1  0.2892809E-005  0.6315304E+03  0.7818608E-02  0.9842067E-01
         -2   -1    0    0    0  501 -0.00000000000E+00  0.00000000000E+00  0.13259060961E+03  0.13259060963E+03  0.25500000000E-02 0. -1.
          2   -1    0    0  501    0  0.00000000000E+00 -0.00000000000E+00 -0.75199645016E+03  0.75199645017E+03  0.25500000000E-02 0.  1.
    5000001    1    1    2    0    0  0.18542500537E+03 -0.16154314647E+03 -0.37782159549E+03  0.48999161095E+03  0.19200000000E+03 0.  0.
   -5000001    1    1    2    0    0 -0.18542500537E+03  0.16154314647E+03 -0.24158424507E+03  0.39459544885E+03  0.19200000000E+03 0.  0.
<mgrwt>
<rscale>  0 0.63153042E+03</rscale>
<asrwt>0</asrwt>
<pdfrwt beam="1">  1        2 0.10742806E+00 0.63153042E+03</pdfrwt>
<pdfrwt beam="2">  1       -2 0.18941516E-01 0.63153042E+03</pdfrwt>
<totfact> 0.96824456E+02</totfact>
</mgrwt>
</event>
<event>
 4    1  0.2892809E-005  0.8011397E+03  0.7818608E-02  0.9558369E-01
          2   -1    0    0  501    0  0.00000000000E+00  0.00000000000E+00  0.25044641508E+04  0.25044641508E+04  0.25500000000E-02 0.  1.
         -2   -1    0    0    0  501 -0.00000000000E+00 -0.00000000000E+00 -0.64068075541E+02  0.64068075592E+02  0.25500000000E-02 0. -1.
    5000001    1    1    2    0    0 -0.13263648416E+03 -0.32059667782E+03  0.10383376167E+04  0.11114781478E+04  0.19200000000E+03 0.  0.
   -5000001    1    1    2    0    0  0.13263648416E+03  0.32059667782E+03  0.14020584585E+04  0.14570540786E+04  0.19200000000E+03 0.  0.
<mgrwt>
<rscale>  0 0.80113968E+03</rscale>
<asrwt>0</asrwt>
<pdfrwt beam="1">  1        2 0.35778059E+00 0.80113968E+03</pdfrwt>
<pdfrwt beam="2">  1       -2 0.91525823E-02 0.80113968E+03</pdfrwt>
<totfact> 0.35728631E+02</totfact>
</mgrwt>
</event>
<event>
 4    1  0.2892809E-005  0.5293383E+03  0.7818608E-02  0.1006393E+00
         -2   -1    0    0    0  501 -0.00000000000E+00  0.00000000000E+00  0.32389092191E+02  0.32389092291E+02  0.25500000000E-02 0. -1.
          2   -1    0    0  501    0  0.00000000000E+00 -0.00000000000E+00 -0.21627573767E+04  0.21627573767E+04  0.25500000000E-02 0.  1.
    5000001    1    1    2    0    0 -0.78829672859E+02  0.14848611314E+03 -0.13561670053E+04  0.13799692712E+04  0.19200000000E+03 0.  0.
   -5000001    1    1    2    0    0  0.78829672859E+02 -0.14848611314E+03 -0.77420127922E+03  0.81517719784E+03  0.19200000000E+03 0.  0.
<mgrwt>
<rscale>  0 0.52933826E+03</rscale>
<asrwt>0</asrwt>
<pdfrwt beam="1">  1        2 0.30896525E+00 0.52933826E+03</pdfrwt>
<pdfrwt beam="2">  1       -2 0.46270146E-02 0.52933826E+03</pdfrwt>
<totfact> 0.15935537E+03</totfact>
</mgrwt>
</event>
<event>
 4    1  0.2892809E-005  0.5036537E+03  0.7818608E-02  0.1012830E+00
         -2   -1    0    0    0  501 -0.00000000000E+00  0.00000000000E+00  0.13537617954E+04  0.13537617954E+04  0.25500000000E-02 0. -1.
          2   -1    0    0  501    0  0.00000000000E+00 -0.00000000000E+00 -0.46844839175E+02  0.46844839244E+02  0.25500000000E-02 0.  1.
    5000001    1    1    2    0    0  0.13618338395E+03 -0.63934389274E+02  0.47936410019E+03  0.53785449775E+03  0.19200000000E+03 0.  0.
   -5000001    1    1    2    0    0 -0.13618338395E+03  0.63934389274E+02  0.82755285608E+03  0.86275213694E+03  0.19200000000E+03 0.  0.
<mgrwt>
<rscale>  0 0.50365367E+03</rscale>
<asrwt>0</asrwt>
<pdfrwt beam="1">  1        2 0.66921219E-02 0.50365367E+03</pdfrwt>
<pdfrwt beam="2">  1       -2 0.19339448E+00 0.50365367E+03</pdfrwt>
<totfact> 0.16911269E+02</totfact>
</mgrwt>
</event>
<event>
 4    1  0.2892809E-005  0.5794497E+03  0.7818608E-02  0.9948983E-01
          2   -1    0    0  501    0  0.00000000000E+00  0.00000000000E+00  0.62867812858E+03  0.62867812858E+03  0.25500000000E-02 0.  1.
         -2   -1    0    0    0  501 -0.00000000000E+00 -0.00000000000E+00 -0.13351900870E+03  0.13351900872E+03  0.25500000000E-02 0. -1.
    5000001    1    1    2    0    0 -0.16711010791E+02  0.21587737238E+03  0.26590932529E+03  0.39300644660E+03  0.19200000000E+03 0.  0.
   -5000001    1    1    2    0    0  0.16711010791E+02 -0.21587737238E+03  0.22924979459E+03  0.36919069071E+03  0.19200000000E+03 0.  0.
<mgrwt>
<rscale>  0 0.57944967E+03</rscale>
<asrwt>0</asrwt>
<pdfrwt beam="1">  1        2 0.89811162E-01 0.57944967E+03</pdfrwt>
<pdfrwt beam="2">  1       -2 0.19074144E-01 0.57944967E+03</pdfrwt>
<totfact> 0.11909393E+03</totfact>
</mgrwt>
</event>
<event>
 4    1  0.2892809E-005  0.1486129E+04  0.7818608E-02  0.8893730E-01
         -2   -1    0    0    0  501 -0.00000000000E+00  0.00000000000E+00  0.28342236067E+03  0.28342236068E+03  0.25500000000E-02 0. -1.
          2   -1    0    0  501    0  0.00000000000E+00 -0.00000000000E+00 -0.19481331877E+04  0.19481331877E+04  0.25500000000E-02 0.  1.
    5000001    1    1    2    0    0  0.18772785703E+03  0.47737685396E+03 -0.15863719991E+04  0.16782641414E+04  0.19200000000E+03 0.  0.
   -5000001    1    1    2    0    0 -0.18772785703E+03 -0.47737685396E+03 -0.78338827936E+02  0.55329140691E+03  0.19200000000E+03 0.  0.
<mgrwt>
<rscale>  0 0.14861285E+04</rscale>
<asrwt>0</asrwt>
<pdfrwt beam="1">  1        2 0.27830473E+00 0.14861285E+04</pdfrwt>
<pdfrwt beam="2">  1       -2 0.40488910E-01 0.14861285E+04</pdfrwt>
<totfact> 0.47719982E+01</totfact>
</mgrwt>
</event>
<event>
 4    1  0.2892809E-005  0.5146128E+03  0.7818608E-02  0.1010034E+00
          2   -1    0    0  501    0  0.00000000000E+00  0.00000000000E+00  0.24797886461E+04  0.24797886461E+04  0.25500000000E-02 0.  1.
         -2   -1    0    0    0  501 -0.00000000000E+00 -0.00000000000E+00 -0.26698479861E+02  0.26698479983E+02  0.25500000000E-02 0. -1.
    5000001    1    1    2    0    0  0.16647385263E+03 -0.40359916258E+02  0.12282388648E+04  0.12549012613E+04  0.19200000000E+03 0.  0.
   -5000001    1    1    2    0    0 -0.16647385263E+03  0.40359916258E+02  0.12248513015E+04  0.12515858649E+04  0.19200000000E+03 0.  0.
<mgrwt>
<rscale>  0 0.51461282E+03</rscale>
<asrwt>0</asrwt>
<pdfrwt beam="1">  1        2 0.35425553E+00 0.51461282E+03</pdfrwt>
<pdfrwt beam="2">  1       -2 0.38140685E-02 0.51461282E+03</pdfrwt>
<totfact> 0.14843000E+03</totfact>
</mgrwt>
</event>
<event>
 4    1  0.2892809E-005  0.5848543E+03  0.7818608E-02  0.9937336E-01
         -2   -1    0    0    0  501 -0.00000000000E+00  0.00000000000E+00  0.32598451422E+02  0.32598451521E+02  0.25500000000E-02 0. -1.
          2   -1    0    0  501    0  0.00000000000E+00 -0.00000000000E+00 -0.26232427004E+04  0.26232427004E+04  0.25500000000E-02 0.  1.
    5000001    1    1    2    0    0 -0.13509388927E+03  0.17435322388E+03 -0.12930777617E+04  0.13257313089E+04  0.19200000000E+03 0.  0.
   -5000001    1    1    2    0    0  0.13509388927E+03 -0.17435322388E+03 -0.12975664873E+04  0.13301098430E+04  0.19200000000E+03 0.  0.
<mgrwt>
<rscale>  0 0.58485434E+03</rscale>
<asrwt>0</asrwt>
<pdfrwt beam="1">  1        2 0.37474882E+00 0.58485434E+03</pdfrwt>
<pdfrwt beam="2">  1       -2 0.46569233E-02 0.58485434E+03</pdfrwt>
<totfact> 0.91689848E+02</totfact>
</mgrwt>
</event>
<event>
 4    1  0.2892809E-005  0.4612040E+03  0.7818608E-02  0.1024433E+00
          2   -1    0    0  501    0  0.00000000000E+00  0.00000000000E+00  0.70950451174E+02  0.70950451220E+02  0.25500000000E-02 0.  1.
         -2   -1    0    0    0  501 -0.00000000000E+00 -0.00000000000E+00 -0.74949900438E+03  0.74949900438E+03  0.25500000000E-02 0. -1.
    5000001    1    1    2    0    0 -0.47903602415E+02 -0.33040175067E+02 -0.54153225146E+03  0.57750115815E+03  0.19200000000E+03 0.  0.
   -5000001    1    1    2    0    0  0.47903602415E+02  0.33040175067E+02 -0.13701630175E+03  0.24294829746E+03  0.19200000000E+03 0.  0.
<mgrwt>
<rscale>  0 0.46120404E+03</rscale>
<asrwt>0</asrwt>
<pdfrwt beam="1">  1        2 0.10135779E-01 0.46120404E+03</pdfrwt>
<pdfrwt beam="2">  1       -2 0.10707128E+00 0.46120404E+03</pdfrwt>
<totfact> 0.46259569E+02</totfact>
</mgrwt>
</event>
<event>
 4    1  0.2892809E-005  0.4679071E+03  0.7818608E-02  0.1022513E+00
          2   -1    0    0  501    0  0.00000000000E+00  0.00000000000E+00  0.43687618332E+03  0.43687618332E+03  0.25500000000E-02 0.  1.
         -2   -1    0    0    0  501 -0.00000000000E+00 -0.00000000000E+00 -0.12528555265E+03  0.12528555268E+03  0.25500000000E-02 0. -1.
    5000001    1    1    2    0    0 -0.90129325962E+02 -0.76764521089E+02  0.81207481475E+02  0.23973890411E+03  0.19200000000E+03 0.  0.
   -5000001    1    1    2    0    0  0.90129325962E+02  0.76764521089E+02  0.23038314919E+03  0.32242283189E+03  0.19200000000E+03 0.  0.
<mgrwt>
<rscale>  0 0.46790714E+03</rscale>
<asrwt>0</asrwt>
<pdfrwt beam="1">  1        2 0.62410885E-01 0.46790714E+03</pdfrwt>
<pdfrwt beam="2">  1       -2 0.17897936E-01 0.46790714E+03</pdfrwt>
<totfact> 0.20140372E+03</totfact>
</mgrwt>
</event>
<event>
 4    1  0.2892809E-005  0.1177357E+04  0.7818608E-02  0.9132910E-01
          2   -1    0    0  501    0  0.00000000000E+00  0.00000000000E+00  0.19274081573E+04  0.19274081573E+04  0.25500000000E-02 0.  1.
         -2   -1    0    0    0  501 -0.00000000000E+00 -0.00000000000E+00 -0.17979696669E+03  0.17979696671E+03  0.25500000000E-02 0. -1.
    5000001    1    1    2    0    0 -0.36187526534E+03 -0.34889241181E+03  0.44650787898E+03  0.69922307504E+03  0.19200000000E+03 0.  0.
   -5000001    1    1    2    0    0  0.36187526534E+03  0.34889241181E+03  0.13011033116E+04  0.14079820489E+04  0.19200000000E+03 0.  0.
<mgrwt>
<rscale>  0 0.11773566E+04</rscale>
<asrwt>0</asrwt>
<pdfrwt beam="1">  1        2 0.27534402E+00 0.11773566E+04</pdfrwt>
<pdfrwt beam="2">  1       -2 0.25685281E-01 0.11773566E+04</pdfrwt>
<totfact> 0.11804026E+02</totfact>
</mgrwt>
</event>
<event>
 4    1  0.2892809E-005  0.4123959E+03  0.7818608E-02  0.1039570E+00
         -2   -1    0    0    0  501 -0.00000000000E+00  0.00000000000E+00  0.52481294457E+02  0.52481294519E+02  0.25500000000E-02 0. -1.
          2   -1    0    0  501    0  0.00000000000E+00 -0.00000000000E+00 -0.81014772906E+03  0.81014772906E+03  0.25500000000E-02 0.  1.
    5000001    1    1    2    0    0  0.49341667831E+02 -0.49529065791E+02 -0.32094528017E+03  0.38047023721E+03  0.19200000000E+03 0.  0.
   -5000001    1    1    2    0    0 -0.49341667831E+02  0.49529065791E+02 -0.43672115443E+03  0.48215878637E+03  0.19200000000E+03 0.  0.
<mgrwt>
<rscale>  0 0.41239593E+03</rscale>
<asrwt>0</asrwt>
<pdfrwt beam="1">  1        2 0.11573538E+00 0.41239593E+03</pdfrwt>
<pdfrwt beam="2">  1       -2 0.74973283E-02 0.41239593E+03</pdfrwt>
<totfact> 0.40426712E+03</totfact>
</mgrwt>
</event>
<event>
 4    1  0.2892809E-005  0.4375675E+03  0.7818608E-02  0.1031496E+00
          2   -1    0    0  501    0  0.00000000000E+00  0.00000000000E+00  0.32559669726E+04  0.32559669726E+04  0.25500000000E-02 0. -1.
         -2   -1    0    0    0  501 -0.00000000000E+00 -0.00000000000E+00 -0.14701110132E+02  0.14701110353E+02  0.25500000000E-02 0.  1.
    5000001    1    1    2    0    0 -0.62041880098E+01 -0.98962932072E+02  0.13649410592E+04  0.13819407545E+04  0.19200000000E+03 0.  0.
   -5000001    1    1    2    0    0  0.62041880098E+01  0.98962932072E+02  0.18763248033E+04  0.18887273285E+04  0.19200000000E+03 0.  0.
<mgrwt>
<rscale>  0 0.43756750E+03</rscale>
<asrwt>0</asrwt>
<pdfrwt beam="1">  1        2 0.46513839E+00 0.43756750E+03</pdfrwt>
<pdfrwt beam="2">  1       -2 0.21001575E-02 0.43756750E+03</pdfrwt>
<totfact> 0.14209797E+03</totfact>
</mgrwt>
</event>
<event>
 4    1  0.2892809E-005  0.4341112E+03  0.7818608E-02  0.1032569E+00
         -2   -1    0    0    0  501 -0.00000000000E+00  0.00000000000E+00  0.22014206538E+03  0.22014206540E+03  0.25500000000E-02 0. -1.
          2   -1    0    0  501    0  0.00000000000E+00 -0.00000000000E+00 -0.21401245557E+03  0.21401245558E+03  0.25500000000E-02 0.  1.
    5000001    1    1    2    0    0 -0.51122019564E+02 -0.84130574798E+02  0.26683456193E+02  0.21741072038E+03  0.19200000000E+03 0.  0.
   -5000001    1    1    2    0    0  0.51122019564E+02  0.84130574798E+02 -0.20553846376E+02  0.21674380061E+03  0.19200000000E+03 0.  0.
<mgrwt>
<rscale>  0 0.43411125E+03</rscale>
<asrwt>0</asrwt>
<pdfrwt beam="1">  1        2 0.30573208E-01 0.43411125E+03</pdfrwt>
<pdfrwt beam="2">  1       -2 0.31448866E-01 0.43411125E+03</pdfrwt>
<totfact> 0.16237147E+03</totfact>
</mgrwt>
</event>
<event>
 4    1  0.2892809E-005  0.8968784E+03  0.7818608E-02  0.9429492E-01
          2   -1    0    0  501    0  0.00000000000E+00  0.00000000000E+00  0.11289553491E+04  0.11289553491E+04  0.25500000000E-02 0.  1.
         -2   -1    0    0    0  501 -0.00000000000E+00 -0.00000000000E+00 -0.17812727306E+03  0.17812727308E+03  0.25500000000E-02 0. -1.
    5000001    1    1    2    0    0  0.40041153810E+03 -0.33793278909E+02  0.39881752853E+03  0.59782171808E+03  0.19200000000E+03 0.  0.
   -5000001    1    1    2    0    0 -0.40041153810E+03  0.33793278909E+02  0.55201054755E+03  0.70926090415E+03  0.19200000000E+03 0.  0.
<mgrwt>
<rscale>  0 0.89687845E+03</rscale>
<asrwt>0</asrwt>
<pdfrwt beam="1">  1        2 0.16127934E+00 0.89687845E+03</pdfrwt>
<pdfrwt beam="2">  1       -2 0.25446753E-01 0.89687845E+03</pdfrwt>
<totfact> 0.32604317E+02</totfact>
</mgrwt>
</event>
<event>
 4    1  0.2892809E-005  0.7156504E+03  0.7818608E-02  0.9690836E-01
         -2   -1    0    0    0  501 -0.00000000000E+00  0.00000000000E+00  0.12172092600E+03  0.12172092603E+03  0.25500000000E-02 0. -1.
          2   -1    0    0  501    0  0.00000000000E+00 -0.00000000000E+00 -0.10519053077E+04  0.10519053077E+04  0.25500000000E-02 0.  1.
    5000001    1    1    2    0    0 -0.24171773519E+03  0.16394235038E+03 -0.59074150955E+03  0.68639936543E+03  0.19200000000E+03 0.  0.
   -5000001    1    1    2    0    0  0.24171773519E+03 -0.16394235038E+03 -0.33944287216E+03  0.48722686832E+03  0.19200000000E+03 0.  0.
<mgrwt>
<rscale>  0 0.71565044E+03</rscale>
<asrwt>0</asrwt>
<pdfrwt beam="1">  1        2 0.15027218E+00 0.71565044E+03</pdfrwt>
<pdfrwt beam="2">  1       -2 0.17388704E-01 0.71565044E+03</pdfrwt>
<totfact> 0.71376245E+02</totfact>
</mgrwt>
</event>
<event>
 4    1  0.2892809E-005  0.1078482E+04  0.7818608E-02  0.9226422E-01
          2   -1    0    0  501    0  0.00000000000E+00  0.00000000000E+00  0.38601153936E+03  0.38601153937E+03  0.25500000000E-02 0.  1.
         -2   -1    0    0    0  501 -0.00000000000E+00 -0.00000000000E+00 -0.75329563167E+03  0.75329563168E+03  0.25500000000E-02 0. -1.
    5000001    1    1    2    0    0 -0.28339162506E+03  0.24921732797E+03  0.16910144287E+03  0.45593792088E+03  0.19200000000E+03 0.  0.
   -5000001    1    1    2    0    0  0.28339162506E+03 -0.24921732797E+03 -0.53638553519E+03  0.68336925017E+03  0.19200000000E+03 0.  0.
<mgrwt>
<rscale>  0 0.10784819E+04</rscale>
<asrwt>0</asrwt>
<pdfrwt beam="1">  1        2 0.55144506E-01 0.10784819E+04</pdfrwt>
<pdfrwt beam="2">  1       -2 0.10761366E+00 0.10784819E+04</pdfrwt>
<totfact> 0.62032550E+01</totfact>
</mgrwt>
</event>
<event>
 4    1  0.2892809E-005  0.4446588E+03  0.7818608E-02  0.1029327E+00
         -2   -1    0    0    0  501 -0.00000000000E+00  0.00000000000E+00  0.62563745162E+02  0.62563745214E+02  0.25500000000E-02 0. -1.
          2   -1    0    0  501    0  0.00000000000E+00 -0.00000000000E+00 -0.79007979896E+03  0.79007979897E+03  0.25500000000E-02 0.  1.
    5000001    1    1    2    0    0  0.10710271477E+03 -0.33153468494E+01 -0.42690158470E+03  0.48019886095E+03  0.19200000000E+03 0.  0.
   -5000001    1    1    2    0    0 -0.10710271477E+03  0.33153468494E+01 -0.30061446910E+03  0.37244468323E+03  0.19200000000E+03 0.  0.
<mgrwt>
<rscale>  0 0.44465875E+03</rscale>
<asrwt>0</asrwt>
<pdfrwt beam="1">  1        2 0.11286854E+00 0.44465875E+03</pdfrwt>
<pdfrwt beam="2">  1       -2 0.89376784E-02 0.44465875E+03</pdfrwt>
<totfact> 0.31616235E+03</totfact>
</mgrwt>
</event>
<event>
 4    1  0.2892809E-005  0.5863969E+03  0.7818608E-02  0.9934037E-01
         -2   -1    0    0    0  501 -0.00000000000E+00  0.00000000000E+00  0.36860773140E+02  0.36860773228E+02  0.25500000000E-02 0. -1.
          2   -1    0    0  501    0  0.00000000000E+00 -0.00000000000E+00 -0.23321629850E+04  0.23321629850E+04  0.25500000000E-02 0.  1.
    5000001    1    1    2    0    0  0.10319666134E+03  0.19573662682E+03 -0.11000286874E+04  0.11383714205E+04  0.19200000000E+03 0.  0.
   -5000001    1    1    2    0    0 -0.10319666134E+03 -0.19573662682E+03 -0.11952735245E+04  0.12306523377E+04  0.19200000000E+03 0.  0.
<mgrwt>
<rscale>  0 0.58639690E+03</rscale>
<asrwt>0</asrwt>
<pdfrwt beam="1">  1        2 0.33316605E+00 0.58639690E+03</pdfrwt>
<pdfrwt beam="2">  1       -2 0.52658262E-02 0.58639690E+03</pdfrwt>
<totfact> 0.10680980E+03</totfact>
</mgrwt>
</event>
<event>
 4    1  0.2892809E-005  0.7481302E+03  0.7818608E-02  0.9638288E-01
          2   -1    0    0  501    0  0.00000000000E+00  0.00000000000E+00  0.56929085534E+03  0.56929085534E+03  0.25500000000E-02 0.  1.
         -2   -1    0    0    0  501 -0.00000000000E+00 -0.00000000000E+00 -0.24578770172E+03  0.24578770173E+03  0.25500000000E-02 0. -1.
    5000001    1    1    2    0    0  0.21120904787E+03  0.20256304090E+03  0.30554596112E+03  0.46461100051E+03  0.19200000000E+03 0.  0.
   -5000001    1    1    2    0    0 -0.21120904787E+03 -0.20256304090E+03  0.17957192498E+02  0.35046755656E+03  0.19200000000E+03 0.  0.
<mgrwt>
<rscale>  0 0.74813018E+03</rscale>
<asrwt>0</asrwt>
<pdfrwt beam="1">  1        2 0.81327265E-01 0.74813018E+03</pdfrwt>
<pdfrwt beam="2">  1       -2 0.35112529E-01 0.74813018E+03</pdfrwt>
<totfact> 0.44177877E+02</totfact>
</mgrwt>
</event>
<event>
 4    1  0.2892809E-005  0.6122377E+03  0.7818608E-02  0.9880337E-01
         -2   -1    0    0    0  501 -0.00000000000E+00  0.00000000000E+00  0.61923356737E+02  0.61923356789E+02  0.25500000000E-02 0. -1.
          2   -1    0    0  501    0  0.00000000000E+00 -0.00000000000E+00 -0.15133020719E+04  0.15133020719E+04  0.25500000000E-02 0.  1.
    5000001    1    1    2    0    0 -0.13523821533E+03  0.12145496093E+03 -0.11226506793E+04  0.11533643094E+04  0.19200000000E+03 0.  0.
   -5000001    1    1    2    0    0  0.13523821533E+03 -0.12145496093E+03 -0.32872803586E+03  0.42186111930E+03  0.19200000000E+03 0.  0.
<mgrwt>
<rscale>  0 0.61223768E+03</rscale>
<asrwt>0</asrwt>
<pdfrwt beam="1">  1        2 0.21618599E+00 0.61223768E+03</pdfrwt>
<pdfrwt beam="2">  1       -2 0.88461948E-02 0.61223768E+03</pdfrwt>
<totfact> 0.12215725E+03</totfact>
</mgrwt>
</event>
<event>
 4    1  0.2892809E-005  0.4956533E+03  0.7818608E-02  0.1014920E+00
         -2   -1    0    0    0  501 -0.00000000000E+00  0.00000000000E+00  0.92563623998E+02  0.92563624033E+02  0.25500000000E-02 0. -1.
          2   -1    0    0  501    0  0.00000000000E+00 -0.00000000000E+00 -0.66352257037E+03  0.66352257038E+03  0.25500000000E-02 0.  1.
    5000001    1    1    2    0    0 -0.74152964124E+02  0.13707623608E+03 -0.26062393238E+03  0.35927342055E+03  0.19200000000E+03 0.  0.
   -5000001    1    1    2    0    0  0.74152964124E+02 -0.13707623608E+03 -0.31033501400E+03  0.39681277386E+03  0.19200000000E+03 0.  0.
<mgrwt>
<rscale>  0 0.49565332E+03</rscale>
<asrwt>0</asrwt>
<pdfrwt beam="1">  1        2 0.94788936E-01 0.49565332E+03</pdfrwt>
<pdfrwt beam="2">  1       -2 0.13223375E-01 0.49565332E+03</pdfrwt>
<totfact> 0.20748702E+03</totfact>
</mgrwt>
</event>
<event>
 4    1  0.2892809E-005  0.5758666E+03  0.7818608E-02  0.9956780E-01
          2   -1    0    0  501    0  0.00000000000E+00  0.00000000000E+00  0.29850726764E+03  0.29850726765E+03  0.25500000000E-02 0.  1.
         -2   -1    0    0    0  501 -0.00000000000E+00 -0.00000000000E+00 -0.27773385027E+03  0.27773385028E+03  0.25500000000E-02 0. -1.
    5000001    1    1    2    0    0  0.15962472998E+03  0.11722882790E+03  0.93017172924E+02  0.29109937645E+03  0.19200000000E+03 0.  0.
   -5000001    1    1    2    0    0 -0.15962472998E+03 -0.11722882790E+03 -0.72243755553E+02  0.28514174147E+03  0.19200000000E+03 0.  0.
<mgrwt>
<rscale>  0 0.57586656E+03</rscale>
<asrwt>0</asrwt>
<pdfrwt beam="1">  1        2 0.42643895E-01 0.57586656E+03</pdfrwt>
<pdfrwt beam="2">  1       -2 0.39676264E-01 0.57586656E+03</pdfrwt>
<totfact> 0.72437532E+02</totfact>
</mgrwt>
</event>
<event>
 4    1  0.2892809E-005  0.5272324E+03  0.7818608E-02  0.1006906E+00
          2   -1    0    0  501    0  0.00000000000E+00  0.00000000000E+00  0.59404904386E+03  0.59404904387E+03  0.25500000000E-02 0.  1.
         -2   -1    0    0    0  501 -0.00000000000E+00 -0.00000000000E+00 -0.11698278652E+03  0.11698278655E+03  0.25500000000E-02 0. -1.
    5000001    1    1    2    0    0 -0.13572670591E+03 -0.93654528242E+02  0.33797075100E+03  0.42223351110E+03  0.19200000000E+03 0.  0.
   -5000001    1    1    2    0    0  0.13572670591E+03  0.93654528242E+02  0.13909550634E+03  0.28879831932E+03  0.19200000000E+03 0.  0.
<mgrwt>
<rscale>  0 0.52723244E+03</rscale>
<asrwt>0</asrwt>
<pdfrwt beam="1">  1        2 0.84864150E-01 0.52723244E+03</pdfrwt>
<pdfrwt beam="2">  1       -2 0.16711826E-01 0.52723244E+03</pdfrwt>
<totfact> 0.15973336E+03</totfact>
</mgrwt>
</event>
<event>
 4    1  0.2892809E-005  0.5850946E+03  0.7818608E-02  0.9936822E-01
         -2   -1    0    0    0  501 -0.00000000000E+00  0.00000000000E+00  0.26067232864E+02  0.26067232989E+02  0.25500000000E-02 0. -1.
          2   -1    0    0  501    0  0.00000000000E+00 -0.00000000000E+00 -0.32831994353E+04  0.32831994353E+04  0.25500000000E-02 0.  1.
    5000001    1    1    2    0    0  0.12337656395E+03 -0.13497623879E+03 -0.23277012482E+04  0.23427542471E+04  0.19200000000E+03 0.  0.
   -5000001    1    1    2    0    0 -0.12337656395E+03  0.13497623879E+03 -0.92943095429E+03  0.96651242122E+03  0.19200000000E+03 0.  0.
<mgrwt>
<rscale>  0 0.58509461E+03</rscale>
<asrwt>0</asrwt>
<pdfrwt beam="1">  1        2 0.46902823E+00 0.58509461E+03</pdfrwt>
<pdfrwt beam="2">  1       -2 0.37238925E-02 0.58509461E+03</pdfrwt>
<totfact> 0.56809634E+02</totfact>
</mgrwt>
</event>
<event>
 4    1  0.2892809E-005  0.1334236E+04  0.7818608E-02  0.9002847E-01
         -2   -1    0    0    0  501 -0.00000000000E+00  0.00000000000E+00  0.23500585744E+03  0.23500585745E+03  0.25500000000E-02 0. -1.
          2   -1    0    0  501    0  0.00000000000E+00 -0.00000000000E+00 -0.18937685720E+04  0.18937685720E+04  0.25500000000E-02 0.  1.
    5000001    1    1    2    0    0  0.29921036997E+03  0.54719078571E+03 -0.10506796204E+04  0.12368250750E+04  0.19200000000E+03 0.  0.
   -5000001    1    1    2    0    0 -0.29921036997E+03 -0.54719078571E+03 -0.60808309417E+03  0.89194935444E+03  0.19200000000E+03 0.  0.
<mgrwt>
<rscale>  0 0.13342364E+04</rscale>
<asrwt>0</asrwt>
<pdfrwt beam="1">  1        2 0.27053836E+00 0.13342364E+04</pdfrwt>
<pdfrwt beam="2">  1       -2 0.33572266E-01 0.13342364E+04</pdfrwt>
<totfact> 0.73863954E+01</totfact>
</mgrwt>
</event>
<event>
 4    1  0.2892809E-005  0.7097195E+03  0.7818608E-02  0.9700753E-01
         -2   -1    0    0    0  501 -0.00000000000E+00  0.00000000000E+00  0.13363366271E+03  0.13363366273E+03  0.25500000000E-02 0. -1.
          2   -1    0    0  501    0  0.00000000000E+00 -0.00000000000E+00 -0.94231829004E+03  0.94231829004E+03  0.25500000000E-02 0.  1.
    5000001    1    1    2    0    0 -0.15454275306E+03  0.24633992338E+03 -0.50597954539E+03  0.61436643848E+03  0.19200000000E+03 0.  0.
   -5000001    1    1    2    0    0  0.15454275306E+03 -0.24633992338E+03 -0.30270508193E+03  0.46158551429E+03  0.19200000000E+03 0.  0.
<mgrwt>
<rscale>  0 0.70971951E+03</rscale>
<asrwt>0</asrwt>
<pdfrwt beam="1">  1        2 0.13461689E+00 0.70971951E+03</pdfrwt>
<pdfrwt beam="2">  1       -2 0.19090524E-01 0.70971951E+03</pdfrwt>
<totfact> 0.70949737E+02</totfact>
</mgrwt>
</event>
<event>
 4    1  0.2892809E-005  0.8791194E+03  0.7818608E-02  0.9452066E-01
         -2   -1    0    0    0  501 -0.00000000000E+00  0.00000000000E+00  0.79750484470E+02  0.79750484511E+02  0.25500000000E-02 0. -1.
          2   -1    0    0  501    0  0.00000000000E+00 -0.00000000000E+00 -0.24227152187E+04  0.24227152187E+04  0.25500000000E-02 0.  1.
    5000001    1    1    2    0    0  0.28037660629E+03  0.16109867211E+03 -0.18192538341E+04  0.18577169689E+04  0.19200000000E+03 0.  0.
   -5000001    1    1    2    0    0 -0.28037660629E+03 -0.16109867211E+03 -0.52371090005E+03  0.64474873427E+03  0.19200000000E+03 0.  0.
<mgrwt>
<rscale>  0 0.87911936E+03</rscale>
<asrwt>0</asrwt>
<pdfrwt beam="1">  1        2 0.34610213E+00 0.87911936E+03</pdfrwt>
<pdfrwt beam="2">  1       -2 0.11392928E-01 0.87911936E+03</pdfrwt>
<totfact> 0.27367042E+02</totfact>
</mgrwt>
</event>
<event>
 4    1  0.2892809E-005  0.5291361E+03  0.7818608E-02  0.1006442E+00
         -2   -1    0    0    0  501 -0.00000000000E+00  0.00000000000E+00  0.19456596593E+03  0.19456596595E+03  0.25500000000E-02 0.  1.
          2   -1    0    0  501    0  0.00000000000E+00 -0.00000000000E+00 -0.35975585455E+03  0.35975585456E+03  0.25500000000E-02 0. -1.
    5000001    1    1    2    0    0 -0.17264897368E+03 -0.57606867029E+02 -0.85166601250E+02  0.27792727324E+03  0.19200000000E+03 0.  0.
   -5000001    1    1    2    0    0  0.17264897368E+03  0.57606867029E+02 -0.80023287368E+02  0.27639454727E+03  0.19200000000E+03 0.  0.
<mgrwt>
<rscale>  0 0.52913607E+03</rscale>
<asrwt>0</asrwt>
<pdfrwt beam="1">  1        2 0.51393693E-01 0.52913607E+03</pdfrwt>
<pdfrwt beam="2">  1       -2 0.27795138E-01 0.52913607E+03</pdfrwt>
<totfact> 0.11503108E+03</totfact>
</mgrwt>
</event>
<event>
 4    1  0.2892809E-005  0.8316758E+03  0.7818608E-02  0.9515267E-01
          2   -1    0    0  501    0  0.00000000000E+00  0.00000000000E+00  0.15267543876E+04  0.15267543876E+04  0.25500000000E-02 0.  1.
         -2   -1    0    0    0  501 -0.00000000000E+00 -0.00000000000E+00 -0.11326063165E+03  0.11326063168E+03  0.25500000000E-02 0. -1.
    5000001    1    1    2    0    0 -0.86257533342E+02  0.33003302363E+03  0.43000694720E+03  0.58149130121E+03  0.19200000000E+03 0.  0.
   -5000001    1    1    2    0    0  0.86257533342E+02 -0.33003302363E+03  0.98348680877E+03  0.10585237181E+04  0.19200000000E+03 0.  0.
<mgrwt>
<rscale>  0 0.83167582E+03</rscale>
<asrwt>0</asrwt>
<pdfrwt beam="1">  1        2 0.21810778E+00 0.83167582E+03</pdfrwt>
<pdfrwt beam="2">  1       -2 0.16180089E-01 0.83167582E+03</pdfrwt>
<totfact> 0.43839451E+02</totfact>
</mgrwt>
</event>
<event>
 4    1  0.2892809E-005  0.5214154E+03  0.7818608E-02  0.1008336E+00
         -2   -1    0    0    0  501 -0.00000000000E+00  0.00000000000E+00  0.38305547060E+02  0.38305547145E+02  0.25500000000E-02 0. -1.
          2   -1    0    0  501    0  0.00000000000E+00 -0.00000000000E+00 -0.17743777121E+04  0.17743777121E+04  0.25500000000E-02 0.  1.
    5000001    1    1    2    0    0  0.43956877630E+02 -0.10342833964E+03 -0.13405655269E+04  0.13589001289E+04  0.19200000000E+03 0.  0.
   -5000001    1    1    2    0    0 -0.43956877630E+02  0.10342833964E+03 -0.39550663813E+03  0.45378313029E+03  0.19200000000E+03 0.  0.
<mgrwt>
<rscale>  0 0.52141542E+03</rscale>
<asrwt>0</asrwt>
<pdfrwt beam="1">  1        2 0.25348248E+00 0.52141542E+03</pdfrwt>
<pdfrwt beam="2">  1       -2 0.54722221E-02 0.52141542E+03</pdfrwt>
<totfact> 0.19240739E+03</totfact>
</mgrwt>
</event>
<event>
 4    1  0.2892809E-005  0.5794382E+03  0.7818608E-02  0.9949008E-01
          2   -1    0    0  501    0  0.00000000000E+00  0.00000000000E+00  0.23103196601E+04  0.23103196601E+04  0.25500000000E-02 0.  1.
         -2   -1    0    0    0  501 -0.00000000000E+00 -0.00000000000E+00 -0.36331404621E+02  0.36331404711E+02  0.25500000000E-02 0. -1.
    5000001    1    1    2    0    0  0.12665885178E+03  0.59837243444E+02  0.46600708934E+03  0.52311525284E+03  0.19200000000E+03 0.  0.
   -5000001    1    1    2    0    0 -0.12665885178E+03 -0.59837243444E+02  0.18079811662E+04  0.18235358120E+04  0.19200000000E+03 0.  0.
<mgrwt>
<rscale>  0 0.57943821E+03</rscale>
<asrwt>0</asrwt>
<pdfrwt beam="1">  1        2 0.33004563E+00 0.57943821E+03</pdfrwt>
<pdfrwt beam="2">  1       -2 0.51902013E-02 0.57943821E+03</pdfrwt>
<totfact> 0.11210631E+03</totfact>
</mgrwt>
</event>
<event>
 4    1  0.2892809E-005  0.1283228E+04  0.7818608E-02  0.9042972E-01
          2   -1    0    0  501    0  0.00000000000E+00  0.00000000000E+00  0.22810688538E+04  0.22810688538E+04  0.25500000000E-02 0.  1.
         -2   -1    0    0    0  501 -0.00000000000E+00 -0.00000000000E+00 -0.18047184937E+03  0.18047184939E+03  0.25500000000E-02 0. -1.
    5000001    1    1    2    0    0 -0.48140348649E+03  0.19736583479E+03  0.43138081833E+03  0.70260657552E+03  0.19200000000E+03 0.  0.
   -5000001    1    1    2    0    0  0.48140348649E+03 -0.19736583479E+03  0.16692161861E+04  0.17589341276E+04  0.19200000000E+03 0.  0.
<mgrwt>
<rscale>  0 0.12832283E+04</rscale>
<asrwt>0</asrwt>
<pdfrwt beam="1">  1        2 0.32586698E+00 0.12832283E+04</pdfrwt>
<pdfrwt beam="2">  1       -2 0.25781693E-01 0.12832283E+04</pdfrwt>
<totfact> 0.76572992E+01</totfact>
</mgrwt>
</event>
<event>
 4    1  0.2892809E-005  0.7699101E+03  0.7818608E-02  0.9604622E-01
          2   -1    0    0  501    0  0.00000000000E+00  0.00000000000E+00  0.78755160041E+03  0.78755160041E+03  0.25500000000E-02 0.  1.
         -2   -1    0    0    0  501 -0.00000000000E+00 -0.00000000000E+00 -0.18816596049E+03  0.18816596051E+03  0.25500000000E-02 0. -1.
    5000001    1    1    2    0    0  0.32087275762E+03  0.83778562437E+02  0.34622634530E+03  0.51644443679E+03  0.19200000000E+03 0.  0.
   -5000001    1    1    2    0    0 -0.32087275762E+03 -0.83778562437E+02  0.25315929461E+03  0.45927312414E+03  0.19200000000E+03 0.  0.
<mgrwt>
<rscale>  0 0.76991013E+03</rscale>
<asrwt>0</asrwt>
<pdfrwt beam="1">  1        2 0.11250737E+00 0.76991013E+03</pdfrwt>
<pdfrwt beam="2">  1       -2 0.26880852E-01 0.76991013E+03</pdfrwt>
<totfact> 0.48862189E+02</totfact>
</mgrwt>
</event>
<event>
 4    1  0.2892809E-005  0.9154211E+03  0.7818608E-02  0.9406507E-01
          2   -1    0    0  501    0  0.00000000000E+00  0.00000000000E+00  0.27293031128E+03  0.27293031129E+03  0.25500000000E-02 0.  1.
         -2   -1    0    0    0  501 -0.00000000000E+00 -0.00000000000E+00 -0.76759128106E+03  0.76759128107E+03  0.25500000000E-02 0. -1.
    5000001    1    1    2    0    0 -0.31186606810E+03 -0.18198970853E+03 -0.48098021810E+03  0.63133720677E+03  0.19200000000E+03 0.  0.
   -5000001    1    1    2    0    0  0.31186606810E+03  0.18198970853E+03 -0.13680751682E+02  0.40918438559E+03  0.19200000000E+03 0.  0.
<mgrwt>
<rscale>  0 0.91542106E+03</rscale>
<asrwt>0</asrwt>
<pdfrwt beam="1">  1        2 0.38990045E-01 0.91542106E+03</pdfrwt>
<pdfrwt beam="2">  1       -2 0.10965590E+00 0.91542106E+03</pdfrwt>
<totfact> 0.87977470E+01</totfact>
</mgrwt>
</event>
<event>
 4    1  0.2892809E-005  0.4258505E+03  0.7818608E-02  0.1035179E+00
          2   -1    0    0  501    0  0.00000000000E+00  0.00000000000E+00  0.10294680690E+04  0.10294680690E+04  0.25500000000E-02 0.  1.
         -2   -1    0    0    0  501 -0.00000000000E+00 -0.00000000000E+00 -0.44039413141E+02  0.44039413215E+02  0.25500000000E-02 0. -1.
    5000001    1    1    2    0    0 -0.48383876515E+00 -0.75408329859E+02  0.35964471042E+03  0.41460218047E+03  0.19200000000E+03 0.  0.
   -5000001    1    1    2    0    0  0.48383876515E+00  0.75408329859E+02  0.62578394544E+03  0.65890530175E+03  0.19200000000E+03 0.  0.
<mgrwt>
<rscale>  0 0.42585054E+03</rscale>
<asrwt>0</asrwt>
<pdfrwt beam="1">  1        2 0.14706686E+00 0.42585054E+03</pdfrwt>
<pdfrwt beam="2">  1       -2 0.62913448E-02 0.42585054E+03</pdfrwt>
<totfact> 0.38689880E+03</totfact>
</mgrwt>
</event>
<event>
 4    1  0.2892809E-005  0.6146897E+03  0.7818608E-02  0.9875390E-01
         -2   -1    0    0    0  501 -0.00000000000E+00  0.00000000000E+00  0.13735073622E+03  0.13735073624E+03  0.25500000000E-02 0. -1.
          2   -1    0    0  501    0  0.00000000000E+00 -0.00000000000E+00 -0.68773471713E+03  0.68773471714E+03  0.25500000000E-02 0.  1.
    5000001    1    1    2    0    0  0.20623488187E+03  0.32658017426E+02 -0.43399844804E+03  0.51847663931E+03  0.19200000000E+03 0.  0.
   -5000001    1    1    2    0    0 -0.20623488187E+03 -0.32658017426E+02 -0.11638553287E+03  0.30660881407E+03  0.19200000000E+03 0.  0.
<mgrwt>
<rscale>  0 0.61468974E+03</rscale>
<asrwt>0</asrwt>
<pdfrwt beam="1">  1        2 0.98247815E-01 0.61468974E+03</pdfrwt>
<pdfrwt beam="2">  1       -2 0.19621534E-01 0.61468974E+03</pdfrwt>
<totfact> 0.10173597E+03</totfact>
</mgrwt>
</event>
<event>
 4    1  0.2892809E-005  0.5569553E+03  0.7818608E-02  0.9998967E-01
         -2   -1    0    0    0  501 -0.00000000000E+00  0.00000000000E+00  0.25119542741E+02  0.25119542870E+02  0.25500000000E-02 0. -1.
          2   -1    0    0  501    0  0.00000000000E+00 -0.00000000000E+00 -0.30872301508E+04  0.30872301508E+04  0.25500000000E-02 0.  1.
    5000001    1    1    2    0    0 -0.17069920277E+03 -0.10706500111E+03 -0.15824777095E+04  0.16067671995E+04  0.19200000000E+03 0.  0.
   -5000001    1    1    2    0    0  0.17069920277E+03  0.10706500111E+03 -0.14796328986E+04  0.15055824942E+04  0.19200000000E+03 0.  0.
<mgrwt>
<rscale>  0 0.55695533E+03</rscale>
<asrwt>0</asrwt>
<pdfrwt beam="1">  1        2 0.44103264E+00 0.55695533E+03</pdfrwt>
<pdfrwt beam="2">  1       -2 0.35885081E-02 0.55695533E+03</pdfrwt>
<totfact> 0.77612960E+02</totfact>
</mgrwt>
</event>
<event>
 4    1  0.2892809E-005  0.6446611E+03  0.7818608E-02  0.9816849E-01
         -2   -1    0    0    0  501 -0.00000000000E+00  0.00000000000E+00  0.13091430056E+03  0.13091430059E+03  0.25500000000E-02 0. -1.
          2   -1    0    0  501    0  0.00000000000E+00 -0.00000000000E+00 -0.79362597051E+03  0.79362597051E+03  0.25500000000E-02 0.  1.
    5000001    1    1    2    0    0 -0.87360192995E+02 -0.24283091861E+03 -0.30146730734E+03  0.44084600004E+03  0.19200000000E+03 0.  0.
   -5000001    1    1    2    0    0  0.87360192995E+02  0.24283091861E+03 -0.36124436260E+03  0.48369427106E+03  0.19200000000E+03 0.  0.
<mgrwt>
<rscale>  0 0.64466112E+03</rscale>
<asrwt>0</asrwt>
<pdfrwt beam="1">  1        2 0.11337514E+00 0.64466112E+03</pdfrwt>
<pdfrwt beam="2">  1       -2 0.18702043E-01 0.64466112E+03</pdfrwt>
<totfact> 0.92433016E+02</totfact>
</mgrwt>
</event>
<event>
 4    1  0.2892809E-005  0.8066635E+03  0.7818608E-02  0.9550422E-01
         -2   -1    0    0    0  501 -0.00000000000E+00  0.00000000000E+00  0.49709195117E+03  0.49709195118E+03  0.25500000000E-02 0. -1.
          2   -1    0    0  501    0  0.00000000000E+00 -0.00000000000E+00 -0.32725638820E+03  0.32725638821E+03  0.25500000000E-02 0.  1.
    5000001    1    1    2    0    0 -0.30939614177E+03  0.92243217580E+02  0.23503179801E+03  0.44310126360E+03  0.19200000000E+03 0.  0.
   -5000001    1    1    2    0    0  0.30939614177E+03 -0.92243217580E+02 -0.65196235039E+02  0.38124707579E+03  0.19200000000E+03 0.  0.
<mgrwt>
<rscale>  0 0.80666354E+03</rscale>
<asrwt>0</asrwt>
<pdfrwt beam="1">  1        2 0.46750913E-01 0.80666354E+03</pdfrwt>
<pdfrwt beam="2">  1       -2 0.71013136E-01 0.80666354E+03</pdfrwt>
<totfact> 0.19636932E+02</totfact>
</mgrwt>
</event>
<event>
 4    1  0.2892809E-005  0.7824541E+03  0.7818608E-02  0.9585767E-01
          2   -1    0    0  501    0  0.00000000000E+00  0.00000000000E+00  0.26704420882E+03  0.26704420883E+03  0.25500000000E-02 0.  1.
         -2   -1    0    0    0  501 -0.00000000000E+00 -0.00000000000E+00 -0.57315836378E+03  0.57315836379E+03  0.25500000000E-02 0. -1.
    5000001    1    1    2    0    0 -0.16384905091E+03  0.29498584652E+03 -0.10120822397E+03  0.40121099902E+03  0.19200000000E+03 0.  0.
   -5000001    1    1    2    0    0  0.16384905091E+03 -0.29498584652E+03 -0.20490593100E+03  0.43899157360E+03  0.19200000000E+03 0.  0.
<mgrwt>
<rscale>  0 0.78245414E+03</rscale>
<asrwt>0</asrwt>
<pdfrwt beam="1">  1        2 0.38149173E-01 0.78245414E+03</pdfrwt>
<pdfrwt beam="2">  1       -2 0.81879766E-01 0.78245414E+03</pdfrwt>
<totfact> 0.17952060E+02</totfact>
</mgrwt>
</event>
<event>
 4    1  0.2892809E-005  0.7557472E+03  0.7818608E-02  0.9626377E-01
          2   -1    0    0  501    0  0.00000000000E+00  0.00000000000E+00  0.69403827938E+03  0.69403827938E+03  0.25500000000E-02 0. -1.
         -2   -1    0    0    0  501 -0.00000000000E+00 -0.00000000000E+00 -0.20573569012E+03  0.20573569014E+03  0.25500000000E-02 0.  1.
    5000001    1    1    2    0    0 -0.40143638707E+02  0.32297329960E+03  0.24285777793E+03  0.44918500007E+03  0.19200000000E+03 0.  0.
   -5000001    1    1    2    0    0  0.40143638707E+02 -0.32297329960E+03  0.24544481133E+03  0.45058896945E+03  0.19200000000E+03 0.  0.
<mgrwt>
<rscale>  0 0.75574717E+03</rscale>
<asrwt>0</asrwt>
<pdfrwt beam="1">  1        2 0.99148327E-01 0.75574717E+03</pdfrwt>
<pdfrwt beam="2">  1       -2 0.29390812E-01 0.75574717E+03</pdfrwt>
<totfact> 0.48624217E+02</totfact>
</mgrwt>
</event>
<event>
 4    1  0.2892809E-005  0.7017984E+03  0.7818608E-02  0.9714162E-01
          2   -1    0    0  501    0  0.00000000000E+00  0.00000000000E+00  0.75430812243E+02  0.75430812286E+02  0.25500000000E-02 0.  1.
         -2   -1    0    0    0  501 -0.00000000000E+00 -0.00000000000E+00 -0.16323602708E+04  0.16323602708E+04  0.25500000000E-02 0. -1.
    5000001    1    1    2    0    0 -0.11095496010E+03  0.27158516526E+03 -0.81259866122E+03  0.88501417468E+03  0.19200000000E+03 0.  0.
   -5000001    1    1    2    0    0  0.11095496010E+03 -0.27158516526E+03 -0.74433079738E+03  0.82277690845E+03  0.19200000000E+03 0.  0.
<mgrwt>
<rscale>  0 0.70179844E+03</rscale>
<asrwt>0</asrwt>
<pdfrwt beam="1">  1        2 0.10775831E-01 0.70179844E+03</pdfrwt>
<pdfrwt beam="2">  1       -2 0.23319430E+00 0.70179844E+03</pdfrwt>
<totfact> 0.50733799E+01</totfact>
</mgrwt>
</event>
<event>
 4    1  0.2892809E-005  0.7027778E+03  0.7818608E-02  0.9712494E-01
          2   -1    0    0  501    0  0.00000000000E+00  0.00000000000E+00  0.97700736033E+03  0.97700736033E+03  0.25500000000E-02 0.  1.
         -2   -1    0    0    0  501 -0.00000000000E+00 -0.00000000000E+00 -0.12637995414E+03  0.12637995416E+03  0.25500000000E-02 0. -1.
    5000001    1    1    2    0    0  0.23068192354E+03 -0.72260823256E+02  0.68884795887E+03  0.75485845485E+03  0.19200000000E+03 0.  0.
   -5000001    1    1    2    0    0 -0.23068192354E+03  0.72260823256E+02  0.16177944732E+03  0.34852885964E+03  0.19200000000E+03 0.  0.
<mgrwt>
<rscale>  0 0.70277776E+03</rscale>
<asrwt>0</asrwt>
<pdfrwt beam="1">  1        2 0.13957248E+00 0.70277776E+03</pdfrwt>
<pdfrwt beam="2">  1       -2 0.18054279E-01 0.70277776E+03</pdfrwt>
<totfact> 0.74346141E+02</totfact>
</mgrwt>
</event>
<event>
 4    1  0.2892809E-005  0.8297564E+03  0.7818608E-02  0.9517917E-01
         -2   -1    0    0    0  501 -0.00000000000E+00  0.00000000000E+00  0.11726837518E+03  0.11726837521E+03  0.25500000000E-02 0. -1.
          2   -1    0    0  501    0  0.00000000000E+00 -0.00000000000E+00 -0.14677776503E+04  0.14677776503E+04  0.25500000000E-02 0.  1.
    5000001    1    1    2    0    0 -0.10258939864E+03  0.21219492050E+03 -0.13593781359E+03  0.33300804519E+03  0.19200000000E+03 0.  0.
   -5000001    1    1    2    0    0  0.10258939864E+03 -0.21219492050E+03 -0.12145714616E+04  0.12520379804E+04  0.19200000000E+03 0.  0.
<mgrwt>
<rscale>  0 0.82975635E+03</rscale>
<asrwt>0</asrwt>
<pdfrwt beam="1">  1        2 0.20968251E+00 0.82975635E+03</pdfrwt>
<pdfrwt beam="2">  1       -2 0.16752626E-01 0.82975635E+03</pdfrwt>
<totfact> 0.44378494E+02</totfact>
</mgrwt>
</event>
<event>
 4    1  0.2892809E-005  0.5913008E+03  0.7818608E-02  0.9923620E-01
         -2   -1    0    0    0  501 -0.00000000000E+00  0.00000000000E+00  0.54775770235E+02  0.54775770294E+02  0.25500000000E-02 0. -1.
          2   -1    0    0  501    0  0.00000000000E+00 -0.00000000000E+00 -0.15957629932E+04  0.15957629932E+04  0.25500000000E-02 0.  1.
    5000001    1    1    2    0    0  0.17864398339E+03 -0.27197823154E+02 -0.11438673214E+04  0.11738610835E+04  0.19200000000E+03 0.  0.
   -5000001    1    1    2    0    0 -0.17864398339E+03  0.27197823154E+02 -0.39711990154E+03  0.47667767997E+03  0.19200000000E+03 0.  0.
<mgrwt>
<rscale>  0 0.59130076E+03</rscale>
<asrwt>0</asrwt>
<pdfrwt beam="1">  1        2 0.22796611E+00 0.59130076E+03</pdfrwt>
<pdfrwt beam="2">  1       -2 0.78251110E-02 0.59130076E+03</pdfrwt>
<totfact> 0.13482199E+03</totfact>
</mgrwt>
</event>
<event>
 4    1  0.2892809E-005  0.4100531E+03  0.7818608E-02  0.1040353E+00
          2   -1    0    0  501    0  0.00000000000E+00  0.00000000000E+00  0.34071897767E+03  0.34071897768E+03  0.25500000000E-02 0.  1.
         -2   -1    0    0    0  501 -0.00000000000E+00 -0.00000000000E+00 -0.12337405439E+03  0.12337405441E+03  0.25500000000E-02 0. -1.
    5000001    1    1    2    0    0  0.54030508230E+02 -0.45223934377E+02  0.12497105462E+03  0.23967950382E+03  0.19200000000E+03 0.  0.
   -5000001    1    1    2    0    0 -0.54030508230E+02  0.45223934377E+02  0.92373868666E+02  0.22441352827E+03  0.19200000000E+03 0.  0.
<mgrwt>
<rscale>  0 0.41005308E+03</rscale>
<asrwt>0</asrwt>
<pdfrwt beam="1">  1        2 0.48674140E-01 0.41005308E+03</pdfrwt>
<pdfrwt beam="2">  1       -2 0.17624865E-01 0.41005308E+03</pdfrwt>
<totfact> 0.27130813E+03</totfact>
</mgrwt>
</event>
<event>
 4    1  0.2892809E-005  0.1003359E+04  0.7818608E-02  0.9304868E-01
          2   -1    0    0  501    0  0.00000000000E+00  0.00000000000E+00  0.25304630781E+04  0.25304630781E+04  0.25500000000E-02 0.  1.
         -2   -1    0    0    0  501 -0.00000000000E+00 -0.00000000000E+00 -0.99461072061E+02  0.99461072093E+02  0.25500000000E-02 0. -1.
    5000001    1    1    2    0    0 -0.43732660531E+03  0.21326615262E+02  0.81704627495E+03  0.94664565685E+03  0.19200000000E+03 0.  0.
   -5000001    1    1    2    0    0  0.43732660531E+03 -0.21326615262E+02  0.16139557310E+04  0.16832784933E+04  0.19200000000E+03 0.  0.
<mgrwt>
<rscale>  0 0.10033595E+04</rscale>
<asrwt>0</asrwt>
<pdfrwt beam="1">  1        2 0.36149474E+00 0.10033595E+04</pdfrwt>
<pdfrwt beam="2">  1       -2 0.14208724E-01 0.10033595E+04</pdfrwt>
<totfact> 0.16480587E+02</totfact>
</mgrwt>
</event>
<event>
 4    1  0.2892809E-005  0.1071536E+04  0.7818608E-02  0.9233388E-01
          2   -1    0    0  501    0  0.00000000000E+00  0.00000000000E+00  0.90502014161E+03  0.90502014161E+03  0.25500000000E-02 0.  1.
         -2   -1    0    0    0  501 -0.00000000000E+00 -0.00000000000E+00 -0.31717212642E+03  0.31717212643E+03  0.25500000000E-02 0. -1.
    5000001    1    1    2    0    0  0.21901325802E+03  0.44160431275E+02  0.80435466203E+03  0.85660222578E+03  0.19200000000E+03 0.  0.
   -5000001    1    1    2    0    0 -0.21901325802E+03 -0.44160431275E+02 -0.21650664684E+03  0.36559004227E+03  0.19200000000E+03 0.  0.
<mgrwt>
<rscale>  0 0.10715357E+04</rscale>
<asrwt>0</asrwt>
<pdfrwt beam="1">  1        2 0.12928859E+00 0.10715357E+04</pdfrwt>
<pdfrwt beam="2">  1       -2 0.45310304E-01 0.10715357E+04</pdfrwt>
<totfact> 0.14815016E+02</totfact>
</mgrwt>
</event>
<event>
 4    1  0.2892809E-005  0.5803020E+03  0.7818608E-02  0.9947137E-01
         -2   -1    0    0    0  501 -0.00000000000E+00  0.00000000000E+00  0.26308780274E+03  0.26308780275E+03  0.25500000000E-02 0. -1.
          2   -1    0    0  501    0  0.00000000000E+00 -0.00000000000E+00 -0.31999812138E+03  0.31999812139E+03  0.25500000000E-02 0.  1.
    5000001    1    1    2    0    0  0.16225860418E+03  0.82291224614E+02  0.91380997287E+02  0.27984672045E+03  0.19200000000E+03 0.  0.
   -5000001    1    1    2    0    0 -0.16225860418E+03 -0.82291224614E+02 -0.14829131593E+03  0.30323920370E+03  0.19200000000E+03 0.  0.
<mgrwt>
<rscale>  0 0.58030200E+03</rscale>
<asrwt>0</asrwt>
<pdfrwt beam="1">  1        2 0.45714017E-01 0.58030200E+03</pdfrwt>
<pdfrwt beam="2">  1       -2 0.37583972E-01 0.58030200E+03</pdfrwt>
<totfact> 0.74474013E+02</totfact>
</mgrwt>
</event>
<event>
 4    1  0.2892809E-005  0.1939414E+04  0.7818608E-02  0.8635482E-01
          2   -1    0    0  501    0  0.00000000000E+00  0.00000000000E+00  0.76181034537E+03  0.76181034537E+03  0.25500000000E-02 0.  1.
         -2   -1    0    0    0  501 -0.00000000000E+00 -0.00000000000E+00 -0.12343384744E+04  0.12343384744E+04  0.25500000000E-02 0. -1.
    5000001    1    1    2    0    0 -0.92315561382E+03  0.59640263250E+02 -0.11484498389E+02  0.94486461571E+03  0.19200000000E+03 0.  0.
   -5000001    1    1    2    0    0  0.92315561382E+03 -0.59640263250E+02 -0.46104363061E+03  0.10512842040E+04  0.19200000000E+03 0.  0.
<mgrwt>
<rscale>  0 0.19394142E+04</rscale>
<asrwt>0</asrwt>
<pdfrwt beam="1">  1        2 0.10883005E+00 0.19394142E+04</pdfrwt>
<pdfrwt beam="2">  1       -2 0.17633407E+00 0.19394142E+04</pdfrwt>
<totfact> 0.72875293E+00</totfact>
</mgrwt>
</event>
<event>
 4    1  0.2892809E-005  0.7126245E+03  0.7818608E-02  0.9695883E-01
         -2   -1    0    0    0  501 -0.00000000000E+00  0.00000000000E+00  0.50180474417E+02  0.50180474481E+02  0.25500000000E-02 0. -1.
          2   -1    0    0  501    0  0.00000000000E+00 -0.00000000000E+00 -0.25300363365E+04  0.25300363365E+04  0.25500000000E-02 0.  1.
    5000001    1    1    2    0    0  0.27859265057E+03  0.72540272099E+02 -0.15475503289E+04  0.15857654229E+04  0.19200000000E+03 0.  0.
   -5000001    1    1    2    0    0 -0.27859265057E+03 -0.72540272099E+02 -0.93230553314E+03  0.99445138803E+03  0.19200000000E+03 0.  0.
<mgrwt>
<rscale>  0 0.71262451E+03</rscale>
<asrwt>0</asrwt>
<pdfrwt beam="1">  1        2 0.36143368E+00 0.71262451E+03</pdfrwt>
<pdfrwt beam="2">  1       -2 0.71686408E-02 0.71262451E+03</pdfrwt>
<totfact> 0.51627451E+02</totfact>
</mgrwt>
</event>
<event>
 4    1  0.2892809E-005  0.8041469E+03  0.7818608E-02  0.9554034E-01
         -2   -1    0    0    0  501 -0.00000000000E+00  0.00000000000E+00  0.84457237376E+02  0.84457237414E+02  0.25500000000E-02 0. -1.
          2   -1    0    0  501    0  0.00000000000E+00 -0.00000000000E+00 -0.19141409507E+04  0.19141409507E+04  0.25500000000E-02 0.  1.
    5000001    1    1    2    0    0 -0.28096495432E+03  0.49931949199E+02 -0.39728563875E+03  0.52548490356E+03  0.19200000000E+03 0.  0.
   -5000001    1    1    2    0    0  0.28096495432E+03 -0.49931949199E+02 -0.14323980746E+04  0.14731132846E+04  0.19200000000E+03 0.  0.
<mgrwt>
<rscale>  0 0.80414689E+03</rscale>
<asrwt>0</asrwt>
<pdfrwt beam="1">  1        2 0.27344868E+00 0.80414689E+03</pdfrwt>
<pdfrwt beam="2">  1       -2 0.12065321E-01 0.80414689E+03</pdfrwt>
<totfact> 0.45459142E+02</totfact>
</mgrwt>
</event>
<event>
 4    1  0.2892809E-005  0.4248575E+03  0.7818608E-02  0.1035497E+00
          2   -1    0    0  501    0  0.00000000000E+00  0.00000000000E+00  0.45930786944E+03  0.45930786945E+03  0.25500000000E-02 0.  1.
         -2   -1    0    0    0  501 -0.00000000000E+00 -0.00000000000E+00 -0.98247771097E+02  0.98247771130E+02  0.25500000000E-02 0. -1.
    5000001    1    1    2    0    0  0.24888834555E+02 -0.83802985665E+02  0.14786422684E+03  0.25762419155E+03  0.19200000000E+03 0.  0.
   -5000001    1    1    2    0    0 -0.24888834555E+02  0.83802985665E+02  0.21319587150E+03  0.29993144903E+03  0.19200000000E+03 0.  0.
<mgrwt>
<rscale>  0 0.42485750E+03</rscale>
<asrwt>0</asrwt>
<pdfrwt beam="1">  1        2 0.65615411E-01 0.42485750E+03</pdfrwt>
<pdfrwt beam="2">  1       -2 0.14035396E-01 0.42485750E+03</pdfrwt>
<totfact> 0.28646911E+03</totfact>
</mgrwt>
</event>
<event>
 4    1  0.2892809E-005  0.9331567E+03  0.7818608E-02  0.9385057E-01
         -2   -1    0    0    0  501 -0.00000000000E+00  0.00000000000E+00  0.14642659521E+04  0.14642659521E+04  0.25500000000E-02 0. -1.
          2   -1    0    0  501    0  0.00000000000E+00 -0.00000000000E+00 -0.14867199199E+03  0.14867199201E+03  0.25500000000E-02 0.  1.
    5000001    1    1    2    0    0  0.40189735981E+03 -0.31636201722E+02  0.89167822639E+03  0.99723437390E+03  0.19200000000E+03 0.  0.
   -5000001    1    1    2    0    0 -0.40189735981E+03  0.31636201722E+02  0.42391573372E+03  0.61570357022E+03  0.19200000000E+03 0.  0.
<mgrwt>
<rscale>  0 0.93315666E+03</rscale>
<asrwt>0</asrwt>
<pdfrwt beam="1">  1        2 0.21238857E-01 0.93315666E+03</pdfrwt>
<pdfrwt beam="2">  1       -2 0.20918084E+00 0.93315666E+03</pdfrwt>
<totfact> 0.30899768E+01</totfact>
</mgrwt>
</event>
<event>
 4    1  0.2892809E-005  0.6477039E+03  0.7818608E-02  0.9811097E-01
         -2   -1    0    0    0  501 -0.00000000000E+00  0.00000000000E+00  0.15117514146E+03  0.15117514148E+03  0.25500000000E-02 0. -1.
          2   -1    0    0  501    0  0.00000000000E+00 -0.00000000000E+00 -0.69376549413E+03  0.69376549414E+03  0.25500000000E-02 0.  1.
    5000001    1    1    2    0    0  0.15517067986E+03 -0.27051171930E+02 -0.13640509644E+00  0.24834195054E+03  0.19200000000E+03 0.  0.
   -5000001    1    1    2    0    0 -0.15517067986E+03  0.27051171930E+02 -0.54245394758E+03  0.59659868508E+03  0.19200000000E+03 0.  0.
<mgrwt>
<rscale>  0 0.64770393E+03</rscale>
<asrwt>0</asrwt>
<pdfrwt beam="1">  1        2 0.99109355E-01 0.64770393E+03</pdfrwt>
<pdfrwt beam="2">  1       -2 0.21596449E-01 0.64770393E+03</pdfrwt>
<totfact> 0.85051938E+02</totfact>
</mgrwt>
</event>
<event>
 4    1  0.2892809E-005  0.5051443E+03  0.7818608E-02  0.1012445E+00
          2   -1    0    0  501    0  0.00000000000E+00  0.00000000000E+00  0.23155411601E+03  0.23155411602E+03  0.25500000000E-02 0.  1.
         -2   -1    0    0    0  501 -0.00000000000E+00 -0.00000000000E+00 -0.27549796121E+03  0.27549796122E+03  0.25500000000E-02 0. -1.
    5000001    1    1    2    0    0  0.18874216775E+02 -0.15647953705E+03  0.23879971043E+02  0.24955226826E+03  0.19200000000E+03 0.  0.
   -5000001    1    1    2    0    0 -0.18874216775E+02  0.15647953705E+03 -0.67823816243E+02  0.25749980898E+03  0.19200000000E+03 0.  0.
<mgrwt>
<rscale>  0 0.50514428E+03</rscale>
<asrwt>0</asrwt>
<pdfrwt beam="1">  1        2 0.33079160E-01 0.50514428E+03</pdfrwt>
<pdfrwt beam="2">  1       -2 0.39356851E-01 0.50514428E+03</pdfrwt>
<totfact> 0.97475418E+02</totfact>
</mgrwt>
</event>
<event>
 4    1  0.2892809E-005  0.9814975E+03  0.7818608E-02  0.9329074E-01
          2   -1    0    0  501    0  0.00000000000E+00  0.00000000000E+00  0.64098514893E+03  0.64098514893E+03  0.25500000000E-02 0.  1.
         -2   -1    0    0    0  501 -0.00000000000E+00 -0.00000000000E+00 -0.37572531002E+03  0.37572531003E+03  0.25500000000E-02 0. -1.
    5000001    1    1    2    0    0 -0.15059041184E+03 -0.36242656596E+03  0.36411964966E+03  0.56875091834E+03  0.19200000000E+03 0.  0.
   -5000001    1    1    2    0    0  0.15059041184E+03  0.36242656596E+03 -0.98859810748E+02  0.44795954062E+03  0.19200000000E+03 0.  0.
<mgrwt>
<rscale>  0 0.98149752E+03</rscale>
<asrwt>0</asrwt>
<pdfrwt beam="1">  1        2 0.91569307E-01 0.98149752E+03</pdfrwt>
<pdfrwt beam="2">  1       -2 0.53675044E-01 0.98149752E+03</pdfrwt>
<totfact> 0.16384684E+02</totfact>
</mgrwt>
</event>
<event>
 4    1  0.2892809E-005  0.5388782E+03  0.7818608E-02  0.1004101E+00
          2   -1    0    0  501    0  0.00000000000E+00  0.00000000000E+00  0.80667393563E+03  0.80667393563E+03  0.25500000000E-02 0.  1.
         -2   -1    0    0    0  501 -0.00000000000E+00 -0.00000000000E+00 -0.89996011075E+02  0.89996011111E+02  0.25500000000E-02 0. -1.
    5000001    1    1    2    0    0 -0.66398398802E+02 -0.16104583852E+03  0.23618905947E+03  0.35070469241E+03  0.19200000000E+03 0.  0.
   -5000001    1    1    2    0    0  0.66398398802E+02  0.16104583852E+03  0.48048886508E+03  0.54596525433E+03  0.19200000000E+03 0.  0.
<mgrwt>
<rscale>  0 0.53887823E+03</rscale>
<asrwt>0</asrwt>
<pdfrwt beam="1">  1        2 0.11523913E+00 0.53887823E+03</pdfrwt>
<pdfrwt beam="2">  1       -2 0.12856573E-01 0.53887823E+03</pdfrwt>
<totfact> 0.17078367E+03</totfact>
</mgrwt>
</event>
<event>
 4    1  0.2892809E-005  0.9602787E+03  0.7818608E-02  0.9353216E-01
          2   -1    0    0  501    0  0.00000000000E+00  0.00000000000E+00  0.87455839755E+03  0.87455839756E+03  0.25500000000E-02 0.  1.
         -2   -1    0    0    0  501 -0.00000000000E+00 -0.00000000000E+00 -0.26360025115E+03  0.26360025116E+03  0.25500000000E-02 0. -1.
    5000001    1    1    2    0    0 -0.31680283022E+02  0.38198894457E+03  0.49208244294E+02  0.43151436293E+03  0.19200000000E+03 0.  0.
   -5000001    1    1    2    0    0  0.31680283022E+02 -0.38198894457E+03  0.56174990211E+03  0.70664428578E+03  0.19200000000E+03 0.  0.
<mgrwt>
<rscale>  0 0.96027874E+03</rscale>
<asrwt>0</asrwt>
<pdfrwt beam="1">  1        2 0.12493691E+00 0.96027874E+03</pdfrwt>
<pdfrwt beam="2">  1       -2 0.37657179E-01 0.96027874E+03</pdfrwt>
<totfact> 0.22450490E+02</totfact>
</mgrwt>
</event>
<event>
 4    1  0.2892809E-005  0.5158065E+03  0.7818608E-02  0.1009734E+00
          2   -1    0    0  501    0  0.00000000000E+00  0.00000000000E+00  0.26384450580E+03  0.26384450581E+03  0.25500000000E-02 0.  1.
         -2   -1    0    0    0  501 -0.00000000000E+00 -0.00000000000E+00 -0.25209573343E+03  0.25209573345E+03  0.25500000000E-02 0. -1.
    5000001    1    1    2    0    0 -0.54622906731E+02  0.16322254761E+03  0.89190754134E+00  0.25785666074E+03  0.19200000000E+03 0.  0.
   -5000001    1    1    2    0    0  0.54622906731E+02 -0.16322254761E+03  0.10856864825E+02  0.25808357852E+03  0.19200000000E+03 0.  0.
<mgrwt>
<rscale>  0 0.51580645E+03</rscale>
<asrwt>0</asrwt>
<pdfrwt beam="1">  1        2 0.37692072E-01 0.51580645E+03</pdfrwt>
<pdfrwt beam="2">  1       -2 0.36013676E-01 0.51580645E+03</pdfrwt>
<totfact> 0.99975697E+02</totfact>
</mgrwt>
</event>
<event>
 4    1  0.2892809E-005  0.5005951E+03  0.7818608E-02  0.1013624E+00
         -2   -1    0    0    0  501 -0.00000000000E+00  0.00000000000E+00  0.12282480480E+04  0.12282480480E+04  0.25500000000E-02 0. -1.
          2   -1    0    0  501    0  0.00000000000E+00 -0.00000000000E+00 -0.51006693633E+02  0.51006693697E+02  0.25500000000E-02 0.  1.
    5000001    1    1    2    0    0 -0.15756332717E+03  0.10328883609E+02  0.66321162728E+03  0.70827011124E+03  0.19200000000E+03 0.  0.
   -5000001    1    1    2    0    0  0.15756332717E+03 -0.10328883609E+02  0.51402972712E+03  0.57098463050E+03  0.19200000000E+03 0.  0.
<mgrwt>
<rscale>  0 0.50059513E+03</rscale>
<asrwt>0</asrwt>
<pdfrwt beam="1">  1        2 0.72866697E-02 0.50059513E+03</pdfrwt>
<pdfrwt beam="2">  1       -2 0.17546403E+00 0.50059513E+03</pdfrwt>
<totfact> 0.19953285E+02</totfact>
</mgrwt>
</event>
<event>
 4    1  0.2892809E-005  0.6098551E+03  0.7818608E-02  0.9885168E-01
          2   -1    0    0  501    0  0.00000000000E+00  0.00000000000E+00  0.59263989337E+02  0.59263989392E+02  0.25500000000E-02 0. -1.
         -2   -1    0    0    0  501 -0.00000000000E+00 -0.00000000000E+00 -0.15689258924E+04  0.15689258924E+04  0.25500000000E-02 0.  1.
    5000001    1    1    2    0    0 -0.18141434268E+03 -0.61154890738E+02 -0.38234176549E+03  0.46872199653E+03  0.19200000000E+03 0.  0.
   -5000001    1    1    2    0    0  0.18141434268E+03  0.61154890738E+02 -0.11273201375E+04  0.11594678852E+04  0.19200000000E+03 0.  0.
<mgrwt>
<rscale>  0 0.60985509E+03</rscale>
<asrwt>0</asrwt>
<pdfrwt beam="1">  1        2 0.84662851E-02 0.60985509E+03</pdfrwt>
<pdfrwt beam="2">  1       -2 0.22413225E+00 0.60985509E+03</pdfrwt>
<totfact> 0.79002191E+01</totfact>
</mgrwt>
</event>
<event>
 4    1  0.2892809E-005  0.4465420E+03  0.7818608E-02  0.1028758E+00
         -2   -1    0    0    0  501 -0.00000000000E+00  0.00000000000E+00  0.34957993679E+02  0.34957993772E+02  0.25500000000E-02 0. -1.
          2   -1    0    0  501    0  0.00000000000E+00 -0.00000000000E+00 -0.14259956926E+04  0.14259956927E+04  0.25500000000E-02 0.  1.
    5000001    1    1    2    0    0 -0.65109010515E+02  0.93428538924E+02 -0.68168710369E+03  0.71730703501E+03  0.19200000000E+03 0.  0.
   -5000001    1    1    2    0    0  0.65109010515E+02 -0.93428538924E+02 -0.70935059528E+03  0.74364665141E+03  0.19200000000E+03 0.  0.
<mgrwt>
<rscale>  0 0.44654204E+03</rscale>
<asrwt>0</asrwt>
<pdfrwt beam="1">  1        2 0.20371363E+00 0.44654204E+03</pdfrwt>
<pdfrwt beam="2">  1       -2 0.49940000E-02 0.44654204E+03</pdfrwt>
<totfact> 0.33440090E+03</totfact>
</mgrwt>
</event>
<event>
 4    1  0.2892809E-005  0.7309922E+03  0.7818608E-02  0.9665652E-01
          2   -1    0    0  501    0  0.00000000000E+00  0.00000000000E+00  0.19885172414E+03  0.19885172415E+03  0.25500000000E-02 0.  1.
         -2   -1    0    0    0  501 -0.00000000000E+00 -0.00000000000E+00 -0.67179394260E+03  0.67179394261E+03  0.25500000000E-02 0. -1.
    5000001    1    1    2    0    0 -0.44732112084E+02 -0.22165727261E+03 -0.49078248390E+03  0.57346696056E+03  0.19200000000E+03 0.  0.
   -5000001    1    1    2    0    0  0.44732112084E+02  0.22165727261E+03  0.17840265430E+02  0.29717870621E+03  0.19200000000E+03 0.  0.
<mgrwt>
<rscale>  0 0.73099216E+03</rscale>
<asrwt>0</asrwt>
<pdfrwt beam="1">  1        2 0.28407389E-01 0.73099216E+03</pdfrwt>
<pdfrwt beam="2">  1       -2 0.95970562E-01 0.73099216E+03</pdfrwt>
<totfact> 0.17390305E+02</totfact>
</mgrwt>
</event>
<event>
 4    1  0.2892809E-005  0.1274816E+04  0.7818608E-02  0.9049778E-01
         -2   -1    0    0    0  501 -0.00000000000E+00  0.00000000000E+00  0.19718206785E+03  0.19718206787E+03  0.25500000000E-02 0.  1.
          2   -1    0    0  501    0  0.00000000000E+00 -0.00000000000E+00 -0.20604776822E+04  0.20604776822E+04  0.25500000000E-02 0. -1.
    5000001    1    1    2    0    0 -0.56631961174E+03  0.20460200077E+02 -0.13208127498E+04  0.14500161524E+04  0.19200000000E+03 0.  0.
   -5000001    1    1    2    0    0  0.56631961174E+03 -0.20460200077E+02 -0.54248286462E+03  0.80764359765E+03  0.19200000000E+03 0.  0.
<mgrwt>
<rscale>  0 0.12748165E+04</rscale>
<asrwt>0</asrwt>
<pdfrwt beam="1">  1        2 0.29435394E+00 0.12748165E+04</pdfrwt>
<pdfrwt beam="2">  1       -2 0.28168868E-01 0.12748165E+04</pdfrwt>
<totfact> 0.84591267E+01</totfact>
</mgrwt>
</event>
<event>
 4    1  0.2892809E-005  0.7960099E+03  0.7818608E-02  0.9565811E-01
         -2   -1    0    0    0  501 -0.00000000000E+00  0.00000000000E+00  0.68110920459E+03  0.68110920459E+03  0.25500000000E-02 0. -1.
          2   -1    0    0  501    0  0.00000000000E+00 -0.00000000000E+00 -0.23257349594E+03  0.23257349595E+03  0.25500000000E-02 0.  1.
    5000001    1    1    2    0    0  0.25370607923E+03 -0.17997468145E+03  0.43557653258E+02  0.36812895805E+03  0.19200000000E+03 0.  0.
   -5000001    1    1    2    0    0 -0.25370607923E+03  0.17997468145E+03  0.40497805539E+03  0.54555374249E+03  0.19200000000E+03 0.  0.
<mgrwt>
<rscale>  0 0.79600992E+03</rscale>
<asrwt>0</asrwt>
<pdfrwt beam="1">  1        2 0.33224785E-01 0.79600992E+03</pdfrwt>
<pdfrwt beam="2">  1       -2 0.97301316E-01 0.79600992E+03</pdfrwt>
<totfact> 0.14076266E+02</totfact>
</mgrwt>
</event>
<event>
 4    1  0.2892809E-005  0.7265403E+03  0.7818608E-02  0.9672891E-01
         -2   -1    0    0    0  501 -0.00000000000E+00  0.00000000000E+00  0.17783298859E+03  0.17783298861E+03  0.25500000000E-02 0.  1.
          2   -1    0    0  501    0  0.00000000000E+00 -0.00000000000E+00 -0.74207390093E+03  0.74207390093E+03  0.25500000000E-02 0. -1.
    5000001    1    1    2    0    0  0.26732546859E+03  0.85811447831E+02 -0.12059508519E+03  0.36087904526E+03  0.19200000000E+03 0.  0.
   -5000001    1    1    2    0    0 -0.26732546859E+03 -0.85811447831E+02 -0.44364582715E+03  0.55902784428E+03  0.19200000000E+03 0.  0.
<mgrwt>
<rscale>  0 0.72654035E+03</rscale>
<asrwt>0</asrwt>
<pdfrwt beam="1">  1        2 0.10601056E+00 0.72654035E+03</pdfrwt>
<pdfrwt beam="2">  1       -2 0.25404713E-01 0.72654035E+03</pdfrwt>
<totfact> 0.58453778E+02</totfact>
</mgrwt>
</event>
<event>
 4    1  0.2892809E-005  0.4335012E+03  0.7818608E-02  0.1032760E+00
         -2   -1    0    0    0  501 -0.00000000000E+00  0.00000000000E+00  0.28241944703E+02  0.28241944818E+02  0.25500000000E-02 0. -1.
          2   -1    0    0  501    0  0.00000000000E+00 -0.00000000000E+00 -0.16635122009E+04  0.16635122009E+04  0.25500000000E-02 0.  1.
    5000001    1    1    2    0    0 -0.84365533124E+02 -0.31811829608E+02 -0.99160615525E+03  0.10140395963E+04  0.19200000000E+03 0.  0.
   -5000001    1    1    2    0    0  0.84365533124E+02  0.31811829608E+02 -0.64366410093E+03  0.67771454943E+03  0.19200000000E+03 0.  0.
<mgrwt>
<rscale>  0 0.43350119E+03</rscale>
<asrwt>0</asrwt>
<pdfrwt beam="1">  1        2 0.23764454E+00 0.43350119E+03</pdfrwt>
<pdfrwt beam="2">  1       -2 0.40345646E-02 0.43350119E+03</pdfrwt>
<totfact> 0.35045285E+03</totfact>
</mgrwt>
</event>
<event>
 4    1  0.2892809E-005  0.4854900E+03  0.7818608E-02  0.1017637E+00
          2   -1    0    0  501    0  0.00000000000E+00  0.00000000000E+00  0.61286336484E+03  0.61286336484E+03  0.25500000000E-02 0.  1.
         -2   -1    0    0    0  501 -0.00000000000E+00 -0.00000000000E+00 -0.96147249517E+02  0.96147249551E+02  0.25500000000E-02 0. -1.
    5000001    1    1    2    0    0 -0.13799222529E+03 -0.11324431314E+02  0.33688139851E+03  0.41173191964E+03  0.19200000000E+03 0.  0.
   -5000001    1    1    2    0    0  0.13799222529E+03  0.11324431314E+02  0.17983471681E+03  0.29727869475E+03  0.19200000000E+03 0.  0.
<mgrwt>
<rscale>  0 0.48548997E+03</rscale>
<asrwt>0</asrwt>
<pdfrwt beam="1">  1        2 0.87551907E-01 0.48548997E+03</pdfrwt>
<pdfrwt beam="2">  1       -2 0.13735322E-01 0.48548997E+03</pdfrwt>
<totfact> 0.21403262E+03</totfact>
</mgrwt>
</event>
<event>
 4    1  0.2892809E-005  0.9325271E+03  0.7818608E-02  0.9385810E-01
          2   -1    0    0  501    0  0.00000000000E+00  0.00000000000E+00  0.79974847064E+03  0.79974847064E+03  0.25500000000E-02 0.  1.
         -2   -1    0    0    0  501 -0.00000000000E+00 -0.00000000000E+00 -0.27183759090E+03  0.27183759092E+03  0.25500000000E-02 0. -1.
    5000001    1    1    2    0    0  0.32154554445E+03 -0.26246845316E+03  0.36837042688E+03  0.58723249013E+03  0.19200000000E+03 0.  0.
   -5000001    1    1    2    0    0 -0.32154554445E+03  0.26246845316E+03  0.15954045286E+03  0.48435357143E+03  0.19200000000E+03 0.  0.
<mgrwt>
<rscale>  0 0.93252710E+03</rscale>
<asrwt>0</asrwt>
<pdfrwt beam="1">  1        2 0.11424978E+00 0.93252710E+03</pdfrwt>
<pdfrwt beam="2">  1       -2 0.38833941E-01 0.93252710E+03</pdfrwt>
<totfact> 0.23823828E+02</totfact>
</mgrwt>
</event>
<event>
 4    1  0.2892809E-005  0.9259653E+03  0.7818608E-02  0.9393693E-01
          2   -1    0    0  501    0  0.00000000000E+00  0.00000000000E+00  0.26233488465E+04  0.26233488465E+04  0.25500000000E-02 0.  1.
         -2   -1    0    0    0  501 -0.00000000000E+00 -0.00000000000E+00 -0.81709655636E+02  0.81709655676E+02  0.25500000000E-02 0. -1.
    5000001    1    1    2    0    0  0.97538441648E+00 -0.33856062620E+03  0.20032819598E+04  0.20407417425E+04  0.19200000000E+03 0.  0.
   -5000001    1    1    2    0    0 -0.97538441648E+00  0.33856062620E+03  0.53835723105E+03  0.66431675969E+03  0.19200000000E+03 0.  0.
<mgrwt>
<rscale>  0 0.92596529E+03</rscale>
<asrwt>0</asrwt>
<pdfrwt beam="1">  1        2 0.37476426E+00 0.92596529E+03</pdfrwt>
<pdfrwt beam="2">  1       -2 0.11672804E-01 0.92596529E+03</pdfrwt>
<totfact> 0.20593136E+02</totfact>
</mgrwt>
</event>
<event>
 4    1  0.2892809E-005  0.6236208E+03  0.7818608E-02  0.9857577E-01
         -2   -1    0    0    0  501 -0.00000000000E+00  0.00000000000E+00  0.27370196436E+03  0.27370196437E+03  0.25500000000E-02 0. -1.
          2   -1    0    0  501    0  0.00000000000E+00 -0.00000000000E+00 -0.35522482247E+03  0.35522482248E+03  0.25500000000E-02 0.  1.
    5000001    1    1    2    0    0  0.21978858978E+03  0.16208600799E+01 -0.15147745665E+03  0.32881464575E+03  0.19200000000E+03 0.  0.
   -5000001    1    1    2    0    0 -0.21978858978E+03 -0.16208600799E+01  0.69954598534E+02  0.30011214111E+03  0.19200000000E+03 0.  0.
<mgrwt>
<rscale>  0 0.62362082E+03</rscale>
<asrwt>0</asrwt>
<pdfrwt beam="1">  1        2 0.50746403E-01 0.62362082E+03</pdfrwt>
<pdfrwt beam="2">  1       -2 0.39100281E-01 0.62362082E+03</pdfrwt>
<totfact> 0.61454580E+02</totfact>
</mgrwt>
</event>
<event>
 4    1  0.2892809E-005  0.8420272E+03  0.7818608E-02  0.9501101E-01
         -2   -1    0    0    0  501 -0.00000000000E+00  0.00000000000E+00  0.52672960127E+03  0.52672960128E+03  0.25500000000E-02 0. -1.
          2   -1    0    0  501    0  0.00000000000E+00 -0.00000000000E+00 -0.33651507125E+03  0.33651507126E+03  0.25500000000E-02 0.  1.
    5000001    1    1    2    0    0 -0.36494955173E+03 -0.56271400422E+02  0.16021988304E+03  0.44596979352E+03  0.19200000000E+03 0.  0.
   -5000001    1    1    2    0    0  0.36494955173E+03  0.56271400422E+02  0.29994646977E+02  0.41727487902E+03  0.19200000000E+03 0.  0.
<mgrwt>
<rscale>  0 0.84202720E+03</rscale>
<asrwt>0</asrwt>
<pdfrwt beam="1">  1        2 0.48073581E-01 0.84202720E+03</pdfrwt>
<pdfrwt beam="2">  1       -2 0.75247086E-01 0.84202720E+03</pdfrwt>
<totfact> 0.16733556E+02</totfact>
</mgrwt>
</event>
<event>
 4    1  0.2892809E-005  0.7038156E+03  0.7818608E-02  0.9710729E-01
         -2   -1    0    0    0  501 -0.00000000000E+00  0.00000000000E+00  0.80166686750E+03  0.80166686750E+03  0.25500000000E-02 0.  1.
          2   -1    0    0  501    0  0.00000000000E+00 -0.00000000000E+00 -0.15447701678E+03  0.15447701680E+03  0.25500000000E-02 0. -1.
    5000001    1    1    2    0    0 -0.12121229070E+03  0.77990943896E+02  0.67313234215E+03  0.71466506616E+03  0.19200000000E+03 0.  0.
   -5000001    1    1    2    0    0  0.12121229070E+03 -0.77990943896E+02 -0.25942491430E+02  0.24147881814E+03  0.19200000000E+03 0.  0.
<mgrwt>
<rscale>  0 0.70381562E+03</rscale>
<asrwt>0</asrwt>
<pdfrwt beam="1">  1        2 0.22068145E-01 0.70381562E+03</pdfrwt>
<pdfrwt beam="2">  1       -2 0.11452384E+00 0.70381562E+03</pdfrwt>
<totfact> 0.15242341E+02</totfact>
</mgrwt>
</event>
<event>
 4    1  0.2892809E-005  0.7239167E+03  0.7818608E-02  0.9677184E-01
         -2   -1    0    0    0  501 -0.00000000000E+00  0.00000000000E+00  0.14950559708E+03  0.14950559710E+03  0.25500000000E-02 0. -1.
          2   -1    0    0  501    0  0.00000000000E+00 -0.00000000000E+00 -0.87631395926E+03  0.87631395926E+03  0.25500000000E-02 0.  1.
    5000001    1    1    2    0    0 -0.14097637644E+03  0.14348860211E+03 -0.35070805981E+02  0.28028071479E+03  0.19200000000E+03 0.  0.
   -5000001    1    1    2    0    0  0.14097637644E+03 -0.14348860211E+03 -0.69173755619E+03  0.74553884158E+03  0.19200000000E+03 0.  0.
<mgrwt>
<rscale>  0 0.72391669E+03</rscale>
<asrwt>0</asrwt>
<pdfrwt beam="1">  1        2 0.12518771E+00 0.72391669E+03</pdfrwt>
<pdfrwt beam="2">  1       -2 0.21357943E-01 0.72391669E+03</pdfrwt>
<totfact> 0.64282875E+02</totfact>
</mgrwt>
</event>
<event>
 4    1  0.2892809E-005  0.6236077E+03  0.7818608E-02  0.9857603E-01
          2   -1    0    0  501    0  0.00000000000E+00  0.00000000000E+00  0.11309832697E+04  0.11309832697E+04  0.25500000000E-02 0.  1.
         -2   -1    0    0    0  501 -0.00000000000E+00 -0.00000000000E+00 -0.85962039494E+02  0.85962039531E+02  0.25500000000E-02 0. -1.
    5000001    1    1    2    0    0 -0.54173213515E+02  0.11388186496E+03  0.11106340174E+03  0.25515269044E+03  0.19200000000E+03 0.  0.
   -5000001    1    1    2    0    0  0.54173213515E+02 -0.11388186496E+03  0.93395782850E+03  0.96179261884E+03  0.19200000000E+03 0.  0.
<mgrwt>
<rscale>  0 0.62360766E+03</rscale>
<asrwt>0</asrwt>
<pdfrwt beam="1">  1        2 0.16156905E+00 0.62360766E+03</pdfrwt>
<pdfrwt beam="2">  1       -2 0.12280290E-01 0.62360766E+03</pdfrwt>
<totfact> 0.11552378E+03</totfact>
</mgrwt>
</event>
<event>
 4    1  0.2892809E-005  0.4642885E+03  0.7818608E-02  0.1023545E+00
         -2   -1    0    0    0  501 -0.00000000000E+00  0.00000000000E+00  0.64349226562E+03  0.64349226563E+03  0.25500000000E-02 0. -1.
          2   -1    0    0  501    0  0.00000000000E+00 -0.00000000000E+00 -0.83747614270E+02  0.83747614309E+02  0.25500000000E-02 0.  1.
    5000001    1    1    2    0    0 -0.11369222250E+03 -0.63093562474E+02  0.26269784757E+03  0.35040102483E+03  0.19200000000E+03 0.  0.
   -5000001    1    1    2    0    0  0.11369222250E+03  0.63093562474E+02  0.29704680378E+03  0.37683885511E+03  0.19200000000E+03 0.  0.
<mgrwt>
<rscale>  0 0.46428845E+03</rscale>
<asrwt>0</asrwt>
<pdfrwt beam="1">  1        2 0.11963946E-01 0.46428845E+03</pdfrwt>
<pdfrwt beam="2">  1       -2 0.91927456E-01 0.46428845E+03</pdfrwt>
<totfact> 0.53763077E+02</totfact>
</mgrwt>
</event>
<event>
 4    1  0.2892809E-005  0.4704695E+03  0.7818608E-02  0.1021788E+00
          2   -1    0    0  501    0  0.00000000000E+00  0.00000000000E+00  0.79491810297E+03  0.79491810298E+03  0.25500000000E-02 0.  1.
         -2   -1    0    0    0  501 -0.00000000000E+00 -0.00000000000E+00 -0.69611431554E+02  0.69611431600E+02  0.25500000000E-02 0. -1.
    5000001    1    1    2    0    0 -0.17543763748E+02 -0.10133194504E+03  0.19937200077E+03  0.29527807474E+03  0.19200000000E+03 0.  0.
   -5000001    1    1    2    0    0  0.17543763748E+02  0.10133194504E+03  0.52593467065E+03  0.56925145984E+03  0.19200000000E+03 0.  0.
<mgrwt>
<rscale>  0 0.47046950E+03</rscale>
<asrwt>0</asrwt>
<pdfrwt beam="1">  1        2 0.11355973E+00 0.47046950E+03</pdfrwt>
<pdfrwt beam="2">  1       -2 0.99444904E-02 0.47046950E+03</pdfrwt>
<totfact> 0.26450269E+03</totfact>
</mgrwt>
</event>
<event>
 4    1  0.2892809E-005  0.5112571E+03  0.7818608E-02  0.1010882E+00
          2   -1    0    0  501    0  0.00000000000E+00  0.00000000000E+00  0.58634674419E+02  0.58634674475E+02  0.25500000000E-02 0.  1.
         -2   -1    0    0    0  501 -0.00000000000E+00 -0.00000000000E+00 -0.11144594092E+04  0.11144594092E+04  0.25500000000E-02 0. -1.
    5000001    1    1    2    0    0  0.16024282999E+03 -0.25395020982E+02 -0.42128977200E+03  0.49058306498E+03  0.19200000000E+03 0.  0.
   -5000001    1    1    2    0    0 -0.16024282999E+03  0.25395020982E+02 -0.63453496279E+03  0.68251101871E+03  0.19200000000E+03 0.  0.
<mgrwt>
<rscale>  0 0.51125714E+03</rscale>
<asrwt>0</asrwt>
<pdfrwt beam="1">  1        2 0.83763827E-02 0.51125714E+03</pdfrwt>
<pdfrwt beam="2">  1       -2 0.15920847E+00 0.51125714E+03</pdfrwt>
<totfact> 0.21706935E+02</totfact>
</mgrwt>
</event>
<event>
 4    1  0.2892809E-005  0.8143000E+03  0.7818608E-02  0.9539546E-01
         -2   -1    0    0    0  501 -0.00000000000E+00  0.00000000000E+00  0.13242139578E+03  0.13242139580E+03  0.25500000000E-02 0. -1.
          2   -1    0    0  501    0  0.00000000000E+00 -0.00000000000E+00 -0.12518455333E+04  0.12518455333E+04  0.25500000000E-02 0.  1.
    5000001    1    1    2    0    0  0.22662698985E+03 -0.68012389338E+02 -0.10187659399E+04  0.10633595431E+04  0.19200000000E+03 0.  0.
   -5000001    1    1    2    0    0 -0.22662698985E+03  0.68012389338E+02 -0.10065819762E+03  0.32090738599E+03  0.19200000000E+03 0.  0.
<mgrwt>
<rscale>  0 0.81430003E+03</rscale>
<asrwt>0</asrwt>
<pdfrwt beam="1">  1        2 0.17883507E+00 0.81430003E+03</pdfrwt>
<pdfrwt beam="2">  1       -2 0.18917343E-01 0.81430003E+03</pdfrwt>
<totfact> 0.47150950E+02</totfact>
</mgrwt>
</event>
<event>
 4    1  0.2892809E-005  0.9213458E+03  0.7818608E-02  0.9399285E-01
         -2   -1    0    0    0  501 -0.00000000000E+00  0.00000000000E+00  0.13172804436E+04  0.13172804436E+04  0.25500000000E-02 0.  1.
          2   -1    0    0  501    0  0.00000000000E+00 -0.00000000000E+00 -0.16110428259E+03  0.16110428261E+03  0.25500000000E-02 0. -1.
    5000001    1    1    2    0    0  0.43102642124E+02  0.38624154075E+03  0.82829731271E+03  0.93486940467E+03  0.19200000000E+03 0.  0.
   -5000001    1    1    2    0    0 -0.43102642124E+02 -0.38624154075E+03  0.32787884826E+03  0.54351532149E+03  0.19200000000E+03 0.  0.
<mgrwt>
<rscale>  0 0.92134580E+03</rscale>
<asrwt>0</asrwt>
<pdfrwt beam="1">  1        2 0.23014897E-01 0.92134580E+03</pdfrwt>
<pdfrwt beam="2">  1       -2 0.18818292E+00 0.92134580E+03</pdfrwt>
<totfact> 0.38643350E+01</totfact>
</mgrwt>
</event>
<event>
 4    1  0.2892809E-005  0.1549362E+04  0.7818608E-02  0.8852276E-01
          2   -1    0    0  501    0  0.00000000000E+00  0.00000000000E+00  0.21222659701E+04  0.21222659701E+04  0.25500000000E-02 0.  1.
         -2   -1    0    0    0  501 -0.00000000000E+00 -0.00000000000E+00 -0.28277808221E+03  0.28277808222E+03  0.25500000000E-02 0. -1.
    5000001    1    1    2    0    0 -0.74768009549E+02 -0.68229936185E+03  0.13909413738E+04  0.15629154103E+04  0.19200000000E+03 0.  0.
   -5000001    1    1    2    0    0  0.74768009549E+02  0.68229936185E+03  0.44854651415E+03  0.84212864207E+03  0.19200000000E+03 0.  0.
<mgrwt>
<rscale>  0 0.15493615E+04</rscale>
<asrwt>0</asrwt>
<pdfrwt beam="1">  1        2 0.30318086E+00 0.15493615E+04</pdfrwt>
<pdfrwt beam="2">  1       -2 0.40396868E-01 0.15493615E+04</pdfrwt>
<totfact> 0.38811705E+01</totfact>
</mgrwt>
</event>
<event>
 4    1  0.2892809E-005  0.4758570E+03  0.7818608E-02  0.1020280E+00
          2   -1    0    0  501    0  0.00000000000E+00  0.00000000000E+00  0.39615473280E+03  0.39615473281E+03  0.25500000000E-02 0.  1.
         -2   -1    0    0    0  501 -0.00000000000E+00 -0.00000000000E+00 -0.14289863294E+03  0.14289863296E+03  0.25500000000E-02 0. -1.
    5000001    1    1    2    0    0 -0.11473680042E+03 -0.62658563724E+02  0.68254589752E+02  0.24210187525E+03  0.19200000000E+03 0.  0.
   -5000001    1    1    2    0    0  0.11473680042E+03  0.62658563724E+02  0.18500151011E+03  0.29695149052E+03  0.19200000000E+03 0.  0.
<mgrwt>
<rscale>  0 0.47585699E+03</rscale>
<asrwt>0</asrwt>
<pdfrwt beam="1">  1        2 0.56593534E-01 0.47585699E+03</pdfrwt>
<pdfrwt beam="2">  1       -2 0.20414090E-01 0.47585699E+03</pdfrwt>
<totfact> 0.17894569E+03</totfact>
</mgrwt>
</event>
<event>
 4    1  0.2892809E-005  0.5351114E+03  0.7818608E-02  0.1005000E+00
         -2   -1    0    0    0  501 -0.00000000000E+00  0.00000000000E+00  0.13921773729E+03  0.13921773731E+03  0.25500000000E-02 0. -1.
          2   -1    0    0  501    0  0.00000000000E+00 -0.00000000000E+00 -0.51420216885E+03  0.51420216885E+03  0.25500000000E-02 0.  1.
    5000001    1    1    2    0    0  0.13410434639E+03 -0.12928786757E+03 -0.18167002473E+03  0.32336871572E+03  0.19200000000E+03 0.  0.
   -5000001    1    1    2    0    0 -0.13410434639E+03  0.12928786757E+03 -0.19331440683E+03  0.33005119044E+03  0.19200000000E+03 0.  0.
<mgrwt>
<rscale>  0 0.53511144E+03</rscale>
<asrwt>0</asrwt>
<pdfrwt beam="1">  1        2 0.73457452E-01 0.53511144E+03</pdfrwt>
<pdfrwt beam="2">  1       -2 0.19888248E-01 0.53511144E+03</pdfrwt>
<totfact> 0.13993455E+03</totfact>
</mgrwt>
</event>
<event>
 4    1  0.2892809E-005  0.1092539E+04  0.7818608E-02  0.9212494E-01
          2   -1    0    0  501    0  0.00000000000E+00  0.00000000000E+00  0.44458124841E+03  0.44458124841E+03  0.25500000000E-02 0.  1.
         -2   -1    0    0    0  501 -0.00000000000E+00 -0.00000000000E+00 -0.67121732482E+03  0.67121732483E+03  0.25500000000E-02 0. -1.
    5000001    1    1    2    0    0 -0.16883909444E+03 -0.44828737258E+03 -0.29623551230E+03  0.59505267580E+03  0.19200000000E+03 0.  0.
   -5000001    1    1    2    0    0  0.16883909444E+03  0.44828737258E+03  0.69599435888E+02  0.52074589744E+03  0.19200000000E+03 0.  0.
<mgrwt>
<rscale>  0 0.10925395E+04</rscale>
<asrwt>0</asrwt>
<pdfrwt beam="1">  1        2 0.63511607E-01 0.10925395E+04</pdfrwt>
<pdfrwt beam="2">  1       -2 0.95888188E-01 0.10925395E+04</pdfrwt>
<totfact> 0.69608570E+01</totfact>
</mgrwt>
</event>
<event>
 4    1  0.2892809E-005  0.8057012E+03  0.7818608E-02  0.9551801E-01
          2   -1    0    0  501    0  0.00000000000E+00  0.00000000000E+00  0.24856721389E+04  0.24856721389E+04  0.25500000000E-02 0.  1.
         -2   -1    0    0    0  501 -0.00000000000E+00 -0.00000000000E+00 -0.65289634145E+02  0.65289634195E+02  0.25500000000E-02 0. -1.
    5000001    1    1    2    0    0 -0.23031426763E+03  0.37296343811E+02  0.20537693156E+04  0.20758776652E+04  0.19200000000E+03 0.  0.
   -5000001    1    1    2    0    0  0.23031426763E+03 -0.37296343811E+02  0.36661318922E+03  0.47508410797E+03  0.19200000000E+03 0.  0.
<mgrwt>
<rscale>  0 0.80570125E+03</rscale>
<asrwt>0</asrwt>
<pdfrwt beam="1">  1        2 0.35509605E+00 0.80570125E+03</pdfrwt>
<pdfrwt beam="2">  1       -2 0.93270897E-02 0.80570125E+03</pdfrwt>
<totfact> 0.35424024E+02</totfact>
</mgrwt>
</event>
<event>
 4    1  0.2892809E-005  0.7132942E+03  0.7818608E-02  0.9694764E-01
         -2   -1    0    0    0  501 -0.00000000000E+00  0.00000000000E+00  0.65508113475E+03  0.65508113475E+03  0.25500000000E-02 0. -1.
          2   -1    0    0  501    0  0.00000000000E+00 -0.00000000000E+00 -0.19417005106E+03  0.19417005107E+03  0.25500000000E-02 0.  1.
    5000001    1    1    2    0    0 -0.28470083870E+03 -0.82835477039E+02  0.17192363569E+03  0.39285877910E+03  0.19200000000E+03 0.  0.
   -5000001    1    1    2    0    0  0.28470083870E+03  0.82835477039E+02  0.28898744801E+03  0.45639240672E+03  0.19200000000E+03 0.  0.
<mgrwt>
<rscale>  0 0.71329415E+03</rscale>
<asrwt>0</asrwt>
<pdfrwt beam="1">  1        2 0.27738579E-01 0.71329415E+03</pdfrwt>
<pdfrwt beam="2">  1       -2 0.93583019E-01 0.71329415E+03</pdfrwt>
<totfact> 0.18959520E+02</totfact>
</mgrwt>
</event>
<event>
 4    1  0.2892809E-005  0.4399420E+03  0.7818608E-02  0.1030765E+00
         -2   -1    0    0    0  501 -0.00000000000E+00  0.00000000000E+00  0.79580648728E+02  0.79580648769E+02  0.25500000000E-02 0. -1.
          2   -1    0    0  501    0  0.00000000000E+00 -0.00000000000E+00 -0.60802779692E+03  0.60802779692E+03  0.25500000000E-02 0.  1.
    5000001    1    1    2    0    0  0.48350512408E+02 -0.36252416351E+02 -0.12555845119E+03  0.23723603100E+03  0.19200000000E+03 0.  0.
   -5000001    1    1    2    0    0 -0.48350512408E+02  0.36252416351E+02 -0.40288869700E+03  0.45037241469E+03  0.19200000000E+03 0.  0.
<mgrwt>
<rscale>  0 0.43994203E+03</rscale>
<asrwt>0</asrwt>
<pdfrwt beam="1">  1        2 0.86861111E-01 0.43994203E+03</pdfrwt>
<pdfrwt beam="2">  1       -2 0.11368664E-01 0.43994203E+03</pdfrwt>
<totfact> 0.29448535E+03</totfact>
</mgrwt>
</event>
<event>
 4    1  0.2892809E-005  0.8447284E+03  0.7818608E-02  0.9497440E-01
         -2   -1    0    0    0  501 -0.00000000000E+00  0.00000000000E+00  0.15722594367E+04  0.15722594367E+04  0.25500000000E-02 0. -1.
          2   -1    0    0  501    0  0.00000000000E+00 -0.00000000000E+00 -0.11346189287E+03  0.11346189290E+03  0.25500000000E-02 0.  1.
    5000001    1    1    2    0    0 -0.11227521922E+03  0.35081902271E+03  0.57679485652E+03  0.71079956251E+03  0.19200000000E+03 0.  0.
   -5000001    1    1    2    0    0  0.11227521922E+03 -0.35081902271E+03  0.88200268728E+03  0.97492176707E+03  0.19200000000E+03 0.  0.
<mgrwt>
<rscale>  0 0.84472843E+03</rscale>
<asrwt>0</asrwt>
<pdfrwt beam="1">  1        2 0.16208842E-01 0.84472843E+03</pdfrwt>
<pdfrwt beam="2">  1       -2 0.22460849E+00 0.84472843E+03</pdfrwt>
<totfact> 0.34266313E+01</totfact>
</mgrwt>
</event>
<event>
 4    1  0.2892809E-005  0.5065717E+03  0.7818608E-02  0.1012078E+00
         -2   -1    0    0    0  501 -0.00000000000E+00  0.00000000000E+00  0.43502497886E+02  0.43502497961E+02  0.25500000000E-02 0. -1.
          2   -1    0    0  501    0  0.00000000000E+00 -0.00000000000E+00 -0.14747134679E+04  0.14747134679E+04  0.25500000000E-02 0.  1.
    5000001    1    1    2    0    0 -0.55184562134E+02  0.14799758209E+03 -0.57059394576E+03  0.62240667665E+03  0.19200000000E+03 0.  0.
   -5000001    1    1    2    0    0  0.55184562134E+02 -0.14799758209E+03 -0.86061702427E+03  0.89580928922E+03  0.19200000000E+03 0.  0.
<mgrwt>
<rscale>  0 0.50657169E+03</rscale>
<asrwt>0</asrwt>
<pdfrwt beam="1">  1        2 0.21067332E+00 0.50657169E+03</pdfrwt>
<pdfrwt beam="2">  1       -2 0.62146435E-02 0.50657169E+03</pdfrwt>
<totfact> 0.22450690E+03</totfact>
</mgrwt>
</event>
<event>
 4    1  0.2892809E-005  0.5708333E+03  0.7818608E-02  0.9967836E-01
          2   -1    0    0  501    0  0.00000000000E+00  0.00000000000E+00  0.12952068267E+04  0.12952068267E+04  0.25500000000E-02 0. -1.
         -2   -1    0    0    0  501 -0.00000000000E+00 -0.00000000000E+00 -0.62895493557E+02  0.62895493609E+02  0.25500000000E-02 0.  1.
    5000001    1    1    2    0    0  0.85248001188E+02 -0.17802681853E+03  0.79479700409E+03  0.84114627000E+03  0.19200000000E+03 0.  0.
   -5000001    1    1    2    0    0 -0.85248001188E+02  0.17802681853E+03  0.43751432903E+03  0.51695605029E+03  0.19200000000E+03 0.  0.
<mgrwt>
<rscale>  0 0.57083333E+03</rscale>
<asrwt>0</asrwt>
<pdfrwt beam="1">  1        2 0.18502955E+00 0.57083333E+03</pdfrwt>
<pdfrwt beam="2">  1       -2 0.89850706E-02 0.57083333E+03</pdfrwt>
<totfact> 0.15574396E+03</totfact>
</mgrwt>
</event>
<event>
 4    1  0.2892809E-005  0.5130763E+03  0.7818608E-02  0.1010421E+00
          2   -1    0    0  501    0  0.00000000000E+00  0.00000000000E+00  0.11308255064E+04  0.11308255064E+04  0.25500000000E-02 0.  1.
         -2   -1    0    0    0  501 -0.00000000000E+00 -0.00000000000E+00 -0.58198034251E+02  0.58198034307E+02  0.25500000000E-02 0. -1.
    5000001    1    1    2    0    0  0.60829599438E+01 -0.16939318545E+03  0.57043349828E+03  0.62529147574E+03  0.19200000000E+03 0.  0.
   -5000001    1    1    2    0    0 -0.60829599438E+01  0.16939318545E+03  0.50219397384E+03  0.56373206493E+03  0.19200000000E+03 0.  0.
<mgrwt>
<rscale>  0 0.51307630E+03</rscale>
<asrwt>0</asrwt>
<pdfrwt beam="1">  1        2 0.16154648E+00 0.51307630E+03</pdfrwt>
<pdfrwt beam="2">  1       -2 0.83140059E-02 0.51307630E+03</pdfrwt>
<totfact> 0.21787938E+03</totfact>
</mgrwt>
</event>
<event>
 4    1  0.2892809E-005  0.2285701E+04  0.7818608E-02  0.8483580E-01
          2   -1    0    0  501    0  0.00000000000E+00  0.00000000000E+00  0.10037782238E+04  0.10037782238E+04  0.25500000000E-02 0.  1.
         -2   -1    0    0    0  501 -0.00000000000E+00 -0.00000000000E+00 -0.13011912160E+04  0.13011912160E+04  0.25500000000E-02 0. -1.
    5000001    1    1    2    0    0 -0.80209473688E+03  0.73704361704E+03  0.14121342291E+03  0.11150760024E+04  0.19200000000E+03 0.  0.
   -5000001    1    1    2    0    0  0.80209473688E+03 -0.73704361704E+03 -0.43862641507E+03  0.11898934374E+04  0.19200000000E+03 0.  0.
<mgrwt>
<rscale>  0 0.22857011E+04</rscale>
<asrwt>0</asrwt>
<pdfrwt beam="1">  1        2 0.14339689E+00 0.22857011E+04</pdfrwt>
<pdfrwt beam="2">  1       -2 0.18588446E+00 0.22857011E+04</pdfrwt>
<totfact> 0.42090386E+00</totfact>
</mgrwt>
</event>
<event>
 4    1  0.2892809E-005  0.8781540E+03  0.7818608E-02  0.9453310E-01
          2   -1    0    0  501    0  0.00000000000E+00  0.00000000000E+00  0.14041325759E+04  0.14041325759E+04  0.25500000000E-02 0.  1.
         -2   -1    0    0    0  501 -0.00000000000E+00 -0.00000000000E+00 -0.13730087528E+03  0.13730087531E+03  0.25500000000E-02 0. -1.
    5000001    1    1    2    0    0 -0.25836236029E+03 -0.28427574766E+03  0.79391715106E+03  0.90262520055E+03  0.19200000000E+03 0.  0.
   -5000001    1    1    2    0    0  0.25836236029E+03  0.28427574766E+03  0.47291454952E+03  0.63880825063E+03  0.19200000000E+03 0.  0.
<mgrwt>
<rscale>  0 0.87815405E+03</rscale>
<asrwt>0</asrwt>
<pdfrwt beam="1">  1        2 0.20059037E+00 0.87815405E+03</pdfrwt>
<pdfrwt beam="2">  1       -2 0.19614410E-01 0.87815405E+03</pdfrwt>
<totfact> 0.36432450E+02</totfact>
</mgrwt>
</event>
<event>
 4    1  0.2892809E-005  0.6640733E+03  0.7818608E-02  0.9780724E-01
          2   -1    0    0  501    0  0.00000000000E+00  0.00000000000E+00  0.13658243543E+04  0.13658243543E+04  0.25500000000E-02 0.  1.
         -2   -1    0    0    0  501 -0.00000000000E+00 -0.00000000000E+00 -0.80719272363E+02  0.80719272403E+02  0.25500000000E-02 0. -1.
    5000001    1    1    2    0    0  0.16935694447E+03  0.20743584288E+03  0.55345693912E+03  0.64411954404E+03  0.19200000000E+03 0.  0.
   -5000001    1    1    2    0    0 -0.16935694447E+03 -0.20743584288E+03  0.73164814279E+03  0.80242408264E+03  0.19200000000E+03 0.  0.
<mgrwt>
<rscale>  0 0.66407333E+03</rscale>
<asrwt>0</asrwt>
<pdfrwt beam="1">  1        2 0.19511774E+00 0.66407333E+03</pdfrwt>
<pdfrwt beam="2">  1       -2 0.11531326E-01 0.66407333E+03</pdfrwt>
<totfact> 0.94830241E+02</totfact>
</mgrwt>
</event>
<event>
 4    1  0.2892809E-005  0.5975369E+03  0.7818608E-02  0.9910529E-01
         -2   -1    0    0    0  501 -0.00000000000E+00  0.00000000000E+00  0.42418228915E+03  0.42418228916E+03  0.25500000000E-02 0. -1.
          2   -1    0    0  501    0  0.00000000000E+00 -0.00000000000E+00 -0.21043452834E+03  0.21043452836E+03  0.25500000000E-02 0.  1.
    5000001    1    1    2    0    0  0.93113723922E+02 -0.19411547714E+03  0.18946605773E+03  0.34512660152E+03  0.19200000000E+03 0.  0.
   -5000001    1    1    2    0    0 -0.93113723922E+02  0.19411547714E+03  0.24281703081E+02  0.28949021599E+03  0.19200000000E+03 0.  0.
<mgrwt>
<rscale>  0 0.59753694E+03</rscale>
<asrwt>0</asrwt>
<pdfrwt beam="1">  1        2 0.30062076E-01 0.59753694E+03</pdfrwt>
<pdfrwt beam="2">  1       -2 0.60597470E-01 0.59753694E+03</pdfrwt>
<totfact> 0.45422182E+02</totfact>
</mgrwt>
</event>
<event>
 4    1  0.2892809E-005  0.5253462E+03  0.7818608E-02  0.1007367E+00
         -2   -1    0    0    0  501 -0.00000000000E+00  0.00000000000E+00  0.47752819523E+02  0.47752819591E+02  0.25500000000E-02 0. -1.
          2   -1    0    0  501    0  0.00000000000E+00 -0.00000000000E+00 -0.14448811112E+04  0.14448811113E+04  0.25500000000E-02 0.  1.
    5000001    1    1    2    0    0  0.21720462225E+02 -0.17793392374E+03 -0.70124048484E+03  0.74882205982E+03  0.19200000000E+03 0.  0.
   -5000001    1    1    2    0    0 -0.21720462225E+02  0.17793392374E+03 -0.69588780689E+03  0.74381187102E+03  0.19200000000E+03 0.  0.
<mgrwt>
<rscale>  0 0.52534616E+03</rscale>
<asrwt>0</asrwt>
<pdfrwt beam="1">  1        2 0.20641156E+00 0.52534616E+03</pdfrwt>
<pdfrwt beam="2">  1       -2 0.68218323E-02 0.52534616E+03</pdfrwt>
<totfact> 0.20097332E+03</totfact>
</mgrwt>
</event>
<event>
 4    1  0.2892809E-005  0.4788531E+03  0.7818608E-02  0.1019451E+00
         -2   -1    0    0    0  501 -0.00000000000E+00  0.00000000000E+00  0.22060412390E+03  0.22060412391E+03  0.25500000000E-02 0. -1.
          2   -1    0    0  501    0  0.00000000000E+00 -0.00000000000E+00 -0.25985498729E+03  0.25985498730E+03  0.25500000000E-02 0.  1.
    5000001    1    1    2    0    0  0.34853067340E+02 -0.13713601501E+03 -0.40673367095E+02  0.24194905601E+03  0.19200000000E+03 0.  0.
   -5000001    1    1    2    0    0 -0.34853067340E+02  0.13713601501E+03  0.14225037090E+01  0.23851005520E+03  0.19200000000E+03 0.  0.
<mgrwt>
<rscale>  0 0.47885314E+03</rscale>
<asrwt>0</asrwt>
<pdfrwt beam="1">  1        2 0.37122141E-01 0.47885314E+03</pdfrwt>
<pdfrwt beam="2">  1       -2 0.31514875E-01 0.47885314E+03</pdfrwt>
<totfact> 0.13057119E+03</totfact>
</mgrwt>
</event>
<event>
 4    1  0.2892809E-005  0.6364414E+03  0.7818608E-02  0.9832559E-01
          2   -1    0    0  501    0  0.00000000000E+00  0.00000000000E+00  0.88982207176E+03  0.88982207176E+03  0.25500000000E-02 0.  1.
         -2   -1    0    0    0  501 -0.00000000000E+00 -0.00000000000E+00 -0.11380298758E+03  0.11380298761E+03  0.25500000000E-02 0. -1.
    5000001    1    1    2    0    0 -0.10827710694E+03  0.12347039855E+03  0.69310231765E+03  0.73771518484E+03  0.19200000000E+03 0.  0.
   -5000001    1    1    2    0    0  0.10827710694E+03 -0.12347039855E+03  0.82916766525E+02  0.26590987454E+03  0.19200000000E+03 0.  0.
<mgrwt>
<rscale>  0 0.63644139E+03</rscale>
<asrwt>0</asrwt>
<pdfrwt beam="1">  1        2 0.12711745E+00 0.63644139E+03</pdfrwt>
<pdfrwt beam="2">  1       -2 0.16257569E-01 0.63644139E+03</pdfrwt>
<totfact> 0.10124191E+03</totfact>
</mgrwt>
</event>
<event>
 4    1  0.2892809E-005  0.5834759E+03  0.7818608E-02  0.9940294E-01
         -2   -1    0    0    0  501 -0.00000000000E+00  0.00000000000E+00  0.14561010062E+02  0.14561010285E+02  0.25500000000E-02 0. -1.
          2   -1    0    0  501    0  0.00000000000E+00 -0.00000000000E+00 -0.58451317445E+04  0.58451317445E+04  0.25500000000E-02 0.  1.
    5000001    1    1    2    0    0 -0.13314183660E+03 -0.11832741097E+03 -0.42060363956E+04  0.42141825169E+04  0.19200000000E+03 0.  0.
   -5000001    1    1    2    0    0  0.13314183660E+03  0.11832741097E+03 -0.16245343388E+04  0.16455102379E+04  0.19200000000E+03 0.  0.
<mgrwt>
<rscale>  0 0.58347587E+03</rscale>
<asrwt>0</asrwt>
<pdfrwt beam="1">  1        2 0.83501732E+00 0.58347587E+03</pdfrwt>
<pdfrwt beam="2">  1       -2 0.20801480E-02 0.58347587E+03</pdfrwt>
<totfact> 0.81299056E+00</totfact>
</mgrwt>
</event>
<event>
 4    1  0.2892809E-005  0.4983425E+03  0.7818608E-02  0.1014212E+00
          2   -1    0    0  501    0  0.00000000000E+00  0.00000000000E+00  0.28731758988E+03  0.28731758989E+03  0.25500000000E-02 0.  1.
         -2   -1    0    0    0  501 -0.00000000000E+00 -0.00000000000E+00 -0.21608950803E+03  0.21608950804E+03  0.25500000000E-02 0. -1.
    5000001    1    1    2    0    0 -0.35819511157E+02  0.15331088861E+03  0.56683885460E+02  0.25468476361E+03  0.19200000000E+03 0.  0.
   -5000001    1    1    2    0    0  0.35819511157E+02 -0.15331088861E+03  0.14544196395E+02  0.24872233433E+03  0.19200000000E+03 0.  0.
<mgrwt>
<rscale>  0 0.49834252E+03</rscale>
<asrwt>0</asrwt>
<pdfrwt beam="1">  1        2 0.41045370E-01 0.49834252E+03</pdfrwt>
<pdfrwt beam="2">  1       -2 0.30869930E-01 0.49834252E+03</pdfrwt>
<totfact> 0.12148632E+03</totfact>
</mgrwt>
</event>
<event>
 4    1  0.2892809E-005  0.6414966E+03  0.7818608E-02  0.9822867E-01
          2   -1    0    0  501    0  0.00000000000E+00  0.00000000000E+00  0.30996780278E+03  0.30996780279E+03  0.25500000000E-02 0.  1.
         -2   -1    0    0    0  501 -0.00000000000E+00 -0.00000000000E+00 -0.33190375118E+03  0.33190375119E+03  0.25500000000E-02 0. -1.
    5000001    1    1    2    0    0  0.20475199271E+03 -0.13907041567E+03 -0.79939514638E+02  0.32329287810E+03  0.19200000000E+03 0.  0.
   -5000001    1    1    2    0    0 -0.20475199271E+03  0.13907041567E+03  0.58003566236E+02  0.31857867588E+03  0.19200000000E+03 0.  0.
<mgrwt>
<rscale>  0 0.64149661E+03</rscale>
<asrwt>0</asrwt>
<pdfrwt beam="1">  1        2 0.44281115E-01 0.64149661E+03</pdfrwt>
<pdfrwt beam="2">  1       -2 0.47414822E-01 0.64149661E+03</pdfrwt>
<totfact> 0.48852612E+02</totfact>
</mgrwt>
</event>
<event>
 4    1  0.2892809E-005  0.4611016E+03  0.7818608E-02  0.1024462E+00
         -2   -1    0    0    0  501 -0.00000000000E+00  0.00000000000E+00  0.29922365620E+02  0.29922365729E+02  0.25500000000E-02 0. -1.
          2   -1    0    0  501    0  0.00000000000E+00 -0.00000000000E+00 -0.17763857886E+04  0.17763857886E+04  0.25500000000E-02 0.  1.
    5000001    1    1    2    0    0 -0.24968805283E+02  0.93454524068E+02 -0.54706516052E+03  0.58779373862E+03  0.19200000000E+03 0.  0.
   -5000001    1    1    2    0    0  0.24968805283E+02 -0.93454524068E+02 -0.11993982625E+04  0.12185144157E+04  0.19200000000E+03 0.  0.
<mgrwt>
<rscale>  0 0.46110157E+03</rscale>
<asrwt>0</asrwt>
<pdfrwt beam="1">  1        2 0.25376933E+00 0.46110157E+03</pdfrwt>
<pdfrwt beam="2">  1       -2 0.42746248E-02 0.46110157E+03</pdfrwt>
<totfact> 0.28143781E+03</totfact>
</mgrwt>
</event>
<event>
 4    1  0.2892809E-005  0.7583184E+03  0.7818608E-02  0.9622390E-01
          2   -1    0    0  501    0  0.00000000000E+00  0.00000000000E+00  0.27816448471E+04  0.27816448471E+04  0.25500000000E-02 0.  1.
         -2   -1    0    0    0  501 -0.00000000000E+00 -0.00000000000E+00 -0.51682261952E+02  0.51682262014E+02  0.25500000000E-02 0. -1.
    5000001    1    1    2    0    0 -0.31795055133E+03  0.20402412016E+01  0.10804068550E+04  0.11424708697E+04  0.19200000000E+03 0.  0.
   -5000001    1    1    2    0    0  0.31795055133E+03 -0.20402412016E+01  0.16495557301E+04  0.16908562394E+04  0.19200000000E+03 0.  0.
<mgrwt>
<rscale>  0 0.75831840E+03</rscale>
<asrwt>0</asrwt>
<pdfrwt beam="1">  1        2 0.39737781E+00 0.75831840E+03</pdfrwt>
<pdfrwt beam="2">  1       -2 0.73831808E-02 0.75831840E+03</pdfrwt>
<totfact> 0.36220002E+02</totfact>
</mgrwt>
</event>
<event>
 4    1  0.2892809E-005  0.5598795E+03  0.7818608E-02  0.9992327E-01
         -2   -1    0    0    0  501 -0.00000000000E+00  0.00000000000E+00  0.33785201154E+02  0.33785201251E+02  0.25500000000E-02 0. -1.
          2   -1    0    0  501    0  0.00000000000E+00 -0.00000000000E+00 -0.23195440121E+04  0.23195440121E+04  0.25500000000E-02 0.  1.
    5000001    1    1    2    0    0  0.17461893472E+03  0.89050940460E+02 -0.13761677326E+04  0.14032545993E+04  0.19200000000E+03 0.  0.
   -5000001    1    1    2    0    0 -0.17461893472E+03 -0.89050940460E+02 -0.90959107842E+03  0.95007461407E+03  0.19200000000E+03 0.  0.
<mgrwt>
<rscale>  0 0.55987949E+03</rscale>
<asrwt>0</asrwt>
<pdfrwt beam="1">  1        2 0.33136333E+00 0.55987949E+03</pdfrwt>
<pdfrwt beam="2">  1       -2 0.48264588E-02 0.55987949E+03</pdfrwt>
<totfact> 0.12428539E+03</totfact>
</mgrwt>
</event>
<event>
 4    1  0.2892809E-005  0.4154528E+03  0.7818608E-02  0.1038557E+00
          2   -1    0    0  501    0  0.00000000000E+00  0.00000000000E+00  0.65514505375E+02  0.65514505425E+02  0.25500000000E-02 0.  1.
         -2   -1    0    0    0  501 -0.00000000000E+00 -0.00000000000E+00 -0.65863665493E+03  0.65863665494E+03  0.25500000000E-02 0. -1.
    5000001    1    1    2    0    0  0.18022414785E+02  0.55018764874E+02 -0.39098149637E+03  0.43941142728E+03  0.19200000000E+03 0.  0.
   -5000001    1    1    2    0    0 -0.18022414785E+02 -0.55018764874E+02 -0.20214065318E+03  0.28473973308E+03  0.19200000000E+03 0.  0.
<mgrwt>
<rscale>  0 0.41545279E+03</rscale>
<asrwt>0</asrwt>
<pdfrwt beam="1">  1        2 0.93592154E-02 0.41545279E+03</pdfrwt>
<pdfrwt beam="2">  1       -2 0.94090947E-01 0.41545279E+03</pdfrwt>
<totfact> 0.69284124E+02</totfact>
</mgrwt>
</event>
<event>
 4    1  0.2892809E-005  0.8196636E+03  0.7818608E-02  0.9531983E-01
          2   -1    0    0  501    0  0.00000000000E+00  0.00000000000E+00  0.13316823084E+04  0.13316823084E+04  0.25500000000E-02 0.  1.
         -2   -1    0    0    0  501 -0.00000000000E+00 -0.00000000000E+00 -0.12612777222E+03  0.12612777224E+03  0.25500000000E-02 0. -1.
    5000001    1    1    2    0    0  0.11824668794E+02 -0.33414622716E+03  0.84989031054E+03  0.93325830501E+03  0.19200000000E+03 0.  0.
   -5000001    1    1    2    0    0 -0.11824668794E+02  0.33414622716E+03  0.35566422563E+03  0.52455177563E+03  0.19200000000E+03 0.  0.
<mgrwt>
<rscale>  0 0.81966365E+03</rscale>
<asrwt>0</asrwt>
<pdfrwt beam="1">  1        2 0.19024032E+00 0.81966365E+03</pdfrwt>
<pdfrwt beam="2">  1       -2 0.18018254E-01 0.81966365E+03</pdfrwt>
<totfact> 0.46350212E+02</totfact>
</mgrwt>
</event>
<event>
 4    1  0.2892809E-005  0.4985981E+03  0.7818608E-02  0.1014145E+00
         -2   -1    0    0    0  501 -0.00000000000E+00  0.00000000000E+00  0.25143235046E+03  0.25143235047E+03  0.25500000000E-02 0. -1.
          2   -1    0    0  501    0  0.00000000000E+00 -0.00000000000E+00 -0.24718384485E+03  0.24718384487E+03  0.25500000000E-02 0.  1.
    5000001    1    1    2    0    0  0.13486299412E+03 -0.51428316250E+02 -0.64609842980E+02  0.24873948361E+03  0.19200000000E+03 0.  0.
   -5000001    1    1    2    0    0 -0.13486299412E+03  0.51428316250E+02  0.68858348589E+02  0.24987671173E+03  0.19200000000E+03 0.  0.
<mgrwt>
<rscale>  0 0.49859810E+03</rscale>
<asrwt>0</asrwt>
<pdfrwt beam="1">  1        2 0.35311977E-01 0.49859810E+03</pdfrwt>
<pdfrwt beam="2">  1       -2 0.35918908E-01 0.49859810E+03</pdfrwt>
<totfact> 0.10798740E+03</totfact>
</mgrwt>
</event>
<event>
 4    1  0.2892809E-005  0.4292916E+03  0.7818608E-02  0.1034084E+00
          2   -1    0    0  501    0  0.00000000000E+00  0.00000000000E+00  0.23020105642E+03  0.23020105643E+03  0.25500000000E-02 0.  1.
         -2   -1    0    0    0  501 -0.00000000000E+00 -0.00000000000E+00 -0.20014168242E+03  0.20014168243E+03  0.25500000000E-02 0. -1.
    5000001    1    1    2    0    0  0.90750680365E+02 -0.29710342721E+02  0.54966033901E+01  0.21450548501E+03  0.19200000000E+03 0.  0.
   -5000001    1    1    2    0    0 -0.90750680365E+02  0.29710342721E+02  0.24562770614E+02  0.21583725385E+03  0.19200000000E+03 0.  0.
<mgrwt>
<rscale>  0 0.42929163E+03</rscale>
<asrwt>0</asrwt>
<pdfrwt beam="1">  1        2 0.32885865E-01 0.42929163E+03</pdfrwt>
<pdfrwt beam="2">  1       -2 0.28591669E-01 0.42929163E+03</pdfrwt>
<totfact> 0.17833401E+03</totfact>
</mgrwt>
</event>
<event>
 4    1  0.2892809E-005  0.5474102E+03  0.7818608E-02  0.1002095E+00
         -2   -1    0    0    0  501 -0.00000000000E+00  0.00000000000E+00  0.86024472158E+02  0.86024472196E+02  0.25500000000E-02 0. -1.
          2   -1    0    0  501    0  0.00000000000E+00 -0.00000000000E+00 -0.87085074313E+03  0.87085074314E+03  0.25500000000E-02 0.  1.
    5000001    1    1    2    0    0 -0.80013952447E+02 -0.47804813518E+02 -0.92881824338E+02  0.23276289669E+03  0.19200000000E+03 0.  0.
   -5000001    1    1    2    0    0  0.80013952447E+02  0.47804813518E+02 -0.69194444664E+03  0.72411231865E+03  0.19200000000E+03 0.  0.
<mgrwt>
<rscale>  0 0.54741018E+03</rscale>
<asrwt>0</asrwt>
<pdfrwt beam="1">  1        2 0.12440724E+00 0.54741018E+03</pdfrwt>
<pdfrwt beam="2">  1       -2 0.12289211E-01 0.54741018E+03</pdfrwt>
<totfact> 0.16660384E+03</totfact>
</mgrwt>
</event>
<event>
 4    1  0.2892809E-005  0.4781670E+03  0.7818608E-02  0.1019640E+00
         -2   -1    0    0    0  501 -0.00000000000E+00  0.00000000000E+00  0.14860865315E+03  0.14860865317E+03  0.25500000000E-02 0. -1.
          2   -1    0    0  501    0  0.00000000000E+00 -0.00000000000E+00 -0.38464066637E+03  0.38464066638E+03  0.25500000000E-02 0.  1.
    5000001    1    1    2    0    0 -0.62284730834E+02 -0.12667051368E+03 -0.13952870489E+03  0.27614682004E+03  0.19200000000E+03 0.  0.
   -5000001    1    1    2    0    0  0.62284730834E+02  0.12667051368E+03 -0.96503308331E+02  0.25710249950E+03  0.19200000000E+03 0.  0.
<mgrwt>
<rscale>  0 0.47816705E+03</rscale>
<asrwt>0</asrwt>
<pdfrwt beam="1">  1        2 0.54948666E-01 0.47816705E+03</pdfrwt>
<pdfrwt beam="2">  1       -2 0.21229808E-01 0.47816705E+03</pdfrwt>
<totfact> 0.17267145E+03</totfact>
</mgrwt>
</event>
<event>
 4    1  0.2892809E-005  0.6863478E+03  0.7818608E-02  0.9740868E-01
          2   -1    0    0  501    0  0.00000000000E+00  0.00000000000E+00  0.16937335053E+04  0.16937335053E+04  0.25500000000E-02 0.  1.
         -2   -1    0    0    0  501 -0.00000000000E+00 -0.00000000000E+00 -0.69531800319E+02  0.69531800366E+02  0.25500000000E-02 0. -1.
    5000001    1    1    2    0    0  0.22743154257E+03  0.14658730074E+03  0.10374085316E+04  0.10891709713E+04  0.19200000000E+03 0.  0.
   -5000001    1    1    2    0    0 -0.22743154257E+03 -0.14658730074E+03  0.58679317336E+03  0.67409433434E+03  0.19200000000E+03 0.  0.
<mgrwt>
<rscale>  0 0.68634784E+03</rscale>
<asrwt>0</asrwt>
<pdfrwt beam="1">  1        2 0.24196193E+00 0.68634784E+03</pdfrwt>
<pdfrwt beam="2">  1       -2 0.99331141E-02 0.68634784E+03</pdfrwt>
<totfact> 0.81507324E+02</totfact>
</mgrwt>
</event>
<event>
 4    1  0.2892809E-005  0.9441617E+03  0.7818608E-02  0.9372001E-01
          2   -1    0    0  501    0  0.00000000000E+00  0.00000000000E+00  0.96502605484E+03  0.96502605484E+03  0.25500000000E-02 0.  1.
         -2   -1    0    0    0  501 -0.00000000000E+00 -0.00000000000E+00 -0.23093712936E+03  0.23093712937E+03  0.25500000000E-02 0. -1.
    5000001    1    1    2    0    0  0.26855571059E+03  0.29200017938E+03  0.15278949878E+03  0.46647069081E+03  0.19200000000E+03 0.  0.
   -5000001    1    1    2    0    0 -0.26855571059E+03 -0.29200017938E+03  0.58129942670E+03  0.72949249340E+03  0.19200000000E+03 0.  0.
<mgrwt>
<rscale>  0 0.94416174E+03</rscale>
<asrwt>0</asrwt>
<pdfrwt beam="1">  1        2 0.13786086E+00 0.94416174E+03</pdfrwt>
<pdfrwt beam="2">  1       -2 0.32991019E-01 0.94416174E+03</pdfrwt>
<totfact> 0.25281777E+02</totfact>
</mgrwt>
</event>
<event>
 4    1  0.2892809E-005  0.1377005E+04  0.7818608E-02  0.8970633E-01
         -2   -1    0    0    0  501 -0.00000000000E+00  0.00000000000E+00  0.10824977061E+04  0.10824977061E+04  0.25500000000E-02 0. -1.
          2   -1    0    0  501    0  0.00000000000E+00 -0.00000000000E+00 -0.43790944992E+03  0.43790944993E+03  0.25500000000E-02 0.  1.
    5000001    1    1    2    0    0  0.65970557807E+03  0.41202170259E+02  0.30439116541E+03  0.75261347991E+03  0.19200000000E+03 0.  0.
   -5000001    1    1    2    0    0 -0.65970557807E+03 -0.41202170259E+02  0.34019709080E+03  0.76779367616E+03  0.19200000000E+03 0.  0.
<mgrwt>
<rscale>  0 0.13770054E+04</rscale>
<asrwt>0</asrwt>
<pdfrwt beam="1">  1        2 0.62558494E-01 0.13770054E+04</pdfrwt>
<pdfrwt beam="2">  1       -2 0.15464253E+00 0.13770054E+04</pdfrwt>
<totfact> 0.21044759E+01</totfact>
</mgrwt>
</event>
<event>
 4    1  0.2892809E-005  0.5213322E+03  0.7818608E-02  0.1008356E+00
          2   -1    0    0  501    0  0.00000000000E+00  0.00000000000E+00  0.11496731583E+04  0.11496731583E+04  0.25500000000E-02 0.  1.
         -2   -1    0    0    0  501 -0.00000000000E+00 -0.00000000000E+00 -0.59100982032E+02  0.59100982087E+02  0.25500000000E-02 0. -1.
    5000001    1    1    2    0    0  0.93450230905E+02  0.10166180829E+03  0.79943477912E+03  0.83368341412E+03  0.19200000000E+03 0.  0.
   -5000001    1    1    2    0    0 -0.93450230905E+02 -0.10166180829E+03  0.29113739720E+03  0.37509072632E+03  0.19200000000E+03 0.  0.
<mgrwt>
<rscale>  0 0.52133219E+03</rscale>
<asrwt>0</asrwt>
<pdfrwt beam="1">  1        2 0.16423902E+00 0.52133219E+03</pdfrwt>
<pdfrwt beam="2">  1       -2 0.84429974E-02 0.52133219E+03</pdfrwt>
<totfact> 0.20739167E+03</totfact>
</mgrwt>
</event>
<event>
 4    1  0.2892809E-005  0.4213637E+03  0.7818608E-02  0.1036623E+00
         -2   -1    0    0    0  501 -0.00000000000E+00  0.00000000000E+00  0.88970932385E+02  0.88970932422E+02  0.25500000000E-02 0. -1.
          2   -1    0    0  501    0  0.00000000000E+00 -0.00000000000E+00 -0.49889153848E+03  0.49889153848E+03  0.25500000000E-02 0.  1.
    5000001    1    1    2    0    0  0.32678128249E+02 -0.73414060477E+02 -0.25049757391E+03  0.32568469242E+03  0.19200000000E+03 0.  0.
   -5000001    1    1    2    0    0 -0.32678128249E+02  0.73414060477E+02 -0.15942303218E+03  0.26217777849E+03  0.19200000000E+03 0.  0.
<mgrwt>
<rscale>  0 0.42136372E+03</rscale>
<asrwt>0</asrwt>
<pdfrwt beam="1">  1        2 0.71270218E-01 0.42136372E+03</pdfrwt>
<pdfrwt beam="2">  1       -2 0.12710134E-01 0.42136372E+03</pdfrwt>
<totfact> 0.30759034E+03</totfact>
</mgrwt>
</event>
<event>
 4    1  0.2892809E-005  0.4288421E+03  0.7818608E-02  0.1034226E+00
         -2   -1    0    0    0  501 -0.00000000000E+00  0.00000000000E+00  0.54271435949E+02  0.54271436009E+02  0.25500000000E-02 0. -1.
          2   -1    0    0  501    0  0.00000000000E+00 -0.00000000000E+00 -0.84715611900E+03  0.84715611900E+03  0.25500000000E-02 0.  1.
    5000001    1    1    2    0    0  0.39417888782E+02 -0.69613623323E+02 -0.50591925215E+03  0.54700833284E+03  0.19200000000E+03 0.  0.
   -5000001    1    1    2    0    0 -0.39417888782E+02  0.69613623323E+02 -0.28696543090E+03  0.35441922216E+03  0.19200000000E+03 0.  0.
<mgrwt>
<rscale>  0 0.42884206E+03</rscale>
<asrwt>0</asrwt>
<pdfrwt beam="1">  1        2 0.12102229E+00 0.42884206E+03</pdfrwt>
<pdfrwt beam="2">  1       -2 0.77530628E-02 0.42884206E+03</pdfrwt>
<totfact> 0.36236771E+03</totfact>
</mgrwt>
</event>
<event>
 4    1  0.2892809E-005  0.9703222E+03  0.7818608E-02  0.9341707E-01
          2   -1    0    0  501    0  0.00000000000E+00  0.00000000000E+00  0.25490210562E+04  0.25490210562E+04  0.25500000000E-02 0.  1.
         -2   -1    0    0    0  501 -0.00000000000E+00 -0.00000000000E+00 -0.92341835192E+02  0.92341835227E+02  0.25500000000E-02 0. -1.
    5000001    1    1    2    0    0 -0.19496839201E+01 -0.33848009170E+03  0.43964517438E+03  0.58713239827E+03  0.19200000000E+03 0.  0.
   -5000001    1    1    2    0    0  0.19496839201E+01  0.33848009170E+03  0.20170340466E+04  0.20542304932E+04  0.19200000000E+03 0.  0.
<mgrwt>
<rscale>  0 0.97032218E+03</rscale>
<asrwt>0</asrwt>
<pdfrwt beam="1">  1        2 0.36414590E+00 0.97032218E+03</pdfrwt>
<pdfrwt beam="2">  1       -2 0.13191689E-01 0.97032218E+03</pdfrwt>
<totfact> 0.18309793E+02</totfact>
</mgrwt>
</event>
<event>
 4    1  0.2892809E-005  0.6203488E+03  0.7818608E-02  0.9864066E-01
          2   -1    0    0  501    0  0.00000000000E+00  0.00000000000E+00  0.11110285426E+03  0.11110285429E+03  0.25500000000E-02 0.  1.
         -2   -1    0    0    0  501 -0.00000000000E+00 -0.00000000000E+00 -0.86593772537E+03  0.86593772537E+03  0.25500000000E-02 0. -1.
    5000001    1    1    2    0    0 -0.20247734218E+03  0.13263946932E+03 -0.33417410474E+03  0.45511167333E+03  0.19200000000E+03 0.  0.
   -5000001    1    1    2    0    0  0.20247734218E+03 -0.13263946932E+03 -0.42066076636E+03  0.52192890634E+03  0.19200000000E+03 0.  0.
<mgrwt>
<rscale>  0 0.62034878E+03</rscale>
<asrwt>0</asrwt>
<pdfrwt beam="1">  1        2 0.15871837E-01 0.62034878E+03</pdfrwt>
<pdfrwt beam="2">  1       -2 0.12370539E+00 0.62034878E+03</pdfrwt>
<totfact> 0.18670528E+02</totfact>
</mgrwt>
</event>
<event>
 4    1  0.2892809E-005  0.1138550E+04  0.7818608E-02  0.9168412E-01
          2   -1    0    0  501    0  0.00000000000E+00  0.00000000000E+00  0.56995789532E+03  0.56995789533E+03  0.25500000000E-02 0. -1.
         -2   -1    0    0    0  501 -0.00000000000E+00 -0.00000000000E+00 -0.56859306972E+03  0.56859306973E+03  0.25500000000E-02 0.  1.
    5000001    1    1    2    0    0 -0.53113537610E+03  0.23880743998E+02  0.68025104722E+02  0.56935620885E+03  0.19200000000E+03 0.  0.
   -5000001    1    1    2    0    0  0.53113537610E+03 -0.23880743998E+02 -0.66660279122E+02  0.56919475620E+03  0.19200000000E+03 0.  0.
<mgrwt>
<rscale>  0 0.11385501E+04</rscale>
<asrwt>0</asrwt>
<pdfrwt beam="1">  1        2 0.81422557E-01 0.11385501E+04</pdfrwt>
<pdfrwt beam="2">  1       -2 0.81227581E-01 0.11385501E+04</pdfrwt>
<totfact> 0.76383056E+01</totfact>
</mgrwt>
</event>
<event>
 4    1  0.2892809E-005  0.7246101E+03  0.7818608E-02  0.9676047E-01
          2   -1    0    0  501    0  0.00000000000E+00  0.00000000000E+00  0.14298677618E+04  0.14298677618E+04  0.25500000000E-02 0.  1.
         -2   -1    0    0    0  501 -0.00000000000E+00 -0.00000000000E+00 -0.91802163575E+02  0.91802163610E+02  0.25500000000E-02 0. -1.
    5000001    1    1    2    0    0 -0.97341068508E+02 -0.13439513973E+03  0.12120467643E+04  0.12383289935E+04  0.19200000000E+03 0.  0.
   -5000001    1    1    2    0    0  0.97341068508E+02  0.13439513973E+03  0.12601883389E+03  0.28334093191E+03  0.19200000000E+03 0.  0.
<mgrwt>
<rscale>  0 0.72461011E+03</rscale>
<asrwt>0</asrwt>
<pdfrwt beam="1">  1        2 0.20426683E+00 0.72461011E+03</pdfrwt>
<pdfrwt beam="2">  1       -2 0.13114594E-01 0.72461011E+03</pdfrwt>
<totfact> 0.70660681E+02</totfact>
</mgrwt>
</event>
<event>
 4    1  0.2892809E-005  0.9347590E+03  0.7818608E-02  0.9383145E-01
          2   -1    0    0  501    0  0.00000000000E+00  0.00000000000E+00  0.43741206429E+03  0.43741206430E+03  0.25500000000E-02 0.  1.
         -2   -1    0    0    0  501 -0.00000000000E+00 -0.00000000000E+00 -0.49940003475E+03  0.49940003475E+03  0.25500000000E-02 0. -1.
    5000001    1    1    2    0    0  0.16155751216E+03 -0.32701257937E+03 -0.25179935088E+03  0.48301653171E+03  0.19200000000E+03 0.  0.
   -5000001    1    1    2    0    0 -0.16155751216E+03  0.32701257937E+03  0.18981138043E+03  0.45379556734E+03  0.19200000000E+03 0.  0.
<mgrwt>
<rscale>  0 0.93475901E+03</rscale>
<asrwt>0</asrwt>
<pdfrwt beam="1">  1        2 0.62487438E-01 0.93475901E+03</pdfrwt>
<pdfrwt beam="2">  1       -2 0.71342862E-01 0.93475901E+03</pdfrwt>
<totfact> 0.13976841E+02</totfact>
</mgrwt>
</event>
<event>
 4    1  0.2892809E-005  0.6256340E+03  0.7818608E-02  0.9853606E-01
         -2   -1    0    0    0  501 -0.00000000000E+00  0.00000000000E+00  0.80864352454E+02  0.80864352494E+02  0.25500000000E-02 0. -1.
          2   -1    0    0  501    0  0.00000000000E+00 -0.00000000000E+00 -0.12101064250E+04  0.12101064250E+04  0.25500000000E-02 0.  1.
    5000001    1    1    2    0    0 -0.22893713631E+03  0.92133015023E+02 -0.54507062105E+03  0.62838418724E+03  0.19200000000E+03 0.  0.
   -5000001    1    1    2    0    0  0.22893713631E+03 -0.92133015023E+02 -0.58417145146E+03  0.66258659022E+03  0.19200000000E+03 0.  0.
<mgrwt>
<rscale>  0 0.62563399E+03</rscale>
<asrwt>0</asrwt>
<pdfrwt beam="1">  1        2 0.17287234E+00 0.62563399E+03</pdfrwt>
<pdfrwt beam="2">  1       -2 0.11552051E-01 0.62563399E+03</pdfrwt>
<totfact> 0.11520871E+03</totfact>
</mgrwt>
</event>
<event>
 4    1  0.2892809E-005  0.5436240E+03  0.7818608E-02  0.1002981E+00
         -2   -1    0    0    0  501 -0.00000000000E+00  0.00000000000E+00  0.23194602858E+02  0.23194602998E+02  0.25500000000E-02 0. -1.
          2   -1    0    0  501    0  0.00000000000E+00 -0.00000000000E+00 -0.31853001642E+04  0.31853001642E+04  0.25500000000E-02 0.  1.
    5000001    1    1    2    0    0  0.17729015147E+03  0.15259618422E+02 -0.11492294274E+04  0.11786674385E+04  0.19200000000E+03 0.  0.
   -5000001    1    1    2    0    0 -0.17729015147E+03 -0.15259618422E+02 -0.20128761340E+04  0.20298273288E+04  0.19200000000E+03 0.  0.
<mgrwt>
<rscale>  0 0.54362403E+03</rscale>
<asrwt>0</asrwt>
<pdfrwt beam="1">  1        2 0.45504260E+00 0.54362403E+03</pdfrwt>
<pdfrwt beam="2">  1       -2 0.33135167E-02 0.54362403E+03</pdfrwt>
<totfact> 0.77438626E+02</totfact>
</mgrwt>
</event>
<event>
 4    1  0.2892809E-005  0.8226467E+03  0.7818608E-02  0.9527803E-01
          2   -1    0    0  501    0  0.00000000000E+00  0.00000000000E+00  0.14398276704E+04  0.14398276704E+04  0.25500000000E-02 0.  1.
         -2   -1    0    0    0  501 -0.00000000000E+00 -0.00000000000E+00 -0.11750496119E+03  0.11750496121E+03  0.25500000000E-02 0. -1.
    5000001    1    1    2    0    0 -0.28969348488E+03  0.21801883404E+03  0.71694665511E+03  0.82603331255E+03  0.19200000000E+03 0.  0.
   -5000001    1    1    2    0    0  0.28969348488E+03 -0.21801883404E+03  0.60537605412E+03  0.73129931907E+03  0.19200000000E+03 0.  0.
<mgrwt>
<rscale>  0 0.82264669E+03</rscale>
<asrwt>0</asrwt>
<pdfrwt beam="1">  1        2 0.20568966E+00 0.82264669E+03</pdfrwt>
<pdfrwt beam="2">  1       -2 0.16786424E-01 0.82264669E+03</pdfrwt>
<totfact> 0.45780186E+02</totfact>
</mgrwt>
</event>
<event>
 4    1  0.2892809E-005  0.1296327E+04  0.7818608E-02  0.9032483E-01
          2   -1    0    0  501    0  0.00000000000E+00  0.00000000000E+00  0.37043885095E+04  0.37043885095E+04  0.25500000000E-02 0.  1.
         -2   -1    0    0    0  501 -0.00000000000E+00 -0.00000000000E+00 -0.11341035231E+03  0.11341035234E+03  0.25500000000E-02 0. -1.
    5000001    1    1    2    0    0  0.19942231659E+03 -0.53668280369E+03  0.24890204368E+04  0.25612271330E+04  0.19200000000E+03 0.  0.
   -5000001    1    1    2    0    0 -0.19942231659E+03  0.53668280369E+03  0.11019577203E+04  0.12565717288E+04  0.19200000000E+03 0.  0.
<mgrwt>
<rscale>  0 0.12963271E+04</rscale>
<asrwt>0</asrwt>
<pdfrwt beam="1">  1        2 0.52919812E+00 0.12963271E+04</pdfrwt>
<pdfrwt beam="2">  1       -2 0.16201486E-01 0.12963271E+04</pdfrwt>
<totfact> 0.27611322E+01</totfact>
</mgrwt>
</event>
<event>
 4    1  0.2892809E-005  0.4026072E+03  0.7818608E-02  0.1042881E+00
         -2   -1    0    0    0  501 -0.00000000000E+00  0.00000000000E+00  0.18041146397E+03  0.18041146399E+03  0.25500000000E-02 0. -1.
          2   -1    0    0  501    0  0.00000000000E+00 -0.00000000000E+00 -0.22461515228E+03  0.22461515229E+03  0.25500000000E-02 0.  1.
    5000001    1    1    2    0    0  0.39030868532E+02 -0.31782664147E+02  0.11649759310E+02  0.19882973452E+03  0.19200000000E+03 0.  0.
   -5000001    1    1    2    0    0 -0.39030868532E+02  0.31782664147E+02 -0.55853447615E+02  0.20619688176E+03  0.19200000000E+03 0.  0.
<mgrwt>
<rscale>  0 0.40260725E+03</rscale>
<asrwt>0</asrwt>
<pdfrwt beam="1">  1        2 0.32087879E-01 0.40260725E+03</pdfrwt>
<pdfrwt beam="2">  1       -2 0.25773066E-01 0.40260725E+03</pdfrwt>
<totfact> 0.22080086E+03</totfact>
</mgrwt>
</event>
<event>
 4    1  0.2892809E-005  0.8469184E+03  0.7818608E-02  0.9494482E-01
          2   -1    0    0  501    0  0.00000000000E+00  0.00000000000E+00  0.74266282032E+03  0.74266282032E+03  0.25500000000E-02 0.  1.
         -2   -1    0    0    0  501 -0.00000000000E+00 -0.00000000000E+00 -0.24145234071E+03  0.24145234072E+03  0.25500000000E-02 0. -1.
    5000001    1    1    2    0    0  0.19134784914E+03 -0.93674017717E+02  0.61262758836E+03  0.67643579369E+03  0.19200000000E+03 0.  0.
   -5000001    1    1    2    0    0 -0.19134784914E+03  0.93674017717E+02 -0.11141710875E+03  0.30767936735E+03  0.19200000000E+03 0.  0.
<mgrwt>
<rscale>  0 0.84691836E+03</rscale>
<asrwt>0</asrwt>
<pdfrwt beam="1">  1        2 0.10609469E+00 0.84691836E+03</pdfrwt>
<pdfrwt beam="2">  1       -2 0.34493191E-01 0.84691836E+03</pdfrwt>
<totfact> 0.33002177E+02</totfact>
</mgrwt>
</event>
<event>
 4    1  0.2892809E-005  0.4785103E+03  0.7818608E-02  0.1019545E+00
          2   -1    0    0  501    0  0.00000000000E+00  0.00000000000E+00  0.23485830466E+03  0.23485830467E+03  0.25500000000E-02 0.  1.
         -2   -1    0    0    0  501 -0.00000000000E+00 -0.00000000000E+00 -0.24373429856E+03  0.24373429857E+03  0.25500000000E-02 0. -1.
    5000001    1    1    2    0    0  0.34271748603E+02 -0.13829084590E+03  0.45141483570E+01  0.23913027484E+03  0.19200000000E+03 0.  0.
   -5000001    1    1    2    0    0 -0.34271748603E+02  0.13829084590E+03 -0.13390142258E+02  0.23946232840E+03  0.19200000000E+03 0.  0.
<mgrwt>
<rscale>  0 0.47851029E+03</rscale>
<asrwt>0</asrwt>
<pdfrwt beam="1">  1        2 0.33551186E-01 0.47851029E+03</pdfrwt>
<pdfrwt beam="2">  1       -2 0.34819185E-01 0.47851029E+03</pdfrwt>
<totfact> 0.12118516E+03</totfact>
</mgrwt>
</event>
<event>
 4    1  0.2892809E-005  0.6167177E+03  0.7818608E-02  0.9871317E-01
         -2   -1    0    0    0  501 -0.00000000000E+00  0.00000000000E+00  0.79945899216E+03  0.79945899217E+03  0.25500000000E-02 0. -1.
          2   -1    0    0  501    0  0.00000000000E+00 -0.00000000000E+00 -0.11893691738E+03  0.11893691740E+03  0.25500000000E-02 0.  1.
    5000001    1    1    2    0    0 -0.23421770331E+03  0.52645848406E+02  0.37648394959E+03  0.48603876615E+03  0.19200000000E+03 0.  0.
   -5000001    1    1    2    0    0  0.23421770331E+03 -0.52645848406E+02  0.30403812519E+03  0.43235714342E+03  0.19200000000E+03 0.  0.
<mgrwt>
<rscale>  0 0.61671773E+03</rscale>
<asrwt>0</asrwt>
<pdfrwt beam="1">  1        2 0.16990989E-01 0.61671773E+03</pdfrwt>
<pdfrwt beam="2">  1       -2 0.11420843E+00 0.61671773E+03</pdfrwt>
<totfact> 0.20942074E+02</totfact>
</mgrwt>
</event>
<event>
 4    1  0.2892809E-005  0.7513737E+03  0.7818608E-02  0.9633198E-01
          2   -1    0    0  501    0  0.00000000000E+00  0.00000000000E+00  0.11482928030E+04  0.11482928030E+04  0.25500000000E-02 0.  1.
         -2   -1    0    0    0  501 -0.00000000000E+00 -0.00000000000E+00 -0.12291343846E+03  0.12291343849E+03  0.25500000000E-02 0. -1.
    5000001    1    1    2    0    0 -0.84860069302E+02  0.30033229305E+03  0.37240031202E+03  0.52244302082E+03  0.19200000000E+03 0.  0.
   -5000001    1    1    2    0    0  0.84860069302E+02 -0.30033229305E+03  0.65297905256E+03  0.74876322071E+03  0.19200000000E+03 0.  0.
<mgrwt>
<rscale>  0 0.75137372E+03</rscale>
<asrwt>0</asrwt>
<pdfrwt beam="1">  1        2 0.16404183E+00 0.75137372E+03</pdfrwt>
<pdfrwt beam="2">  1       -2 0.17559063E-01 0.75137372E+03</pdfrwt>
<totfact> 0.61547034E+02</totfact>
</mgrwt>
</event>
<event>
 4    1  0.2892809E-005  0.7179105E+03  0.7818608E-02  0.9687084E-01
         -2   -1    0    0    0  501 -0.00000000000E+00  0.00000000000E+00  0.22947184880E+03  0.22947184881E+03  0.25500000000E-02 0. -1.
          2   -1    0    0  501    0  0.00000000000E+00 -0.00000000000E+00 -0.56150179462E+03  0.56150179462E+03  0.25500000000E-02 0.  1.
    5000001    1    1    2    0    0 -0.81099725679E+02  0.23172841958E+03 -0.36220969282E+03  0.47784420842E+03  0.19200000000E+03 0.  0.
   -5000001    1    1    2    0    0  0.81099725679E+02 -0.23172841958E+03  0.30179747000E+02  0.31312943502E+03  0.19200000000E+03 0.  0.
<mgrwt>
<rscale>  0 0.71791045E+03</rscale>
<asrwt>0</asrwt>
<pdfrwt beam="1">  1        2 0.80214542E-01 0.71791045E+03</pdfrwt>
<pdfrwt beam="2">  1       -2 0.32781693E-01 0.71791045E+03</pdfrwt>
<totfact> 0.51170241E+02</totfact>
</mgrwt>
</event>
<event>
 4    1  0.2892809E-005  0.5507706E+03  0.7818608E-02  0.1001316E+00
         -2   -1    0    0    0  501 -0.00000000000E+00  0.00000000000E+00  0.17724663102E+03  0.17724663104E+03  0.25500000000E-02 0. -1.
          2   -1    0    0  501    0  0.00000000000E+00 -0.00000000000E+00 -0.42786174581E+03  0.42786174582E+03  0.25500000000E-02 0.  1.
    5000001    1    1    2    0    0  0.89622129307E+02 -0.16766219503E+03 -0.18375693006E+03  0.32676191187E+03  0.19200000000E+03 0.  0.
   -5000001    1    1    2    0    0 -0.89622129307E+02  0.16766219503E+03 -0.66858184734E+02  0.27834646499E+03  0.19200000000E+03 0.  0.
<mgrwt>
<rscale>  0 0.55077056E+03</rscale>
<asrwt>0</asrwt>
<pdfrwt beam="1">  1        2 0.61123106E-01 0.55077056E+03</pdfrwt>
<pdfrwt beam="2">  1       -2 0.25320947E-01 0.55077056E+03</pdfrwt>
<totfact> 0.11235629E+03</totfact>
</mgrwt>
</event>
<event>
 4    1  0.2892809E-005  0.5725789E+03  0.7818608E-02  0.9963988E-01
          2   -1    0    0  501    0  0.00000000000E+00  0.00000000000E+00  0.48443171210E+03  0.48443171210E+03  0.25500000000E-02 0.  1.
         -2   -1    0    0    0  501 -0.00000000000E+00 -0.00000000000E+00 -0.16919135982E+03  0.16919135984E+03  0.25500000000E-02 0. -1.
    5000001    1    1    2    0    0  0.29214949806E+02 -0.19135364969E+03  0.57920146943E+02  0.27872652540E+03  0.19200000000E+03 0.  0.
   -5000001    1    1    2    0    0 -0.29214949806E+02  0.19135364969E+03  0.25732020533E+03  0.37489654654E+03  0.19200000000E+03 0.  0.
<mgrwt>
<rscale>  0 0.57257894E+03</rscale>
<asrwt>0</asrwt>
<pdfrwt beam="1">  1        2 0.69204531E-01 0.57257894E+03</pdfrwt>
<pdfrwt beam="2">  1       -2 0.24170194E-01 0.57257894E+03</pdfrwt>
<totfact> 0.10621762E+03</totfact>
</mgrwt>
</event>
<event>
 4    1  0.2892809E-005  0.4441237E+03  0.7818608E-02  0.1029489E+00
          2   -1    0    0  501    0  0.00000000000E+00  0.00000000000E+00  0.21287315283E+04  0.21287315283E+04  0.25500000000E-02 0.  1.
         -2   -1    0    0    0  501 -0.00000000000E+00 -0.00000000000E+00 -0.23164712863E+02  0.23164713003E+02  0.25500000000E-02 0. -1.
    5000001    1    1    2    0    0  0.85675196762E+02  0.22087713655E+02  0.72347123827E+03  0.75372590445E+03  0.19200000000E+03 0.  0.
   -5000001    1    1    2    0    0 -0.85675196762E+02 -0.22087713655E+02  0.13820955772E+04  0.13981703368E+04  0.19200000000E+03 0.  0.
<mgrwt>
<rscale>  0 0.44412365E+03</rscale>
<asrwt>0</asrwt>
<pdfrwt beam="1">  1        2 0.30410438E+00 0.44412365E+03</pdfrwt>
<pdfrwt beam="2">  1       -2 0.33092460E-02 0.44412365E+03</pdfrwt>
<totfact> 0.27758563E+03</totfact>
</mgrwt>
</event>
<event>
 4    1  0.2892809E-005  0.4473128E+03  0.7818608E-02  0.1028526E+00
          2   -1    0    0  501    0  0.00000000000E+00  0.00000000000E+00  0.10774051576E+04  0.10774051576E+04  0.25500000000E-02 0.  1.
         -2   -1    0    0    0  501 -0.00000000000E+00 -0.00000000000E+00 -0.46428383335E+02  0.46428383405E+02  0.25500000000E-02 0. -1.
    5000001    1    1    2    0    0  0.49908827019E+02  0.82628978459E+02  0.35980522959E+03  0.41909693668E+03  0.19200000000E+03 0.  0.
   -5000001    1    1    2    0    0 -0.49908827019E+02 -0.82628978459E+02  0.67117154467E+03  0.70473660432E+03  0.19200000000E+03 0.  0.
<mgrwt>
<rscale>  0 0.44731278E+03</rscale>
<asrwt>0</asrwt>
<pdfrwt beam="1">  1        2 0.15391504E+00 0.44731278E+03</pdfrwt>
<pdfrwt beam="2">  1       -2 0.66326254E-02 0.44731278E+03</pdfrwt>
<totfact> 0.33404993E+03</totfact>
</mgrwt>
</event>
<event>
 4    1  0.2892809E-005  0.6913926E+03  0.7818608E-02  0.9732066E-01
          2   -1    0    0  501    0  0.00000000000E+00  0.00000000000E+00  0.64330224432E+03  0.64330224433E+03  0.25500000000E-02 0.  1.
         -2   -1    0    0    0  501 -0.00000000000E+00 -0.00000000000E+00 -0.18576949949E+03  0.18576949951E+03  0.25500000000E-02 0. -1.
    5000001    1    1    2    0    0  0.66010574591E+02  0.25976092836E+03  0.35343469667E+03  0.48333551563E+03  0.19200000000E+03 0.  0.
   -5000001    1    1    2    0    0 -0.66010574591E+02 -0.25976092836E+03  0.10409804817E+03  0.34573622821E+03  0.19200000000E+03 0.  0.
<mgrwt>
<rscale>  0 0.69139261E+03</rscale>
<asrwt>0</asrwt>
<pdfrwt beam="1">  1        2 0.91900321E-01 0.69139261E+03</pdfrwt>
<pdfrwt beam="2">  1       -2 0.26538500E-01 0.69139261E+03</pdfrwt>
<totfact> 0.64411495E+02</totfact>
</mgrwt>
</event>
<event>
 4    1  0.2892809E-005  0.8530947E+03  0.7818608E-02  0.9486193E-01
         -2   -1    0    0    0  501 -0.00000000000E+00  0.00000000000E+00  0.41841981070E+03  0.41841981071E+03  0.25500000000E-02 0. -1.
          2   -1    0    0  501    0  0.00000000000E+00 -0.00000000000E+00 -0.43483272834E+03  0.43483272835E+03  0.25500000000E-02 0.  1.
    5000001    1    1    2    0    0 -0.34358109478E+03  0.14116638270E+03 -0.92499641574E+02  0.42824770867E+03  0.19200000000E+03 0.  0.
   -5000001    1    1    2    0    0  0.34358109478E+03 -0.14116638270E+03  0.76086723936E+02  0.42500483039E+03  0.19200000000E+03 0.  0.
<mgrwt>
<rscale>  0 0.85309467E+03</rscale>
<asrwt>0</asrwt>
<pdfrwt beam="1">  1        2 0.62118961E-01 0.85309467E+03</pdfrwt>
<pdfrwt beam="2">  1       -2 0.59774259E-01 0.85309467E+03</pdfrwt>
<totfact> 0.20661432E+02</totfact>
</mgrwt>
</event>
<event>
 4    1  0.2892809E-005  0.5369270E+03  0.7818608E-02  0.1004566E+00
         -2   -1    0    0    0  501 -0.00000000000E+00  0.00000000000E+00  0.33747758462E+02  0.33747758559E+02  0.25500000000E-02 0. -1.
          2   -1    0    0  501    0  0.00000000000E+00 -0.00000000000E+00 -0.21356280771E+04  0.21356280771E+04  0.25500000000E-02 0.  1.
    5000001    1    1    2    0    0  0.39512888554E+02 -0.16001564051E+03 -0.14132765971E+04  0.14357510276E+04  0.19200000000E+03 0.  0.
   -5000001    1    1    2    0    0 -0.39512888554E+02  0.16001564051E+03 -0.68860372156E+03  0.73362480800E+03  0.19200000000E+03 0.  0.
<mgrwt>
<rscale>  0 0.53692704E+03</rscale>
<asrwt>0</asrwt>
<pdfrwt beam="1">  1        2 0.30508964E+00 0.53692704E+03</pdfrwt>
<pdfrwt beam="2">  1       -2 0.48211097E-02 0.53692704E+03</pdfrwt>
<totfact> 0.15425571E+03</totfact>
</mgrwt>
</event>
<event>
 4    1  0.2892809E-005  0.8352308E+03  0.7818608E-02  0.9510377E-01
         -2   -1    0    0    0  501 -0.00000000000E+00  0.00000000000E+00  0.66306326138E+02  0.66306326187E+02  0.25500000000E-02 0. -1.
          2   -1    0    0  501    0  0.00000000000E+00 -0.00000000000E+00 -0.26302559405E+04  0.26302559405E+04  0.25500000000E-02 0.  1.
    5000001    1    1    2    0    0  0.29868734493E+03 -0.21868031174E+03 -0.13544117925E+04  0.14171557827E+04  0.19200000000E+03 0.  0.
   -5000001    1    1    2    0    0 -0.29868734493E+03  0.21868031174E+03 -0.12095378218E+04  0.12794064840E+04  0.19200000000E+03 0.  0.
<mgrwt>
<rscale>  0 0.83523077E+03</rscale>
<asrwt>0</asrwt>
<pdfrwt beam="1">  1        2 0.37575078E+00 0.83523077E+03</pdfrwt>
<pdfrwt beam="2">  1       -2 0.94723340E-02 0.83523077E+03</pdfrwt>
<totfact> 0.28977355E+02</totfact>
</mgrwt>
</event>
<event>
 4    1  0.2892809E-005  0.4597426E+03  0.7818608E-02  0.1024856E+00
         -2   -1    0    0    0  501 -0.00000000000E+00  0.00000000000E+00  0.12247662358E+03  0.12247662360E+03  0.25500000000E-02 0. -1.
          2   -1    0    0  501    0  0.00000000000E+00 -0.00000000000E+00 -0.43143588092E+03  0.43143588093E+03  0.25500000000E-02 0.  1.
    5000001    1    1    2    0    0  0.35364619024E+02 -0.11948123146E+03 -0.18004901763E+03  0.29121825097E+03  0.19200000000E+03 0.  0.
   -5000001    1    1    2    0    0 -0.35364619024E+02  0.11948123146E+03 -0.12891023972E+03  0.26269425356E+03  0.19200000000E+03 0.  0.
<mgrwt>
<rscale>  0 0.45974258E+03</rscale>
<asrwt>0</asrwt>
<pdfrwt beam="1">  1        2 0.61633697E-01 0.45974258E+03</pdfrwt>
<pdfrwt beam="2">  1       -2 0.17496661E-01 0.45974258E+03</pdfrwt>
<totfact> 0.21223974E+03</totfact>
</mgrwt>
</event>
<event>
 4    1  0.2892809E-005  0.9438374E+03  0.7818608E-02  0.9372383E-01
         -2   -1    0    0    0  501 -0.00000000000E+00  0.00000000000E+00  0.52774655673E+03  0.52774655673E+03  0.25500000000E-02 0. -1.
          2   -1    0    0  501    0  0.00000000000E+00 -0.00000000000E+00 -0.42199662211E+03  0.42199662212E+03  0.25500000000E-02 0.  1.
    5000001    1    1    2    0    0 -0.32684941358E+03 -0.22766666813E+03 -0.11302206692E+03  0.45639964784E+03  0.19200000000E+03 0.  0.
   -5000001    1    1    2    0    0  0.32684941358E+03  0.22766666813E+03  0.21877200154E+03  0.49334353101E+03  0.19200000000E+03 0.  0.
<mgrwt>
<rscale>  0 0.94383741E+03</rscale>
<asrwt>0</asrwt>
<pdfrwt beam="1">  1        2 0.60285231E-01 0.94383741E+03</pdfrwt>
<pdfrwt beam="2">  1       -2 0.75392366E-01 0.94383741E+03</pdfrwt>
<totfact> 0.12878757E+02</totfact>
</mgrwt>
</event>
<event>
 4    1  0.2892809E-005  0.4497078E+03  0.7818608E-02  0.1027809E+00
         -2   -1    0    0    0  501 -0.00000000000E+00  0.00000000000E+00  0.70259532673E+02  0.70259532720E+02  0.25500000000E-02 0. -1.
          2   -1    0    0  501    0  0.00000000000E+00 -0.00000000000E+00 -0.71960721246E+03  0.71960721246E+03  0.25500000000E-02 0.  1.
    5000001    1    1    2    0    0  0.98364998334E+02  0.29795487100E+02 -0.22638096818E+03  0.31412702320E+03  0.19200000000E+03 0.  0.
   -5000001    1    1    2    0    0 -0.98364998334E+02 -0.29795487100E+02 -0.42296671160E+03  0.47573972199E+03  0.19200000000E+03 0.  0.
<mgrwt>
<rscale>  0 0.44970776E+03</rscale>
<asrwt>0</asrwt>
<pdfrwt beam="1">  1        2 0.10280103E+00 0.44970776E+03</pdfrwt>
<pdfrwt beam="2">  1       -2 0.10037077E-01 0.44970776E+03</pdfrwt>
<totfact> 0.29475505E+03</totfact>
</mgrwt>
</event>
<event>
 4    1  0.2892809E-005  0.4492916E+03  0.7818608E-02  0.1027934E+00
          2   -1    0    0  501    0  0.00000000000E+00  0.00000000000E+00  0.16688836376E+04  0.16688836376E+04  0.25500000000E-02 0.  1.
         -2   -1    0    0    0  501 -0.00000000000E+00 -0.00000000000E+00 -0.30239216405E+02  0.30239216513E+02  0.25500000000E-02 0. -1.
    5000001    1    1    2    0    0  0.11643331210E+03  0.30317925840E+01  0.84195788434E+03  0.87139140857E+03  0.19200000000E+03 0.  0.
   -5000001    1    1    2    0    0 -0.11643331210E+03 -0.30317925840E+01  0.79668653684E+03  0.82773144552E+03  0.19200000000E+03 0.  0.
<mgrwt>
<rscale>  0 0.44929159E+03</rscale>
<asrwt>0</asrwt>
<pdfrwt beam="1">  1        2 0.23841197E+00 0.44929159E+03</pdfrwt>
<pdfrwt beam="2">  1       -2 0.43198876E-02 0.44929159E+03</pdfrwt>
<totfact> 0.31369349E+03</totfact>
</mgrwt>
</event>
<event>
 4    1  0.2892809E-005  0.4268797E+03  0.7818608E-02  0.1034850E+00
         -2   -1    0    0    0  501 -0.00000000000E+00  0.00000000000E+00  0.58384805744E+03  0.58384805744E+03  0.25500000000E-02 0. -1.
          2   -1    0    0  501    0  0.00000000000E+00 -0.00000000000E+00 -0.78028131323E+02  0.78028131365E+02  0.25500000000E-02 0.  1.
    5000001    1    1    2    0    0  0.51137203161E+02  0.43884856314E+02  0.35281401656E+03  0.40728690679E+03  0.19200000000E+03 0.  0.
   -5000001    1    1    2    0    0 -0.51137203161E+02 -0.43884856314E+02  0.15300590956E+03  0.25458928202E+03  0.19200000000E+03 0.  0.
<mgrwt>
<rscale>  0 0.42687972E+03</rscale>
<asrwt>0</asrwt>
<pdfrwt beam="1">  1        2 0.11146876E-01 0.42687972E+03</pdfrwt>
<pdfrwt beam="2">  1       -2 0.83406861E-01 0.42687972E+03</pdfrwt>
<totfact> 0.73187751E+02</totfact>
</mgrwt>
</event>
<event>
 4    1  0.2892809E-005  0.1349225E+04  0.7818608E-02  0.8991415E-01
         -2   -1    0    0    0  501 -0.00000000000E+00  0.00000000000E+00  0.11875129255E+04  0.11875129255E+04  0.25500000000E-02 0. -1.
          2   -1    0    0  501    0  0.00000000000E+00 -0.00000000000E+00 -0.38323941986E+03  0.38323941987E+03  0.25500000000E-02 0.  1.
    5000001    1    1    2    0    0 -0.21787719886E+03  0.41408612243E+03 -0.11759240535E+03  0.51925886066E+03  0.19200000000E+03 0.  0.
   -5000001    1    1    2    0    0  0.21787719886E+03 -0.41408612243E+03  0.92186591103E+03  0.10514934848E+04  0.19200000000E+03 0.  0.
<mgrwt>
<rscale>  0 0.13492246E+04</rscale>
<asrwt>0</asrwt>
<pdfrwt beam="1">  1        2 0.54748487E-01 0.13492246E+04</pdfrwt>
<pdfrwt beam="2">  1       -2 0.16964471E+00 0.13492246E+04</pdfrwt>
<totfact> 0.19008887E+01</totfact>
</mgrwt>
</event>
<event>
 4    1  0.2892809E-005  0.5121850E+03  0.7818608E-02  0.1010646E+00
          2   -1    0    0  501    0  0.00000000000E+00  0.00000000000E+00  0.10497067431E+04  0.10497067431E+04  0.25500000000E-02 0.  1.
         -2   -1    0    0    0  501 -0.00000000000E+00 -0.00000000000E+00 -0.62477808376E+02  0.62477808429E+02  0.25500000000E-02 0. -1.
    5000001    1    1    2    0    0  0.53610561872E+02  0.15743857372E+03  0.42297120041E+03  0.49338588672E+03  0.19200000000E+03 0.  0.
   -5000001    1    1    2    0    0 -0.53610561872E+02 -0.15743857372E+03  0.56425773431E+03  0.61879866481E+03  0.19200000000E+03 0.  0.
<mgrwt>
<rscale>  0 0.51218503E+03</rscale>
<asrwt>0</asrwt>
<pdfrwt beam="1">  1        2 0.14995811E+00 0.51218503E+03</pdfrwt>
<pdfrwt beam="2">  1       -2 0.89254011E-02 0.51218503E+03</pdfrwt>
<totfact> 0.21684212E+03</totfact>
</mgrwt>
</event>
<event>
 4    1  0.2892809E-005  0.6825562E+03  0.7818608E-02  0.9747537E-01
          2   -1    0    0  501    0  0.00000000000E+00  0.00000000000E+00  0.12087448858E+04  0.12087448858E+04  0.25500000000E-02 0.  1.
         -2   -1    0    0    0  501 -0.00000000000E+00 -0.00000000000E+00 -0.96356758498E+02  0.96356758531E+02  0.25500000000E-02 0. -1.
    5000001    1    1    2    0    0  0.52984897519E+02 -0.24949017098E+03  0.78686720264E+03  0.84916237515E+03  0.19200000000E+03 0.  0.
   -5000001    1    1    2    0    0 -0.52984897519E+02  0.24949017098E+03  0.32552092464E+03  0.45593926916E+03  0.19200000000E+03 0.  0.
<mgrwt>
<rscale>  0 0.68255619E+03</rscale>
<asrwt>0</asrwt>
<pdfrwt beam="1">  1        2 0.17267785E+00 0.68255619E+03</pdfrwt>
<pdfrwt beam="2">  1       -2 0.13765250E-01 0.68255619E+03</pdfrwt>
<totfact> 0.86157024E+02</totfact>
</mgrwt>
</event>
<event>
 4    1  0.2892809E-005  0.6691004E+03  0.7818608E-02  0.9771584E-01
          2   -1    0    0  501    0  0.00000000000E+00  0.00000000000E+00  0.38020410825E+03  0.38020410826E+03  0.25500000000E-02 0.  1.
         -2   -1    0    0    0  501 -0.00000000000E+00 -0.00000000000E+00 -0.29437829515E+03  0.29437829517E+03  0.25500000000E-02 0. -1.
    5000001    1    1    2    0    0  0.26183891274E+03 -0.75071891100E+02  0.72555020441E+02  0.34106251047E+03  0.19200000000E+03 0.  0.
   -5000001    1    1    2    0    0 -0.26183891274E+03  0.75071891100E+02  0.13270792660E+02  0.33351989296E+03  0.19200000000E+03 0.  0.
<mgrwt>
<rscale>  0 0.66910040E+03</rscale>
<asrwt>0</asrwt>
<pdfrwt beam="1">  1        2 0.54314873E-01 0.66910040E+03</pdfrwt>
<pdfrwt beam="2">  1       -2 0.42054042E-01 0.66910040E+03</pdfrwt>
<totfact> 0.49405692E+02</totfact>
</mgrwt>
</event>
<event>
 4    1  0.2892809E-005  0.4945795E+03  0.7818608E-02  0.1015204E+00
          2   -1    0    0  501    0  0.00000000000E+00  0.00000000000E+00  0.11188227062E+04  0.11188227062E+04  0.25500000000E-02 0.  1.
         -2   -1    0    0    0  501 -0.00000000000E+00 -0.00000000000E+00 -0.54657640667E+02  0.54657640727E+02  0.25500000000E-02 0. -1.
    5000001    1    1    2    0    0  0.16308379225E+02  0.66347873911E+02  0.86442935332E+03  0.88812730534E+03  0.19200000000E+03 0.  0.
   -5000001    1    1    2    0    0 -0.16308379225E+02 -0.66347873911E+02  0.19973571217E+03  0.28535304155E+03  0.19200000000E+03 0.  0.
<mgrwt>
<rscale>  0 0.49457946E+03</rscale>
<asrwt>0</asrwt>
<pdfrwt beam="1">  1        2 0.15983181E+00 0.49457946E+03</pdfrwt>
<pdfrwt beam="2">  1       -2 0.78082348E-02 0.49457946E+03</pdfrwt>
<totfact> 0.24458919E+03</totfact>
</mgrwt>
</event>
<event>
 4    1  0.2892809E-005  0.4626770E+03  0.7818608E-02  0.1024008E+00
         -2   -1    0    0    0  501 -0.00000000000E+00  0.00000000000E+00  0.22161462191E+03  0.22161462192E+03  0.25500000000E-02 0. -1.
          2   -1    0    0  501    0  0.00000000000E+00 -0.00000000000E+00 -0.24148907288E+03  0.24148907289E+03  0.25500000000E-02 0.  1.
    5000001    1    1    2    0    0 -0.58432411865E+02 -0.10761118169E+03 -0.50705565197E+02  0.23330145204E+03  0.19200000000E+03 0.  0.
   -5000001    1    1    2    0    0  0.58432411865E+02  0.10761118169E+03  0.30831114226E+02  0.22980224278E+03  0.19200000000E+03 0.  0.
<mgrwt>
<rscale>  0 0.46267703E+03</rscale>
<asrwt>0</asrwt>
<pdfrwt beam="1">  1        2 0.34498439E-01 0.46267703E+03</pdfrwt>
<pdfrwt beam="2">  1       -2 0.31659232E-01 0.46267703E+03</pdfrwt>
<totfact> 0.14035205E+03</totfact>
</mgrwt>
</event>
<event>
 4    1  0.2892809E-005  0.4170353E+03  0.7818608E-02  0.1038036E+00
          2   -1    0    0  501    0  0.00000000000E+00  0.00000000000E+00  0.31896565152E+03  0.31896565153E+03  0.25500000000E-02 0.  1.
         -2   -1    0    0    0  501 -0.00000000000E+00 -0.00000000000E+00 -0.13631440007E+03  0.13631440010E+03  0.25500000000E-02 0. -1.
    5000001    1    1    2    0    0 -0.51159719831E+02  0.62894834110E+02  0.84205696328E+02  0.22478362126E+03  0.19200000000E+03 0.  0.
   -5000001    1    1    2    0    0  0.51159719831E+02 -0.62894834110E+02  0.98445555120E+02  0.23049643037E+03  0.19200000000E+03 0.  0.
<mgrwt>
<rscale>  0 0.41703531E+03</rscale>
<asrwt>0</asrwt>
<pdfrwt beam="1">  1        2 0.45566521E-01 0.41703531E+03</pdfrwt>
<pdfrwt beam="2">  1       -2 0.19473486E-01 0.41703531E+03</pdfrwt>
<totfact> 0.24589169E+03</totfact>
</mgrwt>
</event>
<event>
 4    1  0.2892809E-005  0.4589133E+03  0.7818608E-02  0.1025097E+00
         -2   -1    0    0    0  501 -0.00000000000E+00  0.00000000000E+00  0.15739147471E+02  0.15739147677E+02  0.25500000000E-02 0. -1.
          2   -1    0    0  501    0  0.00000000000E+00 -0.00000000000E+00 -0.33451841803E+04  0.33451841803E+04  0.25500000000E-02 0.  1.
    5000001    1    1    2    0    0  0.95073714791E+02 -0.10453976454E+02 -0.10680331914E+04  0.10893609112E+04  0.19200000000E+03 0.  0.
   -5000001    1    1    2    0    0 -0.95073714791E+02  0.10453976454E+02 -0.22614118414E+04  0.22715624168E+04  0.19200000000E+03 0.  0.
<mgrwt>
<rscale>  0 0.45891327E+03</rscale>
<asrwt>0</asrwt>
<pdfrwt beam="1">  1        2 0.47788300E+00 0.45891327E+03</pdfrwt>
<pdfrwt beam="2">  1       -2 0.22484518E-02 0.45891327E+03</pdfrwt>
<totfact> 0.11395963E+03</totfact>
</mgrwt>
</event>
<event>
 4    1  0.2892809E-005  0.4575614E+03  0.7818608E-02  0.1025491E+00
          2   -1    0    0  501    0  0.00000000000E+00  0.00000000000E+00  0.39333647431E+03  0.39333647431E+03  0.25500000000E-02 0.  1.
         -2   -1    0    0    0  501 -0.00000000000E+00 -0.00000000000E+00 -0.13306829939E+03  0.13306829942E+03  0.25500000000E-02 0. -1.
    5000001    1    1    2    0    0 -0.20394667511E+02  0.10792292532E+03  0.19734791443E+03  0.29643464643E+03  0.19200000000E+03 0.  0.
   -5000001    1    1    2    0    0  0.20394667511E+02 -0.10792292532E+03  0.62920260483E+02  0.22997012730E+03  0.19200000000E+03 0.  0.
<mgrwt>
<rscale>  0 0.45756143E+03</rscale>
<asrwt>0</asrwt>
<pdfrwt beam="1">  1        2 0.56190925E-01 0.45756143E+03</pdfrwt>
<pdfrwt beam="2">  1       -2 0.19009757E-01 0.45756143E+03</pdfrwt>
<totfact> 0.20394543E+03</totfact>
</mgrwt>
</event>
<event>
 4    1  0.2892809E-005  0.7337791E+03  0.7818608E-02  0.9661148E-01
          2   -1    0    0  501    0  0.00000000000E+00  0.00000000000E+00  0.11326178631E+04  0.11326178631E+04  0.25500000000E-02 0.  1.
         -2   -1    0    0    0  501 -0.00000000000E+00 -0.00000000000E+00 -0.11884672725E+03  0.11884672727E+03  0.25500000000E-02 0. -1.
    5000001    1    1    2    0    0 -0.25666573665E+03  0.15036139303E+03  0.34278365008E+03  0.49279861977E+03  0.19200000000E+03 0.  0.
   -5000001    1    1    2    0    0  0.25666573665E+03 -0.15036139303E+03  0.67098748573E+03  0.75866597057E+03  0.19200000000E+03 0.  0.
<mgrwt>
<rscale>  0 0.73377906E+03</rscale>
<asrwt>0</asrwt>
<pdfrwt beam="1">  1        2 0.16180256E+00 0.73377906E+03</pdfrwt>
<pdfrwt beam="2">  1       -2 0.16978103E-01 0.73377906E+03</pdfrwt>
<totfact> 0.66624109E+02</totfact>
</mgrwt>
</event>
<event>
 4    1  0.2892809E-005  0.5111504E+03  0.7818608E-02  0.1010909E+00
         -2   -1    0    0    0  501 -0.00000000000E+00  0.00000000000E+00  0.16955531329E+03  0.16955531331E+03  0.25500000000E-02 0. -1.
          2   -1    0    0  501    0  0.00000000000E+00 -0.00000000000E+00 -0.38523526922E+03  0.38523526923E+03  0.25500000000E-02 0.  1.
    5000001    1    1    2    0    0  0.15234273153E+03  0.61732793514E+02 -0.14896186684E+03  0.29338180485E+03  0.19200000000E+03 0.  0.
   -5000001    1    1    2    0    0 -0.15234273153E+03 -0.61732793514E+02 -0.66718089090E+02  0.26140877769E+03  0.19200000000E+03 0.  0.
<mgrwt>
<rscale>  0 0.51115042E+03</rscale>
<asrwt>0</asrwt>
<pdfrwt beam="1">  1        2 0.55033610E-01 0.51115042E+03</pdfrwt>
<pdfrwt beam="2">  1       -2 0.24222188E-01 0.51115042E+03</pdfrwt>
<totfact> 0.13664557E+03</totfact>
</mgrwt>
</event>
<event>
 4    1  0.2892809E-005  0.5301074E+03  0.7818608E-02  0.1006206E+00
         -2   -1    0    0    0  501 -0.00000000000E+00  0.00000000000E+00  0.28767269049E+02  0.28767269162E+02  0.25500000000E-02 0. -1.
          2   -1    0    0  501    0  0.00000000000E+00 -0.00000000000E+00 -0.24421316678E+04  0.24421316678E+04  0.25500000000E-02 0.  1.
    5000001    1    1    2    0    0  0.15725393055E+03 -0.89538857688E+02 -0.13249181655E+04  0.13509323265E+04  0.19200000000E+03 0.  0.
   -5000001    1    1    2    0    0 -0.15725393055E+03  0.89538857688E+02 -0.10884462333E+04  0.11199666104E+04  0.19200000000E+03 0.  0.
<mgrwt>
<rscale>  0 0.53010738E+03</rscale>
<asrwt>0</asrwt>
<pdfrwt beam="1">  1        2 0.34887582E+00 0.53010738E+03</pdfrwt>
<pdfrwt beam="2">  1       -2 0.41096114E-02 0.53010738E+03</pdfrwt>
<totfact> 0.13824382E+03</totfact>
</mgrwt>
</event>
<event>
 4    1  0.2892809E-005  0.8369572E+03  0.7818608E-02  0.9508012E-01
          2   -1    0    0  501    0  0.00000000000E+00  0.00000000000E+00  0.67461577882E+03  0.67461577882E+03  0.25500000000E-02 0.  1.
         -2   -1    0    0    0  501 -0.00000000000E+00 -0.00000000000E+00 -0.25959123678E+03  0.25959123680E+03  0.25500000000E-02 0. -1.
    5000001    1    1    2    0    0 -0.47799833549E+02  0.36742701918E+03  0.17269655915E+03  0.45163651320E+03  0.19200000000E+03 0.  0.
   -5000001    1    1    2    0    0  0.47799833549E+02 -0.36742701918E+03  0.24232798288E+03  0.48257050242E+03  0.19200000000E+03 0.  0.
<mgrwt>
<rscale>  0 0.83695721E+03</rscale>
<asrwt>0</asrwt>
<pdfrwt beam="1">  1        2 0.96373680E-01 0.83695721E+03</pdfrwt>
<pdfrwt beam="2">  1       -2 0.37084463E-01 0.83695721E+03</pdfrwt>
<totfact> 0.32382627E+02</totfact>
</mgrwt>
</event>
<event>
 4    1  0.2892809E-005  0.5114243E+03  0.7818608E-02  0.1010839E+00
         -2   -1    0    0    0  501 -0.00000000000E+00  0.00000000000E+00  0.14022813404E+03  0.14022813406E+03  0.25500000000E-02 0. -1.
          2   -1    0    0  501    0  0.00000000000E+00 -0.00000000000E+00 -0.46630229855E+03  0.46630229856E+03  0.25500000000E-02 0.  1.
    5000001    1    1    2    0    0 -0.16227460900E+03 -0.24416789719E+02 -0.11566571071E+03  0.27779810111E+03  0.19200000000E+03 0.  0.
   -5000001    1    1    2    0    0  0.16227460900E+03  0.24416789719E+02 -0.21040845380E+03  0.32873233151E+03  0.19200000000E+03 0.  0.
<mgrwt>
<rscale>  0 0.51142429E+03</rscale>
<asrwt>0</asrwt>
<pdfrwt beam="1">  1        2 0.66614614E-01 0.51142429E+03</pdfrwt>
<pdfrwt beam="2">  1       -2 0.20032591E-01 0.51142429E+03</pdfrwt>
<totfact> 0.15432429E+03</totfact>
</mgrwt>
</event>
<event>
 4    1  0.2892809E-005  0.6925995E+03  0.7818608E-02  0.9729972E-01
          2   -1    0    0  501    0  0.00000000000E+00  0.00000000000E+00  0.52886260944E+03  0.52886260945E+03  0.25500000000E-02 0.  1.
         -2   -1    0    0    0  501 -0.00000000000E+00 -0.00000000000E+00 -0.22675743293E+03  0.22675743295E+03  0.25500000000E-02 0. -1.
    5000001    1    1    2    0    0 -0.22457482126E+03 -0.15933706935E+03  0.58238942120E+02  0.34070210799E+03  0.19200000000E+03 0.  0.
   -5000001    1    1    2    0    0  0.22457482126E+03  0.15933706935E+03  0.24386623439E+03  0.41491793440E+03  0.19200000000E+03 0.  0.
<mgrwt>
<rscale>  0 0.69259953E+03</rscale>
<asrwt>0</asrwt>
<pdfrwt beam="1">  1        2 0.75551802E-01 0.69259953E+03</pdfrwt>
<pdfrwt beam="2">  1       -2 0.32393919E-01 0.69259953E+03</pdfrwt>
<totfact> 0.56127012E+02</totfact>
</mgrwt>
</event>
<event>
 4    1  0.2892809E-005  0.1172363E+04  0.7818608E-02  0.9137397E-01
          2   -1    0    0  501    0  0.00000000000E+00  0.00000000000E+00  0.24312781705E+04  0.24312781705E+04  0.25500000000E-02 0.  1.
         -2   -1    0    0    0  501 -0.00000000000E+00 -0.00000000000E+00 -0.14132848898E+03  0.14132848900E+03  0.25500000000E-02 0. -1.
    5000001    1    1    2    0    0 -0.53188464163E+03  0.11520783289E+03  0.91936180903E+03  0.10854788126E+04  0.19200000000E+03 0.  0.
   -5000001    1    1    2    0    0  0.53188464163E+03 -0.11520783289E+03  0.13705878725E+04  0.14871278469E+04  0.19200000000E+03 0.  0.
<mgrwt>
<rscale>  0 0.11723632E+04</rscale>
<asrwt>0</asrwt>
<pdfrwt beam="1">  1        2 0.34732545E+00 0.11723632E+04</pdfrwt>
<pdfrwt beam="2">  1       -2 0.20189784E-01 0.11723632E+04</pdfrwt>
<totfact> 0.10000350E+02</totfact>
</mgrwt>
</event>
<event>
 4    1  0.2892809E-005  0.5402080E+03  0.7818608E-02  0.1003786E+00
         -2   -1    0    0    0  501 -0.00000000000E+00  0.00000000000E+00  0.26694201635E+03  0.26694201636E+03  0.25500000000E-02 0. -1.
          2   -1    0    0  501    0  0.00000000000E+00 -0.00000000000E+00 -0.27330343880E+03  0.27330343881E+03  0.25500000000E-02 0.  1.
    5000001    1    1    2    0    0  0.15414611852E+03 -0.86889143265E+02  0.65971909909E+02  0.26930845135E+03  0.19200000000E+03 0.  0.
   -5000001    1    1    2    0    0 -0.15414611852E+03  0.86889143265E+02 -0.72333332354E+02  0.27093700382E+03  0.19200000000E+03 0.  0.
<mgrwt>
<rscale>  0 0.54020800E+03</rscale>
<asrwt>0</asrwt>
<pdfrwt beam="1">  1        2 0.39043349E-01 0.54020800E+03</pdfrwt>
<pdfrwt beam="2">  1       -2 0.38134574E-01 0.54020800E+03</pdfrwt>
<totfact> 0.86201100E+02</totfact>
</mgrwt>
</event>
<event>
 4    1  0.2892809E-005  0.9246082E+03  0.7818608E-02  0.9395332E-01
         -2   -1    0    0    0  501 -0.00000000000E+00  0.00000000000E+00  0.53499519176E+03  0.53499519177E+03  0.25500000000E-02 0.  1.
          2   -1    0    0  501    0  0.00000000000E+00 -0.00000000000E+00 -0.39948973615E+03  0.39948973616E+03  0.25500000000E-02 0. -1.
    5000001    1    1    2    0    0 -0.29152034989E+03 -0.11174033174E+02 -0.23838904603E+03  0.42285022252E+03  0.19200000000E+03 0.  0.
   -5000001    1    1    2    0    0  0.29152034989E+03  0.11174033174E+02  0.37389450164E+03  0.51163470540E+03  0.19200000000E+03 0.  0.
<mgrwt>
<rscale>  0 0.92460822E+03</rscale>
<asrwt>0</asrwt>
<pdfrwt beam="1">  1        2 0.57069962E-01 0.92460822E+03</pdfrwt>
<pdfrwt beam="2">  1       -2 0.76427885E-01 0.92460822E+03</pdfrwt>
<totfact> 0.13299122E+02</totfact>
</mgrwt>
</event>
<event>
 4    1  0.2892809E-005  0.7473641E+03  0.7818608E-02  0.9639495E-01
         -2   -1    0    0    0  501 -0.00000000000E+00  0.00000000000E+00  0.15609939942E+03  0.15609939944E+03  0.25500000000E-02 0. -1.
          2   -1    0    0  501    0  0.00000000000E+00 -0.00000000000E+00 -0.89454720684E+03  0.89454720684E+03  0.25500000000E-02 0.  1.
    5000001    1    1    2    0    0  0.19235033225E+03 -0.25645855205E+03 -0.36619489180E+03  0.52319435970E+03  0.19200000000E+03 0.  0.
   -5000001    1    1    2    0    0 -0.19235033225E+03  0.25645855205E+03 -0.37225291562E+03  0.52745224658E+03  0.19200000000E+03 0.  0.
<mgrwt>
<rscale>  0 0.74736412E+03</rscale>
<asrwt>0</asrwt>
<pdfrwt beam="1">  1        2 0.12779246E+00 0.74736412E+03</pdfrwt>
<pdfrwt beam="2">  1       -2 0.22299915E-01 0.74736412E+03</pdfrwt>
<totfact> 0.57895316E+02</totfact>
</mgrwt>
</event>
<event>
 4    1  0.2892809E-005  0.5712479E+03  0.7818608E-02  0.9966921E-01
         -2   -1    0    0    0  501 -0.00000000000E+00  0.00000000000E+00  0.36820287142E+03  0.36820287143E+03  0.25500000000E-02 0. -1.
          2   -1    0    0  501    0  0.00000000000E+00 -0.00000000000E+00 -0.22156546226E+03  0.22156546227E+03  0.25500000000E-02 0.  1.
    5000001    1    1    2    0    0 -0.19167297487E+03  0.84181114759E+02  0.10415423662E+03  0.30255097816E+03  0.19200000000E+03 0.  0.
   -5000001    1    1    2    0    0  0.19167297487E+03 -0.84181114759E+02  0.42483172545E+02  0.28721735555E+03  0.19200000000E+03 0.  0.
<mgrwt>
<rscale>  0 0.57124790E+03</rscale>
<asrwt>0</asrwt>
<pdfrwt beam="1">  1        2 0.31652209E-01 0.57124790E+03</pdfrwt>
<pdfrwt beam="2">  1       -2 0.52600410E-01 0.57124790E+03</pdfrwt>
<totfact> 0.57534192E+02</totfact>
</mgrwt>
</event>
<event>
 4    1  0.2892809E-005  0.6110020E+03  0.7818608E-02  0.9882840E-01
          2   -1    0    0  501    0  0.00000000000E+00  0.00000000000E+00  0.77268611195E+03  0.77268611195E+03  0.25500000000E-02 0.  1.
         -2   -1    0    0    0  501 -0.00000000000E+00 -0.00000000000E+00 -0.12078753420E+03  0.12078753422E+03  0.25500000000E-02 0. -1.
    5000001    1    1    2    0    0 -0.12092279792E+02  0.12213685718E+03  0.62349669849E+03  0.66383414204E+03  0.19200000000E+03 0.  0.
   -5000001    1    1    2    0    0  0.12092279792E+02 -0.12213685718E+03  0.28401879257E+02  0.22963950413E+03  0.19200000000E+03 0.  0.
<mgrwt>
<rscale>  0 0.61100196E+03</rscale>
<asrwt>0</asrwt>
<pdfrwt beam="1">  1        2 0.11038373E+00 0.61100196E+03</pdfrwt>
<pdfrwt beam="2">  1       -2 0.17255362E-01 0.61100196E+03</pdfrwt>
<totfact> 0.10989769E+03</totfact>
</mgrwt>
</event>
<event>
 4    1  0.2892809E-005  0.6070795E+03  0.7818608E-02  0.9890826E-01
         -2   -1    0    0    0  501 -0.00000000000E+00  0.00000000000E+00  0.17100602316E+03  0.17100602318E+03  0.25500000000E-02 0. -1.
          2   -1    0    0  501    0  0.00000000000E+00 -0.00000000000E+00 -0.53879017235E+03  0.53879017236E+03  0.25500000000E-02 0.  1.
    5000001    1    1    2    0    0 -0.13148739879E+03 -0.19314266630E+03 -0.15341793544E+03  0.33910778302E+03  0.19200000000E+03 0.  0.
   -5000001    1    1    2    0    0  0.13148739879E+03  0.19314266630E+03 -0.21436621374E+03  0.37068841253E+03  0.19200000000E+03 0.  0.
<mgrwt>
<rscale>  0 0.60707945E+03</rscale>
<asrwt>0</asrwt>
<pdfrwt beam="1">  1        2 0.76970024E-01 0.60707945E+03</pdfrwt>
<pdfrwt beam="2">  1       -2 0.24429432E-01 0.60707945E+03</pdfrwt>
<totfact> 0.92265025E+02</totfact>
</mgrwt>
</event>
<event>
 4    1  0.2892809E-005  0.4727205E+03  0.7818608E-02  0.1021155E+00
          2   -1    0    0  501    0  0.00000000000E+00  0.00000000000E+00  0.61693959023E+03  0.61693959023E+03  0.25500000000E-02 0.  1.
         -2   -1    0    0    0  501 -0.00000000000E+00 -0.00000000000E+00 -0.90553711337E+02  0.90553711373E+02  0.25500000000E-02 0. -1.
    5000001    1    1    2    0    0  0.63844381842E+02  0.98479621262E+01  0.80939797384E+02  0.21814751489E+03  0.19200000000E+03 0.  0.
   -5000001    1    1    2    0    0 -0.63844381842E+02 -0.98479621262E+01  0.44544608151E+03  0.48934578672E+03  0.19200000000E+03 0.  0.
<mgrwt>
<rscale>  0 0.47272051E+03</rscale>
<asrwt>0</asrwt>
<pdfrwt beam="1">  1        2 0.88134226E-01 0.47272051E+03</pdfrwt>
<pdfrwt beam="2">  1       -2 0.12936245E-01 0.47272051E+03</pdfrwt>
<totfact> 0.23447723E+03</totfact>
</mgrwt>
</event>
<event>
 4    1  0.2892809E-005  0.7972116E+03  0.7818608E-02  0.9564062E-01
          2   -1    0    0  501    0  0.00000000000E+00  0.00000000000E+00  0.44488726089E+03  0.44488726090E+03  0.25500000000E-02 0.  1.
         -2   -1    0    0    0  501 -0.00000000000E+00 -0.00000000000E+00 -0.35713894285E+03  0.35713894286E+03  0.25500000000E-02 0. -1.
    5000001    1    1    2    0    0  0.26303261474E+03  0.11251488987E+03 -0.15777791534E+03  0.37895069260E+03  0.19200000000E+03 0.  0.
   -5000001    1    1    2    0    0 -0.26303261474E+03 -0.11251488987E+03  0.24552623338E+03  0.42307551115E+03  0.19200000000E+03 0.  0.
<mgrwt>
<rscale>  0 0.79721156E+03</rscale>
<asrwt>0</asrwt>
<pdfrwt beam="1">  1        2 0.63555323E-01 0.79721156E+03</pdfrwt>
<pdfrwt beam="2">  1       -2 0.51019849E-01 0.79721156E+03</pdfrwt>
<totfact> 0.28033375E+02</totfact>
</mgrwt>
</event>
<event>
 4    1  0.2892809E-005  0.5989908E+03  0.7818608E-02  0.9907502E-01
          2   -1    0    0  501    0  0.00000000000E+00  0.00000000000E+00  0.20132192314E+04  0.20132192314E+04  0.25500000000E-02 0.  1.
         -2   -1    0    0    0  501 -0.00000000000E+00 -0.00000000000E+00 -0.44554262521E+02  0.44554262594E+02  0.25500000000E-02 0. -1.
    5000001    1    1    2    0    0  0.94558185202E+02  0.13020065301E+03  0.42046570533E+03  0.48943729914E+03  0.19200000000E+03 0.  0.
   -5000001    1    1    2    0    0 -0.94558185202E+02 -0.13020065301E+03  0.15481992635E+04  0.15683361948E+04  0.19200000000E+03 0.  0.
<mgrwt>
<rscale>  0 0.59899081E+03</rscale>
<asrwt>0</asrwt>
<pdfrwt beam="1">  1        2 0.28760285E+00 0.59899081E+03</pdfrwt>
<pdfrwt beam="2">  1       -2 0.63648924E-02 0.59899081E+03</pdfrwt>
<totfact> 0.11487822E+03</totfact>
</mgrwt>
</event>
<event>
 4    1  0.2892809E-005  0.5077090E+03  0.7818608E-02  0.1011786E+00
         -2   -1    0    0    0  501 -0.00000000000E+00  0.00000000000E+00  0.35722655054E+03  0.35722655055E+03  0.25500000000E-02 0. -1.
          2   -1    0    0  501    0  0.00000000000E+00 -0.00000000000E+00 -0.18039559500E+03  0.18039559501E+03  0.25500000000E-02 0.  1.
    5000001    1    1    2    0    0  0.12541753259E+03  0.74402150271E+02  0.17255021816E+03  0.29648408934E+03  0.19200000000E+03 0.  0.
   -5000001    1    1    2    0    0 -0.12541753259E+03 -0.74402150271E+02  0.42807373807E+01  0.24113805622E+03  0.19200000000E+03 0.  0.
<mgrwt>
<rscale>  0 0.50770896E+03</rscale>
<asrwt>0</asrwt>
<pdfrwt beam="1">  1        2 0.25770800E-01 0.50770896E+03</pdfrwt>
<pdfrwt beam="2">  1       -2 0.51032364E-01 0.50770896E+03</pdfrwt>
<totfact> 0.77166441E+02</totfact>
</mgrwt>
</event>
<event>
 4    1  0.2892809E-005  0.1814462E+04  0.7818608E-02  0.8698646E-01
          2   -1    0    0  501    0  0.00000000000E+00  0.00000000000E+00  0.26141227300E+04  0.26141227300E+04  0.25500000000E-02 0.  1.
         -2   -1    0    0    0  501 -0.00000000000E+00 -0.00000000000E+00 -0.31485455854E+03  0.31485455855E+03  0.25500000000E-02 0. -1.
    5000001    1    1    2    0    0  0.46021425508E+03  0.54601664482E+03  0.30116241565E+03  0.79843229995E+03  0.19200000000E+03 0.  0.
   -5000001    1    1    2    0    0 -0.46021425508E+03 -0.54601664482E+03  0.19981057558E+04  0.21305449886E+04  0.19200000000E+03 0.  0.
<mgrwt>
<rscale>  0 0.18144624E+04</rscale>
<asrwt>0</asrwt>
<pdfrwt beam="1">  1        2 0.37344610E+00 0.18144624E+04</pdfrwt>
<pdfrwt beam="2">  1       -2 0.44979224E-01 0.18144624E+04</pdfrwt>
<totfact> 0.17005786E+01</totfact>
</mgrwt>
</event>
<event>
 4    1  0.2892809E-005  0.5190035E+03  0.7818608E-02  0.1008934E+00
          2   -1    0    0  501    0  0.00000000000E+00  0.00000000000E+00  0.13260815405E+03  0.13260815407E+03  0.25500000000E-02 0. -1.
         -2   -1    0    0    0  501 -0.00000000000E+00 -0.00000000000E+00 -0.50782065394E+03  0.50782065395E+03  0.25500000000E-02 0.  1.
    5000001    1    1    2    0    0 -0.17409199122E+03 -0.11611006282E+02 -0.18037703844E+03  0.31597897536E+03  0.19200000000E+03 0.  0.
   -5000001    1    1    2    0    0  0.17409199122E+03  0.11611006282E+02 -0.19483546145E+03  0.32444983266E+03  0.19200000000E+03 0.  0.
<mgrwt>
<rscale>  0 0.51900350E+03</rscale>
<asrwt>0</asrwt>
<pdfrwt beam="1">  1        2 0.18944022E-01 0.51900350E+03</pdfrwt>
<pdfrwt beam="2">  1       -2 0.72545807E-01 0.51900350E+03</pdfrwt>
<totfact> 0.52500035E+02</totfact>
</mgrwt>
</event>
<event>
 4    1  0.2892809E-005  0.4121352E+03  0.7818608E-02  0.1039657E+00
         -2   -1    0    0    0  501 -0.00000000000E+00  0.00000000000E+00  0.11181796911E+02  0.11181797202E+02  0.25500000000E-02 0. -1.
          2   -1    0    0  501    0  0.00000000000E+00 -0.00000000000E+00 -0.37975883429E+04  0.37975883429E+04  0.25500000000E-02 0.  1.
    5000001    1    1    2    0    0  0.60623979588E+02  0.42741336336E+02 -0.19845841745E+04  0.19952294190E+04  0.19200000000E+03 0.  0.
   -5000001    1    1    2    0    0 -0.60623979588E+02 -0.42741336336E+02 -0.18018223715E+04  0.18135407211E+04  0.19200000000E+03 0.  0.
<mgrwt>
<rscale>  0 0.41213523E+03</rscale>
<asrwt>0</asrwt>
<pdfrwt beam="1">  1        2 0.54251180E+00 0.41213523E+03</pdfrwt>
<pdfrwt beam="2">  1       -2 0.15974020E-02 0.41213523E+03</pdfrwt>
<totfact> 0.10231108E+03</totfact>
</mgrwt>
</event>
<event>
 4    1  0.2892809E-005  0.5703123E+03  0.7818608E-02  0.9968988E-01
          2   -1    0    0  501    0  0.00000000000E+00  0.00000000000E+00  0.18534586329E+04  0.18534586329E+04  0.25500000000E-02 0.  1.
         -2   -1    0    0    0  501 -0.00000000000E+00 -0.00000000000E+00 -0.43871508855E+02  0.43871508929E+02  0.25500000000E-02 0. -1.
    5000001    1    1    2    0    0  0.12427078156E+03  0.75158095791E+02  0.14132439281E+04  0.14336018858E+04  0.19200000000E+03 0.  0.
   -5000001    1    1    2    0    0 -0.12427078156E+03 -0.75158095791E+02  0.39634319592E+03  0.46372825605E+03  0.19200000000E+03 0.  0.
<mgrwt>
<rscale>  0 0.57031229E+03</rscale>
<asrwt>0</asrwt>
<pdfrwt beam="1">  1        2 0.26477977E+00 0.57031229E+03</pdfrwt>
<pdfrwt beam="2">  1       -2 0.62673591E-02 0.57031229E+03</pdfrwt>
<totfact> 0.14178521E+03</totfact>
</mgrwt>
</event>
<event>
 4    1  0.2892809E-005  0.7172768E+03  0.7818608E-02  0.9688134E-01
          2   -1    0    0  501    0  0.00000000000E+00  0.00000000000E+00  0.46989691536E+03  0.46989691536E+03  0.25500000000E-02 0.  1.
         -2   -1    0    0    0  501 -0.00000000000E+00 -0.00000000000E+00 -0.27372277851E+03  0.27372277852E+03  0.25500000000E-02 0. -1.
    5000001    1    1    2    0    0  0.28722644219E+03  0.62729247925E+02  0.22445100860E+02  0.35185475724E+03  0.19200000000E+03 0.  0.
   -5000001    1    1    2    0    0 -0.28722644219E+03 -0.62729247925E+02  0.17372903598E+03  0.39176493664E+03  0.19200000000E+03 0.  0.
<mgrwt>
<rscale>  0 0.71727676E+03</rscale>
<asrwt>0</asrwt>
<pdfrwt beam="1">  1        2 0.67128130E-01 0.71727676E+03</pdfrwt>
<pdfrwt beam="2">  1       -2 0.39103254E-01 0.71727676E+03</pdfrwt>
<totfact> 0.44848138E+02</totfact>
</mgrwt>
</event>
<event>
 4    1  0.2892809E-005  0.4910719E+03  0.7818608E-02  0.1016136E+00
         -2   -1    0    0    0  501 -0.00000000000E+00  0.00000000000E+00  0.15172380541E+04  0.15172380541E+04  0.25500000000E-02 0. -1.
          2   -1    0    0  501    0  0.00000000000E+00 -0.00000000000E+00 -0.39735288270E+02  0.39735288352E+02  0.25500000000E-02 0.  1.
    5000001    1    1    2    0    0 -0.12762357132E+03 -0.57064435416E+02  0.93623855331E+03  0.96589375940E+03  0.19200000000E+03 0.  0.
   -5000001    1    1    2    0    0  0.12762357132E+03  0.57064435416E+02  0.54126421248E+03  0.59107958301E+03  0.19200000000E+03 0.  0.
<mgrwt>
<rscale>  0 0.49107185E+03</rscale>
<asrwt>0</asrwt>
<pdfrwt beam="1">  1        2 0.56764699E-02 0.49107185E+03</pdfrwt>
<pdfrwt beam="2">  1       -2 0.21674829E+00 0.49107185E+03</pdfrwt>
<totfact> 0.14939443E+02</totfact>
</mgrwt>
</event>
<event>
 4    1  0.2892809E-005  0.1454229E+04  0.7818608E-02  0.8915474E-01
         -2   -1    0    0    0  501 -0.00000000000E+00  0.00000000000E+00  0.34842111287E+03  0.34842111288E+03  0.25500000000E-02 0. -1.
          2   -1    0    0  501    0  0.00000000000E+00 -0.00000000000E+00 -0.15174034316E+04  0.15174034316E+04  0.25500000000E-02 0.  1.
    5000001    1    1    2    0    0  0.66961560595E+03  0.56797950925E+02 -0.32717868969E+03  0.77170004661E+03  0.19200000000E+03 0.  0.
   -5000001    1    1    2    0    0 -0.66961560595E+03 -0.56797950925E+02 -0.84180362904E+03  0.10941244979E+04  0.19200000000E+03 0.  0.
<mgrwt>
<rscale>  0 0.14542289E+04</rscale>
<asrwt>0</asrwt>
<pdfrwt beam="1">  1        2 0.21677191E+00 0.14542289E+04</pdfrwt>
<pdfrwt beam="2">  1       -2 0.49774446E-01 0.14542289E+04</pdfrwt>
<totfact> 0.53040787E+01</totfact>
</mgrwt>
</event>
<event>
 4    1  0.2892809E-005  0.5198880E+03  0.7818608E-02  0.1008714E+00
         -2   -1    0    0    0  501 -0.00000000000E+00  0.00000000000E+00  0.36847428230E+02  0.36847428318E+02  0.25500000000E-02 0. -1.
          2   -1    0    0  501    0  0.00000000000E+00 -0.00000000000E+00 -0.18338018369E+04  0.18338018369E+04  0.25500000000E-02 0.  1.
    5000001    1    1    2    0    0 -0.10835716149E+03  0.15970238517E+02 -0.13906594654E+04  0.14081172081E+04  0.19200000000E+03 0.  0.
   -5000001    1    1    2    0    0  0.10835716149E+03 -0.15970238517E+02 -0.40629494329E+03  0.46253205716E+03  0.19200000000E+03 0.  0.
<mgrwt>
<rscale>  0 0.51988799E+03</rscale>
<asrwt>0</asrwt>
<pdfrwt beam="1">  1        2 0.26197163E+00 0.51988799E+03</pdfrwt>
<pdfrwt beam="2">  1       -2 0.52639195E-02 0.51988799E+03</pdfrwt>
<totfact> 0.19078546E+03</totfact>
</mgrwt>
</event>
<event>
 4    1  0.2892809E-005  0.4693020E+03  0.7818608E-02  0.1022117E+00
         -2   -1    0    0    0  501 -0.00000000000E+00  0.00000000000E+00  0.14992241179E+02  0.14992241395E+02  0.25500000000E-02 0. -1.
          2   -1    0    0  501    0  0.00000000000E+00 -0.00000000000E+00 -0.36726394203E+04  0.36726394203E+04  0.25500000000E-02 0.  1.
    5000001    1    1    2    0    0 -0.12774808234E+03 -0.41191278767E+02 -0.17231668599E+04  0.17390182060E+04  0.19200000000E+03 0.  0.
   -5000001    1    1    2    0    0  0.12774808234E+03  0.41191278767E+02 -0.19344803192E+04  0.19486134556E+04  0.19200000000E+03 0.  0.
<mgrwt>
<rscale>  0 0.46930202E+03</rscale>
<asrwt>0</asrwt>
<pdfrwt beam="1">  1        2 0.52466220E+00 0.46930202E+03</pdfrwt>
<pdfrwt beam="2">  1       -2 0.21417511E-02 0.46930202E+03</pdfrwt>
<totfact> 0.78406689E+02</totfact>
</mgrwt>
</event>
<event>
 4    1  0.2892809E-005  0.8302938E+03  0.7818608E-02  0.9517174E-01
         -2   -1    0    0    0  501 -0.00000000000E+00  0.00000000000E+00  0.12900906543E+04  0.12900906543E+04  0.25500000000E-02 0. -1.
          2   -1    0    0  501    0  0.00000000000E+00 -0.00000000000E+00 -0.13359289126E+03  0.13359289128E+03  0.25500000000E-02 0.  1.
    5000001    1    1    2    0    0  0.36287672194E+03 -0.57914015445E+02  0.54189972400E+03  0.68231434059E+03  0.19200000000E+03 0.  0.
   -5000001    1    1    2    0    0 -0.36287672194E+03  0.57914015445E+02  0.61459803906E+03  0.74136920500E+03  0.19200000000E+03 0.  0.
<mgrwt>
<rscale>  0 0.83029378E+03</rscale>
<asrwt>0</asrwt>
<pdfrwt beam="1">  1        2 0.19084698E-01 0.83029378E+03</pdfrwt>
<pdfrwt beam="2">  1       -2 0.18429867E+00 0.83029378E+03</pdfrwt>
<totfact> 0.51405839E+01</totfact>
</mgrwt>
</event>
<event>
 4    1  0.2892809E-005  0.7598611E+03  0.7818608E-02  0.9620006E-01
          2   -1    0    0  501    0  0.00000000000E+00  0.00000000000E+00  0.20483507706E+04  0.20483507706E+04  0.25500000000E-02 0.  1.
         -2   -1    0    0    0  501 -0.00000000000E+00 -0.00000000000E+00 -0.70469981115E+02  0.70469981161E+02  0.25500000000E-02 0. -1.
    5000001    1    1    2    0    0  0.18070783089E+03  0.21895630722E+03  0.14461586115E+04  0.14862152988E+04  0.19200000000E+03 0.  0.
   -5000001    1    1    2    0    0 -0.18070783089E+03 -0.21895630722E+03  0.53172217793E+03  0.63260545297E+03  0.19200000000E+03 0.  0.
<mgrwt>
<rscale>  0 0.75986115E+03</rscale>
<asrwt>0</asrwt>
<pdfrwt beam="1">  1        2 0.29262156E+00 0.75986115E+03</pdfrwt>
<pdfrwt beam="2">  1       -2 0.10067140E-01 0.75986115E+03</pdfrwt>
<totfact> 0.52478312E+02</totfact>
</mgrwt>
</event>
<event>
 4    1  0.2892809E-005  0.5242131E+03  0.7818608E-02  0.1007645E+00
          2   -1    0    0  501    0  0.00000000000E+00  0.00000000000E+00  0.96339494352E+03  0.96339494352E+03  0.25500000000E-02 0.  1.
         -2   -1    0    0    0  501 -0.00000000000E+00 -0.00000000000E+00 -0.71310169172E+02  0.71310169218E+02  0.25500000000E-02 0. -1.
    5000001    1    1    2    0    0  0.11674723072E+03  0.41624364141E+02  0.69938000657E+03  0.73577095428E+03  0.19200000000E+03 0.  0.
   -5000001    1    1    2    0    0 -0.11674723072E+03 -0.41624364141E+02  0.19270476778E+03  0.29893415846E+03  0.19200000000E+03 0.  0.
<mgrwt>
<rscale>  0 0.52421315E+03</rscale>
<asrwt>0</asrwt>
<pdfrwt beam="1">  1        2 0.13762784E+00 0.52421315E+03</pdfrwt>
<pdfrwt beam="2">  1       -2 0.10187167E-01 0.52421315E+03</pdfrwt>
<totfact> 0.19762249E+03</totfact>
</mgrwt>
</event>
<event>
 4    1  0.2892809E-005  0.9390953E+03  0.7818608E-02  0.9377988E-01
          2   -1    0    0  501    0  0.00000000000E+00  0.00000000000E+00  0.80831920003E+03  0.80831920004E+03  0.25500000000E-02 0.  1.
         -2   -1    0    0    0  501 -0.00000000000E+00 -0.00000000000E+00 -0.27275736912E+03  0.27275736914E+03  0.25500000000E-02 0. -1.
    5000001    1    1    2    0    0  0.24161982426E+03  0.34197050357E+03  0.37257743039E+03  0.59245413866E+03  0.19200000000E+03 0.  0.
   -5000001    1    1    2    0    0 -0.24161982426E+03 -0.34197050357E+03  0.16298440052E+03  0.48862243051E+03  0.19200000000E+03 0.  0.
<mgrwt>
<rscale>  0 0.93909535E+03</rscale>
<asrwt>0</asrwt>
<pdfrwt beam="1">  1        2 0.11547417E+00 0.93909535E+03</pdfrwt>
<pdfrwt beam="2">  1       -2 0.38965338E-01 0.93909535E+03</pdfrwt>
<totfact> 0.23336201E+02</totfact>
</mgrwt>
</event>
<event>
 4    1  0.2892809E-005  0.9268915E+03  0.7818608E-02  0.9392576E-01
          2   -1    0    0  501    0  0.00000000000E+00  0.00000000000E+00  0.16534984517E+04  0.16534984517E+04  0.25500000000E-02 0.  1.
         -2   -1    0    0    0  501 -0.00000000000E+00 -0.00000000000E+00 -0.12989547464E+03  0.12989547467E+03  0.25500000000E-02 0. -1.
    5000001    1    1    2    0    0  0.41126340168E+03 -0.53372972029E+02  0.61361513589E+03  0.76509724525E+03  0.19200000000E+03 0.  0.
   -5000001    1    1    2    0    0 -0.41126340168E+03  0.53372972029E+02  0.90998784117E+03  0.10182966811E+04  0.19200000000E+03 0.  0.
<mgrwt>
<rscale>  0 0.92689151E+03</rscale>
<asrwt>0</asrwt>
<pdfrwt beam="1">  1        2 0.23621406E+00 0.92689151E+03</pdfrwt>
<pdfrwt beam="2">  1       -2 0.18556497E-01 0.92689151E+03</pdfrwt>
<totfact> 0.29578919E+02</totfact>
</mgrwt>
</event>
<event>
 4    1  0.2892809E-005  0.4353168E+03  0.7818608E-02  0.1032193E+00
          2   -1    0    0  501    0  0.00000000000E+00  0.00000000000E+00  0.34217262147E+03  0.34217262148E+03  0.25500000000E-02 0.  1.
         -2   -1    0    0    0  501 -0.00000000000E+00 -0.00000000000E+00 -0.13845401964E+03  0.13845401966E+03  0.25500000000E-02 0. -1.
    5000001    1    1    2    0    0 -0.91026590275E+02  0.43493102617E+02  0.12202766208E+03  0.24886189026E+03  0.19200000000E+03 0.  0.
   -5000001    1    1    2    0    0  0.91026590275E+02 -0.43493102617E+02  0.81690939756E+02  0.23176475088E+03  0.19200000000E+03 0.  0.
<mgrwt>
<rscale>  0 0.43531678E+03</rscale>
<asrwt>0</asrwt>
<pdfrwt beam="1">  1        2 0.48881803E-01 0.43531678E+03</pdfrwt>
<pdfrwt beam="2">  1       -2 0.19779146E-01 0.43531678E+03</pdfrwt>
<totfact> 0.22181751E+03</totfact>
</mgrwt>
</event>
<event>
 4    1  0.2892809E-005  0.7671442E+03  0.7818608E-02  0.9608831E-01
         -2   -1    0    0    0  501 -0.00000000000E+00  0.00000000000E+00  0.83060546640E+02  0.83060546679E+02  0.25500000000E-02 0. -1.
          2   -1    0    0  501    0  0.00000000000E+00 -0.00000000000E+00 -0.17713291936E+04  0.17713291936E+04  0.25500000000E-02 0.  1.
    5000001    1    1    2    0    0  0.21999152222E+03  0.15409118547E+03 -0.37215963784E+03  0.49750091389E+03  0.19200000000E+03 0.  0.
   -5000001    1    1    2    0    0 -0.21999152222E+03 -0.15409118547E+03 -0.13161090092E+04  0.13568888264E+04  0.19200000000E+03 0.  0.
<mgrwt>
<rscale>  0 0.76714424E+03</rscale>
<asrwt>0</asrwt>
<pdfrwt beam="1">  1        2 0.25304700E+00 0.76714424E+03</pdfrwt>
<pdfrwt beam="2">  1       -2 0.11865793E-01 0.76714424E+03</pdfrwt>
<totfact> 0.55361025E+02</totfact>
</mgrwt>
</event>
<event>
 4    1  0.2892809E-005  0.5527628E+03  0.7818608E-02  0.1000856E+00
         -2   -1    0    0    0  501 -0.00000000000E+00  0.00000000000E+00  0.46854392768E+02  0.46854392838E+02  0.25500000000E-02 0. -1.
          2   -1    0    0  501    0  0.00000000000E+00 -0.00000000000E+00 -0.16302994475E+04  0.16302994475E+04  0.25500000000E-02 0.  1.
    5000001    1    1    2    0    0  0.17703264186E+03 -0.83840777223E+02 -0.68870240554E+03  0.74131291343E+03  0.19200000000E+03 0.  0.
   -5000001    1    1    2    0    0 -0.17703264186E+03  0.83840777223E+02 -0.89474264919E+03  0.93584092692E+03  0.19200000000E+03 0.  0.
<mgrwt>
<rscale>  0 0.55276285E+03</rscale>
<asrwt>0</asrwt>
<pdfrwt beam="1">  1        2 0.23289989E+00 0.55276285E+03</pdfrwt>
<pdfrwt beam="2">  1       -2 0.66934857E-02 0.55276285E+03</pdfrwt>
<totfact> 0.16595824E+03</totfact>
</mgrwt>
</event>
<event>
 4    1  0.2892809E-005  0.5954070E+03  0.7818608E-02  0.9914981E-01
         -2   -1    0    0    0  501 -0.00000000000E+00  0.00000000000E+00  0.13679037277E+03  0.13679037280E+03  0.25500000000E-02 0. -1.
          2   -1    0    0  501    0  0.00000000000E+00 -0.00000000000E+00 -0.64790656901E+03  0.64790656901E+03  0.25500000000E-02 0.  1.
    5000001    1    1    2    0    0 -0.18333305091E+02  0.21985072338E+03 -0.32885288463E+03  0.44008938907E+03  0.19200000000E+03 0.  0.
   -5000001    1    1    2    0    0  0.18333305091E+02 -0.21985072338E+03 -0.18226331160E+03  0.34460755273E+03  0.19200000000E+03 0.  0.
<mgrwt>
<rscale>  0 0.59540702E+03</rscale>
<asrwt>0</asrwt>
<pdfrwt beam="1">  1        2 0.92558079E-01 0.59540702E+03</pdfrwt>
<pdfrwt beam="2">  1       -2 0.19541482E-01 0.59540702E+03</pdfrwt>
<totfact> 0.11015103E+03</totfact>
</mgrwt>
</event>
<event>
 4    1  0.2892809E-005  0.4179908E+03  0.7818608E-02  0.1037722E+00
         -2   -1    0    0    0  501 -0.00000000000E+00  0.00000000000E+00  0.10469249012E+03  0.10469249016E+03  0.25500000000E-02 0. -1.
          2   -1    0    0  501    0  0.00000000000E+00 -0.00000000000E+00 -0.41721306158E+03  0.41721306158E+03  0.25500000000E-02 0.  1.
    5000001    1    1    2    0    0 -0.37680983982E+02 -0.56551793411E+02 -0.21478662360E+03  0.29599874252E+03  0.19200000000E+03 0.  0.
   -5000001    1    1    2    0    0  0.37680983982E+02  0.56551793411E+02 -0.97733947847E+02  0.22590680922E+03  0.19200000000E+03 0.  0.
<mgrwt>
<rscale>  0 0.41799079E+03</rscale>
<asrwt>0</asrwt>
<pdfrwt beam="1">  1        2 0.59601865E-01 0.41799079E+03</pdfrwt>
<pdfrwt beam="2">  1       -2 0.14956070E-01 0.41799079E+03</pdfrwt>
<totfact> 0.28659114E+03</totfact>
</mgrwt>
</event>
<event>
 4    1  0.2892809E-005  0.7118763E+03  0.7818608E-02  0.9697135E-01
          2   -1    0    0  501    0  0.00000000000E+00  0.00000000000E+00  0.10423591339E+04  0.10423591339E+04  0.25500000000E-02 0. -1.
         -2   -1    0    0    0  501 -0.00000000000E+00 -0.00000000000E+00 -0.12154348718E+03  0.12154348720E+03  0.25500000000E-02 0.  1.
    5000001    1    1    2    0    0  0.36596372438E+02 -0.26330756287E+03  0.23410764379E+03  0.40291507296E+03  0.19200000000E+03 0.  0.
   -5000001    1    1    2    0    0 -0.36596372438E+02  0.26330756287E+03  0.68670800298E+03  0.76098754819E+03  0.19200000000E+03 0.  0.
<mgrwt>
<rscale>  0 0.71187629E+03</rscale>
<asrwt>0</asrwt>
<pdfrwt beam="1">  1        2 0.14890844E+00 0.71187629E+03</pdfrwt>
<pdfrwt beam="2">  1       -2 0.17363356E-01 0.71187629E+03</pdfrwt>
<totfact> 0.72513077E+02</totfact>
</mgrwt>
</event>
<event>
 4    1  0.2892809E-005  0.5532667E+03  0.7818608E-02  0.1000741E+00
          2   -1    0    0  501    0  0.00000000000E+00  0.00000000000E+00  0.55881686992E+02  0.55881687050E+02  0.25500000000E-02 0.  1.
         -2   -1    0    0    0  501 -0.00000000000E+00 -0.00000000000E+00 -0.13694289479E+04  0.13694289479E+04  0.25500000000E-02 0. -1.
    5000001    1    1    2    0    0 -0.11954931693E+03  0.10207272602E+03 -0.97177459021E+03  0.10029559984E+04  0.19200000000E+03 0.  0.
   -5000001    1    1    2    0    0  0.11954931693E+03 -0.10207272602E+03 -0.34177267073E+03  0.42235463657E+03  0.19200000000E+03 0.  0.
<mgrwt>
<rscale>  0 0.55326666E+03</rscale>
<asrwt>0</asrwt>
<pdfrwt beam="1">  1        2 0.79830990E-02 0.55326666E+03</pdfrwt>
<pdfrwt beam="2">  1       -2 0.19563269E+00 0.55326666E+03</pdfrwt>
<totfact> 0.12957863E+02</totfact>
</mgrwt>
</event>
<event>
 4    1  0.2892809E-005  0.4349333E+03  0.7818608E-02  0.1032313E+00
         -2   -1    0    0    0  501 -0.00000000000E+00  0.00000000000E+00  0.10454594185E+03  0.10454594188E+03  0.25500000000E-02 0. -1.
          2   -1    0    0  501    0  0.00000000000E+00 -0.00000000000E+00 -0.45235366385E+03  0.45235366386E+03  0.25500000000E-02 0.  1.
    5000001    1    1    2    0    0  0.85332131832E+02 -0.33208009473E+02 -0.11602360322E+03  0.24230109599E+03  0.19200000000E+03 0.  0.
   -5000001    1    1    2    0    0 -0.85332131832E+02  0.33208009473E+02 -0.23178411878E+03  0.31459850975E+03  0.19200000000E+03 0.  0.
<mgrwt>
<rscale>  0 0.43493328E+03</rscale>
<asrwt>0</asrwt>
<pdfrwt beam="1">  1        2 0.64621951E-01 0.43493328E+03</pdfrwt>
<pdfrwt beam="2">  1       -2 0.14935135E-01 0.43493328E+03</pdfrwt>
<totfact> 0.26282140E+03</totfact>
</mgrwt>
</event>
<event>
 4    1  0.2892809E-005  0.4538490E+03  0.7818608E-02  0.1026580E+00
         -2   -1    0    0    0  501 -0.00000000000E+00  0.00000000000E+00  0.66303420487E+02  0.66303420536E+02  0.25500000000E-02 0. -1.
          2   -1    0    0  501    0  0.00000000000E+00 -0.00000000000E+00 -0.77665254719E+03  0.77665254719E+03  0.25500000000E-02 0.  1.
    5000001    1    1    2    0    0  0.79379006705E+02  0.73842605790E+02 -0.45479781257E+03  0.50542932983E+03  0.19200000000E+03 0.  0.
   -5000001    1    1    2    0    0 -0.79379006705E+02 -0.73842605790E+02 -0.25555131413E+03  0.33752663789E+03  0.19200000000E+03 0.  0.
<mgrwt>
<rscale>  0 0.45384896E+03</rscale>
<asrwt>0</asrwt>
<pdfrwt beam="1">  1        2 0.11095036E+00 0.45384896E+03</pdfrwt>
<pdfrwt beam="2">  1       -2 0.94719177E-02 0.45384896E+03</pdfrwt>
<totfact> 0.29444037E+03</totfact>
</mgrwt>
</event>
<event>
 4    1  0.2892809E-005  0.4906814E+03  0.7818608E-02  0.1016240E+00
          2   -1    0    0  501    0  0.00000000000E+00  0.00000000000E+00  0.57829034950E+03  0.57829034951E+03  0.25500000000E-02 0.  1.
         -2   -1    0    0    0  501 -0.00000000000E+00 -0.00000000000E+00 -0.10408623580E+03  0.10408623583E+03  0.25500000000E-02 0. -1.
    5000001    1    1    2    0    0  0.14934913831E+03  0.72255927573E+01  0.28042970191E+03  0.37129798278E+03  0.19200000000E+03 0.  0.
   -5000001    1    1    2    0    0 -0.14934913831E+03 -0.72255927573E+01  0.19377441179E+03  0.31107860256E+03  0.19200000000E+03 0.  0.
<mgrwt>
<rscale>  0 0.49068143E+03</rscale>
<asrwt>0</asrwt>
<pdfrwt beam="1">  1        2 0.82612909E-01 0.49068143E+03</pdfrwt>
<pdfrwt beam="2">  1       -2 0.14869462E-01 0.49068143E+03</pdfrwt>
<totfact> 0.20066255E+03</totfact>
</mgrwt>
</event>
<event>
 4    1  0.2892809E-005  0.6017105E+03  0.7818608E-02  0.9901864E-01
         -2   -1    0    0    0  501 -0.00000000000E+00  0.00000000000E+00  0.71667090565E+02  0.71667090610E+02  0.25500000000E-02 0. -1.
          2   -1    0    0  501    0  0.00000000000E+00 -0.00000000000E+00 -0.12629769044E+04  0.12629769044E+04  0.25500000000E-02 0.  1.
    5000001    1    1    2    0    0  0.22146413079E+03  0.72401761991E+01 -0.44601894372E+03  0.53375619859E+03  0.19200000000E+03 0.  0.
   -5000001    1    1    2    0    0 -0.22146413079E+03 -0.72401761991E+01 -0.74529087008E+03  0.80088779638E+03  0.19200000000E+03 0.  0.
<mgrwt>
<rscale>  0 0.60171050E+03</rscale>
<asrwt>0</asrwt>
<pdfrwt beam="1">  1        2 0.18042526E+00 0.60171050E+03</pdfrwt>
<pdfrwt beam="2">  1       -2 0.10238157E-01 0.60171050E+03</pdfrwt>
<totfact> 0.13125230E+03</totfact>
</mgrwt>
</event>
<event>
 4    1  0.2892809E-005  0.6177334E+03  0.7818608E-02  0.9869283E-01
          2   -1    0    0  501    0  0.00000000000E+00  0.00000000000E+00  0.12335730788E+04  0.12335730788E+04  0.25500000000E-02 0.  1.
         -2   -1    0    0    0  501 -0.00000000000E+00 -0.00000000000E+00 -0.77335211544E+02  0.77335211586E+02  0.25500000000E-02 0. -1.
    5000001    1    1    2    0    0 -0.12492976854E+03  0.19814987073E+03  0.44966775236E+03  0.54215856154E+03  0.19200000000E+03 0.  0.
   -5000001    1    1    2    0    0  0.12492976854E+03 -0.19814987073E+03  0.70657011491E+03  0.76874972886E+03  0.19200000000E+03 0.  0.
<mgrwt>
<rscale>  0 0.61773339E+03</rscale>
<asrwt>0</asrwt>
<pdfrwt beam="1">  1        2 0.17622471E+00 0.61773339E+03</pdfrwt>
<pdfrwt beam="2">  1       -2 0.11047888E-01 0.61773339E+03</pdfrwt>
<totfact> 0.12030110E+03</totfact>
</mgrwt>
</event>
<event>
 4    1  0.2892809E-005  0.7922646E+03  0.7818608E-02  0.9571282E-01
          2   -1    0    0  501    0  0.00000000000E+00  0.00000000000E+00  0.27128027166E+04  0.27128027166E+04  0.25500000000E-02 0.  1.
         -2   -1    0    0    0  501 -0.00000000000E+00 -0.00000000000E+00 -0.57844533363E+02  0.57844533419E+02  0.25500000000E-02 0. -1.
    5000001    1    1    2    0    0  0.27663527379E+03  0.16380545221E+03  0.87558487452E+03  0.95229836363E+03  0.19200000000E+03 0.  0.
   -5000001    1    1    2    0    0 -0.27663527379E+03 -0.16380545221E+03  0.17793733087E+04  0.18183488864E+04  0.19200000000E+03 0.  0.
<mgrwt>
<rscale>  0 0.79226462E+03</rscale>
<asrwt>0</asrwt>
<pdfrwt beam="1">  1        2 0.38754324E+00 0.79226462E+03</pdfrwt>
<pdfrwt beam="2">  1       -2 0.82635049E-02 0.79226462E+03</pdfrwt>
<totfact> 0.32804378E+02</totfact>
</mgrwt>
</event>
<event>
 4    1  0.2892809E-005  0.1128400E+04  0.7818608E-02  0.9177945E-01
          2   -1    0    0  501    0  0.00000000000E+00  0.00000000000E+00  0.10578468479E+04  0.10578468479E+04  0.25500000000E-02 0.  1.
         -2   -1    0    0    0  501 -0.00000000000E+00 -0.00000000000E+00 -0.30091475641E+03  0.30091475642E+03  0.25500000000E-02 0. -1.
    5000001    1    1    2    0    0  0.34076616799E+03  0.33155399928E+03  0.95022401639E+02  0.52148144023E+03  0.19200000000E+03 0.  0.
   -5000001    1    1    2    0    0 -0.34076616799E+03 -0.33155399928E+03  0.66190968989E+03  0.83728016414E+03  0.19200000000E+03 0.  0.
<mgrwt>
<rscale>  0 0.11284002E+04</rscale>
<asrwt>0</asrwt>
<pdfrwt beam="1">  1        2 0.15112098E+00 0.11284002E+04</pdfrwt>
<pdfrwt beam="2">  1       -2 0.42987822E-01 0.11284002E+04</pdfrwt>
<totfact> 0.13155549E+02</totfact>
</mgrwt>
</event>
<event>
 4    1  0.2892809E-005  0.5679236E+03  0.7818608E-02  0.9974284E-01
          2   -1    0    0  501    0  0.00000000000E+00  0.00000000000E+00  0.30725660446E+03  0.30725660447E+03  0.25500000000E-02 0.  1.
         -2   -1    0    0    0  501 -0.00000000000E+00 -0.00000000000E+00 -0.26243309360E+03  0.26243309362E+03  0.25500000000E-02 0. -1.
    5000001    1    1    2    0    0 -0.10863945720E+03 -0.17141171898E+03  0.73420574116E+02  0.28885825203E+03  0.19200000000E+03 0.  0.
   -5000001    1    1    2    0    0  0.10863945720E+03  0.17141171898E+03 -0.28597063260E+02  0.28083144605E+03  0.19200000000E+03 0.  0.
<mgrwt>
<rscale>  0 0.56792359E+03</rscale>
<asrwt>0</asrwt>
<pdfrwt beam="1">  1        2 0.43893801E-01 0.56792359E+03</pdfrwt>
<pdfrwt beam="2">  1       -2 0.37490442E-01 0.56792359E+03</pdfrwt>
<totfact> 0.78266744E+02</totfact>
</mgrwt>
</event>
<event>
 4    1  0.2892809E-005  0.4991022E+03  0.7818608E-02  0.1014014E+00
          2   -1    0    0  501    0  0.00000000000E+00  0.00000000000E+00  0.22432081371E+04  0.22432081371E+04  0.25500000000E-02 0.  1.
         -2   -1    0    0    0  501 -0.00000000000E+00 -0.00000000000E+00 -0.27761909456E+02  0.27761909573E+02  0.25500000000E-02 0. -1.
    5000001    1    1    2    0    0 -0.23360307923E+02  0.15569818524E+03  0.12213950823E+04  0.12463777822E+04  0.19200000000E+03 0.  0.
   -5000001    1    1    2    0    0  0.23360307923E+02 -0.15569818524E+03  0.99405114529E+03  0.10245922644E+04  0.19200000000E+03 0.  0.
<mgrwt>
<rscale>  0 0.49910216E+03</rscale>
<asrwt>0</asrwt>
<pdfrwt beam="1">  1        2 0.32045832E+00 0.49910216E+03</pdfrwt>
<pdfrwt beam="2">  1       -2 0.39659869E-02 0.49910216E+03</pdfrwt>
<totfact> 0.18429481E+03</totfact>
</mgrwt>
</event>
<event>
 4    1  0.2892809E-005  0.3989231E+03  0.7818608E-02  0.1044153E+00
         -2   -1    0    0    0  501 -0.00000000000E+00  0.00000000000E+00  0.10848982396E+02  0.10848982696E+02  0.25500000000E-02 0. -1.
          2   -1    0    0  501    0  0.00000000000E+00 -0.00000000000E+00 -0.36671557326E+04  0.36671557326E+04  0.25500000000E-02 0.  1.
    5000001    1    1    2    0    0 -0.31167214147E+02 -0.19986583409E+02 -0.14651623162E+04  0.14781527227E+04  0.19200000000E+03 0.  0.
   -5000001    1    1    2    0    0  0.31167214147E+02  0.19986583409E+02 -0.21911444339E+04  0.21998519926E+04  0.19200000000E+03 0.  0.
<mgrwt>
<rscale>  0 0.39892309E+03</rscale>
<asrwt>0</asrwt>
<pdfrwt beam="1">  1        2 0.52387860E+00 0.39892309E+03</pdfrwt>
<pdfrwt beam="2">  1       -2 0.15498570E-02 0.39892309E+03</pdfrwt>
<totfact> 0.12902653E+03</totfact>
</mgrwt>
</event>
<event>
 4    1  0.2892809E-005  0.5026765E+03  0.7818608E-02  0.1013083E+00
          2   -1    0    0  501    0  0.00000000000E+00  0.00000000000E+00  0.87145310452E+03  0.87145310452E+03  0.25500000000E-02 0.  1.
         -2   -1    0    0    0  501 -0.00000000000E+00 -0.00000000000E+00 -0.72489178315E+02  0.72489178360E+02  0.25500000000E-02 0. -1.
    5000001    1    1    2    0    0 -0.71274908426E+02  0.14176318607E+03  0.46260635722E+03  0.52540037613E+03  0.19200000000E+03 0.  0.
   -5000001    1    1    2    0    0  0.71274908426E+02 -0.14176318607E+03  0.33635756898E+03  0.41854190675E+03  0.19200000000E+03 0.  0.
<mgrwt>
<rscale>  0 0.50267651E+03</rscale>
<asrwt>0</asrwt>
<pdfrwt beam="1">  1        2 0.12449331E+00 0.50267651E+03</pdfrwt>
<pdfrwt beam="2">  1       -2 0.10355596E-01 0.50267651E+03</pdfrwt>
<totfact> 0.22016323E+03</totfact>
</mgrwt>
</event>
<event>
 4    1  0.2892809E-005  0.4168332E+03  0.7818608E-02  0.1038102E+00
         -2   -1    0    0    0  501 -0.00000000000E+00  0.00000000000E+00  0.29989092362E+02  0.29989092471E+02  0.25500000000E-02 0. -1.
          2   -1    0    0  501    0  0.00000000000E+00 -0.00000000000E+00 -0.14484428497E+04  0.14484428497E+04  0.25500000000E-02 0.  1.
    5000001    1    1    2    0    0 -0.14847591381E+02  0.79607284221E+02 -0.72328759382E+03  0.75270626014E+03  0.19200000000E+03 0.  0.
   -5000001    1    1    2    0    0  0.14847591381E+02 -0.79607284221E+02 -0.69516616352E+03  0.72572568204E+03  0.19200000000E+03 0.  0.
<mgrwt>
<rscale>  0 0.41683324E+03</rscale>
<asrwt>0</asrwt>
<pdfrwt beam="1">  1        2 0.20692036E+00 0.41683324E+03</pdfrwt>
<pdfrwt beam="2">  1       -2 0.42841570E-02 0.41683324E+03</pdfrwt>
<totfact> 0.41179442E+03</totfact>
</mgrwt>
</event>
<event>
 4    1  0.2892809E-005  0.4686947E+03  0.7818608E-02  0.1022289E+00
          2   -1    0    0  501    0  0.00000000000E+00  0.00000000000E+00  0.17975675735E+03  0.17975675736E+03  0.25500000000E-02 0.  1.
         -2   -1    0    0    0  501 -0.00000000000E+00 -0.00000000000E+00 -0.30551660896E+03  0.30551660897E+03  0.25500000000E-02 0. -1.
    5000001    1    1    2    0    0 -0.10927362884E+03 -0.73662639845E+02 -0.90032831228E+02  0.24967342904E+03  0.19200000000E+03 0.  0.
   -5000001    1    1    2    0    0  0.10927362884E+03  0.73662639845E+02 -0.35727020389E+02  0.23559993730E+03  0.19200000000E+03 0.  0.
<mgrwt>
<rscale>  0 0.46869468E+03</rscale>
<asrwt>0</asrwt>
<pdfrwt beam="1">  1        2 0.25679537E-01 0.46869468E+03</pdfrwt>
<pdfrwt beam="2">  1       -2 0.43645230E-01 0.46869468E+03</pdfrwt>
<totfact> 0.10583979E+03</totfact>
</mgrwt>
</event>
<event>
 4    1  0.2892809E-005  0.7081116E+03  0.7818608E-02  0.9703460E-01
         -2   -1    0    0    0  501 -0.00000000000E+00  0.00000000000E+00  0.17242379836E+04  0.17242379836E+04  0.25500000000E-02 0. -1.
          2   -1    0    0  501    0  0.00000000000E+00 -0.00000000000E+00 -0.72701986334E+02  0.72701986379E+02  0.25500000000E-02 0.  1.
    5000001    1    1    2    0    0  0.20886386619E+03 -0.65960384226E+02  0.13365652356E+04  0.13679347630E+04  0.19200000000E+03 0.  0.
   -5000001    1    1    2    0    0 -0.20886386619E+03  0.65960384226E+02  0.31497076166E+03  0.42900520695E+03  0.19200000000E+03 0.  0.
<mgrwt>
<rscale>  0 0.70811165E+03</rscale>
<asrwt>0</asrwt>
<pdfrwt beam="1">  1        2 0.10385996E-01 0.70811165E+03</pdfrwt>
<pdfrwt beam="2">  1       -2 0.24631976E+00 0.70811165E+03</pdfrwt>
<totfact> 0.44198529E+01</totfact>
</mgrwt>
</event>
<event>
 4    1  0.2892809E-005  0.4978655E+03  0.7818608E-02  0.1014338E+00
          2   -1    0    0  501    0  0.00000000000E+00  0.00000000000E+00  0.95133242814E+03  0.95133242814E+03  0.25500000000E-02 0.  1.
         -2   -1    0    0    0  501 -0.00000000000E+00 -0.00000000000E+00 -0.65137596474E+02  0.65137596524E+02  0.25500000000E-02 0. -1.
    5000001    1    1    2    0    0 -0.72576516659E+02  0.14541049829E+02  0.15708542321E+03  0.25887955324E+03  0.19200000000E+03 0.  0.
   -5000001    1    1    2    0    0  0.72576516659E+02 -0.14541049829E+02  0.72910940845E+03  0.75759047143E+03  0.19200000000E+03 0.  0.
<mgrwt>
<rscale>  0 0.49786548E+03</rscale>
<asrwt>0</asrwt>
<pdfrwt beam="1">  1        2 0.13590464E+00 0.49786548E+03</pdfrwt>
<pdfrwt beam="2">  1       -2 0.93053707E-02 0.49786548E+03</pdfrwt>
<totfact> 0.23266308E+03</totfact>
</mgrwt>
</event>
<event>
 4    1  0.2892809E-005  0.8178273E+03  0.7818608E-02  0.9534565E-01
          2   -1    0    0  501    0  0.00000000000E+00  0.00000000000E+00  0.30004510893E+04  0.30004510893E+04  0.25500000000E-02 0.  1.
         -2   -1    0    0    0  501 -0.00000000000E+00 -0.00000000000E+00 -0.55728417015E+02  0.55728417073E+02  0.25500000000E-02 0. -1.
    5000001    1    1    2    0    0 -0.31245934342E+03 -0.51297442679E+02  0.21205268128E+04  0.21526170659E+04  0.19200000000E+03 0.  0.
   -5000001    1    1    2    0    0  0.31245934342E+03  0.51297442679E+02  0.82419585955E+03  0.90356244046E+03  0.19200000000E+03 0.  0.
<mgrwt>
<rscale>  0 0.81782734E+03</rscale>
<asrwt>0</asrwt>
<pdfrwt beam="1">  1        2 0.42863577E+00 0.81782734E+03</pdfrwt>
<pdfrwt beam="2">  1       -2 0.79612042E-02 0.81782734E+03</pdfrwt>
<totfact> 0.24326059E+02</totfact>
</mgrwt>
</event>
<event>
 4    1  0.2892809E-005  0.5779399E+03  0.7818608E-02  0.9952261E-01
         -2   -1    0    0    0  501 -0.00000000000E+00  0.00000000000E+00  0.21369210398E+03  0.21369210399E+03  0.25500000000E-02 0. -1.
          2   -1    0    0  501    0  0.00000000000E+00 -0.00000000000E+00 -0.39076605521E+03  0.39076605522E+03  0.25500000000E-02 0.  1.
    5000001    1    1    2    0    0 -0.19908257548E+03  0.29892960577E+02 -0.67694346794E+01  0.27827555803E+03  0.19200000000E+03 0.  0.
   -5000001    1    1    2    0    0  0.19908257548E+03 -0.29892960577E+02 -0.17030451655E+03  0.32618260118E+03  0.19200000000E+03 0.  0.
<mgrwt>
<rscale>  0 0.57793986E+03</rscale>
<asrwt>0</asrwt>
<pdfrwt beam="1">  1        2 0.55823722E-01 0.57793986E+03</pdfrwt>
<pdfrwt beam="2">  1       -2 0.30527444E-01 0.57793986E+03</pdfrwt>
<totfact> 0.88359416E+02</totfact>
</mgrwt>
</event>
<event>
 4    1  0.2892809E-005  0.6908527E+03  0.7818608E-02  0.9733004E-01
         -2   -1    0    0    0  501 -0.00000000000E+00  0.00000000000E+00  0.21492350101E+03  0.21492350103E+03  0.25500000000E-02 0. -1.
          2   -1    0    0  501    0  0.00000000000E+00 -0.00000000000E+00 -0.55517128628E+03  0.55517128629E+03  0.25500000000E-02 0.  1.
    5000001    1    1    2    0    0 -0.27182983077E+03  0.89363286806E+02 -0.19692552186E+03  0.39688904632E+03  0.19200000000E+03 0.  0.
   -5000001    1    1    2    0    0  0.27182983077E+03 -0.89363286806E+02 -0.14332226341E+03  0.37320574100E+03  0.19200000000E+03 0.  0.
<mgrwt>
<rscale>  0 0.69085268E+03</rscale>
<asrwt>0</asrwt>
<pdfrwt beam="1">  1        2 0.79310183E-01 0.69085268E+03</pdfrwt>
<pdfrwt beam="2">  1       -2 0.30703357E-01 0.69085268E+03</pdfrwt>
<totfact> 0.58645086E+02</totfact>
</mgrwt>
</event>
<event>
 4    1  0.2892809E-005  0.4946201E+03  0.7818608E-02  0.1015193E+00
         -2   -1    0    0    0  501 -0.00000000000E+00  0.00000000000E+00  0.42466863568E+02  0.42466863644E+02  0.25500000000E-02 0. -1.
          2   -1    0    0  501    0  0.00000000000E+00 -0.00000000000E+00 -0.14402348730E+04  0.14402348730E+04  0.25500000000E-02 0.  1.
    5000001    1    1    2    0    0  0.28703042624E+02  0.83577698723E+02 -0.31395438383E+03  0.37847120300E+03  0.19200000000E+03 0.  0.
   -5000001    1    1    2    0    0 -0.28703042624E+02 -0.83577698723E+02 -0.10838136256E+04  0.11042305337E+04  0.19200000000E+03 0.  0.
<mgrwt>
<rscale>  0 0.49462009E+03</rscale>
<asrwt>0</asrwt>
<pdfrwt beam="1">  1        2 0.20574781E+00 0.49462009E+03</pdfrwt>
<pdfrwt beam="2">  1       -2 0.60666957E-02 0.49462009E+03</pdfrwt>
<totfact> 0.24302451E+03</totfact>
</mgrwt>
</event>
<event>
 4    1  0.2892809E-005  0.5999082E+03  0.7818608E-02  0.9905597E-01
          2   -1    0    0  501    0  0.00000000000E+00  0.00000000000E+00  0.25798221973E+04  0.25798221973E+04  0.25500000000E-02 0.  1.
         -2   -1    0    0    0  501 -0.00000000000E+00 -0.00000000000E+00 -0.34875448918E+02  0.34875449011E+02  0.25500000000E-02 0. -1.
    5000001    1    1    2    0    0  0.10230840360E+03  0.12164062279E+03  0.19997679581E+04  0.20152417564E+04  0.19200000000E+03 0.  0.
   -5000001    1    1    2    0    0 -0.10230840360E+03 -0.12164062279E+03  0.54517879030E+03  0.59945588992E+03  0.19200000000E+03 0.  0.
<mgrwt>
<rscale>  0 0.59990818E+03</rscale>
<asrwt>0</asrwt>
<pdfrwt beam="1">  1        2 0.36854610E+00 0.59990818E+03</pdfrwt>
<pdfrwt beam="2">  1       -2 0.49822060E-02 0.59990818E+03</pdfrwt>
<totfact> 0.86873242E+02</totfact>
</mgrwt>
</event>
<event>
 4    1  0.2892809E-005  0.1159007E+04  0.7818608E-02  0.9149514E-01
         -2   -1    0    0    0  501 -0.00000000000E+00  0.00000000000E+00  0.20373405868E+03  0.20373405870E+03  0.25500000000E-02 0. -1.
          2   -1    0    0  501    0  0.00000000000E+00 -0.00000000000E+00 -0.16483458611E+04  0.16483458611E+04  0.25500000000E-02 0.  1.
    5000001    1    1    2    0    0  0.45797768380E+03 -0.80386621715E+02 -0.11820010011E+04  0.12845995229E+04  0.19200000000E+03 0.  0.
   -5000001    1    1    2    0    0 -0.45797768380E+03  0.80386621715E+02 -0.26261080130E+03  0.56748039682E+03  0.19200000000E+03 0.  0.
<mgrwt>
<rscale>  0 0.11590068E+04</rscale>
<asrwt>0</asrwt>
<pdfrwt beam="1">  1        2 0.23547797E+00 0.11590068E+04</pdfrwt>
<pdfrwt beam="2">  1       -2 0.29104866E-01 0.11590068E+04</pdfrwt>
<totfact> 0.13088315E+02</totfact>
</mgrwt>
</event>
<event>
 4    1  0.2892809E-005  0.5140691E+03  0.7818608E-02  0.1010171E+00
          2   -1    0    0  501    0  0.00000000000E+00  0.00000000000E+00  0.19840242689E+04  0.19840242689E+04  0.25500000000E-02 0.  1.
         -2   -1    0    0    0  501 -0.00000000000E+00 -0.00000000000E+00 -0.33299368587E+02  0.33299368685E+02  0.25500000000E-02 0. -1.
    5000001    1    1    2    0    0  0.16036318454E+03  0.57516962477E+02  0.92297680299E+03  0.95800560061E+03  0.19200000000E+03 0.  0.
   -5000001    1    1    2    0    0 -0.16036318454E+03 -0.57516962477E+02  0.10277480973E+04  0.10593180370E+04  0.19200000000E+03 0.  0.
<mgrwt>
<rscale>  0 0.51406908E+03</rscale>
<asrwt>0</asrwt>
<pdfrwt beam="1">  1        2 0.28343205E+00 0.51406908E+03</pdfrwt>
<pdfrwt beam="2">  1       -2 0.47570524E-02 0.51406908E+03</pdfrwt>
<totfact> 0.18770757E+03</totfact>
</mgrwt>
</event>
<event>
 4    1  0.2892809E-005  0.4817616E+03  0.7818608E-02  0.1018652E+00
         -2   -1    0    0    0  501 -0.00000000000E+00  0.00000000000E+00  0.92872061029E+02  0.92872061064E+02  0.25500000000E-02 0. -1.
          2   -1    0    0  501    0  0.00000000000E+00 -0.00000000000E+00 -0.62476883340E+03  0.62476883340E+03  0.25500000000E-02 0.  1.
    5000001    1    1    2    0    0  0.87661481326E+02  0.11170945055E+03 -0.31296071199E+03  0.39366476081E+03  0.19200000000E+03 0.  0.
   -5000001    1    1    2    0    0 -0.87661481326E+02 -0.11170945055E+03 -0.21893606038E+03  0.32397613366E+03  0.19200000000E+03 0.  0.
<mgrwt>
<rscale>  0 0.48176164E+03</rscale>
<asrwt>0</asrwt>
<pdfrwt beam="1">  1        2 0.89252688E-01 0.48176164E+03</pdfrwt>
<pdfrwt beam="2">  1       -2 0.13267438E-01 0.48176164E+03</pdfrwt>
<totfact> 0.22160508E+03</totfact>
</mgrwt>
</event>
<event>
 4    1  0.2892809E-005  0.5221184E+03  0.7818608E-02  0.1008162E+00
          2   -1    0    0  501    0  0.00000000000E+00  0.00000000000E+00  0.26434608101E+04  0.26434608101E+04  0.25500000000E-02 0.  1.
         -2   -1    0    0    0  501 -0.00000000000E+00 -0.00000000000E+00 -0.25781315420E+02  0.25781315546E+02  0.25500000000E-02 0. -1.
    5000001    1    1    2    0    0  0.16354528769E+03 -0.65973594287E+02  0.12386832019E+04  0.12658197546E+04  0.19200000000E+03 0.  0.
   -5000001    1    1    2    0    0 -0.16354528769E+03  0.65973594287E+02  0.13789962927E+04  0.14034223711E+04  0.19200000000E+03 0.  0.
<mgrwt>
<rscale>  0 0.52211837E+03</rscale>
<asrwt>0</asrwt>
<pdfrwt beam="1">  1        2 0.37763701E+00 0.52211837E+03</pdfrwt>
<pdfrwt beam="2">  1       -2 0.36830475E-02 0.52211837E+03</pdfrwt>
<totfact> 0.12894939E+03</totfact>
</mgrwt>
</event>
<event>
 4    1  0.2892809E-005  0.6341459E+03  0.7818608E-02  0.9836992E-01
         -2   -1    0    0    0  501 -0.00000000000E+00  0.00000000000E+00  0.32395776549E+03  0.32395776550E+03  0.25500000000E-02 0. -1.
          2   -1    0    0  501    0  0.00000000000E+00 -0.00000000000E+00 -0.31033449797E+03  0.31033449798E+03  0.25500000000E-02 0.  1.
    5000001    1    1    2    0    0  0.13474838529E+03  0.12823157016E+03 -0.16372934126E+03  0.31348326927E+03  0.19200000000E+03 0.  0.
   -5000001    1    1    2    0    0 -0.13474838529E+03 -0.12823157016E+03  0.17735260878E+03  0.32080899420E+03  0.19200000000E+03 0.  0.
<mgrwt>
<rscale>  0 0.63414595E+03</rscale>
<asrwt>0</asrwt>
<pdfrwt beam="1">  1        2 0.44333499E-01 0.63414595E+03</pdfrwt>
<pdfrwt beam="2">  1       -2 0.46279681E-01 0.63414595E+03</pdfrwt>
<totfact> 0.51221953E+02</totfact>
</mgrwt>
</event>
<event>
 4    1  0.2892809E-005  0.7881230E+03  0.7818608E-02  0.9577369E-01
         -2   -1    0    0    0  501 -0.00000000000E+00  0.00000000000E+00  0.15516494837E+03  0.15516494839E+03  0.25500000000E-02 0. -1.
          2   -1    0    0  501    0  0.00000000000E+00 -0.00000000000E+00 -0.10007703018E+04  0.10007703018E+04  0.25500000000E-02 0.  1.
    5000001    1    1    2    0    0 -0.85280501585E+02 -0.32765385989E+03 -0.51310453879E+03  0.64402646186E+03  0.19200000000E+03 0.  0.
   -5000001    1    1    2    0    0  0.85280501585E+02  0.32765385989E+03 -0.33250081467E+03  0.51190878836E+03  0.19200000000E+03 0.  0.
<mgrwt>
<rscale>  0 0.78812302E+03</rscale>
<asrwt>0</asrwt>
<pdfrwt beam="1">  1        2 0.14296718E+00 0.78812302E+03</pdfrwt>
<pdfrwt beam="2">  1       -2 0.22166422E-01 0.78812302E+03</pdfrwt>
<totfact> 0.50050354E+02</totfact>
</mgrwt>
</event>
<event>
 4    1  0.2892809E-005  0.4850866E+03  0.7818608E-02  0.1017747E+00
         -2   -1    0    0    0  501 -0.00000000000E+00  0.00000000000E+00  0.21874026587E+03  0.21874026589E+03  0.25500000000E-02 0. -1.
          2   -1    0    0  501    0  0.00000000000E+00 -0.00000000000E+00 -0.26893652445E+03  0.26893652446E+03  0.25500000000E-02 0.  1.
    5000001    1    1    2    0    0 -0.91919538200E+02  0.99391564323E+02  0.35517787688E+02  0.23759923780E+03  0.19200000000E+03 0.  0.
   -5000001    1    1    2    0    0  0.91919538200E+02 -0.99391564323E+02 -0.85714046270E+02  0.25007755255E+03  0.19200000000E+03 0.  0.
<mgrwt>
<rscale>  0 0.48508658E+03</rscale>
<asrwt>0</asrwt>
<pdfrwt beam="1">  1        2 0.38419503E-01 0.48508658E+03</pdfrwt>
<pdfrwt beam="2">  1       -2 0.31248610E-01 0.48508658E+03</pdfrwt>
<totfact> 0.12772111E+03</totfact>
</mgrwt>
</event>
<event>
 4    1  0.2892809E-005  0.5688834E+03  0.7818608E-02  0.9972153E-01
          2   -1    0    0  501    0  0.00000000000E+00  0.00000000000E+00  0.31465976795E+03  0.31465976796E+03  0.25500000000E-02 0.  1.
         -2   -1    0    0    0  501 -0.00000000000E+00 -0.00000000000E+00 -0.25712557098E+03  0.25712557099E+03  0.25500000000E-02 0. -1.
    5000001    1    1    2    0    0 -0.87056536307E+00 -0.16088769049E+03  0.16420411928E+03  0.29952061636E+03  0.19200000000E+03 0.  0.
   -5000001    1    1    2    0    0  0.87056536307E+00  0.16088769049E+03 -0.10666992231E+03  0.27226472258E+03  0.19200000000E+03 0.  0.
<mgrwt>
<rscale>  0 0.56888337E+03</rscale>
<asrwt>0</asrwt>
<pdfrwt beam="1">  1        2 0.44951395E-01 0.56888337E+03</pdfrwt>
<pdfrwt beam="2">  1       -2 0.36732224E-01 0.56888337E+03</pdfrwt>
<totfact> 0.79278410E+02</totfact>
</mgrwt>
</event>
<event>
 4    1  0.2892809E-005  0.6655581E+03  0.7818608E-02  0.9778016E-01
         -2   -1    0    0    0  501 -0.00000000000E+00  0.00000000000E+00  0.11986593604E+03  0.11986593607E+03  0.25500000000E-02 0. -1.
          2   -1    0    0  501    0  0.00000000000E+00 -0.00000000000E+00 -0.92388118489E+03  0.92388118489E+03  0.25500000000E-02 0.  1.
    5000001    1    1    2    0    0  0.23060911949E+03 -0.63959857864E+02 -0.19991624353E+03  0.36619930890E+03  0.19200000000E+03 0.  0.
   -5000001    1    1    2    0    0 -0.23060911949E+03  0.63959857864E+02 -0.60409900531E+03  0.67754781206E+03  0.19200000000E+03 0.  0.
<mgrwt>
<rscale>  0 0.66555806E+03</rscale>
<asrwt>0</asrwt>
<pdfrwt beam="1">  1        2 0.13198302E+00 0.66555806E+03</pdfrwt>
<pdfrwt beam="2">  1       -2 0.17123706E-01 0.66555806E+03</pdfrwt>
<totfact> 0.88030201E+02</totfact>
</mgrwt>
</event>
<event>
 4    1  0.2892809E-005  0.8077951E+03  0.7818608E-02  0.9548802E-01
         -2   -1    0    0    0  501 -0.00000000000E+00  0.00000000000E+00  0.25899731299E+03  0.25899731300E+03  0.25500000000E-02 0. -1.
          2   -1    0    0  501    0  0.00000000000E+00 -0.00000000000E+00 -0.62986463169E+03  0.62986463169E+03  0.25500000000E-02 0.  1.
    5000001    1    1    2    0    0 -0.13091078405E+03 -0.13936516355E+03  0.14413886601E+03  0.30692066546E+03  0.19200000000E+03 0.  0.
   -5000001    1    1    2    0    0  0.13091078405E+03  0.13936516355E+03 -0.51500618470E+03  0.58194127923E+03  0.19200000000E+03 0.  0.
<mgrwt>
<rscale>  0 0.80779514E+03</rscale>
<asrwt>0</asrwt>
<pdfrwt beam="1">  1        2 0.89980661E-01 0.80779514E+03</pdfrwt>
<pdfrwt beam="2">  1       -2 0.36999616E-01 0.80779514E+03</pdfrwt>
<totfact> 0.35383453E+02</totfact>
</mgrwt>
</event>
<event>
 4    1  0.2892809E-005  0.5200049E+03  0.7818608E-02  0.1008685E+00
          2   -1    0    0  501    0  0.00000000000E+00  0.00000000000E+00  0.63979283653E+03  0.63979283653E+03  0.25500000000E-02 0.  1.
         -2   -1    0    0    0  501 -0.00000000000E+00 -0.00000000000E+00 -0.10566120040E+03  0.10566120043E+03  0.25500000000E-02 0. -1.
    5000001    1    1    2    0    0 -0.13631747203E+03 -0.11019958661E+03  0.26233790881E+03  0.36933938386E+03  0.19200000000E+03 0.  0.
   -5000001    1    1    2    0    0  0.13631747203E+03  0.11019958661E+03  0.27179372732E+03  0.37611465310E+03  0.19200000000E+03 0.  0.
<mgrwt>
<rscale>  0 0.52000492E+03</rscale>
<asrwt>0</asrwt>
<pdfrwt beam="1">  1        2 0.91398977E-01 0.52000492E+03</pdfrwt>
<pdfrwt beam="2">  1       -2 0.15094457E-01 0.52000492E+03</pdfrwt>
<totfact> 0.17381572E+03</totfact>
</mgrwt>
</event>
<event>
 4    1  0.2892809E-005  0.7069600E+03  0.7818608E-02  0.9705403E-01
          2   -1    0    0  501    0  0.00000000000E+00  0.00000000000E+00  0.11242486518E+04  0.11242486518E+04  0.25500000000E-02 0.  1.
         -2   -1    0    0    0  501 -0.00000000000E+00 -0.00000000000E+00 -0.11113920502E+03  0.11113920505E+03  0.25500000000E-02 0. -1.
    5000001    1    1    2    0    0  0.18459151798E+03  0.23239765150E+03  0.50448377942E+03  0.61599560114E+03  0.19200000000E+03 0.  0.
   -5000001    1    1    2    0    0 -0.18459151798E+03 -0.23239765150E+03  0.50862566736E+03  0.61939225571E+03  0.19200000000E+03 0.  0.
<mgrwt>
<rscale>  0 0.70695997E+03</rscale>
<asrwt>0</asrwt>
<pdfrwt beam="1">  1        2 0.16060695E+00 0.70695997E+03</pdfrwt>
<pdfrwt beam="2">  1       -2 0.15877029E-01 0.70695997E+03</pdfrwt>
<totfact> 0.75611319E+02</totfact>
</mgrwt>
</event>
<event>
 4    1  0.2892809E-005  0.6504803E+03  0.7818608E-02  0.9805878E-01
         -2   -1    0    0    0  501 -0.00000000000E+00  0.00000000000E+00  0.39280279621E+03  0.39280279622E+03  0.25500000000E-02 0. -1.
          2   -1    0    0  501    0  0.00000000000E+00 -0.00000000000E+00 -0.26929833620E+03  0.26929833622E+03  0.25500000000E-02 0.  1.
    5000001    1    1    2    0    0  0.12144813563E+03  0.12757809631E+03 -0.13638225811E+03  0.29409172146E+03  0.19200000000E+03 0.  0.
   -5000001    1    1    2    0    0 -0.12144813563E+03 -0.12757809631E+03  0.25988671812E+03  0.36800941097E+03  0.19200000000E+03 0.  0.
<mgrwt>
<rscale>  0 0.65048025E+03</rscale>
<asrwt>0</asrwt>
<pdfrwt beam="1">  1        2 0.38471191E-01 0.65048025E+03</pdfrwt>
<pdfrwt beam="2">  1       -2 0.56114684E-01 0.65048025E+03</pdfrwt>
<totfact> 0.40462075E+02</totfact>
</mgrwt>
</event>
<event>
 4    1  0.2892809E-005  0.8046273E+03  0.7818608E-02  0.9553343E-01
         -2   -1    0    0    0  501 -0.00000000000E+00  0.00000000000E+00  0.10500034852E+03  0.10500034855E+03  0.25500000000E-02 0. -1.
          2   -1    0    0  501    0  0.00000000000E+00 -0.00000000000E+00 -0.15414831673E+04  0.15414831673E+04  0.25500000000E-02 0.  1.
    5000001    1    1    2    0    0  0.29531885523E+02  0.17605718355E+03 -0.93797474057E+02  0.27844250803E+03  0.19200000000E+03 0.  0.
   -5000001    1    1    2    0    0 -0.29531885523E+02 -0.17605718355E+03 -0.13426853447E+04  0.13680410078E+04  0.19200000000E+03 0.  0.
<mgrwt>
<rscale>  0 0.80462729E+03</rscale>
<asrwt>0</asrwt>
<pdfrwt beam="1">  1        2 0.22021187E+00 0.80462729E+03</pdfrwt>
<pdfrwt beam="2">  1       -2 0.15000051E-01 0.80462729E+03</pdfrwt>
<totfact> 0.49054119E+02</totfact>
</mgrwt>
</event>
<event>
 4    1  0.2892809E-005  0.8178112E+03  0.7818608E-02  0.9534588E-01
          2   -1    0    0  501    0  0.00000000000E+00  0.00000000000E+00  0.20952782288E+03  0.20952782290E+03  0.25500000000E-02 0.  1.
         -2   -1    0    0    0  501 -0.00000000000E+00 -0.00000000000E+00 -0.79800270818E+03  0.79800270819E+03  0.25500000000E-02 0. -1.
    5000001    1    1    2    0    0 -0.31915401381E+03  0.16839990617E+03 -0.30784276619E+03  0.51171181501E+03  0.19200000000E+03 0.  0.
   -5000001    1    1    2    0    0  0.31915401381E+03 -0.16839990617E+03 -0.28063211911E+03  0.49581871607E+03  0.19200000000E+03 0.  0.
<mgrwt>
<rscale>  0 0.81781115E+03</rscale>
<asrwt>0</asrwt>
<pdfrwt beam="1">  1        2 0.29932547E-01 0.81781115E+03</pdfrwt>
<pdfrwt beam="2">  1       -2 0.11400039E+00 0.81781115E+03</pdfrwt>
<totfact> 0.10818976E+02</totfact>
</mgrwt>
</event>
<event>
 4    1  0.2892809E-005  0.3887836E+03  0.7818608E-02  0.1047734E+00
         -2   -1    0    0    0  501 -0.00000000000E+00  0.00000000000E+00  0.62042750218E+03  0.62042750218E+03  0.25500000000E-02 0. -1.
          2   -1    0    0  501    0  0.00000000000E+00 -0.00000000000E+00 -0.60906676060E+02  0.60906676113E+02  0.25500000000E-02 0.  1.
    5000001    1    1    2    0    0 -0.14274524691E+02 -0.26398026513E+02  0.27125430020E+03  0.33368175442E+03  0.19200000000E+03 0.  0.
   -5000001    1    1    2    0    0  0.14274524691E+02  0.26398026513E+02  0.28826652592E+03  0.34765242387E+03  0.19200000000E+03 0.  0.
<mgrwt>
<rscale>  0 0.38878363E+03</rscale>
<asrwt>0</asrwt>
<pdfrwt beam="1">  1        2 0.87009539E-02 0.38878363E+03</pdfrwt>
<pdfrwt beam="2">  1       -2 0.88632498E-01 0.38878363E+03</pdfrwt>
<totfact> 0.87104644E+02</totfact>
</mgrwt>
</event>
<event>
 4    1  0.2892809E-005  0.4564977E+03  0.7818608E-02  0.1025802E+00
          2   -1    0    0  501    0  0.00000000000E+00  0.00000000000E+00  0.28539736861E+04  0.28539736861E+04  0.25500000000E-02 0.  1.
         -2   -1    0    0    0  501 -0.00000000000E+00 -0.00000000000E+00 -0.18254389414E+02  0.18254389592E+02  0.25500000000E-02 0. -1.
    5000001    1    1    2    0    0  0.79053628539E+02 -0.90434391648E+02  0.12392664999E+04  0.12597909800E+04  0.19200000000E+03 0.  0.
   -5000001    1    1    2    0    0 -0.79053628539E+02  0.90434391648E+02  0.15964527968E+04  0.16124370957E+04  0.19200000000E+03 0.  0.
<mgrwt>
<rscale>  0 0.45649774E+03</rscale>
<asrwt>0</asrwt>
<pdfrwt beam="1">  1        2 0.40771066E+00 0.45649774E+03</pdfrwt>
<pdfrwt beam="2">  1       -2 0.26077691E-02 0.45649774E+03</pdfrwt>
<totfact> 0.16969095E+03</totfact>
</mgrwt>
</event>
<event>
 4    1  0.2892809E-005  0.5270666E+03  0.7818608E-02  0.1006946E+00
          2   -1    0    0  501    0  0.00000000000E+00  0.00000000000E+00  0.64087557910E+03  0.64087557911E+03  0.25500000000E-02 0.  1.
         -2   -1    0    0    0  501 -0.00000000000E+00 -0.00000000000E+00 -0.10836707201E+03  0.10836707204E+03  0.25500000000E-02 0. -1.
    5000001    1    1    2    0    0 -0.52449351728E+02  0.17233406074E+03  0.24968579598E+03  0.36284564170E+03  0.19200000000E+03 0.  0.
   -5000001    1    1    2    0    0  0.52449351728E+02 -0.17233406074E+03  0.28282271111E+03  0.38639700945E+03  0.19200000000E+03 0.  0.
<mgrwt>
<rscale>  0 0.52706664E+03</rscale>
<asrwt>0</asrwt>
<pdfrwt beam="1">  1        2 0.91553659E-01 0.52706664E+03</pdfrwt>
<pdfrwt beam="2">  1       -2 0.15481010E-01 0.52706664E+03</pdfrwt>
<totfact> 0.16624460E+03</totfact>
</mgrwt>
</event>
<event>
 4    1  0.2892809E-005  0.1704938E+04  0.7818608E-02  0.8758553E-01
          2   -1    0    0  501    0  0.00000000000E+00  0.00000000000E+00  0.13862341998E+04  0.13862341998E+04  0.25500000000E-02 0.  1.
         -2   -1    0    0    0  501 -0.00000000000E+00 -0.00000000000E+00 -0.52422838535E+03  0.52422838535E+03  0.25500000000E-02 0. -1.
    5000001    1    1    2    0    0  0.49564912282E+02 -0.81923985643E+03  0.57375147121E+03  0.10196398254E+04  0.19200000000E+03 0.  0.
   -5000001    1    1    2    0    0 -0.49564912282E+02  0.81923985643E+03  0.28825434329E+03  0.89082275977E+03  0.19200000000E+03 0.  0.
<mgrwt>
<rscale>  0 0.17049379E+04</rscale>
<asrwt>0</asrwt>
<pdfrwt beam="1">  1        2 0.19803346E+00 0.17049379E+04</pdfrwt>
<pdfrwt beam="2">  1       -2 0.74889769E-01 0.17049379E+04</pdfrwt>
<totfact> 0.25719010E+01</totfact>
</mgrwt>
</event>
<event>
 4    1  0.2892809E-005  0.4471484E+03  0.7818608E-02  0.1028576E+00
         -2   -1    0    0    0  501 -0.00000000000E+00  0.00000000000E+00  0.42426320673E+02  0.42426320749E+02  0.25500000000E-02 0. -1.
          2   -1    0    0  501    0  0.00000000000E+00 -0.00000000000E+00 -0.11781699893E+04  0.11781699893E+04  0.25500000000E-02 0.  1.
    5000001    1    1    2    0    0  0.51269160145E+02  0.10224621099E+03 -0.58483211551E+03  0.62607940213E+03  0.19200000000E+03 0.  0.
   -5000001    1    1    2    0    0 -0.51269160145E+02 -0.10224621099E+03 -0.55091155313E+03  0.59451690793E+03  0.19200000000E+03 0.  0.
<mgrwt>
<rscale>  0 0.44714838E+03</rscale>
<asrwt>0</asrwt>
<pdfrwt beam="1">  1        2 0.16830998E+00 0.44714838E+03</pdfrwt>
<pdfrwt beam="2">  1       -2 0.60609037E-02 0.44714838E+03</pdfrwt>
<totfact> 0.33693209E+03</totfact>
</mgrwt>
</event>
<event>
 4    1  0.2892809E-005  0.8301532E+03  0.7818608E-02  0.9517369E-01
          2   -1    0    0  501    0  0.00000000000E+00  0.00000000000E+00  0.24761031587E+04  0.24761031587E+04  0.25500000000E-02 0.  1.
         -2   -1    0    0    0  501 -0.00000000000E+00 -0.00000000000E+00 -0.69580531001E+02  0.69580531048E+02  0.25500000000E-02 0. -1.
    5000001    1    1    2    0    0  0.12743792775E+03 -0.31185804470E+03  0.16573625897E+04  0.17021194492E+04  0.19200000000E+03 0.  0.
   -5000001    1    1    2    0    0 -0.12743792775E+03  0.31185804470E+03  0.74916003802E+03  0.84356424061E+03  0.19200000000E+03 0.  0.
<mgrwt>
<rscale>  0 0.83015317E+03</rscale>
<asrwt>0</asrwt>
<pdfrwt beam="1">  1        2 0.35372896E+00 0.83015317E+03</pdfrwt>
<pdfrwt beam="2">  1       -2 0.99400777E-02 0.83015317E+03</pdfrwt>
<totfact> 0.32245491E+02</totfact>
</mgrwt>
</event>
<event>
 4    1  0.2892809E-005  0.6074105E+03  0.7818608E-02  0.9890150E-01
          2   -1    0    0  501    0  0.00000000000E+00  0.00000000000E+00  0.66775119582E+03  0.66775119582E+03  0.25500000000E-02 0.  1.
         -2   -1    0    0    0  501 -0.00000000000E+00 -0.00000000000E+00 -0.13813061226E+03  0.13813061228E+03  0.25500000000E-02 0. -1.
    5000001    1    1    2    0    0  0.23513574651E+02 -0.15796778795E+03  0.49409697221E+03  0.55362670471E+03  0.19200000000E+03 0.  0.
   -5000001    1    1    2    0    0 -0.23513574651E+02  0.15796778795E+03  0.35523611346E+02  0.25225510339E+03  0.19200000000E+03 0.  0.
<mgrwt>
<rscale>  0 0.60741051E+03</rscale>
<asrwt>0</asrwt>
<pdfrwt beam="1">  1        2 0.95393029E-01 0.60741051E+03</pdfrwt>
<pdfrwt beam="2">  1       -2 0.19732944E-01 0.60741051E+03</pdfrwt>
<totfact> 0.10442156E+03</totfact>
</mgrwt>
</event>
<event>
 4    1  0.2892809E-005  0.4928668E+03  0.7818608E-02  0.1015658E+00
         -2   -1    0    0    0  501 -0.00000000000E+00  0.00000000000E+00  0.48535712408E+02  0.48535712475E+02  0.25500000000E-02 0. -1.
          2   -1    0    0  501    0  0.00000000000E+00 -0.00000000000E+00 -0.12512315480E+04  0.12512315480E+04  0.25500000000E-02 0.  1.
    5000001    1    1    2    0    0 -0.64020851993E+02 -0.51621022838E+02 -0.25647452192E+03  0.33076665473E+03  0.19200000000E+03 0.  0.
   -5000001    1    1    2    0    0  0.64020851993E+02  0.51621022838E+02 -0.94622131368E+03  0.96900060575E+03  0.19200000000E+03 0.  0.
<mgrwt>
<rscale>  0 0.49286678E+03</rscale>
<asrwt>0</asrwt>
<pdfrwt beam="1">  1        2 0.17874734E+00 0.49286678E+03</pdfrwt>
<pdfrwt beam="2">  1       -2 0.69336740E-02 0.49286678E+03</pdfrwt>
<totfact> 0.24875414E+03</totfact>
</mgrwt>
</event>
<event>
 4    1  0.2892809E-005  0.7679482E+03  0.7818608E-02  0.9607606E-01
          2   -1    0    0  501    0  0.00000000000E+00  0.00000000000E+00  0.68897376032E+03  0.68897376032E+03  0.25500000000E-02 0.  1.
         -2   -1    0    0    0  501 -0.00000000000E+00 -0.00000000000E+00 -0.21399381534E+03  0.21399381536E+03  0.25500000000E-02 0. -1.
    5000001    1    1    2    0    0  0.30454811716E+03 -0.73294626853E+02  0.10629022311E+03  0.38246995898E+03  0.19200000000E+03 0.  0.
   -5000001    1    1    2    0    0 -0.30454811716E+03  0.73294626853E+02  0.36868972186E+03  0.52049761670E+03  0.19200000000E+03 0.  0.
<mgrwt>
<rscale>  0 0.76794824E+03</rscale>
<asrwt>0</asrwt>
<pdfrwt beam="1">  1        2 0.98424825E-01 0.76794824E+03</pdfrwt>
<pdfrwt beam="2">  1       -2 0.30570544E-01 0.76794824E+03</pdfrwt>
<totfact> 0.45592029E+02</totfact>
</mgrwt>
</event>
<event>
 4    1  0.2892809E-005  0.1251938E+04  0.7818608E-02  0.9068572E-01
          2   -1    0    0  501    0  0.00000000000E+00  0.00000000000E+00  0.48277637071E+03  0.48277637072E+03  0.25500000000E-02 0.  1.
         -2   -1    0    0    0  501 -0.00000000000E+00 -0.00000000000E+00 -0.81163325100E+03  0.81163325101E+03  0.25500000000E-02 0. -1.
    5000001    1    1    2    0    0 -0.20749697924E+03  0.54702739732E+03 -0.48005671987E+02  0.61762651688E+03  0.19200000000E+03 0.  0.
   -5000001    1    1    2    0    0  0.20749697924E+03 -0.54702739732E+03 -0.28085120830E+03  0.67678310485E+03  0.19200000000E+03 0.  0.
<mgrwt>
<rscale>  0 0.12519383E+04</rscale>
<asrwt>0</asrwt>
<pdfrwt beam="1">  1        2 0.68968053E-01 0.12519383E+04</pdfrwt>
<pdfrwt beam="2">  1       -2 0.11594761E+00 0.12519383E+04</pdfrwt>
<totfact> 0.39765542E+01</totfact>
</mgrwt>
</event>
<event>
 4    1  0.2892809E-005  0.3999549E+03  0.7818608E-02  0.1043795E+00
         -2   -1    0    0    0  501 -0.00000000000E+00  0.00000000000E+00  0.25828021304E+02  0.25828021430E+02  0.25500000000E-02 0. -1.
          2   -1    0    0  501    0  0.00000000000E+00 -0.00000000000E+00 -0.15483562571E+04  0.15483562571E+04  0.25500000000E-02 0.  1.
    5000001    1    1    2    0    0 -0.18266755491E+02  0.28014350548E+02 -0.93765677830E+03  0.95769656577E+03  0.19200000000E+03 0.  0.
   -5000001    1    1    2    0    0  0.18266755491E+02 -0.28014350548E+02 -0.58487145746E+03  0.61648771272E+03  0.19200000000E+03 0.  0.
<mgrwt>
<rscale>  0 0.39995489E+03</rscale>
<asrwt>0</asrwt>
<pdfrwt beam="1">  1        2 0.22119369E+00 0.39995489E+03</pdfrwt>
<pdfrwt beam="2">  1       -2 0.36897183E-02 0.39995489E+03</pdfrwt>
<totfact> 0.45916996E+03</totfact>
</mgrwt>
</event>
<event>
 4    1  0.2892809E-005  0.4633245E+03  0.7818608E-02  0.1023821E+00
          2   -1    0    0  501    0  0.00000000000E+00  0.00000000000E+00  0.14634800450E+04  0.14634800450E+04  0.25500000000E-02 0.  1.
         -2   -1    0    0    0  501 -0.00000000000E+00 -0.00000000000E+00 -0.36671085634E+02  0.36671085723E+02  0.25500000000E-02 0. -1.
    5000001    1    1    2    0    0 -0.11249603687E+03 -0.55524321033E+02  0.81907251087E+03  0.85057750182E+03  0.19200000000E+03 0.  0.
   -5000001    1    1    2    0    0  0.11249603687E+03  0.55524321033E+02  0.60773644846E+03  0.64957362887E+03  0.19200000000E+03 0.  0.
<mgrwt>
<rscale>  0 0.46332452E+03</rscale>
<asrwt>0</asrwt>
<pdfrwt beam="1">  1        2 0.20906857E+00 0.46332452E+03</pdfrwt>
<pdfrwt beam="2">  1       -2 0.52387267E-02 0.46332452E+03</pdfrwt>
<totfact> 0.29692113E+03</totfact>
</mgrwt>
</event>
<event>
 4    1  0.2892809E-005  0.5194752E+03  0.7818608E-02  0.1008817E+00
          2   -1    0    0  501    0  0.00000000000E+00  0.00000000000E+00  0.24642740676E+03  0.24642740678E+03  0.25500000000E-02 0.  1.
         -2   -1    0    0    0  501 -0.00000000000E+00 -0.00000000000E+00 -0.27376668750E+03  0.27376668751E+03  0.25500000000E-02 0. -1.
    5000001    1    1    2    0    0 -0.97040904647E+02 -0.55294331659E+02 -0.14848587586E+03  0.26718243883E+03  0.19200000000E+03 0.  0.
   -5000001    1    1    2    0    0  0.97040904647E+02  0.55294331659E+02  0.12114659512E+03  0.25301165546E+03  0.19200000000E+03 0.  0.
<mgrwt>
<rscale>  0 0.51947518E+03</rscale>
<asrwt>0</asrwt>
<pdfrwt beam="1">  1        2 0.35203915E-01 0.51947518E+03</pdfrwt>
<pdfrwt beam="2">  1       -2 0.39109527E-01 0.51947518E+03</pdfrwt>
<totfact> 0.92081242E+02</totfact>
</mgrwt>
</event>
<event>
 4    1  0.2892809E-005  0.7059911E+03  0.7818608E-02  0.9707041E-01
         -2   -1    0    0    0  501 -0.00000000000E+00  0.00000000000E+00  0.41795528500E+03  0.41795528501E+03  0.25500000000E-02 0. -1.
          2   -1    0    0  501    0  0.00000000000E+00 -0.00000000000E+00 -0.29813199168E+03  0.29813199169E+03  0.25500000000E-02 0.  1.
    5000001    1    1    2    0    0 -0.26074716697E+03 -0.27531823335E+02  0.19970406258E+03  0.38143518321E+03  0.19200000000E+03 0.  0.
   -5000001    1    1    2    0    0  0.26074716697E+03  0.27531823335E+02 -0.79880769267E+02  0.33465209349E+03  0.19200000000E+03 0.  0.
<mgrwt>
<rscale>  0 0.70599105E+03</rscale>
<asrwt>0</asrwt>
<pdfrwt beam="1">  1        2 0.42590285E-01 0.70599105E+03</pdfrwt>
<pdfrwt beam="2">  1       -2 0.59707898E-01 0.70599105E+03</pdfrwt>
<totfact> 0.31702958E+02</totfact>
</mgrwt>
</event>
<event>
 4    1  0.2892809E-005  0.7722222E+03  0.7818608E-02  0.9601118E-01
         -2   -1    0    0    0  501 -0.00000000000E+00  0.00000000000E+00  0.20389902435E+03  0.20389902436E+03  0.25500000000E-02 0. -1.
          2   -1    0    0  501    0  0.00000000000E+00 -0.00000000000E+00 -0.73115487110E+03  0.73115487110E+03  0.25500000000E-02 0.  1.
    5000001    1    1    2    0    0 -0.35689087062E+02  0.21911469751E+03 -0.56738956006E+03  0.63881129801E+03  0.19200000000E+03 0.  0.
   -5000001    1    1    2    0    0  0.35689087062E+02 -0.21911469751E+03  0.40133713316E+02  0.29624259745E+03  0.19200000000E+03 0.  0.
<mgrwt>
<rscale>  0 0.77222216E+03</rscale>
<asrwt>0</asrwt>
<pdfrwt beam="1">  1        2 0.10445069E+00 0.77222216E+03</pdfrwt>
<pdfrwt beam="2">  1       -2 0.29128433E-01 0.77222216E+03</pdfrwt>
<totfact> 0.46319575E+02</totfact>
</mgrwt>
</event>
<event>
 4    1  0.2892809E-005  0.6754233E+03  0.7818608E-02  0.9760210E-01
         -2   -1    0    0    0  501 -0.00000000000E+00  0.00000000000E+00  0.16513364992E+03  0.16513364994E+03  0.25500000000E-02 0. -1.
          2   -1    0    0  501    0  0.00000000000E+00 -0.00000000000E+00 -0.69064757091E+03  0.69064757092E+03  0.25500000000E-02 0.  1.
    5000001    1    1    2    0    0  0.15320735149E+03 -0.15705874731E+03 -0.46821486646E+02  0.29529001722E+03  0.19200000000E+03 0.  0.
   -5000001    1    1    2    0    0 -0.15320735149E+03  0.15705874731E+03 -0.47869243434E+03  0.56049120364E+03  0.19200000000E+03 0.  0.
<mgrwt>
<rscale>  0 0.67542329E+03</rscale>
<asrwt>0</asrwt>
<pdfrwt beam="1">  1        2 0.98663937E-01 0.67542329E+03</pdfrwt>
<pdfrwt beam="2">  1       -2 0.23590522E-01 0.67542329E+03</pdfrwt>
<totfact> 0.73079873E+02</totfact>
</mgrwt>
</event>
<event>
 4    1  0.2892809E-005  0.4783261E+03  0.7818608E-02  0.1019596E+00
         -2   -1    0    0    0  501 -0.00000000000E+00  0.00000000000E+00  0.55342710432E+02  0.55342710491E+02  0.25500000000E-02 0. -1.
          2   -1    0    0  501    0  0.00000000000E+00 -0.00000000000E+00 -0.10335411289E+04  0.10335411289E+04  0.25500000000E-02 0.  1.
    5000001    1    1    2    0    0 -0.77939647455E+02 -0.11924094262E+03 -0.47435029361E+03  0.53119223647E+03  0.19200000000E+03 0.  0.
   -5000001    1    1    2    0    0  0.77939647455E+02  0.11924094262E+03 -0.50384812482E+03  0.55769160289E+03  0.19200000000E+03 0.  0.
<mgrwt>
<rscale>  0 0.47832611E+03</rscale>
<asrwt>0</asrwt>
<pdfrwt beam="1">  1        2 0.14764872E+00 0.47832611E+03</pdfrwt>
<pdfrwt beam="2">  1       -2 0.79061021E-02 0.47832611E+03</pdfrwt>
<totfact> 0.26891195E+03</totfact>
</mgrwt>
</event>
<event>
 4    1  0.2892809E-005  0.6560371E+03  0.7818608E-02  0.9795516E-01
         -2   -1    0    0    0  501 -0.00000000000E+00  0.00000000000E+00  0.38828201720E+02  0.38828201804E+02  0.25500000000E-02 0. -1.
          2   -1    0    0  501    0  0.00000000000E+00 -0.00000000000E+00 -0.27710831548E+04  0.27710831548E+04  0.25500000000E-02 0.  1.
    5000001    1    1    2    0    0 -0.25127500939E+03 -0.55084249085E+02 -0.10769342650E+04  0.11237547846E+04  0.19200000000E+03 0.  0.
   -5000001    1    1    2    0    0  0.25127500939E+03  0.55084249085E+02 -0.16553206880E+04  0.16861565719E+04  0.19200000000E+03 0.  0.
<mgrwt>
<rscale>  0 0.65603712E+03</rscale>
<asrwt>0</asrwt>
<pdfrwt beam="1">  1        2 0.39586890E+00 0.65603712E+03</pdfrwt>
<pdfrwt beam="2">  1       -2 0.55468877E-02 0.65603712E+03</pdfrwt>
<totfact> 0.58120888E+02</totfact>
</mgrwt>
</event>
<event>
 4    1  0.2892809E-005  0.1007991E+04  0.7818608E-02  0.9299824E-01
         -2   -1    0    0    0  501 -0.00000000000E+00  0.00000000000E+00  0.12322564460E+03  0.12322564462E+03  0.25500000000E-02 0. -1.
          2   -1    0    0  501    0  0.00000000000E+00 -0.00000000000E+00 -0.20613523813E+04  0.20613523813E+04  0.25500000000E-02 0.  1.
    5000001    1    1    2    0    0 -0.74591789696E+02  0.35946405521E+03 -0.15910673230E+04  0.16441221270E+04  0.19200000000E+03 0.  0.
   -5000001    1    1    2    0    0  0.74591789696E+02 -0.35946405521E+03 -0.34705941373E+03  0.54045589898E+03  0.19200000000E+03 0.  0.
<mgrwt>
<rscale>  0 0.10079910E+04</rscale>
<asrwt>0</asrwt>
<pdfrwt beam="1">  1        2 0.29447889E+00 0.10079910E+04</pdfrwt>
<pdfrwt beam="2">  1       -2 0.17603665E-01 0.10079910E+04</pdfrwt>
<totfact> 0.19925151E+02</totfact>
</mgrwt>
</event>
<event>
 4    1  0.2892809E-005  0.4484064E+03  0.7818608E-02  0.1028198E+00
         -2   -1    0    0    0  501 -0.00000000000E+00  0.00000000000E+00  0.71287560619E+02  0.71287560664E+02  0.25500000000E-02 0. -1.
          2   -1    0    0  501    0  0.00000000000E+00 -0.00000000000E+00 -0.70513114103E+03  0.70513114104E+03  0.25500000000E-02 0.  1.
    5000001    1    1    2    0    0 -0.47846955132E+02  0.70182503941E+02 -0.45313056147E+03  0.49940586772E+03  0.19200000000E+03 0.  0.
   -5000001    1    1    2    0    0  0.47846955132E+02 -0.70182503941E+02 -0.18071301895E+03  0.27701283398E+03  0.19200000000E+03 0.  0.
<mgrwt>
<rscale>  0 0.44840642E+03</rscale>
<asrwt>0</asrwt>
<pdfrwt beam="1">  1        2 0.10073302E+00 0.44840642E+03</pdfrwt>
<pdfrwt beam="2">  1       -2 0.10183938E-01 0.44840642E+03</pdfrwt>
<totfact> 0.29513910E+03</totfact>
</mgrwt>
</event>
<event>
 4    1  0.2892809E-005  0.6239124E+03  0.7818608E-02  0.9857001E-01
          2   -1    0    0  501    0  0.00000000000E+00  0.00000000000E+00  0.12375341635E+04  0.12375341635E+04  0.25500000000E-02 0.  1.
         -2   -1    0    0    0  501 -0.00000000000E+00 -0.00000000000E+00 -0.78637555353E+02  0.78637555394E+02  0.25500000000E-02 0. -1.
    5000001    1    1    2    0    0  0.10103931622E+03  0.20167271874E+03  0.78583728249E+03  0.83981251685E+03  0.19200000000E+03 0.  0.
   -5000001    1    1    2    0    0 -0.10103931622E+03 -0.20167271874E+03  0.37305932562E+03  0.47635920201E+03  0.19200000000E+03 0.  0.
<mgrwt>
<rscale>  0 0.62391237E+03</rscale>
<asrwt>0</asrwt>
<pdfrwt beam="1">  1        2 0.17679058E+00 0.62391237E+03</pdfrwt>
<pdfrwt beam="2">  1       -2 0.11233937E-01 0.62391237E+03</pdfrwt>
<totfact> 0.11644510E+03</totfact>
</mgrwt>
</event>
<event>
 4    1  0.2892809E-005  0.5988367E+03  0.7818608E-02  0.9907822E-01
         -2   -1    0    0    0  501 -0.00000000000E+00  0.00000000000E+00  0.60070321946E+02  0.60070322000E+02  0.25500000000E-02 0.  1.
          2   -1    0    0  501    0  0.00000000000E+00 -0.00000000000E+00 -0.14924401558E+04  0.14924401558E+04  0.25500000000E-02 0. -1.
    5000001    1    1    2    0    0 -0.13224194995E+03 -0.14472020309E+03 -0.40556084059E+03  0.48966873081E+03  0.19200000000E+03 0.  0.
   -5000001    1    1    2    0    0  0.13224194995E+03  0.14472020309E+03 -0.10268089932E+04  0.10628417470E+04  0.19200000000E+03 0.  0.
<mgrwt>
<rscale>  0 0.59883674E+03</rscale>
<asrwt>0</asrwt>
<pdfrwt beam="1">  1        2 0.21320571E+00 0.59883674E+03</pdfrwt>
<pdfrwt beam="2">  1       -2 0.85814755E-02 0.59883674E+03</pdfrwt>
<totfact> 0.13157312E+03</totfact>
</mgrwt>
</event>
<event>
 4    1  0.2892809E-005  0.5442107E+03  0.7818608E-02  0.1002843E+00
         -2   -1    0    0    0  501 -0.00000000000E+00  0.00000000000E+00  0.56919190320E+03  0.56919190321E+03  0.25500000000E-02 0. -1.
          2   -1    0    0  501    0  0.00000000000E+00 -0.00000000000E+00 -0.13008145846E+03  0.13008145849E+03  0.25500000000E-02 0.  1.
    5000001    1    1    2    0    0 -0.10621894776E+03 -0.12903032663E+03  0.34310939445E+03  0.42722283016E+03  0.19200000000E+03 0.  0.
   -5000001    1    1    2    0    0  0.10621894776E+03  0.12903032663E+03  0.96001050288E+02  0.27205053153E+03  0.19200000000E+03 0.  0.
<mgrwt>
<rscale>  0 0.54421067E+03</rscale>
<asrwt>0</asrwt>
<pdfrwt beam="1">  1        2 0.18583066E-01 0.54421067E+03</pdfrwt>
<pdfrwt beam="2">  1       -2 0.81313129E-01 0.54421067E+03</pdfrwt>
<totfact> 0.41702202E+02</totfact>
</mgrwt>
</event>
<event>
 4    1  0.2892809E-005  0.9561659E+03  0.7818608E-02  0.9357972E-01
          2   -1    0    0  501    0  0.00000000000E+00  0.00000000000E+00  0.12527804391E+04  0.12527804391E+04  0.25500000000E-02 0.  1.
         -2   -1    0    0    0  501 -0.00000000000E+00 -0.00000000000E+00 -0.18244483761E+03  0.18244483762E+03  0.25500000000E-02 0. -1.
    5000001    1    1    2    0    0 -0.32025268185E+03 -0.21292836953E+03  0.22103074605E+03  0.48334135089E+03  0.19200000000E+03 0.  0.
   -5000001    1    1    2    0    0  0.32025268185E+03  0.21292836953E+03  0.84930485541E+03  0.95188392580E+03  0.19200000000E+03 0.  0.
<mgrwt>
<rscale>  0 0.95616593E+03</rscale>
<asrwt>0</asrwt>
<pdfrwt beam="1">  1        2 0.17896863E+00 0.95616593E+03</pdfrwt>
<pdfrwt beam="2">  1       -2 0.26063548E-01 0.95616593E+03</pdfrwt>
<totfact> 0.26452946E+02</totfact>
</mgrwt>
</event>
<event>
 4    1  0.2892809E-005  0.1337405E+04  0.7818608E-02  0.9000417E-01
          2   -1    0    0  501    0  0.00000000000E+00  0.00000000000E+00  0.18227397529E+04  0.18227397529E+04  0.25500000000E-02 0.  1.
         -2   -1    0    0    0  501 -0.00000000000E+00 -0.00000000000E+00 -0.24532476206E+03  0.24532476207E+03  0.25500000000E-02 0. -1.
    5000001    1    1    2    0    0 -0.61162207651E+03 -0.37064644529E+02  0.50006246103E+03  0.81386842750E+03  0.19200000000E+03 0.  0.
   -5000001    1    1    2    0    0  0.61162207651E+03  0.37064644529E+02  0.10773525298E+04  0.12541960875E+04  0.19200000000E+03 0.  0.
<mgrwt>
<rscale>  0 0.13374052E+04</rscale>
<asrwt>0</asrwt>
<pdfrwt beam="1">  1        2 0.26039140E+00 0.13374052E+04</pdfrwt>
<pdfrwt beam="2">  1       -2 0.35046393E-01 0.13374052E+04</pdfrwt>
<totfact> 0.74021952E+01</totfact>
</mgrwt>
</event>
<event>
 4    1  0.2892809E-005  0.4640047E+03  0.7818608E-02  0.1023626E+00
         -2   -1    0    0    0  501 -0.00000000000E+00  0.00000000000E+00  0.30140599514E+02  0.30140599622E+02  0.25500000000E-02 0.  1.
          2   -1    0    0  501    0  0.00000000000E+00 -0.00000000000E+00 -0.17857999531E+04  0.17857999531E+04  0.25500000000E-02 0. -1.
    5000001    1    1    2    0    0  0.23995232021E+02 -0.94235225697E+02 -0.12168732913E+04  0.12357591415E+04  0.19200000000E+03 0.  0.
   -5000001    1    1    2    0    0 -0.23995232021E+02  0.94235225697E+02 -0.53878606230E+03  0.58018141116E+03  0.19200000000E+03 0.  0.
<mgrwt>
<rscale>  0 0.46400466E+03</rscale>
<asrwt>0</asrwt>
<pdfrwt beam="1">  1        2 0.25511421E+00 0.46400466E+03</pdfrwt>
<pdfrwt beam="2">  1       -2 0.43058011E-02 0.46400466E+03</pdfrwt>
<totfact> 0.27529930E+03</totfact>
</mgrwt>
</event>
<event>
 4    1  0.2892809E-005  0.4485916E+03  0.7818608E-02  0.1028143E+00
          2   -1    0    0  501    0  0.00000000000E+00  0.00000000000E+00  0.16882491770E+04  0.16882491770E+04  0.25500000000E-02 0.  1.
         -2   -1    0    0    0  501 -0.00000000000E+00 -0.00000000000E+00 -0.29799272885E+02  0.29799272994E+02  0.25500000000E-02 0. -1.
    5000001    1    1    2    0    0  0.11268235692E+02  0.10964116358E+03  0.69132613610E+03  0.72590907443E+03  0.19200000000E+03 0.  0.
   -5000001    1    1    2    0    0 -0.11268235692E+02 -0.10964116358E+03  0.96712376805E+03  0.99213937560E+03  0.19200000000E+03 0.  0.
<mgrwt>
<rscale>  0 0.44859156E+03</rscale>
<asrwt>0</asrwt>
<pdfrwt beam="1">  1        2 0.24117846E+00 0.44859156E+03</pdfrwt>
<pdfrwt beam="2">  1       -2 0.42570389E-02 0.44859156E+03</pdfrwt>
<totfact> 0.31367983E+03</totfact>
</mgrwt>
</event>
<event>
 4    1  0.2892809E-005  0.3994146E+03  0.7818608E-02  0.1043983E+00
         -2   -1    0    0    0  501 -0.00000000000E+00  0.00000000000E+00  0.96822745965E+02  0.96822745998E+02  0.25500000000E-02 0. -1.
          2   -1    0    0  501    0  0.00000000000E+00 -0.00000000000E+00 -0.41191763731E+03  0.41191763731E+03  0.25500000000E-02 0.  1.
    5000001    1    1    2    0    0  0.53524066996E+02 -0.82373253051E+01 -0.16938117760E+03  0.26169956553E+03  0.19200000000E+03 0.  0.
   -5000001    1    1    2    0    0 -0.53524066996E+02  0.82373253051E+01 -0.14571371374E+03  0.24704081778E+03  0.19200000000E+03 0.  0.
<mgrwt>
<rscale>  0 0.39941456E+03</rscale>
<asrwt>0</asrwt>
<pdfrwt beam="1">  1        2 0.58845376E-01 0.39941456E+03</pdfrwt>
<pdfrwt beam="2">  1       -2 0.13831821E-01 0.39941456E+03</pdfrwt>
<totfact> 0.33068761E+03</totfact>
</mgrwt>
</event>
<event>
 4    1  0.2892809E-005  0.6770552E+03  0.7818608E-02  0.9757296E-01
         -2   -1    0    0    0  501 -0.00000000000E+00  0.00000000000E+00  0.72127898159E+02  0.72127898204E+02  0.25500000000E-02 0. -1.
          2   -1    0    0  501    0  0.00000000000E+00 -0.00000000000E+00 -0.15888570845E+04  0.15888570845E+04  0.25500000000E-02 0.  1.
    5000001    1    1    2    0    0 -0.27806793000E+03  0.99436797665E+01 -0.80199323837E+03  0.87033200840E+03  0.19200000000E+03 0.  0.
   -5000001    1    1    2    0    0  0.27806793000E+03 -0.99436797665E+01 -0.71473594801E+03  0.79065297434E+03  0.19200000000E+03 0.  0.
<mgrwt>
<rscale>  0 0.67705516E+03</rscale>
<asrwt>0</asrwt>
<pdfrwt beam="1">  1        2 0.22697956E+00 0.67705516E+03</pdfrwt>
<pdfrwt beam="2">  1       -2 0.10303986E-01 0.67705516E+03</pdfrwt>
<totfact> 0.86974332E+02</totfact>
</mgrwt>
</event>
<event>
 4    1  0.2892809E-005  0.5339851E+03  0.7818608E-02  0.1005270E+00
         -2   -1    0    0    0  501 -0.00000000000E+00  0.00000000000E+00  0.20927919897E+03  0.20927919899E+03  0.25500000000E-02 0. -1.
          2   -1    0    0  501    0  0.00000000000E+00 -0.00000000000E+00 -0.34062163338E+03  0.34062163339E+03  0.25500000000E-02 0.  1.
    5000001    1    1    2    0    0  0.66743928879E+02 -0.17240853236E+03 -0.81676944220E+02  0.27877334394E+03  0.19200000000E+03 0.  0.
   -5000001    1    1    2    0    0 -0.66743928879E+02  0.17240853236E+03 -0.49665490185E+02  0.27112748844E+03  0.19200000000E+03 0.  0.
<mgrwt>
<rscale>  0 0.53398510E+03</rscale>
<asrwt>0</asrwt>
<pdfrwt beam="1">  1        2 0.48660233E-01 0.53398510E+03</pdfrwt>
<pdfrwt beam="2">  1       -2 0.29897028E-01 0.53398510E+03</pdfrwt>
<totfact> 0.10690126E+03</totfact>
</mgrwt>
</event>
<event>
 4    1  0.2892809E-005  0.5805926E+03  0.7818608E-02  0.9946509E-01
         -2   -1    0    0    0  501 -0.00000000000E+00  0.00000000000E+00  0.32555330695E+02  0.32555330795E+02  0.25500000000E-02 0. -1.
          2   -1    0    0  501    0  0.00000000000E+00 -0.00000000000E+00 -0.25885756076E+04  0.25885756076E+04  0.25500000000E-02 0.  1.
    5000001    1    1    2    0    0 -0.20691884204E+02  0.19566345423E+03 -0.16989953661E+04  0.17210931397E+04  0.19200000000E+03 0.  0.
   -5000001    1    1    2    0    0  0.20691884204E+02 -0.19566345423E+03 -0.85702491078E+03  0.90003779870E+03  0.19200000000E+03 0.  0.
<mgrwt>
<rscale>  0 0.58059258E+03</rscale>
<asrwt>0</asrwt>
<pdfrwt beam="1">  1        2 0.36979639E+00 0.58059258E+03</pdfrwt>
<pdfrwt beam="2">  1       -2 0.46507632E-02 0.58059258E+03</pdfrwt>
<totfact> 0.95786203E+02</totfact>
</mgrwt>
</event>
<event>
 4    1  0.2892809E-005  0.7136923E+03  0.7818608E-02  0.9694099E-01
          2   -1    0    0  501    0  0.00000000000E+00  0.00000000000E+00  0.49173971660E+04  0.49173971660E+04  0.25500000000E-02 0.  1.
         -2   -1    0    0    0  501 -0.00000000000E+00 -0.00000000000E+00 -0.25895645850E+02  0.25895645976E+02  0.25500000000E-02 0. -1.
    5000001    1    1    2    0    0  0.28617107113E+03  0.37901977947E+02  0.18602892428E+04  0.18923188180E+04  0.19200000000E+03 0.  0.
   -5000001    1    1    2    0    0 -0.28617107113E+03 -0.37901977947E+02  0.30312122774E+04  0.30509739940E+04  0.19200000000E+03 0.  0.
<mgrwt>
<rscale>  0 0.71369230E+03</rscale>
<asrwt>0</asrwt>
<pdfrwt beam="1">  1        2 0.70248542E+00 0.71369230E+03</pdfrwt>
<pdfrwt beam="2">  1       -2 0.36993774E-02 0.71369230E+03</pdfrwt>
<totfact> 0.39842527E+01</totfact>
</mgrwt>
</event>
<event>
 4    1  0.2892809E-005  0.1075538E+04  0.7818608E-02  0.9229368E-01
         -2   -1    0    0    0  501 -0.00000000000E+00  0.00000000000E+00  0.11170893009E+03  0.11170893011E+03  0.25500000000E-02 0. -1.
          2   -1    0    0  501    0  0.00000000000E+00 -0.00000000000E+00 -0.25888285072E+04  0.25888285072E+04  0.25500000000E-02 0.  1.
    5000001    1    1    2    0    0 -0.35218054443E+03  0.33388936309E+03 -0.15641805240E+04  0.16489505615E+04  0.19200000000E+03 0.  0.
   -5000001    1    1    2    0    0  0.35218054443E+03 -0.33388936309E+03 -0.91293905315E+03  0.10515868758E+04  0.19200000000E+03 0.  0.
<mgrwt>
<rscale>  0 0.10755376E+04</rscale>
<asrwt>0</asrwt>
<pdfrwt beam="1">  1        2 0.36983261E+00 0.10755376E+04</pdfrwt>
<pdfrwt beam="2">  1       -2 0.15958420E-01 0.10755376E+04</pdfrwt>
<totfact> 0.12535136E+02</totfact>
</mgrwt>
</event>
<event>
 4    1  0.2892809E-005  0.8437979E+03  0.7818608E-02  0.9498699E-01
          2   -1    0    0  501    0  0.00000000000E+00  0.00000000000E+00  0.24823721580E+04  0.24823721580E+04  0.25500000000E-02 0.  1.
         -2   -1    0    0    0  501 -0.00000000000E+00 -0.00000000000E+00 -0.71705083706E+02  0.71705083751E+02  0.25500000000E-02 0. -1.
    5000001    1    1    2    0    0 -0.30708520316E+03  0.16794135509E+03  0.79219914757E+03  0.88710152190E+03  0.19200000000E+03 0.  0.
   -5000001    1    1    2    0    0  0.30708520316E+03 -0.16794135509E+03  0.16184679267E+04  0.16669757199E+04  0.19200000000E+03 0.  0.
<mgrwt>
<rscale>  0 0.84379785E+03</rscale>
<asrwt>0</asrwt>
<pdfrwt beam="1">  1        2 0.35462457E+00 0.84379785E+03</pdfrwt>
<pdfrwt beam="2">  1       -2 0.10243584E-01 0.84379785E+03</pdfrwt>
<totfact> 0.30439140E+02</totfact>
</mgrwt>
</event>
<event>
 4    1  0.2892809E-005  0.6900850E+03  0.7818608E-02  0.9734340E-01
         -2   -1    0    0    0  501 -0.00000000000E+00  0.00000000000E+00  0.11526887223E+03  0.11526887226E+03  0.25500000000E-02 0. -1.
          2   -1    0    0  501    0  0.00000000000E+00 -0.00000000000E+00 -0.10328402933E+04  0.10328402933E+04  0.25500000000E-02 0.  1.
    5000001    1    1    2    0    0  0.19059315441E+03 -0.16932341302E+03 -0.24062770635E+03  0.39970221636E+03  0.19200000000E+03 0.  0.
   -5000001    1    1    2    0    0 -0.19059315441E+03  0.16932341302E+03 -0.67694371476E+03  0.74840694923E+03  0.19200000000E+03 0.  0.
<mgrwt>
<rscale>  0 0.69008503E+03</rscale>
<asrwt>0</asrwt>
<pdfrwt beam="1">  1        2 0.14754861E+00 0.69008503E+03</pdfrwt>
<pdfrwt beam="2">  1       -2 0.16466982E-01 0.69008503E+03</pdfrwt>
<totfact> 0.80507493E+02</totfact>
</mgrwt>
</event>
<event>
 4    1  0.2892809E-005  0.5045789E+03  0.7818608E-02  0.1012591E+00
          2   -1    0    0  501    0  0.00000000000E+00  0.00000000000E+00  0.18667568027E+04  0.18667568027E+04  0.25500000000E-02 0.  1.
         -2   -1    0    0    0  501 -0.00000000000E+00 -0.00000000000E+00 -0.34096549904E+02  0.34096550000E+02  0.25500000000E-02 0. -1.
    5000001    1    1    2    0    0 -0.33749244028E+02 -0.16013973580E+03  0.91071696210E+03  0.94501488428E+03  0.19200000000E+03 0.  0.
   -5000001    1    1    2    0    0  0.33749244028E+02  0.16013973580E+03  0.92194329068E+03  0.95583846840E+03  0.19200000000E+03 0.  0.
<mgrwt>
<rscale>  0 0.50457890E+03</rscale>
<asrwt>0</asrwt>
<pdfrwt beam="1">  1        2 0.26667961E+00 0.50457890E+03</pdfrwt>
<pdfrwt beam="2">  1       -2 0.48709346E-02 0.50457890E+03</pdfrwt>
<totfact> 0.20720492E+03</totfact>
</mgrwt>
</event>
<event>
 4    1  0.2892809E-005  0.6239631E+03  0.7818608E-02  0.9856901E-01
         -2   -1    0    0    0  501 -0.00000000000E+00  0.00000000000E+00  0.76457439882E+02  0.76457439924E+02  0.25500000000E-02 0.  1.
          2   -1    0    0  501    0  0.00000000000E+00 -0.00000000000E+00 -0.12730282666E+04  0.12730282666E+04  0.25500000000E-02 0. -1.
    5000001    1    1    2    0    0 -0.14257919818E+03 -0.10698384795E+03 -0.23192732969E+03  0.34989806763E+03  0.19200000000E+03 0.  0.
   -5000001    1    1    2    0    0  0.14257919818E+03  0.10698384795E+03 -0.96464349705E+03  0.99958763891E+03  0.19200000000E+03 0.  0.
<mgrwt>
<rscale>  0 0.62396308E+03</rscale>
<asrwt>0</asrwt>
<pdfrwt beam="1">  1        2 0.18186117E+00 0.62396308E+03</pdfrwt>
<pdfrwt beam="2">  1       -2 0.10922492E-01 0.62396308E+03</pdfrwt>
<totfact> 0.11655185E+03</totfact>
</mgrwt>
</event>
<event>
 4    1  0.2892809E-005  0.4798316E+03  0.7818608E-02  0.1019181E+00
          2   -1    0    0  501    0  0.00000000000E+00  0.00000000000E+00  0.15956099426E+03  0.15956099428E+03  0.25500000000E-02 0.  1.
         -2   -1    0    0    0  501 -0.00000000000E+00 -0.00000000000E+00 -0.36073728595E+03  0.36073728596E+03  0.25500000000E-02 0. -1.
    5000001    1    1    2    0    0 -0.65763223415E+02 -0.11426466931E+03 -0.16301405998E+03  0.28428647516E+03  0.19200000000E+03 0.  0.
   -5000001    1    1    2    0    0  0.65763223415E+02  0.11426466931E+03 -0.38162231712E+02  0.23601180508E+03  0.19200000000E+03 0.  0.
<mgrwt>
<rscale>  0 0.47983164E+03</rscale>
<asrwt>0</asrwt>
<pdfrwt beam="1">  1        2 0.22794428E-01 0.47983164E+03</pdfrwt>
<pdfrwt beam="2">  1       -2 0.51533898E-01 0.47983164E+03</pdfrwt>
<totfact> 0.87022763E+02</totfact>
</mgrwt>
</event>
<event>
 4    1  0.2892809E-005  0.8985905E+03  0.7818608E-02  0.9427345E-01
         -2   -1    0    0    0  501 -0.00000000000E+00  0.00000000000E+00  0.15225242965E+03  0.15225242967E+03  0.25500000000E-02 0. -1.
          2   -1    0    0  501    0  0.00000000000E+00 -0.00000000000E+00 -0.13258654277E+04  0.13258654277E+04  0.25500000000E-02 0.  1.
    5000001    1    1    2    0    0  0.37733142111E+03 -0.14610383708E+03 -0.52802702339E+03  0.69238852532E+03  0.19200000000E+03 0.  0.
   -5000001    1    1    2    0    0 -0.37733142111E+03  0.14610383708E+03 -0.64558597465E+03  0.78572933204E+03  0.19200000000E+03 0.  0.
<mgrwt>
<rscale>  0 0.89859052E+03</rscale>
<asrwt>0</asrwt>
<pdfrwt beam="1">  1        2 0.18940934E+00 0.89859052E+03</pdfrwt>
<pdfrwt beam="2">  1       -2 0.21750348E-01 0.89859052E+03</pdfrwt>
<totfact> 0.33452372E+02</totfact>
</mgrwt>
</event>
<event>
 4    1  0.2892809E-005  0.5038841E+03  0.7818608E-02  0.1012770E+00
         -2   -1    0    0    0  501 -0.00000000000E+00  0.00000000000E+00  0.50069979521E+03  0.50069979522E+03  0.25500000000E-02 0. -1.
          2   -1    0    0  501    0  0.00000000000E+00 -0.00000000000E+00 -0.12677218194E+03  0.12677218196E+03  0.25500000000E-02 0.  1.
    5000001    1    1    2    0    0 -0.14613429031E+03  0.54709628201E+02  0.12773249469E+03  0.27843843919E+03  0.19200000000E+03 0.  0.
   -5000001    1    1    2    0    0  0.14613429031E+03 -0.54709628201E+02  0.24619511858E+03  0.34903353798E+03  0.19200000000E+03 0.  0.
<mgrwt>
<rscale>  0 0.50388414E+03</rscale>
<asrwt>0</asrwt>
<pdfrwt beam="1">  1        2 0.18110312E-01 0.50388414E+03</pdfrwt>
<pdfrwt beam="2">  1       -2 0.71528541E-01 0.50388414E+03</pdfrwt>
<totfact> 0.57095764E+02</totfact>
</mgrwt>
</event>
<event>
 4    1  0.2892809E-005  0.5216574E+03  0.7818608E-02  0.1008276E+00
          2   -1    0    0  501    0  0.00000000000E+00  0.00000000000E+00  0.68775537938E+03  0.68775537939E+03  0.25500000000E-02 0.  1.
         -2   -1    0    0    0  501 -0.00000000000E+00 -0.00000000000E+00 -0.98918311728E+02  0.98918311761E+02  0.25500000000E-02 0. -1.
    5000001    1    1    2    0    0 -0.64520753351E+02 -0.16401843894E+03  0.30969546370E+03  0.40477185693E+03  0.19200000000E+03 0.  0.
   -5000001    1    1    2    0    0  0.64520753351E+02  0.16401843894E+03  0.27914160395E+03  0.38190183422E+03  0.19200000000E+03 0.  0.
<mgrwt>
<rscale>  0 0.52165736E+03</rscale>
<asrwt>0</asrwt>
<pdfrwt beam="1">  1        2 0.98250767E-01 0.52165736E+03</pdfrwt>
<pdfrwt beam="2">  1       -2 0.14131188E-01 0.52165736E+03</pdfrwt>
<totfact> 0.17797166E+03</totfact>
</mgrwt>
</event>
<event>
 4    1  0.2892809E-005  0.5253316E+03  0.7818608E-02  0.1007371E+00
          2   -1    0    0  501    0  0.00000000000E+00  0.00000000000E+00  0.58597260282E+03  0.58597260282E+03  0.25500000000E-02 0. -1.
         -2   -1    0    0    0  501 -0.00000000000E+00 -0.00000000000E+00 -0.11774156703E+03  0.11774156705E+03  0.25500000000E-02 0.  1.
    5000001    1    1    2    0    0  0.17890361379E+03  0.14577636923E+01  0.21939834855E+03  0.34206470653E+03  0.19200000000E+03 0.  0.
   -5000001    1    1    2    0    0 -0.17890361379E+03 -0.14577636923E+01  0.24883268724E+03  0.36164946335E+03  0.19200000000E+03 0.  0.
<mgrwt>
<rscale>  0 0.52533164E+03</rscale>
<asrwt>0</asrwt>
<pdfrwt beam="1">  1        2 0.83710373E-01 0.52533164E+03</pdfrwt>
<pdfrwt beam="2">  1       -2 0.16820224E-01 0.52533164E+03</pdfrwt>
<totfact> 0.16053199E+03</totfact>
</mgrwt>
</event>
<event>
 4    1  0.2892809E-005  0.7508667E+03  0.7818608E-02  0.9633992E-01
         -2   -1    0    0    0  501 -0.00000000000E+00  0.00000000000E+00  0.47235722643E+02  0.47235722712E+02  0.25500000000E-02 0. -1.
          2   -1    0    0  501    0  0.00000000000E+00 -0.00000000000E+00 -0.29839743028E+04  0.29839743028E+04  0.25500000000E-02 0.  1.
    5000001    1    1    2    0    0  0.10459409169E+03  0.22795931679E+03 -0.22875894781E+04  0.23092931807E+04  0.19200000000E+03 0.  0.
   -5000001    1    1    2    0    0 -0.10459409169E+03 -0.22795931679E+03 -0.64914910211E+03  0.72191684487E+03  0.19200000000E+03 0.  0.
<mgrwt>
<rscale>  0 0.75086665E+03</rscale>
<asrwt>0</asrwt>
<pdfrwt beam="1">  1        2 0.42628192E+00 0.75086665E+03</pdfrwt>
<pdfrwt beam="2">  1       -2 0.67479623E-02 0.75086665E+03</pdfrwt>
<totfact> 0.32527721E+02</totfact>
</mgrwt>
</event>
<event>
 4    1  0.2892809E-005  0.4269155E+03  0.7818608E-02  0.1034839E+00
         -2   -1    0    0    0  501 -0.00000000000E+00  0.00000000000E+00  0.24964367963E+02  0.24964368093E+02  0.25500000000E-02 0. -1.
          2   -1    0    0  501    0  0.00000000000E+00 -0.00000000000E+00 -0.18251695410E+04  0.18251695410E+04  0.25500000000E-02 0.  1.
    5000001    1    1    2    0    0  0.18531319444E+01 -0.87579414995E+02 -0.76124637555E+03  0.78995799402E+03  0.19200000000E+03 0.  0.
   -5000001    1    1    2    0    0 -0.18531319444E+01  0.87579414995E+02 -0.10389587975E+04  0.10601759151E+04  0.19200000000E+03 0.  0.
<mgrwt>
<rscale>  0 0.42691547E+03</rscale>
<asrwt>0</asrwt>
<pdfrwt beam="1">  1        2 0.26073842E+00 0.42691547E+03</pdfrwt>
<pdfrwt beam="2">  1       -2 0.35663395E-02 0.42691547E+03</pdfrwt>
<totfact> 0.35089383E+03</totfact>
</mgrwt>
</event>
<event>
 4    1  0.2892809E-005  0.6909859E+03  0.7818608E-02  0.9732773E-01
          2   -1    0    0  501    0  0.00000000000E+00  0.00000000000E+00  0.10866201732E+03  0.10866201735E+03  0.25500000000E-02 0.  1.
         -2   -1    0    0    0  501 -0.00000000000E+00 -0.00000000000E+00 -0.10985013908E+04  0.10985013908E+04  0.25500000000E-02 0. -1.
    5000001    1    1    2    0    0 -0.13302192985E+03  0.18350393498E+03 -0.18666739541E+03  0.35082366580E+03  0.19200000000E+03 0.  0.
   -5000001    1    1    2    0    0  0.13302192985E+03 -0.18350393498E+03 -0.80317197812E+03  0.85633974240E+03  0.19200000000E+03 0.  0.
<mgrwt>
<rscale>  0 0.69098590E+03</rscale>
<asrwt>0</asrwt>
<pdfrwt beam="1">  1        2 0.15523146E-01 0.69098590E+03</pdfrwt>
<pdfrwt beam="2">  1       -2 0.15692876E+00 0.69098590E+03</pdfrwt>
<totfact> 0.10359397E+02</totfact>
</mgrwt>
</event>
<event>
 4    1  0.2892809E-005  0.6731370E+03  0.7818608E-02  0.9764307E-01
          2   -1    0    0  501    0  0.00000000000E+00  0.00000000000E+00  0.62496608332E+03  0.62496608332E+03  0.25500000000E-02 0. -1.
         -2   -1    0    0    0  501 -0.00000000000E+00 -0.00000000000E+00 -0.18125521238E+03  0.18125521240E+03  0.25500000000E-02 0.  1.
    5000001    1    1    2    0    0 -0.30809164070E+02  0.25005311291E+03  0.85618654202E+02  0.32813155565E+03  0.19200000000E+03 0.  0.
   -5000001    1    1    2    0    0  0.30809164070E+02 -0.25005311291E+03  0.35809221674E+03  0.47808974007E+03  0.19200000000E+03 0.  0.
<mgrwt>
<rscale>  0 0.67313701E+03</rscale>
<asrwt>0</asrwt>
<pdfrwt beam="1">  1        2 0.89280869E-01 0.67313701E+03</pdfrwt>
<pdfrwt beam="2">  1       -2 0.25893602E-01 0.67313701E+03</pdfrwt>
<totfact> 0.69750075E+02</totfact>
</mgrwt>
</event>
<event>
 4    1  0.2892809E-005  0.8206078E+03  0.7818608E-02  0.9530658E-01
          2   -1    0    0  501    0  0.00000000000E+00  0.00000000000E+00  0.12354123638E+04  0.12354123638E+04  0.25500000000E-02 0.  1.
         -2   -1    0    0    0  501 -0.00000000000E+00 -0.00000000000E+00 -0.13626971516E+03  0.13626971518E+03  0.25500000000E-02 0. -1.
    5000001    1    1    2    0    0  0.22502800032E+03 -0.27622630775E+03  0.66228244834E+03  0.77615759701E+03  0.19200000000E+03 0.  0.
   -5000001    1    1    2    0    0 -0.22502800032E+03  0.27622630775E+03  0.43686020029E+03  0.59552448197E+03  0.19200000000E+03 0.  0.
<mgrwt>
<rscale>  0 0.82060780E+03</rscale>
<asrwt>0</asrwt>
<pdfrwt beam="1">  1        2 0.17648748E+00 0.82060780E+03</pdfrwt>
<pdfrwt beam="2">  1       -2 0.19467102E-01 0.82060780E+03</pdfrwt>
<totfact> 0.45800094E+02</totfact>
</mgrwt>
</event>
<event>
 4    1  0.2892809E-005  0.4983667E+03  0.7818608E-02  0.1014206E+00
          2   -1    0    0  501    0  0.00000000000E+00  0.00000000000E+00  0.12862070715E+04  0.12862070715E+04  0.25500000000E-02 0.  1.
         -2   -1    0    0    0  501 -0.00000000000E+00 -0.00000000000E+00 -0.48275536914E+02  0.48275536982E+02  0.25500000000E-02 0. -1.
    5000001    1    1    2    0    0 -0.68031187212E+02  0.14226749014E+03  0.66977572553E+03  0.71437511413E+03  0.19200000000E+03 0.  0.
   -5000001    1    1    2    0    0  0.68031187212E+02 -0.14226749014E+03  0.56815580906E+03  0.62010749436E+03  0.19200000000E+03 0.  0.
<mgrwt>
<rscale>  0 0.49836668E+03</rscale>
<asrwt>0</asrwt>
<pdfrwt beam="1">  1        2 0.18374387E+00 0.49836668E+03</pdfrwt>
<pdfrwt beam="2">  1       -2 0.68965052E-02 0.49836668E+03</pdfrwt>
<totfact> 0.24008488E+03</totfact>
</mgrwt>
</event>
<event>
 4    1  0.2892809E-005  0.6612718E+03  0.7818608E-02  0.9785855E-01
         -2   -1    0    0    0  501 -0.00000000000E+00  0.00000000000E+00  0.67823798209E+02  0.67823798257E+02  0.25500000000E-02 0. -1.
          2   -1    0    0  501    0  0.00000000000E+00 -0.00000000000E+00 -0.16118252137E+04  0.16118252137E+04  0.25500000000E-02 0.  1.
    5000001    1    1    2    0    0 -0.17020251444E+03  0.16882748017E+03 -0.46107290381E+03  0.55400707271E+03  0.19200000000E+03 0.  0.
   -5000001    1    1    2    0    0  0.17020251444E+03 -0.16882748017E+03 -0.10829285117E+04  0.11256419392E+04  0.19200000000E+03 0.  0.
<mgrwt>
<rscale>  0 0.66127183E+03</rscale>
<asrwt>0</asrwt>
<pdfrwt beam="1">  1        2 0.23026072E+00 0.66127183E+03</pdfrwt>
<pdfrwt beam="2">  1       -2 0.96891150E-02 0.66127183E+03</pdfrwt>
<totfact> 0.93597603E+02</totfact>
</mgrwt>
</event>
<event>
 4    1  0.2892809E-005  0.6780090E+03  0.7818608E-02  0.9755597E-01
          2   -1    0    0  501    0  0.00000000000E+00  0.00000000000E+00  0.32456827024E+03  0.32456827025E+03  0.25500000000E-02 0.  1.
         -2   -1    0    0    0  501 -0.00000000000E+00 -0.00000000000E+00 -0.35408277768E+03  0.35408277769E+03  0.25500000000E-02 0. -1.
    5000001    1    1    2    0    0  0.16021167929E+03 -0.19867619851E+03  0.99016660587E+02  0.33437750090E+03  0.19200000000E+03 0.  0.
   -5000001    1    1    2    0    0 -0.16021167929E+03  0.19867619851E+03 -0.12853116803E+03  0.34427354704E+03  0.19200000000E+03 0.  0.
<mgrwt>
<rscale>  0 0.67800895E+03</rscale>
<asrwt>0</asrwt>
<pdfrwt beam="1">  1        2 0.46366896E-01 0.67800895E+03</pdfrwt>
<pdfrwt beam="2">  1       -2 0.50583254E-01 0.67800895E+03</pdfrwt>
<totfact> 0.40704537E+02</totfact>
</mgrwt>
</event>
<event>
 4    1  0.2892809E-005  0.4693345E+03  0.7818608E-02  0.1022108E+00
          2   -1    0    0  501    0  0.00000000000E+00  0.00000000000E+00  0.38587057031E+03  0.38587057032E+03  0.25500000000E-02 0.  1.
         -2   -1    0    0    0  501 -0.00000000000E+00 -0.00000000000E+00 -0.14271293922E+03  0.14271293924E+03  0.25500000000E-02 0. -1.
    5000001    1    1    2    0    0  0.19688104469E+02  0.11276165917E+03  0.20202352882E+03  0.30129772557E+03  0.19200000000E+03 0.  0.
   -5000001    1    1    2    0    0 -0.19688104469E+02 -0.11276165917E+03  0.41134102270E+02  0.22728578399E+03  0.19200000000E+03 0.  0.
<mgrwt>
<rscale>  0 0.46933452E+03</rscale>
<asrwt>0</asrwt>
<pdfrwt beam="1">  1        2 0.55124367E-01 0.46933452E+03</pdfrwt>
<pdfrwt beam="2">  1       -2 0.20387563E-01 0.46933452E+03</pdfrwt>
<totfact> 0.18460907E+03</totfact>
</mgrwt>
</event>
<event>
 4    1  0.2892809E-005  0.5147280E+03  0.7818608E-02  0.1010005E+00
          2   -1    0    0  501    0  0.00000000000E+00  0.00000000000E+00  0.26293822310E+04  0.26293822310E+04  0.25500000000E-02 0.  1.
         -2   -1    0    0    0  501 -0.00000000000E+00 -0.00000000000E+00 -0.25190798821E+02  0.25190798950E+02  0.25500000000E-02 0. -1.
    5000001    1    1    2    0    0 -0.91882573977E+02  0.14466932601E+03  0.12980424885E+04  0.13233102142E+04  0.19200000000E+03 0.  0.
   -5000001    1    1    2    0    0  0.91882573977E+02 -0.14466932601E+03  0.13061489437E+04  0.13312628157E+04  0.19200000000E+03 0.  0.
<mgrwt>
<rscale>  0 0.51472804E+03</rscale>
<asrwt>0</asrwt>
<pdfrwt beam="1">  1        2 0.37562610E+00 0.51472804E+03</pdfrwt>
<pdfrwt beam="2">  1       -2 0.35986850E-02 0.51472804E+03</pdfrwt>
<totfact> 0.13592108E+03</totfact>
</mgrwt>
</event>
<event>
 4    1  0.2892809E-005  0.1259238E+04  0.7818608E-02  0.9062529E-01
          2   -1    0    0  501    0  0.00000000000E+00  0.00000000000E+00  0.15764246032E+04  0.15764246032E+04  0.25500000000E-02 0.  1.
         -2   -1    0    0    0  501 -0.00000000000E+00 -0.00000000000E+00 -0.25146789711E+03  0.25146789712E+03  0.25500000000E-02 0. -1.
    5000001    1    1    2    0    0  0.21847081428E+03  0.54440201548E+03  0.84292590321E+03  0.10447445283E+04  0.19200000000E+03 0.  0.
   -5000001    1    1    2    0    0 -0.21847081428E+03 -0.54440201548E+03  0.48203080292E+03  0.78314797204E+03  0.19200000000E+03 0.  0.
<mgrwt>
<rscale>  0 0.12592382E+04</rscale>
<asrwt>0</asrwt>
<pdfrwt beam="1">  1        2 0.22520352E+00 0.12592382E+04</pdfrwt>
<pdfrwt beam="2">  1       -2 0.35923984E-01 0.12592382E+04</pdfrwt>
<totfact> 0.95331642E+01</totfact>
</mgrwt>
</event>
<event>
 4    1  0.2892809E-005  0.8595591E+03  0.7818608E-02  0.9477596E-01
         -2   -1    0    0    0  501 -0.00000000000E+00  0.00000000000E+00  0.22492714315E+03  0.22492714316E+03  0.25500000000E-02 0. -1.
          2   -1    0    0  501    0  0.00000000000E+00 -0.00000000000E+00 -0.82120131587E+03  0.82120131587E+03  0.25500000000E-02 0.  1.
    5000001    1    1    2    0    0 -0.27163935907E+03  0.10603180633E+03 -0.60316785547E+03  0.69692621361E+03  0.19200000000E+03 0.  0.
   -5000001    1    1    2    0    0  0.27163935907E+03 -0.10603180633E+03  0.68936827439E+01  0.34920224543E+03  0.19200000000E+03 0.  0.
<mgrwt>
<rscale>  0 0.85955911E+03</rscale>
<asrwt>0</asrwt>
<pdfrwt beam="1">  1        2 0.11731447E+00 0.85955911E+03</pdfrwt>
<pdfrwt beam="2">  1       -2 0.32132449E-01 0.85955911E+03</pdfrwt>
<totfact> 0.33158296E+02</totfact>
</mgrwt>
</event>
<event>
 4    1  0.2892809E-005  0.8032729E+03  0.7818608E-02  0.9555292E-01
         -2   -1    0    0    0  501 -0.00000000000E+00  0.00000000000E+00  0.35105708496E+03  0.35105708497E+03  0.25500000000E-02 0. -1.
          2   -1    0    0  501    0  0.00000000000E+00 -0.00000000000E+00 -0.45950314552E+03  0.45950314553E+03  0.25500000000E-02 0.  1.
    5000001    1    1    2    0    0  0.11747096579E+03 -0.32185766012E+03  0.30539344672E+02  0.39393963085E+03  0.19200000000E+03 0.  0.
   -5000001    1    1    2    0    0 -0.11747096579E+03  0.32185766012E+03 -0.13898540524E+03  0.41662059965E+03  0.19200000000E+03 0.  0.
<mgrwt>
<rscale>  0 0.80327289E+03</rscale>
<asrwt>0</asrwt>
<pdfrwt beam="1">  1        2 0.65643306E-01 0.80327289E+03</pdfrwt>
<pdfrwt beam="2">  1       -2 0.50151012E-01 0.80327289E+03</pdfrwt>
<totfact> 0.27984036E+02</totfact>
</mgrwt>
</event>
<event>
 4    1  0.2892809E-005  0.6327485E+03  0.7818608E-02  0.9839700E-01
         -2   -1    0    0    0  501 -0.00000000000E+00  0.00000000000E+00  0.11081627793E+03  0.11081627796E+03  0.25500000000E-02 0. -1.
          2   -1    0    0  501    0  0.00000000000E+00 -0.00000000000E+00 -0.90323065764E+03  0.90323065764E+03  0.25500000000E-02 0.  1.
    5000001    1    1    2    0    0 -0.46025353806E+02 -0.23534050724E+03 -0.27494616949E+03  0.41226554993E+03  0.19200000000E+03 0.  0.
   -5000001    1    1    2    0    0  0.46025353806E+02  0.23534050724E+03 -0.51746821022E+03  0.60178138567E+03  0.19200000000E+03 0.  0.
<mgrwt>
<rscale>  0 0.63274848E+03</rscale>
<asrwt>0</asrwt>
<pdfrwt beam="1">  1        2 0.12903295E+00 0.63274848E+03</pdfrwt>
<pdfrwt beam="2">  1       -2 0.15830897E-01 0.63274848E+03</pdfrwt>
<totfact> 0.10382753E+03</totfact>
</mgrwt>
</event>
<event>
 4    1  0.2892809E-005  0.5356514E+03  0.7818608E-02  0.1004871E+00
         -2   -1    0    0    0  501 -0.00000000000E+00  0.00000000000E+00  0.41695630140E+02  0.41695630218E+02  0.25500000000E-02 0. -1.
          2   -1    0    0  501    0  0.00000000000E+00 -0.00000000000E+00 -0.17203389240E+04  0.17203389240E+04  0.25500000000E-02 0.  1.
    5000001    1    1    2    0    0 -0.17399699342E+02  0.13100603903E+03 -0.12732547587E+04  0.12944137717E+04  0.19200000000E+03 0.  0.
   -5000001    1    1    2    0    0  0.17399699342E+02 -0.13100603903E+03 -0.40538853508E+03  0.46762078245E+03  0.19200000000E+03 0.  0.
<mgrwt>
<rscale>  0 0.53565144E+03</rscale>
<asrwt>0</asrwt>
<pdfrwt beam="1">  1        2 0.24576266E+00 0.53565144E+03</pdfrwt>
<pdfrwt beam="2">  1       -2 0.59565197E-02 0.53565144E+03</pdfrwt>
<totfact> 0.17943687E+03</totfact>
</mgrwt>
</event>
<event>
 4    1  0.2892809E-005  0.1421095E+04  0.7818608E-02  0.8938689E-01
          2   -1    0    0  501    0  0.00000000000E+00  0.00000000000E+00  0.32157270133E+04  0.32157270133E+04  0.25500000000E-02 0.  1.
         -2   -1    0    0    0  501 -0.00000000000E+00 -0.00000000000E+00 -0.15700264062E+03  0.15700264064E+03  0.25500000000E-02 0. -1.
    5000001    1    1    2    0    0 -0.47683458594E+03  0.84472727711E+02  0.38250799286E+03  0.64628417022E+03  0.19200000000E+03 0.  0.
   -5000001    1    1    2    0    0  0.47683458594E+03 -0.84472727711E+02  0.26762163798E+04  0.27264454837E+04  0.19200000000E+03 0.  0.
<mgrwt>
<rscale>  0 0.14210948E+04</rscale>
<asrwt>0</asrwt>
<pdfrwt beam="1">  1        2 0.45938952E+00 0.14210948E+04</pdfrwt>
<pdfrwt beam="2">  1       -2 0.22428951E-01 0.14210948E+04</pdfrwt>
<totfact> 0.30408578E+01</totfact>
</mgrwt>
</event>
<event>
 4    1  0.2892809E-005  0.6050975E+03  0.7818608E-02  0.9894886E-01
         -2   -1    0    0    0  501 -0.00000000000E+00  0.00000000000E+00  0.21649923506E+02  0.21649923656E+02  0.25500000000E-02 0. -1.
          2   -1    0    0  501    0  0.00000000000E+00 -0.00000000000E+00 -0.42279943530E+04  0.42279943530E+04  0.25500000000E-02 0.  1.
    5000001    1    1    2    0    0  0.21861392501E+03 -0.79276761405E+02 -0.22744692102E+04  0.22943737797E+04  0.19200000000E+03 0.  0.
   -5000001    1    1    2    0    0 -0.21861392501E+03  0.79276761405E+02 -0.19318752193E+04  0.19552704969E+04  0.19200000000E+03 0.  0.
<mgrwt>
<rscale>  0 0.60509753E+03</rscale>
<asrwt>0</asrwt>
<pdfrwt beam="1">  1        2 0.60399867E+00 0.60509753E+03</pdfrwt>
<pdfrwt beam="2">  1       -2 0.30928489E-02 0.60509753E+03</pdfrwt>
<totfact> 0.19031467E+02</totfact>
</mgrwt>
</event>
<event>
 4    1  0.2892809E-005  0.5076238E+03  0.7818608E-02  0.1011808E+00
         -2   -1    0    0    0  501 -0.00000000000E+00  0.00000000000E+00  0.33753313901E+02  0.33753313998E+02  0.25500000000E-02 0. -1.
          2   -1    0    0  501    0  0.00000000000E+00 -0.00000000000E+00 -0.19085673190E+04  0.19085673190E+04  0.25500000000E-02 0.  1.
    5000001    1    1    2    0    0  0.11857982621E+03 -0.74280594830E+02 -0.59564989597E+03  0.64128120238E+03  0.19200000000E+03 0.  0.
   -5000001    1    1    2    0    0 -0.11857982621E+03  0.74280594830E+02 -0.12791641091E+04  0.13010394306E+04  0.19200000000E+03 0.  0.
<mgrwt>
<rscale>  0 0.50762377E+03</rscale>
<asrwt>0</asrwt>
<pdfrwt beam="1">  1        2 0.27265241E+00 0.50762377E+03</pdfrwt>
<pdfrwt beam="2">  1       -2 0.48219032E-02 0.50762377E+03</pdfrwt>
<totfact> 0.20055004E+03</totfact>
</mgrwt>
</event>
<event>
 4    1  0.2892809E-005  0.7583525E+03  0.7818608E-02  0.9622337E-01
         -2   -1    0    0    0  501 -0.00000000000E+00  0.00000000000E+00  0.26677856424E+03  0.26677856425E+03  0.25500000000E-02 0. -1.
          2   -1    0    0  501    0  0.00000000000E+00 -0.00000000000E+00 -0.53892876322E+03  0.53892876323E+03  0.25500000000E-02 0.  1.
    5000001    1    1    2    0    0  0.94750541490E+02 -0.28836335185E+03 -0.69124832164E+01  0.35922537525E+03  0.19200000000E+03 0.  0.
   -5000001    1    1    2    0    0 -0.94750541490E+02  0.28836335185E+03 -0.26523771577E+03  0.44648195223E+03  0.19200000000E+03 0.  0.
<mgrwt>
<rscale>  0 0.75835253E+03</rscale>
<asrwt>0</asrwt>
<pdfrwt beam="1">  1        2 0.76989823E-01 0.75835253E+03</pdfrwt>
<pdfrwt beam="2">  1       -2 0.38111224E-01 0.75835253E+03</pdfrwt>
<totfact> 0.40232281E+02</totfact>
</mgrwt>
</event>
<event>
 4    1  0.2892809E-005  0.4652736E+03  0.7818608E-02  0.1023263E+00
         -2   -1    0    0    0  501 -0.00000000000E+00  0.00000000000E+00  0.67397251290E+02  0.67397251338E+02  0.25500000000E-02 0. -1.
          2   -1    0    0  501    0  0.00000000000E+00 -0.00000000000E+00 -0.80299832436E+03  0.80299832437E+03  0.25500000000E-02 0.  1.
    5000001    1    1    2    0    0  0.29750760712E+02 -0.10756272613E+03 -0.23817947607E+03  0.32565059594E+03  0.19200000000E+03 0.  0.
   -5000001    1    1    2    0    0 -0.29750760712E+02  0.10756272613E+03 -0.49742159701E+03  0.54474497977E+03  0.19200000000E+03 0.  0.
<mgrwt>
<rscale>  0 0.46527360E+03</rscale>
<asrwt>0</asrwt>
<pdfrwt beam="1">  1        2 0.11471404E+00 0.46527360E+03</pdfrwt>
<pdfrwt beam="2">  1       -2 0.96281792E-02 0.46527360E+03</pdfrwt>
<totfact> 0.27505986E+03</totfact>
</mgrwt>
</event>
<event>
 4    1  0.2892809E-005  0.7859697E+03  0.7818608E-02  0.9580550E-01
         -2   -1    0    0    0  501 -0.00000000000E+00  0.00000000000E+00  0.72554170263E+02  0.72554170308E+02  0.25500000000E-02 0. -1.
          2   -1    0    0  501    0  0.00000000000E+00 -0.00000000000E+00 -0.21285763948E+04  0.21285763948E+04  0.25500000000E-02 0.  1.
    5000001    1    1    2    0    0 -0.32532087799E+03 -0.71439124956E+02 -0.79987764684E+03  0.88747139230E+03  0.19200000000E+03 0.  0.
   -5000001    1    1    2    0    0  0.32532087799E+03  0.71439124956E+02 -0.12561445777E+04  0.13136591728E+04  0.19200000000E+03 0.  0.
<mgrwt>
<rscale>  0 0.78596970E+03</rscale>
<asrwt>0</asrwt>
<pdfrwt beam="1">  1        2 0.30408230E+00 0.78596970E+03</pdfrwt>
<pdfrwt beam="2">  1       -2 0.10364883E-01 0.78596970E+03</pdfrwt>
<totfact> 0.45492004E+02</totfact>
</mgrwt>
</event>
<event>
 4    1  0.2892809E-005  0.9258298E+03  0.7818608E-02  0.9393857E-01
          2   -1    0    0  501    0  0.00000000000E+00  0.00000000000E+00  0.77997181948E+03  0.77997181948E+03  0.25500000000E-02 0.  1.
         -2   -1    0    0    0  501 -0.00000000000E+00 -0.00000000000E+00 -0.27474093858E+03  0.27474093859E+03  0.25500000000E-02 0. -1.
    5000001    1    1    2    0    0  0.11993573818E+03 -0.79837888688E+02 -0.19829733839E+03  0.31135912413E+03  0.19200000000E+03 0.  0.
   -5000001    1    1    2    0    0 -0.11993573818E+03  0.79837888688E+02  0.70352821929E+03  0.74335363394E+03  0.19200000000E+03 0.  0.
<mgrwt>
<rscale>  0 0.92582977E+03</rscale>
<asrwt>0</asrwt>
<pdfrwt beam="1">  1        2 0.11142455E+00 0.92582977E+03</pdfrwt>
<pdfrwt beam="2">  1       -2 0.39248705E-01 0.92582977E+03</pdfrwt>
<totfact> 0.24108788E+02</totfact>
</mgrwt>
</event>
<event>
 4    1  0.2892809E-005  0.4473526E+03  0.7818608E-02  0.1028514E+00
          2   -1    0    0  501    0  0.00000000000E+00  0.00000000000E+00  0.12526508291E+03  0.12526508293E+03  0.25500000000E-02 0.  1.
         -2   -1    0    0    0  501 -0.00000000000E+00 -0.00000000000E+00 -0.39940176597E+03  0.39940176597E+03  0.25500000000E-02 0. -1.
    5000001    1    1    2    0    0  0.10554020472E+03 -0.21218947740E+02 -0.18365946595E+03  0.28667713196E+03  0.19200000000E+03 0.  0.
   -5000001    1    1    2    0    0 -0.10554020472E+03  0.21218947740E+02 -0.90477217110E+02  0.23798971695E+03  0.19200000000E+03 0.  0.
<mgrwt>
<rscale>  0 0.44735264E+03</rscale>
<asrwt>0</asrwt>
<pdfrwt beam="1">  1        2 0.17895012E-01 0.44735264E+03</pdfrwt>
<pdfrwt beam="2">  1       -2 0.57057395E-01 0.44735264E+03</pdfrwt>
<totfact> 0.93543769E+02</totfact>
</mgrwt>
</event>
<event>
 4    1  0.2892809E-005  0.1007509E+04  0.7818608E-02  0.9300347E-01
         -2   -1    0    0    0  501 -0.00000000000E+00  0.00000000000E+00  0.66603970509E+03  0.66603970509E+03  0.25500000000E-02 0. -1.
          2   -1    0    0  501    0  0.00000000000E+00 -0.00000000000E+00 -0.38101116526E+03  0.38101116527E+03  0.25500000000E-02 0.  1.
    5000001    1    1    2    0    0 -0.23505539912E+03  0.22283178206E+03 -0.20528363117E+03  0.42884777366E+03  0.19200000000E+03 0.  0.
   -5000001    1    1    2    0    0  0.23505539912E+03 -0.22283178206E+03  0.49031217099E+03  0.61820309670E+03  0.19200000000E+03 0.  0.
<mgrwt>
<rscale>  0 0.10075089E+04</rscale>
<asrwt>0</asrwt>
<pdfrwt beam="1">  1        2 0.54430166E-01 0.10075089E+04</pdfrwt>
<pdfrwt beam="2">  1       -2 0.95148530E-01 0.10075089E+04</pdfrwt>
<totfact> 0.84706834E+01</totfact>
</mgrwt>
</event>
<event>
 4    1  0.2892809E-005  0.4729493E+03  0.7818608E-02  0.1021091E+00
          2   -1    0    0  501    0  0.00000000000E+00  0.00000000000E+00  0.65779874880E+03  0.65779874881E+03  0.25500000000E-02 0.  1.
         -2   -1    0    0    0  501 -0.00000000000E+00 -0.00000000000E+00 -0.85011191765E+02  0.85011191803E+02  0.25500000000E-02 0. -1.
    5000001    1    1    2    0    0  0.64312461767E+02  0.40387933133E+02  0.10533944503E+03  0.23179231342E+03  0.19200000000E+03 0.  0.
   -5000001    1    1    2    0    0 -0.64312461767E+02 -0.40387933133E+02  0.46744811201E+03  0.51101762719E+03  0.19200000000E+03 0.  0.
<mgrwt>
<rscale>  0 0.47294928E+03</rscale>
<asrwt>0</asrwt>
<pdfrwt beam="1">  1        2 0.93971246E-01 0.47294928E+03</pdfrwt>
<pdfrwt beam="2">  1       -2 0.12144456E-01 0.47294928E+03</pdfrwt>
<totfact> 0.24112446E+03</totfact>
</mgrwt>
</event>
<event>
 4    1  0.2892809E-005  0.4396551E+03  0.7818608E-02  0.1030853E+00
          2   -1    0    0  501    0  0.00000000000E+00  0.00000000000E+00  0.12750384634E+04  0.12750384634E+04  0.25500000000E-02 0.  1.
         -2   -1    0    0    0  501 -0.00000000000E+00 -0.00000000000E+00 -0.37900156043E+02  0.37900156129E+02  0.25500000000E-02 0. -1.
    5000001    1    1    2    0    0 -0.64746774190E+02  0.62503234398E+02  0.79170605902E+03  0.81961044586E+03  0.19200000000E+03 0.  0.
   -5000001    1    1    2    0    0  0.64746774190E+02 -0.62503234398E+02  0.44543224835E+03  0.49332817368E+03  0.19200000000E+03 0.  0.
<mgrwt>
<rscale>  0 0.43965512E+03</rscale>
<asrwt>0</asrwt>
<pdfrwt beam="1">  1        2 0.18214833E+00 0.43965512E+03</pdfrwt>
<pdfrwt beam="2">  1       -2 0.54143087E-02 0.43965512E+03</pdfrwt>
<totfact> 0.35504408E+03</totfact>
</mgrwt>
</event>
<event>
 4    1  0.2892809E-005  0.5942996E+03  0.7818608E-02  0.9917304E-01
         -2   -1    0    0    0  501 -0.00000000000E+00  0.00000000000E+00  0.23201160726E+03  0.23201160728E+03  0.25500000000E-02 0. -1.
          2   -1    0    0  501    0  0.00000000000E+00 -0.00000000000E+00 -0.38057586194E+03  0.38057586195E+03  0.25500000000E-02 0.  1.
    5000001    1    1    2    0    0  0.11708200284E+03 -0.19418559108E+03 -0.78628301203E+02  0.30734776544E+03  0.19200000000E+03 0.  0.
   -5000001    1    1    2    0    0 -0.11708200284E+03  0.19418559108E+03 -0.69935953473E+02  0.30523970378E+03  0.19200000000E+03 0.  0.
<mgrwt>
<rscale>  0 0.59429965E+03</rscale>
<asrwt>0</asrwt>
<pdfrwt beam="1">  1        2 0.54367980E-01 0.59429965E+03</pdfrwt>
<pdfrwt beam="2">  1       -2 0.33144516E-01 0.59429965E+03</pdfrwt>
<totfact> 0.78041166E+02</totfact>
</mgrwt>
</event>
<event>
 4    1  0.2892809E-005  0.7118328E+03  0.7818608E-02  0.9697208E-01
         -2   -1    0    0    0  501 -0.00000000000E+00  0.00000000000E+00  0.53147237821E+03  0.53147237822E+03  0.25500000000E-02 0. -1.
          2   -1    0    0  501    0  0.00000000000E+00 -0.00000000000E+00 -0.23835006094E+03  0.23835006096E+03  0.25500000000E-02 0.  1.
    5000001    1    1    2    0    0 -0.28149751161E+03 -0.29780899177E+02  0.40133089338E+02  0.34438701465E+03  0.19200000000E+03 0.  0.
   -5000001    1    1    2    0    0  0.28149751161E+03  0.29780899177E+02  0.25298922793E+03  0.42543542453E+03  0.19200000000E+03 0.  0.
<mgrwt>
<rscale>  0 0.71183277E+03</rscale>
<asrwt>0</asrwt>
<pdfrwt beam="1">  1        2 0.34050009E-01 0.71183277E+03</pdfrwt>
<pdfrwt beam="2">  1       -2 0.75924624E-01 0.71183277E+03</pdfrwt>
<totfact> 0.24193658E+02</totfact>
</mgrwt>
</event>
<event>
 4    1  0.2892809E-005  0.7001238E+03  0.7818608E-02  0.9717020E-01
          2   -1    0    0  501    0  0.00000000000E+00  0.00000000000E+00  0.10812086325E+04  0.10812086325E+04  0.25500000000E-02 0.  1.
         -2   -1    0    0    0  501 -0.00000000000E+00 -0.00000000000E+00 -0.11333921487E+03  0.11333921490E+03  0.25500000000E-02 0. -1.
    5000001    1    1    2    0    0  0.17123111928E+03  0.23737518894E+03  0.47796034658E+03  0.59243326159E+03  0.19200000000E+03 0.  0.
   -5000001    1    1    2    0    0 -0.17123111928E+03 -0.23737518894E+03  0.48990907104E+03  0.60211458579E+03  0.19200000000E+03 0.  0.
<mgrwt>
<rscale>  0 0.70012381E+03</rscale>
<asrwt>0</asrwt>
<pdfrwt beam="1">  1        2 0.15445838E+00 0.70012381E+03</pdfrwt>
<pdfrwt beam="2">  1       -2 0.16191316E-01 0.70012381E+03</pdfrwt>
<totfact> 0.77511012E+02</totfact>
</mgrwt>
</event>
<event>
 4    1  0.2892809E-005  0.4146106E+03  0.7818608E-02  0.1038835E+00
          2   -1    0    0  501    0  0.00000000000E+00  0.00000000000E+00  0.13064245396E+04  0.13064245396E+04  0.25500000000E-02 0.  1.
         -2   -1    0    0    0  501 -0.00000000000E+00 -0.00000000000E+00 -0.32895491507E+02  0.32895491606E+02  0.25500000000E-02 0. -1.
    5000001    1    1    2    0    0  0.73259533018E+02  0.22092535156E+02  0.58503537764E+03  0.62047194326E+03  0.19200000000E+03 0.  0.
   -5000001    1    1    2    0    0 -0.73259533018E+02 -0.22092535156E+02  0.68849367045E+03  0.71884808794E+03  0.19200000000E+03 0.  0.
<mgrwt>
<rscale>  0 0.41461055E+03</rscale>
<asrwt>0</asrwt>
<pdfrwt beam="1">  1        2 0.18663208E+00 0.41461055E+03</pdfrwt>
<pdfrwt beam="2">  1       -2 0.46993559E-02 0.41461055E+03</pdfrwt>
<totfact> 0.42458880E+03</totfact>
</mgrwt>
</event>
<event>
 4    1  0.2892809E-005  0.5260744E+03  0.7818608E-02  0.1007189E+00
         -2   -1    0    0    0  501 -0.00000000000E+00  0.00000000000E+00  0.17238872477E+03  0.17238872479E+03  0.25500000000E-02 0. -1.
          2   -1    0    0  501    0  0.00000000000E+00 -0.00000000000E+00 -0.40135208599E+03  0.40135208600E+03  0.25500000000E-02 0.  1.
    5000001    1    1    2    0    0  0.59831877234E+02 -0.16947590277E+03 -0.10929250280E+03  0.28479955464E+03  0.19200000000E+03 0.  0.
   -5000001    1    1    2    0    0 -0.59831877234E+02  0.16947590277E+03 -0.11967085842E+03  0.28894125615E+03  0.19200000000E+03 0.  0.
<mgrwt>
<rscale>  0 0.52607442E+03</rscale>
<asrwt>0</asrwt>
<pdfrwt beam="1">  1        2 0.57336012E-01 0.52607442E+03</pdfrwt>
<pdfrwt beam="2">  1       -2 0.24626961E-01 0.52607442E+03</pdfrwt>
<totfact> 0.12678665E+03</totfact>
</mgrwt>
</event>
<event>
 4    1  0.2892809E-005  0.8161759E+03  0.7818608E-02  0.9536894E-01
         -2   -1    0    0    0  501 -0.00000000000E+00  0.00000000000E+00  0.15981785220E+03  0.15981785222E+03  0.25500000000E-02 0. -1.
          2   -1    0    0  501    0  0.00000000000E+00 -0.00000000000E+00 -0.10420349711E+04  0.10420349711E+04  0.25500000000E-02 0.  1.
    5000001    1    1    2    0    0 -0.24808715107E+03 -0.14088283187E+03 -0.11756275899E+03  0.36342840992E+03  0.19200000000E+03 0.  0.
   -5000001    1    1    2    0    0  0.24808715107E+03  0.14088283187E+03 -0.76465435989E+03  0.83842441337E+03  0.19200000000E+03 0.  0.
<mgrwt>
<rscale>  0 0.81617594E+03</rscale>
<asrwt>0</asrwt>
<pdfrwt beam="1">  1        2 0.14886214E+00 0.81617594E+03</pdfrwt>
<pdfrwt beam="2">  1       -2 0.22831122E-01 0.81617594E+03</pdfrwt>
<totfact> 0.44769068E+02</totfact>
</mgrwt>
</event>
<event>
 4    1  0.2892809E-005  0.1058670E+04  0.7818608E-02  0.9246438E-01
         -2   -1    0    0    0  501 -0.00000000000E+00  0.00000000000E+00  0.84530180324E+02  0.84530180363E+02  0.25500000000E-02 0. -1.
          2   -1    0    0  501    0  0.00000000000E+00 -0.00000000000E+00 -0.33147386393E+04  0.33147386393E+04  0.25500000000E-02 0.  1.
    5000001    1    1    2    0    0  0.20288180522E+03 -0.42876718341E+03 -0.20498104989E+04  0.21127208537E+04  0.19200000000E+03 0.  0.
   -5000001    1    1    2    0    0 -0.20288180522E+03  0.42876718341E+03 -0.11803979601E+04  0.12865479660E+04  0.19200000000E+03 0.  0.
<mgrwt>
<rscale>  0 0.10586698E+04</rscale>
<asrwt>0</asrwt>
<pdfrwt beam="1">  1        2 0.47353401E+00 0.10586698E+04</pdfrwt>
<pdfrwt beam="2">  1       -2 0.12075742E-01 0.10586698E+04</pdfrwt>
<totfact> 0.80011475E+01</totfact>
</mgrwt>
</event>
<event>
 4    1  0.2892809E-005  0.6831139E+03  0.7818608E-02  0.9746554E-01
          2   -1    0    0  501    0  0.00000000000E+00  0.00000000000E+00  0.35360988086E+04  0.35360988086E+04  0.25500000000E-02 0.  1.
         -2   -1    0    0    0  501 -0.00000000000E+00 -0.00000000000E+00 -0.32991483005E+02  0.32991483104E+02  0.25500000000E-02 0. -1.
    5000001    1    1    2    0    0  0.85548259435E+02 -0.26667375084E+03  0.15586094391E+04  0.15951679466E+04  0.19200000000E+03 0.  0.
   -5000001    1    1    2    0    0 -0.85548259435E+02  0.26667375084E+03  0.19444978865E+04  0.19739223451E+04  0.19200000000E+03 0.  0.
<mgrwt>
<rscale>  0 0.68311388E+03</rscale>
<asrwt>0</asrwt>
<pdfrwt beam="1">  1        2 0.50515673E+00 0.68311388E+03</pdfrwt>
<pdfrwt beam="2">  1       -2 0.47130712E-02 0.68311388E+03</pdfrwt>
<totfact> 0.27807232E+02</totfact>
</mgrwt>
</event>
<event>
 4    1  0.2892809E-005  0.8430616E+03  0.7818608E-02  0.9499697E-01
          2   -1    0    0  501    0  0.00000000000E+00  0.00000000000E+00  0.12347390789E+04  0.12347390789E+04  0.25500000000E-02 0.  1.
         -2   -1    0    0    0  501 -0.00000000000E+00 -0.00000000000E+00 -0.14390750181E+03  0.14390750183E+03  0.25500000000E-02 0. -1.
    5000001    1    1    2    0    0  0.36960507269E+03  0.50127976233E+02  0.47792200865E+03  0.63591994001E+03  0.19200000000E+03 0.  0.
   -5000001    1    1    2    0    0 -0.36960507269E+03 -0.50127976233E+02  0.61290956848E+03  0.74272664076E+03  0.19200000000E+03 0.  0.
<mgrwt>
<rscale>  0 0.84306160E+03</rscale>
<asrwt>0</asrwt>
<pdfrwt beam="1">  1        2 0.17639130E+00 0.84306160E+03</pdfrwt>
<pdfrwt beam="2">  1       -2 0.20558215E-01 0.84306160E+03</pdfrwt>
<totfact> 0.41619702E+02</totfact>
</mgrwt>
</event>
<event>
 4    1  0.2892809E-005  0.7223325E+03  0.7818608E-02  0.9679785E-01
          2   -1    0    0  501    0  0.00000000000E+00  0.00000000000E+00  0.44604635995E+03  0.44604635996E+03  0.25500000000E-02 0.  1.
         -2   -1    0    0    0  501 -0.00000000000E+00 -0.00000000000E+00 -0.29243834410E+03  0.29243834411E+03  0.25500000000E-02 0. -1.
    5000001    1    1    2    0    0 -0.17046309548E+03 -0.24895179381E+03  0.25254327359E+02  0.35851979529E+03  0.19200000000E+03 0.  0.
   -5000001    1    1    2    0    0  0.17046309548E+03  0.24895179381E+03  0.12835368849E+03  0.37996490879E+03  0.19200000000E+03 0.  0.
<mgrwt>
<rscale>  0 0.72233250E+03</rscale>
<asrwt>0</asrwt>
<pdfrwt beam="1">  1        2 0.63720908E-01 0.72233250E+03</pdfrwt>
<pdfrwt beam="2">  1       -2 0.41776907E-01 0.72233250E+03</pdfrwt>
<totfact> 0.41805147E+02</totfact>
</mgrwt>
</event>
<event>
 4    1  0.2892809E-005  0.5936367E+03  0.7818608E-02  0.9918697E-01
          2   -1    0    0  501    0  0.00000000000E+00  0.00000000000E+00  0.77558942941E+03  0.77558942941E+03  0.25500000000E-02 0.  1.
         -2   -1    0    0    0  501 -0.00000000000E+00 -0.00000000000E+00 -0.11359249135E+03  0.11359249137E+03  0.25500000000E-02 0. -1.
    5000001    1    1    2    0    0  0.11532024814E+03  0.18985579241E+03  0.39617073920E+03  0.49311178868E+03  0.19200000000E+03 0.  0.
   -5000001    1    1    2    0    0 -0.11532024814E+03 -0.18985579241E+03  0.26582619886E+03  0.39607013210E+03  0.19200000000E+03 0.  0.
<mgrwt>
<rscale>  0 0.59363671E+03</rscale>
<asrwt>0</asrwt>
<pdfrwt beam="1">  1        2 0.11079849E+00 0.59363671E+03</pdfrwt>
<pdfrwt beam="2">  1       -2 0.16227499E-01 0.59363671E+03</pdfrwt>
<totfact> 0.12147915E+03</totfact>
</mgrwt>
</event>
<event>
 4    1  0.2892809E-005  0.7555199E+03  0.7818608E-02  0.9626730E-01
          2   -1    0    0  501    0  0.00000000000E+00  0.00000000000E+00  0.51197161116E+03  0.51197161117E+03  0.25500000000E-02 0. -1.
         -2   -1    0    0    0  501 -0.00000000000E+00 -0.00000000000E+00 -0.27873141056E+03  0.27873141057E+03  0.25500000000E-02 0.  1.
    5000001    1    1    2    0    0 -0.31469684829E+03  0.82069504775E+02  0.12531729051E+03  0.39791699290E+03  0.19200000000E+03 0.  0.
   -5000001    1    1    2    0    0  0.31469684829E+03 -0.82069504775E+02  0.10792291009E+03  0.39278602885E+03  0.19200000000E+03 0.  0.
<mgrwt>
<rscale>  0 0.75551987E+03</rscale>
<asrwt>0</asrwt>
<pdfrwt beam="1">  1        2 0.73138800E-01 0.75551987E+03</pdfrwt>
<pdfrwt beam="2">  1       -2 0.39818774E-01 0.75551987E+03</pdfrwt>
<totfact> 0.39213584E+02</totfact>
</mgrwt>
</event>
<event>
 4    1  0.2892809E-005  0.5813897E+03  0.7818608E-02  0.9944787E-01
         -2   -1    0    0    0  501 -0.00000000000E+00  0.00000000000E+00  0.58075507897E+03  0.58075507897E+03  0.25500000000E-02 0. -1.
          2   -1    0    0  501    0  0.00000000000E+00 -0.00000000000E+00 -0.14550626390E+03  0.14550626393E+03  0.25500000000E-02 0.  1.
    5000001    1    1    2    0    0  0.51090271314E+02 -0.17676352317E+03  0.70964194533E+02  0.27523712659E+03  0.19200000000E+03 0.  0.
   -5000001    1    1    2    0    0 -0.51090271314E+02  0.17676352317E+03  0.36428462053E+03  0.45102421631E+03  0.19200000000E+03 0.  0.
<mgrwt>
<rscale>  0 0.58138972E+03</rscale>
<asrwt>0</asrwt>
<pdfrwt beam="1">  1        2 0.20786609E-01 0.58138972E+03</pdfrwt>
<pdfrwt beam="2">  1       -2 0.82965010E-01 0.58138972E+03</pdfrwt>
<totfact> 0.34931656E+02</totfact>
</mgrwt>
</event>
<event>
 4    1  0.2892809E-005  0.4769949E+03  0.7818608E-02  0.1019964E+00
          2   -1    0    0  501    0  0.00000000000E+00  0.00000000000E+00  0.15191809564E+04  0.15191809564E+04  0.25500000000E-02 0.  1.
         -2   -1    0    0    0  501 -0.00000000000E+00 -0.00000000000E+00 -0.37441904614E+02  0.37441904700E+02  0.25500000000E-02 0. -1.
    5000001    1    1    2    0    0 -0.12447411684E+03  0.66360154298E+02  0.77655154029E+03  0.81227690511E+03  0.19200000000E+03 0.  0.
   -5000001    1    1    2    0    0  0.12447411684E+03 -0.66360154298E+02  0.70518751153E+03  0.74434595603E+03  0.19200000000E+03 0.  0.
<mgrwt>
<rscale>  0 0.47699488E+03</rscale>
<asrwt>0</asrwt>
<pdfrwt beam="1">  1        2 0.21702590E+00 0.47699488E+03</pdfrwt>
<pdfrwt beam="2">  1       -2 0.53488423E-02 0.47699488E+03</pdfrwt>
<totfact> 0.26901878E+03</totfact>
</mgrwt>
</event>
<event>
 4    1  0.2892809E-005  0.6017782E+03  0.7818608E-02  0.9901724E-01
          2   -1    0    0  501    0  0.00000000000E+00  0.00000000000E+00  0.54859015522E+02  0.54859015581E+02  0.25500000000E-02 0.  1.
         -2   -1    0    0    0  501 -0.00000000000E+00 -0.00000000000E+00 -0.16503073319E+04  0.16503073319E+04  0.25500000000E-02 0. -1.
    5000001    1    1    2    0    0 -0.10074935741E+03 -0.20037122841E+03 -0.96224498488E+03  0.10065179944E+04  0.19200000000E+03 0.  0.
   -5000001    1    1    2    0    0  0.10074935741E+03  0.20037122841E+03 -0.63320333145E+03  0.69864835301E+03  0.19200000000E+03 0.  0.
<mgrwt>
<rscale>  0 0.60177815E+03</rscale>
<asrwt>0</asrwt>
<pdfrwt beam="1">  1        2 0.78370032E-02 0.60177815E+03</pdfrwt>
<pdfrwt beam="2">  1       -2 0.23575816E+00 0.60177815E+03</pdfrwt>
<totfact> 0.74140063E+01</totfact>
</mgrwt>
</event>
<event>
 4    1  0.2892809E-005  0.5590653E+03  0.7818608E-02  0.9994172E-01
          2   -1    0    0  501    0  0.00000000000E+00  0.00000000000E+00  0.12033538056E+04  0.12033538056E+04  0.25500000000E-02 0.  1.
         -2   -1    0    0    0  501 -0.00000000000E+00 -0.00000000000E+00 -0.64933948940E+02  0.64933948990E+02  0.25500000000E-02 0. -1.
    5000001    1    1    2    0    0 -0.84107693498E+02 -0.18091472519E+03  0.48222296388E+03  0.55606405098E+03  0.19200000000E+03 0.  0.
   -5000001    1    1    2    0    0  0.84107693498E+02  0.18091472519E+03  0.65619689280E+03  0.71222370363E+03  0.19200000000E+03 0.  0.
<mgrwt>
<rscale>  0 0.55906534E+03</rscale>
<asrwt>0</asrwt>
<pdfrwt beam="1">  1        2 0.17190769E+00 0.55906534E+03</pdfrwt>
<pdfrwt beam="2">  1       -2 0.92762782E-02 0.55906534E+03</pdfrwt>
<totfact> 0.16628009E+03</totfact>
</mgrwt>
</event>
<event>
 4    1  0.2892809E-005  0.4368575E+03  0.7818608E-02  0.1031715E+00
         -2   -1    0    0    0  501 -0.00000000000E+00  0.00000000000E+00  0.52873811045E+02  0.52873811106E+02  0.25500000000E-02 0. -1.
          2   -1    0    0  501    0  0.00000000000E+00 -0.00000000000E+00 -0.90235808879E+03  0.90235808879E+03  0.25500000000E-02 0.  1.
    5000001    1    1    2    0    0  0.58860614790E+01  0.92616530577E+02 -0.32137721341E+03  0.38569389515E+03  0.19200000000E+03 0.  0.
   -5000001    1    1    2    0    0 -0.58860614790E+01 -0.92616530577E+02 -0.52810706433E+03  0.56953800474E+03  0.19200000000E+03 0.  0.
<mgrwt>
<rscale>  0 0.43685746E+03</rscale>
<asrwt>0</asrwt>
<pdfrwt beam="1">  1        2 0.12890829E+00 0.43685746E+03</pdfrwt>
<pdfrwt beam="2">  1       -2 0.75534021E-02 0.43685746E+03</pdfrwt>
<totfact> 0.34777236E+03</totfact>
</mgrwt>
</event>
<event>
 4    1  0.2892809E-005  0.4432606E+03  0.7818608E-02  0.1029751E+00
         -2   -1    0    0    0  501 -0.00000000000E+00  0.00000000000E+00  0.37593518330E+02  0.37593518416E+02  0.25500000000E-02 0. -1.
          2   -1    0    0  501    0  0.00000000000E+00 -0.00000000000E+00 -0.13066081517E+04  0.13066081517E+04  0.25500000000E-02 0.  1.
    5000001    1    1    2    0    0  0.44135124788E+02 -0.10152247737E+03 -0.63793140381E+03  0.67533339812E+03  0.19200000000E+03 0.  0.
   -5000001    1    1    2    0    0 -0.44135124788E+02  0.10152247737E+03 -0.63108322955E+03  0.66886827198E+03  0.19200000000E+03 0.  0.
<mgrwt>
<rscale>  0 0.44326063E+03</rscale>
<asrwt>0</asrwt>
<pdfrwt beam="1">  1        2 0.18665828E+00 0.44326063E+03</pdfrwt>
<pdfrwt beam="2">  1       -2 0.53705034E-02 0.44326063E+03</pdfrwt>
<totfact> 0.34572520E+03</totfact>
</mgrwt>
</event>
<event>
 4    1  0.2892809E-005  0.9179453E+03  0.7818608E-02  0.9403423E-01
         -2   -1    0    0    0  501 -0.00000000000E+00  0.00000000000E+00  0.50001594518E+03  0.50001594519E+03  0.25500000000E-02 0. -1.
          2   -1    0    0  501    0  0.00000000000E+00 -0.00000000000E+00 -0.42129831794E+03  0.42129831795E+03  0.25500000000E-02 0.  1.
    5000001    1    1    2    0    0  0.33124770798E+03 -0.11593602100E+03  0.26518609611E+03  0.47995194611E+03  0.19200000000E+03 0.  0.
   -5000001    1    1    2    0    0 -0.33124770798E+03  0.11593602100E+03 -0.18646846887E+03  0.44136231703E+03  0.19200000000E+03 0.  0.
<mgrwt>
<rscale>  0 0.91794526E+03</rscale>
<asrwt>0</asrwt>
<pdfrwt beam="1">  1        2 0.60185474E-01 0.91794526E+03</pdfrwt>
<pdfrwt beam="2">  1       -2 0.71430850E-01 0.91794526E+03</pdfrwt>
<totfact> 0.14552873E+02</totfact>
</mgrwt>
</event>
<event>
 4    1  0.2892809E-005  0.5943515E+03  0.7818608E-02  0.9917195E-01
          2   -1    0    0  501    0  0.00000000000E+00  0.00000000000E+00  0.22744051899E+04  0.22744051899E+04  0.25500000000E-02 0.  1.
         -2   -1    0    0    0  501 -0.00000000000E+00 -0.00000000000E+00 -0.38829243120E+02  0.38829243203E+02  0.25500000000E-02 0. -1.
    5000001    1    1    2    0    0  0.22307493240E+03  0.21878825414E+02  0.12530786653E+04  0.12873660125E+04  0.19200000000E+03 0.  0.
   -5000001    1    1    2    0    0 -0.22307493240E+03 -0.21878825414E+02  0.98249728144E+03  0.10258684207E+04  0.19200000000E+03 0.  0.
<mgrwt>
<rscale>  0 0.59435152E+03</rscale>
<asrwt>0</asrwt>
<pdfrwt beam="1">  1        2 0.32491493E+00 0.59435152E+03</pdfrwt>
<pdfrwt beam="2">  1       -2 0.55470364E-02 0.59435152E+03</pdfrwt>
<totfact> 0.10529971E+03</totfact>
</mgrwt>
</event>
<event>
 4    1  0.2892809E-005  0.6513104E+03  0.7818608E-02  0.9804323E-01
          2   -1    0    0  501    0  0.00000000000E+00  0.00000000000E+00  0.35770631142E+04  0.35770631142E+04  0.25500000000E-02 0.  1.
         -2   -1    0    0    0  501 -0.00000000000E+00 -0.00000000000E+00 -0.29647596350E+02  0.29647596460E+02  0.25500000000E-02 0. -1.
    5000001    1    1    2    0    0 -0.16836841435E+03 -0.18923948729E+03  0.13810510705E+04  0.14171540374E+04  0.19200000000E+03 0.  0.
   -5000001    1    1    2    0    0  0.16836841435E+03  0.18923948729E+03  0.21663644474E+04  0.21895566732E+04  0.19200000000E+03 0.  0.
<mgrwt>
<rscale>  0 0.65131044E+03</rscale>
<asrwt>0</asrwt>
<pdfrwt beam="1">  1        2 0.51100854E+00 0.65131044E+03</pdfrwt>
<pdfrwt beam="2">  1       -2 0.42353749E-02 0.65131044E+03</pdfrwt>
<totfact> 0.31112440E+02</totfact>
</mgrwt>
</event>
<event>
 4    1  0.2892809E-005  0.4252342E+03  0.7818608E-02  0.1035376E+00
         -2   -1    0    0    0  501 -0.00000000000E+00  0.00000000000E+00  0.33468336110E+02  0.33468336207E+02  0.25500000000E-02 0. -1.
          2   -1    0    0  501    0  0.00000000000E+00 -0.00000000000E+00 -0.13507105508E+04  0.13507105508E+04  0.25500000000E-02 0.  1.
    5000001    1    1    2    0    0 -0.83342422472E+02  0.31577575047E+02 -0.59360611254E+03  0.63021846964E+03  0.19200000000E+03 0.  0.
   -5000001    1    1    2    0    0  0.83342422472E+02 -0.31577575047E+02 -0.72363610218E+03  0.75396041740E+03  0.19200000000E+03 0.  0.
<mgrwt>
<rscale>  0 0.42523422E+03</rscale>
<asrwt>0</asrwt>
<pdfrwt beam="1">  1        2 0.19295862E+00 0.42523422E+03</pdfrwt>
<pdfrwt beam="2">  1       -2 0.47811917E-02 0.42523422E+03</pdfrwt>
<totfact> 0.39167822E+03</totfact>
</mgrwt>
</event>
<event>
 4    1  0.2892809E-005  0.5012400E+03  0.7818608E-02  0.1013456E+00
         -2   -1    0    0    0  501 -0.00000000000E+00  0.00000000000E+00  0.29924506073E+02  0.29924506181E+02  0.25500000000E-02 0. -1.
          2   -1    0    0  501    0  0.00000000000E+00 -0.00000000000E+00 -0.20989611180E+04  0.20989611180E+04  0.25500000000E-02 0.  1.
    5000001    1    1    2    0    0  0.90068381892E+02  0.97107123006E+02 -0.64515359334E+03  0.68602424575E+03  0.19200000000E+03 0.  0.
   -5000001    1    1    2    0    0 -0.90068381892E+02 -0.97107123006E+02 -0.14238830186E+04  0.14428613784E+04  0.19200000000E+03 0.  0.
<mgrwt>
<rscale>  0 0.50123996E+03</rscale>
<asrwt>0</asrwt>
<pdfrwt beam="1">  1        2 0.29985150E+00 0.50123996E+03</pdfrwt>
<pdfrwt beam="2">  1       -2 0.42749308E-02 0.50123996E+03</pdfrwt>
<totfact> 0.19397006E+03</totfact>
</mgrwt>
</event>
<event>
 4    1  0.2892809E-005  0.4137571E+03  0.7818608E-02  0.1039118E+00
         -2   -1    0    0    0  501 -0.00000000000E+00  0.00000000000E+00  0.25320187783E+02  0.25320187911E+02  0.25500000000E-02 0. -1.
          2   -1    0    0  501    0  0.00000000000E+00 -0.00000000000E+00 -0.16903011581E+04  0.16903011581E+04  0.25500000000E-02 0.  1.
    5000001    1    1    2    0    0 -0.37443339989E+02  0.48232419446E+02 -0.10272574926E+04  0.10468286995E+04  0.19200000000E+03 0.  0.
   -5000001    1    1    2    0    0  0.37443339989E+02 -0.48232419446E+02 -0.63772347767E+03  0.66879264646E+03  0.19200000000E+03 0.  0.
<mgrwt>
<rscale>  0 0.41375714E+03</rscale>
<asrwt>0</asrwt>
<pdfrwt beam="1">  1        2 0.24147152E+00 0.41375714E+03</pdfrwt>
<pdfrwt beam="2">  1       -2 0.36171708E-02 0.41375714E+03</pdfrwt>
<totfact> 0.40116315E+03</totfact>
</mgrwt>
</event>
<event>
 4    1  0.2892809E-005  0.6850452E+03  0.7818608E-02  0.9743154E-01
          2   -1    0    0  501    0  0.00000000000E+00  0.00000000000E+00  0.19974106613E+04  0.19974106613E+04  0.25500000000E-02 0.  1.
         -2   -1    0    0    0  501 -0.00000000000E+00 -0.00000000000E+00 -0.58736914163E+02  0.58736914218E+02  0.25500000000E-02 0. -1.
    5000001    1    1    2    0    0  0.14550955395E+03 -0.13566254765E+03  0.15762024608E+04  0.16002673384E+04  0.19200000000E+03 0.  0.
   -5000001    1    1    2    0    0 -0.14550955395E+03  0.13566254765E+03  0.36247128637E+03  0.45588023708E+03  0.19200000000E+03 0.  0.
<mgrwt>
<rscale>  0 0.68504522E+03</rscale>
<asrwt>0</asrwt>
<pdfrwt beam="1">  1        2 0.28534434E+00 0.68504522E+03</pdfrwt>
<pdfrwt beam="2">  1       -2 0.83909890E-02 0.68504522E+03</pdfrwt>
<totfact> 0.75089369E+02</totfact>
</mgrwt>
</event>
<event>
 4    1  0.2892809E-005  0.4739273E+03  0.7818608E-02  0.1020818E+00
          2   -1    0    0  501    0  0.00000000000E+00  0.00000000000E+00  0.78390467915E+03  0.78390467915E+03  0.25500000000E-02 0.  1.
         -2   -1    0    0    0  501 -0.00000000000E+00 -0.00000000000E+00 -0.71630861048E+02  0.71630861093E+02  0.25500000000E-02 0. -1.
    5000001    1    1    2    0    0  0.36564075447E+02 -0.12823373866E+03  0.42621380831E+03  0.48611010454E+03  0.19200000000E+03 0.  0.
   -5000001    1    1    2    0    0 -0.36564075447E+02  0.12823373866E+03  0.28606000979E+03  0.36942543570E+03  0.19200000000E+03 0.  0.
<mgrwt>
<rscale>  0 0.47392728E+03</rscale>
<asrwt>0</asrwt>
<pdfrwt beam="1">  1        2 0.11198638E+00 0.47392728E+03</pdfrwt>
<pdfrwt beam="2">  1       -2 0.10232980E-01 0.47392728E+03</pdfrwt>
<totfact> 0.25707043E+03</totfact>
</mgrwt>
</event>
<event>
 4    1  0.2892809E-005  0.8015510E+03  0.7818608E-02  0.9557775E-01
         -2   -1    0    0    0  501 -0.00000000000E+00  0.00000000000E+00  0.18679133897E+03  0.18679133899E+03  0.25500000000E-02 0.  1.
          2   -1    0    0  501    0  0.00000000000E+00 -0.00000000000E+00 -0.85989533888E+03  0.85989533888E+03  0.25500000000E-02 0. -1.
    5000001    1    1    2    0    0  0.34551125544E+03 -0.47380909345E+01 -0.25036225004E+03  0.46791637436E+03  0.19200000000E+03 0.  0.
   -5000001    1    1    2    0    0 -0.34551125544E+03  0.47380909345E+01 -0.42274174987E+03  0.57877030351E+03  0.19200000000E+03 0.  0.
<mgrwt>
<rscale>  0 0.80155100E+03</rscale>
<asrwt>0</asrwt>
<pdfrwt beam="1">  1        2 0.12284219E+00 0.80155100E+03</pdfrwt>
<pdfrwt beam="2">  1       -2 0.26684477E-01 0.80155100E+03</pdfrwt>
<totfact> 0.44113647E+02</totfact>
</mgrwt>
</event>
<event>
 4    1  0.2892809E-005  0.4416376E+03  0.7818608E-02  0.1030246E+00
         -2   -1    0    0    0  501 -0.00000000000E+00  0.00000000000E+00  0.29332997332E+02  0.29332997443E+02  0.25500000000E-02 0. -1.
          2   -1    0    0  501    0  0.00000000000E+00 -0.00000000000E+00 -0.16623240223E+04  0.16623240223E+04  0.25500000000E-02 0.  1.
    5000001    1    1    2    0    0 -0.71599693964E+02  0.40679056653E+02 -0.54252966286E+03  0.58136368729E+03  0.19200000000E+03 0.  0.
   -5000001    1    1    2    0    0  0.71599693964E+02 -0.40679056653E+02 -0.10904613621E+04  0.11102933325E+04  0.19200000000E+03 0.  0.
<mgrwt>
<rscale>  0 0.44163762E+03</rscale>
<asrwt>0</asrwt>
<pdfrwt beam="1">  1        2 0.23747480E+00 0.44163762E+03</pdfrwt>
<pdfrwt beam="2">  1       -2 0.41904292E-02 0.44163762E+03</pdfrwt>
<totfact> 0.33118273E+03</totfact>
</mgrwt>
</event>
<event>
 4    1  0.2892809E-005  0.7409794E+03  0.7818608E-02  0.9649609E-01
         -2   -1    0    0    0  501 -0.00000000000E+00  0.00000000000E+00  0.45421638118E+03  0.45421638119E+03  0.25500000000E-02 0. -1.
          2   -1    0    0  501    0  0.00000000000E+00 -0.00000000000E+00 -0.30219655678E+03  0.30219655679E+03  0.25500000000E-02 0.  1.
    5000001    1    1    2    0    0 -0.30903061646E+02  0.30920370543E+03  0.13924112061E+03  0.39091433888E+03  0.19200000000E+03 0.  0.
   -5000001    1    1    2    0    0  0.30903061646E+02 -0.30920370543E+03  0.12778703797E+02  0.36549859910E+03  0.19200000000E+03 0.  0.
<mgrwt>
<rscale>  0 0.74097942E+03</rscale>
<asrwt>0</asrwt>
<pdfrwt beam="1">  1        2 0.43170937E-01 0.74097942E+03</pdfrwt>
<pdfrwt beam="2">  1       -2 0.64888054E-01 0.74097942E+03</pdfrwt>
<totfact> 0.26142456E+02</totfact>
</mgrwt>
</event>
<event>
 4    1  0.2892809E-005  0.4309442E+03  0.7818608E-02  0.1033562E+00
         -2   -1    0    0    0  501 -0.00000000000E+00  0.00000000000E+00  0.12931542250E+03  0.12931542253E+03  0.25500000000E-02 0. -1.
          2   -1    0    0  501    0  0.00000000000E+00 -0.00000000000E+00 -0.35903076698E+03  0.35903076699E+03  0.25500000000E-02 0.  1.
    5000001    1    1    2    0    0  0.18338086262E+02 -0.92054647440E+02 -0.83743692545E+02  0.22953725093E+03  0.19200000000E+03 0.  0.
   -5000001    1    1    2    0    0 -0.18338086262E+02  0.92054647440E+02 -0.14597165193E+03  0.25880893858E+03  0.19200000000E+03 0.  0.
<mgrwt>
<rscale>  0 0.43094415E+03</rscale>
<asrwt>0</asrwt>
<pdfrwt beam="1">  1        2 0.51290109E-01 0.43094415E+03</pdfrwt>
<pdfrwt beam="2">  1       -2 0.18473632E-01 0.43094415E+03</pdfrwt>
<totfact> 0.23663103E+03</totfact>
</mgrwt>
</event>
<event>
 4    1  0.2892809E-005  0.4660004E+03  0.7818608E-02  0.1023055E+00
         -2   -1    0    0    0  501 -0.00000000000E+00  0.00000000000E+00  0.28856435437E+02  0.28856435550E+02  0.25500000000E-02 0. -1.
          2   -1    0    0  501    0  0.00000000000E+00 -0.00000000000E+00 -0.18813512460E+04  0.18813512460E+04  0.25500000000E-02 0.  1.
    5000001    1    1    2    0    0  0.12750676506E+03 -0.23761053292E+02 -0.10268670904E+04  0.10526835157E+04  0.19200000000E+03 0.  0.
   -5000001    1    1    2    0    0 -0.12750676506E+03  0.23761053292E+02 -0.82562772009E+03  0.85752416582E+03  0.19200000000E+03 0.  0.
<mgrwt>
<rscale>  0 0.46600039E+03</rscale>
<asrwt>0</asrwt>
<pdfrwt beam="1">  1        2 0.26876439E+00 0.46600039E+03</pdfrwt>
<pdfrwt beam="2">  1       -2 0.41223491E-02 0.46600039E+03</pdfrwt>
<totfact> 0.26362171E+03</totfact>
</mgrwt>
</event>
<event>
 4    1  0.2892809E-005  0.8534739E+03  0.7818608E-02  0.9485686E-01
          2   -1    0    0  501    0  0.00000000000E+00  0.00000000000E+00  0.25746273135E+04  0.25746273135E+04  0.25500000000E-02 0.  1.
         -2   -1    0    0    0  501 -0.00000000000E+00 -0.00000000000E+00 -0.70730408642E+02  0.70730408688E+02  0.25500000000E-02 0. -1.
    5000001    1    1    2    0    0  0.12221965442E+03 -0.33713579874E+03  0.16518012888E+04  0.17011495197E+04  0.19200000000E+03 0.  0.
   -5000001    1    1    2    0    0 -0.12221965442E+03  0.33713579874E+03  0.85209561600E+03  0.94420820242E+03  0.19200000000E+03 0.  0.
<mgrwt>
<rscale>  0 0.85347394E+03</rscale>
<asrwt>0</asrwt>
<pdfrwt beam="1">  1        2 0.36780392E+00 0.85347394E+03</pdfrwt>
<pdfrwt beam="2">  1       -2 0.10104344E-01 0.85347394E+03</pdfrwt>
<totfact> 0.27850574E+02</totfact>
</mgrwt>
</event>
<event>
 4    1  0.2892809E-005  0.6911997E+03  0.7818608E-02  0.9732401E-01
         -2   -1    0    0    0  501 -0.00000000000E+00  0.00000000000E+00  0.61093077057E+02  0.61093077110E+02  0.25500000000E-02 0. -1.
          2   -1    0    0  501    0  0.00000000000E+00 -0.00000000000E+00 -0.19550372935E+04  0.19550372935E+04  0.25500000000E-02 0.  1.
    5000001    1    1    2    0    0 -0.78557400417E+02  0.27638261555E+03 -0.93507764800E+03  0.99689158043E+03  0.19200000000E+03 0.  0.
   -5000001    1    1    2    0    0  0.78557400417E+02 -0.27638261555E+03 -0.95886656846E+03  0.10192387902E+04  0.19200000000E+03 0.  0.
<mgrwt>
<rscale>  0 0.69119966E+03</rscale>
<asrwt>0</asrwt>
<pdfrwt beam="1">  1        2 0.27929100E+00 0.69119966E+03</pdfrwt>
<pdfrwt beam="2">  1       -2 0.87275837E-02 0.69119966E+03</pdfrwt>
<totfact> 0.74023626E+02</totfact>
</mgrwt>
</event>
<event>
 4    1  0.2892809E-005  0.1069396E+04  0.7818608E-02  0.9235545E-01
          2   -1    0    0  501    0  0.00000000000E+00  0.00000000000E+00  0.92606278988E+03  0.92606278988E+03  0.25500000000E-02 0.  1.
         -2   -1    0    0    0  501 -0.00000000000E+00 -0.00000000000E+00 -0.30872823868E+03  0.30872823869E+03  0.25500000000E-02 0. -1.
    5000001    1    1    2    0    0  0.37109872576E+03  0.11212382088E+03  0.67151750854E+03  0.79880271641E+03  0.19200000000E+03 0.  0.
   -5000001    1    1    2    0    0 -0.37109872576E+03 -0.11212382088E+03 -0.54182957340E+02  0.43598831216E+03  0.19200000000E+03 0.  0.
<mgrwt>
<rscale>  0 0.10693956E+04</rscale>
<asrwt>0</asrwt>
<pdfrwt beam="1">  1        2 0.13229468E+00 0.10693956E+04</pdfrwt>
<pdfrwt beam="2">  1       -2 0.44104034E-01 0.10693956E+04</pdfrwt>
<totfact> 0.15152321E+02</totfact>
</mgrwt>
</event>
<event>
 4    1  0.2892809E-005  0.6328742E+03  0.7818608E-02  0.9839456E-01
          2   -1    0    0  501    0  0.00000000000E+00  0.00000000000E+00  0.13427851921E+04  0.13427851921E+04  0.25500000000E-02 0.  1.
         -2   -1    0    0    0  501 -0.00000000000E+00 -0.00000000000E+00 -0.74570713290E+02  0.74570713333E+02  0.25500000000E-02 0. -1.
    5000001    1    1    2    0    0 -0.11639197379E+03  0.21801166795E+03  0.52924754469E+03  0.61485213058E+03  0.19200000000E+03 0.  0.
   -5000001    1    1    2    0    0  0.11639197379E+03 -0.21801166795E+03  0.73896693413E+03  0.80250377486E+03  0.19200000000E+03 0.  0.
<mgrwt>
<rscale>  0 0.63287424E+03</rscale>
<asrwt>0</asrwt>
<pdfrwt beam="1">  1        2 0.19182645E+00 0.63287424E+03</pdfrwt>
<pdfrwt beam="2">  1       -2 0.10652960E-01 0.63287424E+03</pdfrwt>
<totfact> 0.11121850E+03</totfact>
</mgrwt>
</event>
<event>
 4    1  0.2892809E-005  0.4715759E+03  0.7818608E-02  0.1021476E+00
          2   -1    0    0  501    0  0.00000000000E+00  0.00000000000E+00  0.12883517118E+03  0.12883517121E+03  0.25500000000E-02 0.  1.
         -2   -1    0    0    0  501 -0.00000000000E+00 -0.00000000000E+00 -0.43152781380E+03  0.43152781381E+03  0.25500000000E-02 0. -1.
    5000001    1    1    2    0    0 -0.13140121656E+03  0.21756286476E+02 -0.11391380999E+03  0.25996148142E+03  0.19200000000E+03 0.  0.
   -5000001    1    1    2    0    0  0.13140121656E+03 -0.21756286476E+02 -0.18877883262E+03  0.30040150359E+03  0.19200000000E+03 0.  0.
<mgrwt>
<rscale>  0 0.47157591E+03</rscale>
<asrwt>0</asrwt>
<pdfrwt beam="1">  1        2 0.18405025E-01 0.47157591E+03</pdfrwt>
<pdfrwt beam="2">  1       -2 0.61646830E-01 0.47157591E+03</pdfrwt>
<totfact> 0.77018471E+02</totfact>
</mgrwt>
</event>
<event>
 4    1  0.2892809E-005  0.6207517E+03  0.7818608E-02  0.9863264E-01
         -2   -1    0    0    0  501 -0.00000000000E+00  0.00000000000E+00  0.64658248262E+02  0.64658248312E+02  0.25500000000E-02 0. -1.
          2   -1    0    0  501    0  0.00000000000E+00 -0.00000000000E+00 -0.14898822480E+04  0.14898822480E+04  0.25500000000E-02 0.  1.
    5000001    1    1    2    0    0  0.24967837713E+02 -0.24232314631E+03 -0.68458230880E+03  0.75157224382E+03  0.19200000000E+03 0.  0.
   -5000001    1    1    2    0    0 -0.24967837713E+02  0.24232314631E+03 -0.74064169090E+03  0.80296825246E+03  0.19200000000E+03 0.  0.
<mgrwt>
<rscale>  0 0.62075173E+03</rscale>
<asrwt>0</asrwt>
<pdfrwt beam="1">  1        2 0.21284030E+00 0.62075173E+03</pdfrwt>
<pdfrwt beam="2">  1       -2 0.92368935E-02 0.62075173E+03</pdfrwt>
<totfact> 0.11716335E+03</totfact>
</mgrwt>
</event>
<event>
 4    1  0.2892809E-005  0.5551079E+03  0.7818608E-02  0.1000319E+00
         -2   -1    0    0    0  501 -0.00000000000E+00  0.00000000000E+00  0.31378106582E+02  0.31378106686E+02  0.25500000000E-02 0. -1.
          2   -1    0    0  501    0  0.00000000000E+00 -0.00000000000E+00 -0.24550937215E+04  0.24550937215E+04  0.25500000000E-02 0.  1.
    5000001    1    1    2    0    0 -0.84053665812E+01  0.14623843352E+03 -0.59906865251E+03  0.64591298179E+03  0.19200000000E+03 0.  0.
   -5000001    1    1    2    0    0  0.84053665812E+01 -0.14623843352E+03 -0.18246469624E+04  0.18405588464E+04  0.19200000000E+03 0.  0.
<mgrwt>
<rscale>  0 0.55510789E+03</rscale>
<asrwt>0</asrwt>
<pdfrwt beam="1">  1        2 0.35072755E+00 0.55510789E+03</pdfrwt>
<pdfrwt beam="2">  1       -2 0.44825882E-02 0.55510789E+03</pdfrwt>
<totfact> 0.11893536E+03</totfact>
</mgrwt>
</event>
<event>
 4    1  0.2892809E-005  0.9370840E+03  0.7818608E-02  0.9380376E-01
          2   -1    0    0  501    0  0.00000000000E+00  0.00000000000E+00  0.26786681918E+04  0.26786681918E+04  0.25500000000E-02 0.  1.
         -2   -1    0    0    0  501 -0.00000000000E+00 -0.00000000000E+00 -0.81955499222E+02  0.81955499261E+02  0.25500000000E-02 0. -1.
    5000001    1    1    2    0    0  0.39055170355E+03 -0.16405545177E+03  0.14655974383E+04  0.15376230603E+04  0.19200000000E+03 0.  0.
   -5000001    1    1    2    0    0 -0.39055170355E+03  0.16405545177E+03  0.11311152543E+04  0.12230006308E+04  0.19200000000E+03 0.  0.
<mgrwt>
<rscale>  0 0.93708396E+03</rscale>
<asrwt>0</asrwt>
<pdfrwt beam="1">  1        2 0.38266680E+00 0.93708396E+03</pdfrwt>
<pdfrwt beam="2">  1       -2 0.11707931E-01 0.93708396E+03</pdfrwt>
<totfact> 0.19141978E+02</totfact>
</mgrwt>
</event>
<event>
 4    1  0.2892809E-005  0.5089159E+03  0.7818608E-02  0.1011478E+00
         -2   -1    0    0    0  501 -0.00000000000E+00  0.00000000000E+00  0.31239729414E+02  0.31239729519E+02  0.25500000000E-02 0. -1.
          2   -1    0    0  501    0  0.00000000000E+00 -0.00000000000E+00 -0.20726440497E+04  0.20726440497E+04  0.25500000000E-02 0.  1.
    5000001    1    1    2    0    0  0.90853090541E+02 -0.13430147465E+03 -0.11857367016E+04  0.12120753672E+04  0.19200000000E+03 0.  0.
   -5000001    1    1    2    0    0 -0.90853090541E+02  0.13430147465E+03 -0.85566761864E+03  0.89180841201E+03  0.19200000000E+03 0.  0.
<mgrwt>
<rscale>  0 0.50891586E+03</rscale>
<asrwt>0</asrwt>
<pdfrwt beam="1">  1        2 0.29609192E+00 0.50891586E+03</pdfrwt>
<pdfrwt beam="2">  1       -2 0.44628198E-02 0.50891586E+03</pdfrwt>
<totfact> 0.18708211E+03</totfact>
</mgrwt>
</event>
<event>
 4    1  0.2892809E-005  0.9537629E+03  0.7818608E-02  0.9360763E-01
          2   -1    0    0  501    0  0.00000000000E+00  0.00000000000E+00  0.27828910144E+04  0.27828910144E+04  0.25500000000E-02 0.  1.
         -2   -1    0    0    0  501 -0.00000000000E+00 -0.00000000000E+00 -0.81719296892E+02  0.81719296932E+02  0.25500000000E-02 0. -1.
    5000001    1    1    2    0    0  0.22495652082E+02  0.35457807770E+03  0.58885958098E+03  0.71403870600E+03  0.19200000000E+03 0.  0.
   -5000001    1    1    2    0    0 -0.22495652082E+02 -0.35457807770E+03  0.21123121365E+04  0.21505716053E+04  0.19200000000E+03 0.  0.
<mgrwt>
<rscale>  0 0.95376286E+03</rscale>
<asrwt>0</asrwt>
<pdfrwt beam="1">  1        2 0.39755591E+00 0.95376286E+03</pdfrwt>
<pdfrwt beam="2">  1       -2 0.11674184E-01 0.95376286E+03</pdfrwt>
<totfact> 0.16903365E+02</totfact>
</mgrwt>
</event>
<event>
 4    1  0.2892809E-005  0.5157463E+03  0.7818608E-02  0.1009749E+00
         -2   -1    0    0    0  501 -0.00000000000E+00  0.00000000000E+00  0.84541987775E+03  0.84541987775E+03  0.25500000000E-02 0. -1.
          2   -1    0    0  501    0  0.00000000000E+00 -0.00000000000E+00 -0.78657423096E+02  0.78657423137E+02  0.25500000000E-02 0.  1.
    5000001    1    1    2    0    0  0.12107432260E+03 -0.11228315862E+03  0.29619103578E+03  0.38969171018E+03  0.19200000000E+03 0.  0.
   -5000001    1    1    2    0    0 -0.12107432260E+03  0.11228315862E+03  0.47057141887E+03  0.53438559071E+03  0.19200000000E+03 0.  0.
<mgrwt>
<rscale>  0 0.51574625E+03</rscale>
<asrwt>0</asrwt>
<pdfrwt beam="1">  1        2 0.11236774E-01 0.51574625E+03</pdfrwt>
<pdfrwt beam="2">  1       -2 0.12077427E+00 0.51574625E+03</pdfrwt>
<totfact> 0.30352745E+02</totfact>
</mgrwt>
</event>
<event>
 4    1  0.2892809E-005  0.5646892E+03  0.7818608E-02  0.9981500E-01
          2   -1    0    0  501    0  0.00000000000E+00  0.00000000000E+00  0.26506686707E+03  0.26506686709E+03  0.25500000000E-02 0.  1.
         -2   -1    0    0    0  501 -0.00000000000E+00 -0.00000000000E+00 -0.30074849920E+03  0.30074849921E+03  0.25500000000E-02 0. -1.
    5000001    1    1    2    0    0  0.13501896615E+03  0.14692847191E+03  0.37372305475E+02  0.27942581537E+03  0.19200000000E+03 0.  0.
   -5000001    1    1    2    0    0 -0.13501896615E+03 -0.14692847191E+03 -0.73053937601E+02  0.28638955092E+03  0.19200000000E+03 0.  0.
<mgrwt>
<rscale>  0 0.56468916E+03</rscale>
<asrwt>0</asrwt>
<pdfrwt beam="1">  1        2 0.37866695E-01 0.56468916E+03</pdfrwt>
<pdfrwt beam="2">  1       -2 0.42964071E-01 0.56468916E+03</pdfrwt>
<totfact> 0.70718918E+02</totfact>
</mgrwt>
</event>
<event>
 4    1  0.2892809E-005  0.4286928E+03  0.7818608E-02  0.1034274E+00
          2   -1    0    0  501    0  0.00000000000E+00  0.00000000000E+00  0.12256402778E+04  0.12256402778E+04  0.25500000000E-02 0.  1.
         -2   -1    0    0    0  501 -0.00000000000E+00 -0.00000000000E+00 -0.37486024787E+02  0.37486024874E+02  0.25500000000E-02 0. -1.
    5000001    1    1    2    0    0  0.92347773797E+02  0.20698454803E+02  0.56128730919E+03  0.60071955255E+03  0.19200000000E+03 0.  0.
   -5000001    1    1    2    0    0 -0.92347773797E+02 -0.20698454803E+02  0.62686694381E+03  0.66240675011E+03  0.19200000000E+03 0.  0.
<mgrwt>
<rscale>  0 0.42869281E+03</rscale>
<asrwt>0</asrwt>
<pdfrwt beam="1">  1        2 0.17509144E+00 0.42869281E+03</pdfrwt>
<pdfrwt beam="2">  1       -2 0.53551472E-02 0.42869281E+03</pdfrwt>
<totfact> 0.38417050E+03</totfact>
</mgrwt>
</event>
<event>
 4    1  0.2892809E-005  0.4994875E+03  0.7818608E-02  0.1013913E+00
          2   -1    0    0  501    0  0.00000000000E+00  0.00000000000E+00  0.36944565167E+03  0.36944565168E+03  0.25500000000E-02 0.  1.
         -2   -1    0    0    0  501 -0.00000000000E+00 -0.00000000000E+00 -0.16882573333E+03  0.16882573335E+03  0.25500000000E-02 0. -1.
    5000001    1    1    2    0    0  0.15908680375E+03  0.88360733541E+01  0.88443805370E+02  0.26471304091E+03  0.19200000000E+03 0.  0.
   -5000001    1    1    2    0    0 -0.15908680375E+03 -0.88360733541E+01  0.11217611297E+03  0.27355834412E+03  0.19200000000E+03 0.  0.
<mgrwt>
<rscale>  0 0.49948747E+03</rscale>
<asrwt>0</asrwt>
<pdfrwt beam="1">  1        2 0.52777950E-01 0.49948747E+03</pdfrwt>
<pdfrwt beam="2">  1       -2 0.24117962E-01 0.49948747E+03</pdfrwt>
<totfact> 0.14419668E+03</totfact>
</mgrwt>
</event>
<event>
 4    1  0.2892809E-005  0.5868282E+03  0.7818608E-02  0.9933117E-01
         -2   -1    0    0    0  501 -0.00000000000E+00  0.00000000000E+00  0.53325653823E+02  0.53325653884E+02  0.25500000000E-02 0. -1.
          2   -1    0    0  501    0  0.00000000000E+00 -0.00000000000E+00 -0.16144540909E+04  0.16144540909E+04  0.25500000000E-02 0.  1.
    5000001    1    1    2    0    0 -0.18721153391E+03 -0.11174071071E+03 -0.89752568743E+03  0.94337188025E+03  0.19200000000E+03 0.  0.
   -5000001    1    1    2    0    0  0.18721153391E+03  0.11174071071E+03 -0.66360274969E+03  0.72440786457E+03  0.19200000000E+03 0.  0.
<mgrwt>
<rscale>  0 0.58682815E+03</rscale>
<asrwt>0</asrwt>
<pdfrwt beam="1">  1        2 0.23063627E+00 0.58682815E+03</pdfrwt>
<pdfrwt beam="2">  1       -2 0.76179516E-02 0.58682815E+03</pdfrwt>
<totfact> 0.13764587E+03</totfact>
</mgrwt>
</event>
<event>
 4    1  0.2892809E-005  0.6559666E+03  0.7818608E-02  0.9795647E-01
          2   -1    0    0  501    0  0.00000000000E+00  0.00000000000E+00  0.65222888553E+03  0.65222888553E+03  0.25500000000E-02 0.  1.
         -2   -1    0    0    0  501 -0.00000000000E+00 -0.00000000000E+00 -0.16493140936E+03  0.16493140938E+03  0.25500000000E-02 0. -1.
    5000001    1    1    2    0    0  0.35935586201E+02  0.26340718773E+03  0.25094627972E+03  0.41293189294E+03  0.19200000000E+03 0.  0.
   -5000001    1    1    2    0    0 -0.35935586201E+02 -0.26340718773E+03  0.23635119645E+03  0.40422840197E+03  0.19200000000E+03 0.  0.
<mgrwt>
<rscale>  0 0.65596655E+03</rscale>
<asrwt>0</asrwt>
<pdfrwt beam="1">  1        2 0.93175554E-01 0.65596655E+03</pdfrwt>
<pdfrwt beam="2">  1       -2 0.23561630E-01 0.65596655E+03</pdfrwt>
<totfact> 0.78542517E+02</totfact>
</mgrwt>
</event>
<event>
 4    1  0.2892809E-005  0.6769382E+03  0.7818608E-02  0.9757505E-01
         -2   -1    0    0    0  501 -0.00000000000E+00  0.00000000000E+00  0.10609484243E+04  0.10609484243E+04  0.25500000000E-02 0.  1.
          2   -1    0    0  501    0  0.00000000000E+00 -0.00000000000E+00 -0.10798010431E+03  0.10798010434E+03  0.25500000000E-02 0. -1.
    5000001    1    1    2    0    0  0.68437521970E+02 -0.27020554348E+03  0.47370440839E+03  0.58219807340E+03  0.19200000000E+03 0.  0.
   -5000001    1    1    2    0    0 -0.68437521970E+02  0.27020554348E+03  0.47926391157E+03  0.58673045521E+03  0.19200000000E+03 0.  0.
<mgrwt>
<rscale>  0 0.67693817E+03</rscale>
<asrwt>0</asrwt>
<pdfrwt beam="1">  1        2 0.15425729E-01 0.67693817E+03</pdfrwt>
<pdfrwt beam="2">  1       -2 0.15156406E+00 0.67693817E+03</pdfrwt>
<totfact> 0.11458668E+02</totfact>
</mgrwt>
</event>
<event>
 4    1  0.2892809E-005  0.1174760E+04  0.7818608E-02  0.9135240E-01
         -2   -1    0    0    0  501 -0.00000000000E+00  0.00000000000E+00  0.88498649355E+03  0.88498649356E+03  0.25500000000E-02 0. -1.
          2   -1    0    0  501    0  0.00000000000E+00 -0.00000000000E+00 -0.38985374717E+03  0.38985374718E+03  0.25500000000E-02 0.  1.
    5000001    1    1    2    0    0 -0.26289653953E+03  0.46731826327E+03  0.40351096195E+03  0.69798713892E+03  0.19200000000E+03 0.  0.
   -5000001    1    1    2    0    0  0.26289653953E+03 -0.46731826327E+03  0.91621784429E+02  0.57685310181E+03  0.19200000000E+03 0.  0.
<mgrwt>
<rscale>  0 0.11747601E+04</rscale>
<asrwt>0</asrwt>
<pdfrwt beam="1">  1        2 0.55693392E-01 0.11747601E+04</pdfrwt>
<pdfrwt beam="2">  1       -2 0.12642664E+00 0.11747601E+04</pdfrwt>
<totfact> 0.41013590E+01</totfact>
</mgrwt>
</event>
<event>
 4    1  0.2892809E-005  0.7842147E+03  0.7818608E-02  0.9583151E-01
         -2   -1    0    0    0  501 -0.00000000000E+00  0.00000000000E+00  0.16558185067E+03  0.16558185069E+03  0.25500000000E-02 0. -1.
          2   -1    0    0  501    0  0.00000000000E+00 -0.00000000000E+00 -0.92853266362E+03  0.92853266363E+03  0.25500000000E-02 0.  1.
    5000001    1    1    2    0    0  0.29825470562E+02  0.33948483280E+03 -0.41954716097E+03  0.57360555321E+03  0.19200000000E+03 0.  0.
   -5000001    1    1    2    0    0 -0.29825470562E+02 -0.33948483280E+03 -0.34340365199E+03  0.52050896111E+03  0.19200000000E+03 0.  0.
<mgrwt>
<rscale>  0 0.78421466E+03</rscale>
<asrwt>0</asrwt>
<pdfrwt beam="1">  1        2 0.13264752E+00 0.78421466E+03</pdfrwt>
<pdfrwt beam="2">  1       -2 0.23654551E-01 0.78421466E+03</pdfrwt>
<totfact> 0.49484854E+02</totfact>
</mgrwt>
</event>
<event>
 4    1  0.2892809E-005  0.4300910E+03  0.7818608E-02  0.1033831E+00
          2   -1    0    0  501    0  0.00000000000E+00  0.00000000000E+00  0.70375045077E+03  0.70375045077E+03  0.25500000000E-02 0.  1.
         -2   -1    0    0    0  501 -0.00000000000E+00 -0.00000000000E+00 -0.65711604597E+02  0.65711604647E+02  0.25500000000E-02 0. -1.
    5000001    1    1    2    0    0  0.82446195224E+02 -0.25093925422E+02  0.39809321407E+03  0.45029910869E+03  0.19200000000E+03 0.  0.
   -5000001    1    1    2    0    0 -0.82446195224E+02  0.25093925422E+02  0.23994563210E+03  0.31916294673E+03  0.19200000000E+03 0.  0.
<mgrwt>
<rscale>  0 0.43009102E+03</rscale>
<asrwt>0</asrwt>
<pdfrwt beam="1">  1        2 0.10053578E+00 0.43009102E+03</pdfrwt>
<pdfrwt beam="2">  1       -2 0.93873724E-02 0.43009102E+03</pdfrwt>
<totfact> 0.33703707E+03</totfact>
</mgrwt>
</event>
<event>
 4    1  0.2892809E-005  0.5313903E+03  0.7818608E-02  0.1005896E+00
         -2   -1    0    0    0  501 -0.00000000000E+00  0.00000000000E+00  0.88636211685E+02  0.88636211722E+02  0.25500000000E-02 0. -1.
          2   -1    0    0  501    0  0.00000000000E+00 -0.00000000000E+00 -0.79644551905E+03  0.79644551906E+03  0.25500000000E-02 0.  1.
    5000001    1    1    2    0    0 -0.65291106434E+02 -0.17121160186E+03 -0.33326385933E+03  0.42603420183E+03  0.19200000000E+03 0.  0.
   -5000001    1    1    2    0    0  0.65291106434E+02  0.17121160186E+03 -0.37454544804E+03  0.45904752895E+03  0.19200000000E+03 0.  0.
<mgrwt>
<rscale>  0 0.53139030E+03</rscale>
<asrwt>0</asrwt>
<pdfrwt beam="1">  1        2 0.11377793E+00 0.53139030E+03</pdfrwt>
<pdfrwt beam="2">  1       -2 0.12662316E-01 0.53139030E+03</pdfrwt>
<totfact> 0.17800689E+03</totfact>
</mgrwt>
</event>
<event>
 4    1  0.2892809E-005  0.5025464E+03  0.7818608E-02  0.1013116E+00
          2   -1    0    0  501    0  0.00000000000E+00  0.00000000000E+00  0.31362913600E+04  0.31362913600E+04  0.25500000000E-02 0.  1.
         -2   -1    0    0    0  501 -0.00000000000E+00 -0.00000000000E+00 -0.20131491198E+02  0.20131491360E+02  0.25500000000E-02 0. -1.
    5000001    1    1    2    0    0 -0.58317361843E+02  0.97381607323E+02  0.83128581301E+03  0.86068821012E+03  0.19200000000E+03 0.  0.
   -5000001    1    1    2    0    0  0.58317361843E+02 -0.97381607323E+02  0.22848740558E+04  0.22957346413E+04  0.19200000000E+03 0.  0.
<mgrwt>
<rscale>  0 0.50254640E+03</rscale>
<asrwt>0</asrwt>
<pdfrwt beam="1">  1        2 0.44804179E+00 0.50254640E+03</pdfrwt>
<pdfrwt beam="2">  1       -2 0.28759263E-02 0.50254640E+03</pdfrwt>
<totfact> 0.10263031E+03</totfact>
</mgrwt>
</event>
<event>
 4    1  0.2892809E-005  0.4578254E+03  0.7818608E-02  0.1025414E+00
         -2   -1    0    0    0  501 -0.00000000000E+00  0.00000000000E+00  0.20089377089E+02  0.20089377251E+02  0.25500000000E-02 0. -1.
          2   -1    0    0  501    0  0.00000000000E+00 -0.00000000000E+00 -0.26083943881E+04  0.26083943881E+04  0.25500000000E-02 0.  1.
    5000001    1    1    2    0    0  0.60777374564E+02 -0.10854787426E+03 -0.12495004434E+04  0.12702723678E+04  0.19200000000E+03 0.  0.
   -5000001    1    1    2    0    0 -0.60777374564E+02  0.10854787426E+03 -0.13388045676E+04  0.13582113976E+04  0.19200000000E+03 0.  0.
<mgrwt>
<rscale>  0 0.45782538E+03</rscale>
<asrwt>0</asrwt>
<pdfrwt beam="1">  1        2 0.37262755E+00 0.45782538E+03</pdfrwt>
<pdfrwt beam="2">  1       -2 0.28699127E-02 0.45782538E+03</pdfrwt>
<totfact> 0.19717428E+03</totfact>
</mgrwt>
</event>
<event>
 4    1  0.2892809E-005  0.6062595E+03  0.7818608E-02  0.9892504E-01
         -2   -1    0    0    0  501 -0.00000000000E+00  0.00000000000E+00  0.39957425569E+02  0.39957425650E+02  0.25500000000E-02 0. -1.
          2   -1    0    0  501    0  0.00000000000E+00 -0.00000000000E+00 -0.22996386522E+04  0.22996386522E+04  0.25500000000E-02 0.  1.
    5000001    1    1    2    0    0 -0.12211416916E+03 -0.80082900683E+02 -0.18382554013E+04  0.18540151190E+04  0.19200000000E+03 0.  0.
   -5000001    1    1    2    0    0  0.12211416916E+03  0.80082900683E+02 -0.42142582538E+03  0.48558095884E+03  0.19200000000E+03 0.  0.
<mgrwt>
<rscale>  0 0.60625948E+03</rscale>
<asrwt>0</asrwt>
<pdfrwt beam="1">  1        2 0.32851972E+00 0.60625948E+03</pdfrwt>
<pdfrwt beam="2">  1       -2 0.57082051E-02 0.60625948E+03</pdfrwt>
<totfact> 0.97705778E+02</totfact>
</mgrwt>
</event>
<event>
 4    1  0.2892809E-005  0.4728766E+03  0.7818608E-02  0.1021111E+00
          2   -1    0    0  501    0  0.00000000000E+00  0.00000000000E+00  0.87408950230E+02  0.87408950267E+02  0.25500000000E-02 0.  1.
         -2   -1    0    0    0  501 -0.00000000000E+00 -0.00000000000E+00 -0.63955770774E+03  0.63955770774E+03  0.25500000000E-02 0. -1.
    5000001    1    1    2    0    0 -0.67551913919E+02  0.78379586298E+02 -0.41640516619E+03  0.47006795578E+03  0.19200000000E+03 0.  0.
   -5000001    1    1    2    0    0  0.67551913919E+02 -0.78379586298E+02 -0.13574359132E+03  0.25689870223E+03  0.19200000000E+03 0.  0.
<mgrwt>
<rscale>  0 0.47287659E+03</rscale>
<asrwt>0</asrwt>
<pdfrwt beam="1">  1        2 0.12486993E-01 0.47287659E+03</pdfrwt>
<pdfrwt beam="2">  1       -2 0.91365384E-01 0.47287659E+03</pdfrwt>
<totfact> 0.51720523E+02</totfact>
</mgrwt>
</event>
<event>
 4    1  0.2892809E-005  0.4827072E+03  0.7818608E-02  0.1018394E+00
          2   -1    0    0  501    0  0.00000000000E+00  0.00000000000E+00  0.19386309332E+03  0.19386309334E+03  0.25500000000E-02 0.  1.
         -2   -1    0    0    0  501 -0.00000000000E+00 -0.00000000000E+00 -0.30047788457E+03  0.30047788459E+03  0.25500000000E-02 0. -1.
    5000001    1    1    2    0    0  0.10876880637E+03  0.19346673445E+01  0.46788594691E+02  0.22558273154E+03  0.19200000000E+03 0.  0.
   -5000001    1    1    2    0    0 -0.10876880637E+03 -0.19346673445E+01 -0.15340338595E+03  0.26875824638E+03  0.19200000000E+03 0.  0.
<mgrwt>
<rscale>  0 0.48270725E+03</rscale>
<asrwt>0</asrwt>
<pdfrwt beam="1">  1        2 0.27694728E-01 0.48270725E+03</pdfrwt>
<pdfrwt beam="2">  1       -2 0.42925412E-01 0.48270725E+03</pdfrwt>
<totfact> 0.10041866E+03</totfact>
</mgrwt>
</event>
<event>
 4    1  0.2892809E-005  0.9358779E+03  0.7818608E-02  0.9381811E-01
         -2   -1    0    0    0  501 -0.00000000000E+00  0.00000000000E+00  0.39245393569E+03  0.39245393570E+03  0.25500000000E-02 0.  1.
          2   -1    0    0  501    0  0.00000000000E+00 -0.00000000000E+00 -0.55794283081E+03  0.55794283082E+03  0.25500000000E-02 0. -1.
    5000001    1    1    2    0    0  0.39959656828E+03  0.14910768718E+03 -0.96828274268E+02  0.47765074527E+03  0.19200000000E+03 0.  0.
   -5000001    1    1    2    0    0 -0.39959656828E+03 -0.14910768718E+03 -0.68660620852E+02  0.47274602126E+03  0.19200000000E+03 0.  0.
<mgrwt>
<rscale>  0 0.93587790E+03</rscale>
<asrwt>0</asrwt>
<pdfrwt beam="1">  1        2 0.79706119E-01 0.93587790E+03</pdfrwt>
<pdfrwt beam="2">  1       -2 0.56064848E-01 0.93587790E+03</pdfrwt>
<totfact> 0.17691316E+02</totfact>
</mgrwt>
</event>
<event>
 4    1  0.2892809E-005  0.6504451E+03  0.7818608E-02  0.9805944E-01
         -2   -1    0    0    0  501 -0.00000000000E+00  0.00000000000E+00  0.29209053661E+03  0.29209053662E+03  0.25500000000E-02 0. -1.
          2   -1    0    0  501    0  0.00000000000E+00 -0.00000000000E+00 -0.36211272945E+03  0.36211272946E+03  0.25500000000E-02 0.  1.
    5000001    1    1    2    0    0 -0.14634807995E+03  0.81605422123E+02  0.16821700704E+03  0.30534925394E+03  0.19200000000E+03 0.  0.
   -5000001    1    1    2    0    0  0.14634807995E+03 -0.81605422123E+02 -0.23823919988E+03  0.34885401214E+03  0.19200000000E+03 0.  0.
<mgrwt>
<rscale>  0 0.65044508E+03</rscale>
<asrwt>0</asrwt>
<pdfrwt beam="1">  1        2 0.51730390E-01 0.65044508E+03</pdfrwt>
<pdfrwt beam="2">  1       -2 0.41727220E-01 0.65044508E+03</pdfrwt>
<totfact> 0.52980381E+02</totfact>
</mgrwt>
</event>
<event>
 4    1  0.2892809E-005  0.5679925E+03  0.7818608E-02  0.9974131E-01
         -2   -1    0    0    0  501 -0.00000000000E+00  0.00000000000E+00  0.10739463978E+03  0.10739463981E+03  0.25500000000E-02 0. -1.
          2   -1    0    0  501    0  0.00000000000E+00 -0.00000000000E+00 -0.75100472816E+03  0.75100472817E+03  0.25500000000E-02 0.  1.
    5000001    1    1    2    0    0  0.15584755382E+03 -0.11800089555E+03 -0.20894108307E+03  0.34457662076E+03  0.19200000000E+03 0.  0.
   -5000001    1    1    2    0    0 -0.15584755382E+03  0.11800089555E+03 -0.43466900531E+03  0.51382274722E+03  0.19200000000E+03 0.  0.
<mgrwt>
<rscale>  0 0.56799254E+03</rscale>
<asrwt>0</asrwt>
<pdfrwt beam="1">  1        2 0.10728639E+00 0.56799254E+03</pdfrwt>
<pdfrwt beam="2">  1       -2 0.15342092E-01 0.56799254E+03</pdfrwt>
<totfact> 0.13912727E+03</totfact>
</mgrwt>
</event>
<event>
 4    1  0.2892809E-005  0.4777220E+03  0.7818608E-02  0.1019763E+00
          2   -1    0    0  501    0  0.00000000000E+00  0.00000000000E+00  0.65633915830E+02  0.65633915879E+02  0.25500000000E-02 0.  1.
         -2   -1    0    0    0  501 -0.00000000000E+00 -0.00000000000E+00 -0.86928481301E+03  0.86928481301E+03  0.25500000000E-02 0. -1.
    5000001    1    1    2    0    0  0.11782230562E+03  0.65938772867E+02 -0.48847922398E+03  0.54194646389E+03  0.19200000000E+03 0.  0.
   -5000001    1    1    2    0    0 -0.11782230562E+03 -0.65938772867E+02 -0.31517167320E+03  0.39297226500E+03  0.19200000000E+03 0.  0.
<mgrwt>
<rscale>  0 0.47772195E+03</rscale>
<asrwt>0</asrwt>
<pdfrwt beam="1">  1        2 0.93762742E-02 0.47772195E+03</pdfrwt>
<pdfrwt beam="2">  1       -2 0.12418354E+00 0.47772195E+03</pdfrwt>
<totfact> 0.35613227E+02</totfact>
</mgrwt>
</event>
<event>
 4    1  0.2892809E-005  0.6138068E+03  0.7818608E-02  0.9877168E-01
         -2   -1    0    0    0  501 -0.00000000000E+00  0.00000000000E+00  0.25407554474E+02  0.25407554602E+02  0.25500000000E-02 0. -1.
          2   -1    0    0  501    0  0.00000000000E+00 -0.00000000000E+00 -0.37071525986E+04  0.37071525986E+04  0.25500000000E-02 0.  1.
    5000001    1    1    2    0    0  0.21545398931E+03  0.10358864250E+03 -0.17605081116E+04  0.17870097480E+04  0.19200000000E+03 0.  0.
   -5000001    1    1    2    0    0 -0.21545398931E+03 -0.10358864250E+03 -0.19212369325E+04  0.19455504052E+04  0.19200000000E+03 0.  0.
<mgrwt>
<rscale>  0 0.61380675E+03</rscale>
<asrwt>0</asrwt>
<pdfrwt beam="1">  1        2 0.52959288E+00 0.61380675E+03</pdfrwt>
<pdfrwt beam="2">  1       -2 0.36296530E-02 0.61380675E+03</pdfrwt>
<totfact> 0.32976872E+02</totfact>
</mgrwt>
</event>
<event>
 4    1  0.2892809E-005  0.4893171E+03  0.7818608E-02  0.1016606E+00
          2   -1    0    0  501    0  0.00000000000E+00  0.00000000000E+00  0.13529511758E+04  0.13529511758E+04  0.25500000000E-02 0.  1.
         -2   -1    0    0    0  501 -0.00000000000E+00 -0.00000000000E+00 -0.44242392616E+02  0.44242392689E+02  0.25500000000E-02 0. -1.
    5000001    1    1    2    0    0 -0.31475369271E+02 -0.14629173396E+03  0.72440340176E+03  0.76420956470E+03  0.19200000000E+03 0.  0.
   -5000001    1    1    2    0    0  0.31475369271E+02  0.14629173396E+03  0.58430538143E+03  0.63298400380E+03  0.19200000000E+03 0.  0.
<mgrwt>
<rscale>  0 0.48931706E+03</rscale>
<asrwt>0</asrwt>
<pdfrwt beam="1">  1        2 0.19327877E+00 0.48931706E+03</pdfrwt>
<pdfrwt beam="2">  1       -2 0.63203407E-02 0.48931706E+03</pdfrwt>
<totfact> 0.25348487E+03</totfact>
</mgrwt>
</event>
<event>
 4    1  0.2892809E-005  0.7386989E+03  0.7818608E-02  0.9653249E-01
         -2   -1    0    0    0  501 -0.00000000000E+00  0.00000000000E+00  0.32947479765E+02  0.32947479863E+02  0.25500000000E-02 0. -1.
          2   -1    0    0  501    0  0.00000000000E+00 -0.00000000000E+00 -0.41404994797E+04  0.41404994797E+04  0.25500000000E-02 0.  1.
    5000001    1    1    2    0    0 -0.31265467239E+03  0.33001672975E+02 -0.22046320006E+04  0.22351976003E+04  0.19200000000E+03 0.  0.
   -5000001    1    1    2    0    0  0.31265467239E+03 -0.33001672975E+02 -0.19029199994E+04  0.19382493593E+04  0.19200000000E+03 0.  0.
<mgrwt>
<rscale>  0 0.73869892E+03</rscale>
<asrwt>0</asrwt>
<pdfrwt beam="1">  1        2 0.59149959E+00 0.73869892E+03</pdfrwt>
<pdfrwt beam="2">  1       -2 0.47067855E-02 0.73869892E+03</pdfrwt>
<totfact> 0.11274237E+02</totfact>
</mgrwt>
</event>
<event>
 4    1  0.2892809E-005  0.4487342E+03  0.7818608E-02  0.1028100E+00
          2   -1    0    0  501    0  0.00000000000E+00  0.00000000000E+00  0.14088828096E+04  0.14088828096E+04  0.25500000000E-02 0.  1.
         -2   -1    0    0    0  501 -0.00000000000E+00 -0.00000000000E+00 -0.35730860375E+02  0.35730860466E+02  0.25500000000E-02 0. -1.
    5000001    1    1    2    0    0  0.87623387560E+02 -0.33811200890E+02  0.46691769998E+03  0.51351455082E+03  0.19200000000E+03 0.  0.
   -5000001    1    1    2    0    0 -0.87623387560E+02  0.33811200890E+02  0.90623424924E+03  0.93109911924E+03  0.19200000000E+03 0.  0.
<mgrwt>
<rscale>  0 0.44873420E+03</rscale>
<asrwt>0</asrwt>
<pdfrwt beam="1">  1        2 0.20126892E+00 0.44873420E+03</pdfrwt>
<pdfrwt beam="2">  1       -2 0.51044099E-02 0.44873420E+03</pdfrwt>
<totfact> 0.33005168E+03</totfact>
</mgrwt>
</event>
<event>
 4    1  0.2892809E-005  0.9095104E+03  0.7818608E-02  0.9413770E-01
         -2   -1    0    0    0  501 -0.00000000000E+00  0.00000000000E+00  0.27994041928E+03  0.27994041929E+03  0.25500000000E-02 0. -1.
          2   -1    0    0  501    0  0.00000000000E+00 -0.00000000000E+00 -0.73873682093E+03  0.73873682093E+03  0.25500000000E-02 0.  1.
    5000001    1    1    2    0    0  0.26324984154E+03  0.29990661695E+03 -0.11357495835E+03  0.45717363127E+03  0.19200000000E+03 0.  0.
   -5000001    1    1    2    0    0 -0.26324984154E+03 -0.29990661695E+03 -0.34522144330E+03  0.56150360896E+03  0.19200000000E+03 0.  0.
<mgrwt>
<rscale>  0 0.90951041E+03</rscale>
<asrwt>0</asrwt>
<pdfrwt beam="1">  1        2 0.10553383E+00 0.90951041E+03</pdfrwt>
<pdfrwt beam="2">  1       -2 0.39991489E-01 0.90951041E+03</pdfrwt>
<totfact> 0.24921688E+02</totfact>
</mgrwt>
</event>
<event>
 4    1  0.2892809E-005  0.5872063E+03  0.7818608E-02  0.9932310E-01
          2   -1    0    0  501    0  0.00000000000E+00  0.00000000000E+00  0.25996701878E+03  0.25996701879E+03  0.25500000000E-02 0.  1.
         -2   -1    0    0    0  501 -0.00000000000E+00 -0.00000000000E+00 -0.33159130802E+03  0.33159130803E+03  0.25500000000E-02 0. -1.
    5000001    1    1    2    0    0 -0.13999369384E+03  0.13966556677E+03  0.66101348219E+02  0.28343975214E+03  0.19200000000E+03 0.  0.
   -5000001    1    1    2    0    0  0.13999369384E+03 -0.13966556677E+03 -0.13772563746E+03  0.30811857469E+03  0.19200000000E+03 0.  0.
<mgrwt>
<rscale>  0 0.58720628E+03</rscale>
<asrwt>0</asrwt>
<pdfrwt beam="1">  1        2 0.37138146E-01 0.58720628E+03</pdfrwt>
<pdfrwt beam="2">  1       -2 0.47370187E-01 0.58720628E+03</pdfrwt>
<totfact> 0.59517341E+02</totfact>
</mgrwt>
</event>
<event>
 4    1  0.2892809E-005  0.5923388E+03  0.7818608E-02  0.9921429E-01
         -2   -1    0    0    0  501 -0.00000000000E+00  0.00000000000E+00  0.12598900090E+03  0.12598900092E+03  0.25500000000E-02 0. -1.
          2   -1    0    0  501    0  0.00000000000E+00 -0.00000000000E+00 -0.69622210043E+03  0.69622210043E+03  0.25500000000E-02 0.  1.
    5000001    1    1    2    0    0  0.20069784309E+03 -0.69237780225E+02 -0.39063615849E+03  0.48428721102E+03  0.19200000000E+03 0.  0.
   -5000001    1    1    2    0    0 -0.20069784309E+03  0.69237780225E+02 -0.17959694103E+03  0.33792389034E+03  0.19200000000E+03 0.  0.
<mgrwt>
<rscale>  0 0.59233885E+03</rscale>
<asrwt>0</asrwt>
<pdfrwt beam="1">  1        2 0.99460297E-01 0.59233885E+03</pdfrwt>
<pdfrwt beam="2">  1       -2 0.17998429E-01 0.59233885E+03</pdfrwt>
<totfact> 0.11639114E+03</totfact>
</mgrwt>
</event>
<event>
 4    1  0.2892809E-005  0.4427190E+03  0.7818608E-02  0.1029916E+00
          2   -1    0    0  501    0  0.00000000000E+00  0.00000000000E+00  0.14959932604E+04  0.14959932604E+04  0.25500000000E-02 0.  1.
         -2   -1    0    0    0  501 -0.00000000000E+00 -0.00000000000E+00 -0.32754181926E+02  0.32754182025E+02  0.25500000000E-02 0. -1.
    5000001    1    1    2    0    0  0.60013734991E+02  0.92357759606E+02  0.72435053125E+03  0.75741619753E+03  0.19200000000E+03 0.  0.
   -5000001    1    1    2    0    0 -0.60013734991E+02 -0.92357759606E+02  0.73888854720E+03  0.77133124488E+03  0.19200000000E+03 0.  0.
<mgrwt>
<rscale>  0 0.44271903E+03</rscale>
<asrwt>0</asrwt>
<pdfrwt beam="1">  1        2 0.21371335E+00 0.44271903E+03</pdfrwt>
<pdfrwt beam="2">  1       -2 0.46791682E-02 0.44271903E+03</pdfrwt>
<totfact> 0.33997394E+03</totfact>
</mgrwt>
</event>
<event>
 4    1  0.2892809E-005  0.4951509E+03  0.7818608E-02  0.1015052E+00
         -2   -1    0    0    0  501 -0.00000000000E+00  0.00000000000E+00  0.78932789447E+02  0.78932789488E+02  0.25500000000E-02 0. -1.
          2   -1    0    0  501    0  0.00000000000E+00 -0.00000000000E+00 -0.77652919349E+03  0.77652919349E+03  0.25500000000E-02 0.  1.
    5000001    1    1    2    0    0  0.14949040033E+03  0.29753001450E+02 -0.40857176849E+03  0.47647404011E+03  0.19200000000E+03 0.  0.
   -5000001    1    1    2    0    0 -0.14949040033E+03 -0.29753001450E+02 -0.28902463554E+03  0.37898794287E+03  0.19200000000E+03 0.  0.
<mgrwt>
<rscale>  0 0.49515095E+03</rscale>
<asrwt>0</asrwt>
<pdfrwt beam="1">  1        2 0.11093274E+00 0.49515095E+03</pdfrwt>
<pdfrwt beam="2">  1       -2 0.11276113E-01 0.49515095E+03</pdfrwt>
<totfact> 0.22227910E+03</totfact>
</mgrwt>
</event>
<event>
 4    1  0.2892809E-005  0.6693522E+03  0.7818608E-02  0.9771129E-01
         -2   -1    0    0    0  501 -0.00000000000E+00  0.00000000000E+00  0.50811092096E+03  0.50811092097E+03  0.25500000000E-02 0. -1.
          2   -1    0    0  501    0  0.00000000000E+00 -0.00000000000E+00 -0.22044023081E+03  0.22044023083E+03  0.25500000000E-02 0.  1.
    5000001    1    1    2    0    0 -0.16600191582E+03  0.19490018299E+03  0.25048807912E+03  0.40638773993E+03  0.19200000000E+03 0.  0.
   -5000001    1    1    2    0    0  0.16600191582E+03 -0.19490018299E+03  0.37182611027E+02  0.32216341187E+03  0.19200000000E+03 0.  0.
<mgrwt>
<rscale>  0 0.66935219E+03</rscale>
<asrwt>0</asrwt>
<pdfrwt beam="1">  1        2 0.31491462E-01 0.66935219E+03</pdfrwt>
<pdfrwt beam="2">  1       -2 0.72587274E-01 0.66935219E+03</pdfrwt>
<totfact> 0.29196056E+02</totfact>
</mgrwt>
</event>
<event>
 4    1  0.2892809E-005  0.7351161E+03  0.7818608E-02  0.9658995E-01
         -2   -1    0    0    0  501 -0.00000000000E+00  0.00000000000E+00  0.70156024410E+02  0.70156024456E+02  0.25500000000E-02 0. -1.
          2   -1    0    0  501    0  0.00000000000E+00 -0.00000000000E+00 -0.19256925476E+04  0.19256925476E+04  0.25500000000E-02 0.  1.
    5000001    1    1    2    0    0 -0.26172711207E+03 -0.15846547511E+03 -0.74317653772E+03  0.82630972051E+03  0.19200000000E+03 0.  0.
   -5000001    1    1    2    0    0  0.26172711207E+03  0.15846547511E+03 -0.11123599854E+04  0.11695388515E+04  0.19200000000E+03 0.  0.
<mgrwt>
<rscale>  0 0.73511614E+03</rscale>
<asrwt>0</asrwt>
<pdfrwt beam="1">  1        2 0.27509890E+00 0.73511614E+03</pdfrwt>
<pdfrwt beam="2">  1       -2 0.10022290E-01 0.73511614E+03</pdfrwt>
<totfact> 0.61075006E+02</totfact>
</mgrwt>
</event>
<event>
 4    1  0.2892809E-005  0.1037825E+04  0.7818608E-02  0.9268005E-01
         -2   -1    0    0    0  501 -0.00000000000E+00  0.00000000000E+00  0.27446813762E+03  0.27446813764E+03  0.25500000000E-02 0. -1.
          2   -1    0    0  501    0  0.00000000000E+00 -0.00000000000E+00 -0.98106120152E+03  0.98106120153E+03  0.25500000000E-02 0.  1.
    5000001    1    1    2    0    0  0.20002034045E+03 -0.36138963446E+03 -0.52563554764E+02  0.45851666467E+03  0.19200000000E+03 0.  0.
   -5000001    1    1    2    0    0 -0.20002034045E+03  0.36138963446E+03 -0.65402950913E+03  0.79701267450E+03  0.19200000000E+03 0.  0.
<mgrwt>
<rscale>  0 0.10378247E+04</rscale>
<asrwt>0</asrwt>
<pdfrwt beam="1">  1        2 0.14015160E+00 0.10378247E+04</pdfrwt>
<pdfrwt beam="2">  1       -2 0.39209734E-01 0.10378247E+04</pdfrwt>
<totfact> 0.17655435E+02</totfact>
</mgrwt>
</event>
<event>
 4    1  0.2892809E-005  0.4347658E+03  0.7818608E-02  0.1032365E+00
          2   -1    0    0  501    0  0.00000000000E+00  0.00000000000E+00  0.55420852995E+03  0.55420852995E+03  0.25500000000E-02 0.  1.
         -2   -1    0    0    0  501 -0.00000000000E+00 -0.00000000000E+00 -0.85266344890E+02  0.85266344929E+02  0.25500000000E-02 0. -1.
    5000001    1    1    2    0    0 -0.10099566201E+03  0.12580159866E+02  0.24291426532E+03  0.32592901752E+03  0.19200000000E+03 0.  0.
   -5000001    1    1    2    0    0  0.10099566201E+03 -0.12580159866E+02  0.22602791974E+03  0.31354585736E+03  0.19200000000E+03 0.  0.
<mgrwt>
<rscale>  0 0.43476585E+03</rscale>
<asrwt>0</asrwt>
<pdfrwt beam="1">  1        2 0.79172644E-01 0.43476585E+03</pdfrwt>
<pdfrwt beam="2">  1       -2 0.12180907E-01 0.43476585E+03</pdfrwt>
<totfact> 0.29283853E+03</totfact>
</mgrwt>
</event>
<event>
 4    1  0.2892809E-005  0.5184126E+03  0.7818608E-02  0.1009082E+00
         -2   -1    0    0    0  501 -0.00000000000E+00  0.00000000000E+00  0.78841574825E+02  0.78841574866E+02  0.25500000000E-02 0. -1.
          2   -1    0    0  501    0  0.00000000000E+00 -0.00000000000E+00 -0.85218890327E+03  0.85218890328E+03  0.25500000000E-02 0.  1.
    5000001    1    1    2    0    0  0.93145525069E+02  0.11146661852E+03 -0.55914815804E+03  0.60877874349E+03  0.19200000000E+03 0.  0.
   -5000001    1    1    2    0    0 -0.93145525069E+02 -0.11146661852E+03 -0.21419917041E+03  0.32225173466E+03  0.19200000000E+03 0.  0.
<mgrwt>
<rscale>  0 0.51841264E+03</rscale>
<asrwt>0</asrwt>
<pdfrwt beam="1">  1        2 0.12174127E+00 0.51841264E+03</pdfrwt>
<pdfrwt beam="2">  1       -2 0.11263083E-01 0.51841264E+03</pdfrwt>
<totfact> 0.19775522E+03</totfact>
</mgrwt>
</event>
<event>
 4    1  0.2892809E-005  0.6738635E+03  0.7818608E-02  0.9763003E-01
         -2   -1    0    0    0  501 -0.00000000000E+00  0.00000000000E+00  0.43046372503E+03  0.43046372504E+03  0.25500000000E-02 0. -1.
          2   -1    0    0  501    0  0.00000000000E+00 -0.00000000000E+00 -0.26372257413E+03  0.26372257414E+03  0.25500000000E-02 0.  1.
    5000001    1    1    2    0    0 -0.26821727926E+03  0.68376653304E+02  0.76605481215E+02  0.34546819732E+03  0.19200000000E+03 0.  0.
   -5000001    1    1    2    0    0  0.26821727926E+03 -0.68376653304E+02  0.90135669689E+02  0.34871810185E+03  0.19200000000E+03 0.  0.
<mgrwt>
<rscale>  0 0.67386349E+03</rscale>
<asrwt>0</asrwt>
<pdfrwt beam="1">  1        2 0.37674654E-01 0.67386349E+03</pdfrwt>
<pdfrwt beam="2">  1       -2 0.61494818E-01 0.67386349E+03</pdfrwt>
<totfact> 0.34161359E+02</totfact>
</mgrwt>
</event>
<event>
 4    1  0.2892809E-005  0.8838990E+03  0.7818608E-02  0.9445935E-01
         -2   -1    0    0    0  501 -0.00000000000E+00  0.00000000000E+00  0.18448484115E+03  0.18448484117E+03  0.25500000000E-02 0. -1.
          2   -1    0    0  501    0  0.00000000000E+00 -0.00000000000E+00 -0.10587284198E+04  0.10587284199E+04  0.25500000000E-02 0.  1.
    5000001    1    1    2    0    0  0.31382423858E+03  0.57423920948E+02 -0.77195458413E+03  0.85706536471E+03  0.19200000000E+03 0.  0.
   -5000001    1    1    2    0    0 -0.31382423858E+03 -0.57423920948E+02 -0.10228899456E+03  0.38614789631E+03  0.19200000000E+03 0.  0.
<mgrwt>
<rscale>  0 0.88389896E+03</rscale>
<asrwt>0</asrwt>
<pdfrwt beam="1">  1        2 0.15124691E+00 0.88389896E+03</pdfrwt>
<pdfrwt beam="2">  1       -2 0.26354978E-01 0.88389896E+03</pdfrwt>
<totfact> 0.33679829E+02</totfact>
</mgrwt>
</event>
<event>
 4    1  0.2892809E-005  0.9992846E+03  0.7818608E-02  0.9309330E-01
         -2   -1    0    0    0  501 -0.00000000000E+00  0.00000000000E+00  0.94251420916E+02  0.94251420951E+02  0.25500000000E-02 0. -1.
          2   -1    0    0  501    0  0.00000000000E+00 -0.00000000000E+00 -0.26486858341E+04  0.26486858341E+04  0.25500000000E-02 0.  1.
    5000001    1    1    2    0    0 -0.25341562702E+03 -0.28423467193E+03 -0.19917860564E+04  0.20369301715E+04  0.19200000000E+03 0.  0.
   -5000001    1    1    2    0    0  0.25341562702E+03  0.28423467193E+03 -0.56264835676E+03  0.70600708361E+03  0.19200000000E+03 0.  0.
<mgrwt>
<rscale>  0 0.99928455E+03</rscale>
<asrwt>0</asrwt>
<pdfrwt beam="1">  1        2 0.37838364E+00 0.99928455E+03</pdfrwt>
<pdfrwt beam="2">  1       -2 0.13464490E-01 0.99928455E+03</pdfrwt>
<totfact> 0.15644643E+02</totfact>
</mgrwt>
</event>
<event>
 4    1  0.2892809E-005  0.6666181E+03  0.7818608E-02  0.9776087E-01
         -2   -1    0    0    0  501 -0.00000000000E+00  0.00000000000E+00  0.10384609827E+03  0.10384609830E+03  0.25500000000E-02 0. -1.
          2   -1    0    0  501    0  0.00000000000E+00 -0.00000000000E+00 -0.10698034470E+04  0.10698034470E+04  0.25500000000E-02 0.  1.
    5000001    1    1    2    0    0 -0.14927432837E+03 -0.97945834057E+02 -0.12064210504E+03  0.28860826223E+03  0.19200000000E+03 0.  0.
   -5000001    1    1    2    0    0  0.14927432837E+03  0.97945834057E+02 -0.84531524367E+03  0.88504128305E+03  0.19200000000E+03 0.  0.
<mgrwt>
<rscale>  0 0.66661807E+03</rscale>
<asrwt>0</asrwt>
<pdfrwt beam="1">  1        2 0.15282906E+00 0.66661807E+03</pdfrwt>
<pdfrwt beam="2">  1       -2 0.14835158E-01 0.66661807E+03</pdfrwt>
<totfact> 0.91392755E+02</totfact>
</mgrwt>
</event>
<event>
 4    1  0.2892809E-005  0.5957707E+03  0.7818608E-02  0.9914219E-01
         -2   -1    0    0    0  501 -0.00000000000E+00  0.00000000000E+00  0.28703979864E+02  0.28703979978E+02  0.25500000000E-02 0. -1.
          2   -1    0    0  501    0  0.00000000000E+00 -0.00000000000E+00 -0.30914072815E+04  0.30914072815E+04  0.25500000000E-02 0.  1.
    5000001    1    1    2    0    0  0.11883583563E+03 -0.19367277998E+03 -0.14501190039E+04  0.14803176102E+04  0.19200000000E+03 0.  0.
   -5000001    1    1    2    0    0 -0.11883583563E+03  0.19367277998E+03 -0.16125842977E+04  0.16397936513E+04  0.19200000000E+03 0.  0.
<mgrwt>
<rscale>  0 0.59577074E+03</rscale>
<asrwt>0</asrwt>
<pdfrwt beam="1">  1        2 0.44162940E+00 0.59577074E+03</pdfrwt>
<pdfrwt beam="2">  1       -2 0.41005705E-02 0.59577074E+03</pdfrwt>
<totfact> 0.62686052E+02</totfact>
</mgrwt>
</event>
<event>
 4    1  0.2892809E-005  0.4851823E+03  0.7818608E-02  0.1017721E+00
          2   -1    0    0  501    0  0.00000000000E+00  0.00000000000E+00  0.56445198658E+02  0.56445198716E+02  0.25500000000E-02 0.  1.
         -2   -1    0    0    0  501 -0.00000000000E+00 -0.00000000000E+00 -0.10426125029E+04  0.10426125029E+04  0.25500000000E-02 0. -1.
    5000001    1    1    2    0    0  0.11991415929E+03  0.73499942265E+02 -0.38671776320E+03  0.45408840052E+03  0.19200000000E+03 0.  0.
   -5000001    1    1    2    0    0 -0.11991415929E+03 -0.73499942265E+02 -0.59944954107E+03  0.64496930113E+03  0.19200000000E+03 0.  0.
<mgrwt>
<rscale>  0 0.48518232E+03</rscale>
<asrwt>0</asrwt>
<pdfrwt beam="1">  1        2 0.80636004E-02 0.48518232E+03</pdfrwt>
<pdfrwt beam="2">  1       -2 0.14894463E+00 0.48518232E+03</pdfrwt>
<totfact> 0.27211478E+02</totfact>
</mgrwt>
</event>
<event>
 4    1  0.2892809E-005  0.4601350E+03  0.7818608E-02  0.1024742E+00
          2   -1    0    0  501    0  0.00000000000E+00  0.00000000000E+00  0.26230152249E+04  0.26230152249E+04  0.25500000000E-02 0.  1.
         -2   -1    0    0    0  501 -0.00000000000E+00 -0.00000000000E+00 -0.20179471500E+02  0.20179471661E+02  0.25500000000E-02 0. -1.
    5000001    1    1    2    0    0  0.10276358450E+03  0.70990631338E+02  0.14255601155E+04  0.14438440591E+04  0.19200000000E+03 0.  0.
   -5000001    1    1    2    0    0 -0.10276358450E+03 -0.70990631338E+02  0.11772756379E+04  0.11993506375E+04  0.19200000000E+03 0.  0.
<mgrwt>
<rscale>  0 0.46013503E+03</rscale>
<asrwt>0</asrwt>
<pdfrwt beam="1">  1        2 0.37471631E+00 0.46013503E+03</pdfrwt>
<pdfrwt beam="2">  1       -2 0.28827828E-02 0.46013503E+03</pdfrwt>
<totfact> 0.19245779E+03</totfact>
</mgrwt>
</event>
<event>
 4    1  0.2892809E-005  0.1099982E+04  0.7818608E-02  0.9205210E-01
          2   -1    0    0  501    0  0.00000000000E+00  0.00000000000E+00  0.62585584031E+03  0.62585584031E+03  0.25500000000E-02 0.  1.
         -2   -1    0    0    0  501 -0.00000000000E+00 -0.00000000000E+00 -0.48332200074E+03  0.48332200074E+03  0.25500000000E-02 0. -1.
    5000001    1    1    2    0    0  0.42685239036E+03 -0.21032384231E+03  0.27087850153E+03  0.58023981628E+03  0.19200000000E+03 0.  0.
   -5000001    1    1    2    0    0 -0.42685239036E+03  0.21032384231E+03 -0.12834466196E+03  0.52893802478E+03  0.19200000000E+03 0.  0.
<mgrwt>
<rscale>  0 0.10999816E+04</rscale>
<asrwt>0</asrwt>
<pdfrwt beam="1">  1        2 0.89407977E-01 0.10999816E+04</pdfrwt>
<pdfrwt beam="2">  1       -2 0.69046000E-01 0.10999816E+04</pdfrwt>
<totfact> 0.98217909E+01</totfact>
</mgrwt>
</event>
<event>
 4    1  0.2892809E-005  0.6856578E+03  0.7818608E-02  0.9742079E-01
          2   -1    0    0  501    0  0.00000000000E+00  0.00000000000E+00  0.59065728228E+03  0.59065728228E+03  0.25500000000E-02 0.  1.
         -2   -1    0    0    0  501 -0.00000000000E+00 -0.00000000000E+00 -0.19898452338E+03  0.19898452339E+03  0.25500000000E-02 0. -1.
    5000001    1    1    2    0    0  0.27878749829E+03 -0.16049135551E+02  0.13613200652E+03  0.36520674576E+03  0.19200000000E+03 0.  0.
   -5000001    1    1    2    0    0 -0.27878749829E+03  0.16049135551E+02  0.25554075238E+03  0.42443505991E+03  0.19200000000E+03 0.  0.
<mgrwt>
<rscale>  0 0.68565781E+03</rscale>
<asrwt>0</asrwt>
<pdfrwt beam="1">  1        2 0.84379612E-01 0.68565781E+03</pdfrwt>
<pdfrwt beam="2">  1       -2 0.28426360E-01 0.68565781E+03</pdfrwt>
<totfact> 0.62894952E+02</totfact>
</mgrwt>
</event>
<event>
 4    1  0.2892809E-005  0.5623385E+03  0.7818608E-02  0.9986777E-01
          2   -1    0    0  501    0  0.00000000000E+00  0.00000000000E+00  0.11870914847E+04  0.11870914847E+04  0.25500000000E-02 0.  1.
         -2   -1    0    0    0  501 -0.00000000000E+00 -0.00000000000E+00 -0.66596498469E+02  0.66596498518E+02  0.25500000000E-02 0. -1.
    5000001    1    1    2    0    0  0.19101320083E+03 -0.74743551870E+02  0.53587689143E+03  0.60506254570E+03  0.19200000000E+03 0.  0.
   -5000001    1    1    2    0    0 -0.19101320083E+03  0.74743551870E+02  0.58461809482E+03  0.64862543754E+03  0.19200000000E+03 0.  0.
<mgrwt>
<rscale>  0 0.56233846E+03</rscale>
<asrwt>0</asrwt>
<pdfrwt beam="1">  1        2 0.16958450E+00 0.56233846E+03</pdfrwt>
<pdfrwt beam="2">  1       -2 0.95137853E-02 0.56233846E+03</pdfrwt>
<totfact> 0.16301736E+03</totfact>
</mgrwt>
</event>
<event>
 4    1  0.2892809E-005  0.5260531E+03  0.7818608E-02  0.1007194E+00
          2   -1    0    0  501    0  0.00000000000E+00  0.00000000000E+00  0.62190141396E+03  0.62190141396E+03  0.25500000000E-02 0.  1.
         -2   -1    0    0    0  501 -0.00000000000E+00 -0.00000000000E+00 -0.11124427089E+03  0.11124427092E+03  0.25500000000E-02 0. -1.
    5000001    1    1    2    0    0  0.16598154007E+03 -0.65112389117E+02  0.28739740910E+03  0.38890971397E+03  0.19200000000E+03 0.  0.
   -5000001    1    1    2    0    0 -0.16598154007E+03  0.65112389117E+02  0.22325973397E+03  0.34423597092E+03  0.19200000000E+03 0.  0.
<mgrwt>
<rscale>  0 0.52605311E+03</rscale>
<asrwt>0</asrwt>
<pdfrwt beam="1">  1        2 0.88843060E-01 0.52605311E+03</pdfrwt>
<pdfrwt beam="2">  1       -2 0.15892039E-01 0.52605311E+03</pdfrwt>
<totfact> 0.16482433E+03</totfact>
</mgrwt>
</event>
<event>
 4    1  0.2892809E-005  0.1360900E+04  0.7818608E-02  0.8982618E-01
         -2   -1    0    0    0  501 -0.00000000000E+00  0.00000000000E+00  0.54447977132E+03  0.54447977133E+03  0.25500000000E-02 0. -1.
          2   -1    0    0  501    0  0.00000000000E+00 -0.00000000000E+00 -0.85037483165E+03  0.85037483165E+03  0.25500000000E-02 0.  1.
    5000001    1    1    2    0    0  0.33339760212E+03 -0.47245667766E+03  0.15756107006E+03  0.62933199837E+03  0.19200000000E+03 0.  0.
   -5000001    1    1    2    0    0 -0.33339760212E+03  0.47245667766E+03 -0.46345613038E+03  0.76552260461E+03  0.19200000000E+03 0.  0.
<mgrwt>
<rscale>  0 0.13608995E+04</rscale>
<asrwt>0</asrwt>
<pdfrwt beam="1">  1        2 0.12148212E+00 0.13608995E+04</pdfrwt>
<pdfrwt beam="2">  1       -2 0.77782824E-01 0.13608995E+04</pdfrwt>
<totfact> 0.50506835E+01</totfact>
</mgrwt>
</event>
<event>
 4    1  0.2892809E-005  0.5289402E+03  0.7818608E-02  0.1006489E+00
         -2   -1    0    0    0  501 -0.00000000000E+00  0.00000000000E+00  0.18377600680E+02  0.18377600857E+02  0.25500000000E-02 0. -1.
          2   -1    0    0  501    0  0.00000000000E+00 -0.00000000000E+00 -0.38059607248E+04  0.38059607248E+04  0.25500000000E-02 0.  1.
    5000001    1    1    2    0    0 -0.26173347321E+02  0.17454935306E+03 -0.15763288825E+04  0.15977575744E+04  0.19200000000E+03 0.  0.
   -5000001    1    1    2    0    0  0.26173347321E+02 -0.17454935306E+03 -0.22112542416E+04  0.22265807512E+04  0.19200000000E+03 0.  0.
<mgrwt>
<rscale>  0 0.52894017E+03</rscale>
<asrwt>0</asrwt>
<pdfrwt beam="1">  1        2 0.54370817E+00 0.52894017E+03</pdfrwt>
<pdfrwt beam="2">  1       -2 0.26253740E-02 0.52894017E+03</pdfrwt>
<totfact> 0.47316207E+02</totfact>
</mgrwt>
</event>
<event>
 4    1  0.2892809E-005  0.6026486E+03  0.7818608E-02  0.9899926E-01
         -2   -1    0    0    0  501 -0.00000000000E+00  0.00000000000E+00  0.37791969896E+02  0.37791969982E+02  0.25500000000E-02 0. -1.
          2   -1    0    0  501    0  0.00000000000E+00 -0.00000000000E+00 -0.24025300222E+04  0.24025300222E+04  0.25500000000E-02 0.  1.
    5000001    1    1    2    0    0  0.16301907292E+03  0.11898238688E+03 -0.16476069647E+04  0.16709891492E+04  0.19200000000E+03 0.  0.
   -5000001    1    1    2    0    0 -0.16301907292E+03 -0.11898238688E+03 -0.71713108759E+03  0.76933284300E+03  0.19200000000E+03 0.  0.
<mgrwt>
<rscale>  0 0.60264863E+03</rscale>
<asrwt>0</asrwt>
<pdfrwt beam="1">  1        2 0.34321848E+00 0.60264863E+03</pdfrwt>
<pdfrwt beam="2">  1       -2 0.53988543E-02 0.60264863E+03</pdfrwt>
<totfact> 0.94520193E+02</totfact>
</mgrwt>
</event>
<event>
 4    1  0.2892809E-005  0.5346193E+03  0.7818608E-02  0.1005118E+00
          2   -1    0    0  501    0  0.00000000000E+00  0.00000000000E+00  0.60454180592E+03  0.60454180593E+03  0.25500000000E-02 0. -1.
         -2   -1    0    0    0  501 -0.00000000000E+00 -0.00000000000E+00 -0.11819604165E+03  0.11819604167E+03  0.25500000000E-02 0.  1.
    5000001    1    1    2    0    0  0.24698946381E+02 -0.18432932928E+03  0.24078924975E+03  0.35976492656E+03  0.19200000000E+03 0.  0.
   -5000001    1    1    2    0    0 -0.24698946381E+02  0.18432932928E+03  0.24555651452E+03  0.36297292104E+03  0.19200000000E+03 0.  0.
<mgrwt>
<rscale>  0 0.53461930E+03</rscale>
<asrwt>0</asrwt>
<pdfrwt beam="1">  1        2 0.86363117E-01 0.53461930E+03</pdfrwt>
<pdfrwt beam="2">  1       -2 0.16885148E-01 0.53461930E+03</pdfrwt>
<totfact> 0.15376934E+03</totfact>
</mgrwt>
</event>
<event>
 4    1  0.2892809E-005  0.1226338E+04  0.7818608E-02  0.9090110E-01
         -2   -1    0    0    0  501 -0.00000000000E+00  0.00000000000E+00  0.37980816638E+03  0.37980816639E+03  0.25500000000E-02 0. -1.
          2   -1    0    0  501    0  0.00000000000E+00 -0.00000000000E+00 -0.98991096563E+03  0.98991096563E+03  0.25500000000E-02 0.  1.
    5000001    1    1    2    0    0  0.48247848599E+03  0.46616067335E+02 -0.66551275038E+03  0.84541691969E+03  0.19200000000E+03 0.  0.
   -5000001    1    1    2    0    0 -0.48247848599E+03 -0.46616067335E+02  0.55409951139E+02  0.52430221233E+03  0.19200000000E+03 0.  0.
<mgrwt>
<rscale>  0 0.12263381E+04</rscale>
<asrwt>0</asrwt>
<pdfrwt beam="1">  1        2 0.14141585E+00 0.12263381E+04</pdfrwt>
<pdfrwt beam="2">  1       -2 0.54258310E-01 0.12263381E+04</pdfrwt>
<totfact> 0.89797354E+01</totfact>
</mgrwt>
</event>
<event>
 4    1  0.2892809E-005  0.6636586E+03  0.7818608E-02  0.9781482E-01
          2   -1    0    0  501    0  0.00000000000E+00  0.00000000000E+00  0.18243429430E+03  0.18243429432E+03  0.25500000000E-02 0.  1.
         -2   -1    0    0    0  501 -0.00000000000E+00 -0.00000000000E+00 -0.60356355946E+03  0.60356355946E+03  0.25500000000E-02 0. -1.
    5000001    1    1    2    0    0  0.20949807888E+03 -0.13027047450E+03 -0.78751990334E+02  0.32237511933E+03  0.19200000000E+03 0.  0.
   -5000001    1    1    2    0    0 -0.20949807888E+03  0.13027047450E+03 -0.34237727483E+03  0.46362273445E+03  0.19200000000E+03 0.  0.
<mgrwt>
<rscale>  0 0.66365862E+03</rscale>
<asrwt>0</asrwt>
<pdfrwt beam="1">  1        2 0.26062042E-01 0.66365862E+03</pdfrwt>
<pdfrwt beam="2">  1       -2 0.86223365E-01 0.66365862E+03</pdfrwt>
<totfact> 0.24613790E+02</totfact>
</mgrwt>
</event>
<event>
 4    1  0.2892809E-005  0.6707095E+03  0.7818608E-02  0.9768677E-01
         -2   -1    0    0    0  501 -0.00000000000E+00  0.00000000000E+00  0.86109169025E+02  0.86109169062E+02  0.25500000000E-02 0. -1.
          2   -1    0    0  501    0  0.00000000000E+00 -0.00000000000E+00 -0.13060493096E+04  0.13060493096E+04  0.25500000000E-02 0.  1.
    5000001    1    1    2    0    0  0.31686240308E+02 -0.27263427280E+03 -0.57615822596E+03  0.66645012257E+03  0.19200000000E+03 0.  0.
   -5000001    1    1    2    0    0 -0.31686240308E+02  0.27263427280E+03 -0.64378191465E+03  0.72570835613E+03  0.19200000000E+03 0.  0.
<mgrwt>
<rscale>  0 0.67070954E+03</rscale>
<asrwt>0</asrwt>
<pdfrwt beam="1">  1        2 0.18657846E+00 0.67070954E+03</pdfrwt>
<pdfrwt beam="2">  1       -2 0.12301311E-01 0.67070954E+03</pdfrwt>
<totfact> 0.91810902E+02</totfact>
</mgrwt>
</event>
<event>
 4    1  0.2892809E-005  0.5934467E+03  0.7818608E-02  0.9919096E-01
          2   -1    0    0  501    0  0.00000000000E+00  0.00000000000E+00  0.26163792767E+03  0.26163792768E+03  0.25500000000E-02 0.  1.
         -2   -1    0    0    0  501 -0.00000000000E+00 -0.00000000000E+00 -0.33651371931E+03  0.33651371932E+03  0.25500000000E-02 0. -1.
    5000001    1    1    2    0    0 -0.47281540970E+02  0.19428687739E+03 -0.14409658910E+03  0.31242721045E+03  0.19200000000E+03 0.  0.
   -5000001    1    1    2    0    0  0.47281540970E+02 -0.19428687739E+03  0.69220797458E+02  0.28572443655E+03  0.19200000000E+03 0.  0.
<mgrwt>
<rscale>  0 0.59344672E+03</rscale>
<asrwt>0</asrwt>
<pdfrwt beam="1">  1        2 0.37376847E-01 0.59344672E+03</pdfrwt>
<pdfrwt beam="2">  1       -2 0.48073388E-01 0.59344672E+03</pdfrwt>
<totfact> 0.57369136E+02</totfact>
</mgrwt>
</event>
<event>
 4    1  0.2892809E-005  0.5728984E+03  0.7818608E-02  0.9963285E-01
         -2   -1    0    0    0  501 -0.00000000000E+00  0.00000000000E+00  0.25009452108E+02  0.25009452238E+02  0.25500000000E-02 0. -1.
          2   -1    0    0  501    0  0.00000000000E+00 -0.00000000000E+00 -0.32808857993E+04  0.32808857993E+04  0.25500000000E-02 0.  1.
    5000001    1    1    2    0    0  0.76688423168E+02  0.19760378044E+03 -0.15347511567E+04  0.15611705484E+04  0.19200000000E+03 0.  0.
   -5000001    1    1    2    0    0 -0.76688423168E+02 -0.19760378044E+03 -0.17211251905E+04  0.17447247031E+04  0.19200000000E+03 0.  0.
<mgrwt>
<rscale>  0 0.57289844E+03</rscale>
<asrwt>0</asrwt>
<pdfrwt beam="1">  1        2 0.46869770E+00 0.57289844E+03</pdfrwt>
<pdfrwt beam="2">  1       -2 0.35727810E-02 0.57289844E+03</pdfrwt>
<totfact> 0.60791173E+02</totfact>
</mgrwt>
</event>
<event>
 4    1  0.2892809E-005  0.7947187E+03  0.7818608E-02  0.9567693E-01
          2   -1    0    0  501    0  0.00000000000E+00  0.00000000000E+00  0.76234306210E+03  0.76234306211E+03  0.25500000000E-02 0.  1.
         -2   -1    0    0    0  501 -0.00000000000E+00 -0.00000000000E+00 -0.20711730653E+03  0.20711730655E+03  0.25500000000E-02 0. -1.
    5000001    1    1    2    0    0 -0.97470079869E+02 -0.22313535494E+03  0.58072422989E+03  0.65832699647E+03  0.19200000000E+03 0.  0.
   -5000001    1    1    2    0    0  0.97470079869E+02  0.22313535494E+03 -0.25498474323E+02  0.31113337218E+03  0.19200000000E+03 0.  0.
<mgrwt>
<rscale>  0 0.79471867E+03</rscale>
<asrwt>0</asrwt>
<pdfrwt beam="1">  1        2 0.10890615E+00 0.79471867E+03</pdfrwt>
<pdfrwt beam="2">  1       -2 0.29588186E-01 0.79471867E+03</pdfrwt>
<totfact> 0.42659329E+02</totfact>
</mgrwt>
</event>
<event>
 4    1  0.2892809E-005  0.1408318E+04  0.7818608E-02  0.8947820E-01
          2   -1    0    0  501    0  0.00000000000E+00  0.00000000000E+00  0.45340076042E+03  0.45340076042E+03  0.25500000000E-02 0.  1.
         -2   -1    0    0    0  501 -0.00000000000E+00 -0.00000000000E+00 -0.10936014280E+04  0.10936014281E+04  0.25500000000E-02 0. -1.
    5000001    1    1    2    0    0 -0.83310759372E+02  0.57566255000E+03  0.61448153840E+02  0.61560371158E+03  0.19200000000E+03 0.  0.
   -5000001    1    1    2    0    0  0.83310759372E+02 -0.57566255000E+03 -0.70164882147E+03  0.93139847690E+03  0.19200000000E+03 0.  0.
<mgrwt>
<rscale>  0 0.14083177E+04</rscale>
<asrwt>0</asrwt>
<pdfrwt beam="1">  1        2 0.64771538E-01 0.14083177E+04</pdfrwt>
<pdfrwt beam="2">  1       -2 0.15622877E+00 0.14083177E+04</pdfrwt>
<totfact> 0.19641326E+01</totfact>
</mgrwt>
</event>
<event>
 4    1  0.2892809E-005  0.4705702E+03  0.7818608E-02  0.1021759E+00
          2   -1    0    0  501    0  0.00000000000E+00  0.00000000000E+00  0.74144934093E+03  0.74144934093E+03  0.25500000000E-02 0.  1.
         -2   -1    0    0    0  501 -0.00000000000E+00 -0.00000000000E+00 -0.74663324246E+02  0.74663324289E+02  0.25500000000E-02 0. -1.
    5000001    1    1    2    0    0 -0.94175936670E+02 -0.62121412632E+02  0.20168967572E+03  0.30045116450E+03  0.19200000000E+03 0.  0.
   -5000001    1    1    2    0    0  0.94175936670E+02  0.62121412632E+02  0.46509634096E+03  0.51566150072E+03  0.19200000000E+03 0.  0.
<mgrwt>
<rscale>  0 0.47057018E+03</rscale>
<asrwt>0</asrwt>
<pdfrwt beam="1">  1        2 0.10592133E+00 0.47057018E+03</pdfrwt>
<pdfrwt beam="2">  1       -2 0.10666189E-01 0.47057018E+03</pdfrwt>
<totfact> 0.25764852E+03</totfact>
</mgrwt>
</event>
<event>
 4    1  0.2892809E-005  0.5643262E+03  0.7818608E-02  0.9982313E-01
         -2   -1    0    0    0  501 -0.00000000000E+00  0.00000000000E+00  0.54406952484E+02  0.54406952544E+02  0.25500000000E-02 0. -1.
          2   -1    0    0  501    0  0.00000000000E+00 -0.00000000000E+00 -0.14633426871E+04  0.14633426871E+04  0.25500000000E-02 0.  1.
    5000001    1    1    2    0    0  0.17540110501E+03  0.10948193580E+03 -0.70334538234E+03  0.75783281056E+03  0.19200000000E+03 0.  0.
   -5000001    1    1    2    0    0 -0.17540110501E+03 -0.10948193580E+03 -0.70559035228E+03  0.75991682909E+03  0.19200000000E+03 0.  0.
<mgrwt>
<rscale>  0 0.56432620E+03</rscale>
<asrwt>0</asrwt>
<pdfrwt beam="1">  1        2 0.20904893E+00 0.56432620E+03</pdfrwt>
<pdfrwt beam="2">  1       -2 0.77724227E-02 0.56432620E+03</pdfrwt>
<totfact> 0.15975796E+03</totfact>
</mgrwt>
</event>
<event>
 4    1  0.2892809E-005  0.9063610E+03  0.7818608E-02  0.9417665E-01
         -2   -1    0    0    0  501 -0.00000000000E+00  0.00000000000E+00  0.17432715507E+03  0.17432715509E+03  0.25500000000E-02 0. -1.
          2   -1    0    0  501    0  0.00000000000E+00 -0.00000000000E+00 -0.11780870415E+04  0.11780870415E+04  0.25500000000E-02 0.  1.
    5000001    1    1    2    0    0 -0.22282675997E+03 -0.30382239045E+03 -0.74500547792E+03  0.85665452314E+03  0.19200000000E+03 0.  0.
   -5000001    1    1    2    0    0  0.22282675997E+03  0.30382239045E+03 -0.25875440852E+03  0.49575967345E+03  0.19200000000E+03 0.  0.
<mgrwt>
<rscale>  0 0.90636099E+03</rscale>
<asrwt>0</asrwt>
<pdfrwt beam="1">  1        2 0.16829814E+00 0.90636099E+03</pdfrwt>
<pdfrwt beam="2">  1       -2 0.24903880E-01 0.90636099E+03</pdfrwt>
<totfact> 0.31743652E+02</totfact>
</mgrwt>
</event>
<event>
 4    1  0.2892809E-005  0.5290731E+03  0.7818608E-02  0.1006457E+00
         -2   -1    0    0    0  501 -0.00000000000E+00  0.00000000000E+00  0.19204714973E+02  0.19204715142E+02  0.25500000000E-02 0. -1.
          2   -1    0    0  501    0  0.00000000000E+00 -0.00000000000E+00 -0.36438751898E+04  0.36438751898E+04  0.25500000000E-02 0.  1.
    5000001    1    1    2    0    0 -0.15879310126E+03  0.85777463549E+02 -0.16510644934E+04  0.16719602219E+04  0.19200000000E+03 0.  0.
   -5000001    1    1    2    0    0  0.15879310126E+03 -0.85777463549E+02 -0.19736059815E+04  0.19911196831E+04  0.19200000000E+03 0.  0.
<mgrwt>
<rscale>  0 0.52907309E+03</rscale>
<asrwt>0</asrwt>
<pdfrwt beam="1">  1        2 0.52055316E+00 0.52907309E+03</pdfrwt>
<pdfrwt beam="2">  1       -2 0.27435330E-02 0.52907309E+03</pdfrwt>
<totfact> 0.55823745E+02</totfact>
</mgrwt>
</event>
<event>
 4    1  0.2892809E-005  0.4231632E+03  0.7818608E-02  0.1036042E+00
         -2   -1    0    0    0  501 -0.00000000000E+00  0.00000000000E+00  0.27092343551E+02  0.27092343671E+02  0.25500000000E-02 0. -1.
          2   -1    0    0  501    0  0.00000000000E+00 -0.00000000000E+00 -0.16523774674E+04  0.16523774674E+04  0.25500000000E-02 0.  1.
    5000001    1    1    2    0    0 -0.56054846152E+02  0.63287376254E+02 -0.70356494776E+03  0.73417645936E+03  0.19200000000E+03 0.  0.
   -5000001    1    1    2    0    0  0.56054846152E+02 -0.63287376254E+02 -0.92172017605E+03  0.94529335167E+03  0.19200000000E+03 0.  0.
<mgrwt>
<rscale>  0 0.42316322E+03</rscale>
<asrwt>0</asrwt>
<pdfrwt beam="1">  1        2 0.23605386E+00 0.42316322E+03</pdfrwt>
<pdfrwt beam="2">  1       -2 0.38703358E-02 0.42316322E+03</pdfrwt>
<totfact> 0.37823548E+03</totfact>
</mgrwt>
</event>
<event>
 4    1  0.2892809E-005  0.4891847E+03  0.7818608E-02  0.1016641E+00
          2   -1    0    0  501    0  0.00000000000E+00  0.00000000000E+00  0.14332565637E+04  0.14332565637E+04  0.25500000000E-02 0.  1.
         -2   -1    0    0    0  501 -0.00000000000E+00 -0.00000000000E+00 -0.41740906035E+02  0.41740906113E+02  0.25500000000E-02 0. -1.
    5000001    1    1    2    0    0 -0.98695110652E+02 -0.44414972601E+02  0.37597416221E+03  0.43581416373E+03  0.19200000000E+03 0.  0.
   -5000001    1    1    2    0    0  0.98695110652E+02  0.44414972601E+02  0.10155414955E+04  0.10391833061E+04  0.19200000000E+03 0.  0.
<mgrwt>
<rscale>  0 0.48918474E+03</rscale>
<asrwt>0</asrwt>
<pdfrwt beam="1">  1        2 0.20475094E+00 0.48918474E+03</pdfrwt>
<pdfrwt beam="2">  1       -2 0.59629865E-02 0.48918474E+03</pdfrwt>
<totfact> 0.25177377E+03</totfact>
</mgrwt>
</event>
<event>
 4    1  0.2892809E-005  0.7530033E+03  0.7818608E-02  0.9630650E-01
          2   -1    0    0  501    0  0.00000000000E+00  0.00000000000E+00  0.12680018231E+04  0.12680018231E+04  0.25500000000E-02 0.  1.
         -2   -1    0    0    0  501 -0.00000000000E+00 -0.00000000000E+00 -0.11179280041E+03  0.11179280044E+03  0.25500000000E-02 0. -1.
    5000001    1    1    2    0    0 -0.32123772598E+03 -0.10340696311E+01  0.65353861047E+03  0.75310786828E+03  0.19200000000E+03 0.  0.
   -5000001    1    1    2    0    0  0.32123772598E+03  0.10340696311E+01  0.50267041223E+03  0.62668675526E+03  0.19200000000E+03 0.  0.
<mgrwt>
<rscale>  0 0.75300325E+03</rscale>
<asrwt>0</asrwt>
<pdfrwt beam="1">  1        2 0.18114312E+00 0.75300325E+03</pdfrwt>
<pdfrwt beam="2">  1       -2 0.15970400E-01 0.75300325E+03</pdfrwt>
<totfact> 0.61970938E+02</totfact>
</mgrwt>
</event>
<event>
 4    1  0.2892809E-005  0.4497789E+03  0.7818608E-02  0.1027788E+00
          2   -1    0    0  501    0  0.00000000000E+00  0.00000000000E+00  0.18872756567E+04  0.18872756567E+04  0.25500000000E-02 0.  1.
         -2   -1    0    0    0  501 -0.00000000000E+00 -0.00000000000E+00 -0.26798024559E+02  0.26798024680E+02  0.25500000000E-02 0. -1.
    5000001    1    1    2    0    0  0.28857445698E+02  0.82069239431E+02  0.12637842963E+04  0.12812427013E+04  0.19200000000E+03 0.  0.
   -5000001    1    1    2    0    0 -0.28857445698E+02 -0.82069239431E+02  0.59669333592E+03  0.63283098009E+03  0.19200000000E+03 0.  0.
<mgrwt>
<rscale>  0 0.44977888E+03</rscale>
<asrwt>0</asrwt>
<pdfrwt beam="1">  1        2 0.26961089E+00 0.44977888E+03</pdfrwt>
<pdfrwt beam="2">  1       -2 0.38282881E-02 0.44977888E+03</pdfrwt>
<totfact> 0.29326604E+03</totfact>
</mgrwt>
</event>
<event>
 4    1  0.2892809E-005  0.3997591E+03  0.7818608E-02  0.1043863E+00
         -2   -1    0    0    0  501 -0.00000000000E+00  0.00000000000E+00  0.25451027253E+02  0.25451027381E+02  0.25500000000E-02 0. -1.
          2   -1    0    0  501    0  0.00000000000E+00 -0.00000000000E+00 -0.15697536191E+04  0.15697536191E+04  0.25500000000E-02 0.  1.
    5000001    1    1    2    0    0  0.18086435531E+02  0.38739779646E+02 -0.91379429149E+03  0.93472557301E+03  0.19200000000E+03 0.  0.
   -5000001    1    1    2    0    0 -0.18086435531E+02 -0.38739779646E+02 -0.63050830035E+03  0.66047907347E+03  0.19200000000E+03 0.  0.
<mgrwt>
<rscale>  0 0.39975914E+03</rscale>
<asrwt>0</asrwt>
<pdfrwt beam="1">  1        2 0.22425046E+00 0.39975914E+03</pdfrwt>
<pdfrwt beam="2">  1       -2 0.36358620E-02 0.39975914E+03</pdfrwt>
<totfact> 0.45789489E+03</totfact>
</mgrwt>
</event>
<event>
 4    1  0.2892809E-005  0.5476975E+03  0.7818608E-02  0.1002028E+00
          2   -1    0    0  501    0  0.00000000000E+00  0.00000000000E+00  0.56955576059E+03  0.56955576060E+03  0.25500000000E-02 0.  1.
         -2   -1    0    0    0  501 -0.00000000000E+00 -0.00000000000E+00 -0.13166955070E+03  0.13166955073E+03  0.25500000000E-02 0. -1.
    5000001    1    1    2    0    0 -0.19770903854E+02 -0.12481911814E+03  0.40952712267E+03  0.46962449371E+03  0.19200000000E+03 0.  0.
   -5000001    1    1    2    0    0  0.19770903854E+02  0.12481911814E+03  0.28359087220E+02  0.23160081762E+03  0.19200000000E+03 0.  0.
<mgrwt>
<rscale>  0 0.54769755E+03</rscale>
<asrwt>0</asrwt>
<pdfrwt beam="1">  1        2 0.81365108E-01 0.54769755E+03</pdfrwt>
<pdfrwt beam="2">  1       -2 0.18809936E-01 0.54769755E+03</pdfrwt>
<totfact> 0.13701934E+03</totfact>
</mgrwt>
</event>
<event>
 4    1  0.2892809E-005  0.4434916E+03  0.7818608E-02  0.1029681E+00
         -2   -1    0    0    0  501 -0.00000000000E+00  0.00000000000E+00  0.23751870299E+02  0.23751870436E+02  0.25500000000E-02 0. -1.
          2   -1    0    0  501    0  0.00000000000E+00 -0.00000000000E+00 -0.20702031905E+04  0.20702031905E+04  0.25500000000E-02 0.  1.
    5000001    1    1    2    0    0 -0.38326615315E+02 -0.90464085788E+02 -0.77996338255E+03  0.80923393304E+03  0.19200000000E+03 0.  0.
   -5000001    1    1    2    0    0  0.38326615315E+02  0.90464085788E+02 -0.12664879377E+04  0.12847211279E+04  0.19200000000E+03 0.  0.
<mgrwt>
<rscale>  0 0.44349159E+03</rscale>
<asrwt>0</asrwt>
<pdfrwt beam="1">  1        2 0.29574320E+00 0.44349159E+03</pdfrwt>
<pdfrwt beam="2">  1       -2 0.33931257E-02 0.44349159E+03</pdfrwt>
<totfact> 0.28578030E+03</totfact>
</mgrwt>
</event>
<event>
 4    1  0.2892809E-005  0.3957776E+03  0.7818608E-02  0.1045252E+00
         -2   -1    0    0    0  501 -0.00000000000E+00  0.00000000000E+00  0.30161584498E+02  0.30161584606E+02  0.25500000000E-02 0. -1.
          2   -1    0    0  501    0  0.00000000000E+00 -0.00000000000E+00 -0.12983396999E+04  0.12983396999E+04  0.25500000000E-02 0.  1.
    5000001    1    1    2    0    0  0.30446513673E+02 -0.27010867759E+02 -0.71896779499E+03  0.74527529639E+03  0.19200000000E+03 0.  0.
   -5000001    1    1    2    0    0 -0.30446513673E+02  0.27010867759E+02 -0.54921032038E+03  0.58322598809E+03  0.19200000000E+03 0.  0.
<mgrwt>
<rscale>  0 0.39577763E+03</rscale>
<asrwt>0</asrwt>
<pdfrwt beam="1">  1        2 0.18547706E+00 0.39577763E+03</pdfrwt>
<pdfrwt beam="2">  1       -2 0.43087986E-02 0.39577763E+03</pdfrwt>
<totfact> 0.48951599E+03</totfact>
</mgrwt>
</event>
<event>
 4    1  0.2892809E-005  0.9177189E+03  0.7818608E-02  0.9403699E-01
         -2   -1    0    0    0  501 -0.00000000000E+00  0.00000000000E+00  0.26219973356E+03  0.26219973358E+03  0.25500000000E-02 0. -1.
          2   -1    0    0  501    0  0.00000000000E+00 -0.00000000000E+00 -0.80302141221E+03  0.80302141221E+03  0.25500000000E-02 0.  1.
    5000001    1    1    2    0    0 -0.32335647796E+03  0.23682415436E+03 -0.40297231189E+03  0.59991314044E+03  0.19200000000E+03 0.  0.
   -5000001    1    1    2    0    0  0.32335647796E+03 -0.23682415436E+03 -0.13784936675E+03  0.46530800534E+03  0.19200000000E+03 0.  0.
<mgrwt>
<rscale>  0 0.91771891E+03</rscale>
<asrwt>0</asrwt>
<pdfrwt beam="1">  1        2 0.11471734E+00 0.91771891E+03</pdfrwt>
<pdfrwt beam="2">  1       -2 0.37457105E-01 0.91771891E+03</pdfrwt>
<totfact> 0.25430773E+02</totfact>
</mgrwt>
</event>
<event>
 4    1  0.2892809E-005  0.6103357E+03  0.7818608E-02  0.9884192E-01
         -2   -1    0    0    0  501 -0.00000000000E+00  0.00000000000E+00  0.89671430774E+02  0.89671430810E+02  0.25500000000E-02 0. -1.
          2   -1    0    0  501    0  0.00000000000E+00 -0.00000000000E+00 -0.10385405784E+04  0.10385405784E+04  0.25500000000E-02 0.  1.
    5000001    1    1    2    0    0  0.17876448373E+03 -0.14464349079E+03 -0.36688779790E+03  0.47365508159E+03  0.19200000000E+03 0.  0.
   -5000001    1    1    2    0    0 -0.17876448373E+03  0.14464349079E+03 -0.58198134975E+03  0.65455692765E+03  0.19200000000E+03 0.  0.
<mgrwt>
<rscale>  0 0.61033571E+03</rscale>
<asrwt>0</asrwt>
<pdfrwt beam="1">  1        2 0.14836293E+00 0.61033571E+03</pdfrwt>
<pdfrwt beam="2">  1       -2 0.12810205E-01 0.61033571E+03</pdfrwt>
<totfact> 0.12209003E+03</totfact>
</mgrwt>
</event>
<event>
 4    1  0.2892809E-005  0.1074056E+04  0.7818608E-02  0.9230854E-01
          2   -1    0    0  501    0  0.00000000000E+00  0.00000000000E+00  0.63501240460E+03  0.63501240460E+03  0.25500000000E-02 0.  1.
         -2   -1    0    0    0  501 -0.00000000000E+00 -0.00000000000E+00 -0.45416300305E+03  0.45416300306E+03  0.25500000000E-02 0. -1.
    5000001    1    1    2    0    0  0.35739188996E+03  0.24756959770E+03  0.34397528016E+03  0.58668787449E+03  0.19200000000E+03 0.  0.
   -5000001    1    1    2    0    0 -0.35739188996E+03 -0.24756959770E+03 -0.16312587861E+03  0.50248753317E+03  0.19200000000E+03 0.  0.
<mgrwt>
<rscale>  0 0.10740561E+04</rscale>
<asrwt>0</asrwt>
<pdfrwt beam="1">  1        2 0.90716057E-01 0.10740561E+04</pdfrwt>
<pdfrwt beam="2">  1       -2 0.64880429E-01 0.10740561E+04</pdfrwt>
<totfact> 0.11058848E+02</totfact>
</mgrwt>
</event>
<event>
 4    1  0.2892809E-005  0.8368719E+03  0.7818608E-02  0.9508128E-01
          2   -1    0    0  501    0  0.00000000000E+00  0.00000000000E+00  0.10970567316E+04  0.10970567316E+04  0.25500000000E-02 0.  1.
         -2   -1    0    0    0  501 -0.00000000000E+00 -0.00000000000E+00 -0.15959853740E+03  0.15959853742E+03  0.25500000000E-02 0. -1.
    5000001    1    1    2    0    0 -0.35505564047E+03  0.47136882913E+02  0.61842580839E+03  0.74000059057E+03  0.19200000000E+03 0.  0.
   -5000001    1    1    2    0    0  0.35505564047E+03 -0.47136882913E+02  0.31903238581E+03  0.51665467844E+03  0.19200000000E+03 0.  0.
<mgrwt>
<rscale>  0 0.83687191E+03</rscale>
<asrwt>0</asrwt>
<pdfrwt beam="1">  1        2 0.15672240E+00 0.83687191E+03</pdfrwt>
<pdfrwt beam="2">  1       -2 0.22799790E-01 0.83687191E+03</pdfrwt>
<totfact> 0.41579005E+02</totfact>
</mgrwt>
</event>
<event>
 4    1  0.2892809E-005  0.6503013E+03  0.7818608E-02  0.9806214E-01
         -2   -1    0    0    0  501 -0.00000000000E+00  0.00000000000E+00  0.49247720498E+03  0.49247720498E+03  0.25500000000E-02 0. -1.
          2   -1    0    0  501    0  0.00000000000E+00 -0.00000000000E+00 -0.21467581253E+03  0.21467581255E+03  0.25500000000E-02 0.  1.
    5000001    1    1    2    0    0 -0.23354121637E+03  0.69625093716E+02  0.24472099163E+03  0.39514746256E+03  0.19200000000E+03 0.  0.
   -5000001    1    1    2    0    0  0.23354121637E+03 -0.69625093716E+02  0.33080400809E+02  0.31200555497E+03  0.19200000000E+03 0.  0.
<mgrwt>
<rscale>  0 0.65030130E+03</rscale>
<asrwt>0</asrwt>
<pdfrwt beam="1">  1        2 0.30667973E-01 0.65030130E+03</pdfrwt>
<pdfrwt beam="2">  1       -2 0.70353886E-01 0.65030130E+03</pdfrwt>
<totfact> 0.32221328E+02</totfact>
</mgrwt>
</event>
<event>
 4    1  0.2892809E-005  0.4336424E+03  0.7818608E-02  0.1032716E+00
         -2   -1    0    0    0  501 -0.00000000000E+00  0.00000000000E+00  0.29601549624E+02  0.29601549734E+02  0.25500000000E-02 0. -1.
          2   -1    0    0  501    0  0.00000000000E+00 -0.00000000000E+00 -0.15881406914E+04  0.15881406914E+04  0.25500000000E-02 0.  1.
    5000001    1    1    2    0    0 -0.17995708033E+02 -0.93141896611E+02 -0.65285993484E+03  0.68708758752E+03  0.19200000000E+03 0.  0.
   -5000001    1    1    2    0    0  0.17995708033E+02  0.93141896611E+02 -0.90567920694E+03  0.93065465362E+03  0.19200000000E+03 0.  0.
<mgrwt>
<rscale>  0 0.43364237E+03</rscale>
<asrwt>0</asrwt>
<pdfrwt beam="1">  1        2 0.22687719E+00 0.43364237E+03</pdfrwt>
<pdfrwt beam="2">  1       -2 0.42287938E-02 0.43364237E+03</pdfrwt>
<totfact> 0.35613916E+03</totfact>
</mgrwt>
</event>
<event>
 4    1  0.2892809E-005  0.6105283E+03  0.7818608E-02  0.9883801E-01
          2   -1    0    0  501    0  0.00000000000E+00  0.00000000000E+00  0.21817549656E+03  0.21817549657E+03  0.25500000000E-02 0.  1.
         -2   -1    0    0    0  501 -0.00000000000E+00 -0.00000000000E+00 -0.42711573866E+03  0.42711573866E+03  0.25500000000E-02 0. -1.
    5000001    1    1    2    0    0 -0.21939677678E+03 -0.19971216584E+02 -0.11193258082E+02  0.29244330079E+03  0.19200000000E+03 0.  0.
   -5000001    1    1    2    0    0  0.21939677678E+03  0.19971216584E+02 -0.19774698402E+03  0.35284793444E+03  0.19200000000E+03 0.  0.
<mgrwt>
<rscale>  0 0.61052826E+03</rscale>
<asrwt>0</asrwt>
<pdfrwt beam="1">  1        2 0.31167928E-01 0.61052826E+03</pdfrwt>
<pdfrwt beam="2">  1       -2 0.61016534E-01 0.61052826E+03</pdfrwt>
<totfact> 0.42977085E+02</totfact>
</mgrwt>
</event>
<event>
 4    1  0.2892809E-005  0.5520965E+03  0.7818608E-02  0.1001010E+00
          2   -1    0    0  501    0  0.00000000000E+00  0.00000000000E+00  0.89270283129E+03  0.89270283130E+03  0.25500000000E-02 0.  1.
         -2   -1    0    0    0  501 -0.00000000000E+00 -0.00000000000E+00 -0.85361705126E+02  0.85361705164E+02  0.25500000000E-02 0. -1.
    5000001    1    1    2    0    0 -0.19275830677E+03  0.43647898368E+02  0.37414722315E+03  0.46466229507E+03  0.19200000000E+03 0.  0.
   -5000001    1    1    2    0    0  0.19275830677E+03 -0.43647898368E+02  0.43319390301E+03  0.51340224140E+03  0.19200000000E+03 0.  0.
<mgrwt>
<rscale>  0 0.55209650E+03</rscale>
<asrwt>0</asrwt>
<pdfrwt beam="1">  1        2 0.12752898E+00 0.55209650E+03</pdfrwt>
<pdfrwt beam="2">  1       -2 0.12194529E-01 0.55209650E+03</pdfrwt>
<totfact> 0.16329141E+03</totfact>
</mgrwt>
</event>
<event>
 4    1  0.2892809E-005  0.5755452E+03  0.7818608E-02  0.9957482E-01
          2   -1    0    0  501    0  0.00000000000E+00  0.00000000000E+00  0.11696901124E+04  0.11696901124E+04  0.25500000000E-02 0.  1.
         -2   -1    0    0    0  501 -0.00000000000E+00 -0.00000000000E+00 -0.70799161699E+02  0.70799161745E+02  0.25500000000E-02 0. -1.
    5000001    1    1    2    0    0  0.16620489312E+03  0.88581847543E+02  0.77007230644E+03  0.81568754273E+03  0.19200000000E+03 0.  0.
   -5000001    1    1    2    0    0 -0.16620489312E+03 -0.88581847543E+02  0.32881864429E+03  0.42480173145E+03  0.19200000000E+03 0.  0.
<mgrwt>
<rscale>  0 0.57554524E+03</rscale>
<asrwt>0</asrwt>
<pdfrwt beam="1">  1        2 0.16709859E+00 0.57554524E+03</pdfrwt>
<pdfrwt beam="2">  1       -2 0.10114166E-01 0.57554524E+03</pdfrwt>
<totfact> 0.15099316E+03</totfact>
</mgrwt>
</event>
<event>
 4    1  0.2892809E-005  0.5499866E+03  0.7818608E-02  0.1001497E+00
         -2   -1    0    0    0  501 -0.00000000000E+00  0.00000000000E+00  0.23010533415E+02  0.23010533556E+02  0.25500000000E-02 0. -1.
          2   -1    0    0  501    0  0.00000000000E+00 -0.00000000000E+00 -0.32863778538E+04  0.32863778538E+04  0.25500000000E-02 0.  1.
    5000001    1    1    2    0    0 -0.16204771731E+03  0.72808055218E+02 -0.11212182303E+04  0.11513274059E+04  0.19200000000E+03 0.  0.
   -5000001    1    1    2    0    0  0.16204771731E+03 -0.72808055218E+02 -0.21421490901E+04  0.21580609815E+04  0.19200000000E+03 0.  0.
<mgrwt>
<rscale>  0 0.54998657E+03</rscale>
<asrwt>0</asrwt>
<pdfrwt beam="1">  1        2 0.46948225E+00 0.54998657E+03</pdfrwt>
<pdfrwt beam="2">  1       -2 0.32872212E-02 0.54998657E+03</pdfrwt>
<totfact> 0.68703172E+02</totfact>
</mgrwt>
</event>
<event>
 4    1  0.2892809E-005  0.6719508E+03  0.7818608E-02  0.9766440E-01
          2   -1    0    0  501    0  0.00000000000E+00  0.00000000000E+00  0.90004670605E+03  0.90004670605E+03  0.25500000000E-02 0.  1.
         -2   -1    0    0    0  501 -0.00000000000E+00 -0.00000000000E+00 -0.12541511432E+03  0.12541511435E+03  0.25500000000E-02 0. -1.
    5000001    1    1    2    0    0 -0.12833784999E+03  0.15762730282E+03  0.67158991756E+03  0.72747095317E+03  0.19200000000E+03 0.  0.
   -5000001    1    1    2    0    0  0.12833784999E+03 -0.15762730282E+03  0.10304167417E+03  0.29799086723E+03  0.19200000000E+03 0.  0.
<mgrwt>
<rscale>  0 0.67195077E+03</rscale>
<asrwt>0</asrwt>
<pdfrwt beam="1">  1        2 0.12857811E+00 0.67195077E+03</pdfrwt>
<pdfrwt beam="2">  1       -2 0.17916444E-01 0.67195077E+03</pdfrwt>
<totfact> 0.84362852E+02</totfact>
</mgrwt>
</event>
<event>
 4    1  0.2892809E-005  0.5259061E+03  0.7818608E-02  0.1007230E+00
          2   -1    0    0  501    0  0.00000000000E+00  0.00000000000E+00  0.20976643009E+04  0.20976643009E+04  0.25500000000E-02 0.  1.
         -2   -1    0    0    0  501 -0.00000000000E+00 -0.00000000000E+00 -0.32962524523E+02  0.32962524621E+02  0.25500000000E-02 0. -1.
    5000001    1    1    2    0    0  0.16617170953E+03  0.64762646815E+02  0.11204686631E+04  0.11507046808E+04  0.19200000000E+03 0.  0.
   -5000001    1    1    2    0    0 -0.16617170953E+03 -0.64762646815E+02  0.94423311325E+03  0.97992214468E+03  0.19200000000E+03 0.  0.
<mgrwt>
<rscale>  0 0.52590612E+03</rscale>
<asrwt>0</asrwt>
<pdfrwt beam="1">  1        2 0.29966643E+00 0.52590612E+03</pdfrwt>
<pdfrwt beam="2">  1       -2 0.47089305E-02 0.52590612E+03</pdfrwt>
<totfact> 0.16721351E+03</totfact>
</mgrwt>
</event>
<event>
 4    1  0.2892809E-005  0.4249536E+03  0.7818608E-02  0.1035466E+00
         -2   -1    0    0    0  501 -0.00000000000E+00  0.00000000000E+00  0.28301305945E+02  0.28301306060E+02  0.25500000000E-02 0. -1.
          2   -1    0    0  501    0  0.00000000000E+00 -0.00000000000E+00 -0.15952052981E+04  0.15952052981E+04  0.25500000000E-02 0.  1.
    5000001    1    1    2    0    0 -0.68213506956E+02  0.21385552449E+02 -0.56828433759E+03  0.60408733866E+03  0.19200000000E+03 0.  0.
   -5000001    1    1    2    0    0  0.68213506956E+02 -0.21385552449E+02 -0.99861965461E+03  0.10194192655E+04  0.19200000000E+03 0.  0.
<mgrwt>
<rscale>  0 0.42495361E+03</rscale>
<asrwt>0</asrwt>
<pdfrwt beam="1">  1        2 0.22788641E+00 0.42495361E+03</pdfrwt>
<pdfrwt beam="2">  1       -2 0.40430447E-02 0.42495361E+03</pdfrwt>
<totfact> 0.37827920E+03</totfact>
</mgrwt>
</event>
<event>
 4    1  0.2892809E-005  0.1046882E+04  0.7818608E-02  0.9258569E-01
          2   -1    0    0  501    0  0.00000000000E+00  0.00000000000E+00  0.88938245698E+03  0.88938245698E+03  0.25500000000E-02 0.  1.
         -2   -1    0    0    0  501 -0.00000000000E+00 -0.00000000000E+00 -0.30806808924E+03  0.30806808925E+03  0.25500000000E-02 0. -1.
    5000001    1    1    2    0    0  0.38690194312E+03  0.22809823535E+03  0.75434128993E+02  0.49424308430E+03  0.19200000000E+03 0.  0.
   -5000001    1    1    2    0    0 -0.38690194312E+03 -0.22809823535E+03  0.50588023875E+03  0.70320746193E+03  0.19200000000E+03 0.  0.
<mgrwt>
<rscale>  0 0.10468818E+04</rscale>
<asrwt>0</asrwt>
<pdfrwt beam="1">  1        2 0.12705463E+00 0.10468818E+04</pdfrwt>
<pdfrwt beam="2">  1       -2 0.44009728E-01 0.10468818E+04</pdfrwt>
<totfact> 0.16098180E+02</totfact>
</mgrwt>
</event>
<event>
 4    1  0.2892809E-005  0.6246321E+03  0.7818608E-02  0.9855580E-01
         -2   -1    0    0    0  501 -0.00000000000E+00  0.00000000000E+00  0.67247762032E+02  0.67247762081E+02  0.25500000000E-02 0. -1.
          2   -1    0    0  501    0  0.00000000000E+00 -0.00000000000E+00 -0.14504766857E+04  0.14504766857E+04  0.25500000000E-02 0.  1.
    5000001    1    1    2    0    0 -0.20589881138E+03 -0.76845085777E+02 -0.96194230487E+03  0.10052345426E+04  0.19200000000E+03 0.  0.
   -5000001    1    1    2    0    0  0.20589881138E+03  0.76845085777E+02 -0.42128661879E+03  0.51248990517E+03  0.19200000000E+03 0.  0.
<mgrwt>
<rscale>  0 0.62463209E+03</rscale>
<asrwt>0</asrwt>
<pdfrwt beam="1">  1        2 0.20721094E+00 0.62463209E+03</pdfrwt>
<pdfrwt beam="2">  1       -2 0.96068240E-02 0.62463209E+03</pdfrwt>
<totfact> 0.11530970E+03</totfact>
</mgrwt>
</event>
<event>
 4    1  0.2892809E-005  0.5595601E+03  0.7818608E-02  0.9993051E-01
         -2   -1    0    0    0  501 -0.00000000000E+00  0.00000000000E+00  0.37137136646E+03  0.37137136647E+03  0.25500000000E-02 0. -1.
          2   -1    0    0  501    0  0.00000000000E+00 -0.00000000000E+00 -0.21077786915E+03  0.21077786917E+03  0.25500000000E-02 0.  1.
    5000001    1    1    2    0    0  0.88939766488E+02  0.17166725759E+03  0.14227665066E+02  0.27284859509E+03  0.19200000000E+03 0.  0.
   -5000001    1    1    2    0    0 -0.88939766488E+02 -0.17166725759E+03  0.14636583224E+03  0.30930064054E+03  0.19200000000E+03 0.  0.
<mgrwt>
<rscale>  0 0.55956006E+03</rscale>
<asrwt>0</asrwt>
<pdfrwt beam="1">  1        2 0.30111125E-01 0.55956006E+03</pdfrwt>
<pdfrwt beam="2">  1       -2 0.53053051E-01 0.55956006E+03</pdfrwt>
<totfact> 0.59791973E+02</totfact>
</mgrwt>
</event>
<event>
 4    1  0.2892809E-005  0.9392753E+03  0.7818608E-02  0.9377775E-01
          2   -1    0    0  501    0  0.00000000000E+00  0.00000000000E+00  0.52250614366E+03  0.52250614366E+03  0.25500000000E-02 0.  1.
         -2   -1    0    0    0  501 -0.00000000000E+00 -0.00000000000E+00 -0.42211850235E+03  0.42211850236E+03  0.25500000000E-02 0. -1.
    5000001    1    1    2    0    0  0.14057266045E+03  0.40488866540E+03  0.50112103972E+02  0.47230363877E+03  0.19200000000E+03 0.  0.
   -5000001    1    1    2    0    0 -0.14057266045E+03 -0.40488866540E+03  0.50275537336E+02  0.47232100725E+03  0.19200000000E+03 0.  0.
<mgrwt>
<rscale>  0 0.93927528E+03</rscale>
<asrwt>0</asrwt>
<pdfrwt beam="1">  1        2 0.74643735E-01 0.93927528E+03</pdfrwt>
<pdfrwt beam="2">  1       -2 0.60302643E-01 0.93927528E+03</pdfrwt>
<totfact> 0.16383709E+02</totfact>
</mgrwt>
</event>
<event>
 4    1  0.2892809E-005  0.6601903E+03  0.7818608E-02  0.9787843E-01
          2   -1    0    0  501    0  0.00000000000E+00  0.00000000000E+00  0.98950766132E+03  0.98950766132E+03  0.25500000000E-02 0.  1.
         -2   -1    0    0    0  501 -0.00000000000E+00 -0.00000000000E+00 -0.11011820729E+03  0.11011820732E+03  0.25500000000E-02 0. -1.
    5000001    1    1    2    0    0  0.22885297112E+03 -0.11532836512E+03  0.57319904831E+03  0.65657860396E+03  0.19200000000E+03 0.  0.
   -5000001    1    1    2    0    0 -0.22885297112E+03  0.11532836512E+03  0.30619040572E+03  0.44304726468E+03  0.19200000000E+03 0.  0.
<mgrwt>
<rscale>  0 0.66019031E+03</rscale>
<asrwt>0</asrwt>
<pdfrwt beam="1">  1        2 0.14135824E+00 0.66019031E+03</pdfrwt>
<pdfrwt beam="2">  1       -2 0.15731173E-01 0.66019031E+03</pdfrwt>
<totfact> 0.92544079E+02</totfact>
</mgrwt>
</event>
<event>
 4    1  0.2892809E-005  0.6904715E+03  0.7818608E-02  0.9733667E-01
         -2   -1    0    0    0  501 -0.00000000000E+00  0.00000000000E+00  0.12378637146E+03  0.12378637149E+03  0.25500000000E-02 0. -1.
          2   -1    0    0  501    0  0.00000000000E+00 -0.00000000000E+00 -0.96285019022E+03  0.96285019022E+03  0.25500000000E-02 0.  1.
    5000001    1    1    2    0    0  0.19360564493E+03 -0.15760582021E+03 -0.64210071669E+03  0.71517834887E+03  0.19200000000E+03 0.  0.
   -5000001    1    1    2    0    0 -0.19360564493E+03  0.15760582021E+03 -0.19696310207E+03  0.37145821284E+03  0.19200000000E+03 0.  0.
<mgrwt>
<rscale>  0 0.69047152E+03</rscale>
<asrwt>0</asrwt>
<pdfrwt beam="1">  1        2 0.13755002E+00 0.69047152E+03</pdfrwt>
<pdfrwt beam="2">  1       -2 0.17683768E-01 0.69047152E+03</pdfrwt>
<totfact> 0.78657591E+02</totfact>
</mgrwt>
</event>
<event>
 4    1  0.2892809E-005  0.4593728E+03  0.7818608E-02  0.1024963E+00
          2   -1    0    0  501    0  0.00000000000E+00  0.00000000000E+00  0.16527883575E+03  0.16527883576E+03  0.25500000000E-02 0.  1.
         -2   -1    0    0    0  501 -0.00000000000E+00 -0.00000000000E+00 -0.31919294447E+03  0.31919294448E+03  0.25500000000E-02 0. -1.
    5000001    1    1    2    0    0  0.33917340408E+02  0.11338655866E+03 -0.12274509483E+03  0.25678250713E+03  0.19200000000E+03 0.  0.
   -5000001    1    1    2    0    0 -0.33917340408E+02 -0.11338655866E+03 -0.31169013895E+02  0.22768927311E+03  0.19200000000E+03 0.  0.
<mgrwt>
<rscale>  0 0.45937278E+03</rscale>
<asrwt>0</asrwt>
<pdfrwt beam="1">  1        2 0.23611262E-01 0.45937278E+03</pdfrwt>
<pdfrwt beam="2">  1       -2 0.45598992E-01 0.45937278E+03</pdfrwt>
<totfact> 0.10680430E+03</totfact>
</mgrwt>
</event>
<event>
 4    1  0.2892809E-005  0.5105550E+03  0.7818608E-02  0.1011060E+00
          2   -1    0    0  501    0  0.00000000000E+00  0.00000000000E+00  0.38788821521E+04  0.38788821521E+04  0.25500000000E-02 0.  1.
         -2   -1    0    0    0  501 -0.00000000000E+00 -0.00000000000E+00 -0.16800358427E+02  0.16800358621E+02  0.25500000000E-02 0. -1.
    5000001    1    1    2    0    0  0.23098778460E+01 -0.16099088426E+03  0.15588571321E+04  0.15788676191E+04  0.19200000000E+03 0.  0.
   -5000001    1    1    2    0    0 -0.23098778460E+01  0.16099088426E+03  0.23032246616E+04  0.23168148916E+04  0.19200000000E+03 0.  0.
<mgrwt>
<rscale>  0 0.51055503E+03</rscale>
<asrwt>0</asrwt>
<pdfrwt beam="1">  1        2 0.55412669E+00 0.51055503E+03</pdfrwt>
<pdfrwt beam="2">  1       -2 0.24000483E-02 0.51055503E+03</pdfrwt>
<totfact> 0.48784704E+02</totfact>
</mgrwt>
</event>
<event>
 4    1  0.2892809E-005  0.5202869E+03  0.7818608E-02  0.1008615E+00
          2   -1    0    0  501    0  0.00000000000E+00  0.00000000000E+00  0.94769298466E+03  0.94769298467E+03  0.25500000000E-02 0.  1.
         -2   -1    0    0    0  501 -0.00000000000E+00 -0.00000000000E+00 -0.71409859990E+02  0.71409860036E+02  0.25500000000E-02 0. -1.
    5000001    1    1    2    0    0  0.64035070842E+02  0.16341829009E+03  0.43394258737E+03  0.50594090264E+03  0.19200000000E+03 0.  0.
   -5000001    1    1    2    0    0 -0.64035070842E+02 -0.16341829009E+03  0.44234053731E+03  0.51316194206E+03  0.19200000000E+03 0.  0.
<mgrwt>
<rscale>  0 0.52028693E+03</rscale>
<asrwt>0</asrwt>
<pdfrwt beam="1">  1        2 0.13538471E+00 0.52028693E+03</pdfrwt>
<pdfrwt beam="2">  1       -2 0.10201409E-01 0.52028693E+03</pdfrwt>
<totfact> 0.20165865E+03</totfact>
</mgrwt>
</event>
<event>
 4    1  0.2892809E-005  0.4750906E+03  0.7818608E-02  0.1020493E+00
         -2   -1    0    0    0  501 -0.00000000000E+00  0.00000000000E+00  0.15344789385E+02  0.15344789597E+02  0.25500000000E-02 0. -1.
          2   -1    0    0  501    0  0.00000000000E+00 -0.00000000000E+00 -0.36773240377E+04  0.36773240377E+04  0.25500000000E-02 0.  1.
    5000001    1    1    2    0    0 -0.95009494064E+02 -0.85599597160E+02 -0.13906436602E+04  0.14096481421E+04  0.19200000000E+03 0.  0.
   -5000001    1    1    2    0    0  0.95009494064E+02  0.85599597160E+02 -0.22713355881E+04  0.22830206851E+04  0.19200000000E+03 0.  0.
<mgrwt>
<rscale>  0 0.47509057E+03</rscale>
<asrwt>0</asrwt>
<pdfrwt beam="1">  1        2 0.52533144E+00 0.47509057E+03</pdfrwt>
<pdfrwt beam="2">  1       -2 0.21921151E-02 0.47509057E+03</pdfrwt>
<totfact> 0.75167895E+02</totfact>
</mgrwt>
</event>
<event>
 4    1  0.2892809E-005  0.4971457E+03  0.7818608E-02  0.1014527E+00
         -2   -1    0    0    0  501 -0.00000000000E+00  0.00000000000E+00  0.24335640746E+02  0.24335640879E+02  0.25500000000E-02 0. -1.
          2   -1    0    0  501    0  0.00000000000E+00 -0.00000000000E+00 -0.25390112696E+04  0.25390112696E+04  0.25500000000E-02 0.  1.
    5000001    1    1    2    0    0 -0.97156637069E+02  0.10897851067E+03 -0.15670807288E+04  0.15855351584E+04  0.19200000000E+03 0.  0.
   -5000001    1    1    2    0    0  0.97156637069E+02 -0.10897851067E+03 -0.94759490001E+03  0.97781175205E+03  0.19200000000E+03 0.  0.
<mgrwt>
<rscale>  0 0.49714572E+03</rscale>
<asrwt>0</asrwt>
<pdfrwt beam="1">  1        2 0.36271573E+00 0.49714572E+03</pdfrwt>
<pdfrwt beam="2">  1       -2 0.34765217E-02 0.49714572E+03</pdfrwt>
<totfact> 0.15963445E+03</totfact>
</mgrwt>
</event>
<event>
 4    1  0.2892809E-005  0.5010515E+03  0.7818608E-02  0.1013505E+00
         -2   -1    0    0    0  501 -0.00000000000E+00  0.00000000000E+00  0.37454111547E+02  0.37454111634E+02  0.25500000000E-02 0. -1.
          2   -1    0    0  501    0  0.00000000000E+00 -0.00000000000E+00 -0.16757348663E+04  0.16757348663E+04  0.25500000000E-02 0.  1.
    5000001    1    1    2    0    0 -0.32109037412E+02  0.75981691483E+02 -0.34666174847E+03  0.40477472200E+03  0.19200000000E+03 0.  0.
   -5000001    1    1    2    0    0  0.32109037412E+02 -0.75981691483E+02 -0.12916190063E+04  0.13084142560E+04  0.19200000000E+03 0.  0.
<mgrwt>
<rscale>  0 0.50105154E+03</rscale>
<asrwt>0</asrwt>
<pdfrwt beam="1">  1        2 0.23939065E+00 0.50105154E+03</pdfrwt>
<pdfrwt beam="2">  1       -2 0.53505884E-02 0.50105154E+03</pdfrwt>
<totfact> 0.22357962E+03</totfact>
</mgrwt>
</event>
<event>
 4    1  0.2892809E-005  0.4144922E+03  0.7818608E-02  0.1038874E+00
          2   -1    0    0  501    0  0.00000000000E+00  0.00000000000E+00  0.29598263652E+04  0.29598263652E+04  0.25500000000E-02 0.  1.
         -2   -1    0    0    0  501 -0.00000000000E+00 -0.00000000000E+00 -0.14511306940E+02  0.14511307164E+02  0.25500000000E-02 0. -1.
    5000001    1    1    2    0    0 -0.23039280158E+02 -0.49249123675E+02  0.10711514141E+04  0.10895804865E+04  0.19200000000E+03 0.  0.
   -5000001    1    1    2    0    0  0.23039280158E+02  0.49249123675E+02  0.18741636442E+04  0.18847571859E+04  0.19200000000E+03 0.  0.
<mgrwt>
<rscale>  0 0.41449222E+03</rscale>
<asrwt>0</asrwt>
<pdfrwt beam="1">  1        2 0.42283240E+00 0.41449222E+03</pdfrwt>
<pdfrwt beam="2">  1       -2 0.20730436E-02 0.41449222E+03</pdfrwt>
<totfact> 0.21088047E+03</totfact>
</mgrwt>
</event>
<event>
 4    1  0.2892809E-005  0.6123874E+03  0.7818608E-02  0.9880034E-01
         -2   -1    0    0    0  501 -0.00000000000E+00  0.00000000000E+00  0.10527257895E+03  0.10527257898E+03  0.25500000000E-02 0. -1.
          2   -1    0    0  501    0  0.00000000000E+00 -0.00000000000E+00 -0.89058879666E+03  0.89058879667E+03  0.25500000000E-02 0.  1.
    5000001    1    1    2    0    0 -0.15381573106E+03  0.10642378442E+03 -0.63334200695E+03  0.68772916092E+03  0.19200000000E+03 0.  0.
   -5000001    1    1    2    0    0  0.15381573106E+03 -0.10642378442E+03 -0.15197421077E+03  0.30813221472E+03  0.19200000000E+03 0.  0.
<mgrwt>
<rscale>  0 0.61238739E+03</rscale>
<asrwt>0</asrwt>
<pdfrwt beam="1">  1        2 0.12722697E+00 0.61238739E+03</pdfrwt>
<pdfrwt beam="2">  1       -2 0.15038940E-01 0.61238739E+03</pdfrwt>
<totfact> 0.11543990E+03</totfact>
</mgrwt>
</event>
<event>
 4    1  0.2892809E-005  0.4636782E+03  0.7818608E-02  0.1023720E+00
          2   -1    0    0  501    0  0.00000000000E+00  0.00000000000E+00  0.59287156332E+02  0.59287156387E+02  0.25500000000E-02 0.  1.
         -2   -1    0    0    0  501 -0.00000000000E+00 -0.00000000000E+00 -0.90659389924E+03  0.90659389924E+03  0.25500000000E-02 0. -1.
    5000001    1    1    2    0    0 -0.36041472165E+02  0.79713698154E+02 -0.62380424914E+03  0.65852031300E+03  0.19200000000E+03 0.  0.
   -5000001    1    1    2    0    0  0.36041472165E+02 -0.79713698154E+02 -0.22350249377E+03  0.30736074263E+03  0.19200000000E+03 0.  0.
<mgrwt>
<rscale>  0 0.46367823E+03</rscale>
<asrwt>0</asrwt>
<pdfrwt beam="1">  1        2 0.84695943E-02 0.46367823E+03</pdfrwt>
<pdfrwt beam="2">  1       -2 0.12951341E+00 0.46367823E+03</pdfrwt>
<totfact> 0.36528668E+02</totfact>
</mgrwt>
</event>
<event>
 4    1  0.2892809E-005  0.4873688E+03  0.7818608E-02  0.1017129E+00
          2   -1    0    0  501    0  0.00000000000E+00  0.00000000000E+00  0.16546500918E+03  0.16546500920E+03  0.25500000000E-02 0.  1.
         -2   -1    0    0    0  501 -0.00000000000E+00 -0.00000000000E+00 -0.35887996982E+03  0.35887996983E+03  0.25500000000E-02 0. -1.
    5000001    1    1    2    0    0 -0.10303720924E+03  0.10412850062E+03 -0.13171319792E+03  0.27508503710E+03  0.19200000000E+03 0.  0.
   -5000001    1    1    2    0    0  0.10303720924E+03 -0.10412850062E+03 -0.61701762725E+02  0.24925994193E+03  0.19200000000E+03 0.  0.
<mgrwt>
<rscale>  0 0.48736876E+03</rscale>
<asrwt>0</asrwt>
<pdfrwt beam="1">  1        2 0.23637859E-01 0.48736876E+03</pdfrwt>
<pdfrwt beam="2">  1       -2 0.51268567E-01 0.48736876E+03</pdfrwt>
<totfact> 0.84356313E+02</totfact>
</mgrwt>
</event>
<event>
 4    1  0.2892809E-005  0.7143284E+03  0.7818608E-02  0.9693038E-01
         -2   -1    0    0    0  501 -0.00000000000E+00  0.00000000000E+00  0.21896712940E+03  0.21896712942E+03  0.25500000000E-02 0. -1.
          2   -1    0    0  501    0  0.00000000000E+00 -0.00000000000E+00 -0.58258188532E+03  0.58258188533E+03  0.25500000000E-02 0.  1.
    5000001    1    1    2    0    0 -0.29703492196E+03  0.40682725255E+02 -0.21388955432E+03  0.41532826829E+03  0.19200000000E+03 0.  0.
   -5000001    1    1    2    0    0  0.29703492196E+03 -0.40682725255E+02 -0.14972520160E+03  0.38622074646E+03  0.19200000000E+03 0.  0.
<mgrwt>
<rscale>  0 0.71432845E+03</rscale>
<asrwt>0</asrwt>
<pdfrwt beam="1">  1        2 0.83225983E-01 0.71432845E+03</pdfrwt>
<pdfrwt beam="2">  1       -2 0.31281019E-01 0.71432845E+03</pdfrwt>
<totfact> 0.53508635E+02</totfact>
</mgrwt>
</event>
<event>
 4    1  0.2892809E-005  0.5437183E+03  0.7818608E-02  0.1002958E+00
         -2   -1    0    0    0  501 -0.00000000000E+00  0.00000000000E+00  0.50656357355E+02  0.50656357419E+02  0.25500000000E-02 0. -1.
          2   -1    0    0  501    0  0.00000000000E+00 -0.00000000000E+00 -0.14589955993E+04  0.14589955993E+04  0.25500000000E-02 0.  1.
    5000001    1    1    2    0    0 -0.93431668222E+02  0.10846644428E+03 -0.34698876463E+03  0.42161552265E+03  0.19200000000E+03 0.  0.
   -5000001    1    1    2    0    0  0.93431668222E+02 -0.10846644428E+03 -0.10613504773E+04  0.10880364340E+04  0.19200000000E+03 0.  0.
<mgrwt>
<rscale>  0 0.54371832E+03</rscale>
<asrwt>0</asrwt>
<pdfrwt beam="1">  1        2 0.20842792E+00 0.54371832E+03</pdfrwt>
<pdfrwt beam="2">  1       -2 0.72366234E-02 0.54371832E+03</pdfrwt>
<totfact> 0.17994405E+03</totfact>
</mgrwt>
</event>
<event>
 4    1  0.2892809E-005  0.5512941E+03  0.7818608E-02  0.1001195E+00
         -2   -1    0    0    0  501 -0.00000000000E+00  0.00000000000E+00  0.61740559196E+03  0.61740559197E+03  0.25500000000E-02 0. -1.
          2   -1    0    0  501    0  0.00000000000E+00 -0.00000000000E+00 -0.12306545737E+03  0.12306545739E+03  0.25500000000E-02 0.  1.
    5000001    1    1    2    0    0  0.47359667443E+02  0.18779090550E+03  0.30104596879E+03  0.40620319745E+03  0.19200000000E+03 0.  0.
   -5000001    1    1    2    0    0 -0.47359667443E+02 -0.18779090550E+03  0.19329416580E+03  0.33426785191E+03  0.19200000000E+03 0.  0.
<mgrwt>
<rscale>  0 0.55129412E+03</rscale>
<asrwt>0</asrwt>
<pdfrwt beam="1">  1        2 0.17580779E-01 0.55129412E+03</pdfrwt>
<pdfrwt beam="2">  1       -2 0.88200800E-01 0.55129412E+03</pdfrwt>
<totfact> 0.37043392E+02</totfact>
</mgrwt>
</event>
<event>
 4    1  0.2892809E-005  0.7201907E+03  0.7818608E-02  0.9683313E-01
          2   -1    0    0  501    0  0.00000000000E+00  0.00000000000E+00  0.11977263396E+04  0.11977263397E+04  0.25500000000E-02 0.  1.
         -2   -1    0    0    0  501 -0.00000000000E+00 -0.00000000000E+00 -0.10826233481E+03  0.10826233484E+03  0.25500000000E-02 0. -1.
    5000001    1    1    2    0    0  0.30380226455E+03  0.17736254309E+02  0.57000652070E+03  0.67407850010E+03  0.19200000000E+03 0.  0.
   -5000001    1    1    2    0    0 -0.30380226455E+03 -0.17736254309E+02  0.51945748414E+03  0.63191017439E+03  0.19200000000E+03 0.  0.
<mgrwt>
<rscale>  0 0.72019067E+03</rscale>
<asrwt>0</asrwt>
<pdfrwt beam="1">  1        2 0.17110377E+00 0.72019067E+03</pdfrwt>
<pdfrwt beam="2">  1       -2 0.15466047E-01 0.72019067E+03</pdfrwt>
<totfact> 0.71729216E+02</totfact>
</mgrwt>
</event>
<event>
 4    1  0.2892809E-005  0.5522608E+03  0.7818608E-02  0.1000972E+00
         -2   -1    0    0    0  501 -0.00000000000E+00  0.00000000000E+00  0.44098560284E+02  0.44098560358E+02  0.25500000000E-02 0. -1.
          2   -1    0    0  501    0  0.00000000000E+00 -0.00000000000E+00 -0.17290360439E+04  0.17290360439E+04  0.25500000000E-02 0.  1.
    5000001    1    1    2    0    0  0.16449948500E+03 -0.88433517686E+02 -0.10579300626E+04  0.10913114060E+04  0.19200000000E+03 0.  0.
   -5000001    1    1    2    0    0 -0.16449948500E+03  0.88433517686E+02 -0.62700742106E+03  0.68182319826E+03  0.19200000000E+03 0.  0.
<mgrwt>
<rscale>  0 0.55226081E+03</rscale>
<asrwt>0</asrwt>
<pdfrwt beam="1">  1        2 0.24700511E+00 0.55226081E+03</pdfrwt>
<pdfrwt beam="2">  1       -2 0.62997954E-02 0.55226081E+03</pdfrwt>
<totfact> 0.16262190E+03</totfact>
</mgrwt>
</event>
<event>
 4    1  0.2892809E-005  0.4190808E+03  0.7818608E-02  0.1037366E+00
          2   -1    0    0  501    0  0.00000000000E+00  0.00000000000E+00  0.65895408305E+03  0.65895408306E+03  0.25500000000E-02 0.  1.
         -2   -1    0    0    0  501 -0.00000000000E+00 -0.00000000000E+00 -0.66631612157E+02  0.66631612206E+02  0.25500000000E-02 0. -1.
    5000001    1    1    2    0    0  0.81012056953E+02  0.21349136188E+02  0.30471953687E+03  0.36977930599E+03  0.19200000000E+03 0.  0.
   -5000001    1    1    2    0    0 -0.81012056953E+02 -0.21349136188E+02  0.28760293402E+03  0.35580638927E+03  0.19200000000E+03 0.  0.
<mgrwt>
<rscale>  0 0.41908077E+03</rscale>
<asrwt>0</asrwt>
<pdfrwt beam="1">  1        2 0.94136303E-01 0.41908077E+03</pdfrwt>
<pdfrwt beam="2">  1       -2 0.95188012E-02 0.41908077E+03</pdfrwt>
<totfact> 0.35654958E+03</totfact>
</mgrwt>
</event>
<event>
 4    1  0.2892809E-005  0.7110569E+03  0.7818608E-02  0.9698508E-01
          2   -1    0    0  501    0  0.00000000000E+00  0.00000000000E+00  0.12096636325E+04  0.12096636325E+04  0.25500000000E-02 0. -1.
         -2   -1    0    0    0  501 -0.00000000000E+00 -0.00000000000E+00 -0.10449226310E+03  0.10449226313E+03  0.25500000000E-02 0.  1.
    5000001    1    1    2    0    0  0.11879088501E+03  0.27421476706E+03  0.52446686267E+03  0.63343074039E+03  0.19200000000E+03 0.  0.
   -5000001    1    1    2    0    0 -0.11879088501E+03 -0.27421476706E+03  0.58070450672E+03  0.68072515523E+03  0.19200000000E+03 0.  0.
<mgrwt>
<rscale>  0 0.71105693E+03</rscale>
<asrwt>0</asrwt>
<pdfrwt beam="1">  1        2 0.17280908E+00 0.71105693E+03</pdfrwt>
<pdfrwt beam="2">  1       -2 0.14927467E-01 0.71105693E+03</pdfrwt>
<totfact> 0.75017458E+02</totfact>
</mgrwt>
</event>
<event>
 4    1  0.2892809E-005  0.9767729E+03  0.7818608E-02  0.9334393E-01
         -2   -1    0    0    0  501 -0.00000000000E+00  0.00000000000E+00  0.19951932757E+03  0.19951932759E+03  0.25500000000E-02 0. -1.
          2   -1    0    0  501    0  0.00000000000E+00 -0.00000000000E+00 -0.11954797333E+04  0.11954797333E+04  0.25500000000E-02 0.  1.
    5000001    1    1    2    0    0  0.37907305025E+03  0.21509180423E+03 -0.34352328143E+03  0.58722491991E+03  0.19200000000E+03 0.  0.
   -5000001    1    1    2    0    0 -0.37907305025E+03 -0.21509180423E+03 -0.65243712427E+03  0.80777414096E+03  0.19200000000E+03 0.  0.
<mgrwt>
<rscale>  0 0.97677288E+03</rscale>
<asrwt>0</asrwt>
<pdfrwt beam="1">  1        2 0.17078281E+00 0.97677288E+03</pdfrwt>
<pdfrwt beam="2">  1       -2 0.28502762E-01 0.97677288E+03</pdfrwt>
<totfact> 0.24162994E+02</totfact>
</mgrwt>
</event>
<event>
 4    1  0.2892809E-005  0.7532436E+03  0.7818608E-02  0.9630275E-01
         -2   -1    0    0    0  501 -0.00000000000E+00  0.00000000000E+00  0.13668851441E+03  0.13668851443E+03  0.25500000000E-02 0.  1.
          2   -1    0    0  501    0  0.00000000000E+00 -0.00000000000E+00 -0.10377168842E+04  0.10377168842E+04  0.25500000000E-02 0. -1.
    5000001    1    1    2    0    0 -0.23513417294E+03  0.18252441995E+03 -0.25098966893E+03  0.43412332012E+03  0.19200000000E+03 0.  0.
   -5000001    1    1    2    0    0  0.23513417294E+03 -0.18252441995E+03 -0.65003870091E+03  0.74028207856E+03  0.19200000000E+03 0.  0.
<mgrwt>
<rscale>  0 0.75324360E+03</rscale>
<asrwt>0</asrwt>
<pdfrwt beam="1">  1        2 0.14824526E+00 0.75324360E+03</pdfrwt>
<pdfrwt beam="2">  1       -2 0.19526931E-01 0.75324360E+03</pdfrwt>
<totfact> 0.59475589E+02</totfact>
</mgrwt>
</event>
<event>
 4    1  0.2892809E-005  0.5866638E+03  0.7818608E-02  0.9933467E-01
          2   -1    0    0  501    0  0.00000000000E+00  0.00000000000E+00  0.27791132493E+04  0.27791132493E+04  0.25500000000E-02 0.  1.
         -2   -1    0    0    0  501 -0.00000000000E+00 -0.00000000000E+00 -0.30960809615E+02  0.30960809720E+02  0.25500000000E-02 0. -1.
    5000001    1    1    2    0    0  0.59391131334E+02  0.21215422756E+03  0.14955244782E+04  0.15238091048E+04  0.19200000000E+03 0.  0.
   -5000001    1    1    2    0    0 -0.59391131334E+02 -0.21215422756E+03  0.12526279615E+04  0.12862649543E+04  0.19200000000E+03 0.  0.
<mgrwt>
<rscale>  0 0.58666378E+03</rscale>
<asrwt>0</asrwt>
<pdfrwt beam="1">  1        2 0.39701618E+00 0.58666378E+03</pdfrwt>
<pdfrwt beam="2">  1       -2 0.44229728E-02 0.58666378E+03</pdfrwt>
<totfact> 0.82277820E+02</totfact>
</mgrwt>
</event>
<event>
 4    1  0.2892809E-005  0.9504760E+03  0.7818608E-02  0.9364594E-01
          2   -1    0    0  501    0  0.00000000000E+00  0.00000000000E+00  0.15213471835E+04  0.15213471835E+04  0.25500000000E-02 0.  1.
         -2   -1    0    0    0  501 -0.00000000000E+00 -0.00000000000E+00 -0.14845471857E+03  0.14845471859E+03  0.25500000000E-02 0. -1.
    5000001    1    1    2    0    0  0.40095058413E+03 -0.18425240928E+01  0.98158127196E+03  0.10775576826E+04  0.19200000000E+03 0.  0.
   -5000001    1    1    2    0    0 -0.40095058413E+03  0.18425240928E+01  0.39131119299E+03  0.59224421953E+03  0.19200000000E+03 0.  0.
<mgrwt>
<rscale>  0 0.95047602E+03</rscale>
<asrwt>0</asrwt>
<pdfrwt beam="1">  1        2 0.21733531E+00 0.95047602E+03</pdfrwt>
<pdfrwt beam="2">  1       -2 0.21207817E-01 0.95047602E+03</pdfrwt>
<totfact> 0.27400371E+02</totfact>
</mgrwt>
</event>
<event>
 4    1  0.2892809E-005  0.5880483E+03  0.7818608E-02  0.9930517E-01
          2   -1    0    0  501    0  0.00000000000E+00  0.00000000000E+00  0.19039633436E+04  0.19039633436E+04  0.25500000000E-02 0.  1.
         -2   -1    0    0    0  501 -0.00000000000E+00 -0.00000000000E+00 -0.45405396036E+02  0.45405396108E+02  0.25500000000E-02 0. -1.
    5000001    1    1    2    0    0  0.14564760750E+03 -0.13927351028E+03  0.61521412055E+03  0.67525013911E+03  0.19200000000E+03 0.  0.
   -5000001    1    1    2    0    0 -0.14564760750E+03  0.13927351028E+03  0.12433438270E+04  0.12741186006E+04  0.19200000000E+03 0.  0.
<mgrwt>
<rscale>  0 0.58804833E+03</rscale>
<asrwt>0</asrwt>
<pdfrwt beam="1">  1        2 0.27199480E+00 0.58804833E+03</pdfrwt>
<pdfrwt beam="2">  1       -2 0.64864843E-02 0.58804833E+03</pdfrwt>
<totfact> 0.12660114E+03</totfact>
</mgrwt>
</event>
<event>
 4    1  0.2892809E-005  0.4432521E+03  0.7818608E-02  0.1029754E+00
         -2   -1    0    0    0  501 -0.00000000000E+00  0.00000000000E+00  0.13702606464E+03  0.13702606466E+03  0.25500000000E-02 0. -1.
          2   -1    0    0  501    0  0.00000000000E+00 -0.00000000000E+00 -0.35845805494E+03  0.35845805495E+03  0.25500000000E-02 0.  1.
    5000001    1    1    2    0    0  0.10924664800E+03 -0.17400620313E+02 -0.11525460139E+03  0.24977036419E+03  0.19200000000E+03 0.  0.
   -5000001    1    1    2    0    0 -0.10924664800E+03  0.17400620313E+02 -0.10617738891E+03  0.24571375542E+03  0.19200000000E+03 0.  0.
<mgrwt>
<rscale>  0 0.44325206E+03</rscale>
<asrwt>0</asrwt>
<pdfrwt beam="1">  1        2 0.51208293E-01 0.44325206E+03</pdfrwt>
<pdfrwt beam="2">  1       -2 0.19575152E-01 0.44325206E+03</pdfrwt>
<totfact> 0.21465925E+03</totfact>
</mgrwt>
</event>
<event>
 4    1  0.2892809E-005  0.5106646E+03  0.7818608E-02  0.1011032E+00
         -2   -1    0    0    0  501 -0.00000000000E+00  0.00000000000E+00  0.13727326986E+03  0.13727326988E+03  0.25500000000E-02 0. -1.
          2   -1    0    0  501    0  0.00000000000E+00 -0.00000000000E+00 -0.47492553620E+03  0.47492553621E+03  0.25500000000E-02 0.  1.
    5000001    1    1    2    0    0  0.41158333095E+02 -0.13282487916E+03 -0.55132491530E+02  0.24339278652E+03  0.19200000000E+03 0.  0.
   -5000001    1    1    2    0    0 -0.41158333095E+02  0.13282487916E+03 -0.28251977481E+03  0.36880601957E+03  0.19200000000E+03 0.  0.
<mgrwt>
<rscale>  0 0.51066459E+03</rscale>
<asrwt>0</asrwt>
<pdfrwt beam="1">  1        2 0.67846504E-01 0.51066459E+03</pdfrwt>
<pdfrwt beam="2">  1       -2 0.19610467E-01 0.51066459E+03</pdfrwt>
<totfact> 0.15686784E+03</totfact>
</mgrwt>
</event>
<event>
 4    1  0.2892809E-005  0.4415517E+03  0.7818608E-02  0.1030272E+00
          2   -1    0    0  501    0  0.00000000000E+00  0.00000000000E+00  0.94314184688E+02  0.94314184723E+02  0.25500000000E-02 0. -1.
         -2   -1    0    0    0  501 -0.00000000000E+00 -0.00000000000E+00 -0.51680432004E+03  0.51680432004E+03  0.25500000000E-02 0.  1.
    5000001    1    1    2    0    0 -0.10009475099E+03  0.45509894499E+00 -0.15157430686E+03  0.26430652052E+03  0.19200000000E+03 0.  0.
   -5000001    1    1    2    0    0  0.10009475099E+03 -0.45509894499E+00 -0.27091582849E+03  0.34681198424E+03  0.19200000000E+03 0.  0.
<mgrwt>
<rscale>  0 0.44155171E+03</rscale>
<asrwt>0</asrwt>
<pdfrwt beam="1">  1        2 0.13473455E-01 0.44155171E+03</pdfrwt>
<pdfrwt beam="2">  1       -2 0.73829187E-01 0.44155171E+03</pdfrwt>
<totfact> 0.75956169E+02</totfact>
</mgrwt>
</event>
<event>
 4    1  0.2892809E-005  0.8194929E+03  0.7818608E-02  0.9532223E-01
          2   -1    0    0  501    0  0.00000000000E+00  0.00000000000E+00  0.29782407984E+04  0.29782407984E+04  0.25500000000E-02 0.  1.
         -2   -1    0    0    0  501 -0.00000000000E+00 -0.00000000000E+00 -0.56372932557E+02  0.56372932614E+02  0.25500000000E-02 0. -1.
    5000001    1    1    2    0    0  0.23575830123E+03  0.21396916656E+03  0.20987105212E+04  0.21313879592E+04  0.19200000000E+03 0.  0.
   -5000001    1    1    2    0    0 -0.23575830123E+03 -0.21396916656E+03  0.82315734473E+03  0.90322577190E+03  0.19200000000E+03 0.  0.
<mgrwt>
<rscale>  0 0.81949294E+03</rscale>
<asrwt>0</asrwt>
<pdfrwt beam="1">  1        2 0.42546325E+00 0.81949294E+03</pdfrwt>
<pdfrwt beam="2">  1       -2 0.80532708E-02 0.81949294E+03</pdfrwt>
<totfact> 0.24556624E+02</totfact>
</mgrwt>
</event>
<event>
 4    1  0.2892809E-005  0.4102903E+03  0.7818608E-02  0.1040274E+00
         -2   -1    0    0    0  501 -0.00000000000E+00  0.00000000000E+00  0.68443740536E+02  0.68443740584E+02  0.25500000000E-02 0. -1.
          2   -1    0    0  501    0  0.00000000000E+00 -0.00000000000E+00 -0.61487769753E+03  0.61487769753E+03  0.25500000000E-02 0.  1.
    5000001    1    1    2    0    0  0.32105341287E+02 -0.52389755288E+02 -0.33652828729E+03  0.39228908670E+03  0.19200000000E+03 0.  0.
   -5000001    1    1    2    0    0 -0.32105341287E+02  0.52389755288E+02 -0.20990566971E+03  0.29103235142E+03  0.19200000000E+03 0.  0.
<mgrwt>
<rscale>  0 0.41029029E+03</rscale>
<asrwt>0</asrwt>
<pdfrwt beam="1">  1        2 0.87839668E-01 0.41029029E+03</pdfrwt>
<pdfrwt beam="2">  1       -2 0.97776776E-02 0.41029029E+03</pdfrwt>
<totfact> 0.37043326E+03</totfact>
</mgrwt>
</event>
<event>
 4    1  0.2892809E-005  0.9856118E+03  0.7818608E-02  0.9324468E-01
         -2   -1    0    0    0  501 -0.00000000000E+00  0.00000000000E+00  0.50033562239E+03  0.50033562240E+03  0.25500000000E-02 0. -1.
          2   -1    0    0  501    0  0.00000000000E+00 -0.00000000000E+00 -0.48538946180E+03  0.48538946181E+03  0.25500000000E-02 0.  1.
    5000001    1    1    2    0    0  0.26400733310E+03  0.22050834163E+02 -0.36109001772E+03  0.48727416524E+03  0.19200000000E+03 0.  0.
   -5000001    1    1    2    0    0 -0.26400733310E+03 -0.22050834163E+02  0.37603617831E+03  0.49845091896E+03  0.19200000000E+03 0.  0.
<mgrwt>
<rscale>  0 0.98561177E+03</rscale>
<asrwt>0</asrwt>
<pdfrwt beam="1">  1        2 0.69341352E-01 0.98561177E+03</pdfrwt>
<pdfrwt beam="2">  1       -2 0.71476518E-01 0.98561177E+03</pdfrwt>
<totfact> 0.12336353E+02</totfact>
</mgrwt>
</event>
<event>
 4    1  0.2892809E-005  0.4930038E+03  0.7818608E-02  0.1015621E+00
         -2   -1    0    0    0  501 -0.00000000000E+00  0.00000000000E+00  0.27526938850E+02  0.27526938968E+02  0.25500000000E-02 0. -1.
          2   -1    0    0  501    0  0.00000000000E+00 -0.00000000000E+00 -0.22074079339E+04  0.22074079339E+04  0.25500000000E-02 0.  1.
    5000001    1    1    2    0    0 -0.15352746673E+03 -0.17242188691E+02 -0.11152650795E+04  0.11421681897E+04  0.19200000000E+03 0.  0.
   -5000001    1    1    2    0    0  0.15352746673E+03  0.17242188691E+02 -0.10646159156E+04  0.10927666832E+04  0.19200000000E+03 0.  0.
<mgrwt>
<rscale>  0 0.49300379E+03</rscale>
<asrwt>0</asrwt>
<pdfrwt beam="1">  1        2 0.31534388E+00 0.49300379E+03</pdfrwt>
<pdfrwt beam="2">  1       -2 0.39324213E-02 0.49300379E+03</pdfrwt>
<totfact> 0.19463782E+03</totfact>
</mgrwt>
</event>
<event>
 4    1  0.2892809E-005  0.9317741E+03  0.7818608E-02  0.9386711E-01
         -2   -1    0    0    0  501 -0.00000000000E+00  0.00000000000E+00  0.11093948491E+03  0.11093948494E+03  0.25500000000E-02 0. -1.
          2   -1    0    0  501    0  0.00000000000E+00 -0.00000000000E+00 -0.19564787660E+04  0.19564787660E+04  0.25500000000E-02 0.  1.
    5000001    1    1    2    0    0  0.13450829142E+03  0.39902644484E+03 -0.10416806885E+04  0.11398584303E+04  0.19200000000E+03 0.  0.
   -5000001    1    1    2    0    0 -0.13450829142E+03 -0.39902644484E+03 -0.80385859252E+03  0.92755982067E+03  0.19200000000E+03 0.  0.
<mgrwt>
<rscale>  0 0.93177411E+03</rscale>
<asrwt>0</asrwt>
<pdfrwt beam="1">  1        2 0.27949695E+00 0.93177411E+03</pdfrwt>
<pdfrwt beam="2">  1       -2 0.15848499E-01 0.93177411E+03</pdfrwt>
<totfact> 0.27129914E+02</totfact>
</mgrwt>
</event>
<event>
 4    1  0.2892809E-005  0.7757114E+03  0.7818608E-02  0.9595855E-01
         -2   -1    0    0    0  501 -0.00000000000E+00  0.00000000000E+00  0.54252022482E+03  0.54252022482E+03  0.25500000000E-02 0. -1.
          2   -1    0    0  501    0  0.00000000000E+00 -0.00000000000E+00 -0.27728372141E+03  0.27728372142E+03  0.25500000000E-02 0.  1.
    5000001    1    1    2    0    0  0.93386539007E+02  0.31745326784E+03  0.65192063059E+02  0.38808713972E+03  0.19200000000E+03 0.  0.
   -5000001    1    1    2    0    0 -0.93386539007E+02 -0.31745326784E+03  0.20004444035E+03  0.43171680653E+03  0.19200000000E+03 0.  0.
<mgrwt>
<rscale>  0 0.77571136E+03</rscale>
<asrwt>0</asrwt>
<pdfrwt beam="1">  1        2 0.39611961E-01 0.77571136E+03</pdfrwt>
<pdfrwt beam="2">  1       -2 0.77502888E-01 0.77571136E+03</pdfrwt>
<totfact> 0.19479421E+02</totfact>
</mgrwt>
</event>
<event>
 4    1  0.2892809E-005  0.6719751E+03  0.7818608E-02  0.9766396E-01
          2   -1    0    0  501    0  0.00000000000E+00  0.00000000000E+00  0.57120665858E+02  0.57120665915E+02  0.25500000000E-02 0.  1.
         -2   -1    0    0    0  501 -0.00000000000E+00 -0.00000000000E+00 -0.19763009006E+04  0.19763009006E+04  0.25500000000E-02 0. -1.
    5000001    1    1    2    0    0  0.82823685614E+02  0.25912944465E+03 -0.82372841098E+03  0.88848203529E+03  0.19200000000E+03 0.  0.
   -5000001    1    1    2    0    0 -0.82823685614E+02 -0.25912944465E+03 -0.10954518238E+04  0.11449395313E+04  0.19200000000E+03 0.  0.
<mgrwt>
<rscale>  0 0.67197507E+03</rscale>
<asrwt>0</asrwt>
<pdfrwt beam="1">  1        2 0.81600964E-02 0.67197507E+03</pdfrwt>
<pdfrwt beam="2">  1       -2 0.28232866E+00 0.67197507E+03</pdfrwt>
<totfact> 0.36737570E+01</totfact>
</mgrwt>
</event>
<event>
 4    1  0.2892809E-005  0.4878594E+03  0.7818608E-02  0.1016997E+00
         -2   -1    0    0    0  501 -0.00000000000E+00  0.00000000000E+00  0.51532612655E+02  0.51532612718E+02  0.25500000000E-02 0. -1.
          2   -1    0    0  501    0  0.00000000000E+00 -0.00000000000E+00 -0.11546417759E+04  0.11546417759E+04  0.25500000000E-02 0.  1.
    5000001    1    1    2    0    0 -0.26400962611E+02 -0.57051109045E+02 -0.88951981468E+03  0.91217396399E+03  0.19200000000E+03 0.  0.
   -5000001    1    1    2    0    0  0.26400962611E+02  0.57051109045E+02 -0.21358934861E+03  0.29400042467E+03  0.19200000000E+03 0.  0.
<mgrwt>
<rscale>  0 0.48785944E+03</rscale>
<asrwt>0</asrwt>
<pdfrwt beam="1">  1        2 0.16494881E+00 0.48785944E+03</pdfrwt>
<pdfrwt beam="2">  1       -2 0.73618025E-02 0.48785944E+03</pdfrwt>
<totfact> 0.25614617E+03</totfact>
</mgrwt>
</event>
<event>
 4    1  0.2892809E-005  0.4841791E+03  0.7818608E-02  0.1017993E+00
          2   -1    0    0  501    0  0.00000000000E+00  0.00000000000E+00  0.71759727307E+03  0.71759727307E+03  0.25500000000E-02 0.  1.
         -2   -1    0    0    0  501 -0.00000000000E+00 -0.00000000000E+00 -0.81671654686E+02  0.81671654725E+02  0.25500000000E-02 0. -1.
    5000001    1    1    2    0    0  0.90983556459E+02  0.10984000115E+03  0.37974055216E+03  0.44878694316E+03  0.19200000000E+03 0.  0.
   -5000001    1    1    2    0    0 -0.90983556459E+02 -0.10984000115E+03  0.25618506622E+03  0.35048198464E+03  0.19200000000E+03 0.  0.
<mgrwt>
<rscale>  0 0.48417913E+03</rscale>
<asrwt>0</asrwt>
<pdfrwt beam="1">  1        2 0.10251390E+00 0.48417913E+03</pdfrwt>
<pdfrwt beam="2">  1       -2 0.11667379E-01 0.48417913E+03</pdfrwt>
<totfact> 0.23182131E+03</totfact>
</mgrwt>
</event>
<event>
 4    1  0.2892809E-005  0.5557464E+03  0.7818608E-02  0.1000173E+00
          2   -1    0    0  501    0  0.00000000000E+00  0.00000000000E+00  0.18987082185E+04  0.18987082185E+04  0.25500000000E-02 0.  1.
         -2   -1    0    0    0  501 -0.00000000000E+00 -0.00000000000E+00 -0.40666334805E+02  0.40666334885E+02  0.25500000000E-02 0. -1.
    5000001    1    1    2    0    0  0.17218714966E+03  0.10150773735E+02  0.12882720184E+04  0.13138722335E+04  0.19200000000E+03 0.  0.
   -5000001    1    1    2    0    0 -0.17218714966E+03 -0.10150773735E+02  0.56976986530E+03  0.62550231984E+03  0.19200000000E+03 0.  0.
<mgrwt>
<rscale>  0 0.55574636E+03</rscale>
<asrwt>0</asrwt>
<pdfrwt beam="1">  1        2 0.27124409E+00 0.55574636E+03</pdfrwt>
<pdfrwt beam="2">  1       -2 0.58094751E-02 0.55574636E+03</pdfrwt>
<totfact> 0.15161191E+03</totfact>
</mgrwt>
</event>
<event>
 4    1  0.2892809E-005  0.6651050E+03  0.7818608E-02  0.9778841E-01
         -2   -1    0    0    0  501 -0.00000000000E+00  0.00000000000E+00  0.37282828992E+02  0.37282829079E+02  0.25500000000E-02 0. -1.
          2   -1    0    0  501    0  0.00000000000E+00 -0.00000000000E+00 -0.29662762069E+04  0.29662762069E+04  0.25500000000E-02 0.  1.
    5000001    1    1    2    0    0 -0.25999522988E+03  0.57408078849E+02 -0.12240919994E+04  0.12673430594E+04  0.19200000000E+03 0.  0.
   -5000001    1    1    2    0    0  0.25999522988E+03 -0.57408078849E+02 -0.17049013785E+04  0.17362159766E+04  0.19200000000E+03 0.  0.
<mgrwt>
<rscale>  0 0.66510501E+03</rscale>
<asrwt>0</asrwt>
<pdfrwt beam="1">  1        2 0.42375359E+00 0.66510501E+03</pdfrwt>
<pdfrwt beam="2">  1       -2 0.53261203E-02 0.66510501E+03</pdfrwt>
<totfact> 0.48631259E+02</totfact>
</mgrwt>
</event>
<event>
 4    1  0.2892809E-005  0.4215454E+03  0.7818608E-02  0.1036564E+00
          2   -1    0    0  501    0  0.00000000000E+00  0.00000000000E+00  0.15636747006E+04  0.15636747006E+04  0.25500000000E-02 0.  1.
         -2   -1    0    0    0  501 -0.00000000000E+00 -0.00000000000E+00 -0.28410728862E+02  0.28410728977E+02  0.25500000000E-02 0. -1.
    5000001    1    1    2    0    0  0.53670321638E+02 -0.68280763757E+02  0.78382021004E+03  0.81165318196E+03  0.19200000000E+03 0.  0.
   -5000001    1    1    2    0    0 -0.53670321638E+02  0.68280763757E+02  0.75144376171E+03  0.78043224763E+03  0.19200000000E+03 0.  0.
<mgrwt>
<rscale>  0 0.42154543E+03</rscale>
<asrwt>0</asrwt>
<pdfrwt beam="1">  1        2 0.22338218E+00 0.42154543E+03</pdfrwt>
<pdfrwt beam="2">  1       -2 0.40586741E-02 0.42154543E+03</pdfrwt>
<totfact> 0.39020742E+03</totfact>
</mgrwt>
</event>
<event>
 4    1  0.2892809E-005  0.4508966E+03  0.7818608E-02  0.1027455E+00
          2   -1    0    0  501    0  0.00000000000E+00  0.00000000000E+00  0.32706461283E+04  0.32706461283E+04  0.25500000000E-02 0.  1.
         -2   -1    0    0    0  501 -0.00000000000E+00 -0.00000000000E+00 -0.15540333592E+02  0.15540333801E+02  0.25500000000E-02 0. -1.
    5000001    1    1    2    0    0 -0.10984597252E+03  0.43277543362E+02  0.15919612135E+04  0.16078381724E+04  0.19200000000E+03 0.  0.
   -5000001    1    1    2    0    0  0.10984597252E+03 -0.43277543362E+02  0.16631445812E+04  0.16783482897E+04  0.19200000000E+03 0.  0.
<mgrwt>
<rscale>  0 0.45089658E+03</rscale>
<asrwt>0</asrwt>
<pdfrwt beam="1">  1        2 0.46723578E+00 0.45089658E+03</pdfrwt>
<pdfrwt beam="2">  1       -2 0.22200447E-02 0.45089658E+03</pdfrwt>
<totfact> 0.12814148E+03</totfact>
</mgrwt>
</event>
<event>
 4    1  0.2892809E-005  0.4940484E+03  0.7818608E-02  0.1015344E+00
          2   -1    0    0  501    0  0.00000000000E+00  0.00000000000E+00  0.27398616643E+04  0.27398616643E+04  0.25500000000E-02 0.  1.
         -2   -1    0    0    0  501 -0.00000000000E+00 -0.00000000000E+00 -0.22271545662E+02  0.22271545808E+02  0.25500000000E-02 0. -1.
    5000001    1    1    2    0    0 -0.57601844875E+01 -0.99082147094E+02  0.20275112952E+04  0.20389988974E+04  0.19200000000E+03 0.  0.
   -5000001    1    1    2    0    0  0.57601844875E+01  0.99082147094E+02  0.69007882340E+03  0.72313431263E+03  0.19200000000E+03 0.  0.
<mgrwt>
<rscale>  0 0.49404840E+03</rscale>
<asrwt>0</asrwt>
<pdfrwt beam="1">  1        2 0.39140868E+00 0.49404840E+03</pdfrwt>
<pdfrwt beam="2">  1       -2 0.31816505E-02 0.49404840E+03</pdfrwt>
<totfact> 0.14383958E+03</totfact>
</mgrwt>
</event>
<event>
 4    1  0.2892809E-005  0.4116415E+03  0.7818608E-02  0.1039822E+00
         -2   -1    0    0    0  501 -0.00000000000E+00  0.00000000000E+00  0.58536430110E+02  0.58536430165E+02  0.25500000000E-02 0. -1.
          2   -1    0    0  501    0  0.00000000000E+00 -0.00000000000E+00 -0.72368919143E+03  0.72368919144E+03  0.25500000000E-02 0.  1.
    5000001    1    1    2    0    0 -0.37628092439E+02  0.45647763624E+02 -0.41752860433E+03  0.46335054451E+03  0.19200000000E+03 0.  0.
   -5000001    1    1    2    0    0  0.37628092439E+02 -0.45647763624E+02 -0.24762415700E+03  0.31887507710E+03  0.19200000000E+03 0.  0.
<mgrwt>
<rscale>  0 0.41164150E+03</rscale>
<asrwt>0</asrwt>
<pdfrwt beam="1">  1        2 0.10338416E+00 0.41164150E+03</pdfrwt>
<pdfrwt beam="2">  1       -2 0.83623476E-02 0.41164150E+03</pdfrwt>
<totfact> 0.39141851E+03</totfact>
</mgrwt>
</event>
<event>
 4    1  0.2892809E-005  0.5993431E+03  0.7818608E-02  0.9906770E-01
          2   -1    0    0  501    0  0.00000000000E+00  0.00000000000E+00  0.14496388244E+04  0.14496388244E+04  0.25500000000E-02 0.  1.
         -2   -1    0    0    0  501 -0.00000000000E+00 -0.00000000000E+00 -0.61948554495E+02  0.61948554547E+02  0.25500000000E-02 0. -1.
    5000001    1    1    2    0    0  0.75363293417E+01  0.15923263233E+03  0.27539972902E+03  0.37164611958E+03  0.19200000000E+03 0.  0.
   -5000001    1    1    2    0    0 -0.75363293417E+01 -0.15923263233E+03  0.11122905409E+04  0.11399412593E+04  0.19200000000E+03 0.  0.
<mgrwt>
<rscale>  0 0.59934307E+03</rscale>
<asrwt>0</asrwt>
<pdfrwt beam="1">  1        2 0.20709129E+00 0.59934307E+03</pdfrwt>
<pdfrwt beam="2">  1       -2 0.88497924E-02 0.59934307E+03</pdfrwt>
<totfact> 0.13186848E+03</totfact>
</mgrwt>
</event>
<event>
 4    1  0.2892809E-005  0.5713650E+03  0.7818608E-02  0.9966663E-01
         -2   -1    0    0    0  501 -0.00000000000E+00  0.00000000000E+00  0.11607156797E+04  0.11607156797E+04  0.25500000000E-02 0. -1.
          2   -1    0    0  501    0  0.00000000000E+00 -0.00000000000E+00 -0.70313941467E+02  0.70313941513E+02  0.25500000000E-02 0.  1.
    5000001    1    1    2    0    0 -0.15200408331E+03 -0.13455119571E+03  0.67341380723E+03  0.72908121728E+03  0.19200000000E+03 0.  0.
   -5000001    1    1    2    0    0  0.15200408331E+03  0.13455119571E+03  0.41698793097E+03  0.50194840391E+03  0.19200000000E+03 0.  0.
<mgrwt>
<rscale>  0 0.57136501E+03</rscale>
<asrwt>0</asrwt>
<pdfrwt beam="1">  1        2 0.10044850E-01 0.57136501E+03</pdfrwt>
<pdfrwt beam="2">  1       -2 0.16581651E+00 0.57136501E+03</pdfrwt>
<totfact> 0.15385329E+02</totfact>
</mgrwt>
</event>
<event>
 4    1  0.2892809E-005  0.5935129E+03  0.7818608E-02  0.9918957E-01
          2   -1    0    0  501    0  0.00000000000E+00  0.00000000000E+00  0.42703775219E+03  0.42703775220E+03  0.25500000000E-02 0.  1.
         -2   -1    0    0    0  501 -0.00000000000E+00 -0.00000000000E+00 -0.20622153099E+03  0.20622153101E+03  0.25500000000E-02 0. -1.
    5000001    1    1    2    0    0  0.84475592425E+02 -0.14160608826E+03 -0.54927086979E+02  0.25897759523E+03  0.19200000000E+03 0.  0.
   -5000001    1    1    2    0    0 -0.84475592425E+02  0.14160608826E+03  0.27574330818E+03  0.37428168798E+03  0.19200000000E+03 0.  0.
<mgrwt>
<rscale>  0 0.59351286E+03</rscale>
<asrwt>0</asrwt>
<pdfrwt beam="1">  1        2 0.61005393E-01 0.59351286E+03</pdfrwt>
<pdfrwt beam="2">  1       -2 0.29460219E-01 0.59351286E+03</pdfrwt>
<totfact> 0.85474515E+02</totfact>
</mgrwt>
</event>
<event>
 4    1  0.2892809E-005  0.4977122E+03  0.7818608E-02  0.1014378E+00
          2   -1    0    0  501    0  0.00000000000E+00  0.00000000000E+00  0.63867598250E+03  0.63867598251E+03  0.25500000000E-02 0.  1.
         -2   -1    0    0    0  501 -0.00000000000E+00 -0.00000000000E+00 -0.96965239639E+02  0.96965239672E+02  0.25500000000E-02 0. -1.
    5000001    1    1    2    0    0  0.28780361105E+02 -0.11229557515E+03  0.43022925897E+03  0.48518019400E+03  0.19200000000E+03 0.  0.
   -5000001    1    1    2    0    0 -0.28780361105E+02  0.11229557515E+03  0.11148148390E+03  0.25046102817E+03  0.19200000000E+03 0.  0.
<mgrwt>
<rscale>  0 0.49771225E+03</rscale>
<asrwt>0</asrwt>
<pdfrwt beam="1">  1        2 0.91239426E-01 0.49771225E+03</pdfrwt>
<pdfrwt beam="2">  1       -2 0.13852177E-01 0.49771225E+03</pdfrwt>
<totfact> 0.20103999E+03</totfact>
</mgrwt>
</event>
<event>
 4    1  0.2892809E-005  0.5851674E+03  0.7818608E-02  0.9936666E-01
          2   -1    0    0  501    0  0.00000000000E+00  0.00000000000E+00  0.39648929167E+04  0.39648929167E+04  0.25500000000E-02 0.  1.
         -2   -1    0    0    0  501 -0.00000000000E+00 -0.00000000000E+00 -0.21590802982E+02  0.21590803133E+02  0.25500000000E-02 0. -1.
    5000001    1    1    2    0    0 -0.62549336404E+02  0.14476644993E+03  0.30242175018E+04  0.30344069013E+04  0.19200000000E+03 0.  0.
   -5000001    1    1    2    0    0  0.62549336404E+02 -0.14476644993E+03  0.91908461191E+03  0.95207681852E+03  0.19200000000E+03 0.  0.
<mgrwt>
<rscale>  0 0.58516740E+03</rscale>
<asrwt>0</asrwt>
<pdfrwt beam="1">  1        2 0.56641337E+00 0.58516740E+03</pdfrwt>
<pdfrwt beam="2">  1       -2 0.30843999E-02 0.58516740E+03</pdfrwt>
<totfact> 0.29024201E+02</totfact>
</mgrwt>
</event>
<event>
 4    1  0.2892809E-005  0.8758850E+03  0.7818608E-02  0.9456239E-01
          2   -1    0    0  501    0  0.00000000000E+00  0.00000000000E+00  0.98323885624E+03  0.98323885624E+03  0.25500000000E-02 0.  1.
         -2   -1    0    0    0  501 -0.00000000000E+00 -0.00000000000E+00 -0.19506309371E+03  0.19506309373E+03  0.25500000000E-02 0. -1.
    5000001    1    1    2    0    0 -0.17547578467E+02 -0.33097621959E+03  0.67970505943E+03  0.78020262961E+03  0.19200000000E+03 0.  0.
   -5000001    1    1    2    0    0  0.17547578467E+02  0.33097621959E+03  0.10847070310E+03  0.39809932036E+03  0.19200000000E+03 0.  0.
<mgrwt>
<rscale>  0 0.87588495E+03</rscale>
<asrwt>0</asrwt>
<pdfrwt beam="1">  1        2 0.14046270E+00 0.87588495E+03</pdfrwt>
<pdfrwt beam="2">  1       -2 0.27866156E-01 0.87588495E+03</pdfrwt>
<totfact> 0.33832680E+02</totfact>
</mgrwt>
</event>
<event>
 4    1  0.2892809E-005  0.4205901E+03  0.7818608E-02  0.1036874E+00
          2   -1    0    0  501    0  0.00000000000E+00  0.00000000000E+00  0.75875256304E+02  0.75875256347E+02  0.25500000000E-02 0.  1.
         -2   -1    0    0    0  501 -0.00000000000E+00 -0.00000000000E+00 -0.58285139504E+03  0.58285139505E+03  0.25500000000E-02 0. -1.
    5000001    1    1    2    0    0  0.76284873272E+02 -0.33624747648E+02 -0.28520087726E+03  0.35377047069E+03  0.19200000000E+03 0.  0.
   -5000001    1    1    2    0    0 -0.76284873272E+02  0.33624747648E+02 -0.22177526148E+03  0.30495618071E+03  0.19200000000E+03 0.  0.
<mgrwt>
<rscale>  0 0.42059006E+03</rscale>
<asrwt>0</asrwt>
<pdfrwt beam="1">  1        2 0.10839323E-01 0.42059006E+03</pdfrwt>
<pdfrwt beam="2">  1       -2 0.83264483E-01 0.42059006E+03</pdfrwt>
<totfact> 0.76069162E+02</totfact>
</mgrwt>
</event>
<event>
 4    1  0.2892809E-005  0.6843259E+03  0.7818608E-02  0.9744419E-01
         -2   -1    0    0    0  501 -0.00000000000E+00  0.00000000000E+00  0.55406820292E+02  0.55406820350E+02  0.25500000000E-02 0. -1.
          2   -1    0    0  501    0  0.00000000000E+00 -0.00000000000E+00 -0.21130157855E+04  0.21130157855E+04  0.25500000000E-02 0.  1.
    5000001    1    1    2    0    0 -0.66948931158E+02 -0.27310768335E+03 -0.92174560522E+03  0.98262349190E+03  0.19200000000E+03 0.  0.
   -5000001    1    1    2    0    0  0.66948931158E+02  0.27310768335E+03 -0.11358633600E+04  0.11857991139E+04  0.19200000000E+03 0.  0.
<mgrwt>
<rscale>  0 0.68432590E+03</rscale>
<asrwt>0</asrwt>
<pdfrwt beam="1">  1        2 0.30185935E+00 0.68432590E+03</pdfrwt>
<pdfrwt beam="2">  1       -2 0.79152614E-02 0.68432590E+03</pdfrwt>
<totfact> 0.72084300E+02</totfact>
</mgrwt>
</event>
<event>
 4    1  0.2892809E-005  0.5831373E+03  0.7818608E-02  0.9941022E-01
          2   -1    0    0  501    0  0.00000000000E+00  0.00000000000E+00  0.11101287831E+04  0.11101287831E+04  0.25500000000E-02 0.  1.
         -2   -1    0    0    0  501 -0.00000000000E+00 -0.00000000000E+00 -0.76578760698E+02  0.76578760740E+02  0.25500000000E-02 0. -1.
    5000001    1    1    2    0    0 -0.10991982399E+03  0.18989989723E+03  0.52081843303E+03  0.59687534617E+03  0.19200000000E+03 0.  0.
   -5000001    1    1    2    0    0  0.10991982399E+03 -0.18989989723E+03  0.51273158933E+03  0.58983219764E+03  0.19200000000E+03 0.  0.
<mgrwt>
<rscale>  0 0.58313733E+03</rscale>
<asrwt>0</asrwt>
<pdfrwt beam="1">  1        2 0.15858981E+00 0.58313733E+03</pdfrwt>
<pdfrwt beam="2">  1       -2 0.10939824E-01 0.58313733E+03</pdfrwt>
<totfact> 0.14372353E+03</totfact>
</mgrwt>
</event>
<event>
 4    1  0.2892809E-005  0.5414790E+03  0.7818608E-02  0.1003486E+00
          2   -1    0    0  501    0  0.00000000000E+00  0.00000000000E+00  0.51637713663E+04  0.51637713663E+04  0.25500000000E-02 0.  1.
         -2   -1    0    0    0  501 -0.00000000000E+00 -0.00000000000E+00 -0.14195029427E+02  0.14195029656E+02  0.25500000000E-02 0. -1.
    5000001    1    1    2    0    0 -0.32191382195E+02 -0.18505212957E+03  0.22497554364E+04  0.22657325746E+04  0.19200000000E+03 0.  0.
   -5000001    1    1    2    0    0  0.32191382195E+02  0.18505212957E+03  0.28998209004E+04  0.29122338213E+04  0.19200000000E+03 0.  0.
<mgrwt>
<rscale>  0 0.54147904E+03</rscale>
<asrwt>0</asrwt>
<pdfrwt beam="1">  1        2 0.73768046E+00 0.54147904E+03</pdfrwt>
<pdfrwt beam="2">  1       -2 0.20278645E-02 0.54147904E+03</pdfrwt>
<totfact> 0.59696531E+01</totfact>
</mgrwt>
</event>
<event>
 4    1  0.2892809E-005  0.6784928E+03  0.7818608E-02  0.9754736E-01
          2   -1    0    0  501    0  0.00000000000E+00  0.00000000000E+00  0.85873020053E+03  0.85873020053E+03  0.25500000000E-02 0.  1.
         -2   -1    0    0    0  501 -0.00000000000E+00 -0.00000000000E+00 -0.13402127578E+03  0.13402127580E+03  0.25500000000E-02 0. -1.
    5000001    1    1    2    0    0 -0.11901441835E+03  0.24836857189E+03  0.43362666396E+03  0.54840447024E+03  0.19200000000E+03 0.  0.
   -5000001    1    1    2    0    0  0.11901441835E+03 -0.24836857189E+03  0.29108226079E+03  0.44434700610E+03  0.19200000000E+03 0.  0.
<mgrwt>
<rscale>  0 0.67849279E+03</rscale>
<asrwt>0</asrwt>
<pdfrwt beam="1">  1        2 0.12267574E+00 0.67849279E+03</pdfrwt>
<pdfrwt beam="2">  1       -2 0.19145897E-01 0.67849279E+03</pdfrwt>
<totfact> 0.80057792E+02</totfact>
</mgrwt>
</event>
<event>
 4    1  0.2892809E-005  0.6350480E+03  0.7818608E-02  0.9835247E-01
          2   -1    0    0  501    0  0.00000000000E+00  0.00000000000E+00  0.36187764561E+03  0.36187764562E+03  0.25500000000E-02 0.  1.
         -2   -1    0    0    0  501 -0.00000000000E+00 -0.00000000000E+00 -0.27860653211E+03  0.27860653212E+03  0.25500000000E-02 0. -1.
    5000001    1    1    2    0    0  0.13372816009E+02 -0.24901912758E+03  0.84044503035E+02  0.32575579288E+03  0.19200000000E+03 0.  0.
   -5000001    1    1    2    0    0 -0.13372816009E+02  0.24901912758E+03 -0.77338953305E+00  0.31472838486E+03  0.19200000000E+03 0.  0.
<mgrwt>
<rscale>  0 0.63504795E+03</rscale>
<asrwt>0</asrwt>
<pdfrwt beam="1">  1        2 0.51696807E-01 0.63504795E+03</pdfrwt>
<pdfrwt beam="2">  1       -2 0.39800933E-01 0.63504795E+03</pdfrwt>
<totfact> 0.58155412E+02</totfact>
</mgrwt>
</event>
<event>
 4    1  0.2892809E-005  0.4858327E+03  0.7818608E-02  0.1017544E+00
          2   -1    0    0  501    0  0.00000000000E+00  0.00000000000E+00  0.20563785800E+04  0.20563785800E+04  0.25500000000E-02 0.  1.
         -2   -1    0    0    0  501 -0.00000000000E+00 -0.00000000000E+00 -0.28695271700E+02  0.28695271813E+02  0.25500000000E-02 0. -1.
    5000001    1    1    2    0    0  0.87990445301E+02 -0.10093340054E+03  0.12924578419E+04  0.13134843519E+04  0.19200000000E+03 0.  0.
   -5000001    1    1    2    0    0 -0.87990445301E+02  0.10093340054E+03  0.73522546639E+03  0.77158949982E+03  0.19200000000E+03 0.  0.
<mgrwt>
<rscale>  0 0.48583266E+03</rscale>
<asrwt>0</asrwt>
<pdfrwt beam="1">  1        2 0.29376839E+00 0.48583266E+03</pdfrwt>
<pdfrwt beam="2">  1       -2 0.40993243E-02 0.48583266E+03</pdfrwt>
<totfact> 0.21736126E+03</totfact>
</mgrwt>
</event>
<event>
 4    1  0.2892809E-005  0.5459219E+03  0.7818608E-02  0.1002442E+00
         -2   -1    0    0    0  501 -0.00000000000E+00  0.00000000000E+00  0.64010694094E+02  0.64010694145E+02  0.25500000000E-02 0. -1.
          2   -1    0    0  501    0  0.00000000000E+00 -0.00000000000E+00 -0.11639881493E+04  0.11639881493E+04  0.25500000000E-02 0.  1.
    5000001    1    1    2    0    0 -0.17578198479E+03  0.80631207912E+02 -0.51492460518E+03  0.58259080570E+03  0.19200000000E+03 0.  0.
   -5000001    1    1    2    0    0  0.17578198479E+03 -0.80631207912E+02 -0.58505285004E+03  0.64540803777E+03  0.19200000000E+03 0.  0.
<mgrwt>
<rscale>  0 0.54592193E+03</rscale>
<asrwt>0</asrwt>
<pdfrwt beam="1">  1        2 0.16628401E+00 0.54592193E+03</pdfrwt>
<pdfrwt beam="2">  1       -2 0.91443856E-02 0.54592193E+03</pdfrwt>
<totfact> 0.17908641E+03</totfact>
</mgrwt>
</event>
<event>
 4    1  0.2892809E-005  0.6295758E+03  0.7818608E-02  0.9845877E-01
          2   -1    0    0  501    0  0.00000000000E+00  0.00000000000E+00  0.11940733712E+04  0.11940733712E+04  0.25500000000E-02 0.  1.
         -2   -1    0    0    0  501 -0.00000000000E+00 -0.00000000000E+00 -0.82986030591E+02  0.82986030630E+02  0.25500000000E-02 0. -1.
    5000001    1    1    2    0    0 -0.19757752127E+03 -0.85427147995E+02  0.81126232964E+03  0.86101407771E+03  0.19200000000E+03 0.  0.
   -5000001    1    1    2    0    0  0.19757752127E+03  0.85427147995E+02  0.29982501101E+03  0.41604532416E+03  0.19200000000E+03 0.  0.
<mgrwt>
<rscale>  0 0.62957576E+03</rscale>
<asrwt>0</asrwt>
<pdfrwt beam="1">  1        2 0.17058191E+00 0.62957576E+03</pdfrwt>
<pdfrwt beam="2">  1       -2 0.11855147E-01 0.62957576E+03</pdfrwt>
<totfact> 0.11270322E+03</totfact>
</mgrwt>
</event>
<event>
 4    1  0.2892809E-005  0.7480693E+03  0.7818608E-02  0.9638384E-01
         -2   -1    0    0    0  501 -0.00000000000E+00  0.00000000000E+00  0.13253312619E+03  0.13253312622E+03  0.25500000000E-02 0. -1.
          2   -1    0    0  501    0  0.00000000000E+00 -0.00000000000E+00 -0.10555996558E+04  0.10555996559E+04  0.25500000000E-02 0.  1.
    5000001    1    1    2    0    0  0.24991973947E+03 -0.47585045984E+02 -0.15064792435E+03  0.35253795525E+03  0.19200000000E+03 0.  0.
   -5000001    1    1    2    0    0 -0.24991973947E+03  0.47585045984E+02 -0.77241860531E+03  0.83559482682E+03  0.19200000000E+03 0.  0.
<mgrwt>
<rscale>  0 0.74806931E+03</rscale>
<asrwt>0</asrwt>
<pdfrwt beam="1">  1        2 0.15079995E+00 0.74806931E+03</pdfrwt>
<pdfrwt beam="2">  1       -2 0.18933304E-01 0.74806931E+03</pdfrwt>
<totfact> 0.61238374E+02</totfact>
</mgrwt>
</event>
<event>
 4    1  0.2892809E-005  0.1268053E+04  0.7818608E-02  0.9055291E-01
          2   -1    0    0  501    0  0.00000000000E+00  0.00000000000E+00  0.22052721094E+04  0.22052721094E+04  0.25500000000E-02 0.  1.
         -2   -1    0    0    0  501 -0.00000000000E+00 -0.00000000000E+00 -0.18228557226E+03  0.18228557227E+03  0.25500000000E-02 0. -1.
    5000001    1    1    2    0    0 -0.30357878288E+03  0.12307855028E+03  0.19675250108E+04  0.20038281052E+04  0.19200000000E+03 0.  0.
   -5000001    1    1    2    0    0  0.30357878288E+03 -0.12307855028E+03  0.55461526306E+02  0.38372957647E+03  0.19200000000E+03 0.  0.
<mgrwt>
<rscale>  0 0.12680525E+04</rscale>
<asrwt>0</asrwt>
<pdfrwt beam="1">  1        2 0.31503883E+00 0.12680525E+04</pdfrwt>
<pdfrwt beam="2">  1       -2 0.26040800E-01 0.12680525E+04</pdfrwt>
<totfact> 0.82363728E+01</totfact>
</mgrwt>
</event>
<event>
 4    1  0.2892809E-005  0.6221119E+03  0.7818608E-02  0.9860564E-01
         -2   -1    0    0    0  501 -0.00000000000E+00  0.00000000000E+00  0.37214148968E+02  0.37214149056E+02  0.25500000000E-02 0. -1.
          2   -1    0    0  501    0  0.00000000000E+00 -0.00000000000E+00 -0.25999736011E+04  0.25999736011E+04  0.25500000000E-02 0.  1.
    5000001    1    1    2    0    0 -0.79601446330E+02  0.15138643091E+03 -0.20233724551E+04  0.20396456393E+04  0.19200000000E+03 0.  0.
   -5000001    1    1    2    0    0  0.79601446330E+02 -0.15138643091E+03 -0.53938699705E+03  0.59754211091E+03  0.19200000000E+03 0.  0.
<mgrwt>
<rscale>  0 0.62211190E+03</rscale>
<asrwt>0</asrwt>
<pdfrwt beam="1">  1        2 0.37142468E+00 0.62211190E+03</pdfrwt>
<pdfrwt beam="2">  1       -2 0.53163087E-02 0.62211190E+03</pdfrwt>
<totfact> 0.76542410E+02</totfact>
</mgrwt>
</event>
<event>
 4    1  0.2892809E-005  0.5452985E+03  0.7818608E-02  0.1002588E+00
          2   -1    0    0  501    0  0.00000000000E+00  0.00000000000E+00  0.25518354124E+03  0.25518354125E+03  0.25500000000E-02 0.  1.
         -2   -1    0    0    0  501 -0.00000000000E+00 -0.00000000000E+00 -0.29131036763E+03  0.29131036764E+03  0.25500000000E-02 0. -1.
    5000001    1    1    2    0    0 -0.38566040709E+02 -0.18966159905E+03 -0.21912349062E+02  0.27350139431E+03  0.19200000000E+03 0.  0.
   -5000001    1    1    2    0    0  0.38566040709E+02  0.18966159905E+03 -0.14214477325E+02  0.27299251458E+03  0.19200000000E+03 0.  0.
<mgrwt>
<rscale>  0 0.54529849E+03</rscale>
<asrwt>0</asrwt>
<pdfrwt beam="1">  1        2 0.36454792E-01 0.54529849E+03</pdfrwt>
<pdfrwt beam="2">  1       -2 0.41615767E-01 0.54529849E+03</pdfrwt>
<totfact> 0.78522724E+02</totfact>
</mgrwt>
</event>
<event>
 4    1  0.2892809E-005  0.5186031E+03  0.7818608E-02  0.1009034E+00
          2   -1    0    0  501    0  0.00000000000E+00  0.00000000000E+00  0.30728066687E+04  0.30728066687E+04  0.25500000000E-02 0.  1.
         -2   -1    0    0    0  501 -0.00000000000E+00 -0.00000000000E+00 -0.21881393361E+02  0.21881393509E+02  0.25500000000E-02 0. -1.
    5000001    1    1    2    0    0  0.18714267299E+02 -0.17164291197E+03  0.13840251971E+04  0.14079066941E+04  0.19200000000E+03 0.  0.
   -5000001    1    1    2    0    0 -0.18714267299E+02  0.17164291197E+03  0.16669000782E+04  0.16867813681E+04  0.19200000000E+03 0.  0.
<mgrwt>
<rscale>  0 0.51860309E+03</rscale>
<asrwt>0</asrwt>
<pdfrwt beam="1">  1        2 0.43897228E+00 0.51860309E+03</pdfrwt>
<pdfrwt beam="2">  1       -2 0.31259141E-02 0.51860309E+03</pdfrwt>
<totfact> 0.97882520E+02</totfact>
</mgrwt>
</event>
<event>
 4    1  0.2892809E-005  0.6365779E+03  0.7818608E-02  0.9832296E-01
         -2   -1    0    0    0  501 -0.00000000000E+00  0.00000000000E+00  0.54966054743E+02  0.54966054802E+02  0.25500000000E-02 0. -1.
          2   -1    0    0  501    0  0.00000000000E+00 -0.00000000000E+00 -0.18430985325E+04  0.18430985325E+04  0.25500000000E-02 0.  1.
    5000001    1    1    2    0    0 -0.17843770164E+03 -0.16520961821E+03 -0.67680047462E+03  0.74435012847E+03  0.19200000000E+03 0.  0.
   -5000001    1    1    2    0    0  0.17843770164E+03  0.16520961821E+03 -0.11113320032E+04  0.11537144589E+04  0.19200000000E+03 0.  0.
<mgrwt>
<rscale>  0 0.63657790E+03</rscale>
<asrwt>0</asrwt>
<pdfrwt beam="1">  1        2 0.26329975E+00 0.63657790E+03</pdfrwt>
<pdfrwt beam="2">  1       -2 0.78522947E-02 0.63657790E+03</pdfrwt>
<totfact> 0.10015450E+03</totfact>
</mgrwt>
</event>
<event>
 4    1  0.2892809E-005  0.6994555E+03  0.7818608E-02  0.9718164E-01
          2   -1    0    0  501    0  0.00000000000E+00  0.00000000000E+00  0.10666308550E+04  0.10666308550E+04  0.25500000000E-02 0.  1.
         -2   -1    0    0    0  501 -0.00000000000E+00 -0.00000000000E+00 -0.11466899522E+03  0.11466899525E+03  0.25500000000E-02 0. -1.
    5000001    1    1    2    0    0 -0.62244545833E+02  0.28324967633E+03  0.53782101290E+03  0.64048435152E+03  0.19200000000E+03 0.  0.
   -5000001    1    1    2    0    0  0.62244545833E+02 -0.28324967633E+03  0.41414084690E+03  0.54081549876E+03  0.19200000000E+03 0.  0.
<mgrwt>
<rscale>  0 0.69945547E+03</rscale>
<asrwt>0</asrwt>
<pdfrwt beam="1">  1        2 0.15237583E+00 0.69945547E+03</pdfrwt>
<pdfrwt beam="2">  1       -2 0.16381285E-01 0.69945547E+03</pdfrwt>
<totfact> 0.77511373E+02</totfact>
</mgrwt>
</event>
<event>
 4    1  0.2892809E-005  0.7143192E+03  0.7818608E-02  0.9693053E-01
          2   -1    0    0  501    0  0.00000000000E+00  0.00000000000E+00  0.13120826817E+03  0.13120826820E+03  0.25500000000E-02 0.  1.
         -2   -1    0    0    0  501 -0.00000000000E+00 -0.00000000000E+00 -0.97221742360E+03  0.97221742360E+03  0.25500000000E-02 0. -1.
    5000001    1    1    2    0    0 -0.29127175891E+03 -0.33943398550E+02 -0.52649077445E+03  0.63249342086E+03  0.19200000000E+03 0.  0.
   -5000001    1    1    2    0    0  0.29127175891E+03  0.33943398550E+02 -0.31451838097E+03  0.47093227094E+03  0.19200000000E+03 0.  0.
<mgrwt>
<rscale>  0 0.71431916E+03</rscale>
<asrwt>0</asrwt>
<pdfrwt beam="1">  1        2 0.18744039E-01 0.71431916E+03</pdfrwt>
<pdfrwt beam="2">  1       -2 0.13888820E+00 0.71431916E+03</pdfrwt>
<totfact> 0.11380823E+02</totfact>
</mgrwt>
</event>
<event>
 4    1  0.2892809E-005  0.6777204E+03  0.7818608E-02  0.9756111E-01
         -2   -1    0    0    0  501 -0.00000000000E+00  0.00000000000E+00  0.61189196121E+02  0.61189196174E+02  0.25500000000E-02 0. -1.
          2   -1    0    0  501    0  0.00000000000E+00 -0.00000000000E+00 -0.18765770035E+04  0.18765770035E+04  0.25500000000E-02 0.  1.
    5000001    1    1    2    0    0  0.24538696605E+03 -0.13213876124E+03 -0.85927022049E+03  0.92351758356E+03  0.19200000000E+03 0.  0.
   -5000001    1    1    2    0    0 -0.24538696605E+03  0.13213876124E+03 -0.95611758689E+03  0.10142486161E+04  0.19200000000E+03 0.  0.
<mgrwt>
<rscale>  0 0.67772041E+03</rscale>
<asrwt>0</asrwt>
<pdfrwt beam="1">  1        2 0.26808239E+00 0.67772041E+03</pdfrwt>
<pdfrwt beam="2">  1       -2 0.87413149E-02 0.67772041E+03</pdfrwt>
<totfact> 0.80953314E+02</totfact>
</mgrwt>
</event>
<event>
 4    1  0.2892809E-005  0.7140694E+03  0.7818608E-02  0.9693470E-01
         -2   -1    0    0    0  501 -0.00000000000E+00  0.00000000000E+00  0.17101441209E+03  0.17101441211E+03  0.25500000000E-02 0. -1.
          2   -1    0    0  501    0  0.00000000000E+00 -0.00000000000E+00 -0.74539791914E+03  0.74539791915E+03  0.25500000000E-02 0.  1.
    5000001    1    1    2    0    0 -0.20757328734E+03  0.61018295152E+02 -0.18603528113E+02  0.28986202445E+03  0.19200000000E+03 0.  0.
   -5000001    1    1    2    0    0  0.20757328734E+03 -0.61018295152E+02 -0.55577997894E+03  0.62655030680E+03  0.19200000000E+03 0.  0.
<mgrwt>
<rscale>  0 0.71406943E+03</rscale>
<asrwt>0</asrwt>
<pdfrwt beam="1">  1        2 0.10648542E+00 0.71406943E+03</pdfrwt>
<pdfrwt beam="2">  1       -2 0.24430631E-01 0.71406943E+03</pdfrwt>
<totfact> 0.62389438E+02</totfact>
</mgrwt>
</event>
<event>
 4    1  0.2892809E-005  0.6650385E+03  0.7818608E-02  0.9778963E-01
          2   -1    0    0  501    0  0.00000000000E+00  0.00000000000E+00  0.47761910526E+03  0.47761910526E+03  0.25500000000E-02 0.  1.
         -2   -1    0    0    0  501 -0.00000000000E+00 -0.00000000000E+00 -0.23150044703E+03  0.23150044705E+03  0.25500000000E-02 0. -1.
    5000001    1    1    2    0    0  0.20378081138E+03 -0.81994178773E+02  0.29318209141E+03  0.41360537129E+03  0.19200000000E+03 0.  0.
   -5000001    1    1    2    0    0 -0.20378081138E+03  0.81994178773E+02 -0.47063433185E+02  0.29551418102E+03  0.19200000000E+03 0.  0.
<mgrwt>
<rscale>  0 0.66503845E+03</rscale>
<asrwt>0</asrwt>
<pdfrwt beam="1">  1        2 0.68231300E-01 0.66503845E+03</pdfrwt>
<pdfrwt beam="2">  1       -2 0.33071493E-01 0.66503845E+03</pdfrwt>
<totfact> 0.60696971E+02</totfact>
</mgrwt>
</event>
<event>
 4    1  0.2892809E-005  0.6942270E+03  0.7818608E-02  0.9727156E-01
          2   -1    0    0  501    0  0.00000000000E+00  0.00000000000E+00  0.24022715767E+04  0.24022715767E+04  0.25500000000E-02 0. -1.
         -2   -1    0    0    0  501 -0.00000000000E+00 -0.00000000000E+00 -0.50155764128E+02  0.50155764193E+02  0.25500000000E-02 0.  1.
    5000001    1    1    2    0    0 -0.63579545289E+02  0.24096692843E+03  0.16942358831E+04  0.17231966361E+04  0.19200000000E+03 0.  0.
   -5000001    1    1    2    0    0  0.63579545289E+02 -0.24096692843E+03  0.65787992952E+03  0.72923070481E+03  0.19200000000E+03 0.  0.
<mgrwt>
<rscale>  0 0.69422696E+03</rscale>
<asrwt>0</asrwt>
<pdfrwt beam="1">  1        2 0.34318167E+00 0.69422696E+03</pdfrwt>
<pdfrwt beam="2">  1       -2 0.71651088E-02 0.69422696E+03</pdfrwt>
<totfact> 0.60194984E+02</totfact>
</mgrwt>
</event>
<event>
 4    1  0.2892809E-005  0.5062574E+03  0.7818608E-02  0.1012158E+00
         -2   -1    0    0    0  501 -0.00000000000E+00  0.00000000000E+00  0.33642258898E+02  0.33642258994E+02  0.25500000000E-02 0. -1.
          2   -1    0    0  501    0  0.00000000000E+00 -0.00000000000E+00 -0.19045727627E+04  0.19045727627E+04  0.25500000000E-02 0.  1.
    5000001    1    1    2    0    0  0.97541193624E+02 -0.12074094065E+03 -0.72170261318E+03  0.76276557413E+03  0.19200000000E+03 0.  0.
   -5000001    1    1    2    0    0 -0.97541193624E+02  0.12074094065E+03 -0.11492278906E+04  0.11754494475E+04  0.19200000000E+03 0.  0.
<mgrwt>
<rscale>  0 0.50625737E+03</rscale>
<asrwt>0</asrwt>
<pdfrwt beam="1">  1        2 0.27208175E+00 0.50625737E+03</pdfrwt>
<pdfrwt beam="2">  1       -2 0.48060382E-02 0.50625737E+03</pdfrwt>
<totfact> 0.20251169E+03</totfact>
</mgrwt>
</event>
<event>
 4    1  0.2892809E-005  0.4439255E+03  0.7818608E-02  0.1029549E+00
         -2   -1    0    0    0  501 -0.00000000000E+00  0.00000000000E+00  0.20929736647E+03  0.20929736648E+03  0.25500000000E-02 0. -1.
          2   -1    0    0  501    0  0.00000000000E+00 -0.00000000000E+00 -0.23539452605E+03  0.23539452606E+03  0.25500000000E-02 0.  1.
    5000001    1    1    2    0    0 -0.79513524967E+02 -0.18985591434E+02  0.62716657064E+02  0.21789959249E+03  0.19200000000E+03 0.  0.
   -5000001    1    1    2    0    0  0.79513524967E+02  0.18985591434E+02 -0.88813816644E+02  0.22679230005E+03  0.19200000000E+03 0.  0.
<mgrwt>
<rscale>  0 0.44392546E+03</rscale>
<asrwt>0</asrwt>
<pdfrwt beam="1">  1        2 0.33627789E-01 0.44392546E+03</pdfrwt>
<pdfrwt beam="2">  1       -2 0.29899624E-01 0.44392546E+03</pdfrwt>
<totfact> 0.16038142E+03</totfact>
</mgrwt>
</event>
<event>
 4    1  0.2892809E-005  0.1271996E+04  0.7818608E-02  0.9052072E-01
          2   -1    0    0  501    0  0.00000000000E+00  0.00000000000E+00  0.14526883749E+04  0.14526883749E+04  0.25500000000E-02 0.  1.
         -2   -1    0    0    0  501 -0.00000000000E+00 -0.00000000000E+00 -0.27844466775E+03  0.27844466776E+03  0.25500000000E-02 0. -1.
    5000001    1    1    2    0    0  0.15664831257E+03  0.54614776389E+03  0.87522501696E+03  0.10609895872E+04  0.19200000000E+03 0.  0.
   -5000001    1    1    2    0    0 -0.15664831257E+03 -0.54614776389E+03  0.29901869023E+03  0.67014345549E+03  0.19200000000E+03 0.  0.
<mgrwt>
<rscale>  0 0.12719958E+04</rscale>
<asrwt>0</asrwt>
<pdfrwt beam="1">  1        2 0.20752691E+00 0.12719958E+04</pdfrwt>
<pdfrwt beam="2">  1       -2 0.39777810E-01 0.12719958E+04</pdfrwt>
<totfact> 0.90964788E+01</totfact>
</mgrwt>
</event>
<event>
 4    1  0.2892809E-005  0.6351334E+03  0.7818608E-02  0.9835082E-01
          2   -1    0    0  501    0  0.00000000000E+00  0.00000000000E+00  0.12491976780E+04  0.12491976780E+04  0.25500000000E-02 0.  1.
         -2   -1    0    0    0  501 -0.00000000000E+00 -0.00000000000E+00 -0.80730713151E+02  0.80730713191E+02  0.25500000000E-02 0. -1.
    5000001    1    1    2    0    0  0.22626576069E+03 -0.72554228334E+02  0.76586725024E+03  0.82454651506E+03  0.19200000000E+03 0.  0.
   -5000001    1    1    2    0    0 -0.22626576069E+03  0.72554228334E+02  0.40259971457E+03  0.50538187609E+03  0.19200000000E+03 0.  0.
<mgrwt>
<rscale>  0 0.63513343E+03</rscale>
<asrwt>0</asrwt>
<pdfrwt beam="1">  1        2 0.17845681E+00 0.63513343E+03</pdfrwt>
<pdfrwt beam="2">  1       -2 0.11532959E-01 0.63513343E+03</pdfrwt>
<totfact> 0.10984958E+03</totfact>
</mgrwt>
</event>
<event>
 4    1  0.2892809E-005  0.5705941E+03  0.7818608E-02  0.9968365E-01
         -2   -1    0    0    0  501 -0.00000000000E+00  0.00000000000E+00  0.10118830998E+03  0.10118831001E+03  0.25500000000E-02 0. -1.
          2   -1    0    0  501    0  0.00000000000E+00 -0.00000000000E+00 -0.80438535938E+03  0.80438535939E+03  0.25500000000E-02 0.  1.
    5000001    1    1    2    0    0  0.83352348793E+01 -0.20633504878E+03 -0.28266100856E+03  0.39925539978E+03  0.19200000000E+03 0.  0.
   -5000001    1    1    2    0    0 -0.83352348793E+01  0.20633504878E+03 -0.42053604085E+03  0.50631826962E+03  0.19200000000E+03 0.  0.
<mgrwt>
<rscale>  0 0.57059406E+03</rscale>
<asrwt>0</asrwt>
<pdfrwt beam="1">  1        2 0.11491219E+00 0.57059406E+03</pdfrwt>
<pdfrwt beam="2">  1       -2 0.14455473E-01 0.57059406E+03</pdfrwt>
<totfact> 0.14098981E+03</totfact>
</mgrwt>
</event>
<event>
 4    1  0.2892809E-005  0.5160824E+03  0.7818608E-02  0.1009664E+00
          2   -1    0    0  501    0  0.00000000000E+00  0.00000000000E+00  0.15124126780E+03  0.15124126782E+03  0.25500000000E-02 0.  1.
         -2   -1    0    0    0  501 -0.00000000000E+00 -0.00000000000E+00 -0.44025849501E+03  0.44025849501E+03  0.25500000000E-02 0. -1.
    5000001    1    1    2    0    0 -0.59480281689E+02 -0.12297269181E+03 -0.23967820045E+02  0.23685152150E+03  0.19200000000E+03 0.  0.
   -5000001    1    1    2    0    0  0.59480281689E+02  0.12297269181E+03 -0.26504940716E+03  0.35464824133E+03  0.19200000000E+03 0.  0.
<mgrwt>
<rscale>  0 0.51608237E+03</rscale>
<asrwt>0</asrwt>
<pdfrwt beam="1">  1        2 0.21605896E-01 0.51608237E+03</pdfrwt>
<pdfrwt beam="2">  1       -2 0.62894070E-01 0.51608237E+03</pdfrwt>
<totfact> 0.61236368E+02</totfact>
</mgrwt>
</event>
<event>
 4    1  0.2892809E-005  0.6331214E+03  0.7818608E-02  0.9838976E-01
          2   -1    0    0  501    0  0.00000000000E+00  0.00000000000E+00  0.97976975737E+03  0.97976975737E+03  0.25500000000E-02 0.  1.
         -2   -1    0    0    0  501 -0.00000000000E+00 -0.00000000000E+00 -0.10227983565E+03  0.10227983568E+03  0.25500000000E-02 0. -1.
    5000001    1    1    2    0    0  0.72653592438E+01  0.24117509650E+03  0.31635258718E+03  0.44177049701E+03  0.19200000000E+03 0.  0.
   -5000001    1    1    2    0    0 -0.72653592438E+01 -0.24117509650E+03  0.56113733454E+03  0.64027909604E+03  0.19200000000E+03 0.  0.
<mgrwt>
<rscale>  0 0.63312144E+03</rscale>
<asrwt>0</asrwt>
<pdfrwt beam="1">  1        2 0.13996710E+00 0.63312144E+03</pdfrwt>
<pdfrwt beam="2">  1       -2 0.14611406E-01 0.63312144E+03</pdfrwt>
<totfact> 0.10636234E+03</totfact>
</mgrwt>
</event>
<event>
 4    1  0.2892809E-005  0.5680225E+03  0.7818608E-02  0.9974064E-01
          2   -1    0    0  501    0  0.00000000000E+00  0.00000000000E+00  0.27117988656E+04  0.27117988656E+04  0.25500000000E-02 0. -1.
         -2   -1    0    0    0  501 -0.00000000000E+00 -0.00000000000E+00 -0.29744975216E+02  0.29744975326E+02  0.25500000000E-02 0.  1.
    5000001    1    1    2    0    0  0.18752859038E+02  0.15935528688E+03  0.19895115831E+04  0.20051848085E+04  0.19200000000E+03 0.  0.
   -5000001    1    1    2    0    0 -0.18752859038E+02 -0.15935528688E+03  0.69254230732E+03  0.73635903240E+03  0.19200000000E+03 0.  0.
<mgrwt>
<rscale>  0 0.56802250E+03</rscale>
<asrwt>0</asrwt>
<pdfrwt beam="1">  1        2 0.38739954E+00 0.56802250E+03</pdfrwt>
<pdfrwt beam="2">  1       -2 0.42492855E-02 0.56802250E+03</pdfrwt>
<totfact> 0.95090245E+02</totfact>
</mgrwt>
</event>
<event>
 4    1  0.2892809E-005  0.7278472E+03  0.7818608E-02  0.9670760E-01
         -2   -1    0    0    0  501 -0.00000000000E+00  0.00000000000E+00  0.88155524290E+02  0.88155524327E+02  0.25500000000E-02 0.  1.
          2   -1    0    0  501    0  0.00000000000E+00 -0.00000000000E+00 -0.15023492890E+04  0.15023492890E+04  0.25500000000E-02 0. -1.
    5000001    1    1    2    0    0  0.25000944761E+03  0.15789683059E+03 -0.90425461109E+03  0.97055475615E+03  0.19200000000E+03 0.  0.
   -5000001    1    1    2    0    0 -0.25000944761E+03 -0.15789683059E+03 -0.50993915361E+03  0.61995005717E+03  0.19200000000E+03 0.  0.
<mgrwt>
<rscale>  0 0.72784721E+03</rscale>
<asrwt>0</asrwt>
<pdfrwt beam="1">  1        2 0.21462131E+00 0.72784721E+03</pdfrwt>
<pdfrwt beam="2">  1       -2 0.12593647E-01 0.72784721E+03</pdfrwt>
<totfact> 0.69203901E+02</totfact>
</mgrwt>
</event>
<event>
 4    1  0.2892809E-005  0.1158471E+04  0.7818608E-02  0.9150004E-01
          2   -1    0    0  501    0  0.00000000000E+00  0.00000000000E+00  0.13312418767E+04  0.13312418767E+04  0.25500000000E-02 0.  1.
         -2   -1    0    0    0  501 -0.00000000000E+00 -0.00000000000E+00 -0.25203079714E+03  0.25203079716E+03  0.25500000000E-02 0. -1.
    5000001    1    1    2    0    0  0.13400854822E+03  0.52827416462E+03  0.59458098169E+03  0.82910941846E+03  0.19200000000E+03 0.  0.
   -5000001    1    1    2    0    0 -0.13400854822E+03 -0.52827416462E+03  0.48463009782E+03  0.75416325535E+03  0.19200000000E+03 0.  0.
<mgrwt>
<rscale>  0 0.11584713E+04</rscale>
<asrwt>0</asrwt>
<pdfrwt beam="1">  1        2 0.19017741E+00 0.11584713E+04</pdfrwt>
<pdfrwt beam="2">  1       -2 0.36004400E-01 0.11584713E+04</pdfrwt>
<totfact> 0.12934930E+02</totfact>
</mgrwt>
</event>
<event>
 4    1  0.2892809E-005  0.5505630E+03  0.7818608E-02  0.1001364E+00
          2   -1    0    0  501    0  0.00000000000E+00  0.00000000000E+00  0.15050734493E+04  0.15050734493E+04  0.25500000000E-02 0.  1.
         -2   -1    0    0    0  501 -0.00000000000E+00 -0.00000000000E+00 -0.50349642119E+02  0.50349642184E+02  0.25500000000E-02 0. -1.
    5000001    1    1    2    0    0 -0.81453383587E+02  0.15738417407E+03  0.48250959984E+03  0.54871116799E+03  0.19200000000E+03 0.  0.
   -5000001    1    1    2    0    0  0.81453383587E+02 -0.15738417407E+03  0.97221420736E+03  0.10067119235E+04  0.19200000000E+03 0.  0.
<mgrwt>
<rscale>  0 0.55056302E+03</rscale>
<asrwt>0</asrwt>
<pdfrwt beam="1">  1        2 0.21501046E+00 0.55056302E+03</pdfrwt>
<pdfrwt beam="2">  1       -2 0.71928070E-02 0.55056302E+03</pdfrwt>
<totfact> 0.17187467E+03</totfact>
</mgrwt>
</event>
<event>
 4    1  0.2892809E-005  0.5671451E+03  0.7818608E-02  0.9976016E-01
          2   -1    0    0  501    0  0.00000000000E+00  0.00000000000E+00  0.27991926035E+04  0.27991926035E+04  0.25500000000E-02 0.  1.
         -2   -1    0    0    0  501 -0.00000000000E+00 -0.00000000000E+00 -0.28727350770E+02  0.28727350884E+02  0.25500000000E-02 0. -1.
    5000001    1    1    2    0    0 -0.10362841287E+03  0.98774773351E+02  0.62814373530E+03  0.67225282149E+03  0.19200000000E+03 0.  0.
   -5000001    1    1    2    0    0  0.10362841287E+03 -0.98774773351E+02  0.21423215175E+04  0.21556671329E+04  0.19200000000E+03 0.  0.
<mgrwt>
<rscale>  0 0.56714509E+03</rscale>
<asrwt>0</asrwt>
<pdfrwt beam="1">  1        2 0.39988503E+00 0.56714509E+03</pdfrwt>
<pdfrwt beam="2">  1       -2 0.41039035E-02 0.56714509E+03</pdfrwt>
<totfact> 0.90251429E+02</totfact>
</mgrwt>
</event>
<event>
 4    1  0.2892809E-005  0.4608864E+03  0.7818608E-02  0.1024524E+00
          2   -1    0    0  501    0  0.00000000000E+00  0.00000000000E+00  0.43106416055E+03  0.43106416056E+03  0.25500000000E-02 0.  1.
         -2   -1    0    0    0  501 -0.00000000000E+00 -0.00000000000E+00 -0.12319296212E+03  0.12319296215E+03  0.25500000000E-02 0. -1.
    5000001    1    1    2    0    0  0.11962064302E+03 -0.20936547475E+02  0.10747401860E+03  0.25132071528E+03  0.19200000000E+03 0.  0.
   -5000001    1    1    2    0    0 -0.11962064302E+03  0.20936547475E+02  0.20039717984E+03  0.30293640743E+03  0.19200000000E+03 0.  0.
<mgrwt>
<rscale>  0 0.46088641E+03</rscale>
<asrwt>0</asrwt>
<pdfrwt beam="1">  1        2 0.61580595E-01 0.46088641E+03</pdfrwt>
<pdfrwt beam="2">  1       -2 0.17598994E-01 0.46088641E+03</pdfrwt>
<totfact> 0.21034795E+03</totfact>
</mgrwt>
</event>
<event>
 4    1  0.2892809E-005  0.6817620E+03  0.7818608E-02  0.9748940E-01
          2   -1    0    0  501    0  0.00000000000E+00  0.00000000000E+00  0.59403075026E+03  0.59403075027E+03  0.25500000000E-02 0.  1.
         -2   -1    0    0    0  501 -0.00000000000E+00 -0.00000000000E+00 -0.19561250598E+03  0.19561250600E+03  0.25500000000E-02 0. -1.
    5000001    1    1    2    0    0 -0.17535358366E+03 -0.21603974539E+03  0.24987850588E+03  0.42038710564E+03  0.19200000000E+03 0.  0.
   -5000001    1    1    2    0    0  0.17535358366E+03  0.21603974539E+03  0.14853973840E+03  0.36925615063E+03  0.19200000000E+03 0.  0.
<mgrwt>
<rscale>  0 0.68176196E+03</rscale>
<asrwt>0</asrwt>
<pdfrwt beam="1">  1        2 0.84861538E-01 0.68176196E+03</pdfrwt>
<pdfrwt beam="2">  1       -2 0.27944643E-01 0.68176196E+03</pdfrwt>
<totfact> 0.64469052E+02</totfact>
</mgrwt>
</event>
<event>
 4    1  0.2892809E-005  0.6856097E+03  0.7818608E-02  0.9742163E-01
          2   -1    0    0  501    0  0.00000000000E+00  0.00000000000E+00  0.28767223972E+04  0.28767223972E+04  0.25500000000E-02 0.  1.
         -2   -1    0    0    0  501 -0.00000000000E+00 -0.00000000000E+00 -0.40850362439E+02  0.40850362519E+02  0.25500000000E-02 0. -1.
    5000001    1    1    2    0    0 -0.21643779813E+03 -0.55808811712E+02  0.21634430795E+04  0.21834170243E+04  0.19200000000E+03 0.  0.
   -5000001    1    1    2    0    0  0.21643779813E+03  0.55808811712E+02  0.67242895525E+03  0.73415573538E+03  0.19200000000E+03 0.  0.
<mgrwt>
<rscale>  0 0.68560966E+03</rscale>
<asrwt>0</asrwt>
<pdfrwt beam="1">  1        2 0.41096050E+00 0.68560966E+03</pdfrwt>
<pdfrwt beam="2">  1       -2 0.58357638E-02 0.68560966E+03</pdfrwt>
<totfact> 0.47030165E+02</totfact>
</mgrwt>
</event>
<event>
 4    1  0.2892809E-005  0.5298504E+03  0.7818608E-02  0.1006268E+00
         -2   -1    0    0    0  501 -0.00000000000E+00  0.00000000000E+00  0.69212917092E+03  0.69212917092E+03  0.25500000000E-02 0. -1.
          2   -1    0    0  501    0  0.00000000000E+00 -0.00000000000E+00 -0.10140501083E+03  0.10140501087E+03  0.25500000000E-02 0.  1.
    5000001    1    1    2    0    0  0.15726586307E+03  0.22163054439E+02  0.16059280931E+03  0.29644190506E+03  0.19200000000E+03 0.  0.
   -5000001    1    1    2    0    0 -0.15726586307E+03 -0.22163054439E+02  0.43013135077E+03  0.49709227673E+03  0.19200000000E+03 0.  0.
<mgrwt>
<rscale>  0 0.52985042E+03</rscale>
<asrwt>0</asrwt>
<pdfrwt beam="1">  1        2 0.14486430E-01 0.52985042E+03</pdfrwt>
<pdfrwt beam="2">  1       -2 0.98875597E-01 0.52985042E+03</pdfrwt>
<totfact> 0.35891768E+02</totfact>
</mgrwt>
</event>
<event>
 4    1  0.2892809E-005  0.2155865E+04  0.7818608E-02  0.8537026E-01
         -2   -1    0    0    0  501 -0.00000000000E+00  0.00000000000E+00  0.59421353447E+03  0.59421353447E+03  0.25500000000E-02 0. -1.
          2   -1    0    0  501    0  0.00000000000E+00 -0.00000000000E+00 -0.19554221612E+04  0.19554221612E+04  0.25500000000E-02 0.  1.
    5000001    1    1    2    0    0 -0.59732197125E+03  0.86814322614E+03 -0.53766434090E+03  0.11985045440E+04  0.19200000000E+03 0.  0.
   -5000001    1    1    2    0    0  0.59732197125E+03 -0.86814322614E+03 -0.82354428587E+03  0.13511311517E+04  0.19200000000E+03 0.  0.
<mgrwt>
<rscale>  0 0.21558649E+04</rscale>
<asrwt>0</asrwt>
<pdfrwt beam="1">  1        2 0.27934602E+00 0.21558649E+04</pdfrwt>
<pdfrwt beam="2">  1       -2 0.84887649E-01 0.21558649E+04</pdfrwt>
<totfact> 0.94204682E+00</totfact>
</mgrwt>
</event>
<event>
 4    1  0.2892809E-005  0.1381283E+04  0.7818608E-02  0.8967479E-01
         -2   -1    0    0    0  501 -0.00000000000E+00  0.00000000000E+00  0.13561153515E+04  0.13561153515E+04  0.25500000000E-02 0. -1.
          2   -1    0    0  501    0  0.00000000000E+00 -0.00000000000E+00 -0.35172951238E+03  0.35172951239E+03  0.25500000000E-02 0.  1.
    5000001    1    1    2    0    0 -0.53891631547E+03  0.15092235499E+03  0.61719701360E+02  0.59487954566E+03  0.19200000000E+03 0.  0.
   -5000001    1    1    2    0    0  0.53891631547E+03 -0.15092235499E+03  0.94266613776E+03  0.11129653182E+04  0.19200000000E+03 0.  0.
<mgrwt>
<rscale>  0 0.13812832E+04</rscale>
<asrwt>0</asrwt>
<pdfrwt beam="1">  1        2 0.50247072E-01 0.13812832E+04</pdfrwt>
<pdfrwt beam="2">  1       -2 0.19373077E+00 0.13812832E+04</pdfrwt>
<totfact> 0.14253642E+01</totfact>
</mgrwt>
</event>
<event>
 4    1  0.2892809E-005  0.7858156E+03  0.7818608E-02  0.9580778E-01
          2   -1    0    0  501    0  0.00000000000E+00  0.00000000000E+00  0.66859050038E+03  0.66859050038E+03  0.25500000000E-02 0.  1.
         -2   -1    0    0    0  501 -0.00000000000E+00 -0.00000000000E+00 -0.23089849315E+03  0.23089849316E+03  0.25500000000E-02 0. -1.
    5000001    1    1    2    0    0 -0.24344214996E+03  0.23797742864E+03  0.26484926811E+03  0.47212971918E+03  0.19200000000E+03 0.  0.
   -5000001    1    1    2    0    0  0.24344214996E+03 -0.23797742864E+03  0.17284273913E+03  0.42735927437E+03  0.19200000000E+03 0.  0.
<mgrwt>
<rscale>  0 0.78581560E+03</rscale>
<asrwt>0</asrwt>
<pdfrwt beam="1">  1        2 0.95512931E-01 0.78581560E+03</pdfrwt>
<pdfrwt beam="2">  1       -2 0.32985498E-01 0.78581560E+03</pdfrwt>
<totfact> 0.40996121E+02</totfact>
</mgrwt>
</event>
<event>
 4    1  0.2892809E-005  0.6324122E+03  0.7818608E-02  0.9840353E-01
         -2   -1    0    0    0  501 -0.00000000000E+00  0.00000000000E+00  0.23958782125E+03  0.23958782127E+03  0.25500000000E-02 0. -1.
          2   -1    0    0  501    0  0.00000000000E+00 -0.00000000000E+00 -0.41732624541E+03  0.41732624542E+03  0.25500000000E-02 0.  1.
    5000001    1    1    2    0    0  0.15966281688E+03 -0.15248601539E+03  0.35685133706E+02  0.29475689772E+03  0.19200000000E+03 0.  0.
   -5000001    1    1    2    0    0 -0.15966281688E+03  0.15248601539E+03 -0.21342355786E+03  0.36215716897E+03  0.19200000000E+03 0.  0.
<mgrwt>
<rscale>  0 0.63241216E+03</rscale>
<asrwt>0</asrwt>
<pdfrwt beam="1">  1        2 0.59618035E-01 0.63241216E+03</pdfrwt>
<pdfrwt beam="2">  1       -2 0.34226832E-01 0.63241216E+03</pdfrwt>
<totfact> 0.66258398E+02</totfact>
</mgrwt>
</event>
<event>
 4    1  0.2892809E-005  0.6370672E+03  0.7818608E-02  0.9831354E-01
         -2   -1    0    0    0  501 -0.00000000000E+00  0.00000000000E+00  0.33152189115E+02  0.33152189213E+02  0.25500000000E-02 0. -1.
          2   -1    0    0  501    0  0.00000000000E+00 -0.00000000000E+00 -0.30605416992E+04  0.30605416992E+04  0.25500000000E-02 0.  1.
    5000001    1    1    2    0    0  0.11631748926E+03  0.10505543803E+03 -0.24853283743E+04  0.24976564078E+04  0.19200000000E+03 0.  0.
   -5000001    1    1    2    0    0 -0.11631748926E+03 -0.10505543803E+03 -0.54206113585E+03  0.59603748067E+03  0.19200000000E+03 0.  0.
<mgrwt>
<rscale>  0 0.63706721E+03</rscale>
<asrwt>0</asrwt>
<pdfrwt beam="1">  1        2 0.43722006E+00 0.63706721E+03</pdfrwt>
<pdfrwt beam="2">  1       -2 0.47360290E-02 0.63706721E+03</pdfrwt>
<totfact> 0.51981557E+02</totfact>
</mgrwt>
</event>
<event>
 4    1  0.2892809E-005  0.5437527E+03  0.7818608E-02  0.1002950E+00
         -2   -1    0    0    0  501 -0.00000000000E+00  0.00000000000E+00  0.58688722945E+02  0.58688723000E+02  0.25500000000E-02 0. -1.
          2   -1    0    0  501    0  0.00000000000E+00 -0.00000000000E+00 -0.12594712207E+04  0.12594712207E+04  0.25500000000E-02 0.  1.
    5000001    1    1    2    0    0  0.18260959570E+03  0.58039276529E+02 -0.64495518780E+03  0.69967565080E+03  0.19200000000E+03 0.  0.
   -5000001    1    1    2    0    0 -0.18260959570E+03 -0.58039276529E+02 -0.55582730992E+03  0.61848429286E+03  0.19200000000E+03 0.  0.
<mgrwt>
<rscale>  0 0.54375273E+03</rscale>
<asrwt>0</asrwt>
<pdfrwt beam="1">  1        2 0.17992444E+00 0.54375273E+03</pdfrwt>
<pdfrwt beam="2">  1       -2 0.83841041E-02 0.54375273E+03</pdfrwt>
<totfact> 0.18209343E+03</totfact>
</mgrwt>
</event>
<event>
 4    1  0.2892809E-005  0.4115157E+03  0.7818608E-02  0.1039864E+00
          2   -1    0    0  501    0  0.00000000000E+00  0.00000000000E+00  0.50687760796E+03  0.50687760797E+03  0.25500000000E-02 0.  1.
         -2   -1    0    0    0  501 -0.00000000000E+00 -0.00000000000E+00 -0.83523712768E+02  0.83523712807E+02  0.25500000000E-02 0. -1.
    5000001    1    1    2    0    0  0.52837504281E+00  0.66085830041E+02  0.25936173345E+03  0.32939357141E+03  0.19200000000E+03 0.  0.
   -5000001    1    1    2    0    0 -0.52837504281E+00 -0.66085830041E+02  0.16399216175E+03  0.26100774936E+03  0.19200000000E+03 0.  0.
<mgrwt>
<rscale>  0 0.41151573E+03</rscale>
<asrwt>0</asrwt>
<pdfrwt beam="1">  1        2 0.72411086E-01 0.41151573E+03</pdfrwt>
<pdfrwt beam="2">  1       -2 0.11931959E-01 0.41151573E+03</pdfrwt>
<totfact> 0.33493122E+03</totfact>
</mgrwt>
</event>
<event>
 4    1  0.2892809E-005  0.5180899E+03  0.7818608E-02  0.1009162E+00
          2   -1    0    0  501    0  0.00000000000E+00  0.00000000000E+00  0.14702101965E+03  0.14702101968E+03  0.25500000000E-02 0.  1.
         -2   -1    0    0    0  501 -0.00000000000E+00 -0.00000000000E+00 -0.45642648372E+03  0.45642648373E+03  0.25500000000E-02 0. -1.
    5000001    1    1    2    0    0  0.15312665211E+03  0.78454719073E+02 -0.12529706536E+03  0.28664659272E+03  0.19200000000E+03 0.  0.
   -5000001    1    1    2    0    0 -0.15312665211E+03 -0.78454719073E+02 -0.18410839871E+03  0.31680091068E+03  0.19200000000E+03 0.  0.
<mgrwt>
<rscale>  0 0.51808990E+03</rscale>
<asrwt>0</asrwt>
<pdfrwt beam="1">  1        2 0.21003003E-01 0.51808990E+03</pdfrwt>
<pdfrwt beam="2">  1       -2 0.65203783E-01 0.51808990E+03</pdfrwt>
<totfact> 0.58605516E+02</totfact>
</mgrwt>
</event>
<event>
 4    1  0.2892809E-005  0.7641401E+03  0.7818608E-02  0.9613424E-01
          2   -1    0    0  501    0  0.00000000000E+00  0.00000000000E+00  0.23255660541E+03  0.23255660542E+03  0.25500000000E-02 0.  1.
         -2   -1    0    0    0  501 -0.00000000000E+00 -0.00000000000E+00 -0.62770747914E+03  0.62770747915E+03  0.25500000000E-02 0. -1.
    5000001    1    1    2    0    0 -0.18655245392E+03 -0.10594500256E+03 -0.48034325316E+03  0.56001768051E+03  0.19200000000E+03 0.  0.
   -5000001    1    1    2    0    0  0.18655245392E+03  0.10594500256E+03  0.85192379425E+02  0.30024640405E+03  0.19200000000E+03 0.  0.
<mgrwt>
<rscale>  0 0.76414009E+03</rscale>
<asrwt>0</asrwt>
<pdfrwt beam="1">  1        2 0.33222372E-01 0.76414009E+03</pdfrwt>
<pdfrwt beam="2">  1       -2 0.89672497E-01 0.76414009E+03</pdfrwt>
<totfact> 0.17042623E+02</totfact>
</mgrwt>
</event>
<event>
 4    1  0.2892809E-005  0.5781506E+03  0.7818608E-02  0.9951803E-01
          2   -1    0    0  501    0  0.00000000000E+00  0.00000000000E+00  0.14526182712E+03  0.14526182714E+03  0.25500000000E-02 0.  1.
         -2   -1    0    0    0  501 -0.00000000000E+00 -0.00000000000E+00 -0.57526831721E+03  0.57526831722E+03  0.25500000000E-02 0. -1.
    5000001    1    1    2    0    0  0.16596380326E+03  0.13221616317E+03 -0.26601546238E+03  0.39070874577E+03  0.19200000000E+03 0.  0.
   -5000001    1    1    2    0    0 -0.16596380326E+03 -0.13221616317E+03 -0.16399102771E+03  0.32982139859E+03  0.19200000000E+03 0.  0.
<mgrwt>
<rscale>  0 0.57815059E+03</rscale>
<asrwt>0</asrwt>
<pdfrwt beam="1">  1        2 0.20751690E-01 0.57815059E+03</pdfrwt>
<pdfrwt beam="2">  1       -2 0.82181187E-01 0.57815059E+03</pdfrwt>
<totfact> 0.35759005E+02</totfact>
</mgrwt>
</event>
<event>
 4    1  0.2892809E-005  0.5917039E+03  0.7818608E-02  0.9922769E-01
         -2   -1    0    0    0  501 -0.00000000000E+00  0.00000000000E+00  0.40505095716E+02  0.40505095797E+02  0.25500000000E-02 0. -1.
          2   -1    0    0  501    0  0.00000000000E+00 -0.00000000000E+00 -0.21609223463E+04  0.21609223463E+04  0.25500000000E-02 0.  1.
    5000001    1    1    2    0    0  0.21051749758E+03 -0.79098545943E+02 -0.10248796915E+04  0.10666848545E+04  0.19200000000E+03 0.  0.
   -5000001    1    1    2    0    0 -0.21051749758E+03  0.79098545943E+02 -0.10955375590E+04  0.11347425876E+04  0.19200000000E+03 0.  0.
<mgrwt>
<rscale>  0 0.59170387E+03</rscale>
<asrwt>0</asrwt>
<pdfrwt beam="1">  1        2 0.30870312E+00 0.59170387E+03</pdfrwt>
<pdfrwt beam="2">  1       -2 0.57864436E-02 0.59170387E+03</pdfrwt>
<totfact> 0.11247489E+03</totfact>
</mgrwt>
</event>
<event>
 4    1  0.2892809E-005  0.4169129E+03  0.7818608E-02  0.1038076E+00
          2   -1    0    0  501    0  0.00000000000E+00  0.00000000000E+00  0.39383306139E+03  0.39383306140E+03  0.25500000000E-02 0.  1.
         -2   -1    0    0    0  501 -0.00000000000E+00 -0.00000000000E+00 -0.11033632594E+03  0.11033632597E+03  0.25500000000E-02 0. -1.
    5000001    1    1    2    0    0 -0.72135026005E+02  0.14420844100E+02  0.18326549589E+03  0.27542996334E+03  0.19200000000E+03 0.  0.
   -5000001    1    1    2    0    0  0.72135026005E+02 -0.14420844100E+02  0.10023123956E+03  0.22873942403E+03  0.19200000000E+03 0.  0.
<mgrwt>
<rscale>  0 0.41691291E+03</rscale>
<asrwt>0</asrwt>
<pdfrwt beam="1">  1        2 0.56261866E-01 0.41691291E+03</pdfrwt>
<pdfrwt beam="2">  1       -2 0.15762332E-01 0.41691291E+03</pdfrwt>
<totfact> 0.27965240E+03</totfact>
</mgrwt>
</event>
<event>
 4    1  0.2892809E-005  0.6414872E+03  0.7818608E-02  0.9822885E-01
          2   -1    0    0  501    0  0.00000000000E+00  0.00000000000E+00  0.67609435678E+03  0.67609435679E+03  0.25500000000E-02 0.  1.
         -2   -1    0    0    0  501 -0.00000000000E+00 -0.00000000000E+00 -0.15216286382E+03  0.15216286384E+03  0.25500000000E-02 0. -1.
    5000001    1    1    2    0    0  0.21551848249E+02 -0.24045950735E+03  0.14846774169E+03  0.34233306466E+03  0.19200000000E+03 0.  0.
   -5000001    1    1    2    0    0 -0.21551848249E+02  0.24045950735E+03  0.37546375127E+03  0.48592415597E+03  0.19200000000E+03 0.  0.
<mgrwt>
<rscale>  0 0.64148719E+03</rscale>
<asrwt>0</asrwt>
<pdfrwt beam="1">  1        2 0.96584911E-01 0.64148719E+03</pdfrwt>
<pdfrwt beam="2">  1       -2 0.21737551E-01 0.64148719E+03</pdfrwt>
<totfact> 0.86779129E+02</totfact>
</mgrwt>
</event>
<event>
 4    1  0.2892809E-005  0.5734013E+03  0.7818608E-02  0.9962180E-01
          2   -1    0    0  501    0  0.00000000000E+00  0.00000000000E+00  0.30957493178E+03  0.30957493179E+03  0.25500000000E-02 0.  1.
         -2   -1    0    0    0  501 -0.00000000000E+00 -0.00000000000E+00 -0.26551653585E+03  0.26551653586E+03  0.25500000000E-02 0. -1.
    5000001    1    1    2    0    0 -0.15690402832E+03  0.32716664900E+02 -0.11854101848E+03  0.27677649345E+03  0.19200000000E+03 0.  0.
   -5000001    1    1    2    0    0  0.15690402832E+03 -0.32716664900E+02  0.16259941441E+03  0.29831497420E+03  0.19200000000E+03 0.  0.
<mgrwt>
<rscale>  0 0.57340130E+03</rscale>
<asrwt>0</asrwt>
<pdfrwt beam="1">  1        2 0.44224990E-01 0.57340130E+03</pdfrwt>
<pdfrwt beam="2">  1       -2 0.37930934E-01 0.57340130E+03</pdfrwt>
<totfact> 0.75897302E+02</totfact>
</mgrwt>
</event>
<event>
 4    1  0.2892809E-005  0.5475894E+03  0.7818608E-02  0.1002053E+00
         -2   -1    0    0    0  501 -0.00000000000E+00  0.00000000000E+00  0.40266260833E+03  0.40266260834E+03  0.25500000000E-02 0. -1.
          2   -1    0    0  501    0  0.00000000000E+00 -0.00000000000E+00 -0.18616962590E+03  0.18616962592E+03  0.25500000000E-02 0.  1.
    5000001    1    1    2    0    0 -0.41425860524E+02 -0.94877953248E+02 -0.69690433313E+02  0.22899494411E+03  0.19200000000E+03 0.  0.
   -5000001    1    1    2    0    0  0.41425860524E+02  0.94877953248E+02  0.28618341575E+03  0.35983729015E+03  0.19200000000E+03 0.  0.
<mgrwt>
<rscale>  0 0.54758943E+03</rscale>
<asrwt>0</asrwt>
<pdfrwt beam="1">  1        2 0.26595661E-01 0.54758943E+03</pdfrwt>
<pdfrwt beam="2">  1       -2 0.57523230E-01 0.54758943E+03</pdfrwt>
<totfact> 0.58201863E+02</totfact>
</mgrwt>
</event>
<event>
 4    1  0.2892809E-005  0.5714145E+03  0.7818608E-02  0.9966554E-01
          2   -1    0    0  501    0  0.00000000000E+00  0.00000000000E+00  0.13968501623E+04  0.13968501623E+04  0.25500000000E-02 0.  1.
         -2   -1    0    0    0  501 -0.00000000000E+00 -0.00000000000E+00 -0.58437634092E+02  0.58437634147E+02  0.25500000000E-02 0. -1.
    5000001    1    1    2    0    0  0.20318361165E+03  0.58878764756E+02  0.65956538536E+03  0.71877728577E+03  0.19200000000E+03 0.  0.
   -5000001    1    1    2    0    0 -0.20318361165E+03 -0.58878764756E+02  0.67884714287E+03  0.73651051069E+03  0.19200000000E+03 0.  0.
<mgrwt>
<rscale>  0 0.57141445E+03</rscale>
<asrwt>0</asrwt>
<pdfrwt beam="1">  1        2 0.19955003E+00 0.57141445E+03</pdfrwt>
<pdfrwt beam="2">  1       -2 0.83482332E-02 0.57141445E+03</pdfrwt>
<totfact> 0.15451364E+03</totfact>
</mgrwt>
</event>
<event>
 4    1  0.2892809E-005  0.8055471E+03  0.7818608E-02  0.9552022E-01
          2   -1    0    0  501    0  0.00000000000E+00  0.00000000000E+00  0.71545465835E+03  0.71545465836E+03  0.25500000000E-02 0.  1.
         -2   -1    0    0    0  501 -0.00000000000E+00 -0.00000000000E+00 -0.22674606599E+03  0.22674606600E+03  0.25500000000E-02 0. -1.
    5000001    1    1    2    0    0 -0.28586168718E+03  0.13760709826E+03  0.60493941015E+02  0.37573412753E+03  0.19200000000E+03 0.  0.
   -5000001    1    1    2    0    0  0.28586168718E+03 -0.13760709826E+03  0.42821465135E+03  0.56646659683E+03  0.19200000000E+03 0.  0.
<mgrwt>
<rscale>  0 0.80554709E+03</rscale>
<asrwt>0</asrwt>
<pdfrwt beam="1">  1        2 0.10220781E+00 0.80554709E+03</pdfrwt>
<pdfrwt beam="2">  1       -2 0.32392296E-01 0.80554709E+03</pdfrwt>
<totfact> 0.39001391E+02</totfact>
</mgrwt>
</event>
<event>
 4    1  0.2892809E-005  0.6106645E+03  0.7818608E-02  0.9883524E-01
          2   -1    0    0  501    0  0.00000000000E+00  0.00000000000E+00  0.43647387427E+03  0.43647387428E+03  0.25500000000E-02 0.  1.
         -2   -1    0    0    0  501 -0.00000000000E+00 -0.00000000000E+00 -0.21359301227E+03  0.21359301229E+03  0.25500000000E-02 0. -1.
    5000001    1    1    2    0    0  0.13671133886E+03  0.19409716240E+03  0.11115684089E+03  0.32493621205E+03  0.19200000000E+03 0.  0.
   -5000001    1    1    2    0    0 -0.13671133886E+03 -0.19409716240E+03  0.11172402111E+03  0.32513067452E+03  0.19200000000E+03 0.  0.
<mgrwt>
<rscale>  0 0.61066446E+03</rscale>
<asrwt>0</asrwt>
<pdfrwt beam="1">  1        2 0.62353411E-01 0.61066446E+03</pdfrwt>
<pdfrwt beam="2">  1       -2 0.30513287E-01 0.61066446E+03</pdfrwt>
<totfact> 0.78153214E+02</totfact>
</mgrwt>
</event>
<event>
 4    1  0.2892809E-005  0.6994532E+03  0.7818608E-02  0.9718168E-01
          2   -1    0    0  501    0  0.00000000000E+00  0.00000000000E+00  0.15080894183E+03  0.15080894185E+03  0.25500000000E-02 0.  1.
         -2   -1    0    0    0  501 -0.00000000000E+00 -0.00000000000E+00 -0.81101742892E+03  0.81101742893E+03  0.25500000000E-02 0. -1.
    5000001    1    1    2    0    0 -0.12816523952E+03  0.69988804804E+02 -0.67830886145E+03  0.71992476894E+03  0.19200000000E+03 0.  0.
   -5000001    1    1    2    0    0  0.12816523952E+03 -0.69988804804E+02  0.18100374353E+02  0.24190160183E+03  0.19200000000E+03 0.  0.
<mgrwt>
<rscale>  0 0.69945316E+03</rscale>
<asrwt>0</asrwt>
<pdfrwt beam="1">  1        2 0.21544135E-01 0.69945316E+03</pdfrwt>
<pdfrwt beam="2">  1       -2 0.11585963E+00 0.69945316E+03</pdfrwt>
<totfact> 0.15240301E+02</totfact>
</mgrwt>
</event>
<event>
 4    1  0.2892809E-005  0.6065717E+03  0.7818608E-02  0.9891865E-01
         -2   -1    0    0    0  501 -0.00000000000E+00  0.00000000000E+00  0.12303256000E+03  0.12303256003E+03  0.25500000000E-02 0. -1.
          2   -1    0    0  501    0  0.00000000000E+00 -0.00000000000E+00 -0.74762575600E+03  0.74762575600E+03  0.25500000000E-02 0.  1.
    5000001    1    1    2    0    0 -0.19521060392E+03 -0.12880895797E+03 -0.34169143759E+03  0.45641643929E+03  0.19200000000E+03 0.  0.
   -5000001    1    1    2    0    0  0.19521060392E+03  0.12880895797E+03 -0.28290175840E+03  0.41424187674E+03  0.19200000000E+03 0.  0.
<mgrwt>
<rscale>  0 0.60657171E+03</rscale>
<asrwt>0</asrwt>
<pdfrwt beam="1">  1        2 0.10680368E+00 0.60657171E+03</pdfrwt>
<pdfrwt beam="2">  1       -2 0.17576080E-01 0.60657171E+03</pdfrwt>
<totfact> 0.11099776E+03</totfact>
</mgrwt>
</event>
<event>
 4    1  0.2892809E-005  0.5549616E+03  0.7818608E-02  0.1000352E+00
         -2   -1    0    0    0  501 -0.00000000000E+00  0.00000000000E+00  0.56108098020E+02  0.56108098078E+02  0.25500000000E-02 0. -1.
          2   -1    0    0  501    0  0.00000000000E+00 -0.00000000000E+00 -0.13722725146E+04  0.13722725146E+04  0.25500000000E-02 0.  1.
    5000001    1    1    2    0    0  0.13585393230E+03 -0.12768188684E+03 -0.46942426558E+03  0.54035367702E+03  0.19200000000E+03 0.  0.
   -5000001    1    1    2    0    0 -0.13585393230E+03  0.12768188684E+03 -0.84674015096E+03  0.88802693563E+03  0.19200000000E+03 0.  0.
<mgrwt>
<rscale>  0 0.55496162E+03</rscale>
<asrwt>0</asrwt>
<pdfrwt beam="1">  1        2 0.19603891E+00 0.55496162E+03</pdfrwt>
<pdfrwt beam="2">  1       -2 0.80154434E-02 0.55496162E+03</pdfrwt>
<totfact> 0.16997579E+03</totfact>
</mgrwt>
</event>
<event>
 4    1  0.2892809E-005  0.4500792E+03  0.7818608E-02  0.1027698E+00
          2   -1    0    0  501    0  0.00000000000E+00  0.00000000000E+00  0.28439242909E+04  0.28439242909E+04  0.25500000000E-02 0.  1.
         -2   -1    0    0    0  501 -0.00000000000E+00 -0.00000000000E+00 -0.17807371753E+02  0.17807371935E+02  0.25500000000E-02 0. -1.
    5000001    1    1    2    0    0 -0.10598337492E+03 -0.42804244242E+02  0.15829732311E+04  0.15986659844E+04  0.19200000000E+03 0.  0.
   -5000001    1    1    2    0    0  0.10598337492E+03  0.42804244242E+02  0.12431436881E+04  0.12630656785E+04  0.19200000000E+03 0.  0.
<mgrwt>
<rscale>  0 0.45007918E+03</rscale>
<asrwt>0</asrwt>
<pdfrwt beam="1">  1        2 0.40627505E+00 0.45007918E+03</pdfrwt>
<pdfrwt beam="2">  1       -2 0.25439093E-02 0.45007918E+03</pdfrwt>
<totfact> 0.17838856E+03</totfact>
</mgrwt>
</event>
<event>
 4    1  0.2892809E-005  0.5765961E+03  0.7818608E-02  0.9955188E-01
          2   -1    0    0  501    0  0.00000000000E+00  0.00000000000E+00  0.13605483870E+04  0.13605483870E+04  0.25500000000E-02 0.  1.
         -2   -1    0    0    0  501 -0.00000000000E+00 -0.00000000000E+00 -0.61089890511E+02  0.61089890564E+02  0.25500000000E-02 0. -1.
    5000001    1    1    2    0    0 -0.39280607880E+02  0.18843769330E+03  0.41323974593E+03  0.49465424089E+03  0.19200000000E+03 0.  0.
   -5000001    1    1    2    0    0  0.39280607880E+02 -0.18843769330E+03  0.88621875052E+03  0.92698403664E+03  0.19200000000E+03 0.  0.
<mgrwt>
<rscale>  0 0.57659605E+03</rscale>
<asrwt>0</asrwt>
<pdfrwt beam="1">  1        2 0.19436407E+00 0.57659605E+03</pdfrwt>
<pdfrwt beam="2">  1       -2 0.87271267E-02 0.57659605E+03</pdfrwt>
<totfact> 0.15045489E+03</totfact>
</mgrwt>
</event>
<event>
 4    1  0.2892809E-005  0.8749324E+03  0.7818608E-02  0.9457471E-01
          2   -1    0    0  501    0  0.00000000000E+00  0.00000000000E+00  0.19526424329E+04  0.19526424329E+04  0.25500000000E-02 0.  1.
         -2   -1    0    0    0  501 -0.00000000000E+00 -0.00000000000E+00 -0.98009079858E+02  0.98009079891E+02  0.25500000000E-02 0. -1.
    5000001    1    1    2    0    0  0.38444968193E+03  0.75506058324E+02  0.85283137194E+03  0.95796037065E+03  0.19200000000E+03 0.  0.
   -5000001    1    1    2    0    0 -0.38444968193E+03 -0.75506058324E+02  0.10018019811E+04  0.10926911422E+04  0.19200000000E+03 0.  0.
<mgrwt>
<rscale>  0 0.87493243E+03</rscale>
<asrwt>0</asrwt>
<pdfrwt beam="1">  1        2 0.27894894E+00 0.87493243E+03</pdfrwt>
<pdfrwt beam="2">  1       -2 0.14001296E-01 0.87493243E+03</pdfrwt>
<totfact> 0.33744789E+02</totfact>
</mgrwt>
</event>
<event>
 4    1  0.2892809E-005  0.6918465E+03  0.7818608E-02  0.9731278E-01
          2   -1    0    0  501    0  0.00000000000E+00  0.00000000000E+00  0.16046877259E+04  0.16046877259E+04  0.25500000000E-02 0.  1.
         -2   -1    0    0    0  501 -0.00000000000E+00 -0.00000000000E+00 -0.74570820927E+02  0.74570820970E+02  0.25500000000E-02 0. -1.
    5000001    1    1    2    0    0  0.26642452240E+03  0.71145084689E+02  0.56556530851E+03  0.65785391038E+03  0.19200000000E+03 0.  0.
   -5000001    1    1    2    0    0 -0.26642452240E+03 -0.71145084689E+02  0.96455159649E+03  0.10214046365E+04  0.19200000000E+03 0.  0.
<mgrwt>
<rscale>  0 0.69184646E+03</rscale>
<asrwt>0</asrwt>
<pdfrwt beam="1">  1        2 0.22924111E+00 0.69184646E+03</pdfrwt>
<pdfrwt beam="2">  1       -2 0.10652974E-01 0.69184646E+03</pdfrwt>
<totfact> 0.80781605E+02</totfact>
</mgrwt>
</event>
<event>
 4    1  0.2892809E-005  0.4859728E+03  0.7818608E-02  0.1017506E+00
          2   -1    0    0  501    0  0.00000000000E+00  0.00000000000E+00  0.16868610912E+04  0.16868610912E+04  0.25500000000E-02 0.  1.
         -2   -1    0    0    0  501 -0.00000000000E+00 -0.00000000000E+00 -0.35001332866E+02  0.35001332959E+02  0.25500000000E-02 0. -1.
    5000001    1    1    2    0    0  0.50210088895E+02 -0.11159459814E+03  0.52520266713E+03  0.57243012580E+03  0.19200000000E+03 0.  0.
   -5000001    1    1    2    0    0 -0.50210088895E+02  0.11159459814E+03  0.11266570912E+04  0.11494322984E+04  0.19200000000E+03 0.  0.
<mgrwt>
<rscale>  0 0.48597278E+03</rscale>
<asrwt>0</asrwt>
<pdfrwt beam="1">  1        2 0.24098016E+00 0.48597278E+03</pdfrwt>
<pdfrwt beam="2">  1       -2 0.50001903E-02 0.48597278E+03</pdfrwt>
<totfact> 0.24517592E+03</totfact>
</mgrwt>
</event>
<event>
 4    1  0.2892809E-005  0.4852220E+03  0.7818608E-02  0.1017710E+00
          2   -1    0    0  501    0  0.00000000000E+00  0.00000000000E+00  0.37682788001E+03  0.37682788001E+03  0.25500000000E-02 0.  1.
         -2   -1    0    0    0  501 -0.00000000000E+00 -0.00000000000E+00 -0.15619889421E+03  0.15619889423E+03  0.25500000000E-02 0. -1.
    5000001    1    1    2    0    0  0.31248106665E+02 -0.11440591762E+03  0.20814422636E+03  0.30700680306E+03  0.19200000000E+03 0.  0.
   -5000001    1    1    2    0    0 -0.31248106665E+02  0.11440591762E+03  0.12484759442E+02  0.22601997119E+03  0.19200000000E+03 0.  0.
<mgrwt>
<rscale>  0 0.48522200E+03</rscale>
<asrwt>0</asrwt>
<pdfrwt beam="1">  1        2 0.53832553E-01 0.48522200E+03</pdfrwt>
<pdfrwt beam="2">  1       -2 0.22314128E-01 0.48522200E+03</pdfrwt>
<totfact> 0.16186764E+03</totfact>
</mgrwt>
</event>
<event>
 4    1  0.2892809E-005  0.4039194E+03  0.7818608E-02  0.1042431E+00
         -2   -1    0    0    0  501 -0.00000000000E+00  0.00000000000E+00  0.16271492546E+02  0.16271492746E+02  0.25500000000E-02 0.  1.
          2   -1    0    0  501    0  0.00000000000E+00 -0.00000000000E+00 -0.25066977706E+04  0.25066977706E+04  0.25500000000E-02 0. -1.
    5000001    1    1    2    0    0  0.55743130155E+02  0.10602133849E+02 -0.14109455610E+04  0.14250793234E+04  0.19200000000E+03 0.  0.
   -5000001    1    1    2    0    0 -0.55743130155E+02 -0.10602133849E+02 -0.10794807170E+04  0.10978899399E+04  0.19200000000E+03 0.  0.
<mgrwt>
<rscale>  0 0.40391937E+03</rscale>
<asrwt>0</asrwt>
<pdfrwt beam="1">  1        2 0.35809944E+00 0.40391937E+03</pdfrwt>
<pdfrwt beam="2">  1       -2 0.23245005E-02 0.40391937E+03</pdfrwt>
<totfact> 0.30581009E+03</totfact>
</mgrwt>
</event>
<event>
 4    1  0.2892809E-005  0.6193841E+03  0.7818608E-02  0.9865987E-01
          2   -1    0    0  501    0  0.00000000000E+00  0.00000000000E+00  0.13676159146E+04  0.13676159146E+04  0.25500000000E-02 0.  1.
         -2   -1    0    0    0  501 -0.00000000000E+00 -0.00000000000E+00 -0.70128731506E+02  0.70128731553E+02  0.25500000000E-02 0. -1.
    5000001    1    1    2    0    0 -0.86600635131E+02  0.62633397216E+02  0.11553002790E+04  0.11760124774E+04  0.19200000000E+03 0.  0.
   -5000001    1    1    2    0    0  0.86600635131E+02 -0.62633397216E+02  0.14218690414E+03  0.26173216875E+03  0.19200000000E+03 0.  0.
<mgrwt>
<rscale>  0 0.61938411E+03</rscale>
<asrwt>0</asrwt>
<pdfrwt beam="1">  1        2 0.19537370E+00 0.61938411E+03</pdfrwt>
<pdfrwt beam="2">  1       -2 0.10018390E-01 0.61938411E+03</pdfrwt>
<totfact> 0.11924088E+03</totfact>
</mgrwt>
</event>
<event>
 4    1  0.2892809E-005  0.9260294E+03  0.7818608E-02  0.9393616E-01
         -2   -1    0    0    0  501 -0.00000000000E+00  0.00000000000E+00  0.21537694073E+03  0.21537694075E+03  0.25500000000E-02 0. -1.
          2   -1    0    0  501    0  0.00000000000E+00 -0.00000000000E+00 -0.99538333978E+03  0.99538333978E+03  0.25500000000E-02 0.  1.
    5000001    1    1    2    0    0 -0.29506140758E+03 -0.21847546014E+03 -0.66026133651E+03  0.77948816118E+03  0.19200000000E+03 0.  0.
   -5000001    1    1    2    0    0  0.29506140758E+03  0.21847546014E+03 -0.11974506254E+03  0.43127211935E+03  0.19200000000E+03 0.  0.
<mgrwt>
<rscale>  0 0.92602941E+03</rscale>
<asrwt>0</asrwt>
<pdfrwt beam="1">  1        2 0.14219762E+00 0.92602941E+03</pdfrwt>
<pdfrwt beam="2">  1       -2 0.30768135E-01 0.92602941E+03</pdfrwt>
<totfact> 0.27613533E+02</totfact>
</mgrwt>
</event>
<event>
 4    1  0.2892809E-005  0.5544461E+03  0.7818608E-02  0.1000470E+00
          2   -1    0    0  501    0  0.00000000000E+00  0.00000000000E+00  0.24147708508E+03  0.24147708509E+03  0.25500000000E-02 0.  1.
         -2   -1    0    0    0  501 -0.00000000000E+00 -0.00000000000E+00 -0.31826054661E+03  0.31826054662E+03  0.25500000000E-02 0. -1.
    5000001    1    1    2    0    0 -0.16428570127E+03 -0.52493477581E+02 -0.14056669725E+03  0.29388493191E+03  0.19200000000E+03 0.  0.
   -5000001    1    1    2    0    0  0.16428570127E+03  0.52493477581E+02  0.63783235725E+02  0.26585269980E+03  0.19200000000E+03 0.  0.
<mgrwt>
<rscale>  0 0.55444613E+03</rscale>
<asrwt>0</asrwt>
<pdfrwt beam="1">  1        2 0.34496727E-01 0.55444613E+03</pdfrwt>
<pdfrwt beam="2">  1       -2 0.45465792E-01 0.55444613E+03</pdfrwt>
<totfact> 0.70131330E+02</totfact>
</mgrwt>
</event>
<event>
 4    1  0.2892809E-005  0.6759387E+03  0.7818608E-02  0.9759289E-01
          2   -1    0    0  501    0  0.00000000000E+00  0.00000000000E+00  0.39057836709E+03  0.39057836710E+03  0.25500000000E-02 0.  1.
         -2   -1    0    0    0  501 -0.00000000000E+00 -0.00000000000E+00 -0.29244648646E+03  0.29244648647E+03  0.25500000000E-02 0. -1.
    5000001    1    1    2    0    0  0.23618344921E+03 -0.14512474336E+03  0.72007661521E+02  0.34480852097E+03  0.19200000000E+03 0.  0.
   -5000001    1    1    2    0    0 -0.23618344921E+03  0.14512474336E+03  0.26124219114E+02  0.33821633260E+03  0.19200000000E+03 0.  0.
<mgrwt>
<rscale>  0 0.67593867E+03</rscale>
<asrwt>0</asrwt>
<pdfrwt beam="1">  1        2 0.55796910E-01 0.67593867E+03</pdfrwt>
<pdfrwt beam="2">  1       -2 0.41778069E-01 0.67593867E+03</pdfrwt>
<totfact> 0.48562403E+02</totfact>
</mgrwt>
</event>
<event>
 4    1  0.2892809E-005  0.7953710E+03  0.7818608E-02  0.9566742E-01
         -2   -1    0    0    0  501 -0.00000000000E+00  0.00000000000E+00  0.11006483112E+03  0.11006483115E+03  0.25500000000E-02 0. -1.
          2   -1    0    0  501    0  0.00000000000E+00 -0.00000000000E+00 -0.14369145702E+04  0.14369145702E+04  0.25500000000E-02 0.  1.
    5000001    1    1    2    0    0  0.25009111197E+02  0.25764976699E+03 -0.11165710263E+04  0.11621547723E+04  0.19200000000E+03 0.  0.
   -5000001    1    1    2    0    0 -0.25009111197E+02 -0.25764976699E+03 -0.21027871284E+03  0.38482462908E+03  0.19200000000E+03 0.  0.
<mgrwt>
<rscale>  0 0.79537101E+03</rscale>
<asrwt>0</asrwt>
<pdfrwt beam="1">  1        2 0.20527350E+00 0.79537101E+03</pdfrwt>
<pdfrwt beam="2">  1       -2 0.15723548E-01 0.79537101E+03</pdfrwt>
<totfact> 0.51442767E+02</totfact>
</mgrwt>
</event>
<event>
 4    1  0.2892809E-005  0.1214332E+04  0.7818608E-02  0.9100404E-01
          2   -1    0    0  501    0  0.00000000000E+00  0.00000000000E+00  0.11952591861E+04  0.11952591861E+04  0.25500000000E-02 0.  1.
         -2   -1    0    0    0  501 -0.00000000000E+00 -0.00000000000E+00 -0.30842725091E+03  0.30842725092E+03  0.25500000000E-02 0. -1.
    5000001    1    1    2    0    0 -0.43493164107E+02  0.50691095791E+03  0.10899674788E+03  0.55461217587E+03  0.19200000000E+03 0.  0.
   -5000001    1    1    2    0    0  0.43493164107E+02 -0.50691095791E+03  0.77783518736E+03  0.94907426119E+03  0.19200000000E+03 0.  0.
<mgrwt>
<rscale>  0 0.12143319E+04</rscale>
<asrwt>0</asrwt>
<pdfrwt beam="1">  1        2 0.17075131E+00 0.12143319E+04</pdfrwt>
<pdfrwt beam="2">  1       -2 0.44061037E-01 0.12143319E+04</pdfrwt>
<totfact> 0.10351984E+02</totfact>
</mgrwt>
</event>
<event>
 4    1  0.2892809E-005  0.7138658E+03  0.7818608E-02  0.9693809E-01
          2   -1    0    0  501    0  0.00000000000E+00  0.00000000000E+00  0.79540048054E+03  0.79540048054E+03  0.25500000000E-02 0.  1.
         -2   -1    0    0    0  501 -0.00000000000E+00 -0.00000000000E+00 -0.16017227262E+03  0.16017227264E+03  0.25500000000E-02 0. -1.
    5000001    1    1    2    0    0  0.16933687859E+03 -0.24772624544E+03  0.34736065093E+03  0.49756074297E+03  0.19200000000E+03 0.  0.
   -5000001    1    1    2    0    0 -0.16933687859E+03  0.24772624544E+03  0.28786755698E+03  0.45801201021E+03  0.19200000000E+03 0.  0.
<mgrwt>
<rscale>  0 0.71386582E+03</rscale>
<asrwt>0</asrwt>
<pdfrwt beam="1">  1        2 0.11362864E+00 0.71386582E+03</pdfrwt>
<pdfrwt beam="2">  1       -2 0.22881753E-01 0.71386582E+03</pdfrwt>
<totfact> 0.64593137E+02</totfact>
</mgrwt>
</event>
<event>
 4    1  0.2892809E-005  0.9057090E+03  0.7818608E-02  0.9418473E-01
         -2   -1    0    0    0  501 -0.00000000000E+00  0.00000000000E+00  0.15240572220E+03  0.15240572222E+03  0.25500000000E-02 0. -1.
          2   -1    0    0  501    0  0.00000000000E+00 -0.00000000000E+00 -0.13456003714E+04  0.13456003714E+04  0.25500000000E-02 0.  1.
    5000001    1    1    2    0    0 -0.28764923066E+03  0.28452270220E+03 -0.70776935395E+03  0.83755400205E+03  0.19200000000E+03 0.  0.
   -5000001    1    1    2    0    0  0.28764923066E+03 -0.28452270220E+03 -0.48542529521E+03  0.66045209152E+03  0.19200000000E+03 0.  0.
<mgrwt>
<rscale>  0 0.90570900E+03</rscale>
<asrwt>0</asrwt>
<pdfrwt beam="1">  1        2 0.19222862E+00 0.90570900E+03</pdfrwt>
<pdfrwt beam="2">  1       -2 0.21772247E-01 0.90570900E+03</pdfrwt>
<totfact> 0.32562135E+02</totfact>
</mgrwt>
</event>
<event>
 4    1  0.2892809E-005  0.6498785E+03  0.7818608E-02  0.9807007E-01
          2   -1    0    0  501    0  0.00000000000E+00  0.00000000000E+00  0.18663250188E+03  0.18663250190E+03  0.25500000000E-02 0.  1.
         -2   -1    0    0    0  501 -0.00000000000E+00 -0.00000000000E+00 -0.56574018520E+03  0.56574018520E+03  0.25500000000E-02 0. -1.
    5000001    1    1    2    0    0  0.17248067253E+03 -0.15313971175E+03 -0.45326079770E+02  0.30351244986E+03  0.19200000000E+03 0.  0.
   -5000001    1    1    2    0    0 -0.17248067253E+03  0.15313971175E+03 -0.33378160355E+03  0.44886023724E+03  0.19200000000E+03 0.  0.
<mgrwt>
<rscale>  0 0.64987847E+03</rscale>
<asrwt>0</asrwt>
<pdfrwt beam="1">  1        2 0.26661786E-01 0.64987847E+03</pdfrwt>
<pdfrwt beam="2">  1       -2 0.80820026E-01 0.64987847E+03</pdfrwt>
<totfact> 0.27774821E+02</totfact>
</mgrwt>
</event>
<event>
 4    1  0.2892809E-005  0.1044287E+04  0.7818608E-02  0.9261263E-01
          2   -1    0    0  501    0  0.00000000000E+00  0.00000000000E+00  0.58077913160E+03  0.58077913160E+03  0.25500000000E-02 0.  1.
         -2   -1    0    0    0  501 -0.00000000000E+00 -0.00000000000E+00 -0.46942734493E+03  0.46942734494E+03  0.25500000000E-02 0. -1.
    5000001    1    1    2    0    0 -0.16535707779E+03 -0.33450220378E+03  0.36813790133E+03  0.55823310714E+03  0.19200000000E+03 0.  0.
   -5000001    1    1    2    0    0  0.16535707779E+03  0.33450220378E+03 -0.25678611467E+03  0.49197336940E+03  0.19200000000E+03 0.  0.
<mgrwt>
<rscale>  0 0.10442866E+04</rscale>
<asrwt>0</asrwt>
<pdfrwt beam="1">  1        2 0.82968447E-01 0.10442866E+04</pdfrwt>
<pdfrwt beam="2">  1       -2 0.67061049E-01 0.10442866E+04</pdfrwt>
<totfact> 0.11474100E+02</totfact>
</mgrwt>
</event>
<event>
 4    1  0.2892809E-005  0.9352979E+03  0.7818608E-02  0.9382502E-01
         -2   -1    0    0    0  501 -0.00000000000E+00  0.00000000000E+00  0.21271092361E+03  0.21271092363E+03  0.25500000000E-02 0. -1.
          2   -1    0    0  501    0  0.00000000000E+00 -0.00000000000E+00 -0.10281350626E+04  0.10281350626E+04  0.25500000000E-02 0.  1.
    5000001    1    1    2    0    0  0.28420466918E+03 -0.30036450878E+03 -0.26958109029E+03  0.52964997533E+03  0.19200000000E+03 0.  0.
   -5000001    1    1    2    0    0 -0.28420466918E+03  0.30036450878E+03 -0.54584304871E+03  0.71119601092E+03  0.19200000000E+03 0.  0.
<mgrwt>
<rscale>  0 0.93529794E+03</rscale>
<asrwt>0</asrwt>
<pdfrwt beam="1">  1        2 0.14687644E+00 0.93529794E+03</pdfrwt>
<pdfrwt beam="2">  1       -2 0.30387275E-01 0.93529794E+03</pdfrwt>
<totfact> 0.26971711E+02</totfact>
</mgrwt>
</event>
<event>
 4    1  0.2892809E-005  0.4257450E+03  0.7818608E-02  0.1035213E+00
          2   -1    0    0  501    0  0.00000000000E+00  0.00000000000E+00  0.13264125140E+04  0.13264125140E+04  0.25500000000E-02 0.  1.
         -2   -1    0    0    0  501 -0.00000000000E+00 -0.00000000000E+00 -0.34163360238E+02  0.34163360333E+02  0.25500000000E-02 0. -1.
    5000001    1    1    2    0    0  0.79626655334E+02  0.55587633538E+01  0.79185246314E+03  0.81869751891E+03  0.19200000000E+03 0.  0.
   -5000001    1    1    2    0    0 -0.79626655334E+02 -0.55587633538E+01  0.50039669059E+03  0.54187835540E+03  0.19200000000E+03 0.  0.
<mgrwt>
<rscale>  0 0.42574503E+03</rscale>
<asrwt>0</asrwt>
<pdfrwt beam="1">  1        2 0.18948749E+00 0.42574503E+03</pdfrwt>
<pdfrwt beam="2">  1       -2 0.48804804E-02 0.42574503E+03</pdfrwt>
<totfact> 0.39096080E+03</totfact>
</mgrwt>
</event>
<event>
 4    1  0.2892809E-005  0.8397003E+03  0.7818608E-02  0.9504266E-01
          2   -1    0    0  501    0  0.00000000000E+00  0.00000000000E+00  0.64850820077E+03  0.64850820078E+03  0.25500000000E-02 0.  1.
         -2   -1    0    0    0  501 -0.00000000000E+00 -0.00000000000E+00 -0.27181485624E+03  0.27181485625E+03  0.25500000000E-02 0. -1.
    5000001    1    1    2    0    0 -0.31735204017E+03  0.99522497224E+02  0.37432413925E+03  0.53628313984E+03  0.19200000000E+03 0.  0.
   -5000001    1    1    2    0    0  0.31735204017E+03 -0.99522497224E+02  0.23692052829E+01  0.38403991718E+03  0.19200000000E+03 0.  0.
<mgrwt>
<rscale>  0 0.83970034E+03</rscale>
<asrwt>0</asrwt>
<pdfrwt beam="1">  1        2 0.92644028E-01 0.83970034E+03</pdfrwt>
<pdfrwt beam="2">  1       -2 0.38830694E-01 0.83970034E+03</pdfrwt>
<totfact> 0.31081553E+02</totfact>
</mgrwt>
</event>
<event>
 4    1  0.2892809E-005  0.1972681E+04  0.7818608E-02  0.8619501E-01
          2   -1    0    0  501    0  0.00000000000E+00  0.00000000000E+00  0.79840845105E+03  0.79840845105E+03  0.25500000000E-02 0.  1.
         -2   -1    0    0    0  501 -0.00000000000E+00 -0.00000000000E+00 -0.12185089402E+04  0.12185089402E+04  0.25500000000E-02 0. -1.
    5000001    1    1    2    0    0 -0.53724854670E+03  0.68762972294E+03 -0.63719021838E+03  0.10974269958E+04  0.19200000000E+03 0.  0.
   -5000001    1    1    2    0    0  0.53724854670E+03 -0.68762972294E+03  0.21708972919E+03  0.91949039545E+03  0.19200000000E+03 0.  0.
<mgrwt>
<rscale>  0 0.19726813E+04</rscale>
<asrwt>0</asrwt>
<pdfrwt beam="1">  1        2 0.11405835E+00 0.19726813E+04</pdfrwt>
<pdfrwt beam="2">  1       -2 0.17407270E+00 0.19726813E+04</pdfrwt>
<totfact> 0.70996702E+00</totfact>
</mgrwt>
</event>
<event>
 4    1  0.2892809E-005  0.7112723E+03  0.7818608E-02  0.9698147E-01
          2   -1    0    0  501    0  0.00000000000E+00  0.00000000000E+00  0.75614356022E+03  0.75614356022E+03  0.25500000000E-02 0.  1.
         -2   -1    0    0    0  501 -0.00000000000E+00 -0.00000000000E+00 -0.16726596823E+03  0.16726596825E+03  0.25500000000E-02 0. -1.
    5000001    1    1    2    0    0  0.18968178230E+03 -0.16919528899E+03  0.89139236615E+02  0.33078093636E+03  0.19200000000E+03 0.  0.
   -5000001    1    1    2    0    0 -0.18968178230E+03  0.16919528899E+03  0.49973835537E+03  0.59262859211E+03  0.19200000000E+03 0.  0.
<mgrwt>
<rscale>  0 0.71127234E+03</rscale>
<asrwt>0</asrwt>
<pdfrwt beam="1">  1        2 0.10802051E+00 0.71127234E+03</pdfrwt>
<pdfrwt beam="2">  1       -2 0.23895138E-01 0.71127234E+03</pdfrwt>
<totfact> 0.63764799E+02</totfact>
</mgrwt>
</event>
<event>
 4    1  0.2892809E-005  0.4253499E+03  0.7818608E-02  0.1035339E+00
         -2   -1    0    0    0  501 -0.00000000000E+00  0.00000000000E+00  0.11378826549E+03  0.11378826552E+03  0.25500000000E-02 0. -1.
          2   -1    0    0  501    0  0.00000000000E+00 -0.00000000000E+00 -0.39749831615E+03  0.39749831616E+03  0.25500000000E-02 0.  1.
    5000001    1    1    2    0    0  0.53869235274E+02 -0.66210352846E+02 -0.10233488040E+03  0.23371378453E+03  0.19200000000E+03 0.  0.
   -5000001    1    1    2    0    0 -0.53869235274E+02  0.66210352846E+02 -0.18137517026E+03  0.27757279715E+03  0.19200000000E+03 0.  0.
<mgrwt>
<rscale>  0 0.42534995E+03</rscale>
<asrwt>0</asrwt>
<pdfrwt beam="1">  1        2 0.56785473E-01 0.42534995E+03</pdfrwt>
<pdfrwt beam="2">  1       -2 0.16255467E-01 0.42534995E+03</pdfrwt>
<totfact> 0.26291559E+03</totfact>
</mgrwt>
</event>
<event>
 4    1  0.2892809E-005  0.7743555E+03  0.7818608E-02  0.9597897E-01
          2   -1    0    0  501    0  0.00000000000E+00  0.00000000000E+00  0.10540510969E+04  0.10540510969E+04  0.25500000000E-02 0.  1.
         -2   -1    0    0    0  501 -0.00000000000E+00 -0.00000000000E+00 -0.14221947942E+03  0.14221947944E+03  0.25500000000E-02 0. -1.
    5000001    1    1    2    0    0  0.55988240806E+02  0.86360864476E+02  0.95039091295E+03  0.97503834254E+03  0.19200000000E+03 0.  0.
   -5000001    1    1    2    0    0 -0.55988240806E+02 -0.86360864476E+02 -0.38559295439E+02  0.22123223383E+03  0.19200000000E+03 0.  0.
<mgrwt>
<rscale>  0 0.77435547E+03</rscale>
<asrwt>0</asrwt>
<pdfrwt beam="1">  1        2 0.15057873E+00 0.77435547E+03</pdfrwt>
<pdfrwt beam="2">  1       -2 0.20317068E-01 0.77435547E+03</pdfrwt>
<totfact> 0.54206419E+02</totfact>
</mgrwt>
</event>
<event>
 4    1  0.2892809E-005  0.4212873E+03  0.7818608E-02  0.1036648E+00
         -2   -1    0    0    0  501 -0.00000000000E+00  0.00000000000E+00  0.25926758451E+02  0.25926758576E+02  0.25500000000E-02 0. -1.
          2   -1    0    0  501    0  0.00000000000E+00 -0.00000000000E+00 -0.17113878338E+04  0.17113878338E+04  0.25500000000E-02 0.  1.
    5000001    1    1    2    0    0  0.48082715703E+02  0.51289923593E+02 -0.10515498242E+04  0.10712439669E+04  0.19200000000E+03 0.  0.
   -5000001    1    1    2    0    0 -0.48082715703E+02 -0.51289923593E+02 -0.63391125113E+03  0.66607062547E+03  0.19200000000E+03 0.  0.
<mgrwt>
<rscale>  0 0.42128726E+03</rscale>
<asrwt>0</asrwt>
<pdfrwt beam="1">  1        2 0.24448390E+00 0.42128726E+03</pdfrwt>
<pdfrwt beam="2">  1       -2 0.37038237E-02 0.42128726E+03</pdfrwt>
<totfact> 0.37767739E+03</totfact>
</mgrwt>
</event>
<event>
 4    1  0.2892809E-005  0.8661287E+03  0.7818608E-02  0.9468942E-01
         -2   -1    0    0    0  501 -0.00000000000E+00  0.00000000000E+00  0.54398438591E+03  0.54398438592E+03  0.25500000000E-02 0.  1.
          2   -1    0    0  501    0  0.00000000000E+00 -0.00000000000E+00 -0.34476120611E+03  0.34476120612E+03  0.25500000000E-02 0. -1.
    5000001    1    1    2    0    0  0.37764501742E+03 -0.67031553459E+02  0.16093609288E+03  0.45811943239E+03  0.19200000000E+03 0.  0.
   -5000001    1    1    2    0    0 -0.37764501742E+03  0.67031553459E+02  0.38287086916E+02  0.43062615964E+03  0.19200000000E+03 0.  0.
<mgrwt>
<rscale>  0 0.86612866E+03</rscale>
<asrwt>0</asrwt>
<pdfrwt beam="1">  1        2 0.49251601E-01 0.86612866E+03</pdfrwt>
<pdfrwt beam="2">  1       -2 0.77712055E-01 0.86612866E+03</pdfrwt>
<totfact> 0.15145822E+02</totfact>
</mgrwt>
</event>
<event>
 4    1  0.2892809E-005  0.6723697E+03  0.7818608E-02  0.9765686E-01
         -2   -1    0    0    0  501 -0.00000000000E+00  0.00000000000E+00  0.28496072706E+03  0.28496072707E+03  0.25500000000E-02 0. -1.
          2   -1    0    0  501    0  0.00000000000E+00 -0.00000000000E+00 -0.39661697484E+03  0.39661697484E+03  0.25500000000E-02 0.  1.
    5000001    1    1    2    0    0 -0.85035844753E+02 -0.10271803467E+03 -0.30074436810E+03  0.38091109787E+03  0.19200000000E+03 0.  0.
   -5000001    1    1    2    0    0  0.85035844753E+02  0.10271803467E+03  0.18908812033E+03  0.30066660404E+03  0.19200000000E+03 0.  0.
<mgrwt>
<rscale>  0 0.67236972E+03</rscale>
<asrwt>0</asrwt>
<pdfrwt beam="1">  1        2 0.56659568E-01 0.67236972E+03</pdfrwt>
<pdfrwt beam="2">  1       -2 0.40708675E-01 0.67236972E+03</pdfrwt>
<totfact> 0.50226535E+02</totfact>
</mgrwt>
</event>
<event>
 4    1  0.2892809E-005  0.8564463E+03  0.7818608E-02  0.9481726E-01
          2   -1    0    0  501    0  0.00000000000E+00  0.00000000000E+00  0.51741460319E+03  0.51741460319E+03  0.25500000000E-02 0.  1.
         -2   -1    0    0    0  501 -0.00000000000E+00 -0.00000000000E+00 -0.35440639623E+03  0.35440639624E+03  0.25500000000E-02 0. -1.
    5000001    1    1    2    0    0  0.63528398104E+02  0.37094031635E+03  0.10404202161E+02  0.42261663844E+03  0.19200000000E+03 0.  0.
   -5000001    1    1    2    0    0 -0.63528398104E+02 -0.37094031635E+03  0.15260400479E+03  0.44920436100E+03  0.19200000000E+03 0.  0.
<mgrwt>
<rscale>  0 0.85644625E+03</rscale>
<asrwt>0</asrwt>
<pdfrwt beam="1">  1        2 0.73916372E-01 0.85644625E+03</pdfrwt>
<pdfrwt beam="2">  1       -2 0.50629485E-01 0.85644625E+03</pdfrwt>
<totfact> 0.23916046E+02</totfact>
</mgrwt>
</event>
<event>
 4    1  0.2892809E-005  0.5998596E+03  0.7818608E-02  0.9905697E-01
          2   -1    0    0  501    0  0.00000000000E+00  0.00000000000E+00  0.14062902309E+04  0.14062902309E+04  0.25500000000E-02 0.  1.
         -2   -1    0    0    0  501 -0.00000000000E+00 -0.00000000000E+00 -0.63968223585E+02  0.63968223636E+02  0.25500000000E-02 0. -1.
    5000001    1    1    2    0    0 -0.19737441281E+03  0.16596526630E+02  0.38258937219E+03  0.47166803076E+03  0.19200000000E+03 0.  0.
   -5000001    1    1    2    0    0  0.19737441281E+03 -0.16596526630E+02  0.95973263508E+03  0.99859042373E+03  0.19200000000E+03 0.  0.
<mgrwt>
<rscale>  0 0.59985961E+03</rscale>
<asrwt>0</asrwt>
<pdfrwt beam="1">  1        2 0.20089858E+00 0.59985961E+03</pdfrwt>
<pdfrwt beam="2">  1       -2 0.91383190E-02 0.59985961E+03</pdfrwt>
<totfact> 0.13201585E+03</totfact>
</mgrwt>
</event>
<event>
 4    1  0.2892809E-005  0.4402111E+03  0.7818608E-02  0.1030682E+00
         -2   -1    0    0    0  501 -0.00000000000E+00  0.00000000000E+00  0.83478892573E+02  0.83478892612E+02  0.25500000000E-02 0. -1.
          2   -1    0    0  501    0  0.00000000000E+00 -0.00000000000E+00 -0.58034380710E+03  0.58034380710E+03  0.25500000000E-02 0.  1.
    5000001    1    1    2    0    0 -0.44868591409E+02  0.75972465028E+02 -0.34135846007E+03  0.40146557038E+03  0.19200000000E+03 0.  0.
   -5000001    1    1    2    0    0  0.44868591409E+02 -0.75972465028E+02 -0.15550645445E+03  0.26235712934E+03  0.19200000000E+03 0.  0.
<mgrwt>
<rscale>  0 0.44021112E+03</rscale>
<asrwt>0</asrwt>
<pdfrwt beam="1">  1        2 0.82906256E-01 0.44021112E+03</pdfrwt>
<pdfrwt beam="2">  1       -2 0.11925556E-01 0.44021112E+03</pdfrwt>
<totfact> 0.28754948E+03</totfact>
</mgrwt>
</event>
<event>
 4    1  0.2892809E-005  0.6176273E+03  0.7818608E-02  0.9869495E-01
          2   -1    0    0  501    0  0.00000000000E+00  0.00000000000E+00  0.83124671313E+03  0.83124671313E+03  0.25500000000E-02 0.  1.
         -2   -1    0    0    0  501 -0.00000000000E+00 -0.00000000000E+00 -0.11472630645E+03  0.11472630648E+03  0.25500000000E-02 0. -1.
    5000001    1    1    2    0    0  0.13388686992E+03 -0.20084644957E+03  0.33468736821E+03  0.45513143671E+03  0.19200000000E+03 0.  0.
   -5000001    1    1    2    0    0 -0.13388686992E+03  0.20084644957E+03  0.38183303846E+03  0.49084158290E+03  0.19200000000E+03 0.  0.
<mgrwt>
<rscale>  0 0.61762728E+03</rscale>
<asrwt>0</asrwt>
<pdfrwt beam="1">  1        2 0.11874953E+00 0.61762728E+03</pdfrwt>
<pdfrwt beam="2">  1       -2 0.16389472E-01 0.61762728E+03</pdfrwt>
<totfact> 0.10926206E+03</totfact>
</mgrwt>
</event>
<event>
 4    1  0.2892809E-005  0.5888683E+03  0.7818608E-02  0.9928774E-01
          2   -1    0    0  501    0  0.00000000000E+00  0.00000000000E+00  0.17587608848E+04  0.17587608848E+04  0.25500000000E-02 0.  1.
         -2   -1    0    0    0  501 -0.00000000000E+00 -0.00000000000E+00 -0.49291214616E+02  0.49291214682E+02  0.25500000000E-02 0. -1.
    5000001    1    1    2    0    0  0.24137367618E+01  0.13850504400E+03  0.31730360565E+03  0.39589777910E+03  0.19200000000E+03 0.  0.
   -5000001    1    1    2    0    0 -0.24137367618E+01 -0.13850504400E+03  0.13921660645E+04  0.14121543204E+04  0.19200000000E+03 0.  0.
<mgrwt>
<rscale>  0 0.58886827E+03</rscale>
<asrwt>0</asrwt>
<pdfrwt beam="1">  1        2 0.25125150E+00 0.58886827E+03</pdfrwt>
<pdfrwt beam="2">  1       -2 0.70416036E-02 0.58886827E+03</pdfrwt>
<totfact> 0.13164167E+03</totfact>
</mgrwt>
</event>
<event>
 4    1  0.2892809E-005  0.5580425E+03  0.7818608E-02  0.9996494E-01
          2   -1    0    0  501    0  0.00000000000E+00  0.00000000000E+00  0.68022263636E+02  0.68022263684E+02  0.25500000000E-02 0.  1.
         -2   -1    0    0    0  501 -0.00000000000E+00 -0.00000000000E+00 -0.11445201685E+04  0.11445201685E+04  0.25500000000E-02 0. -1.
    5000001    1    1    2    0    0  0.87864453026E+02  0.18058683634E+03 -0.48255083769E+03  0.55682230426E+03  0.19200000000E+03 0.  0.
   -5000001    1    1    2    0    0 -0.87864453026E+02 -0.18058683634E+03 -0.59394706715E+03  0.65572012790E+03  0.19200000000E+03 0.  0.
<mgrwt>
<rscale>  0 0.55804248E+03</rscale>
<asrwt>0</asrwt>
<pdfrwt beam="1">  1        2 0.97174670E-02 0.55804248E+03</pdfrwt>
<pdfrwt beam="2">  1       -2 0.16350287E+00 0.55804248E+03</pdfrwt>
<totfact> 0.16679713E+02</totfact>
</mgrwt>
</event>
<event>
 4    1  0.2892809E-005  0.7592171E+03  0.7818608E-02  0.9621000E-01
         -2   -1    0    0    0  501 -0.00000000000E+00  0.00000000000E+00  0.17738903409E+04  0.17738903409E+04  0.25500000000E-02 0. -1.
          2   -1    0    0  501    0  0.00000000000E+00 -0.00000000000E+00 -0.81235382927E+02  0.81235382967E+02  0.25500000000E-02 0.  1.
    5000001    1    1    2    0    0 -0.15221628724E+03  0.28614414478E+03  0.96068591819E+03  0.10319058596E+04  0.19200000000E+03 0.  0.
   -5000001    1    1    2    0    0  0.15221628724E+03 -0.28614414478E+03  0.73196903974E+03  0.82321986422E+03  0.19200000000E+03 0.  0.
<mgrwt>
<rscale>  0 0.75921713E+03</rscale>
<asrwt>0</asrwt>
<pdfrwt beam="1">  1        2 0.11605055E-01 0.75921713E+03</pdfrwt>
<pdfrwt beam="2">  1       -2 0.25341289E+00 0.75921713E+03</pdfrwt>
<totfact> 0.34673317E+01</totfact>
</mgrwt>
</event>
<event>
 4    1  0.2892809E-005  0.5526899E+03  0.7818608E-02  0.1000873E+00
         -2   -1    0    0    0  501 -0.00000000000E+00  0.00000000000E+00  0.26180230108E+02  0.26180230232E+02  0.25500000000E-02 0. -1.
          2   -1    0    0  501    0  0.00000000000E+00 -0.00000000000E+00 -0.29169539028E+04  0.29169539028E+04  0.25500000000E-02 0.  1.
    5000001    1    1    2    0    0  0.16810987818E+03 -0.87933379688E+02 -0.17608434751E+04  0.17814115062E+04  0.19200000000E+03 0.  0.
   -5000001    1    1    2    0    0 -0.16810987818E+03  0.87933379688E+02 -0.11299301976E+04  0.11617226269E+04  0.19200000000E+03 0.  0.
<mgrwt>
<rscale>  0 0.55268988E+03</rscale>
<asrwt>0</asrwt>
<pdfrwt beam="1">  1        2 0.41670749E+00 0.55268988E+03</pdfrwt>
<pdfrwt beam="2">  1       -2 0.37400347E-02 0.55268988E+03</pdfrwt>
<totfact> 0.90181519E+02</totfact>
</mgrwt>
</event>
<event>
 4    1  0.2892809E-005  0.6042190E+03  0.7818608E-02  0.9896691E-01
         -2   -1    0    0    0  501 -0.00000000000E+00  0.00000000000E+00  0.32365332043E+02  0.32365332144E+02  0.25500000000E-02 0. -1.
          2   -1    0    0  501    0  0.00000000000E+00 -0.00000000000E+00 -0.28199970294E+04  0.28199970294E+04  0.25500000000E-02 0.  1.
    5000001    1    1    2    0    0 -0.16307250969E+03 -0.12142080897E+03 -0.19335205220E+04  0.19536379566E+04  0.19200000000E+03 0.  0.
   -5000001    1    1    2    0    0  0.16307250969E+03  0.12142080897E+03 -0.85411117537E+03  0.89872440501E+03  0.19200000000E+03 0.  0.
<mgrwt>
<rscale>  0 0.60421897E+03</rscale>
<asrwt>0</asrwt>
<pdfrwt beam="1">  1        2 0.40285656E+00 0.60421897E+03</pdfrwt>
<pdfrwt beam="2">  1       -2 0.46236207E-02 0.60421897E+03</pdfrwt>
<totfact> 0.72984141E+02</totfact>
</mgrwt>
</event>
<event>
 4    1  0.2892809E-005  0.8076135E+03  0.7818608E-02  0.9549062E-01
         -2   -1    0    0    0  501 -0.00000000000E+00  0.00000000000E+00  0.11901013081E+03  0.11901013084E+03  0.25500000000E-02 0. -1.
          2   -1    0    0  501    0  0.00000000000E+00 -0.00000000000E+00 -0.13701345165E+04  0.13701345165E+04  0.25500000000E-02 0.  1.
    5000001    1    1    2    0    0  0.13316289052E+03 -0.27277929429E+03 -0.28529216786E+03  0.45869000409E+03  0.19200000000E+03 0.  0.
   -5000001    1    1    2    0    0 -0.13316289052E+03  0.27277929429E+03 -0.96583221778E+03  0.10304546432E+04  0.19200000000E+03 0.  0.
<mgrwt>
<rscale>  0 0.80761349E+03</rscale>
<asrwt>0</asrwt>
<pdfrwt beam="1">  1        2 0.19573349E+00 0.80761349E+03</pdfrwt>
<pdfrwt beam="2">  1       -2 0.17001448E-01 0.80761349E+03</pdfrwt>
<totfact> 0.48852178E+02</totfact>
</mgrwt>
</event>
<event>
 4    1  0.2892809E-005  0.6897648E+03  0.7818608E-02  0.9734898E-01
         -2   -1    0    0    0  501 -0.00000000000E+00  0.00000000000E+00  0.23549829501E+03  0.23549829503E+03  0.25500000000E-02 0. -1.
          2   -1    0    0  501    0  0.00000000000E+00 -0.00000000000E+00 -0.50507317190E+03  0.50507317191E+03  0.25500000000E-02 0.  1.
    5000001    1    1    2    0    0  0.17525678422E+03  0.18571139131E+03  0.46898194756E+01  0.31951471904E+03  0.19200000000E+03 0.  0.
   -5000001    1    1    2    0    0 -0.17525678422E+03 -0.18571139131E+03 -0.27426469636E+03  0.42105674789E+03  0.19200000000E+03 0.  0.
<mgrwt>
<rscale>  0 0.68976480E+03</rscale>
<asrwt>0</asrwt>
<pdfrwt beam="1">  1        2 0.72153310E-01 0.68976480E+03</pdfrwt>
<pdfrwt beam="2">  1       -2 0.33642614E-01 0.68976480E+03</pdfrwt>
<totfact> 0.55114133E+02</totfact>
</mgrwt>
</event>
<event>
 4    1  0.2892809E-005  0.4736532E+03  0.7818608E-02  0.1020894E+00
          2   -1    0    0  501    0  0.00000000000E+00  0.00000000000E+00  0.64197615863E+03  0.64197615864E+03  0.25500000000E-02 0.  1.
         -2   -1    0    0    0  501 -0.00000000000E+00 -0.00000000000E+00 -0.87365907827E+02  0.87365907864E+02  0.25500000000E-02 0. -1.
    5000001    1    1    2    0    0 -0.88760085537E+02  0.21059677090E+02  0.43807450495E+03  0.48692415700E+03  0.19200000000E+03 0.  0.
   -5000001    1    1    2    0    0  0.88760085537E+02 -0.21059677090E+02  0.11653574585E+03  0.24241790950E+03  0.19200000000E+03 0.  0.
<mgrwt>
<rscale>  0 0.47365316E+03</rscale>
<asrwt>0</asrwt>
<pdfrwt beam="1">  1        2 0.91710880E-01 0.47365316E+03</pdfrwt>
<pdfrwt beam="2">  1       -2 0.12480844E-01 0.47365316E+03</pdfrwt>
<totfact> 0.23732631E+03</totfact>
</mgrwt>
</event>
<event>
 4    1  0.2892809E-005  0.5683445E+03  0.7818608E-02  0.9973349E-01
          2   -1    0    0  501    0  0.00000000000E+00  0.00000000000E+00  0.10566339825E+04  0.10566339825E+04  0.25500000000E-02 0.  1.
         -2   -1    0    0    0  501 -0.00000000000E+00 -0.00000000000E+00 -0.76425580621E+02  0.76425580663E+02  0.25500000000E-02 0. -1.
    5000001    1    1    2    0    0  0.11781728848E+03  0.17306305270E+03  0.50530437646E+03  0.57967943430E+03  0.19200000000E+03 0.  0.
   -5000001    1    1    2    0    0 -0.11781728848E+03 -0.17306305270E+03  0.47490402544E+03  0.55338012889E+03  0.19200000000E+03 0.  0.
<mgrwt>
<rscale>  0 0.56834449E+03</rscale>
<asrwt>0</asrwt>
<pdfrwt beam="1">  1        2 0.15094770E+00 0.56834449E+03</pdfrwt>
<pdfrwt beam="2">  1       -2 0.10917941E-01 0.56834449E+03</pdfrwt>
<totfact> 0.15501241E+03</totfact>
</mgrwt>
</event>
<event>
 4    1  0.2892809E-005  0.4369945E+03  0.7818608E-02  0.1031673E+00
          2   -1    0    0  501    0  0.00000000000E+00  0.00000000000E+00  0.21687747193E+04  0.21687747193E+04  0.25500000000E-02 0.  1.
         -2   -1    0    0    0  501 -0.00000000000E+00 -0.00000000000E+00 -0.22012909414E+02  0.22012909562E+02  0.25500000000E-02 0. -1.
    5000001    1    1    2    0    0  0.42808903888E+02  0.88226130152E+01  0.59866010825E+03  0.63021295287E+03  0.19200000000E+03 0.  0.
   -5000001    1    1    2    0    0 -0.42808903888E+02 -0.88226130152E+01  0.15481017016E+04  0.15605746760E+04  0.19200000000E+03 0.  0.
<mgrwt>
<rscale>  0 0.43699447E+03</rscale>
<asrwt>0</asrwt>
<pdfrwt beam="1">  1        2 0.30982498E+00 0.43699447E+03</pdfrwt>
<pdfrwt beam="2">  1       -2 0.31447011E-02 0.43699447E+03</pdfrwt>
<totfact> 0.28647938E+03</totfact>
</mgrwt>
</event>
<event>
 4    1  0.2892809E-005  0.6305840E+03  0.7818608E-02  0.9843910E-01
          2   -1    0    0  501    0  0.00000000000E+00  0.00000000000E+00  0.57180494643E+03  0.57180494644E+03  0.25500000000E-02 0.  1.
         -2   -1    0    0    0  501 -0.00000000000E+00 -0.00000000000E+00 -0.17385129909E+03  0.17385129911E+03  0.25500000000E-02 0. -1.
    5000001    1    1    2    0    0 -0.14054523549E+03 -0.10330113607E+03  0.41090558307E+03  0.48593362317E+03  0.19200000000E+03 0.  0.
   -5000001    1    1    2    0    0  0.14054523549E+03  0.10330113607E+03 -0.12951935725E+02  0.25972262237E+03  0.19200000000E+03 0.  0.
<mgrwt>
<rscale>  0 0.63058396E+03</rscale>
<asrwt>0</asrwt>
<pdfrwt beam="1">  1        2 0.81686421E-01 0.63058396E+03</pdfrwt>
<pdfrwt beam="2">  1       -2 0.24835900E-01 0.63058396E+03</pdfrwt>
<totfact> 0.83574967E+02</totfact>
</mgrwt>
</event>
<event>
 4    1  0.2892809E-005  0.4664783E+03  0.7818608E-02  0.1022919E+00
         -2   -1    0    0    0  501 -0.00000000000E+00  0.00000000000E+00  0.19465182945E+03  0.19465182947E+03  0.25500000000E-02 0. -1.
          2   -1    0    0  501    0  0.00000000000E+00 -0.00000000000E+00 -0.27947597365E+03  0.27947597366E+03  0.25500000000E-02 0.  1.
    5000001    1    1    2    0    0  0.51334428735E+02 -0.12195224678E+03 -0.47879453939E+02  0.23804204708E+03  0.19200000000E+03 0.  0.
   -5000001    1    1    2    0    0 -0.51334428735E+02  0.12195224678E+03 -0.36944690260E+02  0.23608575605E+03  0.19200000000E+03 0.  0.
<mgrwt>
<rscale>  0 0.46647834E+03</rscale>
<asrwt>0</asrwt>
<pdfrwt beam="1">  1        2 0.39925139E-01 0.46647834E+03</pdfrwt>
<pdfrwt beam="2">  1       -2 0.27807404E-01 0.46647834E+03</pdfrwt>
<totfact> 0.15160342E+03</totfact>
</mgrwt>
</event>
<event>
 4    1  0.2892809E-005  0.6667724E+03  0.7818608E-02  0.9775806E-01
         -2   -1    0    0    0  501 -0.00000000000E+00  0.00000000000E+00  0.29312549482E+02  0.29312549593E+02  0.25500000000E-02 0. -1.
          2   -1    0    0  501    0  0.00000000000E+00 -0.00000000000E+00 -0.37917664470E+04  0.37917664470E+04  0.25500000000E-02 0.  1.
    5000001    1    1    2    0    0 -0.20423840463E+02 -0.27153290290E+03 -0.19478342688E+04  0.19761248922E+04  0.19200000000E+03 0.  0.
   -5000001    1    1    2    0    0  0.20423840463E+02  0.27153290290E+03 -0.18146196287E+04  0.18449541044E+04  0.19200000000E+03 0.  0.
<mgrwt>
<rscale>  0 0.66677235E+03</rscale>
<asrwt>0</asrwt>
<pdfrwt beam="1">  1        2 0.54168061E+00 0.66677235E+03</pdfrwt>
<pdfrwt beam="2">  1       -2 0.41875095E-02 0.66677235E+03</pdfrwt>
<totfact> 0.23265067E+02</totfact>
</mgrwt>
</event>
<event>
 4    1  0.2892809E-005  0.6367235E+03  0.7818608E-02  0.9832015E-01
         -2   -1    0    0    0  501 -0.00000000000E+00  0.00000000000E+00  0.91186134993E+02  0.91186135029E+02  0.25500000000E-02 0. -1.
          2   -1    0    0  501    0  0.00000000000E+00 -0.00000000000E+00 -0.11115089964E+04  0.11115089964E+04  0.25500000000E-02 0.  1.
    5000001    1    1    2    0    0 -0.15907399079E+03  0.13406888471E+03 -0.23506346814E+03  0.36796444726E+03  0.19200000000E+03 0.  0.
   -5000001    1    1    2    0    0  0.15907399079E+03 -0.13406888471E+03 -0.78525939330E+03  0.83473068421E+03  0.19200000000E+03 0.  0.
<mgrwt>
<rscale>  0 0.63672352E+03</rscale>
<asrwt>0</asrwt>
<pdfrwt beam="1">  1        2 0.15878699E+00 0.63672352E+03</pdfrwt>
<pdfrwt beam="2">  1       -2 0.13026591E-01 0.63672352E+03</pdfrwt>
<totfact> 0.10748142E+03</totfact>
</mgrwt>
</event>
<event>
 4    1  0.2892809E-005  0.5736147E+03  0.7818608E-02  0.9961712E-01
         -2   -1    0    0    0  501 -0.00000000000E+00  0.00000000000E+00  0.21308260252E+03  0.21308260254E+03  0.25500000000E-02 0. -1.
          2   -1    0    0  501    0  0.00000000000E+00 -0.00000000000E+00 -0.38604025689E+03  0.38604025690E+03  0.25500000000E-02 0.  1.
    5000001    1    1    2    0    0 -0.13870644011E+03 -0.92191792927E+02  0.52304588408E+02  0.25949676911E+03  0.19200000000E+03 0.  0.
   -5000001    1    1    2    0    0  0.13870644011E+03  0.92191792927E+02 -0.22526224277E+03  0.33962609032E+03  0.19200000000E+03 0.  0.
<mgrwt>
<rscale>  0 0.57361472E+03</rscale>
<asrwt>0</asrwt>
<pdfrwt beam="1">  1        2 0.55148608E-01 0.57361472E+03</pdfrwt>
<pdfrwt beam="2">  1       -2 0.30440372E-01 0.57361472E+03</pdfrwt>
<totfact> 0.90037890E+02</totfact>
</mgrwt>
</event>
<event>
 4    1  0.2892809E-005  0.8978093E+03  0.7818608E-02  0.9428324E-01
         -2   -1    0    0    0  501 -0.00000000000E+00  0.00000000000E+00  0.12413515189E+03  0.12413515191E+03  0.25500000000E-02 0. -1.
          2   -1    0    0  501    0  0.00000000000E+00 -0.00000000000E+00 -0.16233548249E+04  0.16233548249E+04  0.25500000000E-02 0.  1.
    5000001    1    1    2    0    0  0.40196615257E+03 -0.15590640294E+01 -0.64172662704E+03  0.78118901832E+03  0.19200000000E+03 0.  0.
   -5000001    1    1    2    0    0 -0.40196615257E+03  0.15590640294E+01 -0.85749304599E+03  0.96630095850E+03  0.19200000000E+03 0.  0.
<mgrwt>
<rscale>  0 0.89780933E+03</rscale>
<asrwt>0</asrwt>
<pdfrwt beam="1">  1        2 0.23190782E+00 0.89780933E+03</pdfrwt>
<pdfrwt beam="2">  1       -2 0.17733594E-01 0.89780933E+03</pdfrwt>
<totfact> 0.33226043E+02</totfact>
</mgrwt>
</event>
<event>
 4    1  0.2892809E-005  0.5701049E+03  0.7818608E-02  0.9969447E-01
         -2   -1    0    0    0  501 -0.00000000000E+00  0.00000000000E+00  0.59644375588E+02  0.59644375643E+02  0.25500000000E-02 0. -1.
          2   -1    0    0  501    0  0.00000000000E+00 -0.00000000000E+00 -0.13623228952E+04  0.13623228952E+04  0.25500000000E-02 0.  1.
    5000001    1    1    2    0    0  0.14122152629E+03 -0.13745317140E+03 -0.46545699782E+03  0.54069502553E+03  0.19200000000E+03 0.  0.
   -5000001    1    1    2    0    0 -0.14122152629E+03  0.13745317140E+03 -0.83722152183E+03  0.88127224535E+03  0.19200000000E+03 0.  0.
<mgrwt>
<rscale>  0 0.57010490E+03</rscale>
<asrwt>0</asrwt>
<pdfrwt beam="1">  1        2 0.19461754E+00 0.57010490E+03</pdfrwt>
<pdfrwt beam="2">  1       -2 0.85206259E-02 0.57010490E+03</pdfrwt>
<totfact> 0.15602045E+03</totfact>
</mgrwt>
</event>
<event>
 4    1  0.2892809E-005  0.7299000E+03  0.7818608E-02  0.9667423E-01
          2   -1    0    0  501    0  0.00000000000E+00  0.00000000000E+00  0.16776218018E+04  0.16776218018E+04  0.25500000000E-02 0.  1.
         -2   -1    0    0    0  501 -0.00000000000E+00 -0.00000000000E+00 -0.79391248890E+02  0.79391248931E+02  0.25500000000E-02 0. -1.
    5000001    1    1    2    0    0 -0.30042557004E+03  0.60154693877E+02  0.67995586804E+03  0.77011563600E+03  0.19200000000E+03 0.  0.
   -5000001    1    1    2    0    0  0.30042557004E+03 -0.60154693877E+02  0.91827468484E+03  0.98689741471E+03  0.19200000000E+03 0.  0.
<mgrwt>
<rscale>  0 0.72989997E+03</rscale>
<asrwt>0</asrwt>
<pdfrwt beam="1">  1        2 0.23966025E+00 0.72989997E+03</pdfrwt>
<pdfrwt beam="2">  1       -2 0.11341607E-01 0.72989997E+03</pdfrwt>
<totfact> 0.66736322E+02</totfact>
</mgrwt>
</event>
<event>
 4    1  0.2892809E-005  0.6465186E+03  0.7818608E-02  0.9813334E-01
         -2   -1    0    0    0  501 -0.00000000000E+00  0.00000000000E+00  0.22901955126E+03  0.22901955127E+03  0.25500000000E-02 0. -1.
          2   -1    0    0  501    0  0.00000000000E+00 -0.00000000000E+00 -0.45627798290E+03  0.45627798291E+03  0.25500000000E-02 0.  1.
    5000001    1    1    2    0    0  0.18600426263E+03  0.15352035580E+03 -0.21676104218E+03  0.37684935288E+03  0.19200000000E+03 0.  0.
   -5000001    1    1    2    0    0 -0.18600426263E+03 -0.15352035580E+03 -0.10497389465E+02  0.30844818130E+03  0.19200000000E+03 0.  0.
<mgrwt>
<rscale>  0 0.64651861E+03</rscale>
<asrwt>0</asrwt>
<pdfrwt beam="1">  1        2 0.65182569E-01 0.64651861E+03</pdfrwt>
<pdfrwt beam="2">  1       -2 0.32717079E-01 0.64651861E+03</pdfrwt>
<totfact> 0.65247425E+02</totfact>
</mgrwt>
</event>
<event>
 4    1  0.2892809E-005  0.1240545E+04  0.7818608E-02  0.9078089E-01
         -2   -1    0    0    0  501 -0.00000000000E+00  0.00000000000E+00  0.12083637634E+03  0.12083637637E+03  0.25500000000E-02 0. -1.
          2   -1    0    0  501    0  0.00000000000E+00 -0.00000000000E+00 -0.31839606956E+04  0.31839606956E+04  0.25500000000E-02 0.  1.
    5000001    1    1    2    0    0  0.53193114720E+03 -0.25357520749E+03 -0.15980627524E+04  0.17140360824E+04  0.19200000000E+03 0.  0.
   -5000001    1    1    2    0    0 -0.53193114720E+03  0.25357520749E+03 -0.14650615669E+04  0.15907609896E+04  0.19200000000E+03 0.  0.
<mgrwt>
<rscale>  0 0.12405455E+04</rscale>
<asrwt>0</asrwt>
<pdfrwt beam="1">  1        2 0.45485148E+00 0.12405455E+04</pdfrwt>
<pdfrwt beam="2">  1       -2 0.17262341E-01 0.12405455E+04</pdfrwt>
<totfact> 0.51062436E+01</totfact>
</mgrwt>
</event>
<event>
 4    1  0.2892809E-005  0.4841827E+03  0.7818608E-02  0.1017992E+00
         -2   -1    0    0    0  501 -0.00000000000E+00  0.00000000000E+00  0.51756716504E+02  0.51756716566E+02  0.25500000000E-02 0. -1.
          2   -1    0    0  501    0  0.00000000000E+00 -0.00000000000E+00 -0.11323790378E+04  0.11323790378E+04  0.25500000000E-02 0.  1.
    5000001    1    1    2    0    0  0.70255052200E+02  0.12638668984E+03 -0.46964731424E+03  0.52758124256E+03  0.19200000000E+03 0.  0.
   -5000001    1    1    2    0    0 -0.70255052200E+02 -0.12638668984E+03 -0.61097500708E+03  0.65655451183E+03  0.19200000000E+03 0.  0.
<mgrwt>
<rscale>  0 0.48418270E+03</rscale>
<asrwt>0</asrwt>
<pdfrwt beam="1">  1        2 0.16176842E+00 0.48418270E+03</pdfrwt>
<pdfrwt beam="2">  1       -2 0.73938174E-02 0.48418270E+03</pdfrwt>
<totfact> 0.26190727E+03</totfact>
</mgrwt>
</event>
<event>
 4    1  0.2892809E-005  0.8411849E+03  0.7818608E-02  0.9502245E-01
         -2   -1    0    0    0  501 -0.00000000000E+00  0.00000000000E+00  0.91875758406E+02  0.91875758442E+02  0.25500000000E-02 0. -1.
          2   -1    0    0  501    0  0.00000000000E+00 -0.00000000000E+00 -0.19254045119E+04  0.19254045119E+04  0.25500000000E-02 0.  1.
    5000001    1    1    2    0    0  0.11159399849E+03  0.33888410408E+03 -0.64609990117E+03  0.76263014548E+03  0.19200000000E+03 0.  0.
   -5000001    1    1    2    0    0 -0.11159399849E+03 -0.33888410408E+03 -0.11874288523E+04  0.12546501249E+04  0.19200000000E+03 0.  0.
<mgrwt>
<rscale>  0 0.84118488E+03</rscale>
<asrwt>0</asrwt>
<pdfrwt beam="1">  1        2 0.27505776E+00 0.84118488E+03</pdfrwt>
<pdfrwt beam="2">  1       -2 0.13125109E-01 0.84118488E+03</pdfrwt>
<totfact> 0.38910503E+02</totfact>
</mgrwt>
</event>
<event>
 4    1  0.2892809E-005  0.7276115E+03  0.7818608E-02  0.9671144E-01
          2   -1    0    0  501    0  0.00000000000E+00  0.00000000000E+00  0.21723297052E+04  0.21723297052E+04  0.25500000000E-02 0.  1.
         -2   -1    0    0    0  501 -0.00000000000E+00 -0.00000000000E+00 -0.60927508603E+02  0.60927508657E+02  0.25500000000E-02 0. -1.
    5000001    1    1    2    0    0 -0.63511562363E+02  0.27305736224E+03  0.14546697469E+04  0.14938280069E+04  0.19200000000E+03 0.  0.
   -5000001    1    1    2    0    0  0.63511562363E+02 -0.27305736224E+03  0.65673244968E+03  0.73942920695E+03  0.19200000000E+03 0.  0.
<mgrwt>
<rscale>  0 0.72761154E+03</rscale>
<asrwt>0</asrwt>
<pdfrwt beam="1">  1        2 0.31033278E+00 0.72761154E+03</pdfrwt>
<pdfrwt beam="2">  1       -2 0.87039307E-02 0.72761154E+03</pdfrwt>
<totfact> 0.57606914E+02</totfact>
</mgrwt>
</event>
<event>
 4    1  0.2892809E-005  0.1667505E+04  0.7818608E-02  0.8780117E-01
          2   -1    0    0  501    0  0.00000000000E+00  0.00000000000E+00  0.22408534583E+04  0.22408534583E+04  0.25500000000E-02 0.  1.
         -2   -1    0    0    0  501 -0.00000000000E+00 -0.00000000000E+00 -0.31021365381E+03  0.31021365382E+03  0.25500000000E-02 0. -1.
    5000001    1    1    2    0    0  0.43611940030E+02 -0.79032999788E+03  0.12379453891E+04  0.14818556924E+04  0.19200000000E+03 0.  0.
   -5000001    1    1    2    0    0 -0.43611940030E+02  0.79032999788E+03  0.69269441544E+03  0.10692114197E+04  0.19200000000E+03 0.  0.
<mgrwt>
<rscale>  0 0.16675051E+04</rscale>
<asrwt>0</asrwt>
<pdfrwt beam="1">  1        2 0.32012193E+00 0.16675051E+04</pdfrwt>
<pdfrwt beam="2">  1       -2 0.44316236E-01 0.16675051E+04</pdfrwt>
<totfact> 0.27814108E+01</totfact>
</mgrwt>
</event>
<event>
 4    1  0.2892809E-005  0.1187846E+04  0.7818608E-02  0.9123562E-01
          2   -1    0    0  501    0  0.00000000000E+00  0.00000000000E+00  0.30494374001E+04  0.30494374001E+04  0.25500000000E-02 0.  1.
         -2   -1    0    0    0  501 -0.00000000000E+00 -0.00000000000E+00 -0.11567530628E+03  0.11567530631E+03  0.25500000000E-02 0. -1.
    5000001    1    1    2    0    0 -0.39431093057E+03 -0.98923536458E+01  0.40004428709E+03  0.59369891381E+03  0.19200000000E+03 0.  0.
   -5000001    1    1    2    0    0  0.39431093057E+03  0.98923536458E+01  0.25337178067E+04  0.25714137926E+04  0.19200000000E+03 0.  0.
<mgrwt>
<rscale>  0 0.11878461E+04</rscale>
<asrwt>0</asrwt>
<pdfrwt beam="1">  1        2 0.43563398E+00 0.11878461E+04</pdfrwt>
<pdfrwt beam="2">  1       -2 0.16525041E-01 0.11878461E+04</pdfrwt>
<totfact> 0.65888801E+01</totfact>
</mgrwt>
</event>
<event>
 4    1  0.2892809E-005  0.4733481E+03  0.7818608E-02  0.1020979E+00
          2   -1    0    0  501    0  0.00000000000E+00  0.00000000000E+00  0.11128921092E+04  0.11128921092E+04  0.25500000000E-02 0.  1.
         -2   -1    0    0    0  501 -0.00000000000E+00 -0.00000000000E+00 -0.50332466911E+02  0.50332466975E+02  0.25500000000E-02 0. -1.
    5000001    1    1    2    0    0 -0.95475104938E+02  0.92698831838E+02  0.43796061900E+03  0.49636888791E+03  0.19200000000E+03 0.  0.
   -5000001    1    1    2    0    0  0.95475104938E+02 -0.92698831838E+02  0.62459902330E+03  0.66685568828E+03  0.19200000000E+03 0.  0.
<mgrwt>
<rscale>  0 0.47334810E+03</rscale>
<asrwt>0</asrwt>
<pdfrwt beam="1">  1        2 0.15898458E+00 0.47334810E+03</pdfrwt>
<pdfrwt beam="2">  1       -2 0.71903526E-02 0.47334810E+03</pdfrwt>
<totfact> 0.28079030E+03</totfact>
</mgrwt>
</event>
<event>
 4    1  0.2892809E-005  0.1019378E+04  0.7818608E-02  0.9287543E-01
          2   -1    0    0  501    0  0.00000000000E+00  0.00000000000E+00  0.22054046787E+04  0.22054046787E+04  0.25500000000E-02 0.  1.
         -2   -1    0    0    0  501 -0.00000000000E+00 -0.00000000000E+00 -0.11779376854E+03  0.11779376856E+03  0.25500000000E-02 0. -1.
    5000001    1    1    2    0    0 -0.13535228347E+03  0.26582806672E+03  0.18778641883E+04  0.19110789390E+04  0.19200000000E+03 0.  0.
   -5000001    1    1    2    0    0  0.13535228347E+03 -0.26582806672E+03  0.20974672187E+03  0.41211950819E+03  0.19200000000E+03 0.  0.
<mgrwt>
<rscale>  0 0.10193781E+04</rscale>
<asrwt>0</asrwt>
<pdfrwt beam="1">  1        2 0.31505780E+00 0.10193781E+04</pdfrwt>
<pdfrwt beam="2">  1       -2 0.16827682E-01 0.10193781E+04</pdfrwt>
<totfact> 0.18162477E+02</totfact>
</mgrwt>
</event>
<event>
 4    1  0.2892809E-005  0.9818008E+03  0.7818608E-02  0.9328734E-01
         -2   -1    0    0    0  501 -0.00000000000E+00  0.00000000000E+00  0.22298352378E+03  0.22298352380E+03  0.25500000000E-02 0. -1.
          2   -1    0    0  501    0  0.00000000000E+00 -0.00000000000E+00 -0.10807220887E+04  0.10807220887E+04  0.25500000000E-02 0.  1.
    5000001    1    1    2    0    0 -0.30789819892E+03  0.30636366261E+03 -0.26376817130E+03  0.54322890466E+03  0.19200000000E+03 0.  0.
   -5000001    1    1    2    0    0  0.30789819892E+03 -0.30636366261E+03 -0.59397039357E+03  0.76047670780E+03  0.19200000000E+03 0.  0.
<mgrwt>
<rscale>  0 0.98180083E+03</rscale>
<asrwt>0</asrwt>
<pdfrwt beam="1">  1        2 0.15438887E+00 0.98180083E+03</pdfrwt>
<pdfrwt beam="2">  1       -2 0.31854790E-01 0.98180083E+03</pdfrwt>
<totfact> 0.22904259E+02</totfact>
</mgrwt>
</event>
<event>
 4    1  0.2892809E-005  0.4848380E+03  0.7818608E-02  0.1017814E+00
         -2   -1    0    0    0  501 -0.00000000000E+00  0.00000000000E+00  0.51920306245E+02  0.51920306308E+02  0.25500000000E-02 0. -1.
          2   -1    0    0  501    0  0.00000000000E+00 -0.00000000000E+00 -0.11318687382E+04  0.11318687382E+04  0.25500000000E-02 0.  1.
    5000001    1    1    2    0    0  0.11021251289E+03 -0.87805833772E+01 -0.29976227580E+03  0.37275369701E+03  0.19200000000E+03 0.  0.
   -5000001    1    1    2    0    0 -0.11021251289E+03  0.87805833772E+01 -0.78018615614E+03  0.81103534749E+03  0.19200000000E+03 0.  0.
<mgrwt>
<rscale>  0 0.48483800E+03</rscale>
<asrwt>0</asrwt>
<pdfrwt beam="1">  1        2 0.16169552E+00 0.48483800E+03</pdfrwt>
<pdfrwt beam="2">  1       -2 0.74171873E-02 0.48483800E+03</pdfrwt>
<totfact> 0.26078052E+03</totfact>
</mgrwt>
</event>
<event>
 4    1  0.2892809E-005  0.4511295E+03  0.7818608E-02  0.1027386E+00
         -2   -1    0    0    0  501 -0.00000000000E+00  0.00000000000E+00  0.69282776687E+02  0.69282776734E+02  0.25500000000E-02 0. -1.
          2   -1    0    0  501    0  0.00000000000E+00 -0.00000000000E+00 -0.73437392593E+03  0.73437392593E+03  0.25500000000E-02 0.  1.
    5000001    1    1    2    0    0  0.10484651241E+03  0.49351960979E+02 -0.28938277206E+03  0.36610762896E+03  0.19200000000E+03 0.  0.
   -5000001    1    1    2    0    0 -0.10484651241E+03 -0.49351960979E+02 -0.37570837718E+03  0.43754907371E+03  0.19200000000E+03 0.  0.
<mgrwt>
<rscale>  0 0.45112954E+03</rscale>
<asrwt>0</asrwt>
<pdfrwt beam="1">  1        2 0.10491056E+00 0.45112954E+03</pdfrwt>
<pdfrwt beam="2">  1       -2 0.98975399E-02 0.45112954E+03</pdfrwt>
<totfact> 0.29407322E+03</totfact>
</mgrwt>
</event>
<event>
 4    1  0.2892809E-005  0.4886546E+03  0.7818608E-02  0.1016783E+00
          2   -1    0    0  501    0  0.00000000000E+00  0.00000000000E+00  0.11597450723E+04  0.11597450723E+04  0.25500000000E-02 0.  1.
         -2   -1    0    0    0  501 -0.00000000000E+00 -0.00000000000E+00 -0.51473234722E+02  0.51473234785E+02  0.25500000000E-02 0. -1.
    5000001    1    1    2    0    0 -0.93167682905E+02  0.53153642705E+02  0.29034215208E+03  0.36423631360E+03  0.19200000000E+03 0.  0.
   -5000001    1    1    2    0    0  0.93167682905E+02 -0.53153642705E+02  0.81792968545E+03  0.84698199344E+03  0.19200000000E+03 0.  0.
<mgrwt>
<rscale>  0 0.48865460E+03</rscale>
<asrwt>0</asrwt>
<pdfrwt beam="1">  1        2 0.16567787E+00 0.48865460E+03</pdfrwt>
<pdfrwt beam="2">  1       -2 0.73533191E-02 0.48865460E+03</pdfrwt>
<totfact> 0.25491527E+03</totfact>
</mgrwt>
</event>
<event>
 4    1  0.2892809E-005  0.1028589E+04  0.7818608E-02  0.9277733E-01
          2   -1    0    0  501    0  0.00000000000E+00  0.00000000000E+00  0.28097992496E+03  0.28097992497E+03  0.25500000000E-02 0.  1.
         -2   -1    0    0    0  501 -0.00000000000E+00 -0.00000000000E+00 -0.94134336088E+03  0.94134336088E+03  0.25500000000E-02 0. -1.
    5000001    1    1    2    0    0  0.39675413884E+03  0.25703961830E+03 -0.25361493746E+03  0.56979623425E+03  0.19200000000E+03 0.  0.
   -5000001    1    1    2    0    0 -0.39675413884E+03 -0.25703961830E+03 -0.40674849846E+03  0.65252705160E+03  0.19200000000E+03 0.  0.
<mgrwt>
<rscale>  0 0.10285885E+04</rscale>
<asrwt>0</asrwt>
<pdfrwt beam="1">  1        2 0.40139990E-01 0.10285885E+04</pdfrwt>
<pdfrwt beam="2">  1       -2 0.13447762E+00 0.10285885E+04</pdfrwt>
<totfact> 0.50955490E+01</totfact>
</mgrwt>
</event>
<event>
 4    1  0.2892809E-005  0.9903721E+03  0.7818608E-02  0.9319168E-01
          2   -1    0    0  501    0  0.00000000000E+00  0.00000000000E+00  0.64637539468E+03  0.64637539469E+03  0.25500000000E-02 0. -1.
         -2   -1    0    0    0  501 -0.00000000000E+00 -0.00000000000E+00 -0.37936038481E+03  0.37936038482E+03  0.25500000000E-02 0.  1.
    5000001    1    1    2    0    0 -0.41765341238E+03 -0.18397093895E+03  0.12512280123E+03  0.51068522070E+03  0.19200000000E+03 0.  0.
   -5000001    1    1    2    0    0  0.41765341238E+03  0.18397093895E+03  0.14189220864E+03  0.51505055881E+03  0.19200000000E+03 0.  0.
<mgrwt>
<rscale>  0 0.99037209E+03</rscale>
<asrwt>0</asrwt>
<pdfrwt beam="1">  1        2 0.92339342E-01 0.99037209E+03</pdfrwt>
<pdfrwt beam="2">  1       -2 0.54194341E-01 0.99037209E+03</pdfrwt>
<totfact> 0.15892560E+02</totfact>
</mgrwt>
</event>
<event>
 4    1  0.2892809E-005  0.5038218E+03  0.7818608E-02  0.1012786E+00
          2   -1    0    0  501    0  0.00000000000E+00  0.00000000000E+00  0.67045242845E+03  0.67045242845E+03  0.25500000000E-02 0.  1.
         -2   -1    0    0    0  501 -0.00000000000E+00 -0.00000000000E+00 -0.94651158180E+02  0.94651158214E+02  0.25500000000E-02 0. -1.
    5000001    1    1    2    0    0  0.68002774042E+02  0.14821645006E+03  0.29035190440E+03  0.38439656831E+03  0.19200000000E+03 0.  0.
   -5000001    1    1    2    0    0 -0.68002774042E+02 -0.14821645006E+03  0.28544936587E+03  0.38070701835E+03  0.19200000000E+03 0.  0.
<mgrwt>
<rscale>  0 0.50382179E+03</rscale>
<asrwt>0</asrwt>
<pdfrwt beam="1">  1        2 0.95778921E-01 0.50382179E+03</pdfrwt>
<pdfrwt beam="2">  1       -2 0.13521594E-01 0.50382179E+03</pdfrwt>
<totfact> 0.19749040E+03</totfact>
</mgrwt>
</event>
<event>
 4    1  0.2892809E-005  0.1243859E+04  0.7818608E-02  0.9075310E-01
          2   -1    0    0  501    0  0.00000000000E+00  0.00000000000E+00  0.12540072265E+04  0.12540072265E+04  0.25500000000E-02 0.  1.
         -2   -1    0    0    0  501 -0.00000000000E+00 -0.00000000000E+00 -0.30844809675E+03  0.30844809676E+03  0.25500000000E-02 0. -1.
    5000001    1    1    2    0    0  0.36547940482E+03  0.39961007150E+03  0.77180512664E+03  0.96219049990E+03  0.19200000000E+03 0.  0.
   -5000001    1    1    2    0    0 -0.36547940482E+03 -0.39961007150E+03  0.17375400313E+03  0.60026482338E+03  0.19200000000E+03 0.  0.
<mgrwt>
<rscale>  0 0.12438587E+04</rscale>
<asrwt>0</asrwt>
<pdfrwt beam="1">  1        2 0.17914389E+00 0.12438587E+04</pdfrwt>
<pdfrwt beam="2">  1       -2 0.44064013E-01 0.12438587E+04</pdfrwt>
<totfact> 0.95690479E+01</totfact>
</mgrwt>
</event>
<event>
 4    1  0.2892809E-005  0.6971068E+03  0.7818608E-02  0.9722193E-01
         -2   -1    0    0    0  501 -0.00000000000E+00  0.00000000000E+00  0.10408991792E+03  0.10408991795E+03  0.25500000000E-02 0. -1.
          2   -1    0    0  501    0  0.00000000000E+00 -0.00000000000E+00 -0.11671590023E+04  0.11671590023E+04  0.25500000000E-02 0.  1.
    5000001    1    1    2    0    0 -0.22487610445E+03  0.17581907094E+03 -0.63378470533E+03  0.72113012748E+03  0.19200000000E+03 0.  0.
   -5000001    1    1    2    0    0  0.22487610445E+03 -0.17581907094E+03 -0.42928437906E+03  0.55011879277E+03  0.19200000000E+03 0.  0.
<mgrwt>
<rscale>  0 0.69710683E+03</rscale>
<asrwt>0</asrwt>
<pdfrwt beam="1">  1        2 0.16673699E+00 0.69710683E+03</pdfrwt>
<pdfrwt beam="2">  1       -2 0.14869989E-01 0.69710683E+03</pdfrwt>
<totfact> 0.79848146E+02</totfact>
</mgrwt>
</event>
<event>
 4    1  0.2892809E-005  0.4259456E+03  0.7818608E-02  0.1035148E+00
          2   -1    0    0  501    0  0.00000000000E+00  0.00000000000E+00  0.13284840070E+03  0.13284840072E+03  0.25500000000E-02 0.  1.
         -2   -1    0    0    0  501 -0.00000000000E+00 -0.00000000000E+00 -0.34142235089E+03  0.34142235090E+03  0.25500000000E-02 0. -1.
    5000001    1    1    2    0    0  0.84357270372E+02 -0.28115396866E+02 -0.13125897013E+03  0.24899707196E+03  0.19200000000E+03 0.  0.
   -5000001    1    1    2    0    0 -0.84357270372E+02  0.28115396866E+02 -0.77314980062E+02  0.22527367966E+03  0.19200000000E+03 0.  0.
<mgrwt>
<rscale>  0 0.42594560E+03</rscale>
<asrwt>0</asrwt>
<pdfrwt beam="1">  1        2 0.18978343E-01 0.42594560E+03</pdfrwt>
<pdfrwt beam="2">  1       -2 0.48774621E-01 0.42594560E+03</pdfrwt>
<totfact> 0.12013450E+03</totfact>
</mgrwt>
</event>
<event>
 4    1  0.2892809E-005  0.5874859E+03  0.7818608E-02  0.9931714E-01
         -2   -1    0    0    0  501 -0.00000000000E+00  0.00000000000E+00  0.56620942162E+02  0.56620942220E+02  0.25500000000E-02 0. -1.
          2   -1    0    0  501    0  0.00000000000E+00 -0.00000000000E+00 -0.15239045892E+04  0.15239045892E+04  0.25500000000E-02 0.  1.
    5000001    1    1    2    0    0 -0.18364260758E+03 -0.31246963186E+01 -0.10705935627E+04  0.11030725033E+04  0.19200000000E+03 0.  0.
   -5000001    1    1    2    0    0  0.18364260758E+03  0.31246963186E+01 -0.39669008432E+03  0.47745302811E+03  0.19200000000E+03 0.  0.
<mgrwt>
<rscale>  0 0.58748588E+03</rscale>
<asrwt>0</asrwt>
<pdfrwt beam="1">  1        2 0.21770063E+00 0.58748588E+03</pdfrwt>
<pdfrwt beam="2">  1       -2 0.80887069E-02 0.58748588E+03</pdfrwt>
<totfact> 0.13931845E+03</totfact>
</mgrwt>
</event>
<event>
 4    1  0.2892809E-005  0.4567580E+03  0.7818608E-02  0.1025726E+00
         -2   -1    0    0    0  501 -0.00000000000E+00  0.00000000000E+00  0.14258867488E+02  0.14258867717E+02  0.25500000000E-02 0. -1.
          2   -1    0    0  501    0  0.00000000000E+00 -0.00000000000E+00 -0.36578618437E+04  0.36578618437E+04  0.25500000000E-02 0.  1.
    5000001    1    1    2    0    0 -0.10038019019E+03 -0.24496596107E+02 -0.12755448793E+04  0.12940459825E+04  0.19200000000E+03 0.  0.
   -5000001    1    1    2    0    0  0.10038019019E+03  0.24496596107E+02 -0.23680580970E+04  0.23780747290E+04  0.19200000000E+03 0.  0.
<mgrwt>
<rscale>  0 0.45675800E+03</rscale>
<asrwt>0</asrwt>
<pdfrwt beam="1">  1        2 0.52255109E+00 0.45675800E+03</pdfrwt>
<pdfrwt beam="2">  1       -2 0.20369834E-02 0.45675800E+03</pdfrwt>
<totfact> 0.86430235E+02</totfact>
</mgrwt>
</event>
<event>
 4    1  0.2892809E-005  0.5243392E+03  0.7818608E-02  0.1007614E+00
         -2   -1    0    0    0  501 -0.00000000000E+00  0.00000000000E+00  0.10144253281E+04  0.10144253281E+04  0.25500000000E-02 0.  1.
          2   -1    0    0  501    0  0.00000000000E+00 -0.00000000000E+00 -0.67755510175E+02  0.67755510223E+02  0.25500000000E-02 0. -1.
    5000001    1    1    2    0    0  0.15494273048E+03 -0.22952729797E+02  0.65009428632E+03  0.69571593243E+03  0.19200000000E+03 0.  0.
   -5000001    1    1    2    0    0 -0.15494273048E+03  0.22952729797E+02  0.29657553158E+03  0.38646490586E+03  0.19200000000E+03 0.  0.
<mgrwt>
<rscale>  0 0.52433922E+03</rscale>
<asrwt>0</asrwt>
<pdfrwt beam="1">  1        2 0.96793590E-02 0.52433922E+03</pdfrwt>
<pdfrwt beam="2">  1       -2 0.14491790E+00 0.52433922E+03</pdfrwt>
<totfact> 0.23106949E+02</totfact>
</mgrwt>
</event>
<event>
 4    1  0.2892809E-005  0.4473184E+03  0.7818608E-02  0.1028525E+00
          2   -1    0    0  501    0  0.00000000000E+00  0.00000000000E+00  0.32682957624E+02  0.32682957724E+02  0.25500000000E-02 0.  1.
         -2   -1    0    0    0  501 -0.00000000000E+00 -0.00000000000E+00 -0.15305664973E+04  0.15305664973E+04  0.25500000000E-02 0. -1.
    5000001    1    1    2    0    0  0.63116025560E+02  0.76166147759E+02 -0.95195196915E+03  0.97614623204E+03  0.19200000000E+03 0.  0.
   -5000001    1    1    2    0    0 -0.63116025560E+02 -0.76166147759E+02 -0.54593157049E+03  0.58710322295E+03  0.19200000000E+03 0.  0.
<mgrwt>
<rscale>  0 0.44731841E+03</rscale>
<asrwt>0</asrwt>
<pdfrwt beam="1">  1        2 0.46689949E-02 0.44731841E+03</pdfrwt>
<pdfrwt beam="2">  1       -2 0.21865231E+00 0.44731841E+03</pdfrwt>
<totfact> 0.18927536E+02</totfact>
</mgrwt>
</event>
<event>
 4    1  0.2892809E-005  0.4643960E+03  0.7818608E-02  0.1023514E+00
          2   -1    0    0  501    0  0.00000000000E+00  0.00000000000E+00  0.24028102502E+04  0.24028102502E+04  0.25500000000E-02 0.  1.
         -2   -1    0    0    0  501 -0.00000000000E+00 -0.00000000000E+00 -0.22438688261E+02  0.22438688406E+02  0.25500000000E-02 0. -1.
    5000001    1    1    2    0    0  0.23736588089E+02 -0.80023596158E+02  0.66574127884E+03  0.69788441156E+03  0.19200000000E+03 0.  0.
   -5000001    1    1    2    0    0 -0.23736588089E+02  0.80023596158E+02  0.17146302831E+04  0.17273645271E+04  0.19200000000E+03 0.  0.
<mgrwt>
<rscale>  0 0.46439600E+03</rscale>
<asrwt>0</asrwt>
<pdfrwt beam="1">  1        2 0.34325853E+00 0.46439600E+03</pdfrwt>
<pdfrwt beam="2">  1       -2 0.32055277E-02 0.46439600E+03</pdfrwt>
<totfact> 0.21219186E+03</totfact>
</mgrwt>
</event>
<event>
 4    1  0.2892809E-005  0.5333107E+03  0.7818608E-02  0.1005432E+00
         -2   -1    0    0    0  501 -0.00000000000E+00  0.00000000000E+00  0.49146418462E+02  0.49146418528E+02  0.25500000000E-02 0. -1.
          2   -1    0    0  501    0  0.00000000000E+00 -0.00000000000E+00 -0.14468008207E+04  0.14468008207E+04  0.25500000000E-02 0.  1.
    5000001    1    1    2    0    0  0.77669621652E+02  0.16786016930E+03 -0.68309105083E+03  0.73327143016E+03  0.19200000000E+03 0.  0.
   -5000001    1    1    2    0    0 -0.77669621652E+02 -0.16786016930E+03 -0.71456335137E+03  0.76267580903E+03  0.19200000000E+03 0.  0.
<mgrwt>
<rscale>  0 0.53331071E+03</rscale>
<asrwt>0</asrwt>
<pdfrwt beam="1">  1        2 0.20668581E+00 0.53331071E+03</pdfrwt>
<pdfrwt beam="2">  1       -2 0.70209178E-02 0.53331071E+03</pdfrwt>
<totfact> 0.19159215E+03</totfact>
</mgrwt>
</event>
<event>
 4    1  0.2892809E-005  0.1273490E+04  0.7818608E-02  0.9050856E-01
          2   -1    0    0  501    0  0.00000000000E+00  0.00000000000E+00  0.13432155309E+03  0.13432155312E+03  0.25500000000E-02 0.  1.
         -2   -1    0    0    0  501 -0.00000000000E+00 -0.00000000000E+00 -0.30184586622E+04  0.30184586622E+04  0.25500000000E-02 0. -1.
    5000001    1    1    2    0    0 -0.45363544122E+03 -0.38273135510E+03 -0.17582578792E+04  0.18656374711E+04  0.19200000000E+03 0.  0.
   -5000001    1    1    2    0    0  0.45363544122E+03  0.38273135510E+03 -0.11258792299E+04  0.12871427442E+04  0.19200000000E+03 0.  0.
<mgrwt>
<rscale>  0 0.12734898E+04</rscale>
<asrwt>0</asrwt>
<pdfrwt beam="1">  1        2 0.19188795E-01 0.12734898E+04</pdfrwt>
<pdfrwt beam="2">  1       -2 0.43120834E+00 0.12734898E+04</pdfrwt>
<totfact> 0.13820449E+00</totfact>
</mgrwt>
</event>
<event>
 4    1  0.2892809E-005  0.1066244E+04  0.7818608E-02  0.9238732E-01
         -2   -1    0    0    0  501 -0.00000000000E+00  0.00000000000E+00  0.24374986913E+03  0.24374986915E+03  0.25500000000E-02 0. -1.
          2   -1    0    0  501    0  0.00000000000E+00 -0.00000000000E+00 -0.11660268667E+04  0.11660268667E+04  0.25500000000E-02 0.  1.
    5000001    1    1    2    0    0 -0.44636606537E+03  0.21934316437E+03 -0.45994991488E+03  0.70411079545E+03  0.19200000000E+03 0.  0.
   -5000001    1    1    2    0    0  0.44636606537E+03 -0.21934316437E+03 -0.46232708271E+03  0.70566594043E+03  0.19200000000E+03 0.  0.
<mgrwt>
<rscale>  0 0.10662437E+04</rscale>
<asrwt>0</asrwt>
<pdfrwt beam="1">  1        2 0.16657526E+00 0.10662437E+04</pdfrwt>
<pdfrwt beam="2">  1       -2 0.34821410E-01 0.10662437E+04</pdfrwt>
<totfact> 0.17170157E+02</totfact>
</mgrwt>
</event>
<event>
 4    1  0.2892809E-005  0.5071019E+03  0.7818608E-02  0.1011942E+00
          2   -1    0    0  501    0  0.00000000000E+00  0.00000000000E+00  0.15643892904E+04  0.15643892904E+04  0.25500000000E-02 0.  1.
         -2   -1    0    0    0  501 -0.00000000000E+00 -0.00000000000E+00 -0.41094680324E+02  0.41094680403E+02  0.25500000000E-02 0. -1.
    5000001    1    1    2    0    0  0.28450191866E+02 -0.14240053069E+03  0.10136726149E+04  0.10418653919E+04  0.19200000000E+03 0.  0.
   -5000001    1    1    2    0    0 -0.28450191866E+02  0.14240053069E+03  0.50962199509E+03  0.56361857886E+03  0.19200000000E+03 0.  0.
<mgrwt>
<rscale>  0 0.50710187E+03</rscale>
<asrwt>0</asrwt>
<pdfrwt beam="1">  1        2 0.22348418E+00 0.50710187E+03</pdfrwt>
<pdfrwt beam="2">  1       -2 0.58706687E-02 0.50710187E+03</pdfrwt>
<totfact> 0.22054455E+03</totfact>
</mgrwt>
</event>
<event>
 4    1  0.2892809E-005  0.7812983E+03  0.7818608E-02  0.9587489E-01
         -2   -1    0    0    0  501 -0.00000000000E+00  0.00000000000E+00  0.46474787330E+02  0.46474787400E+02  0.25500000000E-02 0. -1.
          2   -1    0    0  501    0  0.00000000000E+00 -0.00000000000E+00 -0.32836458435E+04  0.32836458435E+04  0.25500000000E-02 0.  1.
    5000001    1    1    2    0    0  0.85797500183E+02 -0.32915241509E+03 -0.16456163069E+04  0.16913366173E+04  0.19200000000E+03 0.  0.
   -5000001    1    1    2    0    0 -0.85797500183E+02  0.32915241509E+03 -0.15915547492E+04  0.16387840136E+04  0.19200000000E+03 0.  0.
<mgrwt>
<rscale>  0 0.78129826E+03</rscale>
<asrwt>0</asrwt>
<pdfrwt beam="1">  1        2 0.46909211E+00 0.78129826E+03</pdfrwt>
<pdfrwt beam="2">  1       -2 0.66392574E-02 0.78129826E+03</pdfrwt>
<totfact> 0.22615520E+02</totfact>
</mgrwt>
</event>
<event>
 4    1  0.2892809E-005  0.9814195E+03  0.7818608E-02  0.9329162E-01
         -2   -1    0    0    0  501 -0.00000000000E+00  0.00000000000E+00  0.37671123900E+03  0.37671123901E+03  0.25500000000E-02 0. -1.
          2   -1    0    0  501    0  0.00000000000E+00 -0.00000000000E+00 -0.63920599524E+03  0.63920599524E+03  0.25500000000E-02 0.  1.
    5000001    1    1    2    0    0  0.44468509767E+03 -0.62296155233E+00 -0.21266880473E+03  0.52899645053E+03  0.19200000000E+03 0.  0.
   -5000001    1    1    2    0    0 -0.44468509767E+03  0.62296155233E+00 -0.49825951510E+02  0.48692078372E+03  0.19200000000E+03 0.  0.
<mgrwt>
<rscale>  0 0.98141955E+03</rscale>
<asrwt>0</asrwt>
<pdfrwt beam="1">  1        2 0.91315142E-01 0.98141955E+03</pdfrwt>
<pdfrwt beam="2">  1       -2 0.53815892E-01 0.98141955E+03</pdfrwt>
<totfact> 0.16351034E+02</totfact>
</mgrwt>
</event>
<event>
 4    1  0.2892809E-005  0.6474560E+03  0.7818608E-02  0.9811564E-01
          2   -1    0    0  501    0  0.00000000000E+00  0.00000000000E+00  0.30519351202E+03  0.30519351203E+03  0.25500000000E-02 0.  1.
         -2   -1    0    0    0  501 -0.00000000000E+00 -0.00000000000E+00 -0.34338813824E+03  0.34338813825E+03  0.25500000000E-02 0. -1.
    5000001    1    1    2    0    0 -0.34657857669E+02 -0.20571135034E+03 -0.17562999016E+03  0.33350895071E+03  0.19200000000E+03 0.  0.
   -5000001    1    1    2    0    0  0.34657857669E+02  0.20571135034E+03  0.13743536394E+03  0.31507269958E+03  0.19200000000E+03 0.  0.
<mgrwt>
<rscale>  0 0.64745604E+03</rscale>
<asrwt>0</asrwt>
<pdfrwt beam="1">  1        2 0.43599073E-01 0.64745604E+03</pdfrwt>
<pdfrwt beam="2">  1       -2 0.49055448E-01 0.64745604E+03</pdfrwt>
<totfact> 0.46401491E+02</totfact>
</mgrwt>
</event>
<event>
 4    1  0.2892809E-005  0.4393980E+03  0.7818608E-02  0.1030932E+00
          2   -1    0    0  501    0  0.00000000000E+00  0.00000000000E+00  0.16193139495E+04  0.16193139495E+04  0.25500000000E-02 0.  1.
         -2   -1    0    0    0  501 -0.00000000000E+00 -0.00000000000E+00 -0.29807470526E+02  0.29807470635E+02  0.25500000000E-02 0. -1.
    5000001    1    1    2    0    0 -0.78923226992E+02 -0.45731542557E+02  0.10031589927E+04  0.10254326962E+04  0.19200000000E+03 0.  0.
   -5000001    1    1    2    0    0  0.78923226992E+02  0.45731542557E+02  0.58634748630E+03  0.62368872399E+03  0.19200000000E+03 0.  0.
<mgrwt>
<rscale>  0 0.43939801E+03</rscale>
<asrwt>0</asrwt>
<pdfrwt beam="1">  1        2 0.23133045E+00 0.43939801E+03</pdfrwt>
<pdfrwt beam="2">  1       -2 0.42582121E-02 0.43939801E+03</pdfrwt>
<totfact> 0.33976309E+03</totfact>
</mgrwt>
</event>
<event>
 4    1  0.2892809E-005  0.6170241E+03  0.7818608E-02  0.9870703E-01
          2   -1    0    0  501    0  0.00000000000E+00  0.00000000000E+00  0.28376935448E+04  0.28376935449E+04  0.25500000000E-02 0.  1.
         -2   -1    0    0    0  501 -0.00000000000E+00 -0.00000000000E+00 -0.33541212267E+02  0.33541212364E+02  0.25500000000E-02 0. -1.
    5000001    1    1    2    0    0 -0.98727582620E+02  0.18992817251E+03  0.88190145977E+03  0.92759583387E+03  0.19200000000E+03 0.  0.
   -5000001    1    1    2    0    0  0.98727582620E+02 -0.18992817251E+03  0.19222508728E+04  0.19436389233E+04  0.19200000000E+03 0.  0.
<mgrwt>
<rscale>  0 0.61702409E+03</rscale>
<asrwt>0</asrwt>
<pdfrwt beam="1">  1        2 0.40538486E+00 0.61702409E+03</pdfrwt>
<pdfrwt beam="2">  1       -2 0.47916010E-02 0.61702409E+03</pdfrwt>
<totfact> 0.67507086E+02</totfact>
</mgrwt>
</event>
<event>
 4    1  0.2892809E-005  0.6709563E+03  0.7818608E-02  0.9768232E-01
          2   -1    0    0  501    0  0.00000000000E+00  0.00000000000E+00  0.55887241239E+03  0.55887241239E+03  0.25500000000E-02 0.  1.
         -2   -1    0    0    0  501 -0.00000000000E+00 -0.00000000000E+00 -0.20137974929E+03  0.20137974931E+03  0.25500000000E-02 0. -1.
    5000001    1    1    2    0    0  0.48188853902E+02  0.21213037176E+03 -0.12070865600E+02  0.29039828867E+03  0.19200000000E+03 0.  0.
   -5000001    1    1    2    0    0 -0.48188853902E+02 -0.21213037176E+03  0.36956352870E+03  0.46985387304E+03  0.19200000000E+03 0.  0.
<mgrwt>
<rscale>  0 0.67095629E+03</rscale>
<asrwt>0</asrwt>
<pdfrwt beam="1">  1        2 0.79838916E-01 0.67095629E+03</pdfrwt>
<pdfrwt beam="2">  1       -2 0.28768536E-01 0.67095629E+03</pdfrwt>
<totfact> 0.65665040E+02</totfact>
</mgrwt>
</event>
<event>
 4    1  0.2892809E-005  0.6736326E+03  0.7818608E-02  0.9763418E-01
          2   -1    0    0  501    0  0.00000000000E+00  0.00000000000E+00  0.29061496270E+04  0.29061496270E+04  0.25500000000E-02 0.  1.
         -2   -1    0    0    0  501 -0.00000000000E+00 -0.00000000000E+00 -0.39036266443E+02  0.39036266527E+02  0.25500000000E-02 0. -1.
    5000001    1    1    2    0    0 -0.53830208060E+02  0.13787289048E+03  0.24558662468E+04  0.24678025949E+04  0.19200000000E+03 0.  0.
   -5000001    1    1    2    0    0  0.53830208060E+02 -0.13787289048E+03  0.41124711371E+03  0.47738329858E+03  0.19200000000E+03 0.  0.
<mgrwt>
<rscale>  0 0.67363263E+03</rscale>
<asrwt>0</asrwt>
<pdfrwt beam="1">  1        2 0.41516427E+00 0.67363263E+03</pdfrwt>
<pdfrwt beam="2">  1       -2 0.55766090E-02 0.67363263E+03</pdfrwt>
<totfact> 0.48743823E+02</totfact>
</mgrwt>
</event>
<event>
 4    1  0.2892809E-005  0.4460282E+03  0.7818608E-02  0.1028913E+00
         -2   -1    0    0    0  501 -0.00000000000E+00  0.00000000000E+00  0.79787400570E+02  0.79787400611E+02  0.25500000000E-02 0.  1.
          2   -1    0    0  501    0  0.00000000000E+00 -0.00000000000E+00 -0.62334765477E+03  0.62334765477E+03  0.25500000000E-02 0. -1.
    5000001    1    1    2    0    0  0.73189697703E+01 -0.10664767901E+03 -0.21187566553E+03  0.30525823888E+03  0.19200000000E+03 0.  0.
   -5000001    1    1    2    0    0 -0.73189697703E+01  0.10664767901E+03 -0.33168458866E+03  0.39787681650E+03  0.19200000000E+03 0.  0.
<mgrwt>
<rscale>  0 0.44602820E+03</rscale>
<asrwt>0</asrwt>
<pdfrwt beam="1">  1        2 0.89049662E-01 0.44602820E+03</pdfrwt>
<pdfrwt beam="2">  1       -2 0.11398201E-01 0.44602820E+03</pdfrwt>
<totfact> 0.28486865E+03</totfact>
</mgrwt>
</event>
<event>
 4    1  0.2892809E-005  0.5779718E+03  0.7818608E-02  0.9952192E-01
         -2   -1    0    0    0  501 -0.00000000000E+00  0.00000000000E+00  0.40283751046E+02  0.40283751127E+02  0.25500000000E-02 0. -1.
          2   -1    0    0  501    0  0.00000000000E+00 -0.00000000000E+00 -0.20731150162E+04  0.20731150162E+04  0.25500000000E-02 0.  1.
    5000001    1    1    2    0    0  0.23683234067E+02  0.14486894481E+03 -0.43709390337E+03  0.49946269842E+03  0.19200000000E+03 0.  0.
   -5000001    1    1    2    0    0 -0.23683234067E+02 -0.14486894481E+03 -0.15957373618E+04  0.16139360690E+04  0.19200000000E+03 0.  0.
<mgrwt>
<rscale>  0 0.57797180E+03</rscale>
<asrwt>0</asrwt>
<pdfrwt beam="1">  1        2 0.29615922E+00 0.57797180E+03</pdfrwt>
<pdfrwt beam="2">  1       -2 0.57548229E-02 0.57797180E+03</pdfrwt>
<totfact> 0.12566565E+03</totfact>
</mgrwt>
</event>
<event>
 4    1  0.2892809E-005  0.6818994E+03  0.7818608E-02  0.9748697E-01
          2   -1    0    0  501    0  0.00000000000E+00  0.00000000000E+00  0.85324225720E+03  0.85324225720E+03  0.25500000000E-02 0.  1.
         -2   -1    0    0    0  501 -0.00000000000E+00 -0.00000000000E+00 -0.13624113119E+03  0.13624113121E+03  0.25500000000E-02 0. -1.
    5000001    1    1    2    0    0 -0.21510638974E+03 -0.18191299569E+03  0.35207748595E+03  0.49008739325E+03  0.19200000000E+03 0.  0.
   -5000001    1    1    2    0    0  0.21510638974E+03  0.18191299569E+03  0.36492364006E+03  0.49939599516E+03  0.19200000000E+03 0.  0.
<mgrwt>
<rscale>  0 0.68189938E+03</rscale>
<asrwt>0</asrwt>
<pdfrwt beam="1">  1        2 0.12189175E+00 0.68189938E+03</pdfrwt>
<pdfrwt beam="2">  1       -2 0.19463020E-01 0.68189938E+03</pdfrwt>
<totfact> 0.78456338E+02</totfact>
</mgrwt>
</event>
<event>
 4    1  0.2892809E-005  0.6480631E+03  0.7818608E-02  0.9810420E-01
          2   -1    0    0  501    0  0.00000000000E+00  0.00000000000E+00  0.90279874879E+03  0.90279874879E+03  0.25500000000E-02 0.  1.
         -2   -1    0    0    0  501 -0.00000000000E+00 -0.00000000000E+00 -0.11630105392E+03  0.11630105394E+03  0.25500000000E-02 0. -1.
    5000001    1    1    2    0    0  0.15323036580E+03 -0.20156176897E+03  0.29347354494E+03  0.43254758500E+03  0.19200000000E+03 0.  0.
   -5000001    1    1    2    0    0 -0.15323036580E+03  0.20156176897E+03  0.49302414993E+03  0.58655221773E+03  0.19200000000E+03 0.  0.
<mgrwt>
<rscale>  0 0.64806310E+03</rscale>
<asrwt>0</asrwt>
<pdfrwt beam="1">  1        2 0.12897125E+00 0.64806310E+03</pdfrwt>
<pdfrwt beam="2">  1       -2 0.16614437E-01 0.64806310E+03</pdfrwt>
<totfact> 0.95667984E+02</totfact>
</mgrwt>
</event>
<event>
 4    1  0.2892809E-005  0.7238224E+03  0.7818608E-02  0.9677338E-01
         -2   -1    0    0    0  501 -0.00000000000E+00  0.00000000000E+00  0.59304703509E+02  0.59304703564E+02  0.25500000000E-02 0. -1.
          2   -1    0    0  501    0  0.00000000000E+00 -0.00000000000E+00 -0.22085888166E+04  0.22085888166E+04  0.25500000000E-02 0.  1.
    5000001    1    1    2    0    0  0.27701947569E+03 -0.44674974931E+02 -0.14632124432E+04  0.15021951595E+04  0.19200000000E+03 0.  0.
   -5000001    1    1    2    0    0 -0.27701947569E+03  0.44674974931E+02 -0.68607166988E+03  0.76569836065E+03  0.19200000000E+03 0.  0.
<mgrwt>
<rscale>  0 0.72382237E+03</rscale>
<asrwt>0</asrwt>
<pdfrwt beam="1">  1        2 0.31551264E+00 0.72382237E+03</pdfrwt>
<pdfrwt beam="2">  1       -2 0.84721019E-02 0.72382237E+03</pdfrwt>
<totfact> 0.57684628E+02</totfact>
</mgrwt>
</event>
<event>
 4    1  0.2892809E-005  0.4240506E+03  0.7818608E-02  0.1035756E+00
         -2   -1    0    0    0  501 -0.00000000000E+00  0.00000000000E+00  0.22525600006E+02  0.22525600150E+02  0.25500000000E-02 0. -1.
          2   -1    0    0  501    0  0.00000000000E+00 -0.00000000000E+00 -0.19957173442E+04  0.19957173442E+04  0.25500000000E-02 0.  1.
    5000001    1    1    2    0    0  0.29612664717E+02  0.70308982615E+02 -0.75981134416E+03  0.78739922635E+03  0.19200000000E+03 0.  0.
   -5000001    1    1    2    0    0 -0.29612664717E+02 -0.70308982615E+02 -0.12133804000E+04  0.12308437180E+04  0.19200000000E+03 0.  0.
<mgrwt>
<rscale>  0 0.42405061E+03</rscale>
<asrwt>0</asrwt>
<pdfrwt beam="1">  1        2 0.28510236E+00 0.42405061E+03</pdfrwt>
<pdfrwt beam="2">  1       -2 0.32179441E-02 0.42405061E+03</pdfrwt>
<totfact> 0.33734805E+03</totfact>
</mgrwt>
</event>
<event>
 4    1  0.2892809E-005  0.6110890E+03  0.7818608E-02  0.9882663E-01
          2   -1    0    0  501    0  0.00000000000E+00  0.00000000000E+00  0.79599163178E+03  0.79599163178E+03  0.25500000000E-02 0. -1.
         -2   -1    0    0    0  501 -0.00000000000E+00 -0.00000000000E+00 -0.11728443236E+03  0.11728443239E+03  0.25500000000E-02 0.  1.
    5000001    1    1    2    0    0 -0.23205975309E+03  0.21203920283E+02  0.40932603351E+03  0.50863851304E+03  0.19200000000E+03 0.  0.
   -5000001    1    1    2    0    0  0.23205975309E+03 -0.21203920283E+02  0.26938116591E+03  0.40463755113E+03  0.19200000000E+03 0.  0.
<mgrwt>
<rscale>  0 0.61108895E+03</rscale>
<asrwt>0</asrwt>
<pdfrwt beam="1">  1        2 0.11371309E+00 0.61108895E+03</pdfrwt>
<pdfrwt beam="2">  1       -2 0.16754919E-01 0.61108895E+03</pdfrwt>
<totfact> 0.11128292E+03</totfact>
</mgrwt>
</event>
<event>
 4    1  0.2892809E-005  0.4621159E+03  0.7818608E-02  0.1024169E+00
         -2   -1    0    0    0  501 -0.00000000000E+00  0.00000000000E+00  0.31287868568E+03  0.31287868569E+03  0.25500000000E-02 0. -1.
          2   -1    0    0  501    0  0.00000000000E+00 -0.00000000000E+00 -0.17063410941E+03  0.17063410943E+03  0.25500000000E-02 0.  1.
    5000001    1    1    2    0    0 -0.11695013136E+03 -0.52366533720E+02  0.81802198485E+02  0.24489831922E+03  0.19200000000E+03 0.  0.
   -5000001    1    1    2    0    0  0.11695013136E+03  0.52366533720E+02  0.60442377780E+02  0.23861447590E+03  0.19200000000E+03 0.  0.
<mgrwt>
<rscale>  0 0.46211590E+03</rscale>
<asrwt>0</asrwt>
<pdfrwt beam="1">  1        2 0.24376301E-01 0.46211590E+03</pdfrwt>
<pdfrwt beam="2">  1       -2 0.44696955E-01 0.46211590E+03</pdfrwt>
<totfact> 0.10714151E+03</totfact>
</mgrwt>
</event>
<event>
 4    1  0.2892809E-005  0.6800094E+03  0.7818608E-02  0.9752043E-01
          2   -1    0    0  501    0  0.00000000000E+00  0.00000000000E+00  0.12339185348E+04  0.12339185348E+04  0.25500000000E-02 0.  1.
         -2   -1    0    0    0  501 -0.00000000000E+00 -0.00000000000E+00 -0.93687861410E+02  0.93687861445E+02  0.25500000000E-02 0. -1.
    5000001    1    1    2    0    0  0.25522464259E+03  0.68521243161E+02  0.75434391554E+03  0.82203012223E+03  0.19200000000E+03 0.  0.
   -5000001    1    1    2    0    0 -0.25522464259E+03 -0.68521243161E+02  0.38588675782E+03  0.50557627398E+03  0.19200000000E+03 0.  0.
<mgrwt>
<rscale>  0 0.68000938E+03</rscale>
<asrwt>0</asrwt>
<pdfrwt beam="1">  1        2 0.17627407E+00 0.68000938E+03</pdfrwt>
<pdfrwt beam="2">  1       -2 0.13383980E-01 0.68000938E+03</pdfrwt>
<totfact> 0.87425035E+02</totfact>
</mgrwt>
</event>
<event>
 4    1  0.2892809E-005  0.6386952E+03  0.7818608E-02  0.9828226E-01
         -2   -1    0    0    0  501 -0.00000000000E+00  0.00000000000E+00  0.66884045781E+02  0.66884045830E+02  0.25500000000E-02 0. -1.
          2   -1    0    0  501    0  0.00000000000E+00 -0.00000000000E+00 -0.15247715695E+04  0.15247715695E+04  0.25500000000E-02 0.  1.
    5000001    1    1    2    0    0  0.24641537246E+03 -0.43878344377E+02 -0.85287237812E+03  0.90934104617E+03  0.19200000000E+03 0.  0.
   -5000001    1    1    2    0    0 -0.24641537246E+03  0.43878344377E+02 -0.60501514562E+03  0.68231456918E+03  0.19200000000E+03 0.  0.
<mgrwt>
<rscale>  0 0.63869521E+03</rscale>
<asrwt>0</asrwt>
<pdfrwt beam="1">  1        2 0.21782449E+00 0.63869521E+03</pdfrwt>
<pdfrwt beam="2">  1       -2 0.95548646E-02 0.63869521E+03</pdfrwt>
<totfact> 0.10630500E+03</totfact>
</mgrwt>
</event>
<event>
 4    1  0.2892809E-005  0.5606391E+03  0.7818608E-02  0.9990610E-01
         -2   -1    0    0    0  501 -0.00000000000E+00  0.00000000000E+00  0.33000269832E+03  0.33000269833E+03  0.25500000000E-02 0. -1.
          2   -1    0    0  501    0  0.00000000000E+00 -0.00000000000E+00 -0.23811638374E+03  0.23811638375E+03  0.25500000000E-02 0.  1.
    5000001    1    1    2    0    0  0.16332359497E+03  0.11570845180E+03  0.87130321709E+02  0.29072106125E+03  0.19200000000E+03 0.  0.
   -5000001    1    1    2    0    0 -0.16332359497E+03 -0.11570845180E+03  0.47559928681E+01  0.27739802083E+03  0.19200000000E+03 0.  0.
<mgrwt>
<rscale>  0 0.56063910E+03</rscale>
<asrwt>0</asrwt>
<pdfrwt beam="1">  1        2 0.34016626E-01 0.56063910E+03</pdfrwt>
<pdfrwt beam="2">  1       -2 0.47143242E-01 0.56063910E+03</pdfrwt>
<totfact> 0.66266761E+02</totfact>
</mgrwt>
</event>
<event>
 4    1  0.2892809E-005  0.5776392E+03  0.7818608E-02  0.9952915E-01
          2   -1    0    0  501    0  0.00000000000E+00  0.00000000000E+00  0.12477058419E+04  0.12477058419E+04  0.25500000000E-02 0.  1.
         -2   -1    0    0    0  501 -0.00000000000E+00 -0.00000000000E+00 -0.66856112286E+02  0.66856112335E+02  0.25500000000E-02 0. -1.
    5000001    1    1    2    0    0  0.21068383943E+03  0.24373834456E+01  0.69617109351E+03  0.75227110304E+03  0.19200000000E+03 0.  0.
   -5000001    1    1    2    0    0 -0.21068383943E+03 -0.24373834456E+01  0.48467863607E+03  0.56229085116E+03  0.19200000000E+03 0.  0.
<mgrwt>
<rscale>  0 0.57763920E+03</rscale>
<asrwt>0</asrwt>
<pdfrwt beam="1">  1        2 0.17824369E+00 0.57763920E+03</pdfrwt>
<pdfrwt beam="2">  1       -2 0.95508734E-02 0.57763920E+03</pdfrwt>
<totfact> 0.14984540E+03</totfact>
</mgrwt>
</event>
<event>
 4    1  0.2892809E-005  0.4548542E+03  0.7818608E-02  0.1026284E+00
          2   -1    0    0  501    0  0.00000000000E+00  0.00000000000E+00  0.17374116024E+03  0.17374116026E+03  0.25500000000E-02 0.  1.
         -2   -1    0    0    0  501 -0.00000000000E+00 -0.00000000000E+00 -0.29770192690E+03  0.29770192691E+03  0.25500000000E-02 0. -1.
    5000001    1    1    2    0    0  0.71261966342E+02  0.77934743870E+02  0.11251687026E+01  0.21912863381E+03  0.19200000000E+03 0.  0.
   -5000001    1    1    2    0    0 -0.71261966342E+02 -0.77934743870E+02 -0.12508593537E+03  0.25231445336E+03  0.19200000000E+03 0.  0.
<mgrwt>
<rscale>  0 0.45485417E+03</rscale>
<asrwt>0</asrwt>
<pdfrwt beam="1">  1        2 0.24820166E-01 0.45485417E+03</pdfrwt>
<pdfrwt beam="2">  1       -2 0.42528846E-01 0.45485417E+03</pdfrwt>
<totfact> 0.11571595E+03</totfact>
</mgrwt>
</event>
<event>
 4    1  0.2892809E-005  0.7410081E+03  0.7818608E-02  0.9649564E-01
         -2   -1    0    0    0  501 -0.00000000000E+00  0.00000000000E+00  0.21473195873E+03  0.21473195874E+03  0.25500000000E-02 0. -1.
          2   -1    0    0  501    0  0.00000000000E+00 -0.00000000000E+00 -0.63927719830E+03  0.63927719830E+03  0.25500000000E-02 0.  1.
    5000001    1    1    2    0    0  0.20712713478E+03 -0.30972247047E+02 -0.48633499399E+03  0.56324653255E+03  0.19200000000E+03 0.  0.
   -5000001    1    1    2    0    0 -0.20712713478E+03  0.30972247047E+02  0.61789754425E+02  0.29076262449E+03  0.19200000000E+03 0.  0.
<mgrwt>
<rscale>  0 0.74100808E+03</rscale>
<asrwt>0</asrwt>
<pdfrwt beam="1">  1        2 0.91325313E-01 0.74100808E+03</pdfrwt>
<pdfrwt beam="2">  1       -2 0.30675994E-01 0.74100808E+03</pdfrwt>
<totfact> 0.49655372E+02</totfact>
</mgrwt>
</event>
<event>
 4    1  0.2892809E-005  0.5074188E+03  0.7818608E-02  0.1011860E+00
         -2   -1    0    0    0  501 -0.00000000000E+00  0.00000000000E+00  0.39004601753E+02  0.39004601837E+02  0.25500000000E-02 0.  1.
          2   -1    0    0  501    0  0.00000000000E+00 -0.00000000000E+00 -0.16502786542E+04  0.16502786542E+04  0.25500000000E-02 0. -1.
    5000001    1    1    2    0    0  0.65638293527E+01  0.16269684467E+03 -0.91044585360E+03  0.94461050145E+03  0.19200000000E+03 0.  0.
   -5000001    1    1    2    0    0 -0.65638293527E+01 -0.16269684467E+03 -0.70082819886E+03  0.74467275460E+03  0.19200000000E+03 0.  0.
<mgrwt>
<rscale>  0 0.50741881E+03</rscale>
<asrwt>0</asrwt>
<pdfrwt beam="1">  1        2 0.23575405E+00 0.50741881E+03</pdfrwt>
<pdfrwt beam="2">  1       -2 0.55720870E-02 0.50741881E+03</pdfrwt>
<totfact> 0.21623574E+03</totfact>
</mgrwt>
</event>
<event>
 4    1  0.2892809E-005  0.1813092E+04  0.7818608E-02  0.8699368E-01
          2   -1    0    0  501    0  0.00000000000E+00  0.00000000000E+00  0.20831907248E+04  0.20831907248E+04  0.25500000000E-02 0.  1.
         -2   -1    0    0    0  501 -0.00000000000E+00 -0.00000000000E+00 -0.39450345967E+03  0.39450345967E+03  0.25500000000E-02 0. -1.
    5000001    1    1    2    0    0  0.64076642579E+03 -0.59161043140E+03  0.63097932625E+03  0.10934273753E+04  0.19200000000E+03 0.  0.
   -5000001    1    1    2    0    0 -0.64076642579E+03  0.59161043140E+03  0.10577079389E+04  0.13842668092E+04  0.19200000000E+03 0.  0.
<mgrwt>
<rscale>  0 0.18130923E+04</rscale>
<asrwt>0</asrwt>
<pdfrwt beam="1">  1        2 0.29759867E+00 0.18130923E+04</pdfrwt>
<pdfrwt beam="2">  1       -2 0.56357637E-01 0.18130923E+04</pdfrwt>
<totfact> 0.20310091E+01</totfact>
</mgrwt>
</event>
<event>
 4    1  0.2892809E-005  0.4556329E+03  0.7818608E-02  0.1026055E+00
         -2   -1    0    0    0  501 -0.00000000000E+00  0.00000000000E+00  0.22791680143E+02  0.22791680285E+02  0.25500000000E-02 0. -1.
          2   -1    0    0  501    0  0.00000000000E+00 -0.00000000000E+00 -0.22771612110E+04  0.22771612110E+04  0.25500000000E-02 0.  1.
    5000001    1    1    2    0    0 -0.12010691416E+03 -0.64008871351E+01 -0.12476668288E+04  0.12680706439E+04  0.19200000000E+03 0.  0.
   -5000001    1    1    2    0    0  0.12010691416E+03  0.64008871351E+01 -0.10067027021E+04  0.10318822474E+04  0.19200000000E+03 0.  0.
<mgrwt>
<rscale>  0 0.45563288E+03</rscale>
<asrwt>0</asrwt>
<pdfrwt beam="1">  1        2 0.32530860E+00 0.45563288E+03</pdfrwt>
<pdfrwt beam="2">  1       -2 0.32559558E-02 0.45563288E+03</pdfrwt>
<totfact> 0.23978326E+03</totfact>
</mgrwt>
</event>
<event>
 4    1  0.2892809E-005  0.7872594E+03  0.7818608E-02  0.9578644E-01
         -2   -1    0    0    0  501 -0.00000000000E+00  0.00000000000E+00  0.51089628652E+03  0.51089628652E+03  0.25500000000E-02 0. -1.
          2   -1    0    0  501    0  0.00000000000E+00 -0.00000000000E+00 -0.30327944952E+03  0.30327944953E+03  0.25500000000E-02 0.  1.
    5000001    1    1    2    0    0 -0.20438129101E+03  0.27622401859E+03  0.10071897912E+03  0.40630005330E+03  0.19200000000E+03 0.  0.
   -5000001    1    1    2    0    0  0.20438129101E+03 -0.27622401859E+03  0.10689785788E+03  0.40787568275E+03  0.19200000000E+03 0.  0.
<mgrwt>
<rscale>  0 0.78725941E+03</rscale>
<asrwt>0</asrwt>
<pdfrwt beam="1">  1        2 0.43325636E-01 0.78725941E+03</pdfrwt>
<pdfrwt beam="2">  1       -2 0.72985183E-01 0.78725941E+03</pdfrwt>
<totfact> 0.20135741E+02</totfact>
</mgrwt>
</event>
<event>
 4    1  0.2892809E-005  0.5031510E+03  0.7818608E-02  0.1012960E+00
          2   -1    0    0  501    0  0.00000000000E+00  0.00000000000E+00  0.96091984739E+03  0.96091984740E+03  0.25500000000E-02 0.  1.
         -2   -1    0    0    0  501 -0.00000000000E+00 -0.00000000000E+00 -0.65864227301E+02  0.65864227350E+02  0.25500000000E-02 0. -1.
    5000001    1    1    2    0    0  0.12699350255E+03 -0.96644278919E+02  0.38433909335E+03  0.45830994426E+03  0.19200000000E+03 0.  0.
   -5000001    1    1    2    0    0 -0.12699350255E+03  0.96644278919E+02  0.51071652674E+03  0.56847413048E+03  0.19200000000E+03 0.  0.
<mgrwt>
<rscale>  0 0.50315104E+03</rscale>
<asrwt>0</asrwt>
<pdfrwt beam="1">  1        2 0.13727427E+00 0.50315104E+03</pdfrwt>
<pdfrwt beam="2">  1       -2 0.94091752E-02 0.50315104E+03</pdfrwt>
<totfact> 0.22544679E+03</totfact>
</mgrwt>
</event>
<event>
 4    1  0.2892809E-005  0.4480600E+03  0.7818608E-02  0.1028302E+00
         -2   -1    0    0    0  501 -0.00000000000E+00  0.00000000000E+00  0.15683393451E+03  0.15683393453E+03  0.25500000000E-02 0. -1.
          2   -1    0    0  501    0  0.00000000000E+00 -0.00000000000E+00 -0.32001645924E+03  0.32001645925E+03  0.25500000000E-02 0.  1.
    5000001    1    1    2    0    0  0.40285801277E+02  0.10817303160E+03 -0.80480214747E+02  0.23804498633E+03  0.19200000000E+03 0.  0.
   -5000001    1    1    2    0    0 -0.40285801277E+02 -0.10817303160E+03 -0.82702309988E+02  0.23880540745E+03  0.19200000000E+03 0.  0.
<mgrwt>
<rscale>  0 0.44806000E+03</rscale>
<asrwt>0</asrwt>
<pdfrwt beam="1">  1        2 0.45716637E-01 0.44806000E+03</pdfrwt>
<pdfrwt beam="2">  1       -2 0.22404848E-01 0.44806000E+03</pdfrwt>
<totfact> 0.19214767E+03</totfact>
</mgrwt>
</event>
<event>
 4    1  0.2892809E-005  0.5514113E+03  0.7818608E-02  0.1001168E+00
         -2   -1    0    0    0  501 -0.00000000000E+00  0.00000000000E+00  0.43701670462E+02  0.43701670537E+02  0.25500000000E-02 0. -1.
          2   -1    0    0  501    0  0.00000000000E+00 -0.00000000000E+00 -0.17393752380E+04  0.17393752380E+04  0.25500000000E-02 0.  1.
    5000001    1    1    2    0    0 -0.25777635582E+02  0.15723678099E+03 -0.12271785376E+04  0.12522855325E+04  0.19200000000E+03 0.  0.
   -5000001    1    1    2    0    0  0.25777635582E+02 -0.15723678099E+03 -0.46849502998E+03  0.53079137607E+03  0.19200000000E+03 0.  0.
<mgrwt>
<rscale>  0 0.55141129E+03</rscale>
<asrwt>0</asrwt>
<pdfrwt beam="1">  1        2 0.24848213E+00 0.55141129E+03</pdfrwt>
<pdfrwt beam="2">  1       -2 0.62430969E-02 0.55141129E+03</pdfrwt>
<totfact> 0.16297400E+03</totfact>
</mgrwt>
</event>
<event>
 4    1  0.2892809E-005  0.6370557E+03  0.7818608E-02  0.9831376E-01
         -2   -1    0    0    0  501 -0.00000000000E+00  0.00000000000E+00  0.37441009052E+03  0.37441009053E+03  0.25500000000E-02 0. -1.
          2   -1    0    0  501    0  0.00000000000E+00 -0.00000000000E+00 -0.27098628090E+03  0.27098628091E+03  0.25500000000E-02 0.  1.
    5000001    1    1    2    0    0 -0.53509794795E+02 -0.10323003128E+03  0.28067139300E+03  0.35938860353E+03  0.19200000000E+03 0.  0.
   -5000001    1    1    2    0    0  0.53509794795E+02  0.10323003128E+03 -0.17724758338E+03  0.28600776792E+03  0.19200000000E+03 0.  0.
<mgrwt>
<rscale>  0 0.63705572E+03</rscale>
<asrwt>0</asrwt>
<pdfrwt beam="1">  1        2 0.38712326E-01 0.63705572E+03</pdfrwt>
<pdfrwt beam="2">  1       -2 0.53487156E-01 0.63705572E+03</pdfrwt>
<totfact> 0.44381643E+02</totfact>
</mgrwt>
</event>
<event>
 4    1  0.2892809E-005  0.6481130E+03  0.7818608E-02  0.9810327E-01
         -2   -1    0    0    0  501 -0.00000000000E+00  0.00000000000E+00  0.51692035182E+03  0.51692035183E+03  0.25500000000E-02 0. -1.
          2   -1    0    0  501    0  0.00000000000E+00 -0.00000000000E+00 -0.20315045901E+03  0.20315045902E+03  0.25500000000E-02 0.  1.
    5000001    1    1    2    0    0  0.93209062783E+02  0.24223132812E+03  0.12576308702E+03  0.34647409682E+03  0.19200000000E+03 0.  0.
   -5000001    1    1    2    0    0 -0.93209062783E+02 -0.24223132812E+03  0.18800680580E+03  0.37359671403E+03  0.19200000000E+03 0.  0.
<mgrwt>
<rscale>  0 0.64811297E+03</rscale>
<asrwt>0</asrwt>
<pdfrwt beam="1">  1        2 0.29021495E-01 0.64811297E+03</pdfrwt>
<pdfrwt beam="2">  1       -2 0.73845763E-01 0.64811297E+03</pdfrwt>
<totfact> 0.30838522E+02</totfact>
</mgrwt>
</event>
<event>
 4    1  0.2892809E-005  0.4702046E+03  0.7818608E-02  0.1021862E+00
         -2   -1    0    0    0  501 -0.00000000000E+00  0.00000000000E+00  0.63718772167E+02  0.63718772218E+02  0.25500000000E-02 0. -1.
          2   -1    0    0  501    0  0.00000000000E+00 -0.00000000000E+00 -0.86745396618E+03  0.86745396618E+03  0.25500000000E-02 0.  1.
    5000001    1    1    2    0    0  0.52851409223E+01 -0.12261301302E+03 -0.51644140234E+03  0.56447994271E+03  0.19200000000E+03 0.  0.
   -5000001    1    1    2    0    0 -0.52851409223E+01  0.12261301302E+03 -0.28729379168E+03  0.36669279569E+03  0.19200000000E+03 0.  0.
<mgrwt>
<rscale>  0 0.47020464E+03</rscale>
<asrwt>0</asrwt>
<pdfrwt beam="1">  1        2 0.12392199E+00 0.47020464E+03</pdfrwt>
<pdfrwt beam="2">  1       -2 0.91026822E-02 0.47020464E+03</pdfrwt>
<totfact> 0.27252647E+03</totfact>
</mgrwt>
</event>
<event>
 4    1  0.2892809E-005  0.7955122E+03  0.7818608E-02  0.9566536E-01
          2   -1    0    0  501    0  0.00000000000E+00  0.00000000000E+00  0.48073134006E+03  0.48073134007E+03  0.25500000000E-02 0.  1.
         -2   -1    0    0    0  501 -0.00000000000E+00 -0.00000000000E+00 -0.32910253323E+03  0.32910253324E+03  0.25500000000E-02 0. -1.
    5000001    1    1    2    0    0 -0.27045177465E+03 -0.19484996986E+03 -0.27176267387E+02  0.38563353417E+03  0.19200000000E+03 0.  0.
   -5000001    1    1    2    0    0  0.27045177465E+03  0.19484996986E+03  0.17880507422E+03  0.42420033914E+03  0.19200000000E+03 0.  0.
<mgrwt>
<rscale>  0 0.79551217E+03</rscale>
<asrwt>0</asrwt>
<pdfrwt beam="1">  1        2 0.68675905E-01 0.79551217E+03</pdfrwt>
<pdfrwt beam="2">  1       -2 0.47014648E-01 0.79551217E+03</pdfrwt>
<totfact> 0.30301679E+02</totfact>
</mgrwt>
</event>
<event>
 4    1  0.2892809E-005  0.7799561E+03  0.7818608E-02  0.9589492E-01
         -2   -1    0    0    0  501 -0.00000000000E+00  0.00000000000E+00  0.13469518033E+03  0.13469518036E+03  0.25500000000E-02 0. -1.
          2   -1    0    0  501    0  0.00000000000E+00 -0.00000000000E+00 -0.11290892619E+04  0.11290892619E+04  0.25500000000E-02 0.  1.
    5000001    1    1    2    0    0  0.10078208298E+03 -0.31868979203E+03 -0.59303870156E+03  0.70730411659E+03  0.19200000000E+03 0.  0.
   -5000001    1    1    2    0    0 -0.10078208298E+03  0.31868979203E+03 -0.40135538000E+03  0.55648032566E+03  0.19200000000E+03 0.  0.
<mgrwt>
<rscale>  0 0.77995611E+03</rscale>
<asrwt>0</asrwt>
<pdfrwt beam="1">  1        2 0.16129846E+00 0.77995611E+03</pdfrwt>
<pdfrwt beam="2">  1       -2 0.19242169E-01 0.77995611E+03</pdfrwt>
<totfact> 0.53826664E+02</totfact>
</mgrwt>
</event>
<event>
 4    1  0.2892809E-005  0.8258839E+03  0.7818608E-02  0.9523289E-01
         -2   -1    0    0    0  501 -0.00000000000E+00  0.00000000000E+00  0.12733412634E+03  0.12733412636E+03  0.25500000000E-02 0. -1.
          2   -1    0    0  501    0  0.00000000000E+00 -0.00000000000E+00 -0.13391620953E+04  0.13391620953E+04  0.25500000000E-02 0.  1.
    5000001    1    1    2    0    0 -0.22108762055E+03 -0.27707160673E+03 -0.76482021687E+03  0.86455906412E+03  0.19200000000E+03 0.  0.
   -5000001    1    1    2    0    0  0.22108762055E+03  0.27707160673E+03 -0.44700775212E+03  0.60193715758E+03  0.19200000000E+03 0.  0.
<mgrwt>
<rscale>  0 0.82588385E+03</rscale>
<asrwt>0</asrwt>
<pdfrwt beam="1">  1        2 0.19130886E+00 0.82588385E+03</pdfrwt>
<pdfrwt beam="2">  1       -2 0.18190590E-01 0.82588385E+03</pdfrwt>
<totfact> 0.45154195E+02</totfact>
</mgrwt>
</event>
<event>
 4    1  0.2892809E-005  0.1479867E+04  0.7818608E-02  0.8897953E-01
         -2   -1    0    0    0  501 -0.00000000000E+00  0.00000000000E+00  0.61150622283E+03  0.61150622283E+03  0.25500000000E-02 0. -1.
          2   -1    0    0  501    0  0.00000000000E+00 -0.00000000000E+00 -0.89533224082E+03  0.89533224083E+03  0.25500000000E-02 0.  1.
    5000001    1    1    2    0    0 -0.43586358989E+03 -0.52732632792E+03 -0.35204067796E+03  0.79299859020E+03  0.19200000000E+03 0.  0.
   -5000001    1    1    2    0    0  0.43586358989E+03  0.52732632792E+03  0.68214659963E+02  0.71383987346E+03  0.19200000000E+03 0.  0.
<mgrwt>
<rscale>  0 0.14798665E+04</rscale>
<asrwt>0</asrwt>
<pdfrwt beam="1">  1        2 0.12790461E+00 0.14798665E+04</pdfrwt>
<pdfrwt beam="2">  1       -2 0.87358032E-01 0.14798665E+04</pdfrwt>
<totfact> 0.35941391E+01</totfact>
</mgrwt>
</event>
<event>
 4    1  0.2892809E-005  0.9273949E+03  0.7818608E-02  0.9391970E-01
         -2   -1    0    0    0  501 -0.00000000000E+00  0.00000000000E+00  0.70878198449E+02  0.70878198494E+02  0.25500000000E-02 0.  1.
          2   -1    0    0  501    0  0.00000000000E+00 -0.00000000000E+00 -0.30335887207E+04  0.30335887207E+04  0.25500000000E-02 0. -1.
    5000001    1    1    2    0    0 -0.20243363098E+03 -0.37029626572E+03 -0.15056343286E+04  0.15754038945E+04  0.19200000000E+03 0.  0.
   -5000001    1    1    2    0    0  0.20243363098E+03  0.37029626572E+03 -0.14570761936E+04  0.15290630247E+04  0.19200000000E+03 0.  0.
<mgrwt>
<rscale>  0 0.92739485E+03</rscale>
<asrwt>0</asrwt>
<pdfrwt beam="1">  1        2 0.43336973E+00 0.92739485E+03</pdfrwt>
<pdfrwt beam="2">  1       -2 0.10125459E-01 0.92739485E+03</pdfrwt>
<totfact> 0.15641191E+02</totfact>
</mgrwt>
</event>
<event>
 4    1  0.2892809E-005  0.5230751E+03  0.7818608E-02  0.1007925E+00
          2   -1    0    0  501    0  0.00000000000E+00  0.00000000000E+00  0.33503815137E+03  0.33503815138E+03  0.25500000000E-02 0.  1.
         -2   -1    0    0    0  501 -0.00000000000E+00 -0.00000000000E+00 -0.20416150907E+03  0.20416150908E+03  0.25500000000E-02 0. -1.
    5000001    1    1    2    0    0  0.15359185399E+03 -0.39453888985E+02 -0.16968678174E+02  0.24959768230E+03  0.19200000000E+03 0.  0.
   -5000001    1    1    2    0    0 -0.15359185399E+03  0.39453888985E+02  0.14784532048E+03  0.28960197816E+03  0.19200000000E+03 0.  0.
<mgrwt>
<rscale>  0 0.52307512E+03</rscale>
<asrwt>0</asrwt>
<pdfrwt beam="1">  1        2 0.47862593E-01 0.52307512E+03</pdfrwt>
<pdfrwt beam="2">  1       -2 0.29165930E-01 0.52307512E+03</pdfrwt>
<totfact> 0.11393232E+03</totfact>
</mgrwt>
</event>
<event>
 4    1  0.2892809E-005  0.8712839E+03  0.7818608E-02  0.9462207E-01
         -2   -1    0    0    0  501 -0.00000000000E+00  0.00000000000E+00  0.24197210155E+03  0.24197210156E+03  0.25500000000E-02 0. -1.
          2   -1    0    0  501    0  0.00000000000E+00 -0.00000000000E+00 -0.78432140218E+03  0.78432140218E+03  0.25500000000E-02 0.  1.
    5000001    1    1    2    0    0  0.28714485583E+01 -0.25884574940E+03 -0.61642577673E+03  0.69559622297E+03  0.19200000000E+03 0.  0.
   -5000001    1    1    2    0    0 -0.28714485583E+01  0.25884574940E+03  0.74076476105E+02  0.33069728077E+03  0.19200000000E+03 0.  0.
<mgrwt>
<rscale>  0 0.87128388E+03</rscale>
<asrwt>0</asrwt>
<pdfrwt beam="1">  1        2 0.11204591E+00 0.87128388E+03</pdfrwt>
<pdfrwt beam="2">  1       -2 0.34567444E-01 0.87128388E+03</pdfrwt>
<totfact> 0.30635317E+02</totfact>
</mgrwt>
</event>
<event>
 4    1  0.2892809E-005  0.9689463E+03  0.7818608E-02  0.9343275E-01
          2   -1    0    0  501    0  0.00000000000E+00  0.00000000000E+00  0.59620152109E+03  0.59620152109E+03  0.25500000000E-02 0.  1.
         -2   -1    0    0    0  501 -0.00000000000E+00 -0.00000000000E+00 -0.39368272178E+03  0.39368272179E+03  0.25500000000E-02 0. -1.
    5000001    1    1    2    0    0  0.13655273910E+03  0.22937518960E+03 -0.26222472166E+03  0.42057749917E+03  0.19200000000E+03 0.  0.
   -5000001    1    1    2    0    0 -0.13655273910E+03 -0.22937518960E+03  0.46474352097E+03  0.56930674372E+03  0.19200000000E+03 0.  0.
<mgrwt>
<rscale>  0 0.96894631E+03</rscale>
<asrwt>0</asrwt>
<pdfrwt beam="1">  1        2 0.85171647E-01 0.96894631E+03</pdfrwt>
<pdfrwt beam="2">  1       -2 0.56240388E-01 0.96894631E+03</pdfrwt>
<totfact> 0.16228516E+02</totfact>
</mgrwt>
</event>
<event>
 4    1  0.2892809E-005  0.8672205E+03  0.7818608E-02  0.9467511E-01
          2   -1    0    0  501    0  0.00000000000E+00  0.00000000000E+00  0.28965156751E+04  0.28965156751E+04  0.25500000000E-02 0.  1.
         -2   -1    0    0    0  501 -0.00000000000E+00 -0.00000000000E+00 -0.64911737504E+02  0.64911737554E+02  0.25500000000E-02 0. -1.
    5000001    1    1    2    0    0  0.11580664777E+03 -0.28096892967E+03  0.22438528955E+04  0.22724644190E+04  0.19200000000E+03 0.  0.
   -5000001    1    1    2    0    0 -0.11580664777E+03  0.28096892967E+03  0.58775104211E+03  0.68896299364E+03  0.19200000000E+03 0.  0.
<mgrwt>
<rscale>  0 0.86722054E+03</rscale>
<asrwt>0</asrwt>
<pdfrwt beam="1">  1        2 0.41378794E+00 0.86722054E+03</pdfrwt>
<pdfrwt beam="2">  1       -2 0.92731056E-02 0.86722054E+03</pdfrwt>
<totfact> 0.21574035E+02</totfact>
</mgrwt>
</event>
<event>
 4    1  0.2892809E-005  0.7742336E+03  0.7818608E-02  0.9598080E-01
         -2   -1    0    0    0  501 -0.00000000000E+00  0.00000000000E+00  0.23375088427E+03  0.23375088429E+03  0.25500000000E-02 0. -1.
          2   -1    0    0  501    0  0.00000000000E+00 -0.00000000000E+00 -0.64110736256E+03  0.64110736257E+03  0.25500000000E-02 0.  1.
    5000001    1    1    2    0    0  0.18544740500E+03 -0.27940721400E+03 -0.22984573458E+03  0.44961338165E+03  0.19200000000E+03 0.  0.
   -5000001    1    1    2    0    0 -0.18544740500E+03  0.27940721400E+03 -0.17751074372E+03  0.42524486521E+03  0.19200000000E+03 0.  0.
<mgrwt>
<rscale>  0 0.77423359E+03</rscale>
<asrwt>0</asrwt>
<pdfrwt beam="1">  1        2 0.91586765E-01 0.77423359E+03</pdfrwt>
<pdfrwt beam="2">  1       -2 0.33392984E-01 0.77423359E+03</pdfrwt>
<totfact> 0.42162963E+02</totfact>
</mgrwt>
</event>
<event>
 4    1  0.2892809E-005  0.6150520E+03  0.7818608E-02  0.9874661E-01
          2   -1    0    0  501    0  0.00000000000E+00  0.00000000000E+00  0.62433326409E+03  0.62433326410E+03  0.25500000000E-02 0.  1.
         -2   -1    0    0    0  501 -0.00000000000E+00 -0.00000000000E+00 -0.15147718862E+03  0.15147718864E+03  0.25500000000E-02 0. -1.
    5000001    1    1    2    0    0  0.19077646336E+03  0.13990017877E+03  0.18380397660E+03  0.35583088793E+03  0.19200000000E+03 0.  0.
   -5000001    1    1    2    0    0 -0.19077646336E+03 -0.13990017877E+03  0.28905209887E+03  0.41997956481E+03  0.19200000000E+03 0.  0.
<mgrwt>
<rscale>  0 0.61505202E+03</rscale>
<asrwt>0</asrwt>
<pdfrwt beam="1">  1        2 0.89190465E-01 0.61505202E+03</pdfrwt>
<pdfrwt beam="2">  1       -2 0.21639599E-01 0.61505202E+03</pdfrwt>
<totfact> 0.96300141E+02</totfact>
</mgrwt>
</event>
<event>
 4    1  0.2892809E-005  0.7028383E+03  0.7818608E-02  0.9712391E-01
          2   -1    0    0  501    0  0.00000000000E+00  0.00000000000E+00  0.16522220068E+03  0.16522220070E+03  0.25500000000E-02 0.  1.
         -2   -1    0    0    0  501 -0.00000000000E+00 -0.00000000000E+00 -0.74745051037E+03  0.74745051038E+03  0.25500000000E-02 0. -1.
    5000001    1    1    2    0    0 -0.59036031845E+02  0.28666150242E+03 -0.25064285817E+03  0.43051819053E+03  0.19200000000E+03 0.  0.
   -5000001    1    1    2    0    0  0.59036031845E+02 -0.28666150242E+03 -0.33158545153E+03  0.48215452055E+03  0.19200000000E+03 0.  0.
<mgrwt>
<rscale>  0 0.70283830E+03</rscale>
<asrwt>0</asrwt>
<pdfrwt beam="1">  1        2 0.23603172E-01 0.70283830E+03</pdfrwt>
<pdfrwt beam="2">  1       -2 0.10677864E+00 0.70283830E+03</pdfrwt>
<totfact> 0.16703015E+02</totfact>
</mgrwt>
</event>
<event>
 4    1  0.2892809E-005  0.5136885E+03  0.7818608E-02  0.1010267E+00
          2   -1    0    0  501    0  0.00000000000E+00  0.00000000000E+00  0.13574125700E+04  0.13574125700E+04  0.25500000000E-02 0.  1.
         -2   -1    0    0    0  501 -0.00000000000E+00 -0.00000000000E+00 -0.48599046952E+02  0.48599047019E+02  0.25500000000E-02 0. -1.
    5000001    1    1    2    0    0 -0.15579245305E+03  0.39570851711E+02  0.81087202531E+03  0.84865457176E+03  0.19200000000E+03 0.  0.
   -5000001    1    1    2    0    0  0.15579245305E+03 -0.39570851711E+02  0.49794149771E+03  0.55735704523E+03  0.19200000000E+03 0.  0.
<mgrwt>
<rscale>  0 0.51368846E+03</rscale>
<asrwt>0</asrwt>
<pdfrwt beam="1">  1        2 0.19391605E+00 0.51368846E+03</pdfrwt>
<pdfrwt beam="2">  1       -2 0.69427221E-02 0.51368846E+03</pdfrwt>
<totfact> 0.21748855E+03</totfact>
</mgrwt>
</event>
<event>
 4    1  0.2892809E-005  0.2117154E+04  0.7818608E-02  0.8553724E-01
          2   -1    0    0  501    0  0.00000000000E+00  0.00000000000E+00  0.88201882939E+03  0.88201882940E+03  0.25500000000E-02 0.  1.
         -2   -1    0    0    0  501 -0.00000000000E+00 -0.00000000000E+00 -0.12704772640E+04  0.12704772640E+04  0.25500000000E-02 0. -1.
    5000001    1    1    2    0    0 -0.93686095636E+03  0.13841275095E+03 -0.63371171091E+03  0.11555609347E+04  0.19200000000E+03 0.  0.
   -5000001    1    1    2    0    0  0.93686095636E+03 -0.13841275095E+03  0.24525327631E+03  0.99693515873E+03  0.19200000000E+03 0.  0.
<mgrwt>
<rscale>  0 0.21171536E+04</rscale>
<asrwt>0</asrwt>
<pdfrwt beam="1">  1        2 0.12600269E+00 0.21171536E+04</pdfrwt>
<pdfrwt beam="2">  1       -2 0.18149675E+00 0.21171536E+04</pdfrwt>
<totfact> 0.54658760E+00</totfact>
</mgrwt>
</event>
<event>
 4    1  0.2892809E-005  0.5751682E+03  0.7818608E-02  0.9958307E-01
          2   -1    0    0  501    0  0.00000000000E+00  0.00000000000E+00  0.32800716992E+04  0.32800716992E+04  0.25500000000E-02 0.  1.
         -2   -1    0    0    0  501 -0.00000000000E+00 -0.00000000000E+00 -0.25214271011E+02  0.25214271140E+02  0.25500000000E-02 0. -1.
    5000001    1    1    2    0    0 -0.14070859608E+03  0.16053740232E+03  0.15330978957E+04  0.15597513662E+04  0.19200000000E+03 0.  0.
   -5000001    1    1    2    0    0  0.14070859608E+03 -0.16053740232E+03  0.17217595325E+04  0.17455346041E+04  0.19200000000E+03 0.  0.
<mgrwt>
<rscale>  0 0.57516821E+03</rscale>
<asrwt>0</asrwt>
<pdfrwt beam="1">  1        2 0.46858129E+00 0.57516821E+03</pdfrwt>
<pdfrwt beam="2">  1       -2 0.36020416E-02 0.57516821E+03</pdfrwt>
<totfact> 0.60087171E+02</totfact>
</mgrwt>
</event>
<event>
 4    1  0.2892809E-005  0.7245308E+03  0.7818608E-02  0.9676177E-01
         -2   -1    0    0    0  501 -0.00000000000E+00  0.00000000000E+00  0.18629463451E+03  0.18629463453E+03  0.25500000000E-02 0. -1.
          2   -1    0    0  501    0  0.00000000000E+00 -0.00000000000E+00 -0.70445522596E+03  0.70445522597E+03  0.25500000000E-02 0.  1.
    5000001    1    1    2    0    0 -0.30028918502E+03  0.50956768468E+02 -0.20987228132E+03  0.41674999863E+03  0.19200000000E+03 0.  0.
   -5000001    1    1    2    0    0  0.30028918502E+03 -0.50956768468E+02 -0.30828831012E+03  0.47399986187E+03  0.19200000000E+03 0.  0.
<mgrwt>
<rscale>  0 0.72453082E+03</rscale>
<asrwt>0</asrwt>
<pdfrwt beam="1">  1        2 0.10063646E+00 0.72453082E+03</pdfrwt>
<pdfrwt beam="2">  1       -2 0.26613520E-01 0.72453082E+03</pdfrwt>
<totfact> 0.57325640E+02</totfact>
</mgrwt>
</event>
<event>
 4    1  0.2892809E-005  0.7835685E+03  0.7818608E-02  0.9584110E-01
         -2   -1    0    0    0  501 -0.00000000000E+00  0.00000000000E+00  0.14034051437E+03  0.14034051439E+03  0.25500000000E-02 0. -1.
          2   -1    0    0  501    0  0.00000000000E+00 -0.00000000000E+00 -0.10937318279E+04  0.10937318279E+04  0.25500000000E-02 0.  1.
    5000001    1    1    2    0    0  0.82914143620E+02  0.27340878425E+03 -0.77135557883E+03  0.84467777733E+03  0.19200000000E+03 0.  0.
   -5000001    1    1    2    0    0 -0.82914143620E+02 -0.27340878425E+03 -0.18203573470E+03  0.38939456497E+03  0.19200000000E+03 0.  0.
<mgrwt>
<rscale>  0 0.78356847E+03</rscale>
<asrwt>0</asrwt>
<pdfrwt beam="1">  1        2 0.15624740E+00 0.78356847E+03</pdfrwt>
<pdfrwt beam="2">  1       -2 0.20048646E-01 0.78356847E+03</pdfrwt>
<totfact> 0.52536025E+02</totfact>
</mgrwt>
</event>
<event>
 4    1  0.2892809E-005  0.1031085E+04  0.7818608E-02  0.9275094E-01
          2   -1    0    0  501    0  0.00000000000E+00  0.00000000000E+00  0.13874712692E+04  0.13874712692E+04  0.25500000000E-02 0.  1.
         -2   -1    0    0    0  501 -0.00000000000E+00 -0.00000000000E+00 -0.19155987045E+03  0.19155987046E+03  0.25500000000E-02 0. -1.
    5000001    1    1    2    0    0  0.38470985516E+03  0.77038658247E+02  0.17860402066E+03  0.47191103369E+03  0.19200000000E+03 0.  0.
   -5000001    1    1    2    0    0 -0.38470985516E+03 -0.77038658247E+02  0.10173073781E+04  0.11071201060E+04  0.19200000000E+03 0.  0.
<mgrwt>
<rscale>  0 0.10310845E+04</rscale>
<asrwt>0</asrwt>
<pdfrwt beam="1">  1        2 0.19821019E+00 0.10310845E+04</pdfrwt>
<pdfrwt beam="2">  1       -2 0.27365695E-01 0.10310845E+04</pdfrwt>
<totfact> 0.20320193E+02</totfact>
</mgrwt>
</event>
<event>
 4    1  0.2892809E-005  0.5774964E+03  0.7818608E-02  0.9953226E-01
         -2   -1    0    0    0  501 -0.00000000000E+00  0.00000000000E+00  0.84622871935E+02  0.84622871973E+02  0.25500000000E-02 0.  1.
          2   -1    0    0  501    0  0.00000000000E+00 -0.00000000000E+00 -0.98525975543E+03  0.98525975543E+03  0.25500000000E-02 0. -1.
    5000001    1    1    2    0    0  0.17782043659E+03  0.10454365550E+03 -0.33370581481E+03  0.43677574843E+03  0.19200000000E+03 0.  0.
   -5000001    1    1    2    0    0 -0.17782043659E+03 -0.10454365550E+03 -0.56693106868E+03  0.63310687898E+03  0.19200000000E+03 0.  0.
<mgrwt>
<rscale>  0 0.57749636E+03</rscale>
<asrwt>0</asrwt>
<pdfrwt beam="1">  1        2 0.14075139E+00 0.57749636E+03</pdfrwt>
<pdfrwt beam="2">  1       -2 0.12088982E-01 0.57749636E+03</pdfrwt>
<totfact> 0.14480725E+03</totfact>
</mgrwt>
</event>
<event>
 4    1  0.2892809E-005  0.1034894E+04  0.7818608E-02  0.9271081E-01
         -2   -1    0    0    0  501 -0.00000000000E+00  0.00000000000E+00  0.22391428397E+03  0.22391428398E+03  0.25500000000E-02 0.  1.
          2   -1    0    0  501    0  0.00000000000E+00 -0.00000000000E+00 -0.11957754984E+04  0.11957754984E+04  0.25500000000E-02 0. -1.
    5000001    1    1    2    0    0 -0.95596673577E+02 -0.35559140516E+03 -0.62432400083E+02  0.41993544266E+03  0.19200000000E+03 0.  0.
   -5000001    1    1    2    0    0  0.95596673577E+02  0.35559140516E+03 -0.90942881438E+03  0.99975433975E+03  0.19200000000E+03 0.  0.
<mgrwt>
<rscale>  0 0.10348936E+04</rscale>
<asrwt>0</asrwt>
<pdfrwt beam="1">  1        2 0.17082507E+00 0.10348936E+04</pdfrwt>
<pdfrwt beam="2">  1       -2 0.31987756E-01 0.10348936E+04</pdfrwt>
<totfact> 0.19421911E+02</totfact>
</mgrwt>
</event>
<event>
 4    1  0.2892809E-005  0.6012150E+03  0.7818608E-02  0.9902889E-01
          2   -1    0    0  501    0  0.00000000000E+00  0.00000000000E+00  0.75214580221E+03  0.75214580222E+03  0.25500000000E-02 0.  1.
         -2   -1    0    0    0  501 -0.00000000000E+00 -0.00000000000E+00 -0.12014275611E+03  0.12014275614E+03  0.25500000000E-02 0. -1.
    5000001    1    1    2    0    0  0.15960386412E+03 -0.38049429590E+01  0.73167146459E+02  0.26020242573E+03  0.19200000000E+03 0.  0.
   -5000001    1    1    2    0    0 -0.15960386412E+03  0.38049429590E+01  0.55883589964E+03  0.61208613263E+03  0.19200000000E+03 0.  0.
<mgrwt>
<rscale>  0 0.60121500E+03</rscale>
<asrwt>0</asrwt>
<pdfrwt beam="1">  1        2 0.10744940E+00 0.60121500E+03</pdfrwt>
<pdfrwt beam="2">  1       -2 0.17163251E-01 0.60121500E+03</pdfrwt>
<totfact> 0.11474780E+03</totfact>
</mgrwt>
</event>
<event>
 4    1  0.2892809E-005  0.5733414E+03  0.7818608E-02  0.9962312E-01
         -2   -1    0    0    0  501 -0.00000000000E+00  0.00000000000E+00  0.57417383415E+02  0.57417383472E+02  0.25500000000E-02 0. -1.
          2   -1    0    0  501    0  0.00000000000E+00 -0.00000000000E+00 -0.14312753791E+04  0.14312753791E+04  0.25500000000E-02 0.  1.
    5000001    1    1    2    0    0  0.15261530013E+03  0.97495687382E+02 -0.39640573703E+03  0.47623350075E+03  0.19200000000E+03 0.  0.
   -5000001    1    1    2    0    0 -0.15261530013E+03 -0.97495687382E+02 -0.97745225863E+03  0.10124592618E+04  0.19200000000E+03 0.  0.
<mgrwt>
<rscale>  0 0.57334139E+03</rscale>
<asrwt>0</asrwt>
<pdfrwt beam="1">  1        2 0.20446789E+00 0.57334139E+03</pdfrwt>
<pdfrwt beam="2">  1       -2 0.82024843E-02 0.57334139E+03</pdfrwt>
<totfact> 0.15238843E+03</totfact>
</mgrwt>
</event>
<event>
 4    1  0.2892809E-005  0.5054491E+03  0.7818608E-02  0.1012366E+00
         -2   -1    0    0    0  501 -0.00000000000E+00  0.00000000000E+00  0.12353137407E+03  0.12353137410E+03  0.25500000000E-02 0. -1.
          2   -1    0    0  501    0  0.00000000000E+00 -0.00000000000E+00 -0.51703221294E+03  0.51703221295E+03  0.25500000000E-02 0.  1.
    5000001    1    1    2    0    0  0.10294991895E+03  0.12616500551E+03 -0.16871421984E+03  0.30305904112E+03  0.19200000000E+03 0.  0.
   -5000001    1    1    2    0    0 -0.10294991895E+03 -0.12616500551E+03 -0.22478661903E+03  0.33750454593E+03  0.19200000000E+03 0.  0.
<mgrwt>
<rscale>  0 0.50544911E+03</rscale>
<asrwt>0</asrwt>
<pdfrwt beam="1">  1        2 0.73861743E-01 0.50544911E+03</pdfrwt>
<pdfrwt beam="2">  1       -2 0.17647339E-01 0.50544911E+03</pdfrwt>
<totfact> 0.17083587E+03</totfact>
</mgrwt>
</event>
<event>
 4    1  0.2892809E-005  0.7072541E+03  0.7818608E-02  0.9704906E-01
         -2   -1    0    0    0  501 -0.00000000000E+00  0.00000000000E+00  0.29812140761E+03  0.29812140762E+03  0.25500000000E-02 0. -1.
          2   -1    0    0  501    0  0.00000000000E+00 -0.00000000000E+00 -0.41946702217E+03  0.41946702218E+03  0.25500000000E-02 0.  1.
    5000001    1    1    2    0    0 -0.10710799479E+03  0.24554510760E+03  0.69354272877E+02  0.33680637996E+03  0.19200000000E+03 0.  0.
   -5000001    1    1    2    0    0  0.10710799479E+03 -0.24554510760E+03 -0.19069988744E+03  0.38078204984E+03  0.19200000000E+03 0.  0.
<mgrwt>
<rscale>  0 0.70725412E+03</rscale>
<asrwt>0</asrwt>
<pdfrwt beam="1">  1        2 0.59923860E-01 0.70725412E+03</pdfrwt>
<pdfrwt beam="2">  1       -2 0.42588773E-01 0.70725412E+03</pdfrwt>
<totfact> 0.43147106E+02</totfact>
</mgrwt>
</event>
<event>
 4    1  0.2892809E-005  0.1496479E+04  0.7818608E-02  0.8886797E-01
         -2   -1    0    0    0  501 -0.00000000000E+00  0.00000000000E+00  0.31424520278E+03  0.31424520279E+03  0.25500000000E-02 0. -1.
          2   -1    0    0  501    0  0.00000000000E+00 -0.00000000000E+00 -0.17816106746E+04  0.17816106746E+04  0.25500000000E-02 0.  1.
    5000001    1    1    2    0    0  0.66106141436E+03  0.29074925529E+03 -0.78722023840E+03  0.10854109944E+04  0.19200000000E+03 0.  0.
   -5000001    1    1    2    0    0 -0.66106141436E+03 -0.29074925529E+03 -0.68014523338E+03  0.10104448830E+04  0.19200000000E+03 0.  0.
<mgrwt>
<rscale>  0 0.14964793E+04</rscale>
<asrwt>0</asrwt>
<pdfrwt beam="1">  1        2 0.25451581E+00 0.14964793E+04</pdfrwt>
<pdfrwt beam="2">  1       -2 0.44892173E-01 0.14964793E+04</pdfrwt>
<totfact> 0.47368317E+01</totfact>
</mgrwt>
</event>
<event>
 4    1  0.2892809E-005  0.6765155E+03  0.7818608E-02  0.9758259E-01
         -2   -1    0    0    0  501 -0.00000000000E+00  0.00000000000E+00  0.56219681587E+03  0.56219681588E+03  0.25500000000E-02 0. -1.
          2   -1    0    0  501    0  0.00000000000E+00 -0.00000000000E+00 -0.20352001329E+03  0.20352001331E+03  0.25500000000E-02 0.  1.
    5000001    1    1    2    0    0  0.25771844380E+03  0.10247272747E+03  0.15082000607E+03  0.36949983813E+03  0.19200000000E+03 0.  0.
   -5000001    1    1    2    0    0 -0.25771844380E+03 -0.10247272747E+03  0.20785679651E+03  0.39621699106E+03  0.19200000000E+03 0.  0.
<mgrwt>
<rscale>  0 0.67651549E+03</rscale>
<asrwt>0</asrwt>
<pdfrwt beam="1">  1        2 0.29074287E-01 0.67651549E+03</pdfrwt>
<pdfrwt beam="2">  1       -2 0.80313832E-01 0.67651549E+03</pdfrwt>
<totfact> 0.25515416E+02</totfact>
</mgrwt>
</event>
<event>
 4    1  0.2892809E-005  0.4784357E+03  0.7818608E-02  0.1019566E+00
          2   -1    0    0  501    0  0.00000000000E+00  0.00000000000E+00  0.24385497059E+03  0.24385497060E+03  0.25500000000E-02 0.  1.
         -2   -1    0    0    0  501 -0.00000000000E+00 -0.00000000000E+00 -0.23466892673E+03  0.23466892674E+03  0.25500000000E-02 0. -1.
    5000001    1    1    2    0    0 -0.12348024235E+03  0.68025463689E+01 -0.66606749646E+02  0.23789515335E+03  0.19200000000E+03 0.  0.
   -5000001    1    1    2    0    0  0.12348024235E+03 -0.68025463689E+01  0.75792793504E+02  0.24062874399E+03  0.19200000000E+03 0.  0.
<mgrwt>
<rscale>  0 0.47843572E+03</rscale>
<asrwt>0</asrwt>
<pdfrwt beam="1">  1        2 0.34836424E-01 0.47843572E+03</pdfrwt>
<pdfrwt beam="2">  1       -2 0.33524132E-01 0.47843572E+03</pdfrwt>
<totfact> 0.12482629E+03</totfact>
</mgrwt>
</event>
<event>
 4    1  0.2892809E-005  0.4740478E+03  0.7818608E-02  0.1020784E+00
          2   -1    0    0  501    0  0.00000000000E+00  0.00000000000E+00  0.11010116633E+04  0.11010116633E+04  0.25500000000E-02 0.  1.
         -2   -1    0    0    0  501 -0.00000000000E+00 -0.00000000000E+00 -0.51026106914E+02  0.51026106978E+02  0.25500000000E-02 0. -1.
    5000001    1    1    2    0    0 -0.61717413617E+02  0.12084068217E+03  0.45189101272E+03  0.50939277281E+03  0.19200000000E+03 0.  0.
   -5000001    1    1    2    0    0  0.61717413617E+02 -0.12084068217E+03  0.59809454365E+03  0.64264499745E+03  0.19200000000E+03 0.  0.
<mgrwt>
<rscale>  0 0.47404784E+03</rscale>
<asrwt>0</asrwt>
<pdfrwt beam="1">  1        2 0.15728735E+00 0.47404784E+03</pdfrwt>
<pdfrwt beam="2">  1       -2 0.72894454E-02 0.47404784E+03</pdfrwt>
<totfact> 0.27915906E+03</totfact>
</mgrwt>
</event>
<event>
 4    1  0.2892809E-005  0.7085379E+03  0.7818608E-02  0.9702742E-01
          2   -1    0    0  501    0  0.00000000000E+00  0.00000000000E+00  0.31035898279E+03  0.31035898280E+03  0.25500000000E-02 0.  1.
         -2   -1    0    0    0  501 -0.00000000000E+00 -0.00000000000E+00 -0.40439131135E+03  0.40439131136E+03  0.25500000000E-02 0. -1.
    5000001    1    1    2    0    0 -0.64464831573E+02 -0.29031968540E+03 -0.61326518338E+02  0.35925781285E+03  0.19200000000E+03 0.  0.
   -5000001    1    1    2    0    0  0.64464831573E+02  0.29031968540E+03 -0.32705810222E+02  0.35549248131E+03  0.19200000000E+03 0.  0.
<mgrwt>
<rscale>  0 0.70853786E+03</rscale>
<asrwt>0</asrwt>
<pdfrwt beam="1">  1        2 0.44336998E-01 0.70853786E+03</pdfrwt>
<pdfrwt beam="2">  1       -2 0.57770187E-01 0.70853786E+03</pdfrwt>
<totfact> 0.32493007E+02</totfact>
</mgrwt>
</event>
<event>
 4    1  0.2892809E-005  0.4510404E+03  0.7818608E-02  0.1027412E+00
          2   -1    0    0  501    0  0.00000000000E+00  0.00000000000E+00  0.11923135317E+03  0.11923135320E+03  0.25500000000E-02 0.  1.
         -2   -1    0    0    0  501 -0.00000000000E+00 -0.00000000000E+00 -0.42656029750E+03  0.42656029751E+03  0.25500000000E-02 0. -1.
    5000001    1    1    2    0    0  0.44222445659E+02  0.10773437807E+03 -0.17884563220E+03  0.28707504433E+03  0.19200000000E+03 0.  0.
   -5000001    1    1    2    0    0 -0.44222445659E+02 -0.10773437807E+03 -0.12848331213E+03  0.25871660637E+03  0.19200000000E+03 0.  0.
<mgrwt>
<rscale>  0 0.45104040E+03</rscale>
<asrwt>0</asrwt>
<pdfrwt beam="1">  1        2 0.17033051E-01 0.45104040E+03</pdfrwt>
<pdfrwt beam="2">  1       -2 0.60937185E-01 0.45104040E+03</pdfrwt>
<totfact> 0.86461599E+02</totfact>
</mgrwt>
</event>
<event>
 4    1  0.2892809E-005  0.6725127E+03  0.7818608E-02  0.9765429E-01
          2   -1    0    0  501    0  0.00000000000E+00  0.00000000000E+00  0.12539008551E+04  0.12539008551E+04  0.25500000000E-02 0.  1.
         -2   -1    0    0    0  501 -0.00000000000E+00 -0.00000000000E+00 -0.90173256843E+02  0.90173256879E+02  0.25500000000E-02 0. -1.
    5000001    1    1    2    0    0 -0.14225303695E+03  0.13438732729E+03  0.97099022107E+03  0.10089508857E+04  0.19200000000E+03 0.  0.
   -5000001    1    1    2    0    0  0.14225303695E+03 -0.13438732729E+03  0.19273737719E+03  0.33512322633E+03  0.19200000000E+03 0.  0.
<mgrwt>
<rscale>  0 0.67251267E+03</rscale>
<asrwt>0</asrwt>
<pdfrwt beam="1">  1        2 0.17912869E+00 0.67251267E+03</pdfrwt>
<pdfrwt beam="2">  1       -2 0.12881894E-01 0.67251267E+03</pdfrwt>
<totfact> 0.90846628E+02</totfact>
</mgrwt>
</event>
<event>
 4    1  0.2892809E-005  0.1156590E+04  0.7818608E-02  0.9151725E-01
          2   -1    0    0  501    0  0.00000000000E+00  0.00000000000E+00  0.81984848462E+03  0.81984848462E+03  0.25500000000E-02 0.  1.
         -2   -1    0    0    0  501 -0.00000000000E+00 -0.00000000000E+00 -0.40791111646E+03  0.40791111647E+03  0.25500000000E-02 0. -1.
    5000001    1    1    2    0    0  0.11008068458E+03 -0.49573057526E+03 -0.55264164874E+01  0.54291905625E+03  0.19200000000E+03 0.  0.
   -5000001    1    1    2    0    0 -0.11008068458E+03  0.49573057526E+03  0.41746378464E+03  0.68484054484E+03  0.19200000000E+03 0.  0.
<mgrwt>
<rscale>  0 0.11565904E+04</rscale>
<asrwt>0</asrwt>
<pdfrwt beam="1">  1        2 0.11712121E+00 0.11565904E+04</pdfrwt>
<pdfrwt beam="2">  1       -2 0.58273017E-01 0.11565904E+04</pdfrwt>
<totfact> 0.10041068E+02</totfact>
</mgrwt>
</event>
<event>
 4    1  0.2892809E-005  0.4928320E+03  0.7818608E-02  0.1015667E+00
         -2   -1    0    0    0  501 -0.00000000000E+00  0.00000000000E+00  0.11815854843E+03  0.11815854846E+03  0.25500000000E-02 0. -1.
          2   -1    0    0  501    0  0.00000000000E+00 -0.00000000000E+00 -0.51389295380E+03  0.51389295380E+03  0.25500000000E-02 0.  1.
    5000001    1    1    2    0    0  0.10285075154E+03  0.85999628432E+02 -0.29623193597E+03  0.37761299378E+03  0.19200000000E+03 0.  0.
   -5000001    1    1    2    0    0 -0.10285075154E+03 -0.85999628432E+02 -0.99502469403E+02  0.25443850848E+03  0.19200000000E+03 0.  0.
<mgrwt>
<rscale>  0 0.49283200E+03</rscale>
<asrwt>0</asrwt>
<pdfrwt beam="1">  1        2 0.73413278E-01 0.49283200E+03</pdfrwt>
<pdfrwt beam="2">  1       -2 0.16879793E-01 0.49283200E+03</pdfrwt>
<totfact> 0.18553856E+03</totfact>
</mgrwt>
</event>
<event>
 4    1  0.2892809E-005  0.6785045E+03  0.7818608E-02  0.9754715E-01
         -2   -1    0    0    0  501 -0.00000000000E+00  0.00000000000E+00  0.34339503626E+03  0.34339503627E+03  0.25500000000E-02 0. -1.
          2   -1    0    0  501    0  0.00000000000E+00 -0.00000000000E+00 -0.33515943185E+03  0.33515943186E+03  0.25500000000E-02 0.  1.
    5000001    1    1    2    0    0  0.19694217156E+03  0.15533015036E+03  0.12787832479E+03  0.34077931349E+03  0.19200000000E+03 0.  0.
   -5000001    1    1    2    0    0 -0.19694217156E+03 -0.15533015036E+03 -0.11964272038E+03  0.33777515464E+03  0.19200000000E+03 0.  0.
<mgrwt>
<rscale>  0 0.67850449E+03</rscale>
<asrwt>0</asrwt>
<pdfrwt beam="1">  1        2 0.47879919E-01 0.67850449E+03</pdfrwt>
<pdfrwt beam="2">  1       -2 0.49056434E-01 0.67850449E+03</pdfrwt>
<totfact> 0.41802033E+02</totfact>
</mgrwt>
</event>
<event>
 4    1  0.2892809E-005  0.6348332E+03  0.7818608E-02  0.9835662E-01
          2   -1    0    0  501    0  0.00000000000E+00  0.00000000000E+00  0.14408943656E+04  0.14408943656E+04  0.25500000000E-02 0.  1.
         -2   -1    0    0    0  501 -0.00000000000E+00 -0.00000000000E+00 -0.69924141850E+02  0.69924141897E+02  0.25500000000E-02 0. -1.
    5000001    1    1    2    0    0 -0.19116428368E+03 -0.10990976933E+03  0.39144525666E+03  0.48858707485E+03  0.19200000000E+03 0.  0.
   -5000001    1    1    2    0    0  0.19116428368E+03  0.10990976933E+03  0.97952496708E+03  0.10222314326E+04  0.19200000000E+03 0.  0.
<mgrwt>
<rscale>  0 0.63483321E+03</rscale>
<asrwt>0</asrwt>
<pdfrwt beam="1">  1        2 0.20584203E+00 0.63483321E+03</pdfrwt>
<pdfrwt beam="2">  1       -2 0.99891643E-02 0.63483321E+03</pdfrwt>
<totfact> 0.10946985E+03</totfact>
</mgrwt>
</event>
<event>
 4    1  0.2892809E-005  0.7317370E+03  0.7818608E-02  0.9664446E-01
          2   -1    0    0  501    0  0.00000000000E+00  0.00000000000E+00  0.12101903638E+04  0.12101903638E+04  0.25500000000E-02 0.  1.
         -2   -1    0    0    0  501 -0.00000000000E+00 -0.00000000000E+00 -0.11061051088E+03  0.11061051091E+03  0.25500000000E-02 0. -1.
    5000001    1    1    2    0    0 -0.22621112597E+03  0.48708127343E+02  0.92604840057E+03  0.97363935591E+03  0.19200000000E+03 0.  0.
   -5000001    1    1    2    0    0  0.22621112597E+03 -0.48708127343E+02  0.17353145235E+03  0.34716151881E+03  0.19200000000E+03 0.  0.
<mgrwt>
<rscale>  0 0.73173704E+03</rscale>
<asrwt>0</asrwt>
<pdfrwt beam="1">  1        2 0.17288433E+00 0.73173704E+03</pdfrwt>
<pdfrwt beam="2">  1       -2 0.15801502E-01 0.73173704E+03</pdfrwt>
<totfact> 0.68023626E+02</totfact>
</mgrwt>
</event>
<event>
 4    1  0.2892809E-005  0.5359290E+03  0.7818608E-02  0.1004804E+00
         -2   -1    0    0    0  501 -0.00000000000E+00  0.00000000000E+00  0.31177933114E+02  0.31177933218E+02  0.25500000000E-02 0. -1.
          2   -1    0    0  501    0  0.00000000000E+00 -0.00000000000E+00 -0.23030700248E+04  0.23030700248E+04  0.25500000000E-02 0.  1.
    5000001    1    1    2    0    0 -0.63316400395E+02 -0.17561562978E+03 -0.11775286558E+04  0.12075957731E+04  0.19200000000E+03 0.  0.
   -5000001    1    1    2    0    0  0.63316400395E+02  0.17561562978E+03 -0.10943634360E+04  0.11266521850E+04  0.19200000000E+03 0.  0.
<mgrwt>
<rscale>  0 0.53592896E+03</rscale>
<asrwt>0</asrwt>
<pdfrwt beam="1">  1        2 0.32900990E+00 0.53592896E+03</pdfrwt>
<pdfrwt beam="2">  1       -2 0.44539919E-02 0.53592896E+03</pdfrwt>
<totfact> 0.14361472E+03</totfact>
</mgrwt>
</event>
<event>
 4    1  0.2892809E-005  0.4254228E+03  0.7818608E-02  0.1035316E+00
          2   -1    0    0  501    0  0.00000000000E+00  0.00000000000E+00  0.12683798459E+04  0.12683798459E+04  0.25500000000E-02 0.  1.
         -2   -1    0    0    0  501 -0.00000000000E+00 -0.00000000000E+00 -0.35672384127E+02  0.35672384218E+02  0.25500000000E-02 0. -1.
    5000001    1    1    2    0    0 -0.81444020675E+02  0.10216403816E+02  0.49204308455E+03  0.53451651093E+03  0.19200000000E+03 0.  0.
   -5000001    1    1    2    0    0  0.81444020675E+02 -0.10216403816E+02  0.74066437718E+03  0.76953571914E+03  0.19200000000E+03 0.  0.
<mgrwt>
<rscale>  0 0.42542277E+03</rscale>
<asrwt>0</asrwt>
<pdfrwt beam="1">  1        2 0.18119712E+00 0.42542277E+03</pdfrwt>
<pdfrwt beam="2">  1       -2 0.50960550E-02 0.42542277E+03</pdfrwt>
<totfact> 0.39303093E+03</totfact>
</mgrwt>
</event>
<event>
 4    1  0.2892809E-005  0.9971148E+03  0.7818608E-02  0.9311715E-01
         -2   -1    0    0    0  501 -0.00000000000E+00  0.00000000000E+00  0.24545434236E+03  0.24545434238E+03  0.25500000000E-02 0. -1.
          2   -1    0    0  501    0  0.00000000000E+00 -0.00000000000E+00 -0.10126506016E+04  0.10126506016E+04  0.25500000000E-02 0.  1.
    5000001    1    1    2    0    0  0.30013363721E+03 -0.29976445112E+03 -0.60844582186E+03  0.76616528535E+03  0.19200000000E+03 0.  0.
   -5000001    1    1    2    0    0 -0.30013363721E+03  0.29976445112E+03 -0.15875043734E+03  0.49193965859E+03  0.19200000000E+03 0.  0.
<mgrwt>
<rscale>  0 0.99711481E+03</rscale>
<asrwt>0</asrwt>
<pdfrwt beam="1">  1        2 0.14466437E+00 0.99711481E+03</pdfrwt>
<pdfrwt beam="2">  1       -2 0.35064907E-01 0.99711481E+03</pdfrwt>
<totfact> 0.20978421E+02</totfact>
</mgrwt>
</event>
<event>
 4    1  0.2892809E-005  0.4508417E+03  0.7818608E-02  0.1027471E+00
         -2   -1    0    0    0  501 -0.00000000000E+00  0.00000000000E+00  0.18292296863E+03  0.18292296865E+03  0.25500000000E-02 0. -1.
          2   -1    0    0  501    0  0.00000000000E+00 -0.00000000000E+00 -0.27779216204E+03  0.27779216205E+03  0.25500000000E-02 0.  1.
    5000001    1    1    2    0    0  0.24780790691E+02  0.10292050323E+03  0.60943254952E+01  0.21933503682E+03  0.19200000000E+03 0.  0.
   -5000001    1    1    2    0    0 -0.24780790691E+02 -0.10292050323E+03 -0.10096351891E+03  0.24138009388E+03  0.19200000000E+03 0.  0.
<mgrwt>
<rscale>  0 0.45084173E+03</rscale>
<asrwt>0</asrwt>
<pdfrwt beam="1">  1        2 0.39684595E-01 0.45084173E+03</pdfrwt>
<pdfrwt beam="2">  1       -2 0.26131853E-01 0.45084173E+03</pdfrwt>
<totfact> 0.17069104E+03</totfact>
</mgrwt>
</event>
<event>
 4    1  0.2892809E-005  0.6151199E+03  0.7818608E-02  0.9874524E-01
          2   -1    0    0  501    0  0.00000000000E+00  0.00000000000E+00  0.58232576676E+03  0.58232576677E+03  0.25500000000E-02 0.  1.
         -2   -1    0    0    0  501 -0.00000000000E+00 -0.00000000000E+00 -0.16244024112E+03  0.16244024114E+03  0.25500000000E-02 0. -1.
    5000001    1    1    2    0    0 -0.21748894814E+03 -0.57291484712E+01  0.33338665687E+03  0.44197842558E+03  0.19200000000E+03 0.  0.
   -5000001    1    1    2    0    0  0.21748894814E+03  0.57291484712E+01  0.86498868781E+02  0.30278758232E+03  0.19200000000E+03 0.  0.
<mgrwt>
<rscale>  0 0.61511995E+03</rscale>
<asrwt>0</asrwt>
<pdfrwt beam="1">  1        2 0.83189395E-01 0.61511995E+03</pdfrwt>
<pdfrwt beam="2">  1       -2 0.23205749E-01 0.61511995E+03</pdfrwt>
<totfact> 0.92386176E+02</totfact>
</mgrwt>
</event>
<event>
 4    1  0.2892809E-005  0.5617428E+03  0.7818608E-02  0.9988119E-01
          2   -1    0    0  501    0  0.00000000000E+00  0.00000000000E+00  0.27842441318E+04  0.27842441318E+04  0.25500000000E-02 0.  1.
         -2   -1    0    0    0  501 -0.00000000000E+00 -0.00000000000E+00 -0.28333992720E+02  0.28333992835E+02  0.25500000000E-02 0. -1.
    5000001    1    1    2    0    0  0.15285286149E+03  0.31388669798E+02  0.20436158904E+04  0.20585381107E+04  0.19200000000E+03 0.  0.
   -5000001    1    1    2    0    0 -0.15285286149E+03 -0.31388669798E+02  0.71229424864E+03  0.75404001386E+03  0.19200000000E+03 0.  0.
<mgrwt>
<rscale>  0 0.56174283E+03</rscale>
<asrwt>0</asrwt>
<pdfrwt beam="1">  1        2 0.39774925E+00 0.56174283E+03</pdfrwt>
<pdfrwt beam="2">  1       -2 0.40477123E-02 0.56174283E+03</pdfrwt>
<totfact> 0.93916019E+02</totfact>
</mgrwt>
</event>
<event>
 4    1  0.2892809E-005  0.4030569E+03  0.7818608E-02  0.1042726E+00
         -2   -1    0    0    0  501 -0.00000000000E+00  0.00000000000E+00  0.12451975757E+02  0.12451976018E+02  0.25500000000E-02 0. -1.
          2   -1    0    0  501    0  0.00000000000E+00 -0.00000000000E+00 -0.32616277339E+04  0.32616277339E+04  0.25500000000E-02 0.  1.
    5000001    1    1    2    0    0  0.16756022044E+02  0.55684307837E+02 -0.17804594344E+04  0.17917257893E+04  0.19200000000E+03 0.  0.
   -5000001    1    1    2    0    0 -0.16756022044E+02 -0.55684307837E+02 -0.14687163237E+04  0.14823539206E+04  0.19200000000E+03 0.  0.
<mgrwt>
<rscale>  0 0.40305687E+03</rscale>
<asrwt>0</asrwt>
<pdfrwt beam="1">  1        2 0.46594627E+00 0.40305687E+03</pdfrwt>
<pdfrwt beam="2">  1       -2 0.17788558E-02 0.40305687E+03</pdfrwt>
<totfact> 0.18123628E+03</totfact>
</mgrwt>
</event>
<event>
 4    1  0.2892809E-005  0.4445022E+03  0.7818608E-02  0.1029374E+00
         -2   -1    0    0    0  501 -0.00000000000E+00  0.00000000000E+00  0.41120474265E+03  0.41120474266E+03  0.25500000000E-02 0. -1.
          2   -1    0    0  501    0  0.00000000000E+00 -0.00000000000E+00 -0.12012397526E+03  0.12012397528E+03  0.25500000000E-02 0.  1.
    5000001    1    1    2    0    0 -0.94487792998E+02  0.58888936754E+02  0.13161597312E+03  0.25803607166E+03  0.19200000000E+03 0.  0.
   -5000001    1    1    2    0    0  0.94487792998E+02 -0.58888936754E+02  0.15946479428E+03  0.27329264628E+03  0.19200000000E+03 0.  0.
<mgrwt>
<rscale>  0 0.44450219E+03</rscale>
<asrwt>0</asrwt>
<pdfrwt beam="1">  1        2 0.17160568E-01 0.44450219E+03</pdfrwt>
<pdfrwt beam="2">  1       -2 0.58743535E-01 0.44450219E+03</pdfrwt>
<totfact> 0.92520726E+02</totfact>
</mgrwt>
</event>
<event>
 4    1  0.2892809E-005  0.9098701E+03  0.7818608E-02  0.9413327E-01
          2   -1    0    0  501    0  0.00000000000E+00  0.00000000000E+00  0.16242104772E+04  0.16242104772E+04  0.25500000000E-02 0.  1.
         -2   -1    0    0    0  501 -0.00000000000E+00 -0.00000000000E+00 -0.12742554474E+03  0.12742554477E+03  0.25500000000E-02 0. -1.
    5000001    1    1    2    0    0 -0.15788678497E+03 -0.20559638766E+03  0.13083104056E+03  0.34810755904E+03  0.19200000000E+03 0.  0.
   -5000001    1    1    2    0    0  0.15788678497E+03  0.20559638766E+03  0.13659538919E+04  0.14035284629E+04  0.19200000000E+03 0.  0.
<mgrwt>
<rscale>  0 0.90987011E+03</rscale>
<asrwt>0</asrwt>
<pdfrwt beam="1">  1        2 0.23203006E+00 0.90987011E+03</pdfrwt>
<pdfrwt beam="2">  1       -2 0.18203650E-01 0.90987011E+03</pdfrwt>
<totfact> 0.31701231E+02</totfact>
</mgrwt>
</event>
<event>
 4    1  0.2892809E-005  0.1178949E+04  0.7818608E-02  0.9131485E-01
         -2   -1    0    0    0  501 -0.00000000000E+00  0.00000000000E+00  0.20841244210E+04  0.20841244210E+04  0.25500000000E-02 0. -1.
          2   -1    0    0  501    0  0.00000000000E+00 -0.00000000000E+00 -0.16672719505E+03  0.16672719507E+03  0.25500000000E-02 0.  1.
    5000001    1    1    2    0    0 -0.19840610322E+03 -0.52070240052E+03  0.93776282881E+03  0.11075915740E+04  0.19200000000E+03 0.  0.
   -5000001    1    1    2    0    0  0.19840610322E+03  0.52070240052E+03  0.97963439710E+03  0.11432600420E+04  0.19200000000E+03 0.  0.
<mgrwt>
<rscale>  0 0.11789491E+04</rscale>
<asrwt>0</asrwt>
<pdfrwt beam="1">  1        2 0.23818170E-01 0.11789491E+04</pdfrwt>
<pdfrwt beam="2">  1       -2 0.29773207E+00 0.11789491E+04</pdfrwt>
<totfact> 0.75983726E+00</totfact>
</mgrwt>
</event>
<event>
 4    1  0.2892809E-005  0.4669081E+03  0.7818608E-02  0.1022797E+00
          2   -1    0    0  501    0  0.00000000000E+00  0.00000000000E+00  0.11910369654E+04  0.11910369654E+04  0.25500000000E-02 0.  1.
         -2   -1    0    0    0  501 -0.00000000000E+00 -0.00000000000E+00 -0.45759105618E+02  0.45759105689E+02  0.25500000000E-02 0. -1.
    5000001    1    1    2    0    0 -0.12031843931E+03 -0.41215422131E+01  0.42412823636E+03  0.48087656922E+03  0.19200000000E+03 0.  0.
   -5000001    1    1    2    0    0  0.12031843931E+03  0.41215422131E+01  0.72114962340E+03  0.75591950185E+03  0.19200000000E+03 0.  0.
<mgrwt>
<rscale>  0 0.46690807E+03</rscale>
<asrwt>0</asrwt>
<pdfrwt beam="1">  1        2 0.17014814E+00 0.46690807E+03</pdfrwt>
<pdfrwt beam="2">  1       -2 0.65370150E-02 0.46690807E+03</pdfrwt>
<totfact> 0.29455051E+03</totfact>
</mgrwt>
</event>
<event>
 4    1  0.2892809E-005  0.7647602E+03  0.7818608E-02  0.9612474E-01
          2   -1    0    0  501    0  0.00000000000E+00  0.00000000000E+00  0.80100860475E+03  0.80100860476E+03  0.25500000000E-02 0.  1.
         -2   -1    0    0    0  501 -0.00000000000E+00 -0.00000000000E+00 -0.18253804431E+03  0.18253804433E+03  0.25500000000E-02 0. -1.
    5000001    1    1    2    0    0  0.93379321541E+02  0.26426451691E+03  0.53492437326E+03  0.63369039577E+03  0.19200000000E+03 0.  0.
   -5000001    1    1    2    0    0 -0.93379321541E+02 -0.26426451691E+03  0.83546187181E+02  0.34985625331E+03  0.19200000000E+03 0.  0.
<mgrwt>
<rscale>  0 0.76476021E+03</rscale>
<asrwt>0</asrwt>
<pdfrwt beam="1">  1        2 0.11442980E+00 0.76476021E+03</pdfrwt>
<pdfrwt beam="2">  1       -2 0.26076864E-01 0.76476021E+03</pdfrwt>
<totfact> 0.50533766E+02</totfact>
</mgrwt>
</event>
<event>
 4    1  0.2892809E-005  0.5116824E+03  0.7818608E-02  0.1010774E+00
         -2   -1    0    0    0  501 -0.00000000000E+00  0.00000000000E+00  0.33177935021E+02  0.33177935119E+02  0.25500000000E-02 0. -1.
          2   -1    0    0  501    0  0.00000000000E+00 -0.00000000000E+00 -0.19728391052E+04  0.19728391052E+04  0.25500000000E-02 0.  1.
    5000001    1    1    2    0    0  0.86256409699E+02 -0.12847786963E+03 -0.12369958882E+04  0.12613364177E+04  0.19200000000E+03 0.  0.
   -5000001    1    1    2    0    0 -0.86256409699E+02  0.12847786963E+03 -0.70266528194E+03  0.74468062258E+03  0.19200000000E+03 0.  0.
<mgrwt>
<rscale>  0 0.51168243E+03</rscale>
<asrwt>0</asrwt>
<pdfrwt beam="1">  1        2 0.28183408E+00 0.51168243E+03</pdfrwt>
<pdfrwt beam="2">  1       -2 0.47397062E-02 0.51168243E+03</pdfrwt>
<totfact> 0.19123139E+03</totfact>
</mgrwt>
</event>
<event>
 4    1  0.2892809E-005  0.4046274E+03  0.7818608E-02  0.1042189E+00
         -2   -1    0    0    0  501 -0.00000000000E+00  0.00000000000E+00  0.52915398082E+02  0.52915398144E+02  0.25500000000E-02 0. -1.
          2   -1    0    0  501    0  0.00000000000E+00 -0.00000000000E+00 -0.77351471121E+03  0.77351471121E+03  0.25500000000E-02 0.  1.
    5000001    1    1    2    0    0  0.56118552472E+02  0.27597383704E+02 -0.33479511239E+03  0.39097656554E+03  0.19200000000E+03 0.  0.
   -5000001    1    1    2    0    0 -0.56118552472E+02 -0.27597383704E+02 -0.38580420073E+03  0.43545354382E+03  0.19200000000E+03 0.  0.
<mgrwt>
<rscale>  0 0.40462743E+03</rscale>
<asrwt>0</asrwt>
<pdfrwt beam="1">  1        2 0.11050209E+00 0.40462743E+03</pdfrwt>
<pdfrwt beam="2">  1       -2 0.75593431E-02 0.40462743E+03</pdfrwt>
<totfact> 0.42279559E+03</totfact>
</mgrwt>
</event>
<event>
 4    1  0.2892809E-005  0.4579782E+03  0.7818608E-02  0.1025369E+00
         -2   -1    0    0    0  501 -0.00000000000E+00  0.00000000000E+00  0.25182359546E+02  0.25182359675E+02  0.25500000000E-02 0. -1.
          2   -1    0    0  501    0  0.00000000000E+00 -0.00000000000E+00 -0.20822512083E+04  0.20822512083E+04  0.25500000000E-02 0.  1.
    5000001    1    1    2    0    0 -0.32462994370E+02  0.58673823101E+02 -0.54426005238E+03  0.58101589319E+03  0.19200000000E+03 0.  0.
   -5000001    1    1    2    0    0  0.32462994370E+02 -0.58673823101E+02 -0.15128087964E+04  0.15264176748E+04  0.19200000000E+03 0.  0.
<mgrwt>
<rscale>  0 0.45797816E+03</rscale>
<asrwt>0</asrwt>
<pdfrwt beam="1">  1        2 0.29746435E+00 0.45797816E+03</pdfrwt>
<pdfrwt beam="2">  1       -2 0.35974813E-02 0.45797816E+03</pdfrwt>
<totfact> 0.25779193E+03</totfact>
</mgrwt>
</event>
<event>
 4    1  0.2892809E-005  0.8237511E+03  0.7818608E-02  0.9526261E-01
          2   -1    0    0  501    0  0.00000000000E+00  0.00000000000E+00  0.37894073142E+03  0.37894073142E+03  0.25500000000E-02 0.  1.
         -2   -1    0    0    0  501 -0.00000000000E+00 -0.00000000000E+00 -0.44767280606E+03  0.44767280606E+03  0.25500000000E-02 0. -1.
    5000001    1    1    2    0    0 -0.51004396735E+02  0.31888757655E+03  0.13500056784E+03  0.39922410784E+03  0.19200000000E+03 0.  0.
   -5000001    1    1    2    0    0  0.51004396735E+02 -0.31888757655E+03 -0.20373264248E+03  0.42738942965E+03  0.19200000000E+03 0.  0.
<mgrwt>
<rscale>  0 0.82375108E+03</rscale>
<asrwt>0</asrwt>
<pdfrwt beam="1">  1        2 0.54134391E-01 0.82375108E+03</pdfrwt>
<pdfrwt beam="2">  1       -2 0.63953257E-01 0.82375108E+03</pdfrwt>
<totfact> 0.20907796E+02</totfact>
</mgrwt>
</event>
<event>
 4    1  0.2892809E-005  0.5599055E+03  0.7818608E-02  0.9992268E-01
          2   -1    0    0  501    0  0.00000000000E+00  0.00000000000E+00  0.45766802626E+03  0.45766802627E+03  0.25500000000E-02 0.  1.
         -2   -1    0    0    0  501 -0.00000000000E+00 -0.00000000000E+00 -0.17124540362E+03  0.17124540364E+03  0.25500000000E-02 0. -1.
    5000001    1    1    2    0    0 -0.19794411663E+02  0.17512791787E+03  0.28398209429E+02  0.26216800844E+03  0.19200000000E+03 0.  0.
   -5000001    1    1    2    0    0  0.19794411663E+02 -0.17512791787E+03  0.25802441321E+03  0.36674542146E+03  0.19200000000E+03 0.  0.
<mgrwt>
<rscale>  0 0.55990551E+03</rscale>
<asrwt>0</asrwt>
<pdfrwt beam="1">  1        2 0.65381146E-01 0.55990551E+03</pdfrwt>
<pdfrwt beam="2">  1       -2 0.24463629E-01 0.55990551E+03</pdfrwt>
<totfact> 0.11083557E+03</totfact>
</mgrwt>
</event>
<event>
 4    1  0.2892809E-005  0.7641618E+03  0.7818608E-02  0.9613391E-01
         -2   -1    0    0    0  501 -0.00000000000E+00  0.00000000000E+00  0.85242224338E+02  0.85242224376E+02  0.25500000000E-02 0. -1.
          2   -1    0    0  501    0  0.00000000000E+00 -0.00000000000E+00 -0.17125995813E+04  0.17125995813E+04  0.25500000000E-02 0.  1.
    5000001    1    1    2    0    0 -0.42385164861E+02 -0.32132176722E+03 -0.66344426857E+03  0.76293281342E+03  0.19200000000E+03 0.  0.
   -5000001    1    1    2    0    0  0.42385164861E+02  0.32132176722E+03 -0.96391308844E+03  0.10349089923E+04  0.19200000000E+03 0.  0.
<mgrwt>
<rscale>  0 0.76416176E+03</rscale>
<asrwt>0</asrwt>
<pdfrwt beam="1">  1        2 0.24465706E+00 0.76416176E+03</pdfrwt>
<pdfrwt beam="2">  1       -2 0.12177462E-01 0.76416176E+03</pdfrwt>
<totfact> 0.56842307E+02</totfact>
</mgrwt>
</event>
<event>
 4    1  0.2892809E-005  0.7529791E+03  0.7818608E-02  0.9630688E-01
          2   -1    0    0  501    0  0.00000000000E+00  0.00000000000E+00  0.50720207365E+03  0.50720207365E+03  0.25500000000E-02 0.  1.
         -2   -1    0    0    0  501 -0.00000000000E+00 -0.00000000000E+00 -0.27946332641E+03  0.27946332643E+03  0.25500000000E-02 0. -1.
    5000001    1    1    2    0    0  0.50347199641E+01  0.20455448982E+03  0.37612236770E+03  0.46925464643E+03  0.19200000000E+03 0.  0.
   -5000001    1    1    2    0    0 -0.50347199641E+01 -0.20455448982E+03 -0.14838362046E+03  0.31741075365E+03  0.19200000000E+03 0.  0.
<mgrwt>
<rscale>  0 0.75297909E+03</rscale>
<asrwt>0</asrwt>
<pdfrwt beam="1">  1        2 0.72457438E-01 0.75297909E+03</pdfrwt>
<pdfrwt beam="2">  1       -2 0.39923333E-01 0.75297909E+03</pdfrwt>
<totfact> 0.39438705E+02</totfact>
</mgrwt>
</event>
<event>
 4    1  0.2892809E-005  0.5704215E+03  0.7818608E-02  0.9968746E-01
         -2   -1    0    0    0  501 -0.00000000000E+00  0.00000000000E+00  0.20463274971E+02  0.20463275129E+02  0.25500000000E-02 0. -1.
          2   -1    0    0  501    0  0.00000000000E+00 -0.00000000000E+00 -0.39751789802E+04  0.39751789802E+04  0.25500000000E-02 0.  1.
    5000001    1    1    2    0    0  0.20818911032E+03  0.29002723121E+02 -0.20981394409E+04  0.21173655748E+04  0.19200000000E+03 0.  0.
   -5000001    1    1    2    0    0 -0.20818911032E+03 -0.29002723121E+02 -0.18565762643E+04  0.18782766806E+04  0.19200000000E+03 0.  0.
<mgrwt>
<rscale>  0 0.57042153E+03</rscale>
<asrwt>0</asrwt>
<pdfrwt beam="1">  1        2 0.56788222E+00 0.57042153E+03</pdfrwt>
<pdfrwt beam="2">  1       -2 0.29233275E-02 0.57042153E+03</pdfrwt>
<totfact> 0.31066846E+02</totfact>
</mgrwt>
</event>
<event>
 4    1  0.2892809E-005  0.6364259E+03  0.7818608E-02  0.9832589E-01
         -2   -1    0    0    0  501 -0.00000000000E+00  0.00000000000E+00  0.34187200084E+02  0.34187200179E+02  0.25500000000E-02 0. -1.
          2   -1    0    0  501    0  0.00000000000E+00 -0.00000000000E+00 -0.29619119707E+04  0.29619119707E+04  0.25500000000E-02 0.  1.
    5000001    1    1    2    0    0  0.86093815214E+02  0.22226006570E+03 -0.10538927848E+04  0.10974359588E+04  0.19200000000E+03 0.  0.
   -5000001    1    1    2    0    0 -0.86093815214E+02 -0.22226006570E+03 -0.18738319858E+04  0.18986632121E+04  0.19200000000E+03 0.  0.
<mgrwt>
<rscale>  0 0.63642589E+03</rscale>
<asrwt>0</asrwt>
<pdfrwt beam="1">  1        2 0.42313012E+00 0.63642589E+03</pdfrwt>
<pdfrwt beam="2">  1       -2 0.48838876E-02 0.63642589E+03</pdfrwt>
<totfact> 0.56107191E+02</totfact>
</mgrwt>
</event>
<event>
 4    1  0.2892809E-005  0.9194108E+03  0.7818608E-02  0.9401637E-01
         -2   -1    0    0    0  501 -0.00000000000E+00  0.00000000000E+00  0.11833188377E+03  0.11833188380E+03  0.25500000000E-02 0. -1.
          2   -1    0    0  501    0  0.00000000000E+00 -0.00000000000E+00 -0.17859010937E+04  0.17859010937E+04  0.25500000000E-02 0.  1.
    5000001    1    1    2    0    0 -0.28374486272E+03 -0.29723871051E+03 -0.98881699957E+03  0.10878809938E+04  0.19200000000E+03 0.  0.
   -5000001    1    1    2    0    0  0.28374486272E+03  0.29723871051E+03 -0.67875221033E+03  0.81635198363E+03  0.19200000000E+03 0.  0.
<mgrwt>
<rscale>  0 0.91941077E+03</rscale>
<asrwt>0</asrwt>
<pdfrwt beam="1">  1        2 0.25512871E+00 0.91941077E+03</pdfrwt>
<pdfrwt beam="2">  1       -2 0.16904556E-01 0.91941077E+03</pdfrwt>
<totfact> 0.29712067E+02</totfact>
</mgrwt>
</event>
<event>
 4    1  0.2892809E-005  0.4185689E+03  0.7818608E-02  0.1037533E+00
          2   -1    0    0  501    0  0.00000000000E+00  0.00000000000E+00  0.68253868478E+03  0.68253868479E+03  0.25500000000E-02 0.  1.
         -2   -1    0    0    0  501 -0.00000000000E+00 -0.00000000000E+00 -0.64172159521E+02  0.64172159571E+02  0.25500000000E-02 0. -1.
    5000001    1    1    2    0    0 -0.82370325933E+02  0.10000129710E+02  0.32193680280E+03  0.38391688968E+03  0.19200000000E+03 0.  0.
   -5000001    1    1    2    0    0  0.82370325933E+02 -0.10000129710E+02  0.29642972246E+03  0.36279395467E+03  0.19200000000E+03 0.  0.
<mgrwt>
<rscale>  0 0.41856890E+03</rscale>
<asrwt>0</asrwt>
<pdfrwt beam="1">  1        2 0.97505529E-01 0.41856890E+03</pdfrwt>
<pdfrwt beam="2">  1       -2 0.91674511E-02 0.41856890E+03</pdfrwt>
<totfact> 0.36307581E+03</totfact>
</mgrwt>
</event>
<event>
 4    1  0.2892809E-005  0.1036418E+04  0.7818608E-02  0.9269480E-01
         -2   -1    0    0    0  501 -0.00000000000E+00  0.00000000000E+00  0.21739745947E+04  0.21739745947E+04  0.25500000000E-02 0. -1.
          2   -1    0    0  501    0  0.00000000000E+00 -0.00000000000E+00 -0.12352505386E+03  0.12352505389E+03  0.25500000000E-02 0.  1.
    5000001    1    1    2    0    0 -0.45847252256E+03  0.14062623671E+03  0.93372996733E+03  0.10670934562E+04  0.19200000000E+03 0.  0.
   -5000001    1    1    2    0    0  0.45847252256E+03 -0.14062623671E+03  0.11167195735E+04  0.12304061924E+04  0.19200000000E+03 0.  0.
<mgrwt>
<rscale>  0 0.10364175E+04</rscale>
<asrwt>0</asrwt>
<pdfrwt beam="1">  1        2 0.17646436E-01 0.10364175E+04</pdfrwt>
<pdfrwt beam="2">  1       -2 0.31056781E+00 0.10364175E+04</pdfrwt>
<totfact> 0.91565105E+00</totfact>
</mgrwt>
</event>
<event>
 4    1  0.2892809E-005  0.4686560E+03  0.7818608E-02  0.1022300E+00
         -2   -1    0    0    0  501 -0.00000000000E+00  0.00000000000E+00  0.35335806676E+02  0.35335806768E+02  0.25500000000E-02 0. -1.
          2   -1    0    0  501    0  0.00000000000E+00 -0.00000000000E+00 -0.15539366278E+04  0.15539366278E+04  0.25500000000E-02 0.  1.
    5000001    1    1    2    0    0  0.71606977173E+02 -0.11007191342E+03 -0.66325189011E+03  0.70285877318E+03  0.19200000000E+03 0.  0.
   -5000001    1    1    2    0    0 -0.71606977173E+02  0.11007191342E+03 -0.85534893097E+03  0.88641366135E+03  0.19200000000E+03 0.  0.
<mgrwt>
<rscale>  0 0.46865597E+03</rscale>
<asrwt>0</asrwt>
<pdfrwt beam="1">  1        2 0.22199090E+00 0.46865597E+03</pdfrwt>
<pdfrwt beam="2">  1       -2 0.50479734E-02 0.46865597E+03</pdfrwt>
<totfact> 0.28238605E+03</totfact>
</mgrwt>
</event>
<event>
 4    1  0.2892809E-005  0.6117120E+03  0.7818608E-02  0.9881401E-01
          2   -1    0    0  501    0  0.00000000000E+00  0.00000000000E+00  0.13993862408E+03  0.13993862410E+03  0.25500000000E-02 0.  1.
         -2   -1    0    0    0  501 -0.00000000000E+00 -0.00000000000E+00 -0.66849224230E+03  0.66849224230E+03  0.25500000000E-02 0. -1.
    5000001    1    1    2    0    0  0.21418164517E+03 -0.84173590914E+01 -0.12732020030E+03  0.31467294524E+03  0.19200000000E+03 0.  0.
   -5000001    1    1    2    0    0 -0.21418164517E+03  0.84173590914E+01 -0.40123341792E+03  0.49375792117E+03  0.19200000000E+03 0.  0.
<mgrwt>
<rscale>  0 0.61171197E+03</rscale>
<asrwt>0</asrwt>
<pdfrwt beam="1">  1        2 0.19991232E-01 0.61171197E+03</pdfrwt>
<pdfrwt beam="2">  1       -2 0.95498890E-01 0.61171197E+03</pdfrwt>
<totfact> 0.26467781E+02</totfact>
</mgrwt>
</event>
<event>
 4    1  0.2892809E-005  0.1416820E+04  0.7818608E-02  0.8941733E-01
          2   -1    0    0  501    0  0.00000000000E+00  0.00000000000E+00  0.15014732588E+04  0.15014732588E+04  0.25500000000E-02 0.  1.
         -2   -1    0    0    0  501 -0.00000000000E+00 -0.00000000000E+00 -0.33423475284E+03  0.33423475285E+03  0.25500000000E-02 0. -1.
    5000001    1    1    2    0    0 -0.65232394388E+03 -0.11549191629E+03  0.79300122396E+03  0.10509899389E+04  0.19200000000E+03 0.  0.
   -5000001    1    1    2    0    0  0.65232394388E+03  0.11549191629E+03  0.37423728204E+03  0.78471807279E+03  0.19200000000E+03 0.  0.
<mgrwt>
<rscale>  0 0.14168197E+04</rscale>
<asrwt>0</asrwt>
<pdfrwt beam="1">  1        2 0.21449618E+00 0.14168197E+04</pdfrwt>
<pdfrwt beam="2">  1       -2 0.47747822E-01 0.14168197E+04</pdfrwt>
<totfact> 0.59003895E+01</totfact>
</mgrwt>
</event>
<event>
 4    1  0.2892809E-005  0.4889872E+03  0.7818608E-02  0.1016694E+00
          2   -1    0    0  501    0  0.00000000000E+00  0.00000000000E+00  0.60796461697E+03  0.60796461698E+03  0.25500000000E-02 0.  1.
         -2   -1    0    0    0  501 -0.00000000000E+00 -0.00000000000E+00 -0.98323363753E+02  0.98323363786E+02  0.25500000000E-02 0. -1.
    5000001    1    1    2    0    0  0.12658873648E+03  0.60580659857E+02  0.33676222375E+03  0.41227117277E+03  0.19200000000E+03 0.  0.
   -5000001    1    1    2    0    0 -0.12658873648E+03 -0.60580659857E+02  0.17287902947E+03  0.29401680800E+03  0.19200000000E+03 0.  0.
<mgrwt>
<rscale>  0 0.48898722E+03</rscale>
<asrwt>0</asrwt>
<pdfrwt beam="1">  1        2 0.86852087E-01 0.48898722E+03</pdfrwt>
<pdfrwt beam="2">  1       -2 0.14046195E-01 0.48898722E+03</pdfrwt>
<totfact> 0.20817418E+03</totfact>
</mgrwt>
</event>
<event>
 4    1  0.2892809E-005  0.5892332E+03  0.7818608E-02  0.9927999E-01
         -2   -1    0    0    0  501 -0.00000000000E+00  0.00000000000E+00  0.83361496859E+02  0.83361496898E+02  0.25500000000E-02 0. -1.
          2   -1    0    0  501    0  0.00000000000E+00 -0.00000000000E+00 -0.10412353073E+04  0.10412353073E+04  0.25500000000E-02 0.  1.
    5000001    1    1    2    0    0  0.16604374838E+03 -0.62326918529E+01 -0.76411150736E+03  0.80519548466E+03  0.19200000000E+03 0.  0.
   -5000001    1    1    2    0    0 -0.16604374838E+03  0.62326918529E+01 -0.19376230304E+03  0.31940131951E+03  0.19200000000E+03 0.  0.
<mgrwt>
<rscale>  0 0.58923318E+03</rscale>
<asrwt>0</asrwt>
<pdfrwt beam="1">  1        2 0.14874789E+00 0.58923318E+03</pdfrwt>
<pdfrwt beam="2">  1       -2 0.11908786E-01 0.58923318E+03</pdfrwt>
<totfact> 0.13726943E+03</totfact>
</mgrwt>
</event>
<event>
 4    1  0.2892809E-005  0.4998995E+03  0.7818608E-02  0.1013805E+00
          2   -1    0    0  501    0  0.00000000000E+00  0.00000000000E+00  0.18391687200E+04  0.18391687200E+04  0.25500000000E-02 0.  1.
         -2   -1    0    0    0  501 -0.00000000000E+00 -0.00000000000E+00 -0.33969080388E+02  0.33969080483E+02  0.25500000000E-02 0. -1.
    5000001    1    1    2    0    0 -0.60040196772E+02  0.48902356898E+01  0.34705136665E+03  0.40117002720E+03  0.19200000000E+03 0.  0.
   -5000001    1    1    2    0    0  0.60040196772E+02 -0.48902356898E+01  0.14581482730E+04  0.14719677733E+04  0.19200000000E+03 0.  0.
<mgrwt>
<rscale>  0 0.49989947E+03</rscale>
<asrwt>0</asrwt>
<pdfrwt beam="1">  1        2 0.26273839E+00 0.49989947E+03</pdfrwt>
<pdfrwt beam="2">  1       -2 0.48527257E-02 0.49989947E+03</pdfrwt>
<totfact> 0.21517473E+03</totfact>
</mgrwt>
</event>
<event>
 4    1  0.2892809E-005  0.5369931E+03  0.7818608E-02  0.1004550E+00
         -2   -1    0    0    0  501 -0.00000000000E+00  0.00000000000E+00  0.62391886088E+02  0.62391886140E+02  0.25500000000E-02 0. -1.
          2   -1    0    0  501    0  0.00000000000E+00 -0.00000000000E+00 -0.11554449634E+04  0.11554449634E+04  0.25500000000E-02 0.  1.
    5000001    1    1    2    0    0  0.13895288711E+03  0.12616086848E+03 -0.54966982517E+03  0.61173963929E+03  0.19200000000E+03 0.  0.
   -5000001    1    1    2    0    0 -0.13895288711E+03 -0.12616086848E+03 -0.54338325217E+03  0.60609721028E+03  0.19200000000E+03 0.  0.
<mgrwt>
<rscale>  0 0.53699307E+03</rscale>
<asrwt>0</asrwt>
<pdfrwt beam="1">  1        2 0.16506355E+00 0.53699307E+03</pdfrwt>
<pdfrwt beam="2">  1       -2 0.89131273E-02 0.53699307E+03</pdfrwt>
<totfact> 0.18871677E+03</totfact>
</mgrwt>
</event>
<event>
 4    1  0.2892809E-005  0.4014288E+03  0.7818608E-02  0.1043286E+00
          2   -1    0    0  501    0  0.00000000000E+00  0.00000000000E+00  0.20079180318E+04  0.20079180318E+04  0.25500000000E-02 0.  1.
         -2   -1    0    0    0  501 -0.00000000000E+00 -0.00000000000E+00 -0.20063701060E+02  0.20063701222E+02  0.25500000000E-02 0. -1.
    5000001    1    1    2    0    0  0.30848579083E+01 -0.46803538015E+02  0.11705403319E+04  0.11871094120E+04  0.19200000000E+03 0.  0.
   -5000001    1    1    2    0    0 -0.30848579083E+01  0.46803538015E+02  0.81731399890E+03  0.84087232105E+03  0.19200000000E+03 0.  0.
<mgrwt>
<rscale>  0 0.40142878E+03</rscale>
<asrwt>0</asrwt>
<pdfrwt beam="1">  1        2 0.28684540E+00 0.40142878E+03</pdfrwt>
<pdfrwt beam="2">  1       -2 0.28662434E-02 0.40142878E+03</pdfrwt>
<totfact> 0.39626556E+03</totfact>
</mgrwt>
</event>
<event>
 4    1  0.2892809E-005  0.4770802E+03  0.7818608E-02  0.1019941E+00
          2   -1    0    0  501    0  0.00000000000E+00  0.00000000000E+00  0.29079948246E+04  0.29079948246E+04  0.25500000000E-02 0.  1.
         -2   -1    0    0    0  501 -0.00000000000E+00 -0.00000000000E+00 -0.19567225627E+02  0.19567225793E+02  0.25500000000E-02 0. -1.
    5000001    1    1    2    0    0  0.13311189745E+03  0.24685580554E+02  0.11905165944E+04  0.12134751405E+04  0.19200000000E+03 0.  0.
   -5000001    1    1    2    0    0 -0.13311189745E+03 -0.24685580554E+02  0.16979110046E+04  0.17140869099E+04  0.19200000000E+03 0.  0.
<mgrwt>
<rscale>  0 0.47708025E+03</rscale>
<asrwt>0</asrwt>
<pdfrwt beam="1">  1        2 0.41542766E+00 0.47708025E+03</pdfrwt>
<pdfrwt beam="2">  1       -2 0.27953191E-02 0.47708025E+03</pdfrwt>
<totfact> 0.14282867E+03</totfact>
</mgrwt>
</event>
<event>
 4    1  0.2892809E-005  0.6513262E+03  0.7818608E-02  0.9804294E-01
          2   -1    0    0  501    0  0.00000000000E+00  0.00000000000E+00  0.77941457056E+03  0.77941457057E+03  0.25500000000E-02 0.  1.
         -2   -1    0    0    0  501 -0.00000000000E+00 -0.00000000000E+00 -0.13607196107E+03  0.13607196110E+03  0.25500000000E-02 0. -1.
    5000001    1    1    2    0    0 -0.11639736833E+03 -0.19869732982E+03  0.14297277065E+03  0.33216590640E+03  0.19200000000E+03 0.  0.
   -5000001    1    1    2    0    0  0.11639736833E+03  0.19869732982E+03  0.50036983884E+03  0.58332062526E+03  0.19200000000E+03 0.  0.
<mgrwt>
<rscale>  0 0.65132624E+03</rscale>
<asrwt>0</asrwt>
<pdfrwt beam="1">  1        2 0.11134494E+00 0.65132624E+03</pdfrwt>
<pdfrwt beam="2">  1       -2 0.19438852E-01 0.65132624E+03</pdfrwt>
<totfact> 0.88441694E+02</totfact>
</mgrwt>
</event>
<event>
 4    1  0.2892809E-005  0.6143836E+03  0.7818608E-02  0.9876006E-01
          2   -1    0    0  501    0  0.00000000000E+00  0.00000000000E+00  0.17407020922E+04  0.17407020922E+04  0.25500000000E-02 0.  1.
         -2   -1    0    0    0  501 -0.00000000000E+00 -0.00000000000E+00 -0.54211916153E+02  0.54211916213E+02  0.25500000000E-02 0. -1.
    5000001    1    1    2    0    0  0.94959250846E+02 -0.15642017483E+03  0.12960121940E+04  0.13228741956E+04  0.19200000000E+03 0.  0.
   -5000001    1    1    2    0    0 -0.94959250846E+02  0.15642017483E+03  0.39047798208E+03  0.47203981284E+03  0.19200000000E+03 0.  0.
<mgrwt>
<rscale>  0 0.61438358E+03</rscale>
<asrwt>0</asrwt>
<pdfrwt beam="1">  1        2 0.24867173E+00 0.61438358E+03</pdfrwt>
<pdfrwt beam="2">  1       -2 0.77445595E-02 0.61438358E+03</pdfrwt>
<totfact> 0.11548257E+03</totfact>
</mgrwt>
</event>
<event>
 4    1  0.2892809E-005  0.5822508E+03  0.7818608E-02  0.9942930E-01
          2   -1    0    0  501    0  0.00000000000E+00  0.00000000000E+00  0.34387593346E+04  0.34387593346E+04  0.25500000000E-02 0.  1.
         -2   -1    0    0    0  501 -0.00000000000E+00 -0.00000000000E+00 -0.24646680413E+02  0.24646680545E+02  0.25500000000E-02 0. -1.
    5000001    1    1    2    0    0  0.21119351925E+02  0.16728285032E+03  0.87726393907E+03  0.91372074390E+03  0.19200000000E+03 0.  0.
   -5000001    1    1    2    0    0 -0.21119351925E+02 -0.16728285032E+03  0.25368487151E+04  0.25496852713E+04  0.19200000000E+03 0.  0.
<mgrwt>
<rscale>  0 0.58225081E+03</rscale>
<asrwt>0</asrwt>
<pdfrwt beam="1">  1        2 0.49125187E+00 0.58225081E+03</pdfrwt>
<pdfrwt beam="2">  1       -2 0.35209505E-02 0.58225081E+03</pdfrwt>
<totfact> 0.50342998E+02</totfact>
</mgrwt>
</event>
<event>
 4    1  0.2892809E-005  0.5999090E+03  0.7818608E-02  0.9905595E-01
         -2   -1    0    0    0  501 -0.00000000000E+00  0.00000000000E+00  0.53545563362E+02  0.53545563422E+02  0.25500000000E-02 0. -1.
          2   -1    0    0  501    0  0.00000000000E+00 -0.00000000000E+00 -0.16803017243E+04  0.16803017243E+04  0.25500000000E-02 0.  1.
    5000001    1    1    2    0    0 -0.13841526318E+03  0.17624778297E+03 -0.65809594027E+03  0.72123250945E+03  0.19200000000E+03 0.  0.
   -5000001    1    1    2    0    0  0.13841526318E+03 -0.17624778297E+03 -0.96866022069E+03  0.10126147783E+04  0.19200000000E+03 0.  0.
<mgrwt>
<rscale>  0 0.59990900E+03</rscale>
<asrwt>0</asrwt>
<pdfrwt beam="1">  1        2 0.24004307E+00 0.59990900E+03</pdfrwt>
<pdfrwt beam="2">  1       -2 0.76493673E-02 0.59990900E+03</pdfrwt>
<totfact> 0.12648659E+03</totfact>
</mgrwt>
</event>
<event>
 4    1  0.2892809E-005  0.1364940E+04  0.7818608E-02  0.8979595E-01
         -2   -1    0    0    0  501 -0.00000000000E+00  0.00000000000E+00  0.26876719615E+03  0.26876719616E+03  0.25500000000E-02 0. -1.
          2   -1    0    0  501    0  0.00000000000E+00 -0.00000000000E+00 -0.17329695249E+04  0.17329695249E+04  0.25500000000E-02 0.  1.
    5000001    1    1    2    0    0  0.48273391974E+03  0.37037169998E+03 -0.10873974690E+04  0.12607555231E+04  0.19200000000E+03 0.  0.
   -5000001    1    1    2    0    0 -0.48273391974E+03 -0.37037169998E+03 -0.37680485977E+03  0.74098119798E+03  0.19200000000E+03 0.  0.
<mgrwt>
<rscale>  0 0.13649401E+04</rscale>
<asrwt>0</asrwt>
<pdfrwt beam="1">  1        2 0.24756707E+00 0.13649401E+04</pdfrwt>
<pdfrwt beam="2">  1       -2 0.38395315E-01 0.13649401E+04</pdfrwt>
<totfact> 0.68954831E+01</totfact>
</mgrwt>
</event>
<event>
 4    1  0.2892809E-005  0.5868762E+03  0.7818608E-02  0.9933014E-01
         -2   -1    0    0    0  501 -0.00000000000E+00  0.00000000000E+00  0.35649309333E+03  0.35649309334E+03  0.25500000000E-02 0. -1.
          2   -1    0    0  501    0  0.00000000000E+00 -0.00000000000E+00 -0.24153600653E+03  0.24153600654E+03  0.25500000000E-02 0.  1.
    5000001    1    1    2    0    0 -0.13777126596E+03 -0.13510389548E+03 -0.54184629323E+02  0.27754992047E+03  0.19200000000E+03 0.  0.
   -5000001    1    1    2    0    0  0.13777126596E+03  0.13510389548E+03  0.16914171613E+03  0.32047917941E+03  0.19200000000E+03 0.  0.
<mgrwt>
<rscale>  0 0.58687620E+03</rscale>
<asrwt>0</asrwt>
<pdfrwt beam="1">  1        2 0.34505144E-01 0.58687620E+03</pdfrwt>
<pdfrwt beam="2">  1       -2 0.50927584E-01 0.58687620E+03</pdfrwt>
<totfact> 0.55802434E+02</totfact>
</mgrwt>
</event>
<event>
 4    1  0.2892809E-005  0.1010843E+04  0.7818608E-02  0.9296732E-01
          2   -1    0    0  501    0  0.00000000000E+00  0.00000000000E+00  0.36904736138E+04  0.36904736138E+04  0.25500000000E-02 0.  1.
         -2   -1    0    0    0  501 -0.00000000000E+00 -0.00000000000E+00 -0.69218980692E+02  0.69218980739E+02  0.25500000000E-02 0. -1.
    5000001    1    1    2    0    0  0.43369240693E+03  0.16615172804E+03  0.20106212723E+04  0.20724761521E+04  0.19200000000E+03 0.  0.
   -5000001    1    1    2    0    0 -0.43369240693E+03 -0.16615172804E+03  0.16106333608E+04  0.16872164424E+04  0.19200000000E+03 0.  0.
<mgrwt>
<rscale>  0 0.10108429E+04</rscale>
<asrwt>0</asrwt>
<pdfrwt beam="1">  1        2 0.52721056E+00 0.10108429E+04</pdfrwt>
<pdfrwt beam="2">  1       -2 0.98884250E-02 0.10108429E+04</pdfrwt>
<totfact> 0.66323481E+01</totfact>
</mgrwt>
</event>
<event>
 4    1  0.2892809E-005  0.6414058E+03  0.7818608E-02  0.9823041E-01
         -2   -1    0    0    0  501 -0.00000000000E+00  0.00000000000E+00  0.32570317927E+03  0.32570317928E+03  0.25500000000E-02 0. -1.
          2   -1    0    0  501    0  0.00000000000E+00 -0.00000000000E+00 -0.31577939065E+03  0.31577939066E+03  0.25500000000E-02 0.  1.
    5000001    1    1    2    0    0 -0.17259138187E+03  0.15882199317E+03  0.10973196577E+03  0.32236208667E+03  0.19200000000E+03 0.  0.
   -5000001    1    1    2    0    0  0.17259138187E+03 -0.15882199317E+03 -0.99808177156E+02  0.31912048327E+03  0.19200000000E+03 0.  0.
<mgrwt>
<rscale>  0 0.64140580E+03</rscale>
<asrwt>0</asrwt>
<pdfrwt beam="1">  1        2 0.45111342E-01 0.64140580E+03</pdfrwt>
<pdfrwt beam="2">  1       -2 0.46529026E-01 0.64140580E+03</pdfrwt>
<totfact> 0.49702692E+02</totfact>
</mgrwt>
</event>
<event>
 4    1  0.2892809E-005  0.4156991E+03  0.7818608E-02  0.1038475E+00
          2   -1    0    0  501    0  0.00000000000E+00  0.00000000000E+00  0.13662450646E+03  0.13662450648E+03  0.25500000000E-02 0.  1.
         -2   -1    0    0    0  501 -0.00000000000E+00 -0.00000000000E+00 -0.31620555893E+03  0.31620555894E+03  0.25500000000E-02 0. -1.
    5000001    1    1    2    0    0  0.45054895586E+02  0.64542790864E+02 -0.10275816790E+03  0.23155767433E+03  0.19200000000E+03 0.  0.
   -5000001    1    1    2    0    0 -0.45054895586E+02 -0.64542790864E+02 -0.76822884564E+02  0.22127239110E+03  0.19200000000E+03 0.  0.
<mgrwt>
<rscale>  0 0.41569907E+03</rscale>
<asrwt>0</asrwt>
<pdfrwt beam="1">  1        2 0.19517787E-01 0.41569907E+03</pdfrwt>
<pdfrwt beam="2">  1       -2 0.45172222E-01 0.41569907E+03</pdfrwt>
<totfact> 0.13540414E+03</totfact>
</mgrwt>
</event>
<event>
 4    1  0.2892809E-005  0.6406735E+03  0.7818608E-02  0.9824439E-01
         -2   -1    0    0    0  501 -0.00000000000E+00  0.00000000000E+00  0.22594227103E+03  0.22594227104E+03  0.25500000000E-02 0. -1.
          2   -1    0    0  501    0  0.00000000000E+00 -0.00000000000E+00 -0.45416751394E+03  0.45416751395E+03  0.25500000000E-02 0.  1.
    5000001    1    1    2    0    0 -0.22288682770E+01  0.20553125228E+03  0.48632965742E+02  0.28544216380E+03  0.19200000000E+03 0.  0.
   -5000001    1    1    2    0    0  0.22288682770E+01 -0.20553125228E+03 -0.27685820865E+03  0.39466762119E+03  0.19200000000E+03 0.  0.
<mgrwt>
<rscale>  0 0.64067352E+03</rscale>
<asrwt>0</asrwt>
<pdfrwt beam="1">  1        2 0.64881073E-01 0.64067352E+03</pdfrwt>
<pdfrwt beam="2">  1       -2 0.32277467E-01 0.64067352E+03</pdfrwt>
<totfact> 0.67280547E+02</totfact>
</mgrwt>
</event>
<event>
 4    1  0.2892809E-005  0.6084512E+03  0.7818608E-02  0.9888026E-01
          2   -1    0    0  501    0  0.00000000000E+00  0.00000000000E+00  0.17720920363E+04  0.17720920364E+04  0.25500000000E-02 0.  1.
         -2   -1    0    0    0  501 -0.00000000000E+00 -0.00000000000E+00 -0.52228224220E+02  0.52228224283E+02  0.25500000000E-02 0. -1.
    5000001    1    1    2    0    0 -0.16950403241E+03  0.15533509220E+03  0.10193956804E+04  0.10624933699E+04  0.19200000000E+03 0.  0.
   -5000001    1    1    2    0    0  0.16950403241E+03 -0.15533509220E+03  0.70046813175E+03  0.76182689075E+03  0.19200000000E+03 0.  0.
<mgrwt>
<rscale>  0 0.60845122E+03</rscale>
<asrwt>0</asrwt>
<pdfrwt beam="1">  1        2 0.25315590E+00 0.60845122E+03</pdfrwt>
<pdfrwt beam="2">  1       -2 0.74611780E-02 0.60845122E+03</pdfrwt>
<totfact> 0.11815604E+03</totfact>
</mgrwt>
</event>
<event>
 4    1  0.2892809E-005  0.9544634E+03  0.7818608E-02  0.9359949E-01
         -2   -1    0    0    0  501 -0.00000000000E+00  0.00000000000E+00  0.17571886155E+03  0.17571886157E+03  0.25500000000E-02 0. -1.
          2   -1    0    0  501    0  0.00000000000E+00 -0.00000000000E+00 -0.12961050181E+04  0.12961050181E+04  0.25500000000E-02 0.  1.
    5000001    1    1    2    0    0  0.34989523193E+02 -0.42574340347E+03 -0.70156057112E+03  0.84352412371E+03  0.19200000000E+03 0.  0.
   -5000001    1    1    2    0    0 -0.34989523193E+02  0.42574340347E+03 -0.41882558540E+03  0.62829975594E+03  0.19200000000E+03 0.  0.
<mgrwt>
<rscale>  0 0.95446341E+03</rscale>
<asrwt>0</asrwt>
<pdfrwt beam="1">  1        2 0.18515785E+00 0.95446341E+03</pdfrwt>
<pdfrwt beam="2">  1       -2 0.25102695E-01 0.95446341E+03</pdfrwt>
<totfact> 0.26793537E+02</totfact>
</mgrwt>
</event>
<event>
 4    1  0.2892809E-005  0.7557653E+03  0.7818608E-02  0.9626349E-01
         -2   -1    0    0    0  501 -0.00000000000E+00  0.00000000000E+00  0.15684597043E+03  0.15684597045E+03  0.25500000000E-02 0. -1.
          2   -1    0    0  501    0  0.00000000000E+00 -0.00000000000E+00 -0.91041726408E+03  0.91041726408E+03  0.25500000000E-02 0.  1.
    5000001    1    1    2    0    0 -0.97440431250E+01 -0.25689857028E+03 -0.65865076661E+03  0.73265043107E+03  0.19200000000E+03 0.  0.
   -5000001    1    1    2    0    0  0.97440431250E+01  0.25689857028E+03 -0.94920527035E+02  0.33461280346E+03  0.19200000000E+03 0.  0.
<mgrwt>
<rscale>  0 0.75576525E+03</rscale>
<asrwt>0</asrwt>
<pdfrwt beam="1">  1        2 0.13005961E+00 0.75576525E+03</pdfrwt>
<pdfrwt beam="2">  1       -2 0.22406568E-01 0.75576525E+03</pdfrwt>
<totfact> 0.56044442E+02</totfact>
</mgrwt>
</event>
<event>
 4    1  0.2892809E-005  0.5969831E+03  0.7818608E-02  0.9911685E-01
         -2   -1    0    0    0  501 -0.00000000000E+00  0.00000000000E+00  0.36045036922E+02  0.36045037012E+02  0.25500000000E-02 0. -1.
          2   -1    0    0  501    0  0.00000000000E+00 -0.00000000000E+00 -0.24718302870E+04  0.24718302870E+04  0.25500000000E-02 0.  1.
    5000001    1    1    2    0    0 -0.18199256964E+03  0.10423171262E+03 -0.15994057553E+04  0.16244840152E+04  0.19200000000E+03 0.  0.
   -5000001    1    1    2    0    0  0.18199256964E+03 -0.10423171262E+03 -0.83637949469E+03  0.88339130880E+03  0.19200000000E+03 0.  0.
<mgrwt>
<rscale>  0 0.59698313E+03</rscale>
<asrwt>0</asrwt>
<pdfrwt beam="1">  1        2 0.35311850E+00 0.59698313E+03</pdfrwt>
<pdfrwt beam="2">  1       -2 0.51492926E-02 0.59698313E+03</pdfrwt>
<totfact> 0.93817090E+02</totfact>
</mgrwt>
</event>
<event>
 4    1  0.2892809E-005  0.6575076E+03  0.7818608E-02  0.9792793E-01
         -2   -1    0    0    0  501 -0.00000000000E+00  0.00000000000E+00  0.20899566629E+04  0.20899566629E+04  0.25500000000E-02 0. -1.
          2   -1    0    0  501    0  0.00000000000E+00 -0.00000000000E+00 -0.51713542162E+02  0.51713542225E+02  0.25500000000E-02 0.  1.
    5000001    1    1    2    0    0 -0.26788901218E+02 -0.15883109164E+03  0.17121603583E+04  0.17304051703E+04  0.19200000000E+03 0.  0.
   -5000001    1    1    2    0    0  0.26788901218E+02  0.15883109164E+03  0.32608276241E+03  0.41126503479E+03  0.19200000000E+03 0.  0.
<mgrwt>
<rscale>  0 0.65750760E+03</rscale>
<asrwt>0</asrwt>
<pdfrwt beam="1">  1        2 0.73876496E-02 0.65750760E+03</pdfrwt>
<pdfrwt beam="2">  1       -2 0.29856521E+00 0.65750760E+03</pdfrwt>
<totfact> 0.33493609E+01</totfact>
</mgrwt>
</event>
<event>
 4    1  0.2892809E-005  0.6858264E+03  0.7818608E-02  0.9741783E-01
          2   -1    0    0  501    0  0.00000000000E+00  0.00000000000E+00  0.43261138973E+03  0.43261138974E+03  0.25500000000E-02 0.  1.
         -2   -1    0    0    0  501 -0.00000000000E+00 -0.00000000000E+00 -0.27181312810E+03  0.27181312811E+03  0.25500000000E-02 0. -1.
    5000001    1    1    2    0    0 -0.20494803980E+03 -0.14673472745E+03 -0.54269596050E+02  0.32147156688E+03  0.19200000000E+03 0.  0.
   -5000001    1    1    2    0    0  0.20494803980E+03  0.14673472745E+03  0.21506785768E+03  0.38295295098E+03  0.19200000000E+03 0.  0.
<mgrwt>
<rscale>  0 0.68582638E+03</rscale>
<asrwt>0</asrwt>
<pdfrwt beam="1">  1        2 0.61801627E-01 0.68582638E+03</pdfrwt>
<pdfrwt beam="2">  1       -2 0.38830447E-01 0.68582638E+03</pdfrwt>
<totfact> 0.49943350E+02</totfact>
</mgrwt>
</event>
<event>
 4    1  0.2892809E-005  0.8634518E+03  0.7818608E-02  0.9472458E-01
          2   -1    0    0  501    0  0.00000000000E+00  0.00000000000E+00  0.35552976464E+03  0.35552976465E+03  0.25500000000E-02 0.  1.
         -2   -1    0    0    0  501 -0.00000000000E+00 -0.00000000000E+00 -0.52425221872E+03  0.52425221872E+03  0.25500000000E-02 0. -1.
    5000001    1    1    2    0    0 -0.26225441582E+03 -0.26404794078E+03  0.22622533927E+02  0.41937390559E+03  0.19200000000E+03 0.  0.
   -5000001    1    1    2    0    0  0.26225441582E+03  0.26404794078E+03 -0.19134498801E+03  0.46040807778E+03  0.19200000000E+03 0.  0.
<mgrwt>
<rscale>  0 0.86345184E+03</rscale>
<asrwt>0</asrwt>
<pdfrwt beam="1">  1        2 0.50789966E-01 0.86345184E+03</pdfrwt>
<pdfrwt beam="2">  1       -2 0.74893174E-01 0.86345184E+03</pdfrwt>
<totfact> 0.15891755E+02</totfact>
</mgrwt>
</event>
<event>
 4    1  0.2892809E-005  0.6393244E+03  0.7818608E-02  0.9827020E-01
         -2   -1    0    0    0  501 -0.00000000000E+00  0.00000000000E+00  0.26573503469E+03  0.26573503470E+03  0.25500000000E-02 0. -1.
          2   -1    0    0  501    0  0.00000000000E+00 -0.00000000000E+00 -0.38453313970E+03  0.38453313971E+03  0.25500000000E-02 0.  1.
    5000001    1    1    2    0    0  0.25259333683E+03 -0.18201347367E+02 -0.94415747936E+02  0.33153132026E+03  0.19200000000E+03 0.  0.
   -5000001    1    1    2    0    0 -0.25259333683E+03  0.18201347367E+02 -0.24382357075E+02  0.31873685415E+03  0.19200000000E+03 0.  0.
<mgrwt>
<rscale>  0 0.63932442E+03</rscale>
<asrwt>0</asrwt>
<pdfrwt beam="1">  1        2 0.54933305E-01 0.63932442E+03</pdfrwt>
<pdfrwt beam="2">  1       -2 0.37962148E-01 0.63932442E+03</pdfrwt>
<totfact> 0.59564359E+02</totfact>
</mgrwt>
</event>
<event>
 4    1  0.2892809E-005  0.6447978E+03  0.7818608E-02  0.9816590E-01
         -2   -1    0    0    0  501 -0.00000000000E+00  0.00000000000E+00  0.21870662384E+03  0.21870662385E+03  0.25500000000E-02 0. -1.
          2   -1    0    0  501    0  0.00000000000E+00 -0.00000000000E+00 -0.47525339914E+03  0.47525339915E+03  0.25500000000E-02 0.  1.
    5000001    1    1    2    0    0 -0.90714587481E+02 -0.23177056418E+03 -0.51185923313E+02  0.31848191401E+03  0.19200000000E+03 0.  0.
   -5000001    1    1    2    0    0  0.90714587481E+02  0.23177056418E+03 -0.20536085199E+03  0.37547810900E+03  0.19200000000E+03 0.  0.
<mgrwt>
<rscale>  0 0.64479785E+03</rscale>
<asrwt>0</asrwt>
<pdfrwt beam="1">  1        2 0.67893342E-01 0.64479785E+03</pdfrwt>
<pdfrwt beam="2">  1       -2 0.31243804E-01 0.64479785E+03</pdfrwt>
<totfact> 0.67918543E+02</totfact>
</mgrwt>
</event>
<event>
 4    1  0.2892809E-005  0.7069171E+03  0.7818608E-02  0.9705476E-01
         -2   -1    0    0    0  501 -0.00000000000E+00  0.00000000000E+00  0.31774682330E+02  0.31774682432E+02  0.25500000000E-02 0. -1.
          2   -1    0    0  501    0  0.00000000000E+00 -0.00000000000E+00 -0.39318390988E+04  0.39318390988E+04  0.25500000000E-02 0.  1.
    5000001    1    1    2    0    0  0.13876334892E+03  0.25827809421E+03 -0.16927189867E+04  0.17286192204E+04  0.19200000000E+03 0.  0.
   -5000001    1    1    2    0    0 -0.13876334892E+03 -0.25827809421E+03 -0.22073454297E+04  0.22349945609E+04  0.19200000000E+03 0.  0.
<mgrwt>
<rscale>  0 0.70691708E+03</rscale>
<asrwt>0</asrwt>
<pdfrwt beam="1">  1        2 0.56169099E+00 0.70691708E+03</pdfrwt>
<pdfrwt beam="2">  1       -2 0.45392428E-02 0.70691708E+03</pdfrwt>
<totfact> 0.16583034E+02</totfact>
</mgrwt>
</event>
<event>
 4    1  0.2892809E-005  0.5584584E+03  0.7818608E-02  0.9995549E-01
          2   -1    0    0  501    0  0.00000000000E+00  0.00000000000E+00  0.34673573254E+03  0.34673573255E+03  0.25500000000E-02 0.  1.
         -2   -1    0    0    0  501 -0.00000000000E+00 -0.00000000000E+00 -0.22486564468E+03  0.22486564469E+03  0.25500000000E-02 0. -1.
    5000001    1    1    2    0    0  0.17189972289E+03 -0.69774856210E+02  0.14463305063E+03  0.30364578809E+03  0.19200000000E+03 0.  0.
   -5000001    1    1    2    0    0 -0.17189972289E+03  0.69774856210E+02 -0.22762962760E+02  0.26795558916E+03  0.19200000000E+03 0.  0.
<mgrwt>
<rscale>  0 0.55845843E+03</rscale>
<asrwt>0</asrwt>
<pdfrwt beam="1">  1        2 0.49533676E-01 0.55845843E+03</pdfrwt>
<pdfrwt beam="2">  1       -2 0.32123664E-01 0.55845843E+03</pdfrwt>
<totfact> 0.91748707E+02</totfact>
</mgrwt>
</event>
<event>
 4    1  0.2892809E-005  0.5451987E+03  0.7818608E-02  0.1002611E+00
          2   -1    0    0  501    0  0.00000000000E+00  0.00000000000E+00  0.75928137368E+03  0.75928137369E+03  0.25500000000E-02 0.  1.
         -2   -1    0    0    0  501 -0.00000000000E+00 -0.00000000000E+00 -0.97869408397E+02  0.97869408430E+02  0.25500000000E-02 0. -1.
    5000001    1    1    2    0    0 -0.11973501152E+03  0.14832792397E+03  0.38305682420E+03  0.46897140273E+03  0.19200000000E+03 0.  0.
   -5000001    1    1    2    0    0  0.11973501152E+03 -0.14832792397E+03  0.27835514108E+03  0.38817937939E+03  0.19200000000E+03 0.  0.
<mgrwt>
<rscale>  0 0.54519875E+03</rscale>
<asrwt>0</asrwt>
<pdfrwt beam="1">  1        2 0.10846877E+00 0.54519875E+03</pdfrwt>
<pdfrwt beam="2">  1       -2 0.13981344E-01 0.54519875E+03</pdfrwt>
<totfact> 0.16038550E+03</totfact>
</mgrwt>
</event>
<event>
 4    1  0.2892809E-005  0.8118268E+03  0.7818608E-02  0.9543054E-01
         -2   -1    0    0    0  501 -0.00000000000E+00  0.00000000000E+00  0.17252180353E+03  0.17252180355E+03  0.25500000000E-02 0. -1.
          2   -1    0    0  501    0  0.00000000000E+00 -0.00000000000E+00 -0.95504278763E+03  0.95504278764E+03  0.25500000000E-02 0.  1.
    5000001    1    1    2    0    0  0.32566500717E+03 -0.12566893384E+03 -0.49930515321E+03  0.63876444316E+03  0.19200000000E+03 0.  0.
   -5000001    1    1    2    0    0 -0.32566500717E+03  0.12566893384E+03 -0.28321583090E+03  0.48880014802E+03  0.19200000000E+03 0.  0.
<mgrwt>
<rscale>  0 0.81182684E+03</rscale>
<asrwt>0</asrwt>
<pdfrwt beam="1">  1        2 0.13643468E+00 0.81182684E+03</pdfrwt>
<pdfrwt beam="2">  1       -2 0.24645973E-01 0.81182684E+03</pdfrwt>
<totfact> 0.44172786E+02</totfact>
</mgrwt>
</event>
<event>
 4    1  0.2892809E-005  0.4751542E+03  0.7818608E-02  0.1020475E+00
         -2   -1    0    0    0  501 -0.00000000000E+00  0.00000000000E+00  0.10918693337E+03  0.10918693340E+03  0.25500000000E-02 0. -1.
          2   -1    0    0  501    0  0.00000000000E+00 -0.00000000000E+00 -0.51693795424E+03  0.51693795424E+03  0.25500000000E-02 0.  1.
    5000001    1    1    2    0    0  0.22549390169E+01 -0.12714131157E+03 -0.28081189634E+03  0.36316569082E+03  0.19200000000E+03 0.  0.
   -5000001    1    1    2    0    0 -0.22549390169E+01  0.12714131157E+03 -0.12693912453E+03  0.26295919682E+03  0.19200000000E+03 0.  0.
<mgrwt>
<rscale>  0 0.47515416E+03</rscale>
<asrwt>0</asrwt>
<pdfrwt beam="1">  1        2 0.73848278E-01 0.47515416E+03</pdfrwt>
<pdfrwt beam="2">  1       -2 0.15598134E-01 0.47515416E+03</pdfrwt>
<totfact> 0.21055572E+03</totfact>
</mgrwt>
</event>
<event>
 4    1  0.2892809E-005  0.9508077E+03  0.7818608E-02  0.9364207E-01
         -2   -1    0    0    0  501 -0.00000000000E+00  0.00000000000E+00  0.10109532597E+04  0.10109532597E+04  0.25500000000E-02 0. -1.
          2   -1    0    0  501    0  0.00000000000E+00 -0.00000000000E+00 -0.22356008890E+03  0.22356008891E+03  0.25500000000E-02 0.  1.
    5000001    1    1    2    0    0  0.23021494445E+03  0.22709752999E+02  0.87186538567E+03  0.92224069758E+03  0.19200000000E+03 0.  0.
   -5000001    1    1    2    0    0 -0.23021494445E+03 -0.22709752999E+02 -0.84472214840E+02  0.31227265107E+03  0.19200000000E+03 0.  0.
<mgrwt>
<rscale>  0 0.95080766E+03</rscale>
<asrwt>0</asrwt>
<pdfrwt beam="1">  1        2 0.31937155E-01 0.95080766E+03</pdfrwt>
<pdfrwt beam="2">  1       -2 0.14442190E+00 0.95080766E+03</pdfrwt>
<totfact> 0.54954872E+01</totfact>
</mgrwt>
</event>
<event>
 4    1  0.2892809E-005  0.9733971E+03  0.7818608E-02  0.9338213E-01
         -2   -1    0    0    0  501 -0.00000000000E+00  0.00000000000E+00  0.19614674324E+03  0.19614674326E+03  0.25500000000E-02 0. -1.
          2   -1    0    0  501    0  0.00000000000E+00 -0.00000000000E+00 -0.12076441285E+04  0.12076441285E+04  0.25500000000E-02 0.  1.
    5000001    1    1    2    0    0 -0.12753367074E+03 -0.40953767601E+03 -0.32318331793E+03  0.57034849192E+03  0.19200000000E+03 0.  0.
   -5000001    1    1    2    0    0  0.12753367074E+03  0.40953767601E+03 -0.68831406733E+03  0.83344237984E+03  0.19200000000E+03 0.  0.
<mgrwt>
<rscale>  0 0.97339707E+03</rscale>
<asrwt>0</asrwt>
<pdfrwt beam="1">  1        2 0.17252059E+00 0.97339707E+03</pdfrwt>
<pdfrwt beam="2">  1       -2 0.28020964E-01 0.97339707E+03</pdfrwt>
<totfact> 0.24544645E+02</totfact>
</mgrwt>
</event>
<event>
 4    1  0.2892809E-005  0.4947226E+03  0.7818608E-02  0.1015166E+00
         -2   -1    0    0    0  501 -0.00000000000E+00  0.00000000000E+00  0.51179070982E+02  0.51179071045E+02  0.25500000000E-02 0. -1.
          2   -1    0    0  501    0  0.00000000000E+00 -0.00000000000E+00 -0.11955594312E+04  0.11955594312E+04  0.25500000000E-02 0.  1.
    5000001    1    1    2    0    0 -0.14790318887E+03  0.17075396871E+02 -0.68922317481E+03  0.73079375144E+03  0.19200000000E+03 0.  0.
   -5000001    1    1    2    0    0  0.14790318887E+03 -0.17075396871E+02 -0.45515718546E+03  0.51594475085E+03  0.19200000000E+03 0.  0.
<mgrwt>
<rscale>  0 0.49472263E+03</rscale>
<asrwt>0</asrwt>
<pdfrwt beam="1">  1        2 0.17079419E+00 0.49472263E+03</pdfrwt>
<pdfrwt beam="2">  1       -2 0.73112966E-02 0.49472263E+03</pdfrwt>
<totfact> 0.24560289E+03</totfact>
</mgrwt>
</event>
<event>
 4    1  0.2892809E-005  0.1176691E+04  0.7818608E-02  0.9133507E-01
          2   -1    0    0  501    0  0.00000000000E+00  0.00000000000E+00  0.53609485579E+03  0.53609485579E+03  0.25500000000E-02 0. -1.
         -2   -1    0    0    0  501 -0.00000000000E+00 -0.00000000000E+00 -0.64568917675E+03  0.64568917675E+03  0.25500000000E-02 0.  1.
    5000001    1    1    2    0    0  0.34800235697E+03  0.14546659679E+03  0.35565297741E+03  0.55282837443E+03  0.19200000000E+03 0.  0.
   -5000001    1    1    2    0    0 -0.34800235697E+03 -0.14546659679E+03 -0.46524729837E+03  0.62895565812E+03  0.19200000000E+03 0.  0.
<mgrwt>
<rscale>  0 0.11766914E+04</rscale>
<asrwt>0</asrwt>
<pdfrwt beam="1">  1        2 0.76584980E-01 0.11766914E+04</pdfrwt>
<pdfrwt beam="2">  1       -2 0.92241311E-01 0.11766914E+04</pdfrwt>
<totfact> 0.61187156E+01</totfact>
</mgrwt>
</event>
<event>
 4    1  0.2892809E-005  0.1036729E+04  0.7818608E-02  0.9269154E-01
         -2   -1    0    0    0  501 -0.00000000000E+00  0.00000000000E+00  0.15157215583E+03  0.15157215585E+03  0.25500000000E-02 0. -1.
          2   -1    0    0  501    0  0.00000000000E+00 -0.00000000000E+00 -0.17727631098E+04  0.17727631098E+04  0.25500000000E-02 0.  1.
    5000001    1    1    2    0    0 -0.38275316727E+03  0.24102471847E+03 -0.11169724274E+04  0.12202804208E+04  0.19200000000E+03 0.  0.
   -5000001    1    1    2    0    0  0.38275316727E+03 -0.24102471847E+03 -0.50421852663E+03  0.70405484485E+03  0.19200000000E+03 0.  0.
<mgrwt>
<rscale>  0 0.10367286E+04</rscale>
<asrwt>0</asrwt>
<pdfrwt beam="1">  1        2 0.25325186E+00 0.10367286E+04</pdfrwt>
<pdfrwt beam="2">  1       -2 0.21653166E-01 0.10367286E+04</pdfrwt>
<totfact> 0.19442452E+02</totfact>
</mgrwt>
</event>
<event>
 4    1  0.2892809E-005  0.4363110E+03  0.7818608E-02  0.1031885E+00
         -2   -1    0    0    0  501 -0.00000000000E+00  0.00000000000E+00  0.37665419219E+02  0.37665419305E+02  0.25500000000E-02 0. -1.
          2   -1    0    0  501    0  0.00000000000E+00 -0.00000000000E+00 -0.12635413007E+04  0.12635413007E+04  0.25500000000E-02 0.  1.
    5000001    1    1    2    0    0 -0.24566660783E+02 -0.95510000248E+02 -0.51852911044E+03  0.56166014577E+03  0.19200000000E+03 0.  0.
   -5000001    1    1    2    0    0  0.24566660783E+02  0.95510000248E+02 -0.70734677106E+03  0.73954657426E+03  0.19200000000E+03 0.  0.
<mgrwt>
<rscale>  0 0.43631096E+03</rscale>
<asrwt>0</asrwt>
<pdfrwt beam="1">  1        2 0.18050587E+00 0.43631096E+03</pdfrwt>
<pdfrwt beam="2">  1       -2 0.53807750E-02 0.43631096E+03</pdfrwt>
<totfact> 0.36364135E+03</totfact>
</mgrwt>
</event>
<event>
 4    1  0.2892809E-005  0.5583805E+03  0.7818608E-02  0.9995726E-01
         -2   -1    0    0    0  501 -0.00000000000E+00  0.00000000000E+00  0.47249142628E+02  0.47249142697E+02  0.25500000000E-02 0. -1.
          2   -1    0    0  501    0  0.00000000000E+00 -0.00000000000E+00 -0.16497061911E+04  0.16497061911E+04  0.25500000000E-02 0.  1.
    5000001    1    1    2    0    0 -0.88556029626E+02 -0.18196494183E+03 -0.76660547252E+03  0.81578266771E+03  0.19200000000E+03 0.  0.
   -5000001    1    1    2    0    0  0.88556029626E+02  0.18196494183E+03 -0.83585157595E+03  0.88117266609E+03  0.19200000000E+03 0.  0.
<mgrwt>
<rscale>  0 0.55838053E+03</rscale>
<asrwt>0</asrwt>
<pdfrwt beam="1">  1        2 0.23567228E+00 0.55838053E+03</pdfrwt>
<pdfrwt beam="2">  1       -2 0.67498785E-02 0.55838053E+03</pdfrwt>
<totfact> 0.16005831E+03</totfact>
</mgrwt>
</event>
<event>
 4    1  0.2892809E-005  0.1661892E+04  0.7818608E-02  0.8783402E-01
          2   -1    0    0  501    0  0.00000000000E+00  0.00000000000E+00  0.82516719437E+03  0.82516719437E+03  0.25500000000E-02 0.  1.
         -2   -1    0    0    0  501 -0.00000000000E+00 -0.00000000000E+00 -0.83676575676E+03  0.83676575677E+03  0.25500000000E-02 0. -1.
    5000001    1    1    2    0    0 -0.13679969040E+03  0.77458674563E+03 -0.19264298701E+03  0.83227045018E+03  0.19200000000E+03 0.  0.
   -5000001    1    1    2    0    0  0.13679969040E+03 -0.77458674563E+03  0.18104442462E+03  0.82966250095E+03  0.19200000000E+03 0.  0.
<mgrwt>
<rscale>  0 0.16618925E+04</rscale>
<asrwt>0</asrwt>
<pdfrwt beam="1">  1        2 0.11788103E+00 0.16618925E+04</pdfrwt>
<pdfrwt beam="2">  1       -2 0.11953796E+00 0.16618925E+04</pdfrwt>
<totfact> 0.18727932E+01</totfact>
</mgrwt>
</event>
<event>
 4    1  0.2892809E-005  0.5775446E+03  0.7818608E-02  0.9953121E-01
          2   -1    0    0  501    0  0.00000000000E+00  0.00000000000E+00  0.12468407082E+04  0.12468407082E+04  0.25500000000E-02 0.  1.
         -2   -1    0    0    0  501 -0.00000000000E+00 -0.00000000000E+00 -0.66880586874E+02  0.66880586922E+02  0.25500000000E-02 0. -1.
    5000001    1    1    2    0    0  0.21484839156E+03 -0.18796813829E+02  0.59795333191E+03  0.66402209203E+03  0.19200000000E+03 0.  0.
   -5000001    1    1    2    0    0 -0.21484839156E+03  0.18796813829E+02  0.58200678939E+03  0.64969920306E+03  0.19200000000E+03 0.  0.
<mgrwt>
<rscale>  0 0.57754459E+03</rscale>
<asrwt>0</asrwt>
<pdfrwt beam="1">  1        2 0.17812011E+00 0.57754459E+03</pdfrwt>
<pdfrwt beam="2">  1       -2 0.95543693E-02 0.57754459E+03</pdfrwt>
<totfact> 0.14992182E+03</totfact>
</mgrwt>
</event>
<event>
 4    1  0.2892809E-005  0.1231414E+04  0.7818608E-02  0.9085796E-01
         -2   -1    0    0    0  501 -0.00000000000E+00  0.00000000000E+00  0.17054847842E+03  0.17054847844E+03  0.25500000000E-02 0. -1.
          2   -1    0    0  501    0  0.00000000000E+00 -0.00000000000E+00 -0.22228007598E+04  0.22228007598E+04  0.25500000000E-02 0.  1.
    5000001    1    1    2    0    0 -0.27088530932E+03 -0.40499840276E+03 -0.39684886328E+03  0.65708110408E+03  0.19200000000E+03 0.  0.
   -5000001    1    1    2    0    0  0.27088530932E+03  0.40499840276E+03 -0.16554034181E+04  0.17362681341E+04  0.19200000000E+03 0.  0.
<mgrwt>
<rscale>  0 0.12314143E+04</rscale>
<asrwt>0</asrwt>
<pdfrwt beam="1">  1        2 0.31754295E+00 0.12314143E+04</pdfrwt>
<pdfrwt beam="2">  1       -2 0.24364070E-01 0.12314143E+04</pdfrwt>
<totfact> 0.91277176E+01</totfact>
</mgrwt>
</event>
<event>
 4    1  0.2892809E-005  0.7474357E+03  0.7818608E-02  0.9639382E-01
         -2   -1    0    0    0  501 -0.00000000000E+00  0.00000000000E+00  0.32997299145E+03  0.32997299146E+03  0.25500000000E-02 0. -1.
          2   -1    0    0  501    0  0.00000000000E+00 -0.00000000000E+00 -0.42326195769E+03  0.42326195770E+03  0.25500000000E-02 0.  1.
    5000001    1    1    2    0    0 -0.29275062674E+03 -0.31673036262E+02  0.81205549312E+02  0.36078310925E+03  0.19200000000E+03 0.  0.
   -5000001    1    1    2    0    0  0.29275062674E+03  0.31673036262E+02 -0.17449451555E+03  0.39245183990E+03  0.19200000000E+03 0.  0.
<mgrwt>
<rscale>  0 0.74743565E+03</rscale>
<asrwt>0</asrwt>
<pdfrwt beam="1">  1        2 0.60465994E-01 0.74743565E+03</pdfrwt>
<pdfrwt beam="2">  1       -2 0.47138999E-01 0.74743565E+03</pdfrwt>
<totfact> 0.34863240E+02</totfact>
</mgrwt>
</event>
<event>
 4    1  0.2892809E-005  0.9421247E+03  0.7818608E-02  0.9374403E-01
         -2   -1    0    0    0  501 -0.00000000000E+00  0.00000000000E+00  0.14330642223E+03  0.14330642225E+03  0.25500000000E-02 0. -1.
          2   -1    0    0  501    0  0.00000000000E+00 -0.00000000000E+00 -0.15484282631E+04  0.15484282631E+04  0.25500000000E-02 0.  1.
    5000001    1    1    2    0    0 -0.40133409803E+03 -0.95193768338E+02 -0.92178436740E+03  0.10279500629E+04  0.19200000000E+03 0.  0.
   -5000001    1    1    2    0    0  0.40133409803E+03  0.95193768338E+02 -0.48333747347E+03  0.66378462247E+03  0.19200000000E+03 0.  0.
<mgrwt>
<rscale>  0 0.94212465E+03</rscale>
<asrwt>0</asrwt>
<pdfrwt beam="1">  1        2 0.22120403E+00 0.94212465E+03</pdfrwt>
<pdfrwt beam="2">  1       -2 0.20472347E-01 0.94212465E+03</pdfrwt>
<totfact> 0.28232922E+02</totfact>
</mgrwt>
</event>
<event>
 4    1  0.2892809E-005  0.9111727E+03  0.7818608E-02  0.9411722E-01
         -2   -1    0    0    0  501 -0.00000000000E+00  0.00000000000E+00  0.84972329157E+02  0.84972329195E+02  0.25500000000E-02 0. -1.
          2   -1    0    0  501    0  0.00000000000E+00 -0.00000000000E+00 -0.24426649712E+04  0.24426649712E+04  0.25500000000E-02 0.  1.
    5000001    1    1    2    0    0 -0.18880788256E+03 -0.32310854143E+03 -0.69321044216E+03  0.81083430070E+03  0.19200000000E+03 0.  0.
   -5000001    1    1    2    0    0  0.18880788256E+03  0.32310854143E+03 -0.16644821999E+04  0.17168029997E+04  0.19200000000E+03 0.  0.
<mgrwt>
<rscale>  0 0.91117272E+03</rscale>
<asrwt>0</asrwt>
<pdfrwt beam="1">  1        2 0.34895210E+00 0.91117272E+03</pdfrwt>
<pdfrwt beam="2">  1       -2 0.12138906E-01 0.91117272E+03</pdfrwt>
<totfact> 0.24002663E+02</totfact>
</mgrwt>
</event>
<event>
 4    1  0.2892809E-005  0.5092891E+03  0.7818608E-02  0.1011382E+00
          2   -1    0    0  501    0  0.00000000000E+00  0.00000000000E+00  0.24552796497E+04  0.24552796497E+04  0.25500000000E-02 0.  1.
         -2   -1    0    0    0  501 -0.00000000000E+00 -0.00000000000E+00 -0.26409959976E+02  0.26409960099E+02  0.25500000000E-02 0. -1.
    5000001    1    1    2    0    0  0.71501054969E+02  0.14925554979E+03  0.10960519033E+04  0.11249815086E+04  0.19200000000E+03 0.  0.
   -5000001    1    1    2    0    0 -0.71501054969E+02 -0.14925554979E+03  0.13328177865E+04  0.13567081012E+04  0.19200000000E+03 0.  0.
<mgrwt>
<rscale>  0 0.50928906E+03</rscale>
<asrwt>0</asrwt>
<pdfrwt beam="1">  1        2 0.35075428E+00 0.50928906E+03</pdfrwt>
<pdfrwt beam="2">  1       -2 0.37728509E-02 0.50928906E+03</pdfrwt>
<totfact> 0.15536567E+03</totfact>
</mgrwt>
</event>
<event>
 4    1  0.2892809E-005  0.1161151E+04  0.7818608E-02  0.9147558E-01
          2   -1    0    0  501    0  0.00000000000E+00  0.00000000000E+00  0.46939578770E+03  0.46939578770E+03  0.25500000000E-02 0.  1.
         -2   -1    0    0    0  501 -0.00000000000E+00 -0.00000000000E+00 -0.71808843009E+03  0.71808843010E+03  0.25500000000E-02 0. -1.
    5000001    1    1    2    0    0  0.50408848621E+03  0.12971985660E+00 -0.34392113678E+03  0.63972725992E+03  0.19200000000E+03 0.  0.
   -5000001    1    1    2    0    0 -0.50408848621E+03 -0.12971985660E+00  0.95228494392E+02  0.54775695788E+03  0.19200000000E+03 0.  0.
<mgrwt>
<rscale>  0 0.11611506E+04</rscale>
<asrwt>0</asrwt>
<pdfrwt beam="1">  1        2 0.67056541E-01 0.11611506E+04</pdfrwt>
<pdfrwt beam="2">  1       -2 0.10258406E+00 0.11611506E+04</pdfrwt>
<totfact> 0.55552341E+01</totfact>
</mgrwt>
</event>
<event>
 4    1  0.2892809E-005  0.4284325E+03  0.7818608E-02  0.1034356E+00
         -2   -1    0    0    0  501 -0.00000000000E+00  0.00000000000E+00  0.32038897130E+02  0.32038897232E+02  0.25500000000E-02 0. -1.
          2   -1    0    0  501    0  0.00000000000E+00 -0.00000000000E+00 -0.14322779697E+04  0.14322779697E+04  0.25500000000E-02 0.  1.
    5000001    1    1    2    0    0  0.85713095786E+02  0.28305740993E+02 -0.80131649212E+03  0.82892705970E+03  0.19200000000E+03 0.  0.
   -5000001    1    1    2    0    0 -0.85713095786E+02 -0.28305740993E+02 -0.59892258045E+03  0.63538980723E+03  0.19200000000E+03 0.  0.
<mgrwt>
<rscale>  0 0.42843252E+03</rscale>
<asrwt>0</asrwt>
<pdfrwt beam="1">  1        2 0.20461110E+00 0.42843252E+03</pdfrwt>
<pdfrwt beam="2">  1       -2 0.45769862E-02 0.42843252E+03</pdfrwt>
<totfact> 0.37946909E+03</totfact>
</mgrwt>
</event>
<event>
 4    1  0.2892809E-005  0.4906896E+03  0.7818608E-02  0.1016238E+00
         -2   -1    0    0    0  501 -0.00000000000E+00  0.00000000000E+00  0.49544316648E+02  0.49544316714E+02  0.25500000000E-02 0. -1.
          2   -1    0    0  501    0  0.00000000000E+00 -0.00000000000E+00 -0.12149540247E+04  0.12149540247E+04  0.25500000000E-02 0.  1.
    5000001    1    1    2    0    0  0.10156846786E+03 -0.11407177070E+03 -0.58590739305E+03  0.63520075233E+03  0.19200000000E+03 0.  0.
   -5000001    1    1    2    0    0 -0.10156846786E+03  0.11407177070E+03 -0.57950231499E+03  0.62929758907E+03  0.19200000000E+03 0.  0.
<mgrwt>
<rscale>  0 0.49068958E+03</rscale>
<asrwt>0</asrwt>
<pdfrwt beam="1">  1        2 0.17356484E+00 0.49068958E+03</pdfrwt>
<pdfrwt beam="2">  1       -2 0.70777603E-02 0.49068958E+03</pdfrwt>
<totfact> 0.25216812E+03</totfact>
</mgrwt>
</event>
<event>
 4    1  0.2892809E-005  0.8551922E+03  0.7818608E-02  0.9483395E-01
          2   -1    0    0  501    0  0.00000000000E+00  0.00000000000E+00  0.42220945756E+03  0.42220945757E+03  0.25500000000E-02 0.  1.
         -2   -1    0    0    0  501 -0.00000000000E+00 -0.00000000000E+00 -0.43305147996E+03  0.43305147997E+03  0.25500000000E-02 0. -1.
    5000001    1    1    2    0    0  0.32641328063E+03  0.16499412004E+02  0.19247508191E+03  0.42512176788E+03  0.19200000000E+03 0.  0.
   -5000001    1    1    2    0    0 -0.32641328063E+03 -0.16499412004E+02 -0.20331710431E+03  0.43013916966E+03  0.19200000000E+03 0.  0.
<mgrwt>
<rscale>  0 0.85519221E+03</rscale>
<asrwt>0</asrwt>
<pdfrwt beam="1">  1        2 0.60315637E-01 0.85519221E+03</pdfrwt>
<pdfrwt beam="2">  1       -2 0.61864497E-01 0.85519221E+03</pdfrwt>
<totfact> 0.19857151E+02</totfact>
</mgrwt>
</event>
<event>
 4    1  0.2892809E-005  0.5341225E+03  0.7818608E-02  0.1005237E+00
          2   -1    0    0  501    0  0.00000000000E+00  0.00000000000E+00  0.22859583612E+03  0.22859583613E+03  0.25500000000E-02 0.  1.
         -2   -1    0    0    0  501 -0.00000000000E+00 -0.00000000000E+00 -0.31199917411E+03  0.31199917412E+03  0.25500000000E-02 0. -1.
    5000001    1    1    2    0    0  0.50152390215E+02  0.15051460015E+03 -0.13924278070E+03  0.28534620916E+03  0.19200000000E+03 0.  0.
   -5000001    1    1    2    0    0 -0.50152390215E+02 -0.15051460015E+03  0.55839442709E+02  0.25524880110E+03  0.19200000000E+03 0.  0.
<mgrwt>
<rscale>  0 0.53412250E+03</rscale>
<asrwt>0</asrwt>
<pdfrwt beam="1">  1        2 0.32656548E-01 0.53412250E+03</pdfrwt>
<pdfrwt beam="2">  1       -2 0.44571310E-01 0.53412250E+03</pdfrwt>
<totfact> 0.77545599E+02</totfact>
</mgrwt>
</event>
<event>
 4    1  0.2892809E-005  0.5762459E+03  0.7818608E-02  0.9955952E-01
          2   -1    0    0  501    0  0.00000000000E+00  0.00000000000E+00  0.23847097133E+04  0.23847097133E+04  0.25500000000E-02 0.  1.
         -2   -1    0    0    0  501 -0.00000000000E+00 -0.00000000000E+00 -0.34811300211E+02  0.34811300305E+02  0.25500000000E-02 0. -1.
    5000001    1    1    2    0    0  0.16829262511E+03 -0.58022971554E+02  0.67001791056E+03  0.71935879321E+03  0.19200000000E+03 0.  0.
   -5000001    1    1    2    0    0 -0.16829262511E+03  0.58022971554E+02  0.16798805025E+04  0.17001622204E+04  0.19200000000E+03 0.  0.
<mgrwt>
<rscale>  0 0.57624594E+03</rscale>
<asrwt>0</asrwt>
<pdfrwt beam="1">  1        2 0.34067287E+00 0.57624594E+03</pdfrwt>
<pdfrwt beam="2">  1       -2 0.49730422E-02 0.57624594E+03</pdfrwt>
<totfact> 0.10985355E+03</totfact>
</mgrwt>
</event>
<event>
 4    1  0.2892809E-005  0.1097474E+04  0.7818608E-02  0.9207657E-01
         -2   -1    0    0    0  501 -0.00000000000E+00  0.00000000000E+00  0.46014626417E+03  0.46014626417E+03  0.25500000000E-02 0. -1.
          2   -1    0    0  501    0  0.00000000000E+00 -0.00000000000E+00 -0.65438435143E+03  0.65438435143E+03  0.25500000000E-02 0.  1.
    5000001    1    1    2    0    0  0.27910123149E+03  0.38438579455E+03 -0.29663758351E+03  0.59203698569E+03  0.19200000000E+03 0.  0.
   -5000001    1    1    2    0    0 -0.27910123149E+03 -0.38438579455E+03  0.10239949625E+03  0.52249362992E+03  0.19200000000E+03 0.  0.
<mgrwt>
<rscale>  0 0.10974744E+04</rscale>
<asrwt>0</asrwt>
<pdfrwt beam="1">  1        2 0.93483479E-01 0.10974744E+04</pdfrwt>
<pdfrwt beam="2">  1       -2 0.65735181E-01 0.10974744E+04</pdfrwt>
<totfact> 0.10353775E+02</totfact>
</mgrwt>
</event>
<event>
 4    1  0.2892809E-005  0.1026352E+04  0.7818608E-02  0.9280105E-01
          2   -1    0    0  501    0  0.00000000000E+00  0.00000000000E+00  0.19565404757E+04  0.19565404757E+04  0.25500000000E-02 0.  1.
         -2   -1    0    0    0  501 -0.00000000000E+00 -0.00000000000E+00 -0.13459972863E+03  0.13459972865E+03  0.25500000000E-02 0. -1.
    5000001    1    1    2    0    0 -0.45140893507E+03 -0.15066782599E+03  0.91886049803E+03  0.10524445046E+04  0.19200000000E+03 0.  0.
   -5000001    1    1    2    0    0  0.45140893507E+03  0.15066782599E+03  0.90308024905E+03  0.10386956997E+04  0.19200000000E+03 0.  0.
<mgrwt>
<rscale>  0 0.10263524E+04</rscale>
<asrwt>0</asrwt>
<pdfrwt beam="1">  1        2 0.27950576E+00 0.10263524E+04</pdfrwt>
<pdfrwt beam="2">  1       -2 0.19228534E-01 0.10263524E+04</pdfrwt>
<totfact> 0.19307504E+02</totfact>
</mgrwt>
</event>
<event>
 4    1  0.2892809E-005  0.4368647E+03  0.7818608E-02  0.1031713E+00
          2   -1    0    0  501    0  0.00000000000E+00  0.00000000000E+00  0.68114927746E+03  0.68114927746E+03  0.25500000000E-02 0.  1.
         -2   -1    0    0    0  501 -0.00000000000E+00 -0.00000000000E+00 -0.70047335705E+02  0.70047335752E+02  0.25500000000E-02 0. -1.
    5000001    1    1    2    0    0 -0.77415764061E+02 -0.69622309471E+02  0.31048260700E+03  0.37961021555E+03  0.19200000000E+03 0.  0.
   -5000001    1    1    2    0    0  0.77415764061E+02  0.69622309471E+02  0.30061933475E+03  0.37158639766E+03  0.19200000000E+03 0.  0.
<mgrwt>
<rscale>  0 0.43686470E+03</rscale>
<asrwt>0</asrwt>
<pdfrwt beam="1">  1        2 0.97307038E-01 0.43686470E+03</pdfrwt>
<pdfrwt beam="2">  1       -2 0.10006762E-01 0.43686470E+03</pdfrwt>
<totfact> 0.31646151E+03</totfact>
</mgrwt>
</event>
<event>
 4    1  0.2892809E-005  0.4701187E+03  0.7818608E-02  0.1021887E+00
          2   -1    0    0  501    0  0.00000000000E+00  0.00000000000E+00  0.22045906930E+04  0.22045906930E+04  0.25500000000E-02 0.  1.
         -2   -1    0    0    0  501 -0.00000000000E+00 -0.00000000000E+00 -0.25062656648E+02  0.25062656778E+02  0.25500000000E-02 0. -1.
    5000001    1    1    2    0    0  0.10574490554E+03  0.38586538427E+02  0.14483981765E+04  0.14653983020E+04  0.19200000000E+03 0.  0.
   -5000001    1    1    2    0    0 -0.10574490554E+03 -0.38586538427E+02  0.73112985985E+03  0.76425504772E+03  0.19200000000E+03 0.  0.
<mgrwt>
<rscale>  0 0.47011871E+03</rscale>
<asrwt>0</asrwt>
<pdfrwt beam="1">  1        2 0.31494157E+00 0.47011871E+03</pdfrwt>
<pdfrwt beam="2">  1       -2 0.35803790E-02 0.47011871E+03</pdfrwt>
<totfact> 0.22553462E+03</totfact>
</mgrwt>
</event>
<event>
 4    1  0.2892809E-005  0.8881587E+03  0.7818608E-02  0.9440506E-01
          2   -1    0    0  501    0  0.00000000000E+00  0.00000000000E+00  0.85768873892E+03  0.85768873893E+03  0.25500000000E-02 0.  1.
         -2   -1    0    0    0  501 -0.00000000000E+00 -0.00000000000E+00 -0.22992777714E+03  0.22992777715E+03  0.25500000000E-02 0. -1.
    5000001    1    1    2    0    0 -0.38322794708E+03 -0.58515441016E+02  0.43667269774E+03  0.61468265081E+03  0.19200000000E+03 0.  0.
   -5000001    1    1    2    0    0  0.38322794708E+03  0.58515441016E+02  0.19108826405E+03  0.47293386527E+03  0.19200000000E+03 0.  0.
<mgrwt>
<rscale>  0 0.88815869E+03</rscale>
<asrwt>0</asrwt>
<pdfrwt beam="1">  1        2 0.12252696E+00 0.88815869E+03</pdfrwt>
<pdfrwt beam="2">  1       -2 0.32846825E-01 0.88815869E+03</pdfrwt>
<totfact> 0.30008848E+02</totfact>
</mgrwt>
</event>
<event>
 4    1  0.2892809E-005  0.6394459E+03  0.7818608E-02  0.9826787E-01
         -2   -1    0    0    0  501 -0.00000000000E+00  0.00000000000E+00  0.42298664730E+03  0.42298664731E+03  0.25500000000E-02 0. -1.
          2   -1    0    0  501    0  0.00000000000E+00 -0.00000000000E+00 -0.24166898471E+03  0.24166898473E+03  0.25500000000E-02 0.  1.
    5000001    1    1    2    0    0  0.22690523152E+02  0.25402302571E+03  0.10914177796E+03  0.33736995291E+03  0.19200000000E+03 0.  0.
   -5000001    1    1    2    0    0 -0.22690523152E+02 -0.25402302571E+03  0.72175884626E+02  0.32728567912E+03  0.19200000000E+03 0.  0.
<mgrwt>
<rscale>  0 0.63944587E+03</rscale>
<asrwt>0</asrwt>
<pdfrwt beam="1">  1        2 0.34524141E-01 0.63944587E+03</pdfrwt>
<pdfrwt beam="2">  1       -2 0.60426664E-01 0.63944587E+03</pdfrwt>
<totfact> 0.39102496E+02</totfact>
</mgrwt>
</event>
<event>
 4    1  0.2892809E-005  0.5144605E+03  0.7818608E-02  0.1010072E+00
         -2   -1    0    0    0  501 -0.00000000000E+00  0.00000000000E+00  0.10186181641E+03  0.10186181644E+03  0.25500000000E-02 0. -1.
          2   -1    0    0  501    0  0.00000000000E+00 -0.00000000000E+00 -0.64958009615E+03  0.64958009616E+03  0.25500000000E-02 0.  1.
    5000001    1    1    2    0    0  0.83758817939E+02  0.10855818861E+02 -0.49134268314E+03  0.53424247366E+03  0.19200000000E+03 0.  0.
   -5000001    1    1    2    0    0 -0.83758817939E+02 -0.10855818861E+02 -0.56375596602E+02  0.21719943894E+03  0.19200000000E+03 0.  0.
<mgrwt>
<rscale>  0 0.51446053E+03</rscale>
<asrwt>0</asrwt>
<pdfrwt beam="1">  1        2 0.92797154E-01 0.51446053E+03</pdfrwt>
<pdfrwt beam="2">  1       -2 0.14551688E-01 0.51446053E+03</pdfrwt>
<totfact> 0.18150495E+03</totfact>
</mgrwt>
</event>
<event>
 4    1  0.2892809E-005  0.4604523E+03  0.7818608E-02  0.1024650E+00
          2   -1    0    0  501    0  0.00000000000E+00  0.00000000000E+00  0.35060277697E+03  0.35060277698E+03  0.25500000000E-02 0.  1.
         -2   -1    0    0    0  501 -0.00000000000E+00 -0.00000000000E+00 -0.15117986297E+03  0.15117986299E+03  0.25500000000E-02 0. -1.
    5000001    1    1    2    0    0  0.80132669253E+02 -0.37826291906E+02  0.50132332581E+00  0.21146234740E+03  0.19200000000E+03 0.  0.
   -5000001    1    1    2    0    0 -0.80132669253E+02  0.37826291906E+02  0.19892159068E+03  0.29032029257E+03  0.19200000000E+03 0.  0.
<mgrwt>
<rscale>  0 0.46045230E+03</rscale>
<asrwt>0</asrwt>
<pdfrwt beam="1">  1        2 0.50086110E-01 0.46045230E+03</pdfrwt>
<pdfrwt beam="2">  1       -2 0.21597124E-01 0.46045230E+03</pdfrwt>
<totfact> 0.18547904E+03</totfact>
</mgrwt>
</event>
<event>
 4    1  0.2892809E-005  0.6894424E+03  0.7818608E-02  0.9735459E-01
          2   -1    0    0  501    0  0.00000000000E+00  0.00000000000E+00  0.10817824573E+04  0.10817824573E+04  0.25500000000E-02 0.  1.
         -2   -1    0    0    0  501 -0.00000000000E+00 -0.00000000000E+00 -0.10984899548E+03  0.10984899551E+03  0.25500000000E-02 0. -1.
    5000001    1    1    2    0    0 -0.75568408553E+02 -0.26953899178E+03  0.38216398967E+03  0.51115082653E+03  0.19200000000E+03 0.  0.
   -5000001    1    1    2    0    0  0.75568408553E+02  0.26953899178E+03  0.58976947210E+03  0.68048062624E+03  0.19200000000E+03 0.  0.
<mgrwt>
<rscale>  0 0.68944243E+03</rscale>
<asrwt>0</asrwt>
<pdfrwt beam="1">  1        2 0.15454035E+00 0.68944243E+03</pdfrwt>
<pdfrwt beam="2">  1       -2 0.15692714E-01 0.68944243E+03</pdfrwt>
<totfact> 0.81707992E+02</totfact>
</mgrwt>
</event>
<event>
 4    1  0.2892809E-005  0.4371664E+03  0.7818608E-02  0.1031620E+00
         -2   -1    0    0    0  501 -0.00000000000E+00  0.00000000000E+00  0.22683635717E+02  0.22683635860E+02  0.25500000000E-02 0. -1.
          2   -1    0    0  501    0  0.00000000000E+00 -0.00000000000E+00 -0.21063029412E+04  0.21063029412E+04  0.25500000000E-02 0.  1.
    5000001    1    1    2    0    0  0.51717461252E+02  0.90348552207E+02 -0.99906139579E+03  0.10226559682E+04  0.19200000000E+03 0.  0.
   -5000001    1    1    2    0    0 -0.51717461252E+02 -0.90348552207E+02 -0.10845579097E+04  0.11063306089E+04  0.19200000000E+03 0.  0.
<mgrwt>
<rscale>  0 0.43716637E+03</rscale>
<asrwt>0</asrwt>
<pdfrwt beam="1">  1        2 0.30090030E+00 0.43716637E+03</pdfrwt>
<pdfrwt beam="2">  1       -2 0.32405207E-02 0.43716637E+03</pdfrwt>
<totfact> 0.29406701E+03</totfact>
</mgrwt>
</event>
<event>
 4    1  0.2892809E-005  0.6003312E+03  0.7818608E-02  0.9904719E-01
          2   -1    0    0  501    0  0.00000000000E+00  0.00000000000E+00  0.51555639777E+03  0.51555639778E+03  0.25500000000E-02 0.  1.
         -2   -1    0    0    0  501 -0.00000000000E+00 -0.00000000000E+00 -0.17476147317E+03  0.17476147319E+03  0.25500000000E-02 0. -1.
    5000001    1    1    2    0    0 -0.21618482797E+03 -0.62837771090E+02  0.11232002091E+03  0.31648736534E+03  0.19200000000E+03 0.  0.
   -5000001    1    1    2    0    0  0.21618482797E+03  0.62837771090E+02  0.22847490369E+03  0.37383050563E+03  0.19200000000E+03 0.  0.
<mgrwt>
<rscale>  0 0.60033123E+03</rscale>
<asrwt>0</asrwt>
<pdfrwt beam="1">  1        2 0.73650915E-01 0.60033123E+03</pdfrwt>
<pdfrwt beam="2">  1       -2 0.24965924E-01 0.60033123E+03</pdfrwt>
<totfact> 0.93356110E+02</totfact>
</mgrwt>
</event>
<event>
 4    1  0.2892809E-005  0.5337147E+03  0.7818608E-02  0.1005335E+00
          2   -1    0    0  501    0  0.00000000000E+00  0.00000000000E+00  0.29760785961E+03  0.29760785962E+03  0.25500000000E-02 0.  1.
         -2   -1    0    0    0  501 -0.00000000000E+00 -0.00000000000E+00 -0.23928417290E+03  0.23928417291E+03  0.25500000000E-02 0. -1.
    5000001    1    1    2    0    0  0.85282322367E+02  0.15846189771E+03 -0.15437214280E+02  0.26360112883E+03  0.19200000000E+03 0.  0.
   -5000001    1    1    2    0    0 -0.85282322367E+02 -0.15846189771E+03  0.73760900988E+02  0.27329090371E+03  0.19200000000E+03 0.  0.
<mgrwt>
<rscale>  0 0.53371472E+03</rscale>
<asrwt>0</asrwt>
<pdfrwt beam="1">  1        2 0.42515409E-01 0.53371472E+03</pdfrwt>
<pdfrwt beam="2">  1       -2 0.34183453E-01 0.53371472E+03</pdfrwt>
<totfact> 0.96628562E+02</totfact>
</mgrwt>
</event>
<event>
 4    1  0.2892809E-005  0.6670411E+03  0.7818608E-02  0.9775318E-01
          2   -1    0    0  501    0  0.00000000000E+00  0.00000000000E+00  0.27352471775E+03  0.27352471776E+03  0.25500000000E-02 0.  1.
         -2   -1    0    0    0  501 -0.00000000000E+00 -0.00000000000E+00 -0.40667606687E+03  0.40667606688E+03  0.25500000000E-02 0. -1.
    5000001    1    1    2    0    0 -0.17752684836E+03 -0.17106642539E+03 -0.18546242331E+03  0.36337283091E+03  0.19200000000E+03 0.  0.
   -5000001    1    1    2    0    0  0.17752684836E+03  0.17106642539E+03  0.52311074184E+02  0.31682795373E+03  0.19200000000E+03 0.  0.
<mgrwt>
<rscale>  0 0.66704110E+03</rscale>
<asrwt>0</asrwt>
<pdfrwt beam="1">  1        2 0.39074960E-01 0.66704110E+03</pdfrwt>
<pdfrwt beam="2">  1       -2 0.58096581E-01 0.66704110E+03</pdfrwt>
<totfact> 0.36978373E+02</totfact>
</mgrwt>
</event>
<event>
 4    1  0.2892809E-005  0.1684921E+04  0.7818608E-02  0.8770012E-01
         -2   -1    0    0    0  501 -0.00000000000E+00  0.00000000000E+00  0.19290293182E+03  0.19290293184E+03  0.25500000000E-02 0. -1.
          2   -1    0    0  501    0  0.00000000000E+00 -0.00000000000E+00 -0.36792571562E+04  0.36792571562E+04  0.25500000000E-02 0.  1.
    5000001    1    1    2    0    0  0.62287971395E+03 -0.41742107140E+03 -0.97870558759E+03  0.12477772702E+04  0.19200000000E+03 0.  0.
   -5000001    1    1    2    0    0 -0.62287971395E+03  0.41742107140E+03 -0.25076486368E+04  0.26243828178E+04  0.19200000000E+03 0.  0.
<mgrwt>
<rscale>  0 0.16849208E+04</rscale>
<asrwt>0</asrwt>
<pdfrwt beam="1">  1        2 0.52560812E+00 0.16849208E+04</pdfrwt>
<pdfrwt beam="2">  1       -2 0.27557564E-01 0.16849208E+04</pdfrwt>
<totfact> 0.10740522E+01</totfact>
</mgrwt>
</event>
<event>
 4    1  0.2892809E-005  0.5336245E+03  0.7818608E-02  0.1005357E+00
          2   -1    0    0  501    0  0.00000000000E+00  0.00000000000E+00  0.26134087982E+03  0.26134087983E+03  0.25500000000E-02 0.  1.
         -2   -1    0    0    0  501 -0.00000000000E+00 -0.00000000000E+00 -0.27239811828E+03  0.27239811829E+03  0.25500000000E-02 0. -1.
    5000001    1    1    2    0    0 -0.27265333161E+02 -0.91896738863E+02 -0.16410714062E+03  0.27015470125E+03  0.19200000000E+03 0.  0.
   -5000001    1    1    2    0    0  0.27265333161E+02  0.91896738863E+02  0.15304990216E+03  0.26358429687E+03  0.19200000000E+03 0.  0.
<mgrwt>
<rscale>  0 0.53362445E+03</rscale>
<asrwt>0</asrwt>
<pdfrwt beam="1">  1        2 0.37334411E-01 0.53362445E+03</pdfrwt>
<pdfrwt beam="2">  1       -2 0.38914017E-01 0.53362445E+03</pdfrwt>
<totfact> 0.87116760E+02</totfact>
</mgrwt>
</event>
<event>
 4    1  0.2892809E-005  0.8667659E+03  0.7818608E-02  0.9468107E-01
          2   -1    0    0  501    0  0.00000000000E+00  0.00000000000E+00  0.15230798414E+04  0.15230798414E+04  0.25500000000E-02 0.  1.
         -2   -1    0    0    0  501 -0.00000000000E+00 -0.00000000000E+00 -0.12331645175E+03  0.12331645178E+03  0.25500000000E-02 0. -1.
    5000001    1    1    2    0    0 -0.15153717965E+03 -0.15486897203E+03  0.13124686752E+04  0.13440185783E+04  0.19200000000E+03 0.  0.
   -5000001    1    1    2    0    0  0.15153717965E+03  0.15486897203E+03  0.87294714454E+02  0.30237771493E+03  0.19200000000E+03 0.  0.
<mgrwt>
<rscale>  0 0.86676595E+03</rscale>
<asrwt>0</asrwt>
<pdfrwt beam="1">  1        2 0.21758282E+00 0.86676595E+03</pdfrwt>
<pdfrwt beam="2">  1       -2 0.17616637E-01 0.86676595E+03</pdfrwt>
<totfact> 0.37982030E+02</totfact>
</mgrwt>
</event>
<event>
 4    1  0.2892809E-005  0.4365681E+03  0.7818608E-02  0.1031805E+00
          2   -1    0    0  501    0  0.00000000000E+00  0.00000000000E+00  0.43991885107E+03  0.43991885108E+03  0.25500000000E-02 0.  1.
         -2   -1    0    0    0  501 -0.00000000000E+00 -0.00000000000E+00 -0.10831073077E+03  0.10831073080E+03  0.25500000000E-02 0. -1.
    5000001    1    1    2    0    0  0.33302748221E+02  0.19191454443E+02  0.28694884838E+03  0.34739174796E+03  0.19200000000E+03 0.  0.
   -5000001    1    1    2    0    0 -0.33302748221E+02 -0.19191454443E+02  0.44659271924E+02  0.20083783391E+03  0.19200000000E+03 0.  0.
<mgrwt>
<rscale>  0 0.43656813E+03</rscale>
<asrwt>0</asrwt>
<pdfrwt beam="1">  1        2 0.62845550E-01 0.43656813E+03</pdfrwt>
<pdfrwt beam="2">  1       -2 0.15472961E-01 0.43656813E+03</pdfrwt>
<totfact> 0.25550601E+03</totfact>
</mgrwt>
</event>
<event>
 4    1  0.2892809E-005  0.5271314E+03  0.7818608E-02  0.1006930E+00
         -2   -1    0    0    0  501 -0.00000000000E+00  0.00000000000E+00  0.16931904232E+03  0.16931904234E+03  0.25500000000E-02 0. -1.
          2   -1    0    0  501    0  0.00000000000E+00 -0.00000000000E+00 -0.41027212545E+03  0.41027212546E+03  0.25500000000E-02 0.  1.
    5000001    1    1    2    0    0  0.13111596971E+03  0.98632284824E+02 -0.37587383078E+02  0.25533612453E+03  0.19200000000E+03 0.  0.
   -5000001    1    1    2    0    0 -0.13111596971E+03 -0.98632284824E+02 -0.20336570006E+03  0.32425504327E+03  0.19200000000E+03 0.  0.
<mgrwt>
<rscale>  0 0.52713142E+03</rscale>
<asrwt>0</asrwt>
<pdfrwt beam="1">  1        2 0.58610303E-01 0.52713142E+03</pdfrwt>
<pdfrwt beam="2">  1       -2 0.24188435E-01 0.52713142E+03</pdfrwt>
<totfact> 0.12776857E+03</totfact>
</mgrwt>
</event>
<event>
 4    1  0.2892809E-005  0.4670082E+03  0.7818608E-02  0.1022768E+00
         -2   -1    0    0    0  501 -0.00000000000E+00  0.00000000000E+00  0.18507099959E+03  0.18507099961E+03  0.25500000000E-02 0.  1.
          2   -1    0    0  501    0  0.00000000000E+00 -0.00000000000E+00 -0.29461216156E+03  0.29461216157E+03  0.25500000000E-02 0. -1.
    5000001    1    1    2    0    0  0.10004416216E+03  0.87028257622E+02 -0.45733188058E+02  0.23777778807E+03  0.19200000000E+03 0.  0.
   -5000001    1    1    2    0    0 -0.10004416216E+03 -0.87028257622E+02 -0.63807973903E+02  0.24190537311E+03  0.19200000000E+03 0.  0.
<mgrwt>
<rscale>  0 0.46700821E+03</rscale>
<asrwt>0</asrwt>
<pdfrwt beam="1">  1        2 0.42087452E-01 0.46700821E+03</pdfrwt>
<pdfrwt beam="2">  1       -2 0.26438714E-01 0.46700821E+03</pdfrwt>
<totfact> 0.15676061E+03</totfact>
</mgrwt>
</event>
<event>
 4    1  0.2892809E-005  0.6397609E+03  0.7818608E-02  0.9826184E-01
         -2   -1    0    0    0  501 -0.00000000000E+00  0.00000000000E+00  0.14855008220E+03  0.14855008222E+03  0.25500000000E-02 0. -1.
          2   -1    0    0  501    0  0.00000000000E+00 -0.00000000000E+00 -0.68881485254E+03  0.68881485255E+03  0.25500000000E-02 0.  1.
    5000001    1    1    2    0    0 -0.22548018232E+03 -0.38751947125E+02 -0.42003378049E+03  0.51539829528E+03  0.19200000000E+03 0.  0.
   -5000001    1    1    2    0    0  0.22548018232E+03  0.38751947125E+02 -0.12023098985E+03  0.32196663949E+03  0.19200000000E+03 0.  0.
<mgrwt>
<rscale>  0 0.63976090E+03</rscale>
<asrwt>0</asrwt>
<pdfrwt beam="1">  1        2 0.98402120E-01 0.63976090E+03</pdfrwt>
<pdfrwt beam="2">  1       -2 0.21221441E-01 0.63976090E+03</pdfrwt>
<totfact> 0.88499921E+02</totfact>
</mgrwt>
</event>
<event>
 4    1  0.2892809E-005  0.7096881E+03  0.7818608E-02  0.9700806E-01
         -2   -1    0    0    0  501 -0.00000000000E+00  0.00000000000E+00  0.38058347292E+02  0.38058347377E+02  0.25500000000E-02 0. -1.
          2   -1    0    0  501    0  0.00000000000E+00 -0.00000000000E+00 -0.33084539034E+04  0.33084539034E+04  0.25500000000E-02 0.  1.
    5000001    1    1    2    0    0 -0.19314981667E+03 -0.22735280877E+03 -0.16698930148E+04  0.17071622162E+04  0.19200000000E+03 0.  0.
   -5000001    1    1    2    0    0  0.19314981667E+03  0.22735280877E+03 -0.16005025413E+04  0.16393500346E+04  0.19200000000E+03 0.  0.
<mgrwt>
<rscale>  0 0.70968807E+03</rscale>
<asrwt>0</asrwt>
<pdfrwt beam="1">  1        2 0.47263609E+00 0.70968807E+03</pdfrwt>
<pdfrwt beam="2">  1       -2 0.54369088E-02 0.70968807E+03</pdfrwt>
<totfact> 0.30194210E+02</totfact>
</mgrwt>
</event>
<event>
 4    1  0.2892809E-005  0.4779855E+03  0.7818608E-02  0.1019690E+00
          2   -1    0    0  501    0  0.00000000000E+00  0.00000000000E+00  0.12763585814E+04  0.12763585814E+04  0.25500000000E-02 0.  1.
         -2   -1    0    0    0  501 -0.00000000000E+00 -0.00000000000E+00 -0.44750386929E+02  0.44750387002E+02  0.25500000000E-02 0. -1.
    5000001    1    1    2    0    0  0.13413729419E+03  0.47441603986E+02  0.62455349735E+03  0.66871114133E+03  0.19200000000E+03 0.  0.
   -5000001    1    1    2    0    0 -0.13413729419E+03 -0.47441603986E+02  0.60705469716E+03  0.65239782711E+03  0.19200000000E+03 0.  0.
<mgrwt>
<rscale>  0 0.47798552E+03</rscale>
<asrwt>0</asrwt>
<pdfrwt beam="1">  1        2 0.18233692E+00 0.47798552E+03</pdfrwt>
<pdfrwt beam="2">  1       -2 0.63929132E-02 0.47798552E+03</pdfrwt>
<totfact> 0.27378373E+03</totfact>
</mgrwt>
</event>
<event>
 4    1  0.2892809E-005  0.4547085E+03  0.7818608E-02  0.1026327E+00
          2   -1    0    0  501    0  0.00000000000E+00  0.00000000000E+00  0.97441340218E+03  0.97441340218E+03  0.25500000000E-02 0.  1.
         -2   -1    0    0    0  501 -0.00000000000E+00 -0.00000000000E+00 -0.53047243380E+02  0.53047243441E+02  0.25500000000E-02 0. -1.
    5000001    1    1    2    0    0  0.78068722183E+02  0.89167638085E+02  0.52380459275E+03  0.57033397624E+03  0.19200000000E+03 0.  0.
   -5000001    1    1    2    0    0 -0.78068722183E+02 -0.89167638085E+02  0.39756156605E+03  0.45712666939E+03  0.19200000000E+03 0.  0.
<mgrwt>
<rscale>  0 0.45470846E+03</rscale>
<asrwt>0</asrwt>
<pdfrwt beam="1">  1        2 0.13920191E+00 0.45470846E+03</pdfrwt>
<pdfrwt beam="2">  1       -2 0.75781780E-02 0.45470846E+03</pdfrwt>
<totfact> 0.31206286E+03</totfact>
</mgrwt>
</event>
<event>
 4    1  0.2892809E-005  0.6266135E+03  0.7818608E-02  0.9851680E-01
         -2   -1    0    0    0  501 -0.00000000000E+00  0.00000000000E+00  0.68300064008E+02  0.68300064055E+02  0.25500000000E-02 0. -1.
          2   -1    0    0  501    0  0.00000000000E+00 -0.00000000000E+00 -0.14372039301E+04  0.14372039301E+04  0.25500000000E-02 0.  1.
    5000001    1    1    2    0    0 -0.14061889642E+03  0.10639664766E+03 -0.11020020798E+04  0.11324162241E+04  0.19200000000E+03 0.  0.
   -5000001    1    1    2    0    0  0.14061889642E+03 -0.10639664766E+03 -0.26690178632E+03  0.37308777011E+03  0.19200000000E+03 0.  0.
<mgrwt>
<rscale>  0 0.62661350E+03</rscale>
<asrwt>0</asrwt>
<pdfrwt beam="1">  1        2 0.20531483E+00 0.62661350E+03</pdfrwt>
<pdfrwt beam="2">  1       -2 0.97571529E-02 0.62661350E+03</pdfrwt>
<totfact> 0.11426676E+03</totfact>
</mgrwt>
</event>
<event>
 4    1  0.2892809E-005  0.4187599E+03  0.7818608E-02  0.1037471E+00
          2   -1    0    0  501    0  0.00000000000E+00  0.00000000000E+00  0.21753025118E+04  0.21753025118E+04  0.25500000000E-02 0.  1.
         -2   -1    0    0    0  501 -0.00000000000E+00 -0.00000000000E+00 -0.20153497669E+02  0.20153497831E+02  0.25500000000E-02 0. -1.
    5000001    1    1    2    0    0 -0.98041021390E+00  0.55909833150E+02  0.14028402843E+04  0.14170221360E+04  0.19200000000E+03 0.  0.
   -5000001    1    1    2    0    0  0.98041021390E+00 -0.55909833150E+02  0.75230872987E+03  0.77843387368E+03  0.19200000000E+03 0.  0.
<mgrwt>
<rscale>  0 0.41875986E+03</rscale>
<asrwt>0</asrwt>
<pdfrwt beam="1">  1        2 0.31075724E+00 0.41875986E+03</pdfrwt>
<pdfrwt beam="2">  1       -2 0.28790736E-02 0.41875986E+03</pdfrwt>
<totfact> 0.32502299E+03</totfact>
</mgrwt>
</event>
<event>
 4    1  0.2892809E-005  0.1022979E+04  0.7818608E-02  0.9283694E-01
         -2   -1    0    0    0  501 -0.00000000000E+00  0.00000000000E+00  0.36423559023E+03  0.36423559024E+03  0.25500000000E-02 0. -1.
          2   -1    0    0  501    0  0.00000000000E+00 -0.00000000000E+00 -0.71827620191E+03  0.71827620192E+03  0.25500000000E-02 0.  1.
    5000001    1    1    2    0    0  0.15345035330E+03  0.37821322188E+03 -0.43223076006E+03  0.62472368458E+03  0.19200000000E+03 0.  0.
   -5000001    1    1    2    0    0 -0.15345035330E+03 -0.37821322188E+03  0.78190148388E+02  0.45778810758E+03  0.19200000000E+03 0.  0.
<mgrwt>
<rscale>  0 0.10229795E+04</rscale>
<asrwt>0</asrwt>
<pdfrwt beam="1">  1        2 0.10261089E+00 0.10229795E+04</pdfrwt>
<pdfrwt beam="2">  1       -2 0.52033656E-01 0.10229795E+04</pdfrwt>
<totfact> 0.15156574E+02</totfact>
</mgrwt>
</event>
<event>
 4    1  0.2892809E-005  0.6238261E+03  0.7818608E-02  0.9857171E-01
          2   -1    0    0  501    0  0.00000000000E+00  0.00000000000E+00  0.32040603329E+03  0.32040603330E+03  0.25500000000E-02 0.  1.
         -2   -1    0    0    0  501 -0.00000000000E+00 -0.00000000000E+00 -0.30364517923E+03  0.30364517924E+03  0.25500000000E-02 0. -1.
    5000001    1    1    2    0    0  0.18382847205E+03 -0.14047897664E+03 -0.74706739759E+02  0.30979403961E+03  0.19200000000E+03 0.  0.
   -5000001    1    1    2    0    0 -0.18382847205E+03  0.14047897664E+03  0.91467593821E+02  0.31425717293E+03  0.19200000000E+03 0.  0.
<mgrwt>
<rscale>  0 0.62382609E+03</rscale>
<asrwt>0</asrwt>
<pdfrwt beam="1">  1        2 0.45772290E-01 0.62382609E+03</pdfrwt>
<pdfrwt beam="2">  1       -2 0.43377883E-01 0.62382609E+03</pdfrwt>
<totfact> 0.56237819E+02</totfact>
</mgrwt>
</event>
<event>
 4    1  0.2892809E-005  0.5349993E+03  0.7818608E-02  0.1005027E+00
         -2   -1    0    0    0  501 -0.00000000000E+00  0.00000000000E+00  0.90311787040E+02  0.90311787076E+02  0.25500000000E-02 0. -1.
          2   -1    0    0  501    0  0.00000000000E+00 -0.00000000000E+00 -0.79232259353E+03  0.79232259354E+03  0.25500000000E-02 0.  1.
    5000001    1    1    2    0    0  0.30125101251E+02  0.17186531813E+03 -0.45851855195E+03  0.52682869302E+03  0.19200000000E+03 0.  0.
   -5000001    1    1    2    0    0 -0.30125101251E+02 -0.17186531813E+03 -0.24349225454E+03  0.35580568759E+03  0.19200000000E+03 0.  0.
<mgrwt>
<rscale>  0 0.53499932E+03</rscale>
<asrwt>0</asrwt>
<pdfrwt beam="1">  1        2 0.11318894E+00 0.53499932E+03</pdfrwt>
<pdfrwt beam="2">  1       -2 0.12901684E-01 0.53499932E+03</pdfrwt>
<totfact> 0.17372331E+03</totfact>
</mgrwt>
</event>
<event>
 4    1  0.2892809E-005  0.4864024E+03  0.7818608E-02  0.1017390E+00
          2   -1    0    0  501    0  0.00000000000E+00  0.00000000000E+00  0.25253034266E+03  0.25253034267E+03  0.25500000000E-02 0.  1.
         -2   -1    0    0    0  501 -0.00000000000E+00 -0.00000000000E+00 -0.23421673682E+03  0.23421673683E+03  0.25500000000E-02 0. -1.
    5000001    1    1    2    0    0  0.34040372403E+02  0.10131502060E+03  0.11343885683E+03  0.24729709782E+03  0.19200000000E+03 0.  0.
   -5000001    1    1    2    0    0 -0.34040372403E+02 -0.10131502060E+03 -0.95125250985E+02  0.23944998168E+03  0.19200000000E+03 0.  0.
<mgrwt>
<rscale>  0 0.48640244E+03</rscale>
<asrwt>0</asrwt>
<pdfrwt beam="1">  1        2 0.36075764E-01 0.48640244E+03</pdfrwt>
<pdfrwt beam="2">  1       -2 0.33459534E-01 0.48640244E+03</pdfrwt>
<totfact> 0.12053953E+03</totfact>
</mgrwt>
</event>
<event>
 4    1  0.2892809E-005  0.5581436E+03  0.7818608E-02  0.9996264E-01
         -2   -1    0    0    0  501 -0.00000000000E+00  0.00000000000E+00  0.53067369409E+02  0.53067369470E+02  0.25500000000E-02 0. -1.
          2   -1    0    0  501    0  0.00000000000E+00 -0.00000000000E+00 -0.14675888981E+04  0.14675888981E+04  0.25500000000E-02 0.  1.
    5000001    1    1    2    0    0  0.15417892901E+03  0.11341676637E+03 -0.88762476469E+03  0.92810356531E+03  0.19200000000E+03 0.  0.
   -5000001    1    1    2    0    0 -0.15417892901E+03 -0.11341676637E+03 -0.52689676399E+03  0.59255270225E+03  0.19200000000E+03 0.  0.
<mgrwt>
<rscale>  0 0.55814365E+03</rscale>
<asrwt>0</asrwt>
<pdfrwt beam="1">  1        2 0.20965553E+00 0.55814365E+03</pdfrwt>
<pdfrwt beam="2">  1       -2 0.75810537E-02 0.55814365E+03</pdfrwt>
<totfact> 0.16538839E+03</totfact>
</mgrwt>
</event>
<event>
 4    1  0.2892809E-005  0.5613649E+03  0.7818608E-02  0.9988971E-01
          2   -1    0    0  501    0  0.00000000000E+00  0.00000000000E+00  0.15921232534E+04  0.15921232534E+04  0.25500000000E-02 0.  1.
         -2   -1    0    0    0  501 -0.00000000000E+00 -0.00000000000E+00 -0.49482750542E+02  0.49482750608E+02  0.25500000000E-02 0. -1.
    5000001    1    1    2    0    0  0.31557486245E+02  0.17046398626E+03  0.10898527491E+04  0.11201325191E+04  0.19200000000E+03 0.  0.
   -5000001    1    1    2    0    0 -0.31557486245E+02 -0.17046398626E+03  0.45278775380E+03  0.52147348498E+03  0.19200000000E+03 0.  0.
<mgrwt>
<rscale>  0 0.56136490E+03</rscale>
<asrwt>0</asrwt>
<pdfrwt beam="1">  1        2 0.22744612E+00 0.56136490E+03</pdfrwt>
<pdfrwt beam="2">  1       -2 0.70689661E-02 0.56136490E+03</pdfrwt>
<totfact> 0.15924036E+03</totfact>
</mgrwt>
</event>
<event>
 4    1  0.2892809E-005  0.4489915E+03  0.7818608E-02  0.1028023E+00
         -2   -1    0    0    0  501 -0.00000000000E+00  0.00000000000E+00  0.63281532477E+02  0.63281532528E+02  0.25500000000E-02 0. -1.
          2   -1    0    0  501    0  0.00000000000E+00 -0.00000000000E+00 -0.79641463447E+03  0.79641463447E+03  0.25500000000E-02 0.  1.
    5000001    1    1    2    0    0  0.75288955418E+02 -0.20362416568E+02 -0.20128573960E+03  0.28889964310E+03  0.19200000000E+03 0.  0.
   -5000001    1    1    2    0    0 -0.75288955418E+02  0.20362416568E+02 -0.53184736239E+03  0.57079652390E+03  0.19200000000E+03 0.  0.
<mgrwt>
<rscale>  0 0.44899149E+03</rscale>
<asrwt>0</asrwt>
<pdfrwt beam="1">  1        2 0.11377351E+00 0.44899149E+03</pdfrwt>
<pdfrwt beam="2">  1       -2 0.90402194E-02 0.44899149E+03</pdfrwt>
<totfact> 0.30737505E+03</totfact>
</mgrwt>
</event>
<event>
 4    1  0.2892809E-005  0.9028103E+03  0.7818608E-02  0.9422075E-01
         -2   -1    0    0    0  501 -0.00000000000E+00  0.00000000000E+00  0.42542913969E+03  0.42542913970E+03  0.25500000000E-02 0. -1.
          2   -1    0    0  501    0  0.00000000000E+00 -0.00000000000E+00 -0.47896722616E+03  0.47896722617E+03  0.25500000000E-02 0.  1.
    5000001    1    1    2    0    0 -0.23229928084E+02  0.37560736445E+03  0.13251373102E+03  0.44276902636E+03  0.19200000000E+03 0.  0.
   -5000001    1    1    2    0    0  0.23229928084E+02 -0.37560736445E+03 -0.18605181749E+03  0.46162733951E+03  0.19200000000E+03 0.  0.
<mgrwt>
<rscale>  0 0.90281031E+03</rscale>
<asrwt>0</asrwt>
<pdfrwt beam="1">  1        2 0.68423890E-01 0.90281031E+03</pdfrwt>
<pdfrwt beam="2">  1       -2 0.60775591E-01 0.90281031E+03</pdfrwt>
<totfact> 0.17838926E+02</totfact>
</mgrwt>
</event>
<event>
 4    1  0.2892809E-005  0.5285592E+03  0.7818608E-02  0.1006582E+00
         -2   -1    0    0    0  501 -0.00000000000E+00  0.00000000000E+00  0.31970830567E+03  0.31970830568E+03  0.25500000000E-02 0. -1.
          2   -1    0    0  501    0  0.00000000000E+00 -0.00000000000E+00 -0.21846075953E+03  0.21846075955E+03  0.25500000000E-02 0.  1.
    5000001    1    1    2    0    0  0.83687065034E+02  0.16097955494E+03  0.58626529993E+02  0.27059011804E+03  0.19200000000E+03 0.  0.
   -5000001    1    1    2    0    0 -0.83687065034E+02 -0.16097955494E+03  0.42621016146E+02  0.26757894719E+03  0.19200000000E+03 0.  0.
<mgrwt>
<rscale>  0 0.52855925E+03</rscale>
<asrwt>0</asrwt>
<pdfrwt beam="1">  1        2 0.31208680E-01 0.52855925E+03</pdfrwt>
<pdfrwt beam="2">  1       -2 0.45672615E-01 0.52855925E+03</pdfrwt>
<totfact> 0.77720043E+02</totfact>
</mgrwt>
</event>
<event>
 4    1  0.2892809E-005  0.4960774E+03  0.7818608E-02  0.1014808E+00
          2   -1    0    0  501    0  0.00000000000E+00  0.00000000000E+00  0.45840851223E+04  0.45840851223E+04  0.25500000000E-02 0.  1.
         -2   -1    0    0    0  501 -0.00000000000E+00 -0.00000000000E+00 -0.13421042119E+02  0.13421042361E+02  0.25500000000E-02 0. -1.
    5000001    1    1    2    0    0 -0.13233181186E+03  0.84542571455E+02  0.22833607322E+04  0.22967932837E+04  0.19200000000E+03 0.  0.
   -5000001    1    1    2    0    0  0.13233181186E+03 -0.84542571455E+02  0.22873033480E+04  0.23007128809E+04  0.19200000000E+03 0.  0.
<mgrwt>
<rscale>  0 0.49607741E+03</rscale>
<asrwt>0</asrwt>
<pdfrwt beam="1">  1        2 0.65486934E+00 0.49607741E+03</pdfrwt>
<pdfrwt beam="2">  1       -2 0.19172916E-02 0.49607741E+03</pdfrwt>
<totfact> 0.21565521E+02</totfact>
</mgrwt>
</event>
<event>
 4    1  0.2892809E-005  0.4510490E+03  0.7818608E-02  0.1027410E+00
         -2   -1    0    0    0  501 -0.00000000000E+00  0.00000000000E+00  0.43010537255E+03  0.43010537256E+03  0.25500000000E-02 0. -1.
          2   -1    0    0  501    0  0.00000000000E+00 -0.00000000000E+00 -0.11825312715E+03  0.11825312718E+03  0.25500000000E-02 0.  1.
    5000001    1    1    2    0    0 -0.81607485474E+02  0.63152389148E+02  0.22628482447E+03  0.31419234193E+03  0.19200000000E+03 0.  0.
   -5000001    1    1    2    0    0  0.81607485474E+02 -0.63152389148E+02  0.85567420924E+02  0.23416615781E+03  0.19200000000E+03 0.  0.
<mgrwt>
<rscale>  0 0.45104902E+03</rscale>
<asrwt>0</asrwt>
<pdfrwt beam="1">  1        2 0.16893304E-01 0.45104902E+03</pdfrwt>
<pdfrwt beam="2">  1       -2 0.61443626E-01 0.45104902E+03</pdfrwt>
<totfact> 0.85805661E+02</totfact>
</mgrwt>
</event>
<event>
 4    1  0.2892809E-005  0.9586043E+03  0.7818608E-02  0.9355150E-01
         -2   -1    0    0    0  501 -0.00000000000E+00  0.00000000000E+00  0.18213630857E+03  0.18213630859E+03  0.25500000000E-02 0.  1.
          2   -1    0    0  501    0  0.00000000000E+00 -0.00000000000E+00 -0.12613111316E+04  0.12613111316E+04  0.25500000000E-02 0. -1.
    5000001    1    1    2    0    0 -0.56902793029E+02 -0.41102579769E+03 -0.32301443730E+03  0.55980573499E+03  0.19200000000E+03 0.  0.
   -5000001    1    1    2    0    0  0.56902793029E+02  0.41102579769E+03 -0.75616038570E+03  0.88364170517E+03  0.19200000000E+03 0.  0.
<mgrwt>
<rscale>  0 0.95860431E+03</rscale>
<asrwt>0</asrwt>
<pdfrwt beam="1">  1        2 0.18018730E+00 0.95860431E+03</pdfrwt>
<pdfrwt beam="2">  1       -2 0.26019473E-01 0.95860431E+03</pdfrwt>
<totfact> 0.26241557E+02</totfact>
</mgrwt>
</event>
<event>
 4    1  0.2892809E-005  0.5456730E+03  0.7818608E-02  0.1002500E+00
         -2   -1    0    0    0  501 -0.00000000000E+00  0.00000000000E+00  0.32822670577E+02  0.32822670676E+02  0.25500000000E-02 0. -1.
          2   -1    0    0  501    0  0.00000000000E+00 -0.00000000000E+00 -0.22679368829E+04  0.22679368829E+04  0.25500000000E-02 0.  1.
    5000001    1    1    2    0    0 -0.18206706413E+03 -0.37227457612E+01 -0.83744690866E+03  0.87826169192E+03  0.19200000000E+03 0.  0.
   -5000001    1    1    2    0    0  0.18206706413E+03  0.37227457612E+01 -0.13976673036E+04  0.14224978616E+04  0.19200000000E+03 0.  0.
<mgrwt>
<rscale>  0 0.54567296E+03</rscale>
<asrwt>0</asrwt>
<pdfrwt beam="1">  1        2 0.32399088E+00 0.54567296E+03</pdfrwt>
<pdfrwt beam="2">  1       -2 0.46889544E-02 0.54567296E+03</pdfrwt>
<totfact> 0.13811234E+03</totfact>
</mgrwt>
</event>
<event>
 4    1  0.2892809E-005  0.8717941E+03  0.7818608E-02  0.9461544E-01
         -2   -1    0    0    0  501 -0.00000000000E+00  0.00000000000E+00  0.42982169774E+03  0.42982169775E+03  0.25500000000E-02 0. -1.
          2   -1    0    0  501    0  0.00000000000E+00 -0.00000000000E+00 -0.44205822463E+03  0.44205822464E+03  0.25500000000E-02 0.  1.
    5000001    1    1    2    0    0  0.37760705754E+03 -0.10238806523E+03  0.23566971738E+01  0.43582101811E+03  0.19200000000E+03 0.  0.
   -5000001    1    1    2    0    0 -0.37760705754E+03  0.10238806523E+03 -0.14593224065E+02  0.43605890427E+03  0.19200000000E+03 0.  0.
<mgrwt>
<rscale>  0 0.87179405E+03</rscale>
<asrwt>0</asrwt>
<pdfrwt beam="1">  1        2 0.63151175E-01 0.87179405E+03</pdfrwt>
<pdfrwt beam="2">  1       -2 0.61403100E-01 0.87179405E+03</pdfrwt>
<totfact> 0.19144192E+02</totfact>
</mgrwt>
</event>
<event>
 4    1  0.2892809E-005  0.6183699E+03  0.7818608E-02  0.9868011E-01
          2   -1    0    0  501    0  0.00000000000E+00  0.00000000000E+00  0.84708220141E+03  0.84708220141E+03  0.25500000000E-02 0.  1.
         -2   -1    0    0    0  501 -0.00000000000E+00 -0.00000000000E+00 -0.11285250151E+03  0.11285250154E+03  0.25500000000E-02 0. -1.
    5000001    1    1    2    0    0  0.24104767474E+03 -0.28184494874E+01  0.40575030502E+03  0.50951863084E+03  0.19200000000E+03 0.  0.
   -5000001    1    1    2    0    0 -0.24104767474E+03  0.28184494874E+01  0.32847939488E+03  0.45041607211E+03  0.19200000000E+03 0.  0.
<mgrwt>
<rscale>  0 0.61836994E+03</rscale>
<asrwt>0</asrwt>
<pdfrwt beam="1">  1        2 0.12101175E+00 0.61836994E+03</pdfrwt>
<pdfrwt beam="2">  1       -2 0.16121786E-01 0.61836994E+03</pdfrwt>
<totfact> 0.10963375E+03</totfact>
</mgrwt>
</event>
<event>
 4    1  0.2892809E-005  0.1024493E+04  0.7818608E-02  0.9282082E-01
         -2   -1    0    0    0  501 -0.00000000000E+00  0.00000000000E+00  0.28974252433E+03  0.28974252435E+03  0.25500000000E-02 0.  1.
          2   -1    0    0  501    0  0.00000000000E+00 -0.00000000000E+00 -0.90561954934E+03  0.90561954934E+03  0.25500000000E-02 0. -1.
    5000001    1    1    2    0    0  0.34810180808E+03  0.79940060350E+01  0.68868992906E+02  0.40354146145E+03  0.19200000000E+03 0.  0.
   -5000001    1    1    2    0    0 -0.34810180808E+03 -0.79940060350E+01 -0.68474601791E+03  0.79182061224E+03  0.19200000000E+03 0.  0.
<mgrwt>
<rscale>  0 0.10244930E+04</rscale>
<asrwt>0</asrwt>
<pdfrwt beam="1">  1        2 0.12937422E+00 0.10244930E+04</pdfrwt>
<pdfrwt beam="2">  1       -2 0.41391790E-01 0.10244930E+04</pdfrwt>
<totfact> 0.17754700E+02</totfact>
</mgrwt>
</event>
<event>
 4    1  0.2892809E-005  0.5845026E+03  0.7818608E-02  0.9938090E-01
          2   -1    0    0  501    0  0.00000000000E+00  0.00000000000E+00  0.21108967361E+04  0.21108967361E+04  0.25500000000E-02 0.  1.
         -2   -1    0    0    0  501 -0.00000000000E+00 -0.00000000000E+00 -0.40461864915E+02  0.40461864996E+02  0.25500000000E-02 0. -1.
    5000001    1    1    2    0    0  0.19576997610E+03  0.90219126909E+02  0.86729498520E+03  0.91407328249E+03  0.19200000000E+03 0.  0.
   -5000001    1    1    2    0    0 -0.19576997610E+03 -0.90219126909E+02  0.12031398860E+04  0.12372853186E+04  0.19200000000E+03 0.  0.
<mgrwt>
<rscale>  0 0.58450259E+03</rscale>
<asrwt>0</asrwt>
<pdfrwt beam="1">  1        2 0.30155667E+00 0.58450259E+03</pdfrwt>
<pdfrwt beam="2">  1       -2 0.57802666E-02 0.58450259E+03</pdfrwt>
<totfact> 0.11942697E+03</totfact>
</mgrwt>
</event>
<event>
 4    1  0.2892809E-005  0.4759315E+03  0.7818608E-02  0.1020259E+00
         -2   -1    0    0    0  501 -0.00000000000E+00  0.00000000000E+00  0.54940566998E+02  0.54940567058E+02  0.25500000000E-02 0. -1.
          2   -1    0    0  501    0  0.00000000000E+00 -0.00000000000E+00 -0.10307083436E+04  0.10307083436E+04  0.25500000000E-02 0.  1.
    5000001    1    1    2    0    0 -0.10697185855E+03  0.83870386992E+02 -0.40606632416E+03  0.46928784339E+03  0.19200000000E+03 0.  0.
   -5000001    1    1    2    0    0  0.10697185855E+03 -0.83870386992E+02 -0.56970145245E+03  0.61636106728E+03  0.19200000000E+03 0.  0.
<mgrwt>
<rscale>  0 0.47593151E+03</rscale>
<asrwt>0</asrwt>
<pdfrwt beam="1">  1        2 0.14724404E+00 0.47593151E+03</pdfrwt>
<pdfrwt beam="2">  1       -2 0.78486531E-02 0.47593151E+03</pdfrwt>
<totfact> 0.27309043E+03</totfact>
</mgrwt>
</event>
<event>
 4    1  0.2892809E-005  0.9411590E+03  0.7818608E-02  0.9375544E-01
         -2   -1    0    0    0  501 -0.00000000000E+00  0.00000000000E+00  0.18464624436E+03  0.18464624437E+03  0.25500000000E-02 0. -1.
          2   -1    0    0  501    0  0.00000000000E+00 -0.00000000000E+00 -0.11992935783E+04  0.11992935783E+04  0.25500000000E-02 0.  1.
    5000001    1    1    2    0    0 -0.11930990059E+03 -0.39743072115E+03 -0.34361264702E+03  0.57194377493E+03  0.19200000000E+03 0.  0.
   -5000001    1    1    2    0    0  0.11930990059E+03  0.39743072115E+03 -0.67103468692E+03  0.81199604774E+03  0.19200000000E+03 0.  0.
<mgrwt>
<rscale>  0 0.94115898E+03</rscale>
<asrwt>0</asrwt>
<pdfrwt beam="1">  1        2 0.17132765E+00 0.94115898E+03</pdfrwt>
<pdfrwt beam="2">  1       -2 0.26378036E-01 0.94115898E+03</pdfrwt>
<totfact> 0.27764326E+02</totfact>
</mgrwt>
</event>
<event>
 4    1  0.2892809E-005  0.4075699E+03  0.7818608E-02  0.1041190E+00
         -2   -1    0    0    0  501 -0.00000000000E+00  0.00000000000E+00  0.77864962113E+02  0.77864962155E+02  0.25500000000E-02 0. -1.
          2   -1    0    0  501    0  0.00000000000E+00 -0.00000000000E+00 -0.53333753009E+03  0.53333753009E+03  0.25500000000E-02 0.  1.
    5000001    1    1    2    0    0 -0.66442425442E+02  0.15565921671E+02 -0.23181922719E+03  0.30864388527E+03  0.19200000000E+03 0.  0.
   -5000001    1    1    2    0    0  0.66442425442E+02 -0.15565921671E+02 -0.22365334078E+03  0.30255860698E+03  0.19200000000E+03 0.  0.
<mgrwt>
<rscale>  0 0.40756990E+03</rscale>
<asrwt>0</asrwt>
<pdfrwt beam="1">  1        2 0.76191074E-01 0.40756990E+03</pdfrwt>
<pdfrwt beam="2">  1       -2 0.11123566E-01 0.40756990E+03</pdfrwt>
<totfact> 0.35435585E+03</totfact>
</mgrwt>
</event>
<event>
 4    1  0.2892809E-005  0.5347623E+03  0.7818608E-02  0.1005084E+00
          2   -1    0    0  501    0  0.00000000000E+00  0.00000000000E+00  0.13584705721E+04  0.13584705721E+04  0.25500000000E-02 0.  1.
         -2   -1    0    0    0  501 -0.00000000000E+00 -0.00000000000E+00 -0.52627332731E+02  0.52627332793E+02  0.25500000000E-02 0. -1.
    5000001    1    1    2    0    0 -0.23569022351E+02 -0.18101667180E+03  0.55755582267E+03  0.61729654922E+03  0.19200000000E+03 0.  0.
   -5000001    1    1    2    0    0  0.23569022351E+02  0.18101667180E+03  0.74828741666E+03  0.79380135564E+03  0.19200000000E+03 0.  0.
<mgrwt>
<rscale>  0 0.53476231E+03</rscale>
<asrwt>0</asrwt>
<pdfrwt beam="1">  1        2 0.19406720E+00 0.53476231E+03</pdfrwt>
<pdfrwt beam="2">  1       -2 0.75181913E-02 0.53476231E+03</pdfrwt>
<totfact> 0.19146993E+03</totfact>
</mgrwt>
</event>
<event>
 4    1  0.2892809E-005  0.7729336E+03  0.7818608E-02  0.9600043E-01
          2   -1    0    0  501    0  0.00000000000E+00  0.00000000000E+00  0.75269797150E+03  0.75269797150E+03  0.25500000000E-02 0. -1.
         -2   -1    0    0    0  501 -0.00000000000E+00 -0.00000000000E+00 -0.19842831535E+03  0.19842831536E+03  0.25500000000E-02 0.  1.
    5000001    1    1    2    0    0 -0.20200804119E+03 -0.69818336284E+02  0.59520221434E+03  0.66091718448E+03  0.19200000000E+03 0.  0.
   -5000001    1    1    2    0    0  0.20200804119E+03  0.69818336284E+02 -0.40932558190E+02  0.29020910239E+03  0.19200000000E+03 0.  0.
<mgrwt>
<rscale>  0 0.77293361E+03</rscale>
<asrwt>0</asrwt>
<pdfrwt beam="1">  1        2 0.10752828E+00 0.77293361E+03</pdfrwt>
<pdfrwt beam="2">  1       -2 0.28346902E-01 0.77293361E+03</pdfrwt>
<totfact> 0.46955268E+02</totfact>
</mgrwt>
</event>
<event>
 4    1  0.2892809E-005  0.7224245E+03  0.7818608E-02  0.9679634E-01
         -2   -1    0    0    0  501 -0.00000000000E+00  0.00000000000E+00  0.11484615597E+03  0.11484615600E+03  0.25500000000E-02 0. -1.
          2   -1    0    0  501    0  0.00000000000E+00 -0.00000000000E+00 -0.11360787956E+04  0.11360787956E+04  0.25500000000E-02 0.  1.
    5000001    1    1    2    0    0 -0.73513172584E+02 -0.26263258066E+03 -0.75073777570E+03  0.82149331515E+03  0.19200000000E+03 0.  0.
   -5000001    1    1    2    0    0  0.73513172584E+02  0.26263258066E+03 -0.27049486392E+03  0.42943163644E+03  0.19200000000E+03 0.  0.
<mgrwt>
<rscale>  0 0.72242448E+03</rscale>
<asrwt>0</asrwt>
<pdfrwt beam="1">  1        2 0.16229696E+00 0.72242448E+03</pdfrwt>
<pdfrwt beam="2">  1       -2 0.16406594E-01 0.72242448E+03</pdfrwt>
<totfact> 0.70346300E+02</totfact>
</mgrwt>
</event>
<event>
 4    1  0.2892809E-005  0.5505886E+03  0.7818608E-02  0.1001358E+00
          2   -1    0    0  501    0  0.00000000000E+00  0.00000000000E+00  0.67870623133E+03  0.67870623134E+03  0.25500000000E-02 0. -1.
         -2   -1    0    0    0  501 -0.00000000000E+00 -0.00000000000E+00 -0.11166385226E+03  0.11166385229E+03  0.25500000000E-02 0.  1.
    5000001    1    1    2    0    0 -0.11823986518E+03  0.15778794079E+03  0.29317778378E+03  0.40211305982E+03  0.19200000000E+03 0.  0.
   -5000001    1    1    2    0    0  0.11823986518E+03 -0.15778794079E+03  0.27386459529E+03  0.38825702380E+03  0.19200000000E+03 0.  0.
<mgrwt>
<rscale>  0 0.55058860E+03</rscale>
<asrwt>0</asrwt>
<pdfrwt beam="1">  1        2 0.96958037E-01 0.55058860E+03</pdfrwt>
<pdfrwt beam="2">  1       -2 0.15951978E-01 0.55058860E+03</pdfrwt>
<totfact> 0.14752840E+03</totfact>
</mgrwt>
</event>
<event>
 4    1  0.2892809E-005  0.6040346E+03  0.7818608E-02  0.9897071E-01
          2   -1    0    0  501    0  0.00000000000E+00  0.00000000000E+00  0.25228409919E+04  0.25228409919E+04  0.25500000000E-02 0.  1.
         -2   -1    0    0    0  501 -0.00000000000E+00 -0.00000000000E+00 -0.36155451671E+02  0.36155451761E+02  0.25500000000E-02 0. -1.
    5000001    1    1    2    0    0 -0.94604333455E+02 -0.21101069755E+03  0.11180279979E+04  0.11577245348E+04  0.19200000000E+03 0.  0.
   -5000001    1    1    2    0    0  0.94604333455E+02  0.21101069755E+03  0.13686575423E+04  0.14012719088E+04  0.19200000000E+03 0.  0.
<mgrwt>
<rscale>  0 0.60403462E+03</rscale>
<asrwt>0</asrwt>
<pdfrwt beam="1">  1        2 0.36040584E+00 0.60403462E+03</pdfrwt>
<pdfrwt beam="2">  1       -2 0.51650647E-02 0.60403462E+03</pdfrwt>
<totfact> 0.87866583E+02</totfact>
</mgrwt>
</event>
<event>
 4    1  0.2892809E-005  0.5054860E+03  0.7818608E-02  0.1012357E+00
         -2   -1    0    0    0  501 -0.00000000000E+00  0.00000000000E+00  0.19498646267E+03  0.19498646268E+03  0.25500000000E-02 0. -1.
          2   -1    0    0  501    0  0.00000000000E+00 -0.00000000000E+00 -0.32760745401E+03  0.32760745402E+03  0.25500000000E-02 0.  1.
    5000001    1    1    2    0    0 -0.11670885303E+03  0.82249394132E+02 -0.15048537493E+03  0.28265839326E+03  0.19200000000E+03 0.  0.
   -5000001    1    1    2    0    0  0.11670885303E+03 -0.82249394132E+02  0.17864383586E+02  0.23993552345E+03  0.19200000000E+03 0.  0.
<mgrwt>
<rscale>  0 0.50548598E+03</rscale>
<asrwt>0</asrwt>
<pdfrwt beam="1">  1        2 0.46801065E-01 0.50548598E+03</pdfrwt>
<pdfrwt beam="2">  1       -2 0.27855209E-01 0.50548598E+03</pdfrwt>
<totfact> 0.12700346E+03</totfact>
</mgrwt>
</event>
<event>
 4    1  0.2892809E-005  0.5614404E+03  0.7818608E-02  0.9988801E-01
          2   -1    0    0  501    0  0.00000000000E+00  0.00000000000E+00  0.91707713151E+03  0.91707713151E+03  0.25500000000E-02 0.  1.
         -2   -1    0    0    0  501 -0.00000000000E+00 -0.00000000000E+00 -0.85929347449E+02  0.85929347487E+02  0.25500000000E-02 0. -1.
    5000001    1    1    2    0    0 -0.18240435417E+03  0.43928571208E+02  0.26892106960E+03  0.37997843289E+03  0.19200000000E+03 0.  0.
   -5000001    1    1    2    0    0  0.18240435417E+03 -0.43928571208E+02  0.56222671446E+03  0.62302804611E+03  0.19200000000E+03 0.  0.
<mgrwt>
<rscale>  0 0.56144043E+03</rscale>
<asrwt>0</asrwt>
<pdfrwt beam="1">  1        2 0.13101101E+00 0.56144043E+03</pdfrwt>
<pdfrwt beam="2">  1       -2 0.12275622E-01 0.56144043E+03</pdfrwt>
<totfact> 0.15578855E+03</totfact>
</mgrwt>
</event>
<event>
 4    1  0.2892809E-005  0.6506826E+03  0.7818608E-02  0.9805499E-01
          2   -1    0    0  501    0  0.00000000000E+00  0.00000000000E+00  0.88858631467E+03  0.88858631468E+03  0.25500000000E-02 0.  1.
         -2   -1    0    0    0  501 -0.00000000000E+00 -0.00000000000E+00 -0.11911839695E+03  0.11911839697E+03  0.25500000000E-02 0. -1.
    5000001    1    1    2    0    0 -0.24462005453E+03 -0.54864984126E+02  0.26344248369E+03  0.41123603900E+03  0.19200000000E+03 0.  0.
   -5000001    1    1    2    0    0  0.24462005453E+03  0.54864984126E+02  0.50602543404E+03  0.59646867265E+03  0.19200000000E+03 0.  0.
<mgrwt>
<rscale>  0 0.65068265E+03</rscale>
<asrwt>0</asrwt>
<pdfrwt beam="1">  1        2 0.12694091E+00 0.65068265E+03</pdfrwt>
<pdfrwt beam="2">  1       -2 0.17016913E-01 0.65068265E+03</pdfrwt>
<totfact> 0.93802931E+02</totfact>
</mgrwt>
</event>
<event>
 4    1  0.2892809E-005  0.9740353E+03  0.7818608E-02  0.9337490E-01
         -2   -1    0    0    0  501 -0.00000000000E+00  0.00000000000E+00  0.16073461159E+03  0.16073461161E+03  0.25500000000E-02 0. -1.
          2   -1    0    0  501    0  0.00000000000E+00 -0.00000000000E+00 -0.14756384231E+04  0.14756384231E+04  0.25500000000E-02 0.  1.
    5000001    1    1    2    0    0  0.35204347311E+03 -0.27585750848E+03 -0.62883293652E+03  0.79518981004E+03  0.19200000000E+03 0.  0.
   -5000001    1    1    2    0    0 -0.35204347311E+03  0.27585750848E+03 -0.68607087497E+03  0.84118322465E+03  0.19200000000E+03 0.  0.
<mgrwt>
<rscale>  0 0.97403525E+03</rscale>
<asrwt>0</asrwt>
<pdfrwt beam="1">  1        2 0.21080548E+00 0.97403525E+03</pdfrwt>
<pdfrwt beam="2">  1       -2 0.22962088E-01 0.97403525E+03</pdfrwt>
<totfact> 0.25119245E+02</totfact>
</mgrwt>
</event>
<event>
 4    1  0.2892809E-005  0.6966620E+03  0.7818608E-02  0.9722958E-01
         -2   -1    0    0    0  501 -0.00000000000E+00  0.00000000000E+00  0.19734622456E+03  0.19734622458E+03  0.25500000000E-02 0. -1.
          2   -1    0    0  501    0  0.00000000000E+00 -0.00000000000E+00 -0.61483049521E+03  0.61483049522E+03  0.25500000000E-02 0.  1.
    5000001    1    1    2    0    0 -0.26441538298E+03 -0.13720712833E+02 -0.69006456763E+02  0.33425984472E+03  0.19200000000E+03 0.  0.
   -5000001    1    1    2    0    0  0.26441538298E+03  0.13720712833E+02 -0.34847781389E+03  0.47791687508E+03  0.19200000000E+03 0.  0.
<mgrwt>
<rscale>  0 0.69666198E+03</rscale>
<asrwt>0</asrwt>
<pdfrwt beam="1">  1        2 0.87832927E-01 0.69666198E+03</pdfrwt>
<pdfrwt beam="2">  1       -2 0.28192318E-01 0.69666198E+03</pdfrwt>
<totfact> 0.60880900E+02</totfact>
</mgrwt>
</event>
<event>
 4    1  0.2892809E-005  0.8516556E+03  0.7818608E-02  0.9488118E-01
          2   -1    0    0  501    0  0.00000000000E+00  0.00000000000E+00  0.57849514427E+03  0.57849514428E+03  0.25500000000E-02 0.  1.
         -2   -1    0    0    0  501 -0.00000000000E+00 -0.00000000000E+00 -0.31345001108E+03  0.31345001109E+03  0.25500000000E-02 0. -1.
    5000001    1    1    2    0    0 -0.40597279036E+01  0.34238823115E+03 -0.40264506822E+02  0.39462819556E+03  0.19200000000E+03 0.  0.
   -5000001    1    1    2    0    0  0.40597279036E+01 -0.34238823115E+03  0.30530964001E+03  0.49731695980E+03  0.19200000000E+03 0.  0.
<mgrwt>
<rscale>  0 0.85165559E+03</rscale>
<asrwt>0</asrwt>
<pdfrwt beam="1">  1        2 0.82642163E-01 0.85165559E+03</pdfrwt>
<pdfrwt beam="2">  1       -2 0.44778573E-01 0.85165559E+03</pdfrwt>
<totfact> 0.26904359E+02</totfact>
</mgrwt>
</event>
<event>
 4    1  0.2892809E-005  0.6095859E+03  0.7818608E-02  0.9885716E-01
         -2   -1    0    0    0  501 -0.00000000000E+00  0.00000000000E+00  0.35191787879E+02  0.35191787972E+02  0.25500000000E-02 0. -1.
          2   -1    0    0  501    0  0.00000000000E+00 -0.00000000000E+00 -0.26397846888E+04  0.26397846888E+04  0.25500000000E-02 0.  1.
    5000001    1    1    2    0    0  0.23185117932E+03 -0.59297769303E+01 -0.10943959050E+04  0.11350579406E+04  0.19200000000E+03 0.  0.
   -5000001    1    1    2    0    0 -0.23185117932E+03  0.59297769303E+01 -0.15101969959E+04  0.15399185362E+04  0.19200000000E+03 0.  0.
<mgrwt>
<rscale>  0 0.60958590E+03</rscale>
<asrwt>0</asrwt>
<pdfrwt beam="1">  1        2 0.37711197E+00 0.60958590E+03</pdfrwt>
<pdfrwt beam="2">  1       -2 0.50273999E-02 0.60958590E+03</pdfrwt>
<totfact> 0.79686400E+02</totfact>
</mgrwt>
</event>
<event>
 4    1  0.2892809E-005  0.6610924E+03  0.7818608E-02  0.9786185E-01
          2   -1    0    0  501    0  0.00000000000E+00  0.00000000000E+00  0.83662135081E+03  0.83662135082E+03  0.25500000000E-02 0.  1.
         -2   -1    0    0    0  501 -0.00000000000E+00 -0.00000000000E+00 -0.13059764523E+03  0.13059764526E+03  0.25500000000E-02 0. -1.
    5000001    1    1    2    0    0 -0.64057112902E+02 -0.26116101626E+03  0.36676683268E+03  0.49364997688E+03  0.19200000000E+03 0.  0.
   -5000001    1    1    2    0    0  0.64057112902E+02  0.26116101626E+03  0.33925687290E+03  0.47356901919E+03  0.19200000000E+03 0.  0.
<mgrwt>
<rscale>  0 0.66109236E+03</rscale>
<asrwt>0</asrwt>
<pdfrwt beam="1">  1        2 0.11951733E+00 0.66109236E+03</pdfrwt>
<pdfrwt beam="2">  1       -2 0.18656807E-01 0.66109236E+03</pdfrwt>
<totfact> 0.86680473E+02</totfact>
</mgrwt>
</event>
<event>
 4    1  0.2892809E-005  0.1332361E+04  0.7818608E-02  0.9004289E-01
          2   -1    0    0  501    0  0.00000000000E+00  0.00000000000E+00  0.52433786944E+03  0.52433786945E+03  0.25500000000E-02 0.  1.
         -2   -1    0    0    0  501 -0.00000000000E+00 -0.00000000000E+00 -0.84639454649E+03  0.84639454649E+03  0.25500000000E-02 0. -1.
    5000001    1    1    2    0    0 -0.59170294265E+03 -0.23077409066E+03 -0.99612727653E+02  0.67093647149E+03  0.19200000000E+03 0.  0.
   -5000001    1    1    2    0    0  0.59170294265E+03  0.23077409066E+03 -0.22244394939E+03  0.69979594446E+03  0.19200000000E+03 0.  0.
<mgrwt>
<rscale>  0 0.13323614E+04</rscale>
<asrwt>0</asrwt>
<pdfrwt beam="1">  1        2 0.74905409E-01 0.13323614E+04</pdfrwt>
<pdfrwt beam="2">  1       -2 0.12091351E+00 0.13323614E+04</pdfrwt>
<totfact> 0.32428975E+01</totfact>
</mgrwt>
</event>
<event>
 4    1  0.2892809E-005  0.7415184E+03  0.7818608E-02  0.9648751E-01
         -2   -1    0    0    0  501 -0.00000000000E+00  0.00000000000E+00  0.28193292211E+03  0.28193292212E+03  0.25500000000E-02 0. -1.
          2   -1    0    0  501    0  0.00000000000E+00 -0.00000000000E+00 -0.48757121732E+03  0.48757121733E+03  0.25500000000E-02 0.  1.
    5000001    1    1    2    0    0 -0.47992056863E+02  0.29154620011E+03  0.16840793763E+02  0.35277476760E+03  0.19200000000E+03 0.  0.
   -5000001    1    1    2    0    0  0.47992056863E+02 -0.29154620011E+03 -0.22247908897E+03  0.41672937184E+03  0.19200000000E+03 0.  0.
<mgrwt>
<rscale>  0 0.74151838E+03</rscale>
<asrwt>0</asrwt>
<pdfrwt beam="1">  1        2 0.69653031E-01 0.74151838E+03</pdfrwt>
<pdfrwt beam="2">  1       -2 0.40276132E-01 0.74151838E+03</pdfrwt>
<totfact> 0.40573556E+02</totfact>
</mgrwt>
</event>
<event>
 4    1  0.2892809E-005  0.6051774E+03  0.7818608E-02  0.9894722E-01
         -2   -1    0    0    0  501 -0.00000000000E+00  0.00000000000E+00  0.12065710044E+03  0.12065710046E+03  0.25500000000E-02 0. -1.
          2   -1    0    0  501    0  0.00000000000E+00 -0.00000000000E+00 -0.75884407968E+03  0.75884407968E+03  0.25500000000E-02 0.  1.
    5000001    1    1    2    0    0  0.18550541900E+03 -0.62621009676E+02 -0.13319512998E+03  0.30485831788E+03  0.19200000000E+03 0.  0.
   -5000001    1    1    2    0    0 -0.18550541900E+03  0.62621009676E+02 -0.50499184926E+03  0.57464286226E+03  0.19200000000E+03 0.  0.
<mgrwt>
<rscale>  0 0.60517742E+03</rscale>
<asrwt>0</asrwt>
<pdfrwt beam="1">  1        2 0.10840629E+00 0.60517742E+03</pdfrwt>
<pdfrwt beam="2">  1       -2 0.17236729E-01 0.60517742E+03</pdfrwt>
<totfact> 0.11264693E+03</totfact>
</mgrwt>
</event>
<event>
 4    1  0.2892809E-005  0.1021690E+04  0.7818608E-02  0.9285071E-01
          2   -1    0    0  501    0  0.00000000000E+00  0.00000000000E+00  0.11264187899E+04  0.11264187899E+04  0.25500000000E-02 0. -1.
         -2   -1    0    0    0  501 -0.00000000000E+00 -0.00000000000E+00 -0.23167452934E+03  0.23167452936E+03  0.25500000000E-02 0.  1.
    5000001    1    1    2    0    0 -0.45684585397E+03  0.12325794279E+03  0.42867303782E+03  0.66672725166E+03  0.19200000000E+03 0.  0.
   -5000001    1    1    2    0    0  0.45684585397E+03 -0.12325794279E+03  0.46607122270E+03  0.69136606757E+03  0.19200000000E+03 0.  0.
<mgrwt>
<rscale>  0 0.10216899E+04</rscale>
<asrwt>0</asrwt>
<pdfrwt beam="1">  1        2 0.16091697E+00 0.10216899E+04</pdfrwt>
<pdfrwt beam="2">  1       -2 0.33096361E-01 0.10216899E+04</pdfrwt>
<totfact> 0.19987053E+02</totfact>
</mgrwt>
</event>
<event>
 4    1  0.2892809E-005  0.8143284E+03  0.7818608E-02  0.9539506E-01
          2   -1    0    0  501    0  0.00000000000E+00  0.00000000000E+00  0.21912466362E+04  0.21912466362E+04  0.25500000000E-02 0.  1.
         -2   -1    0    0    0  501 -0.00000000000E+00 -0.00000000000E+00 -0.75656786994E+02  0.75656787037E+02  0.25500000000E-02 0. -1.
    5000001    1    1    2    0    0  0.26228068062E+02 -0.32889694731E+03  0.66354414073E+03  0.76551677983E+03  0.19200000000E+03 0.  0.
   -5000001    1    1    2    0    0 -0.26228068062E+02  0.32889694731E+03  0.14520457085E+04  0.15013866434E+04  0.19200000000E+03 0.  0.
<mgrwt>
<rscale>  0 0.81432839E+03</rscale>
<asrwt>0</asrwt>
<pdfrwt beam="1">  1        2 0.31303523E+00 0.81432839E+03</pdfrwt>
<pdfrwt beam="2">  1       -2 0.10808113E-01 0.81432839E+03</pdfrwt>
<totfact> 0.39398517E+02</totfact>
</mgrwt>
</event>
<event>
 4    1  0.2892809E-005  0.7042224E+03  0.7818608E-02  0.9710039E-01
          2   -1    0    0  501    0  0.00000000000E+00  0.00000000000E+00  0.25133792641E+04  0.25133792641E+04  0.25500000000E-02 0.  1.
         -2   -1    0    0    0  501 -0.00000000000E+00 -0.00000000000E+00 -0.49328918301E+02  0.49328918366E+02  0.25500000000E-02 0. -1.
    5000001    1    1    2    0    0  0.87684704772E+01 -0.27582132874E+03  0.16130678726E+04  0.16477276028E+04  0.19200000000E+03 0.  0.
   -5000001    1    1    2    0    0 -0.87684704772E+01  0.27582132874E+03  0.85098247328E+03  0.91498057974E+03  0.19200000000E+03 0.  0.
<mgrwt>
<rscale>  0 0.70422235E+03</rscale>
<asrwt>0</asrwt>
<pdfrwt beam="1">  1        2 0.35905421E+00 0.70422235E+03</pdfrwt>
<pdfrwt beam="2">  1       -2 0.70469878E-02 0.70422235E+03</pdfrwt>
<totfact> 0.54147446E+02</totfact>
</mgrwt>
</event>
<event>
 4    1  0.2892809E-005  0.5453386E+03  0.7818608E-02  0.1002579E+00
         -2   -1    0    0    0  501 -0.00000000000E+00  0.00000000000E+00  0.44299519621E+02  0.44299519694E+02  0.25500000000E-02 0. -1.
          2   -1    0    0  501    0  0.00000000000E+00 -0.00000000000E+00 -0.16783150338E+04  0.16783150338E+04  0.25500000000E-02 0.  1.
    5000001    1    1    2    0    0  0.14916932823E+03 -0.15643674062E+02 -0.12037294972E+04  0.12281388014E+04  0.19200000000E+03 0.  0.
   -5000001    1    1    2    0    0 -0.14916932823E+03  0.15643674062E+02 -0.43028601698E+03  0.49447575212E+03  0.19200000000E+03 0.  0.
<mgrwt>
<rscale>  0 0.54533861E+03</rscale>
<asrwt>0</asrwt>
<pdfrwt beam="1">  1        2 0.23975925E+00 0.54533861E+03</pdfrwt>
<pdfrwt beam="2">  1       -2 0.63285039E-02 0.54533861E+03</pdfrwt>
<totfact> 0.17135743E+03</totfact>
</mgrwt>
</event>
<event>
 4    1  0.2892809E-005  0.7061376E+03  0.7818608E-02  0.9706793E-01
         -2   -1    0    0    0  501 -0.00000000000E+00  0.00000000000E+00  0.14461182710E+03  0.14461182712E+03  0.25500000000E-02 0. -1.
          2   -1    0    0  501    0  0.00000000000E+00 -0.00000000000E+00 -0.86201506941E+03  0.86201506942E+03  0.25500000000E-02 0.  1.
    5000001    1    1    2    0    0 -0.23200717636E+03  0.17165576264E+03 -0.26306776254E+03  0.43515707327E+03  0.19200000000E+03 0.  0.
   -5000001    1    1    2    0    0  0.23200717636E+03 -0.17165576264E+03 -0.45433547977E+03  0.57146982327E+03  0.19200000000E+03 0.  0.
<mgrwt>
<rscale>  0 0.70613759E+03</rscale>
<asrwt>0</asrwt>
<pdfrwt beam="1">  1        2 0.12314501E+00 0.70613759E+03</pdfrwt>
<pdfrwt beam="2">  1       -2 0.20658833E-01 0.70613759E+03</pdfrwt>
<totfact> 0.69699387E+02</totfact>
</mgrwt>
</event>
<event>
 4    1  0.2892809E-005  0.6151301E+03  0.7818608E-02  0.9874504E-01
         -2   -1    0    0    0  501 -0.00000000000E+00  0.00000000000E+00  0.46845978068E+03  0.46845978069E+03  0.25500000000E-02 0.  1.
          2   -1    0    0  501    0  0.00000000000E+00 -0.00000000000E+00 -0.20193038614E+03  0.20193038616E+03  0.25500000000E-02 0. -1.
    5000001    1    1    2    0    0  0.13462947734E+03  0.72833158127E+02 -0.68582874310E+02  0.25494582903E+03  0.19200000000E+03 0.  0.
   -5000001    1    1    2    0    0 -0.13462947734E+03 -0.72833158127E+02  0.33511226885E+03  0.41544433782E+03  0.19200000000E+03 0.  0.
<mgrwt>
<rscale>  0 0.61513011E+03</rscale>
<asrwt>0</asrwt>
<pdfrwt beam="1">  1        2 0.28847197E-01 0.61513011E+03</pdfrwt>
<pdfrwt beam="2">  1       -2 0.66922827E-01 0.61513011E+03</pdfrwt>
<totfact> 0.38499883E+02</totfact>
</mgrwt>
</event>
<event>
 4    1  0.2892809E-005  0.6518376E+03  0.7818608E-02  0.9803337E-01
          2   -1    0    0  501    0  0.00000000000E+00  0.00000000000E+00  0.63792921322E+03  0.63792921323E+03  0.25500000000E-02 0.  1.
         -2   -1    0    0    0  501 -0.00000000000E+00 -0.00000000000E+00 -0.16651233064E+03  0.16651233066E+03  0.25500000000E-02 0. -1.
    5000001    1    1    2    0    0 -0.13852165774E+03  0.15931856704E+03  0.43001144462E+03  0.51608574672E+03  0.19200000000E+03 0.  0.
   -5000001    1    1    2    0    0  0.13852165774E+03 -0.15931856704E+03  0.41405437964E+02  0.28835579717E+03  0.19200000000E+03 0.  0.
<mgrwt>
<rscale>  0 0.65183765E+03</rscale>
<asrwt>0</asrwt>
<pdfrwt beam="1">  1        2 0.91132745E-01 0.65183765E+03</pdfrwt>
<pdfrwt beam="2">  1       -2 0.23787476E-01 0.65183765E+03</pdfrwt>
<totfact> 0.79305844E+02</totfact>
</mgrwt>
</event>
<event>
 4    1  0.2892809E-005  0.4895141E+03  0.7818608E-02  0.1016553E+00
          2   -1    0    0  501    0  0.00000000000E+00  0.00000000000E+00  0.17082361577E+04  0.17082361577E+04  0.25500000000E-02 0.  1.
         -2   -1    0    0    0  501 -0.00000000000E+00 -0.00000000000E+00 -0.35068934728E+02  0.35068934821E+02  0.25500000000E-02 0. -1.
    5000001    1    1    2    0    0 -0.10601032145E+03  0.10658391025E+03  0.91159979062E+03  0.94365062202E+03  0.19200000000E+03 0.  0.
   -5000001    1    1    2    0    0  0.10601032145E+03 -0.10658391025E+03  0.76156743234E+03  0.79965447049E+03  0.19200000000E+03 0.  0.
<mgrwt>
<rscale>  0 0.48951414E+03</rscale>
<asrwt>0</asrwt>
<pdfrwt beam="1">  1        2 0.24403370E+00 0.48951414E+03</pdfrwt>
<pdfrwt beam="2">  1       -2 0.50098487E-02 0.48951414E+03</pdfrwt>
<totfact> 0.23842511E+03</totfact>
</mgrwt>
</event>
<event>
 4    1  0.2892809E-005  0.6207762E+03  0.7818608E-02  0.9863215E-01
         -2   -1    0    0    0  501 -0.00000000000E+00  0.00000000000E+00  0.64313423376E+02  0.64313423426E+02  0.25500000000E-02 0. -1.
          2   -1    0    0  501    0  0.00000000000E+00 -0.00000000000E+00 -0.14979887832E+04  0.14979887832E+04  0.25500000000E-02 0.  1.
    5000001    1    1    2    0    0 -0.15363124817E+03 -0.86651687734E+02 -0.29297342206E+03  0.39218426974E+03  0.19200000000E+03 0.  0.
   -5000001    1    1    2    0    0  0.15363124817E+03  0.86651687734E+02 -0.11407019378E+04  0.11701179369E+04  0.19200000000E+03 0.  0.
<mgrwt>
<rscale>  0 0.62077625E+03</rscale>
<asrwt>0</asrwt>
<pdfrwt beam="1">  1        2 0.21399838E+00 0.62077625E+03</pdfrwt>
<pdfrwt beam="2">  1       -2 0.91876328E-02 0.62077625E+03</pdfrwt>
<totfact> 0.11703062E+03</totfact>
</mgrwt>
</event>
<event>
 4    1  0.2892809E-005  0.9400879E+03  0.7818608E-02  0.9376812E-01
         -2   -1    0    0    0  501 -0.00000000000E+00  0.00000000000E+00  0.64133165981E+03  0.64133165982E+03  0.25500000000E-02 0. -1.
          2   -1    0    0  501    0  0.00000000000E+00 -0.00000000000E+00 -0.34450398167E+03  0.34450398168E+03  0.25500000000E-02 0.  1.
    5000001    1    1    2    0    0  0.81309281157E+02 -0.34430850620E+03 -0.10612800394E+03  0.41627719115E+03  0.19200000000E+03 0.  0.
   -5000001    1    1    2    0    0 -0.81309281157E+02  0.34430850620E+03  0.40295568208E+03  0.56955845035E+03  0.19200000000E+03 0.  0.
<mgrwt>
<rscale>  0 0.94008789E+03</rscale>
<asrwt>0</asrwt>
<pdfrwt beam="1">  1        2 0.49214855E-01 0.94008789E+03</pdfrwt>
<pdfrwt beam="2">  1       -2 0.91618807E-01 0.94008789E+03</pdfrwt>
<totfact> 0.10386611E+02</totfact>
</mgrwt>
</event>
<event>
 4    1  0.2892809E-005  0.5106427E+03  0.7818608E-02  0.1011038E+00
         -2   -1    0    0    0  501 -0.00000000000E+00  0.00000000000E+00  0.21413863995E+02  0.21413864147E+02  0.25500000000E-02 0. -1.
          2   -1    0    0  501    0  0.00000000000E+00 -0.00000000000E+00 -0.30442428528E+04  0.30442428528E+04  0.25500000000E-02 0.  1.
    5000001    1    1    2    0    0 -0.15980579870E+03  0.20093934097E+02 -0.18045035810E+04  0.18218229424E+04  0.19200000000E+03 0.  0.
   -5000001    1    1    2    0    0  0.15980579870E+03 -0.20093934097E+02 -0.12183254077E+04  0.12438337745E+04  0.19200000000E+03 0.  0.
<mgrwt>
<rscale>  0 0.51064274E+03</rscale>
<asrwt>0</asrwt>
<pdfrwt beam="1">  1        2 0.43489156E+00 0.51064274E+03</pdfrwt>
<pdfrwt beam="2">  1       -2 0.30591254E-02 0.51064274E+03</pdfrwt>
<totfact> 0.10491980E+03</totfact>
</mgrwt>
</event>
<event>
 4    1  0.2892809E-005  0.4845516E+03  0.7818608E-02  0.1017892E+00
         -2   -1    0    0    0  501 -0.00000000000E+00  0.00000000000E+00  0.80894803069E+02  0.80894803109E+02  0.25500000000E-02 0. -1.
          2   -1    0    0  501    0  0.00000000000E+00 -0.00000000000E+00 -0.72560353056E+03  0.72560353057E+03  0.25500000000E-02 0.  1.
    5000001    1    1    2    0    0 -0.89241067296E+02  0.45775965720E+02 -0.50295871603E+03  0.54762293338E+03  0.19200000000E+03 0.  0.
   -5000001    1    1    2    0    0  0.89241067296E+02 -0.45775965720E+02 -0.14175001146E+03  0.25887540030E+03  0.19200000000E+03 0.  0.
<mgrwt>
<rscale>  0 0.48455156E+03</rscale>
<asrwt>0</asrwt>
<pdfrwt beam="1">  1        2 0.10365764E+00 0.48455156E+03</pdfrwt>
<pdfrwt beam="2">  1       -2 0.11556401E-01 0.48455156E+03</pdfrwt>
<totfact> 0.23228960E+03</totfact>
</mgrwt>
</event>
<event>
 4    1  0.2892809E-005  0.6195113E+03  0.7818608E-02  0.9865733E-01
         -2   -1    0    0    0  501 -0.00000000000E+00  0.00000000000E+00  0.57919607974E+02  0.57919608030E+02  0.25500000000E-02 0. -1.
          2   -1    0    0  501    0  0.00000000000E+00 -0.00000000000E+00 -0.16565818943E+04  0.16565818943E+04  0.25500000000E-02 0.  1.
    5000001    1    1    2    0    0  0.13199606537E+03  0.18885840473E+03 -0.58506617504E+03  0.65746246089E+03  0.19200000000E+03 0.  0.
   -5000001    1    1    2    0    0 -0.13199606537E+03 -0.18885840473E+03 -0.10135961113E+04  0.10570390415E+04  0.19200000000E+03 0.  0.
<mgrwt>
<rscale>  0 0.61951134E+03</rscale>
<asrwt>0</asrwt>
<pdfrwt beam="1">  1        2 0.23665453E+00 0.61951134E+03</pdfrwt>
<pdfrwt beam="2">  1       -2 0.82742308E-02 0.61951134E+03</pdfrwt>
<totfact> 0.11466541E+03</totfact>
</mgrwt>
</event>
<event>
 4    1  0.2892809E-005  0.8217425E+03  0.7818608E-02  0.9529068E-01
          2   -1    0    0  501    0  0.00000000000E+00  0.00000000000E+00  0.19054213513E+03  0.19054213515E+03  0.25500000000E-02 0.  1.
         -2   -1    0    0    0  501 -0.00000000000E+00 -0.00000000000E+00 -0.88597302174E+03  0.88597302174E+03  0.25500000000E-02 0. -1.
    5000001    1    1    2    0    0  0.13786447042E+03  0.33299134287E+03 -0.40719390002E+03  0.57668077725E+03  0.19200000000E+03 0.  0.
   -5000001    1    1    2    0    0 -0.13786447042E+03 -0.33299134287E+03 -0.28823698659E+03  0.49983437964E+03  0.19200000000E+03 0.  0.
<mgrwt>
<rscale>  0 0.82174252E+03</rscale>
<asrwt>0</asrwt>
<pdfrwt beam="1">  1        2 0.27220305E-01 0.82174252E+03</pdfrwt>
<pdfrwt beam="2">  1       -2 0.12656757E+00 0.82174252E+03</pdfrwt>
<totfact> 0.92987171E+01</totfact>
</mgrwt>
</event>
<event>
 4    1  0.2892809E-005  0.7353930E+03  0.7818608E-02  0.9658549E-01
         -2   -1    0    0    0  501 -0.00000000000E+00  0.00000000000E+00  0.41096184132E+03  0.41096184132E+03  0.25500000000E-02 0. -1.
          2   -1    0    0  501    0  0.00000000000E+00 -0.00000000000E+00 -0.32898607556E+03  0.32898607557E+03  0.25500000000E-02 0.  1.
    5000001    1    1    2    0    0 -0.17957511858E+03 -0.11742560414E+03  0.27109789443E+03  0.39546689379E+03  0.19200000000E+03 0.  0.
   -5000001    1    1    2    0    0  0.17957511858E+03  0.11742560414E+03 -0.18912212868E+03  0.34448102310E+03  0.19200000000E+03 0.  0.
<mgrwt>
<rscale>  0 0.73539302E+03</rscale>
<asrwt>0</asrwt>
<pdfrwt beam="1">  1        2 0.46998011E-01 0.73539302E+03</pdfrwt>
<pdfrwt beam="2">  1       -2 0.58708834E-01 0.73539302E+03</pdfrwt>
<totfact> 0.29424974E+02</totfact>
</mgrwt>
</event>
<event>
 4    1  0.2892809E-005  0.6908616E+03  0.7818608E-02  0.9732989E-01
         -2   -1    0    0    0  501 -0.00000000000E+00  0.00000000000E+00  0.40504548303E+02  0.40504548384E+02  0.25500000000E-02 0. -1.
          2   -1    0    0  501    0  0.00000000000E+00 -0.00000000000E+00 -0.29459020337E+04  0.29459020337E+04  0.25500000000E-02 0.  1.
    5000001    1    1    2    0    0 -0.20773786209E+03 -0.54058149365E+02 -0.62818865323E+03  0.69105881580E+03  0.19200000000E+03 0.  0.
   -5000001    1    1    2    0    0  0.20773786209E+03  0.54058149365E+02 -0.22772088322E+04  0.22953477663E+04  0.19200000000E+03 0.  0.
<mgrwt>
<rscale>  0 0.69086158E+03</rscale>
<asrwt>0</asrwt>
<pdfrwt beam="1">  1        2 0.42084301E+00 0.69086158E+03</pdfrwt>
<pdfrwt beam="2">  1       -2 0.57863660E-02 0.69086158E+03</pdfrwt>
<totfact> 0.43715119E+02</totfact>
</mgrwt>
</event>
<event>
 4    1  0.2892809E-005  0.6740166E+03  0.7818608E-02  0.9762729E-01
          2   -1    0    0  501    0  0.00000000000E+00  0.00000000000E+00  0.92771763663E+03  0.92771763663E+03  0.25500000000E-02 0.  1.
         -2   -1    0    0    0  501 -0.00000000000E+00 -0.00000000000E+00 -0.12242365963E+03  0.12242365966E+03  0.25500000000E-02 0. -1.
    5000001    1    1    2    0    0  0.13243412598E+03 -0.69168106095E+02  0.76599848911E+03  0.80370436725E+03  0.19200000000E+03 0.  0.
   -5000001    1    1    2    0    0 -0.13243412598E+03  0.69168106095E+02  0.39295487891E+02  0.24643692904E+03  0.19200000000E+03 0.  0.
<mgrwt>
<rscale>  0 0.67401658E+03</rscale>
<asrwt>0</asrwt>
<pdfrwt beam="1">  1        2 0.13253109E+00 0.67401658E+03</pdfrwt>
<pdfrwt beam="2">  1       -2 0.17489094E-01 0.67401658E+03</pdfrwt>
<totfact> 0.84404920E+02</totfact>
</mgrwt>
</event>
<event>
 4    1  0.2892809E-005  0.6250691E+03  0.7818608E-02  0.9854719E-01
         -2   -1    0    0    0  501 -0.00000000000E+00  0.00000000000E+00  0.45118803288E+02  0.45118803360E+02  0.25500000000E-02 0. -1.
          2   -1    0    0  501    0  0.00000000000E+00 -0.00000000000E+00 -0.21649033242E+04  0.21649033242E+04  0.25500000000E-02 0.  1.
    5000001    1    1    2    0    0  0.84403327713E+02  0.22594163366E+03 -0.87821710820E+03  0.93075390554E+03  0.19200000000E+03 0.  0.
   -5000001    1    1    2    0    0 -0.84403327713E+02 -0.22594163366E+03 -0.12415674127E+04  0.12792682220E+04  0.19200000000E+03 0.  0.
<mgrwt>
<rscale>  0 0.62506911E+03</rscale>
<asrwt>0</asrwt>
<pdfrwt beam="1">  1        2 0.30927184E+00 0.62506911E+03</pdfrwt>
<pdfrwt beam="2">  1       -2 0.64455447E-02 0.62506911E+03</pdfrwt>
<totfact> 0.94343746E+02</totfact>
</mgrwt>
</event>
<event>
 4    1  0.2892809E-005  0.8883103E+03  0.7818608E-02  0.9440313E-01
         -2   -1    0    0    0  501 -0.00000000000E+00  0.00000000000E+00  0.19570469711E+03  0.19570469712E+03  0.25500000000E-02 0. -1.
          2   -1    0    0  501    0  0.00000000000E+00 -0.00000000000E+00 -0.10080177693E+04  0.10080177693E+04  0.25500000000E-02 0.  1.
    5000001    1    1    2    0    0  0.22146252853E+03 -0.28871888230E+03 -0.63292561832E+03  0.75489276250E+03  0.19200000000E+03 0.  0.
   -5000001    1    1    2    0    0 -0.22146252853E+03  0.28871888230E+03 -0.17938745390E+03  0.44882970396E+03  0.19200000000E+03 0.  0.
<mgrwt>
<rscale>  0 0.88831033E+03</rscale>
<asrwt>0</asrwt>
<pdfrwt beam="1">  1        2 0.14400254E+00 0.88831033E+03</pdfrwt>
<pdfrwt beam="2">  1       -2 0.27957814E-01 0.88831033E+03</pdfrwt>
<totfact> 0.32445270E+02</totfact>
</mgrwt>
</event>
<event>
 4    1  0.2892809E-005  0.4462755E+03  0.7818608E-02  0.1028839E+00
          2   -1    0    0  501    0  0.00000000000E+00  0.00000000000E+00  0.30944868074E+03  0.30944868075E+03  0.25500000000E-02 0.  1.
         -2   -1    0    0    0  501 -0.00000000000E+00 -0.00000000000E+00 -0.16090053158E+03  0.16090053160E+03  0.25500000000E-02 0. -1.
    5000001    1    1    2    0    0  0.79426916544E+02 -0.44765947133E+02  0.26847503103E+01  0.21256489122E+03  0.19200000000E+03 0.  0.
   -5000001    1    1    2    0    0 -0.79426916544E+02  0.44765947133E+02  0.14586339885E+03  0.25778432113E+03  0.19200000000E+03 0.  0.
<mgrwt>
<rscale>  0 0.44627551E+03</rscale>
<asrwt>0</asrwt>
<pdfrwt beam="1">  1        2 0.44206954E-01 0.44627551E+03</pdfrwt>
<pdfrwt beam="2">  1       -2 0.22985790E-01 0.44627551E+03</pdfrwt>
<totfact> 0.19054672E+03</totfact>
</mgrwt>
</event>
<event>
 4    1  0.2892809E-005  0.5198304E+03  0.7818608E-02  0.1008729E+00
          2   -1    0    0  501    0  0.00000000000E+00  0.00000000000E+00  0.21247476559E+04  0.21247476559E+04  0.25500000000E-02 0.  1.
         -2   -1    0    0    0  501 -0.00000000000E+00 -0.00000000000E+00 -0.31794788674E+02  0.31794788776E+02  0.25500000000E-02 0. -1.
    5000001    1    1    2    0    0 -0.13839190216E+03  0.10624273062E+03  0.98061155994E+03  0.10143484943E+04  0.19200000000E+03 0.  0.
   -5000001    1    1    2    0    0  0.13839190216E+03 -0.10624273062E+03  0.11123413073E+04  0.11421939504E+04  0.19200000000E+03 0.  0.
<mgrwt>
<rscale>  0 0.51983037E+03</rscale>
<asrwt>0</asrwt>
<pdfrwt beam="1">  1        2 0.30353542E+00 0.51983037E+03</pdfrwt>
<pdfrwt beam="2">  1       -2 0.45421121E-02 0.51983037E+03</pdfrwt>
<totfact> 0.17139439E+03</totfact>
</mgrwt>
</event>
<event>
 4    1  0.2892809E-005  0.5705152E+03  0.7818608E-02  0.9968539E-01
         -2   -1    0    0    0  501 -0.00000000000E+00  0.00000000000E+00  0.34772321761E+03  0.34772321761E+03  0.25500000000E-02 0. -1.
          2   -1    0    0  501    0  0.00000000000E+00 -0.00000000000E+00 -0.23401342801E+03  0.23401342802E+03  0.25500000000E-02 0.  1.
    5000001    1    1    2    0    0 -0.11689318494E+03  0.12073738128E+03  0.18690314677E+03  0.31628834660E+03  0.19200000000E+03 0.  0.
   -5000001    1    1    2    0    0  0.11689318494E+03 -0.12073738128E+03 -0.73193357171E+02  0.26544829903E+03  0.19200000000E+03 0.  0.
<mgrwt>
<rscale>  0 0.57051521E+03</rscale>
<asrwt>0</asrwt>
<pdfrwt beam="1">  1        2 0.33430490E-01 0.57051521E+03</pdfrwt>
<pdfrwt beam="2">  1       -2 0.49674745E-01 0.57051521E+03</pdfrwt>
<totfact> 0.60809728E+02</totfact>
</mgrwt>
</event>
<event>
 4    1  0.2892809E-005  0.5332396E+03  0.7818608E-02  0.1005449E+00
         -2   -1    0    0    0  501 -0.00000000000E+00  0.00000000000E+00  0.59664250022E+03  0.59664250022E+03  0.25500000000E-02 0. -1.
          2   -1    0    0  501    0  0.00000000000E+00 -0.00000000000E+00 -0.11914358446E+03  0.11914358449E+03  0.25500000000E-02 0.  1.
    5000001    1    1    2    0    0 -0.14096444276E+03  0.10577385716E+03  0.16325529222E+03  0.30753109342E+03  0.19200000000E+03 0.  0.
   -5000001    1    1    2    0    0  0.14096444276E+03 -0.10577385716E+03  0.31424362354E+03  0.40825499130E+03  0.19200000000E+03 0.  0.
<mgrwt>
<rscale>  0 0.53323963E+03</rscale>
<asrwt>0</asrwt>
<pdfrwt beam="1">  1        2 0.17020512E-01 0.53323963E+03</pdfrwt>
<pdfrwt beam="2">  1       -2 0.85234645E-01 0.53323963E+03</pdfrwt>
<totfact> 0.41622319E+02</totfact>
</mgrwt>
</event>
<event>
 4    1  0.2892809E-005  0.5462819E+03  0.7818608E-02  0.1002358E+00
          2   -1    0    0  501    0  0.00000000000E+00  0.00000000000E+00  0.10764856765E+04  0.10764856765E+04  0.25500000000E-02 0.  1.
         -2   -1    0    0    0  501 -0.00000000000E+00 -0.00000000000E+00 -0.69305138359E+02  0.69305138406E+02  0.25500000000E-02 0. -1.
    5000001    1    1    2    0    0 -0.60755071294E+02  0.18176847567E+03  0.57028181817E+03  0.63151904926E+03  0.19200000000E+03 0.  0.
   -5000001    1    1    2    0    0  0.60755071294E+02 -0.18176847567E+03  0.43689871997E+03  0.51427176565E+03  0.19200000000E+03 0.  0.
<mgrwt>
<rscale>  0 0.54628194E+03</rscale>
<asrwt>0</asrwt>
<pdfrwt beam="1">  1        2 0.15378365E+00 0.54628194E+03</pdfrwt>
<pdfrwt beam="2">  1       -2 0.99007350E-02 0.54628194E+03</pdfrwt>
<totfact> 0.17692161E+03</totfact>
</mgrwt>
</event>
<event>
 4    1  0.2892809E-005  0.7534744E+03  0.7818608E-02  0.9629915E-01
         -2   -1    0    0    0  501 -0.00000000000E+00  0.00000000000E+00  0.99899522384E+02  0.99899522417E+02  0.25500000000E-02 0. -1.
          2   -1    0    0  501    0  0.00000000000E+00 -0.00000000000E+00 -0.14207368213E+04  0.14207368213E+04  0.25500000000E-02 0.  1.
    5000001    1    1    2    0    0 -0.46895475674E+02 -0.30894995454E+03 -0.83423498764E+03  0.91129648010E+03  0.19200000000E+03 0.  0.
   -5000001    1    1    2    0    0  0.46895475674E+02  0.30894995454E+03 -0.48660231125E+03  0.60933986359E+03  0.19200000000E+03 0.  0.
<mgrwt>
<rscale>  0 0.75347443E+03</rscale>
<asrwt>0</asrwt>
<pdfrwt beam="1">  1        2 0.20296239E+00 0.75347443E+03</pdfrwt>
<pdfrwt beam="2">  1       -2 0.14271361E-01 0.75347443E+03</pdfrwt>
<totfact> 0.61943366E+02</totfact>
</mgrwt>
</event>
<event>
 4    1  0.2892809E-005  0.6244161E+03  0.7818608E-02  0.9856006E-01
         -2   -1    0    0    0  501 -0.00000000000E+00  0.00000000000E+00  0.29395149068E+02  0.29395149179E+02  0.25500000000E-02 0. -1.
          2   -1    0    0  501    0  0.00000000000E+00 -0.00000000000E+00 -0.33159844391E+04  0.33159844391E+04  0.25500000000E-02 0.  1.
    5000001    1    1    2    0    0  0.48669767966E+02 -0.12693137069E+03 -0.54361881666E+03  0.59233920773E+03  0.19200000000E+03 0.  0.
   -5000001    1    1    2    0    0 -0.48669767966E+02  0.12693137069E+03 -0.27429704734E+04  0.27530403805E+04  0.19200000000E+03 0.  0.
<mgrwt>
<rscale>  0 0.62441607E+03</rscale>
<asrwt>0</asrwt>
<pdfrwt beam="1">  1        2 0.47371183E+00 0.62441607E+03</pdfrwt>
<pdfrwt beam="2">  1       -2 0.41993091E-02 0.62441607E+03</pdfrwt>
<totfact> 0.45050984E+02</totfact>
</mgrwt>
</event>
<event>
 4    1  0.2892809E-005  0.5904193E+03  0.7818608E-02  0.9925485E-01
         -2   -1    0    0    0  501 -0.00000000000E+00  0.00000000000E+00  0.33573763508E+02  0.33573763605E+02  0.25500000000E-02 0. -1.
          2   -1    0    0  501    0  0.00000000000E+00 -0.00000000000E+00 -0.25957389041E+04  0.25957389041E+04  0.25500000000E-02 0.  1.
    5000001    1    1    2    0    0 -0.21675512395E+03 -0.11940433894E+02 -0.10307705382E+04  0.10707367838E+04  0.19200000000E+03 0.  0.
   -5000001    1    1    2    0    0  0.21675512395E+03  0.11940433894E+02 -0.15313946023E+04  0.15585758839E+04  0.19200000000E+03 0.  0.
<mgrwt>
<rscale>  0 0.59041926E+03</rscale>
<asrwt>0</asrwt>
<pdfrwt beam="1">  1        2 0.37081972E+00 0.59041926E+03</pdfrwt>
<pdfrwt beam="2">  1       -2 0.47962536E-02 0.59041926E+03</pdfrwt>
<totfact> 0.90484514E+02</totfact>
</mgrwt>
</event>
<event>
 4    1  0.2892809E-005  0.9019705E+03  0.7818608E-02  0.9423122E-01
         -2   -1    0    0    0  501 -0.00000000000E+00  0.00000000000E+00  0.15392628562E+03  0.15392628564E+03  0.25500000000E-02 0. -1.
          2   -1    0    0  501    0  0.00000000000E+00 -0.00000000000E+00 -0.13213316862E+04  0.13213316862E+04  0.25500000000E-02 0.  1.
    5000001    1    1    2    0    0 -0.15166550904E+03  0.14697656938E+03 -0.11548019637E+04  0.11895529050E+04  0.19200000000E+03 0.  0.
   -5000001    1    1    2    0    0  0.15166550904E+03 -0.14697656938E+03 -0.12603436924E+02  0.28570506681E+03  0.19200000000E+03 0.  0.
<mgrwt>
<rscale>  0 0.90197046E+03</rscale>
<asrwt>0</asrwt>
<pdfrwt beam="1">  1        2 0.18876166E+00 0.90197046E+03</pdfrwt>
<pdfrwt beam="2">  1       -2 0.21989470E-01 0.90197046E+03</pdfrwt>
<totfact> 0.32992105E+02</totfact>
</mgrwt>
</event>
<event>
 4    1  0.2892809E-005  0.4677160E+03  0.7818608E-02  0.1022567E+00
          2   -1    0    0  501    0  0.00000000000E+00  0.00000000000E+00  0.91553978794E+03  0.91553978795E+03  0.25500000000E-02 0.  1.
         -2   -1    0    0    0  501 -0.00000000000E+00 -0.00000000000E+00 -0.59734780572E+02  0.59734780626E+02  0.25500000000E-02 0. -1.
    5000001    1    1    2    0    0 -0.12904616815E+03  0.35311605897E+01  0.49892704221E+03  0.54996143143E+03  0.19200000000E+03 0.  0.
   -5000001    1    1    2    0    0  0.12904616815E+03 -0.35311605897E+01  0.35687796516E+03  0.42531313715E+03  0.19200000000E+03 0.  0.
<mgrwt>
<rscale>  0 0.46771602E+03</rscale>
<asrwt>0</asrwt>
<pdfrwt beam="1">  1        2 0.13079138E+00 0.46771602E+03</pdfrwt>
<pdfrwt beam="2">  1       -2 0.85335410E-02 0.46771602E+03</pdfrwt>
<totfact> 0.28132627E+03</totfact>
</mgrwt>
</event>
<event>
 4    1  0.2892809E-005  0.6570789E+03  0.7818608E-02  0.9793586E-01
         -2   -1    0    0    0  501 -0.00000000000E+00  0.00000000000E+00  0.45467963570E+02  0.45467963641E+02  0.25500000000E-02 0. -1.
          2   -1    0    0  501    0  0.00000000000E+00 -0.00000000000E+00 -0.23739387363E+04  0.23739387363E+04  0.25500000000E-02 0.  1.
    5000001    1    1    2    0    0  0.12436473774E+03 -0.91381811262E+02 -0.19646668668E+04  0.19800497774E+04  0.19200000000E+03 0.  0.
   -5000001    1    1    2    0    0 -0.12436473774E+03  0.91381811262E+02 -0.36380390590E+03  0.43935692252E+03  0.19200000000E+03 0.  0.
<mgrwt>
<rscale>  0 0.65707887E+03</rscale>
<asrwt>0</asrwt>
<pdfrwt beam="1">  1        2 0.33913403E+00 0.65707887E+03</pdfrwt>
<pdfrwt beam="2">  1       -2 0.64954249E-02 0.65707887E+03</pdfrwt>
<totfact> 0.72882507E+02</totfact>
</mgrwt>
</event>
<event>
 4    1  0.2892809E-005  0.5219859E+03  0.7818608E-02  0.1008194E+00
         -2   -1    0    0    0  501 -0.00000000000E+00  0.00000000000E+00  0.48943271025E+02  0.48943271092E+02  0.25500000000E-02 0. -1.
          2   -1    0    0  501    0  0.00000000000E+00 -0.00000000000E+00 -0.13917607020E+04  0.13917607020E+04  0.25500000000E-02 0.  1.
    5000001    1    1    2    0    0 -0.10751364107E+03  0.43729097448E+02 -0.30336016462E+03  0.37730996072E+03  0.19200000000E+03 0.  0.
   -5000001    1    1    2    0    0  0.10751364107E+03 -0.43729097448E+02 -0.10394572664E+04  0.10633940124E+04  0.19200000000E+03 0.  0.
<mgrwt>
<rscale>  0 0.52198591E+03</rscale>
<asrwt>0</asrwt>
<pdfrwt beam="1">  1        2 0.19882293E+00 0.52198591E+03</pdfrwt>
<pdfrwt beam="2">  1       -2 0.69918967E-02 0.52198591E+03</pdfrwt>
<totfact> 0.20620540E+03</totfact>
</mgrwt>
</event>
<event>
 4    1  0.2892809E-005  0.9245648E+03  0.7818608E-02  0.9395385E-01
          2   -1    0    0  501    0  0.00000000000E+00  0.00000000000E+00  0.27778486434E+04  0.27778486434E+04  0.25500000000E-02 0.  1.
         -2   -1    0    0    0  501 -0.00000000000E+00 -0.00000000000E+00 -0.76931845651E+02  0.76931845693E+02  0.25500000000E-02 0. -1.
    5000001    1    1    2    0    0  0.41629170949E+03 -0.59332180027E+02  0.13359994602E+04  0.14137105972E+04  0.19200000000E+03 0.  0.
   -5000001    1    1    2    0    0 -0.41629170949E+03  0.59332180027E+02  0.13649173375E+04  0.14410698919E+04  0.19200000000E+03 0.  0.
<mgrwt>
<rscale>  0 0.92456481E+03</rscale>
<asrwt>0</asrwt>
<pdfrwt beam="1">  1        2 0.39683553E+00 0.92456481E+03</pdfrwt>
<pdfrwt beam="2">  1       -2 0.10990263E-01 0.92456481E+03</pdfrwt>
<totfact> 0.18838707E+02</totfact>
</mgrwt>
</event>
<event>
 4    1  0.2892809E-005  0.5382384E+03  0.7818608E-02  0.1004254E+00
         -2   -1    0    0    0  501 -0.00000000000E+00  0.00000000000E+00  0.37732760400E+02  0.37732760486E+02  0.25500000000E-02 0. -1.
          2   -1    0    0  501    0  0.00000000000E+00 -0.00000000000E+00 -0.19194237466E+04  0.19194237466E+04  0.25500000000E-02 0.  1.
    5000001    1    1    2    0    0 -0.16950009250E+03  0.76801295356E+02 -0.82981037003E+03  0.87182450673E+03  0.19200000000E+03 0.  0.
   -5000001    1    1    2    0    0  0.16950009250E+03 -0.76801295356E+02 -0.10518806161E+04  0.10853320003E+04  0.19200000000E+03 0.  0.
<mgrwt>
<rscale>  0 0.53823845E+03</rscale>
<asrwt>0</asrwt>
<pdfrwt beam="1">  1        2 0.27420333E+00 0.53823845E+03</pdfrwt>
<pdfrwt beam="2">  1       -2 0.53903956E-02 0.53823845E+03</pdfrwt>
<totfact> 0.16646184E+03</totfact>
</mgrwt>
</event>
<event>
 4    1  0.2892809E-005  0.7967714E+03  0.7818608E-02  0.9564702E-01
         -2   -1    0    0    0  501 -0.00000000000E+00  0.00000000000E+00  0.10530474075E+03  0.10530474078E+03  0.25500000000E-02 0. -1.
          2   -1    0    0  501    0  0.00000000000E+00 -0.00000000000E+00 -0.15071607308E+04  0.15071607308E+04  0.25500000000E-02 0.  1.
    5000001    1    1    2    0    0 -0.15619267155E+03  0.23185886292E+03 -0.11239471805E+04  0.11739999776E+04  0.19200000000E+03 0.  0.
   -5000001    1    1    2    0    0  0.15619267155E+03 -0.23185886292E+03 -0.27790880962E+03  0.43846549400E+03  0.19200000000E+03 0.  0.
<mgrwt>
<rscale>  0 0.79677141E+03</rscale>
<asrwt>0</asrwt>
<pdfrwt beam="1">  1        2 0.21530866E+00 0.79677141E+03</pdfrwt>
<pdfrwt beam="2">  1       -2 0.15043535E-01 0.79677141E+03</pdfrwt>
<totfact> 0.50900590E+02</totfact>
</mgrwt>
</event>
<event>
 4    1  0.2892809E-005  0.7086706E+03  0.7818608E-02  0.9702518E-01
         -2   -1    0    0    0  501 -0.00000000000E+00  0.00000000000E+00  0.19441701475E+03  0.19441701477E+03  0.25500000000E-02 0. -1.
          2   -1    0    0  501    0  0.00000000000E+00 -0.00000000000E+00 -0.64579478379E+03  0.64579478380E+03  0.25500000000E-02 0.  1.
    5000001    1    1    2    0    0 -0.23831054027E+03 -0.17315782596E+03 -0.17381970072E+03  0.39224078657E+03  0.19200000000E+03 0.  0.
   -5000001    1    1    2    0    0  0.23831054027E+03  0.17315782596E+03 -0.27755806833E+03  0.44797101200E+03  0.19200000000E+03 0.  0.
<mgrwt>
<rscale>  0 0.70867057E+03</rscale>
<asrwt>0</asrwt>
<pdfrwt beam="1">  1        2 0.92256397E-01 0.70867057E+03</pdfrwt>
<pdfrwt beam="2">  1       -2 0.27773860E-01 0.70867057E+03</pdfrwt>
<totfact> 0.58982740E+02</totfact>
</mgrwt>
</event>
<event>
 4    1  0.2892809E-005  0.6160999E+03  0.7818608E-02  0.9872556E-01
          2   -1    0    0  501    0  0.00000000000E+00  0.00000000000E+00  0.15987265618E+04  0.15987265618E+04  0.25500000000E-02 0.  1.
         -2   -1    0    0    0  501 -0.00000000000E+00 -0.00000000000E+00 -0.59356465337E+02  0.59356465392E+02  0.25500000000E-02 0. -1.
    5000001    1    1    2    0    0 -0.40513350433E+02 -0.13999171936E+03  0.12858997379E+04  0.13082970416E+04  0.19200000000E+03 0.  0.
   -5000001    1    1    2    0    0  0.40513350433E+02  0.13999171936E+03  0.25347035849E+03  0.34978598555E+03  0.19200000000E+03 0.  0.
<mgrwt>
<rscale>  0 0.61609985E+03</rscale>
<asrwt>0</asrwt>
<pdfrwt beam="1">  1        2 0.22838951E+00 0.61609985E+03</pdfrwt>
<pdfrwt beam="2">  1       -2 0.84794950E-02 0.61609985E+03</pdfrwt>
<totfact> 0.11806953E+03</totfact>
</mgrwt>
</event>
<event>
 4    1  0.2892809E-005  0.9973534E+03  0.7818608E-02  0.9311452E-01
         -2   -1    0    0    0  501 -0.00000000000E+00  0.00000000000E+00  0.24057589068E+03  0.24057589070E+03  0.25500000000E-02 0. -1.
          2   -1    0    0  501    0  0.00000000000E+00 -0.00000000000E+00 -0.10336799280E+04  0.10336799280E+04  0.25500000000E-02 0.  1.
    5000001    1    1    2    0    0  0.39522227946E+03 -0.27893339977E+01 -0.95273258000E+02  0.44961030266E+03  0.19200000000E+03 0.  0.
   -5000001    1    1    2    0    0 -0.39522227946E+03  0.27893339977E+01 -0.69783077931E+03  0.82464551604E+03  0.19200000000E+03 0.  0.
<mgrwt>
<rscale>  0 0.99735344E+03</rscale>
<asrwt>0</asrwt>
<pdfrwt beam="1">  1        2 0.14766856E+00 0.99735344E+03</pdfrwt>
<pdfrwt beam="2">  1       -2 0.34367985E-01 0.99735344E+03</pdfrwt>
<totfact> 0.21160522E+02</totfact>
</mgrwt>
</event>
<event>
 4    1  0.2892809E-005  0.7394341E+03  0.7818608E-02  0.9652074E-01
         -2   -1    0    0    0  501 -0.00000000000E+00  0.00000000000E+00  0.26825716322E+03  0.26825716323E+03  0.25500000000E-02 0.  1.
          2   -1    0    0  501    0  0.00000000000E+00 -0.00000000000E+00 -0.50955092269E+03  0.50955092269E+03  0.25500000000E-02 0. -1.
    5000001    1    1    2    0    0 -0.24506185414E+03 -0.12105749101E+02 -0.33003723247E+03  0.45386169296E+03  0.19200000000E+03 0.  0.
   -5000001    1    1    2    0    0  0.24506185414E+03  0.12105749101E+02  0.88743473002E+02  0.32394639297E+03  0.19200000000E+03 0.  0.
<mgrwt>
<rscale>  0 0.73943407E+03</rscale>
<asrwt>0</asrwt>
<pdfrwt beam="1">  1        2 0.72792989E-01 0.73943407E+03</pdfrwt>
<pdfrwt beam="2">  1       -2 0.38322452E-01 0.73943407E+03</pdfrwt>
<totfact> 0.42489234E+02</totfact>
</mgrwt>
</event>
<event>
 4    1  0.2892809E-005  0.6671513E+03  0.7818608E-02  0.9775118E-01
         -2   -1    0    0    0  501 -0.00000000000E+00  0.00000000000E+00  0.13663883420E+03  0.13663883422E+03  0.25500000000E-02 0. -1.
          2   -1    0    0  501    0  0.00000000000E+00 -0.00000000000E+00 -0.81435651110E+03  0.81435651111E+03  0.25500000000E-02 0.  1.
    5000001    1    1    2    0    0 -0.75246054301E+02 -0.25371985823E+03 -0.24459540907E+03  0.40832174726E+03  0.19200000000E+03 0.  0.
   -5000001    1    1    2    0    0  0.75246054301E+02  0.25371985823E+03 -0.43312226784E+03  0.54267359807E+03  0.19200000000E+03 0.  0.
<mgrwt>
<rscale>  0 0.66715133E+03</rscale>
<asrwt>0</asrwt>
<pdfrwt beam="1">  1        2 0.11633664E+00 0.66715133E+03</pdfrwt>
<pdfrwt beam="2">  1       -2 0.19519834E-01 0.66715133E+03</pdfrwt>
<totfact> 0.82980846E+02</totfact>
</mgrwt>
</event>
<event>
 4    1  0.2892809E-005  0.5152084E+03  0.7818608E-02  0.1009884E+00
          2   -1    0    0  501    0  0.00000000000E+00  0.00000000000E+00  0.14866678764E+04  0.14866678764E+04  0.25500000000E-02 0.  1.
         -2   -1    0    0    0  501 -0.00000000000E+00 -0.00000000000E+00 -0.44636687095E+02  0.44636687168E+02  0.25500000000E-02 0. -1.
    5000001    1    1    2    0    0 -0.13008331374E+03 -0.21953341841E+02  0.39417703959E+03  0.45786805553E+03  0.19200000000E+03 0.  0.
   -5000001    1    1    2    0    0  0.13008331374E+03  0.21953341841E+02  0.10478541497E+04  0.10734365081E+04  0.19200000000E+03 0.  0.
<mgrwt>
<rscale>  0 0.51520842E+03</rscale>
<asrwt>0</asrwt>
<pdfrwt beam="1">  1        2 0.21238111E+00 0.51520842E+03</pdfrwt>
<pdfrwt beam="2">  1       -2 0.63766700E-02 0.51520842E+03</pdfrwt>
<totfact> 0.21254200E+03</totfact>
</mgrwt>
</event>
<event>
 4    1  0.2892809E-005  0.7408031E+03  0.7818608E-02  0.9649890E-01
          2   -1    0    0  501    0  0.00000000000E+00  0.00000000000E+00  0.93588958925E+03  0.93588958925E+03  0.25500000000E-02 0.  1.
         -2   -1    0    0    0  501 -0.00000000000E+00 -0.00000000000E+00 -0.14659559877E+03  0.14659559879E+03  0.25500000000E-02 0. -1.
    5000001    1    1    2    0    0  0.23918392113E+03 -0.65266798506E+01  0.69794241804E+03  0.76239042791E+03  0.19200000000E+03 0.  0.
   -5000001    1    1    2    0    0 -0.23918392113E+03  0.65266798506E+01  0.91351572439E+02  0.32009476013E+03  0.19200000000E+03 0.  0.
<mgrwt>
<rscale>  0 0.74080306E+03</rscale>
<asrwt>0</asrwt>
<pdfrwt beam="1">  1        2 0.13369852E+00 0.74080306E+03</pdfrwt>
<pdfrwt beam="2">  1       -2 0.20942228E-01 0.74080306E+03</pdfrwt>
<totfact> 0.60855915E+02</totfact>
</mgrwt>
</event>
<event>
 4    1  0.2892809E-005  0.6468983E+03  0.7818608E-02  0.9812617E-01
         -2   -1    0    0    0  501 -0.00000000000E+00  0.00000000000E+00  0.33349128043E+03  0.33349128044E+03  0.25500000000E-02 0. -1.
          2   -1    0    0  501    0  0.00000000000E+00 -0.00000000000E+00 -0.31370936431E+03  0.31370936432E+03  0.25500000000E-02 0.  1.
    5000001    1    1    2    0    0  0.24516588781E+03 -0.29801913689E+02  0.92153909487E+02  0.32611471852E+03  0.19200000000E+03 0.  0.
   -5000001    1    1    2    0    0 -0.24516588781E+03  0.29801913689E+02 -0.72371993362E+02  0.32108592624E+03  0.19200000000E+03 0.  0.
<mgrwt>
<rscale>  0 0.64689825E+03</rscale>
<asrwt>0</asrwt>
<pdfrwt beam="1">  1        2 0.44815624E-01 0.64689825E+03</pdfrwt>
<pdfrwt beam="2">  1       -2 0.47641611E-01 0.64689825E+03</pdfrwt>
<totfact> 0.47743703E+02</totfact>
</mgrwt>
</event>
<event>
 4    1  0.2892809E-005  0.4554337E+03  0.7818608E-02  0.1026114E+00
         -2   -1    0    0    0  501 -0.00000000000E+00  0.00000000000E+00  0.55395941064E+03  0.55395941065E+03  0.25500000000E-02 0. -1.
          2   -1    0    0  501    0  0.00000000000E+00 -0.00000000000E+00 -0.93607863863E+02  0.93607863898E+02  0.25500000000E-02 0.  1.
    5000001    1    1    2    0    0  0.11507025489E+03  0.27978718363E+02  0.27439077010E+03  0.35521580336E+03  0.19200000000E+03 0.  0.
   -5000001    1    1    2    0    0 -0.11507025489E+03 -0.27978718363E+02  0.18596077668E+03  0.29235147119E+03  0.19200000000E+03 0.  0.
<mgrwt>
<rscale>  0 0.45543367E+03</rscale>
<asrwt>0</asrwt>
<pdfrwt beam="1">  1        2 0.13372552E-01 0.45543367E+03</pdfrwt>
<pdfrwt beam="2">  1       -2 0.79137061E-01 0.45543367E+03</pdfrwt>
<totfact> 0.65780561E+02</totfact>
</mgrwt>
</event>
<event>
 4    1  0.2892809E-005  0.4216790E+03  0.7818608E-02  0.1036521E+00
         -2   -1    0    0    0  501 -0.00000000000E+00  0.00000000000E+00  0.14059128998E+02  0.14059129229E+02  0.25500000000E-02 0. -1.
          2   -1    0    0  501    0  0.00000000000E+00 -0.00000000000E+00 -0.31618806061E+04  0.31618806061E+04  0.25500000000E-02 0.  1.
    5000001    1    1    2    0    0  0.18676177942E+02  0.82531369544E+02 -0.14179016546E+04  0.14333420139E+04  0.19200000000E+03 0.  0.
   -5000001    1    1    2    0    0 -0.18676177942E+02 -0.82531369544E+02 -0.17299198224E+04  0.17425977214E+04  0.19200000000E+03 0.  0.
<mgrwt>
<rscale>  0 0.42167897E+03</rscale>
<asrwt>0</asrwt>
<pdfrwt beam="1">  1        2 0.45169678E+00 0.42167897E+03</pdfrwt>
<pdfrwt beam="2">  1       -2 0.20084490E-02 0.42167897E+03</pdfrwt>
<totfact> 0.17161583E+03</totfact>
</mgrwt>
</event>
<event>
 4    1  0.2892809E-005  0.9239590E+03  0.7818608E-02  0.9396117E-01
          2   -1    0    0  501    0  0.00000000000E+00  0.00000000000E+00  0.40268294631E+03  0.40268294632E+03  0.25500000000E-02 0.  1.
         -2   -1    0    0    0  501 -0.00000000000E+00 -0.00000000000E+00 -0.53000772075E+03  0.53000772076E+03  0.25500000000E-02 0. -1.
    5000001    1    1    2    0    0  0.16246256280E+03  0.30514305662E+03  0.17745617004E+03  0.43342941940E+03  0.19200000000E+03 0.  0.
   -5000001    1    1    2    0    0 -0.16246256280E+03 -0.30514305662E+03 -0.30478094448E+03  0.49926124768E+03  0.19200000000E+03 0.  0.
<mgrwt>
<rscale>  0 0.92395903E+03</rscale>
<asrwt>0</asrwt>
<pdfrwt beam="1">  1        2 0.57526135E-01 0.92395903E+03</pdfrwt>
<pdfrwt beam="2">  1       -2 0.75715389E-01 0.92395903E+03</pdfrwt>
<totfact> 0.13458874E+02</totfact>
</mgrwt>
</event>
<event>
 4    1  0.2892809E-005  0.5277352E+03  0.7818608E-02  0.1006783E+00
         -2   -1    0    0    0  501 -0.00000000000E+00  0.00000000000E+00  0.58597298225E+02  0.58597298280E+02  0.25500000000E-02 0. -1.
          2   -1    0    0  501    0  0.00000000000E+00 -0.00000000000E+00 -0.11882137083E+04  0.11882137083E+04  0.25500000000E-02 0.  1.
    5000001    1    1    2    0    0  0.12906631587E+03  0.48491378019E+02 -0.28774635368E+03  0.37238621308E+03  0.19200000000E+03 0.  0.
   -5000001    1    1    2    0    0 -0.12906631587E+03 -0.48491378019E+02 -0.84187005636E+03  0.87442479347E+03  0.19200000000E+03 0.  0.
<mgrwt>
<rscale>  0 0.52773521E+03</rscale>
<asrwt>0</asrwt>
<pdfrwt beam="1">  1        2 0.16974480E+00 0.52773521E+03</pdfrwt>
<pdfrwt beam="2">  1       -2 0.83710434E-02 0.52773521E+03</pdfrwt>
<totfact> 0.19996639E+03</totfact>
</mgrwt>
</event>
<event>
 4    1  0.2892809E-005  0.4534495E+03  0.7818608E-02  0.1026698E+00
          2   -1    0    0  501    0  0.00000000000E+00  0.00000000000E+00  0.10260101942E+04  0.10260101942E+04  0.25500000000E-02 0.  1.
         -2   -1    0    0    0  501 -0.00000000000E+00 -0.00000000000E+00 -0.50100971929E+02  0.50100971994E+02  0.25500000000E-02 0. -1.
    5000001    1    1    2    0    0  0.20928089303E+02  0.10617492866E+03  0.61417958335E+03  0.65252713431E+03  0.19200000000E+03 0.  0.
   -5000001    1    1    2    0    0 -0.20928089303E+02 -0.10617492866E+03  0.36172963889E+03  0.42358403187E+03  0.19200000000E+03 0.  0.
<mgrwt>
<rscale>  0 0.45344948E+03</rscale>
<asrwt>0</asrwt>
<pdfrwt beam="1">  1        2 0.14657290E+00 0.45344948E+03</pdfrwt>
<pdfrwt beam="2">  1       -2 0.71572812E-02 0.45344948E+03</pdfrwt>
<totfact> 0.31783837E+03</totfact>
</mgrwt>
</event>
<event>
 4    1  0.2892809E-005  0.5261077E+03  0.7818608E-02  0.1007180E+00
         -2   -1    0    0    0  501 -0.00000000000E+00  0.00000000000E+00  0.10047573010E+03  0.10047573013E+03  0.25500000000E-02 0. -1.
          2   -1    0    0  501    0  0.00000000000E+00 -0.00000000000E+00 -0.68869685949E+03  0.68869685950E+03  0.25500000000E-02 0.  1.
    5000001    1    1    2    0    0 -0.34574034657E+02  0.15720411427E+03 -0.17387639108E+03  0.30496802585E+03  0.19200000000E+03 0.  0.
   -5000001    1    1    2    0    0  0.34574034657E+02 -0.15720411427E+03 -0.41434473831E+03  0.48420456378E+03  0.19200000000E+03 0.  0.
<mgrwt>
<rscale>  0 0.52610767E+03</rscale>
<asrwt>0</asrwt>
<pdfrwt beam="1">  1        2 0.98385264E-01 0.52610767E+03</pdfrwt>
<pdfrwt beam="2">  1       -2 0.14353676E-01 0.52610767E+03</pdfrwt>
<totfact> 0.17310269E+03</totfact>
</mgrwt>
</event>
<event>
 4    1  0.2892809E-005  0.5326688E+03  0.7818608E-02  0.1005587E+00
          2   -1    0    0  501    0  0.00000000000E+00  0.00000000000E+00  0.65494365359E+03  0.65494365360E+03  0.25500000000E-02 0. -1.
         -2   -1    0    0    0  501 -0.00000000000E+00 -0.00000000000E+00 -0.10830552599E+03  0.10830552602E+03  0.25500000000E-02 0.  1.
    5000001    1    1    2    0    0 -0.13388610621E+03 -0.11966953284E+03  0.21212780459E+03  0.33779948492E+03  0.19200000000E+03 0.  0.
   -5000001    1    1    2    0    0  0.13388610621E+03  0.11966953284E+03  0.33451032301E+03  0.42544969471E+03  0.19200000000E+03 0.  0.
<mgrwt>
<rscale>  0 0.53266882E+03</rscale>
<asrwt>0</asrwt>
<pdfrwt beam="1">  1        2 0.93563380E-01 0.53266882E+03</pdfrwt>
<pdfrwt beam="2">  1       -2 0.15472218E-01 0.53266882E+03</pdfrwt>
<totfact> 0.16214729E+03</totfact>
</mgrwt>
</event>
<event>
 4    1  0.2892809E-005  0.5496817E+03  0.7818608E-02  0.1001568E+00
          2   -1    0    0  501    0  0.00000000000E+00  0.00000000000E+00  0.85582636440E+03  0.85582636441E+03  0.25500000000E-02 0.  1.
         -2   -1    0    0    0  501 -0.00000000000E+00 -0.00000000000E+00 -0.88262651575E+02  0.88262651612E+02  0.25500000000E-02 0. -1.
    5000001    1    1    2    0    0 -0.16629182410E+03  0.64206866812E+02  0.24113454278E+03  0.35606931942E+03  0.19200000000E+03 0.  0.
   -5000001    1    1    2    0    0  0.16629182410E+03 -0.64206866812E+02  0.52642917005E+03  0.58801969660E+03  0.19200000000E+03 0.  0.
<mgrwt>
<rscale>  0 0.54968174E+03</rscale>
<asrwt>0</asrwt>
<pdfrwt beam="1">  1        2 0.12226091E+00 0.54968174E+03</pdfrwt>
<pdfrwt beam="2">  1       -2 0.12608951E-01 0.54968174E+03</pdfrwt>
<totfact> 0.16337885E+03</totfact>
</mgrwt>
</event>
<event>
 4    1  0.2892809E-005  0.5201737E+03  0.7818608E-02  0.1008643E+00
         -2   -1    0    0    0  501 -0.00000000000E+00  0.00000000000E+00  0.24172423905E+02  0.24172424039E+02  0.25500000000E-02 0. -1.
          2   -1    0    0  501    0  0.00000000000E+00 -0.00000000000E+00 -0.27984433773E+04  0.27984433773E+04  0.25500000000E-02 0.  1.
    5000001    1    1    2    0    0 -0.61155663234E+02 -0.12009909051E+03 -0.77761607011E+03  0.81222814479E+03  0.19200000000E+03 0.  0.
   -5000001    1    1    2    0    0  0.61155663234E+02  0.12009909051E+03 -0.19966548833E+04  0.20103876565E+04  0.19200000000E+03 0.  0.
<mgrwt>
<rscale>  0 0.52017366E+03</rscale>
<asrwt>0</asrwt>
<pdfrwt beam="1">  1        2 0.39977742E+00 0.52017366E+03</pdfrwt>
<pdfrwt beam="2">  1       -2 0.34532052E-02 0.52017366E+03</pdfrwt>
<totfact> 0.11808814E+03</totfact>
</mgrwt>
</event>
<event>
 4    1  0.2892809E-005  0.6099954E+03  0.7818608E-02  0.9884883E-01
         -2   -1    0    0    0  501 -0.00000000000E+00  0.00000000000E+00  0.23570182052E+03  0.23570182054E+03  0.25500000000E-02 0. -1.
          2   -1    0    0  501    0  0.00000000000E+00 -0.00000000000E+00 -0.39466642611E+03  0.39466642612E+03  0.25500000000E-02 0.  1.
    5000001    1    1    2    0    0 -0.13572162528E+03 -0.10417807102E+03 -0.24892864697E+03  0.35791465649E+03  0.19200000000E+03 0.  0.
   -5000001    1    1    2    0    0  0.13572162528E+03  0.10417807102E+03  0.89964041377E+02  0.27245359016E+03  0.19200000000E+03 0.  0.
<mgrwt>
<rscale>  0 0.60999539E+03</rscale>
<asrwt>0</asrwt>
<pdfrwt beam="1">  1        2 0.56380918E-01 0.60999539E+03</pdfrwt>
<pdfrwt beam="2">  1       -2 0.33671689E-01 0.60999539E+03</pdfrwt>
<totfact> 0.72745377E+02</totfact>
</mgrwt>
</event>
<event>
 4    1  0.2892809E-005  0.6072607E+03  0.7818608E-02  0.9890456E-01
          2   -1    0    0  501    0  0.00000000000E+00  0.00000000000E+00  0.26591434417E+04  0.26591434417E+04  0.25500000000E-02 0.  1.
         -2   -1    0    0    0  501 -0.00000000000E+00 -0.00000000000E+00 -0.34669578600E+02  0.34669578693E+02  0.25500000000E-02 0. -1.
    5000001    1    1    2    0    0 -0.38239648580E+01 -0.21762294146E+03  0.17078386756E+04  0.17323254051E+04  0.19200000000E+03 0.  0.
   -5000001    1    1    2    0    0  0.38239648580E+01  0.21762294146E+03  0.91663518750E+03  0.96148761527E+03  0.19200000000E+03 0.  0.
<mgrwt>
<rscale>  0 0.60726068E+03</rscale>
<asrwt>0</asrwt>
<pdfrwt beam="1">  1        2 0.37987767E+00 0.60726068E+03</pdfrwt>
<pdfrwt beam="2">  1       -2 0.49527965E-02 0.60726068E+03</pdfrwt>
<totfact> 0.79700179E+02</totfact>
</mgrwt>
</event>
<event>
 4    1  0.2892809E-005  0.6086872E+03  0.7818608E-02  0.9887545E-01
          2   -1    0    0  501    0  0.00000000000E+00  0.00000000000E+00  0.10054919109E+04  0.10054919109E+04  0.25500000000E-02 0.  1.
         -2   -1    0    0    0  501 -0.00000000000E+00 -0.00000000000E+00 -0.92119121868E+02  0.92119121904E+02  0.25500000000E-02 0. -1.
    5000001    1    1    2    0    0  0.23294006673E+03 -0.19894650357E+02  0.39676660114E+03  0.49894349137E+03  0.19200000000E+03 0.  0.
   -5000001    1    1    2    0    0 -0.23294006673E+03  0.19894650357E+02  0.51660618787E+03  0.59866754142E+03  0.19200000000E+03 0.  0.
<mgrwt>
<rscale>  0 0.60868722E+03</rscale>
<asrwt>0</asrwt>
<pdfrwt beam="1">  1        2 0.14364170E+00 0.60868722E+03</pdfrwt>
<pdfrwt beam="2">  1       -2 0.13159875E-01 0.60868722E+03</pdfrwt>
<totfact> 0.12224183E+03</totfact>
</mgrwt>
</event>
<event>
 4    1  0.2892809E-005  0.6248521E+03  0.7818608E-02  0.9855146E-01
          2   -1    0    0  501    0  0.00000000000E+00  0.00000000000E+00  0.65963480634E+03  0.65963480634E+03  0.25500000000E-02 0.  1.
         -2   -1    0    0    0  501 -0.00000000000E+00 -0.00000000000E+00 -0.14797586454E+03  0.14797586456E+03  0.25500000000E-02 0. -1.
    5000001    1    1    2    0    0 -0.10755960439E+03 -0.16640480489E+03  0.44528474004E+03  0.52383406467E+03  0.19200000000E+03 0.  0.
   -5000001    1    1    2    0    0  0.10755960439E+03  0.16640480489E+03  0.66374201750E+02  0.28377660624E+03  0.19200000000E+03 0.  0.
<mgrwt>
<rscale>  0 0.62485208E+03</rscale>
<asrwt>0</asrwt>
<pdfrwt beam="1">  1        2 0.94233542E-01 0.62485208E+03</pdfrwt>
<pdfrwt beam="2">  1       -2 0.21139410E-01 0.62485208E+03</pdfrwt>
<totfact> 0.93934202E+02</totfact>
</mgrwt>
</event>
<event>
 4    1  0.2892809E-005  0.4094393E+03  0.7818608E-02  0.1040559E+00
         -2   -1    0    0    0  501 -0.00000000000E+00  0.00000000000E+00  0.39752150226E+02  0.39752150308E+02  0.25500000000E-02 0. -1.
          2   -1    0    0  501    0  0.00000000000E+00 -0.00000000000E+00 -0.10542861291E+04  0.10542861291E+04  0.25500000000E-02 0.  1.
    5000001    1    1    2    0    0  0.17028473106E+02  0.11501998732E+02 -0.32557070712E+03  0.37852681570E+03  0.19200000000E+03 0.  0.
   -5000001    1    1    2    0    0 -0.17028473106E+02 -0.11501998732E+02 -0.68896327174E+03  0.71551146369E+03  0.19200000000E+03 0.  0.
<mgrwt>
<rscale>  0 0.40943933E+03</rscale>
<asrwt>0</asrwt>
<pdfrwt beam="1">  1        2 0.15061229E+00 0.40943933E+03</pdfrwt>
<pdfrwt beam="2">  1       -2 0.56788793E-02 0.40943933E+03</pdfrwt>
<totfact> 0.43838669E+03</totfact>
</mgrwt>
</event>
<event>
 4    1  0.2892809E-005  0.4983255E+03  0.7818608E-02  0.1014217E+00
          2   -1    0    0  501    0  0.00000000000E+00  0.00000000000E+00  0.43356367671E+04  0.43356367671E+04  0.25500000000E-02 0.  1.
         -2   -1    0    0    0  501 -0.00000000000E+00 -0.00000000000E+00 -0.14319020285E+02  0.14319020512E+02  0.25500000000E-02 0. -1.
    5000001    1    1    2    0    0 -0.11800903744E+03 -0.36647025646E+02  0.30313417851E+04  0.30399286431E+04  0.19200000000E+03 0.  0.
   -5000001    1    1    2    0    0  0.11800903744E+03  0.36647025646E+02  0.12899759618E+04  0.13100271445E+04  0.19200000000E+03 0.  0.
<mgrwt>
<rscale>  0 0.49832548E+03</rscale>
<asrwt>0</asrwt>
<pdfrwt beam="1">  1        2 0.61937644E+00 0.49832548E+03</pdfrwt>
<pdfrwt beam="2">  1       -2 0.20455752E-02 0.49832548E+03</pdfrwt>
<totfact> 0.30238600E+02</totfact>
</mgrwt>
</event>
<event>
 4    1  0.2892809E-005  0.4110144E+03  0.7818608E-02  0.1040031E+00
          2   -1    0    0  501    0  0.00000000000E+00  0.00000000000E+00  0.19718381258E+03  0.19718381260E+03  0.25500000000E-02 0.  1.
         -2   -1    0    0    0  501 -0.00000000000E+00 -0.00000000000E+00 -0.21418189162E+03  0.21418189164E+03  0.25500000000E-02 0. -1.
    5000001    1    1    2    0    0  0.93446069449E+01 -0.58055898148E+02 -0.52255892127E+02  0.20749093294E+03  0.19200000000E+03 0.  0.
   -5000001    1    1    2    0    0 -0.93446069449E+01  0.58055898148E+02  0.35257813088E+02  0.20387477130E+03  0.19200000000E+03 0.  0.
<mgrwt>
<rscale>  0 0.41101436E+03</rscale>
<asrwt>0</asrwt>
<pdfrwt beam="1">  1        2 0.28169116E-01 0.41101436E+03</pdfrwt>
<pdfrwt beam="2">  1       -2 0.30597413E-01 0.41101436E+03</pdfrwt>
<totfact> 0.18702249E+03</totfact>
</mgrwt>
</event>
<event>
 4    1  0.2892809E-005  0.5756214E+03  0.7818608E-02  0.9957316E-01
          2   -1    0    0  501    0  0.00000000000E+00  0.00000000000E+00  0.73619997477E+03  0.73619997477E+03  0.25500000000E-02 0.  1.
         -2   -1    0    0    0  501 -0.00000000000E+00 -0.00000000000E+00 -0.11251696365E+03  0.11251696368E+03  0.25500000000E-02 0. -1.
    5000001    1    1    2    0    0  0.59258323412E+02 -0.18335276507E+03  0.45047928442E+03  0.52623699133E+03  0.19200000000E+03 0.  0.
   -5000001    1    1    2    0    0 -0.59258323412E+02  0.18335276507E+03  0.17320372670E+03  0.32247994712E+03  0.19200000000E+03 0.  0.
<mgrwt>
<rscale>  0 0.57562135E+03</rscale>
<asrwt>0</asrwt>
<pdfrwt beam="1">  1        2 0.10517142E+00 0.57562135E+03</pdfrwt>
<pdfrwt beam="2">  1       -2 0.16073852E-01 0.57562135E+03</pdfrwt>
<totfact> 0.13180804E+03</totfact>
</mgrwt>
</event>
<event>
 4    1  0.2892809E-005  0.7900728E+03  0.7818608E-02  0.9574499E-01
          2   -1    0    0  501    0  0.00000000000E+00  0.00000000000E+00  0.99886305055E+03  0.99886305055E+03  0.25500000000E-02 0.  1.
         -2   -1    0    0    0  501 -0.00000000000E+00 -0.00000000000E+00 -0.15623136782E+03  0.15623136784E+03  0.25500000000E-02 0. -1.
    5000001    1    1    2    0    0 -0.33190581267E+03  0.94588879944E+02  0.40814021958E+03  0.56793570370E+03  0.19200000000E+03 0.  0.
   -5000001    1    1    2    0    0  0.33190581267E+03 -0.94588879944E+02  0.43449146315E+03  0.58715871470E+03  0.19200000000E+03 0.  0.
<mgrwt>
<rscale>  0 0.79007276E+03</rscale>
<asrwt>0</asrwt>
<pdfrwt beam="1">  1        2 0.14269472E+00 0.79007276E+03</pdfrwt>
<pdfrwt beam="2">  1       -2 0.22318767E-01 0.79007276E+03</pdfrwt>
<totfact> 0.49575526E+02</totfact>
</mgrwt>
</event>
<event>
 4    1  0.2892809E-005  0.5303852E+03  0.7818608E-02  0.1006139E+00
         -2   -1    0    0    0  501 -0.00000000000E+00  0.00000000000E+00  0.62792778005E+02  0.62792778057E+02  0.25500000000E-02 0. -1.
          2   -1    0    0  501    0  0.00000000000E+00 -0.00000000000E+00 -0.11199873191E+04  0.11199873191E+04  0.25500000000E-02 0.  1.
    5000001    1    1    2    0    0 -0.10728806792E+03  0.14759031685E+03 -0.49956527123E+03  0.56544061701E+03  0.19200000000E+03 0.  0.
   -5000001    1    1    2    0    0  0.10728806792E+03 -0.14759031685E+03 -0.55762926988E+03  0.61733948017E+03  0.19200000000E+03 0.  0.
<mgrwt>
<rscale>  0 0.53038520E+03</rscale>
<asrwt>0</asrwt>
<pdfrwt beam="1">  1        2 0.15999818E+00 0.53038520E+03</pdfrwt>
<pdfrwt beam="2">  1       -2 0.89703975E-02 0.53038520E+03</pdfrwt>
<totfact> 0.19571501E+03</totfact>
</mgrwt>
</event>
<event>
 4    1  0.2892809E-005  0.6319268E+03  0.7818608E-02  0.9841296E-01
          2   -1    0    0  501    0  0.00000000000E+00  0.00000000000E+00  0.84516881358E+03  0.84516881359E+03  0.25500000000E-02 0.  1.
         -2   -1    0    0    0  501 -0.00000000000E+00 -0.00000000000E+00 -0.11812182085E+03  0.11812182088E+03  0.25500000000E-02 0. -1.
    5000001    1    1    2    0    0 -0.18554842452E+03  0.12954088794E+03  0.19821663660E+03  0.35687938370E+03  0.19200000000E+03 0.  0.
   -5000001    1    1    2    0    0  0.18554842452E+03 -0.12954088794E+03  0.52883035613E+03  0.60641125077E+03  0.19200000000E+03 0.  0.
<mgrwt>
<rscale>  0 0.63192683E+03</rscale>
<asrwt>0</asrwt>
<pdfrwt beam="1">  1        2 0.12073841E+00 0.63192683E+03</pdfrwt>
<pdfrwt beam="2">  1       -2 0.16874545E-01 0.63192683E+03</pdfrwt>
<totfact> 0.10171028E+03</totfact>
</mgrwt>
</event>
<event>
 4    1  0.2892809E-005  0.5206108E+03  0.7818608E-02  0.1008535E+00
         -2   -1    0    0    0  501 -0.00000000000E+00  0.00000000000E+00  0.14057767183E+02  0.14057767414E+02  0.25500000000E-02 0. -1.
          2   -1    0    0  501    0  0.00000000000E+00 -0.00000000000E+00 -0.48200327395E+04  0.48200327395E+04  0.25500000000E-02 0.  1.
    5000001    1    1    2    0    0 -0.20628916805E+02 -0.13177106548E+03 -0.13399899306E+04  0.13602301938E+04  0.19200000000E+03 0.  0.
   -5000001    1    1    2    0    0  0.20628916805E+02  0.13177106548E+03 -0.34659850417E+04  0.34738603131E+04  0.19200000000E+03 0.  0.
<mgrwt>
<rscale>  0 0.52061079E+03</rscale>
<asrwt>0</asrwt>
<pdfrwt beam="1">  1        2 0.68857505E+00 0.52061079E+03</pdfrwt>
<pdfrwt beam="2">  1       -2 0.20082556E-02 0.52061079E+03</pdfrwt>
<totfact> 0.12761540E+02</totfact>
</mgrwt>
</event>
<event>
 4    1  0.2892809E-005  0.1454457E+04  0.7818608E-02  0.8915317E-01
          2   -1    0    0  501    0  0.00000000000E+00  0.00000000000E+00  0.51149707186E+03  0.51149707186E+03  0.25500000000E-02 0.  1.
         -2   -1    0    0    0  501 -0.00000000000E+00 -0.00000000000E+00 -0.10339474507E+04  0.10339474507E+04  0.25500000000E-02 0. -1.
    5000001    1    1    2    0    0 -0.19307100152E+03 -0.57038997555E+03  0.12096488438E+03  0.64351972704E+03  0.19200000000E+03 0.  0.
   -5000001    1    1    2    0    0  0.19307100152E+03  0.57038997555E+03 -0.64341526323E+03  0.90192479553E+03  0.19200000000E+03 0.  0.
<mgrwt>
<rscale>  0 0.14544567E+04</rscale>
<asrwt>0</asrwt>
<pdfrwt beam="1">  1        2 0.73071010E-01 0.14544567E+04</pdfrwt>
<pdfrwt beam="2">  1       -2 0.14770678E+00 0.14544567E+04</pdfrwt>
<totfact> 0.19811833E+01</totfact>
</mgrwt>
</event>
<event>
 4    1  0.2892809E-005  0.5940406E+03  0.7818608E-02  0.9917848E-01
          2   -1    0    0  501    0  0.00000000000E+00  0.00000000000E+00  0.46077109926E+03  0.46077109926E+03  0.25500000000E-02 0. -1.
         -2   -1    0    0    0  501 -0.00000000000E+00 -0.00000000000E+00 -0.19146397585E+03  0.19146397587E+03  0.25500000000E-02 0.  1.
    5000001    1    1    2    0    0  0.54769539625E+02  0.17747141519E+03  0.27722516290E+03  0.38498519014E+03  0.19200000000E+03 0.  0.
   -5000001    1    1    2    0    0 -0.54769539625E+02 -0.17747141519E+03 -0.79180394973E+01  0.26724988500E+03  0.19200000000E+03 0.  0.
<mgrwt>
<rscale>  0 0.59404063E+03</rscale>
<asrwt>0</asrwt>
<pdfrwt beam="1">  1        2 0.65824442E-01 0.59404063E+03</pdfrwt>
<pdfrwt beam="2">  1       -2 0.27351997E-01 0.59404063E+03</pdfrwt>
<totfact> 0.89922250E+02</totfact>
</mgrwt>
</event>
<event>
 4    1  0.2892809E-005  0.5745060E+03  0.7818608E-02  0.9959757E-01
         -2   -1    0    0    0  501 -0.00000000000E+00  0.00000000000E+00  0.25639622989E+03  0.25639622991E+03  0.25500000000E-02 0. -1.
          2   -1    0    0  501    0  0.00000000000E+00 -0.00000000000E+00 -0.32182336844E+03  0.32182336845E+03  0.25500000000E-02 0.  1.
    5000001    1    1    2    0    0 -0.20118275564E+03  0.70292768604E+02 -0.17293836526E+02  0.28736501399E+03  0.19200000000E+03 0.  0.
   -5000001    1    1    2    0    0  0.20118275564E+03 -0.70292768604E+02 -0.48133302022E+02  0.29085458437E+03  0.19200000000E+03 0.  0.
<mgrwt>
<rscale>  0 0.57450604E+03</rscale>
<asrwt>0</asrwt>
<pdfrwt beam="1">  1        2 0.45974767E-01 0.57450604E+03</pdfrwt>
<pdfrwt beam="2">  1       -2 0.36628033E-01 0.57450604E+03</pdfrwt>
<totfact> 0.77752615E+02</totfact>
</mgrwt>
</event>
<event>
 4    1  0.2892809E-005  0.6484037E+03  0.7818608E-02  0.9809779E-01
          2   -1    0    0  501    0  0.00000000000E+00  0.00000000000E+00  0.82694301302E+03  0.82694301302E+03  0.25500000000E-02 0.  1.
         -2   -1    0    0    0  501 -0.00000000000E+00 -0.00000000000E+00 -0.12710286418E+03  0.12710286421E+03  0.25500000000E-02 0. -1.
    5000001    1    1    2    0    0 -0.12659928446E+03 -0.22603476946E+03  0.30059647927E+03  0.44084162596E+03  0.19200000000E+03 0.  0.
   -5000001    1    1    2    0    0  0.12659928446E+03  0.22603476946E+03  0.39924366956E+03  0.51320425127E+03  0.19200000000E+03 0.  0.
<mgrwt>
<rscale>  0 0.64840366E+03</rscale>
<asrwt>0</asrwt>
<pdfrwt beam="1">  1        2 0.11813472E+00 0.64840366E+03</pdfrwt>
<pdfrwt beam="2">  1       -2 0.18157552E-01 0.64840366E+03</pdfrwt>
<totfact> 0.92247294E+02</totfact>
</mgrwt>
</event>
<event>
 4    1  0.2892809E-005  0.6687998E+03  0.7818608E-02  0.9772128E-01
          2   -1    0    0  501    0  0.00000000000E+00  0.00000000000E+00  0.84419884775E+03  0.84419884775E+03  0.25500000000E-02 0.  1.
         -2   -1    0    0    0  501 -0.00000000000E+00 -0.00000000000E+00 -0.13246084120E+03  0.13246084123E+03  0.25500000000E-02 0. -1.
    5000001    1    1    2    0    0 -0.21346451856E+03  0.16848266987E+03  0.30955648737E+03  0.45457972854E+03  0.19200000000E+03 0.  0.
   -5000001    1    1    2    0    0  0.21346451856E+03 -0.16848266987E+03  0.40218151917E+03  0.52207996044E+03  0.19200000000E+03 0.  0.
<mgrwt>
<rscale>  0 0.66879979E+03</rscale>
<asrwt>0</asrwt>
<pdfrwt beam="1">  1        2 0.12059984E+00 0.66879979E+03</pdfrwt>
<pdfrwt beam="2">  1       -2 0.18922977E-01 0.66879979E+03</pdfrwt>
<totfact> 0.83574049E+02</totfact>
</mgrwt>
</event>
<event>
 4    1  0.2892809E-005  0.5081860E+03  0.7818608E-02  0.1011664E+00
         -2   -1    0    0    0  501 -0.00000000000E+00  0.00000000000E+00  0.44134076586E+02  0.44134076659E+02  0.25500000000E-02 0. -1.
          2   -1    0    0  501    0  0.00000000000E+00 -0.00000000000E+00 -0.14628886970E+04  0.14628886970E+04  0.25500000000E-02 0.  1.
    5000001    1    1    2    0    0  0.16523259349E+03  0.14704599228E+02 -0.74929673095E+03  0.79109267864E+03  0.19200000000E+03 0.  0.
   -5000001    1    1    2    0    0 -0.16523259349E+03 -0.14704599228E+02 -0.66945788951E+03  0.71593009507E+03  0.19200000000E+03 0.  0.
<mgrwt>
<rscale>  0 0.50818596E+03</rscale>
<asrwt>0</asrwt>
<pdfrwt beam="1">  1        2 0.20898407E+00 0.50818596E+03</pdfrwt>
<pdfrwt beam="2">  1       -2 0.63048690E-02 0.50818596E+03</pdfrwt>
<totfact> 0.22262992E+03</totfact>
</mgrwt>
</event>
<event>
 4    1  0.2892809E-005  0.7862798E+03  0.7818608E-02  0.9580092E-01
         -2   -1    0    0    0  501 -0.00000000000E+00  0.00000000000E+00  0.37073132785E+03  0.37073132786E+03  0.25500000000E-02 0. -1.
          2   -1    0    0  501    0  0.00000000000E+00 -0.00000000000E+00 -0.41690292377E+03  0.41690292378E+03  0.25500000000E-02 0.  1.
    5000001    1    1    2    0    0 -0.17064210885E+02 -0.33324878898E+03  0.56732274924E+02  0.38913814214E+03  0.19200000000E+03 0.  0.
   -5000001    1    1    2    0    0  0.17064210885E+02  0.33324878898E+03 -0.10290387084E+03  0.39849610950E+03  0.19200000000E+03 0.  0.
<mgrwt>
<rscale>  0 0.78627978E+03</rscale>
<asrwt>0</asrwt>
<pdfrwt beam="1">  1        2 0.59557560E-01 0.78627978E+03</pdfrwt>
<pdfrwt beam="2">  1       -2 0.52961619E-01 0.78627978E+03</pdfrwt>
<totfact> 0.27947138E+02</totfact>
</mgrwt>
</event>
<event>
 4    1  0.2892809E-005  0.5612442E+03  0.7818608E-02  0.9989243E-01
          2   -1    0    0  501    0  0.00000000000E+00  0.00000000000E+00  0.21790634017E+04  0.21790634017E+04  0.25500000000E-02 0.  1.
         -2   -1    0    0    0  501 -0.00000000000E+00 -0.00000000000E+00 -0.36138815604E+02  0.36138815694E+02  0.25500000000E-02 0. -1.
    5000001    1    1    2    0    0  0.35111036058E+02  0.20150664571E+03  0.10985377418E+04  0.11337931395E+04  0.19200000000E+03 0.  0.
   -5000001    1    1    2    0    0 -0.35111036058E+02 -0.20150664571E+03  0.10443868443E+04  0.10814090779E+04  0.19200000000E+03 0.  0.
<mgrwt>
<rscale>  0 0.56124423E+03</rscale>
<asrwt>0</asrwt>
<pdfrwt beam="1">  1        2 0.31129473E+00 0.56124423E+03</pdfrwt>
<pdfrwt beam="2">  1       -2 0.51626886E-02 0.56124423E+03</pdfrwt>
<totfact> 0.13177786E+03</totfact>
</mgrwt>
</event>
<event>
 4    1  0.2892809E-005  0.6884747E+03  0.7818608E-02  0.9737148E-01
          2   -1    0    0  501    0  0.00000000000E+00  0.00000000000E+00  0.16936419815E+04  0.16936419815E+04  0.25500000000E-02 0.  1.
         -2   -1    0    0    0  501 -0.00000000000E+00 -0.00000000000E+00 -0.69967174295E+02  0.69967174341E+02  0.25500000000E-02 0. -1.
    5000001    1    1    2    0    0  0.15800028047E+03  0.23627908245E+03  0.88623246929E+03  0.95029673421E+03  0.19200000000E+03 0.  0.
   -5000001    1    1    2    0    0 -0.15800028047E+03 -0.23627908245E+03  0.73744233796E+03  0.81331242167E+03  0.19200000000E+03 0.  0.
<mgrwt>
<rscale>  0 0.68847467E+03</rscale>
<asrwt>0</asrwt>
<pdfrwt beam="1">  1        2 0.24194885E+00 0.68847467E+03</pdfrwt>
<pdfrwt beam="2">  1       -2 0.99953108E-02 0.68847467E+03</pdfrwt>
<totfact> 0.80684838E+02</totfact>
</mgrwt>
</event>
<event>
 4    1  0.2892809E-005  0.1064982E+04  0.7818608E-02  0.9240011E-01
         -2   -1    0    0    0  501 -0.00000000000E+00  0.00000000000E+00  0.23955422096E+03  0.23955422097E+03  0.25500000000E-02 0. -1.
          2   -1    0    0  501    0  0.00000000000E+00 -0.00000000000E+00 -0.11836431627E+04  0.11836431627E+04  0.25500000000E-02 0.  1.
    5000001    1    1    2    0    0 -0.21523977997E+03 -0.17060805278E+03 -0.10250568854E+04  0.10784437347E+04  0.19200000000E+03 0.  0.
   -5000001    1    1    2    0    0  0.21523977997E+03  0.17060805278E+03  0.80967943710E+02  0.34475364895E+03  0.19200000000E+03 0.  0.
<mgrwt>
<rscale>  0 0.10649821E+04</rscale>
<asrwt>0</asrwt>
<pdfrwt beam="1">  1        2 0.16909188E+00 0.10649821E+04</pdfrwt>
<pdfrwt beam="2">  1       -2 0.34222032E-01 0.10649821E+04</pdfrwt>
<totfact> 0.17339732E+02</totfact>
</mgrwt>
</event>
<event>
 4    1  0.2892809E-005  0.5296167E+03  0.7818608E-02  0.1006325E+00
          2   -1    0    0  501    0  0.00000000000E+00  0.00000000000E+00  0.22059072082E+04  0.22059072082E+04  0.25500000000E-02 0.  1.
         -2   -1    0    0    0  501 -0.00000000000E+00 -0.00000000000E+00 -0.31788943193E+02  0.31788943296E+02  0.25500000000E-02 0. -1.
    5000001    1    1    2    0    0  0.95826386783E+02 -0.15182870872E+03  0.95180197631E+03  0.98743387389E+03  0.19200000000E+03 0.  0.
   -5000001    1    1    2    0    0 -0.95826386783E+02  0.15182870872E+03  0.12223162887E+04  0.12502622776E+04  0.19200000000E+03 0.  0.
<mgrwt>
<rscale>  0 0.52961669E+03</rscale>
<asrwt>0</asrwt>
<pdfrwt beam="1">  1        2 0.31512967E+00 0.52961669E+03</pdfrwt>
<pdfrwt beam="2">  1       -2 0.45412767E-02 0.52961669E+03</pdfrwt>
<totfact> 0.15604228E+03</totfact>
</mgrwt>
</event>
<event>
 4    1  0.2892809E-005  0.8472340E+03  0.7818608E-02  0.9494057E-01
          2   -1    0    0  501    0  0.00000000000E+00  0.00000000000E+00  0.17733731994E+04  0.17733731994E+04  0.25500000000E-02 0.  1.
         -2   -1    0    0    0  501 -0.00000000000E+00 -0.00000000000E+00 -0.10119211115E+03  0.10119211118E+03  0.25500000000E-02 0. -1.
    5000001    1    1    2    0    0 -0.30267713493E+03  0.12582774322E+03  0.42132167865E+03  0.56729359759E+03  0.19200000000E+03 0.  0.
   -5000001    1    1    2    0    0  0.30267713493E+03 -0.12582774322E+03  0.12508594096E+04  0.13072717130E+04  0.19200000000E+03 0.  0.
<mgrwt>
<rscale>  0 0.84723404E+03</rscale>
<asrwt>0</asrwt>
<pdfrwt beam="1">  1        2 0.25333902E+00 0.84723404E+03</pdfrwt>
<pdfrwt beam="2">  1       -2 0.14456017E-01 0.84723404E+03</pdfrwt>
<totfact> 0.39532733E+02</totfact>
</mgrwt>
</event>
<event>
 4    1  0.2892809E-005  0.4982657E+03  0.7818608E-02  0.1014233E+00
          2   -1    0    0  501    0  0.00000000000E+00  0.00000000000E+00  0.11610831663E+04  0.11610831663E+04  0.25500000000E-02 0.  1.
         -2   -1    0    0    0  501 -0.00000000000E+00 -0.00000000000E+00 -0.53456279628E+02  0.53456279688E+02  0.25500000000E-02 0. -1.
    5000001    1    1    2    0    0 -0.79001703361E+02 -0.62700366376E+01  0.21850765612E+03  0.30147997989E+03  0.19200000000E+03 0.  0.
   -5000001    1    1    2    0    0  0.79001703361E+02  0.62700366376E+01  0.88911923056E+03  0.91305946611E+03  0.19200000000E+03 0.  0.
<mgrwt>
<rscale>  0 0.49826574E+03</rscale>
<asrwt>0</asrwt>
<pdfrwt beam="1">  1        2 0.16586901E+00 0.49826574E+03</pdfrwt>
<pdfrwt beam="2">  1       -2 0.76366119E-02 0.49826574E+03</pdfrwt>
<totfact> 0.23970704E+03</totfact>
</mgrwt>
</event>
<event>
 4    1  0.2892809E-005  0.6063893E+03  0.7818608E-02  0.9892238E-01
         -2   -1    0    0    0  501 -0.00000000000E+00  0.00000000000E+00  0.36681835564E+02  0.36681835653E+02  0.25500000000E-02 0. -1.
          2   -1    0    0  501    0  0.00000000000E+00 -0.00000000000E+00 -0.25060632371E+04  0.25060632371E+04  0.25500000000E-02 0.  1.
    5000001    1    1    2    0    0  0.15136255016E+03  0.14587288894E+03 -0.16719464519E+04  0.16960125175E+04  0.19200000000E+03 0.  0.
   -5000001    1    1    2    0    0 -0.15136255016E+03 -0.14587288894E+03 -0.79743494965E+03  0.84673255532E+03  0.19200000000E+03 0.  0.
<mgrwt>
<rscale>  0 0.60638931E+03</rscale>
<asrwt>0</asrwt>
<pdfrwt beam="1">  1        2 0.35800893E+00 0.60638931E+03</pdfrwt>
<pdfrwt beam="2">  1       -2 0.52402638E-02 0.60638931E+03</pdfrwt>
<totfact> 0.87621738E+02</totfact>
</mgrwt>
</event>
<event>
 4    1  0.2892809E-005  0.4829777E+03  0.7818608E-02  0.1018320E+00
          2   -1    0    0  501    0  0.00000000000E+00  0.00000000000E+00  0.26768923267E+03  0.26768923268E+03  0.25500000000E-02 0.  1.
         -2   -1    0    0    0  501 -0.00000000000E+00 -0.00000000000E+00 -0.21785290040E+03  0.21785290042E+03  0.25500000000E-02 0. -1.
    5000001    1    1    2    0    0 -0.34127850892E+02 -0.14229143569E+03  0.31379802269E+02  0.24343429271E+03  0.19200000000E+03 0.  0.
   -5000001    1    1    2    0    0  0.34127850892E+02  0.14229143569E+03  0.18456530001E+02  0.24210784039E+03  0.19200000000E+03 0.  0.
<mgrwt>
<rscale>  0 0.48297775E+03</rscale>
<asrwt>0</asrwt>
<pdfrwt beam="1">  1        2 0.38241319E-01 0.48297775E+03</pdfrwt>
<pdfrwt beam="2">  1       -2 0.31121843E-01 0.48297775E+03</pdfrwt>
<totfact> 0.12934352E+03</totfact>
</mgrwt>
</event>
<event>
 4    1  0.2892809E-005  0.9403093E+03  0.7818608E-02  0.9376550E-01
         -2   -1    0    0    0  501 -0.00000000000E+00  0.00000000000E+00  0.20760997276E+03  0.20760997278E+03  0.25500000000E-02 0. -1.
          2   -1    0    0  501    0  0.00000000000E+00 -0.00000000000E+00 -0.10647147450E+04  0.10647147450E+04  0.25500000000E-02 0.  1.
    5000001    1    1    2    0    0 -0.26945472689E+03  0.33374118811E+03 -0.40978540257E+03  0.62351993284E+03  0.19200000000E+03 0.  0.
   -5000001    1    1    2    0    0  0.26945472689E+03 -0.33374118811E+03 -0.44731936965E+03  0.64880478493E+03  0.19200000000E+03 0.  0.
<mgrwt>
<rscale>  0 0.94030931E+03</rscale>
<asrwt>0</asrwt>
<pdfrwt beam="1">  1        2 0.15210210E+00 0.94030931E+03</pdfrwt>
<pdfrwt beam="2">  1       -2 0.29658568E-01 0.94030931E+03</pdfrwt>
<totfact> 0.26811167E+02</totfact>
</mgrwt>
</event>
<event>
 4    1  0.2892809E-005  0.4971270E+03  0.7818608E-02  0.1014532E+00
          2   -1    0    0  501    0  0.00000000000E+00  0.00000000000E+00  0.16069686378E+04  0.16069686378E+04  0.25500000000E-02 0.  1.
         -2   -1    0    0    0  501 -0.00000000000E+00 -0.00000000000E+00 -0.38447430276E+02  0.38447430360E+02  0.25500000000E-02 0. -1.
    5000001    1    1    2    0    0  0.53730614426E+02 -0.14808995420E+03  0.75079978851E+03  0.79081093561E+03  0.19200000000E+03 0.  0.
   -5000001    1    1    2    0    0 -0.53730614426E+02  0.14808995420E+03  0.81772141904E+03  0.85460513257E+03  0.19200000000E+03 0.  0.
<mgrwt>
<rscale>  0 0.49712700E+03</rscale>
<asrwt>0</asrwt>
<pdfrwt beam="1">  1        2 0.22956696E+00 0.49712700E+03</pdfrwt>
<pdfrwt beam="2">  1       -2 0.54924897E-02 0.49712700E+03</pdfrwt>
<totfact> 0.23269365E+03</totfact>
</mgrwt>
</event>
<event>
 4    1  0.2892809E-005  0.6029231E+03  0.7818608E-02  0.9899360E-01
          2   -1    0    0  501    0  0.00000000000E+00  0.00000000000E+00  0.20589497832E+03  0.20589497834E+03  0.25500000000E-02 0.  1.
         -2   -1    0    0    0  501 -0.00000000000E+00 -0.00000000000E+00 -0.44138551647E+03  0.44138551648E+03  0.25500000000E-02 0. -1.
    5000001    1    1    2    0    0  0.88848976186E+02  0.75497451246E+02  0.98095974142E+02  0.24511390384E+03  0.19200000000E+03 0.  0.
   -5000001    1    1    2    0    0 -0.88848976186E+02 -0.75497451246E+02 -0.33358651229E+03  0.40216659098E+03  0.19200000000E+03 0.  0.
<mgrwt>
<rscale>  0 0.60292308E+03</rscale>
<asrwt>0</asrwt>
<pdfrwt beam="1">  1        2 0.29413568E-01 0.60292308E+03</pdfrwt>
<pdfrwt beam="2">  1       -2 0.63055074E-01 0.60292308E+03</pdfrwt>
<totfact> 0.42790590E+02</totfact>
</mgrwt>
</event>
<event>
 4    1  0.2892809E-005  0.6312726E+03  0.7818608E-02  0.9842569E-01
         -2   -1    0    0    0  501 -0.00000000000E+00  0.00000000000E+00  0.64079566072E+02  0.64079566123E+02  0.25500000000E-02 0. -1.
          2   -1    0    0  501    0  0.00000000000E+00 -0.00000000000E+00 -0.15547276028E+04  0.15547276028E+04  0.25500000000E-02 0.  1.
    5000001    1    1    2    0    0  0.18481132543E+03  0.42508167990E+02 -0.11651278456E+04  0.11959720176E+04  0.19200000000E+03 0.  0.
   -5000001    1    1    2    0    0 -0.18481132543E+03 -0.42508167990E+02 -0.32552019119E+03  0.42283515136E+03  0.19200000000E+03 0.  0.
<mgrwt>
<rscale>  0 0.63127259E+03</rscale>
<asrwt>0</asrwt>
<pdfrwt beam="1">  1        2 0.22210392E+00 0.63127259E+03</pdfrwt>
<pdfrwt beam="2">  1       -2 0.91542247E-02 0.63127259E+03</pdfrwt>
<totfact> 0.10994298E+03</totfact>
</mgrwt>
</event>
<event>
 4    1  0.2892809E-005  0.4863260E+03  0.7818608E-02  0.1017411E+00
         -2   -1    0    0    0  501 -0.00000000000E+00  0.00000000000E+00  0.26093115942E+02  0.26093116066E+02  0.25500000000E-02 0. -1.
          2   -1    0    0  501    0  0.00000000000E+00 -0.00000000000E+00 -0.22660478982E+04  0.22660478982E+04  0.25500000000E-02 0.  1.
    5000001    1    1    2    0    0 -0.25540387594E+02 -0.72791913913E+02 -0.51799412264E+03  0.55779286946E+03  0.19200000000E+03 0.  0.
   -5000001    1    1    2    0    0  0.25540387594E+02  0.72791913913E+02 -0.17219606596E+04  0.17343481448E+04  0.19200000000E+03 0.  0.
<mgrwt>
<rscale>  0 0.48632603E+03</rscale>
<asrwt>0</asrwt>
<pdfrwt beam="1">  1        2 0.32372100E+00 0.48632603E+03</pdfrwt>
<pdfrwt beam="2">  1       -2 0.37275894E-02 0.48632603E+03</pdfrwt>
<totfact> 0.19744892E+03</totfact>
</mgrwt>
</event>
<event>
 4    1  0.2892809E-005  0.5839792E+03  0.7818608E-02  0.9939213E-01
          2   -1    0    0  501    0  0.00000000000E+00  0.00000000000E+00  0.17698955184E+04  0.17698955184E+04  0.25500000000E-02 0.  1.
         -2   -1    0    0    0  501 -0.00000000000E+00 -0.00000000000E+00 -0.48171164100E+02  0.48171164168E+02  0.25500000000E-02 0. -1.
    5000001    1    1    2    0    0 -0.58206355518E+02  0.17801984275E+03  0.50162513768E+03  0.56883286033E+03  0.19200000000E+03 0.  0.
   -5000001    1    1    2    0    0  0.58206355518E+02 -0.17801984275E+03  0.12200992166E+04  0.12492338222E+04  0.19200000000E+03 0.  0.
<mgrwt>
<rscale>  0 0.58397920E+03</rscale>
<asrwt>0</asrwt>
<pdfrwt beam="1">  1        2 0.25284222E+00 0.58397920E+03</pdfrwt>
<pdfrwt beam="2">  1       -2 0.68815947E-02 0.58397920E+03</pdfrwt>
<totfact> 0.13477769E+03</totfact>
</mgrwt>
</event>
<event>
 4    1  0.2892809E-005  0.6650393E+03  0.7818608E-02  0.9778961E-01
          2   -1    0    0  501    0  0.00000000000E+00  0.00000000000E+00  0.16942397857E+04  0.16942397857E+04  0.25500000000E-02 0. -1.
         -2   -1    0    0    0  501 -0.00000000000E+00 -0.00000000000E+00 -0.65261914923E+02  0.65261914973E+02  0.25500000000E-02 0.  1.
    5000001    1    1    2    0    0  0.23373123845E+02  0.19874366127E+03  0.12998884332E+04  0.13291423116E+04  0.19200000000E+03 0.  0.
   -5000001    1    1    2    0    0 -0.23373123845E+02 -0.19874366127E+03  0.32908943761E+03  0.43035938907E+03  0.19200000000E+03 0.  0.
<mgrwt>
<rscale>  0 0.66503935E+03</rscale>
<asrwt>0</asrwt>
<pdfrwt beam="1">  1        2 0.24203427E+00 0.66503935E+03</pdfrwt>
<pdfrwt beam="2">  1       -2 0.93231303E-02 0.66503935E+03</pdfrwt>
<totfact> 0.90361599E+02</totfact>
</mgrwt>
</event>
<event>
 4    1  0.2892809E-005  0.1770227E+04  0.7818608E-02  0.8722295E-01
         -2   -1    0    0    0  501 -0.00000000000E+00  0.00000000000E+00  0.61823590354E+03  0.61823590355E+03  0.25500000000E-02 0. -1.
          2   -1    0    0  501    0  0.00000000000E+00 -0.00000000000E+00 -0.12671951624E+04  0.12671951624E+04  0.25500000000E-02 0.  1.
    5000001    1    1    2    0    0 -0.64715426627E+03 -0.53910788394E+03 -0.52967142434E+03  0.10133418834E+04  0.19200000000E+03 0.  0.
   -5000001    1    1    2    0    0  0.64715426627E+03  0.53910788394E+03 -0.11928783453E+03  0.87208918257E+03  0.19200000000E+03 0.  0.
<mgrwt>
<rscale>  0 0.17702266E+04</rscale>
<asrwt>0</asrwt>
<pdfrwt beam="1">  1        2 0.18102788E+00 0.17702266E+04</pdfrwt>
<pdfrwt beam="2">  1       -2 0.88319416E-01 0.17702266E+04</pdfrwt>
<totfact> 0.20515481E+01</totfact>
</mgrwt>
</event>
<event>
 4    1  0.2892809E-005  0.7762922E+03  0.7818608E-02  0.9594982E-01
         -2   -1    0    0    0  501 -0.00000000000E+00  0.00000000000E+00  0.11017590008E+03  0.11017590011E+03  0.25500000000E-02 0. -1.
          2   -1    0    0  501    0  0.00000000000E+00 -0.00000000000E+00 -0.13674259592E+04  0.13674259592E+04  0.25500000000E-02 0.  1.
    5000001    1    1    2    0    0  0.70885660807E+01 -0.33699695952E+03 -0.60336001092E+03  0.71730363255E+03  0.19200000000E+03 0.  0.
   -5000001    1    1    2    0    0 -0.70885660807E+01  0.33699695952E+03 -0.65389004818E+03  0.76029822676E+03  0.19200000000E+03 0.  0.
<mgrwt>
<rscale>  0 0.77629218E+03</rscale>
<asrwt>0</asrwt>
<pdfrwt beam="1">  1        2 0.19534656E+00 0.77629218E+03</pdfrwt>
<pdfrwt beam="2">  1       -2 0.15739415E-01 0.77629218E+03</pdfrwt>
<totfact> 0.56002748E+02</totfact>
</mgrwt>
</event>
<event>
 4    1  0.2892809E-005  0.8536230E+03  0.7818608E-02  0.9485487E-01
          2   -1    0    0  501    0  0.00000000000E+00  0.00000000000E+00  0.32705501787E+03  0.32705501788E+03  0.25500000000E-02 0.  1.
         -2   -1    0    0    0  501 -0.00000000000E+00 -0.00000000000E+00 -0.55699510773E+03  0.55699510773E+03  0.25500000000E-02 0. -1.
    5000001    1    1    2    0    0  0.37295973048E+03  0.23894460759E+02 -0.19270647250E+03  0.46224418910E+03  0.19200000000E+03 0.  0.
   -5000001    1    1    2    0    0 -0.37295973048E+03 -0.23894460759E+02 -0.37233617363E+02  0.42180593651E+03  0.19200000000E+03 0.  0.
<mgrwt>
<rscale>  0 0.85362297E+03</rscale>
<asrwt>0</asrwt>
<pdfrwt beam="1">  1        2 0.46722146E-01 0.85362297E+03</pdfrwt>
<pdfrwt beam="2">  1       -2 0.79570730E-01 0.85362297E+03</pdfrwt>
<totfact> 0.15240392E+02</totfact>
</mgrwt>
</event>
<event>
 4    1  0.2892809E-005  0.7360342E+03  0.7818608E-02  0.9657519E-01
         -2   -1    0    0    0  501 -0.00000000000E+00  0.00000000000E+00  0.58177960603E+03  0.58177960604E+03  0.25500000000E-02 0. -1.
          2   -1    0    0  501    0  0.00000000000E+00 -0.00000000000E+00 -0.23279703590E+03  0.23279703592E+03  0.25500000000E-02 0.  1.
    5000001    1    1    2    0    0 -0.87612191309E+02 -0.29476419560E+03  0.10440286290E+03  0.37726089760E+03  0.19200000000E+03 0.  0.
   -5000001    1    1    2    0    0  0.87612191309E+02  0.29476419560E+03  0.24457970723E+03  0.43731574436E+03  0.19200000000E+03 0.  0.
<mgrwt>
<rscale>  0 0.73603415E+03</rscale>
<asrwt>0</asrwt>
<pdfrwt beam="1">  1        2 0.33256720E-01 0.73603415E+03</pdfrwt>
<pdfrwt beam="2">  1       -2 0.83111371E-01 0.73603415E+03</pdfrwt>
<totfact> 0.20266989E+02</totfact>
</mgrwt>
</event>
<event>
 4    1  0.2892809E-005  0.4567780E+03  0.7818608E-02  0.1025720E+00
         -2   -1    0    0    0  501 -0.00000000000E+00  0.00000000000E+00  0.35431218273E+02  0.35431218365E+02  0.25500000000E-02 0. -1.
          2   -1    0    0  501    0  0.00000000000E+00 -0.00000000000E+00 -0.14721914479E+04  0.14721914479E+04  0.25500000000E-02 0.  1.
    5000001    1    1    2    0    0 -0.57318419776E+02 -0.83918334641E+02 -0.48570011876E+03  0.53206794067E+03  0.19200000000E+03 0.  0.
   -5000001    1    1    2    0    0  0.57318419776E+02  0.83918334641E+02 -0.95106011085E+03  0.97555472557E+03  0.19200000000E+03 0.  0.
<mgrwt>
<rscale>  0 0.45677801E+03</rscale>
<asrwt>0</asrwt>
<pdfrwt beam="1">  1        2 0.21031303E+00 0.45677801E+03</pdfrwt>
<pdfrwt beam="2">  1       -2 0.50616036E-02 0.45677801E+03</pdfrwt>
<totfact> 0.30988939E+03</totfact>
</mgrwt>
</event>
<event>
 4    1  0.2892809E-005  0.5015791E+03  0.7818608E-02  0.1013368E+00
         -2   -1    0    0    0  501 -0.00000000000E+00  0.00000000000E+00  0.17514068469E+03  0.17514068471E+03  0.25500000000E-02 0. -1.
          2   -1    0    0  501    0  0.00000000000E+00 -0.00000000000E+00 -0.35911356097E+03  0.35911356098E+03  0.25500000000E-02 0.  1.
    5000001    1    1    2    0    0 -0.15769359963E+03 -0.63698661465E+01 -0.56283459098E+02  0.25483263984E+03  0.19200000000E+03 0.  0.
   -5000001    1    1    2    0    0  0.15769359963E+03  0.63698661465E+01 -0.12768941718E+03  0.27942160585E+03  0.19200000000E+03 0.  0.
<mgrwt>
<rscale>  0 0.50157909E+03</rscale>
<asrwt>0</asrwt>
<pdfrwt beam="1">  1        2 0.51301937E-01 0.50157909E+03</pdfrwt>
<pdfrwt beam="2">  1       -2 0.25020098E-01 0.50157909E+03</pdfrwt>
<totfact> 0.13933704E+03</totfact>
</mgrwt>
</event>
<event>
 4    1  0.2892809E-005  0.9174854E+03  0.7818608E-02  0.9403984E-01
          2   -1    0    0  501    0  0.00000000000E+00  0.00000000000E+00  0.44330150812E+04  0.44330150812E+04  0.25500000000E-02 0.  1.
         -2   -1    0    0    0  501 -0.00000000000E+00 -0.00000000000E+00 -0.47472177102E+02  0.47472177171E+02  0.25500000000E-02 0. -1.
    5000001    1    1    2    0    0 -0.40721492679E+03 -0.65278898132E+02  0.19040469870E+04  0.19576374179E+04  0.19200000000E+03 0.  0.
   -5000001    1    1    2    0    0  0.40721492679E+03  0.65278898132E+02  0.24814959171E+04  0.25228498405E+04  0.19200000000E+03 0.  0.
<mgrwt>
<rscale>  0 0.91748543E+03</rscale>
<asrwt>0</asrwt>
<pdfrwt beam="1">  1        2 0.63328771E+00 0.91748543E+03</pdfrwt>
<pdfrwt beam="2">  1       -2 0.67817413E-02 0.91748543E+03</pdfrwt>
<totfact> 0.37885836E+01</totfact>
</mgrwt>
</event>
<event>
 4    1  0.2892809E-005  0.4870037E+03  0.7818608E-02  0.1017228E+00
          2   -1    0    0  501    0  0.00000000000E+00  0.00000000000E+00  0.11691836008E+04  0.11691836008E+04  0.25500000000E-02 0. -1.
         -2   -1    0    0    0  501 -0.00000000000E+00 -0.00000000000E+00 -0.50713300725E+02  0.50713300789E+02  0.25500000000E-02 0.  1.
    5000001    1    1    2    0    0  0.11033567476E+03 -0.98592499017E+02  0.50131187925E+03  0.55684112839E+03  0.19200000000E+03 0.  0.
   -5000001    1    1    2    0    0 -0.11033567476E+03  0.98592499017E+02  0.61715842084E+03  0.66305577322E+03  0.19200000000E+03 0.  0.
<mgrwt>
<rscale>  0 0.48700374E+03</rscale>
<asrwt>0</asrwt>
<pdfrwt beam="1">  1        2 0.16702621E+00 0.48700374E+03</pdfrwt>
<pdfrwt beam="2">  1       -2 0.72447579E-02 0.48700374E+03</pdfrwt>
<totfact> 0.25779240E+03</totfact>
</mgrwt>
</event>
<event>
 4    1  0.2892809E-005  0.6139679E+03  0.7818608E-02  0.9876843E-01
         -2   -1    0    0    0  501 -0.00000000000E+00  0.00000000000E+00  0.10799683719E+03  0.10799683722E+03  0.25500000000E-02 0. -1.
          2   -1    0    0  501    0  0.00000000000E+00 -0.00000000000E+00 -0.87261027373E+03  0.87261027373E+03  0.25500000000E-02 0.  1.
    5000001    1    1    2    0    0  0.11282097687E+03 -0.64751114616E+02 -0.61066878589E+02  0.23982169069E+03  0.19200000000E+03 0.  0.
   -5000001    1    1    2    0    0 -0.11282097687E+03  0.64751114616E+02 -0.70354655795E+03  0.74078542026E+03  0.19200000000E+03 0.  0.
<mgrwt>
<rscale>  0 0.61396791E+03</rscale>
<asrwt>0</asrwt>
<pdfrwt beam="1">  1        2 0.12465861E+00 0.61396791E+03</pdfrwt>
<pdfrwt beam="2">  1       -2 0.15428120E-01 0.61396791E+03</pdfrwt>
<totfact> 0.11360060E+03</totfact>
</mgrwt>
</event>
<event>
 4    1  0.2892809E-005  0.5270409E+03  0.7818608E-02  0.1006952E+00
          2   -1    0    0  501    0  0.00000000000E+00  0.00000000000E+00  0.41364227995E+03  0.41364227996E+03  0.25500000000E-02 0.  1.
         -2   -1    0    0    0  501 -0.00000000000E+00 -0.00000000000E+00 -0.16788185522E+03  0.16788185524E+03  0.25500000000E-02 0. -1.
    5000001    1    1    2    0    0 -0.90175076971E+02 -0.15346052348E+03  0.89827588991E+02  0.27679355577E+03  0.19200000000E+03 0.  0.
   -5000001    1    1    2    0    0  0.90175076971E+02  0.15346052348E+03  0.15593283574E+03  0.30473057942E+03  0.19200000000E+03 0.  0.
<mgrwt>
<rscale>  0 0.52704092E+03</rscale>
<asrwt>0</asrwt>
<pdfrwt beam="1">  1        2 0.59091754E-01 0.52704092E+03</pdfrwt>
<pdfrwt beam="2">  1       -2 0.23983122E-01 0.52704092E+03</pdfrwt>
<totfact> 0.12855174E+03</totfact>
</mgrwt>
</event>
<event>
 4    1  0.2892809E-005  0.4770358E+03  0.7818608E-02  0.1019953E+00
          2   -1    0    0  501    0  0.00000000000E+00  0.00000000000E+00  0.43243364440E+03  0.43243364440E+03  0.25500000000E-02 0.  1.
         -2   -1    0    0    0  501 -0.00000000000E+00 -0.00000000000E+00 -0.13155960337E+03  0.13155960339E+03  0.25500000000E-02 0. -1.
    5000001    1    1    2    0    0 -0.11226787997E+03  0.84925228811E+02  0.13328662956E+03  0.27284738771E+03  0.19200000000E+03 0.  0.
   -5000001    1    1    2    0    0  0.11226787997E+03 -0.84925228811E+02  0.16758741147E+03  0.29114586008E+03  0.19200000000E+03 0.  0.
<mgrwt>
<rscale>  0 0.47703584E+03</rscale>
<asrwt>0</asrwt>
<pdfrwt beam="1">  1        2 0.61776234E-01 0.47703584E+03</pdfrwt>
<pdfrwt beam="2">  1       -2 0.18794229E-01 0.47703584E+03</pdfrwt>
<totfact> 0.18737205E+03</totfact>
</mgrwt>
</event>
<event>
 4    1  0.2892809E-005  0.4366840E+03  0.7818608E-02  0.1031769E+00
         -2   -1    0    0    0  501 -0.00000000000E+00  0.00000000000E+00  0.91666248766E+02  0.91666248801E+02  0.25500000000E-02 0. -1.
          2   -1    0    0  501    0  0.00000000000E+00 -0.00000000000E+00 -0.52007388965E+03  0.52007388966E+03  0.25500000000E-02 0.  1.
    5000001    1    1    2    0    0  0.98511172316E+02 -0.23876538899E+02 -0.24659655869E+03  0.32855502270E+03  0.19200000000E+03 0.  0.
   -5000001    1    1    2    0    0 -0.98511172316E+02  0.23876538899E+02 -0.18181108220E+03  0.28318511576E+03  0.19200000000E+03 0.  0.
<mgrwt>
<rscale>  0 0.43668397E+03</rscale>
<asrwt>0</asrwt>
<pdfrwt beam="1">  1        2 0.74296268E-01 0.43668397E+03</pdfrwt>
<pdfrwt beam="2">  1       -2 0.13095179E-01 0.43668397E+03</pdfrwt>
<totfact> 0.27956330E+03</totfact>
</mgrwt>
</event>
<event>
 4    1  0.2892809E-005  0.7048975E+03  0.7818608E-02  0.9708893E-01
         -2   -1    0    0    0  501 -0.00000000000E+00  0.00000000000E+00  0.59107351549E+02  0.59107351604E+02  0.25500000000E-02 0. -1.
          2   -1    0    0  501    0  0.00000000000E+00 -0.00000000000E+00 -0.21016018814E+04  0.21016018814E+04  0.25500000000E-02 0.  1.
    5000001    1    1    2    0    0 -0.11828628482E+03 -0.20940488854E+03 -0.15478521700E+04  0.15781484064E+04  0.19200000000E+03 0.  0.
   -5000001    1    1    2    0    0  0.11828628482E+03  0.20940488854E+03 -0.49464235993E+03  0.58256082666E+03  0.19200000000E+03 0.  0.
<mgrwt>
<rscale>  0 0.70489750E+03</rscale>
<asrwt>0</asrwt>
<pdfrwt beam="1">  1        2 0.30022879E+00 0.70489750E+03</pdfrwt>
<pdfrwt beam="2">  1       -2 0.84439087E-02 0.70489750E+03</pdfrwt>
<totfact> 0.65776881E+02</totfact>
</mgrwt>
</event>
<event>
 4    1  0.2892809E-005  0.4964237E+03  0.7818608E-02  0.1014717E+00
          2   -1    0    0  501    0  0.00000000000E+00  0.00000000000E+00  0.43345222009E+03  0.43345222010E+03  0.25500000000E-02 0.  1.
         -2   -1    0    0    0  501 -0.00000000000E+00 -0.00000000000E+00 -0.14213592531E+03  0.14213592533E+03  0.25500000000E-02 0. -1.
    5000001    1    1    2    0    0  0.11879749779E+03 -0.10044051741E+03  0.17270112479E+03  0.30148104671E+03  0.19200000000E+03 0.  0.
   -5000001    1    1    2    0    0 -0.11879749779E+03  0.10044051741E+03  0.11861516999E+03  0.27410709873E+03  0.19200000000E+03 0.  0.
<mgrwt>
<rscale>  0 0.49642374E+03</rscale>
<asrwt>0</asrwt>
<pdfrwt beam="1">  1        2 0.61921745E-01 0.49642374E+03</pdfrwt>
<pdfrwt beam="2">  1       -2 0.20305132E-01 0.49642374E+03</pdfrwt>
<totfact> 0.16353961E+03</totfact>
</mgrwt>
</event>
<event>
 4    1  0.2892809E-005  0.9643225E+03  0.7818608E-02  0.9348565E-01
         -2   -1    0    0    0  501 -0.00000000000E+00  0.00000000000E+00  0.15358681422E+03  0.15358681424E+03  0.25500000000E-02 0.  1.
          2   -1    0    0  501    0  0.00000000000E+00 -0.00000000000E+00 -0.15136681486E+04  0.15136681486E+04  0.25500000000E-02 0. -1.
    5000001    1    1    2    0    0 -0.18058129774E+03  0.38280844231E+03 -0.45819977754E+03  0.65265836756E+03  0.19200000000E+03 0.  0.
   -5000001    1    1    2    0    0  0.18058129774E+03 -0.38280844231E+03 -0.90188155688E+03  0.10145965953E+04  0.19200000000E+03 0.  0.
<mgrwt>
<rscale>  0 0.96432250E+03</rscale>
<asrwt>0</asrwt>
<pdfrwt beam="1">  1        2 0.21623830E+00 0.96432250E+03</pdfrwt>
<pdfrwt beam="2">  1       -2 0.21940974E-01 0.96432250E+03</pdfrwt>
<totfact> 0.26019809E+02</totfact>
</mgrwt>
</event>
<event>
 4    1  0.2892809E-005  0.4505697E+03  0.7818608E-02  0.1027552E+00
          2   -1    0    0  501    0  0.00000000000E+00  0.00000000000E+00  0.22496040838E+04  0.22496040838E+04  0.25500000000E-02 0.  1.
         -2   -1    0    0    0  501 -0.00000000000E+00 -0.00000000000E+00 -0.22560976781E+02  0.22560976926E+02  0.25500000000E-02 0. -1.
    5000001    1    1    2    0    0  0.10633919056E+03 -0.55395631493E+01  0.85884130124E+03  0.88645986425E+03  0.19200000000E+03 0.  0.
   -5000001    1    1    2    0    0 -0.10633919056E+03  0.55395631493E+01  0.13682018058E+04  0.13857051965E+04  0.19200000000E+03 0.  0.
<mgrwt>
<rscale>  0 0.45056971E+03</rscale>
<asrwt>0</asrwt>
<pdfrwt beam="1">  1        2 0.32137196E+00 0.45056971E+03</pdfrwt>
<pdfrwt beam="2">  1       -2 0.32229972E-02 0.45056971E+03</pdfrwt>
<totfact> 0.25141631E+03</totfact>
</mgrwt>
</event>
<event>
 4    1  0.2892809E-005  0.7282848E+03  0.7818608E-02  0.9670048E-01
          2   -1    0    0  501    0  0.00000000000E+00  0.00000000000E+00  0.61135254252E+03  0.61135254252E+03  0.25500000000E-02 0.  1.
         -2   -1    0    0    0  501 -0.00000000000E+00 -0.00000000000E+00 -0.21689560151E+03  0.21689560153E+03  0.25500000000E-02 0. -1.
    5000001    1    1    2    0    0 -0.34819027796E+02 -0.24175222790E+03 -0.18788330022E+02  0.31124508950E+03  0.19200000000E+03 0.  0.
   -5000001    1    1    2    0    0  0.34819027796E+02  0.24175222790E+03  0.41324527103E+03  0.51700305455E+03  0.19200000000E+03 0.  0.
<mgrwt>
<rscale>  0 0.72828477E+03</rscale>
<asrwt>0</asrwt>
<pdfrwt beam="1">  1        2 0.87336076E-01 0.72828477E+03</pdfrwt>
<pdfrwt beam="2">  1       -2 0.30985086E-01 0.72828477E+03</pdfrwt>
<totfact> 0.51429043E+02</totfact>
</mgrwt>
</event>
<event>
 4    1  0.2892809E-005  0.8292888E+03  0.7818608E-02  0.9518564E-01
          2   -1    0    0  501    0  0.00000000000E+00  0.00000000000E+00  0.23767119745E+04  0.23767119745E+04  0.25500000000E-02 0. -1.
         -2   -1    0    0    0  501 -0.00000000000E+00 -0.00000000000E+00 -0.72339428418E+02  0.72339428463E+02  0.25500000000E-02 0.  1.
    5000001    1    1    2    0    0 -0.16226169807E+03  0.24720589472E+03  0.50769677539E+03  0.61810972229E+03  0.19200000000E+03 0.  0.
   -5000001    1    1    2    0    0  0.16226169807E+03 -0.24720589472E+03  0.17966757707E+04  0.18309416807E+04  0.19200000000E+03 0.  0.
<mgrwt>
<rscale>  0 0.82928882E+03</rscale>
<asrwt>0</asrwt>
<pdfrwt beam="1">  1        2 0.33953025E+00 0.82928882E+03</pdfrwt>
<pdfrwt beam="2">  1       -2 0.10334205E-01 0.82928882E+03</pdfrwt>
<totfact> 0.34052750E+02</totfact>
</mgrwt>
</event>
<event>
 4    1  0.2892809E-005  0.5545747E+03  0.7818608E-02  0.1000441E+00
         -2   -1    0    0    0  501 -0.00000000000E+00  0.00000000000E+00  0.11338836560E+03  0.11338836563E+03  0.25500000000E-02 0. -1.
          2   -1    0    0  501    0  0.00000000000E+00 -0.00000000000E+00 -0.67809679135E+03  0.67809679135E+03  0.25500000000E-02 0.  1.
    5000001    1    1    2    0    0 -0.11494243876E+03  0.10273078828E+03 -0.10037223910E+03  0.26590217275E+03  0.19200000000E+03 0.  0.
   -5000001    1    1    2    0    0  0.11494243876E+03 -0.10273078828E+03 -0.46433618664E+03  0.52558298423E+03  0.19200000000E+03 0.  0.
<mgrwt>
<rscale>  0 0.55457474E+03</rscale>
<asrwt>0</asrwt>
<pdfrwt beam="1">  1        2 0.96870968E-01 0.55457474E+03</pdfrwt>
<pdfrwt beam="2">  1       -2 0.16198338E-01 0.55457474E+03</pdfrwt>
<totfact> 0.14390270E+03</totfact>
</mgrwt>
</event>
<event>
 4    1  0.2892809E-005  0.4263971E+03  0.7818608E-02  0.1035004E+00
         -2   -1    0    0    0  501 -0.00000000000E+00  0.00000000000E+00  0.56214673416E+02  0.56214673474E+02  0.25500000000E-02 0. -1.
          2   -1    0    0  501    0  0.00000000000E+00 -0.00000000000E+00 -0.80857214759E+03  0.80857214759E+03  0.25500000000E-02 0.  1.
    5000001    1    1    2    0    0 -0.65772366457E+02  0.40672098332E+01 -0.50835080578E+03  0.54738203124E+03  0.19200000000E+03 0.  0.
   -5000001    1    1    2    0    0  0.65772366457E+02 -0.40672098332E+01 -0.24400666839E+03  0.31740478982E+03  0.19200000000E+03 0.  0.
<mgrwt>
<rscale>  0 0.42639709E+03</rscale>
<asrwt>0</asrwt>
<pdfrwt beam="1">  1        2 0.11551030E+00 0.42639709E+03</pdfrwt>
<pdfrwt beam="2">  1       -2 0.80306681E-02 0.42639709E+03</pdfrwt>
<totfact> 0.36378854E+03</totfact>
</mgrwt>
</event>
<event>
 4    1  0.2892809E-005  0.5580794E+03  0.7818608E-02  0.9996410E-01
          2   -1    0    0  501    0  0.00000000000E+00  0.00000000000E+00  0.11168468809E+04  0.11168468809E+04  0.25500000000E-02 0.  1.
         -2   -1    0    0    0  501 -0.00000000000E+00 -0.00000000000E+00 -0.69716942502E+02  0.69716942549E+02  0.25500000000E-02 0. -1.
    5000001    1    1    2    0    0  0.94609305014E+02 -0.16213847062E+03  0.36221024265E+03  0.45088808382E+03  0.19200000000E+03 0.  0.
   -5000001    1    1    2    0    0 -0.94609305014E+02  0.16213847062E+03  0.68491969570E+03  0.73567573959E+03  0.19200000000E+03 0.  0.
<mgrwt>
<rscale>  0 0.55807938E+03</rscale>
<asrwt>0</asrwt>
<pdfrwt beam="1">  1        2 0.15954955E+00 0.55807938E+03</pdfrwt>
<pdfrwt beam="2">  1       -2 0.99595632E-02 0.55807938E+03</pdfrwt>
<totfact> 0.16599581E+03</totfact>
</mgrwt>
</event>
<event>
 4    1  0.2892809E-005  0.3994482E+03  0.7818608E-02  0.1043971E+00
         -2   -1    0    0    0  501 -0.00000000000E+00  0.00000000000E+00  0.20673716966E+02  0.20673717124E+02  0.25500000000E-02 0. -1.
          2   -1    0    0  501    0  0.00000000000E+00 -0.00000000000E+00 -0.19294891604E+04  0.19294891604E+04  0.25500000000E-02 0.  1.
    5000001    1    1    2    0    0  0.51724371874E+02 -0.22977959438E+01 -0.10450924386E+04  0.10638434545E+04  0.19200000000E+03 0.  0.
   -5000001    1    1    2    0    0 -0.51724371874E+02  0.22977959438E+01 -0.86372300482E+03  0.88631942298E+03  0.19200000000E+03 0.  0.
<mgrwt>
<rscale>  0 0.39944818E+03</rscale>
<asrwt>0</asrwt>
<pdfrwt beam="1">  1        2 0.27564120E+00 0.39944818E+03</pdfrwt>
<pdfrwt beam="2">  1       -2 0.29533894E-02 0.39944818E+03</pdfrwt>
<totfact> 0.41424530E+03</totfact>
</mgrwt>
</event>
<event>
 4    1  0.2892809E-005  0.4007062E+03  0.7818608E-02  0.1043535E+00
          2   -1    0    0  501    0  0.00000000000E+00  0.00000000000E+00  0.15998669926E+03  0.15998669928E+03  0.25500000000E-02 0.  1.
         -2   -1    0    0    0  501 -0.00000000000E+00 -0.00000000000E+00 -0.25090437898E+03  0.25090437899E+03  0.25500000000E-02 0. -1.
    5000001    1    1    2    0    0  0.53007280194E+02  0.21091093118E+02 -0.50350571315E+02  0.20652793030E+03  0.19200000000E+03 0.  0.
   -5000001    1    1    2    0    0 -0.53007280194E+02 -0.21091093118E+02 -0.40567108404E+02  0.20436314797E+03  0.19200000000E+03 0.  0.
<mgrwt>
<rscale>  0 0.40070619E+03</rscale>
<asrwt>0</asrwt>
<pdfrwt beam="1">  1        2 0.22855243E-01 0.40070619E+03</pdfrwt>
<pdfrwt beam="2">  1       -2 0.35843483E-01 0.40070619E+03</pdfrwt>
<totfact> 0.17630736E+03</totfact>
</mgrwt>
</event>
<event>
 4    1  0.2892809E-005  0.5869777E+03  0.7818608E-02  0.9932798E-01
          2   -1    0    0  501    0  0.00000000000E+00  0.00000000000E+00  0.68522287644E+02  0.68522287692E+02  0.25500000000E-02 0.  1.
         -2   -1    0    0    0  501 -0.00000000000E+00 -0.00000000000E+00 -0.12570464399E+04  0.12570464399E+04  0.25500000000E-02 0. -1.
    5000001    1    1    2    0    0 -0.21764226756E+03 -0.89753608447E+01 -0.69068317994E+03  0.74923692434E+03  0.19200000000E+03 0.  0.
   -5000001    1    1    2    0    0  0.21764226756E+03  0.89753608447E+01 -0.49784097227E+03  0.57633180321E+03  0.19200000000E+03 0.  0.
<mgrwt>
<rscale>  0 0.58697768E+03</rscale>
<asrwt>0</asrwt>
<pdfrwt beam="1">  1        2 0.97888990E-02 0.58697768E+03</pdfrwt>
<pdfrwt beam="2">  1       -2 0.17957805E+00 0.58697768E+03</pdfrwt>
<totfact> 0.12736668E+02</totfact>
</mgrwt>
</event>
<event>
 4    1  0.2892809E-005  0.5613756E+03  0.7818608E-02  0.9988947E-01
          2   -1    0    0  501    0  0.00000000000E+00  0.00000000000E+00  0.33394169606E+04  0.33394169606E+04  0.25500000000E-02 0. -1.
         -2   -1    0    0    0  501 -0.00000000000E+00 -0.00000000000E+00 -0.23592631208E+02  0.23592631345E+02  0.25500000000E-02 0.  1.
    5000001    1    1    2    0    0 -0.63440036341E+02 -0.14256055597E+03  0.24520639472E+04  0.24645141005E+04  0.19200000000E+03 0.  0.
   -5000001    1    1    2    0    0  0.63440036341E+02  0.14256055597E+03  0.86376038218E+03  0.89849549145E+03  0.19200000000E+03 0.  0.
<mgrwt>
<rscale>  0 0.56137557E+03</rscale>
<asrwt>0</asrwt>
<pdfrwt beam="1">  1        2 0.47705907E+00 0.56137557E+03</pdfrwt>
<pdfrwt beam="2">  1       -2 0.33703794E-02 0.56137557E+03</pdfrwt>
<totfact> 0.61601833E+02</totfact>
</mgrwt>
</event>
<event>
 4    1  0.2892809E-005  0.6000999E+03  0.7818608E-02  0.9905199E-01
         -2   -1    0    0    0  501 -0.00000000000E+00  0.00000000000E+00  0.43218062981E+02  0.43218063056E+02  0.25500000000E-02 0. -1.
          2   -1    0    0  501    0  0.00000000000E+00 -0.00000000000E+00 -0.20831558637E+04  0.20831558637E+04  0.25500000000E-02 0.  1.
    5000001    1    1    2    0    0 -0.18267267458E+03  0.11183688848E+03 -0.13224895493E+04  0.13534102865E+04  0.19200000000E+03 0.  0.
   -5000001    1    1    2    0    0  0.18267267458E+03 -0.11183688848E+03 -0.71744825150E+03  0.77296364031E+03  0.19200000000E+03 0.  0.
<mgrwt>
<rscale>  0 0.60009986E+03</rscale>
<asrwt>0</asrwt>
<pdfrwt beam="1">  1        2 0.29759363E+00 0.60009986E+03</pdfrwt>
<pdfrwt beam="2">  1       -2 0.61740103E-02 0.60009986E+03</pdfrwt>
<totfact> 0.11113564E+03</totfact>
</mgrwt>
</event>
<event>
 4    1  0.2892809E-005  0.5106293E+03  0.7818608E-02  0.1011041E+00
         -2   -1    0    0    0  501 -0.00000000000E+00  0.00000000000E+00  0.37342959352E+02  0.37342959439E+02  0.25500000000E-02 0. -1.
          2   -1    0    0  501    0  0.00000000000E+00 -0.00000000000E+00 -0.17455922060E+04  0.17455922060E+04  0.25500000000E-02 0.  1.
    5000001    1    1    2    0    0  0.16207072999E+03  0.44376378227E+02 -0.82185866893E+03  0.86055322680E+03  0.19200000000E+03 0.  0.
   -5000001    1    1    2    0    0 -0.16207072999E+03 -0.44376378227E+02 -0.88639057776E+03  0.92238193868E+03  0.19200000000E+03 0.  0.
<mgrwt>
<rscale>  0 0.51062933E+03</rscale>
<asrwt>0</asrwt>
<pdfrwt beam="1">  1        2 0.24937026E+00 0.51062933E+03</pdfrwt>
<pdfrwt beam="2">  1       -2 0.53347096E-02 0.51062933E+03</pdfrwt>
<totfact> 0.20702712E+03</totfact>
</mgrwt>
</event>
<event>
 4    1  0.2892809E-005  0.7209120E+03  0.7818608E-02  0.9682123E-01
         -2   -1    0    0    0  501 -0.00000000000E+00  0.00000000000E+00  0.38784724049E+02  0.38784724133E+02  0.25500000000E-02 0. -1.
          2   -1    0    0  501    0  0.00000000000E+00 -0.00000000000E+00 -0.33499922604E+04  0.33499922604E+04  0.25500000000E-02 0.  1.
    5000001    1    1    2    0    0  0.20193475802E+03 -0.15463634080E+03 -0.24474205510E+04  0.24680805088E+04  0.19200000000E+03 0.  0.
   -5000001    1    1    2    0    0 -0.20193475802E+03  0.15463634080E+03 -0.86378698534E+03  0.92069647574E+03  0.19200000000E+03 0.  0.
<mgrwt>
<rscale>  0 0.72091199E+03</rscale>
<asrwt>0</asrwt>
<pdfrwt beam="1">  1        2 0.47857014E+00 0.72091199E+03</pdfrwt>
<pdfrwt beam="2">  1       -2 0.55406770E-02 0.72091199E+03</pdfrwt>
<totfact> 0.27704997E+02</totfact>
</mgrwt>
</event>
<event>
 4    1  0.2892809E-005  0.4724159E+03  0.7818608E-02  0.1021241E+00
          2   -1    0    0  501    0  0.00000000000E+00  0.00000000000E+00  0.11370976943E+03  0.11370976945E+03  0.25500000000E-02 0.  1.
         -2   -1    0    0    0  501 -0.00000000000E+00 -0.00000000000E+00 -0.49067202608E+03  0.49067202608E+03  0.25500000000E-02 0. -1.
    5000001    1    1    2    0    0  0.12995955297E+03  0.38986528168E+02 -0.15928608948E+03  0.28398150131E+03  0.19200000000E+03 0.  0.
   -5000001    1    1    2    0    0 -0.12995955297E+03 -0.38986528168E+02 -0.21767616718E+03  0.32040029423E+03  0.19200000000E+03 0.  0.
<mgrwt>
<rscale>  0 0.47241593E+03</rscale>
<asrwt>0</asrwt>
<pdfrwt beam="1">  1        2 0.16244253E-01 0.47241593E+03</pdfrwt>
<pdfrwt beam="2">  1       -2 0.70096003E-01 0.47241593E+03</pdfrwt>
<totfact> 0.67881418E+02</totfact>
</mgrwt>
</event>
<event>
 4    1  0.2892809E-005  0.5302395E+03  0.7818608E-02  0.1006174E+00
          2   -1    0    0  501    0  0.00000000000E+00  0.00000000000E+00  0.34842710666E+03  0.34842710667E+03  0.25500000000E-02 0.  1.
         -2   -1    0    0    0  501 -0.00000000000E+00 -0.00000000000E+00 -0.20173080825E+03  0.20173080826E+03  0.25500000000E-02 0. -1.
    5000001    1    1    2    0    0  0.17694599661E+03  0.45983850901E+02  0.73051780646E+02  0.27499993257E+03  0.19200000000E+03 0.  0.
   -5000001    1    1    2    0    0 -0.17694599661E+03 -0.45983850901E+02  0.73644517770E+02  0.27515798236E+03  0.19200000000E+03 0.  0.
<mgrwt>
<rscale>  0 0.53023950E+03</rscale>
<asrwt>0</asrwt>
<pdfrwt beam="1">  1        2 0.49775301E-01 0.53023950E+03</pdfrwt>
<pdfrwt beam="2">  1       -2 0.28818687E-01 0.53023950E+03</pdfrwt>
<totfact> 0.11154507E+03</totfact>
</mgrwt>
</event>
<event>
 4    1  0.2892809E-005  0.4876154E+03  0.7818608E-02  0.1017063E+00
          2   -1    0    0  501    0  0.00000000000E+00  0.00000000000E+00  0.26102999833E+04  0.26102999833E+04  0.25500000000E-02 0.  1.
         -2   -1    0    0    0  501 -0.00000000000E+00 -0.00000000000E+00 -0.22772165911E+02  0.22772166054E+02  0.25500000000E-02 0. -1.
    5000001    1    1    2    0    0  0.47745123939E+02  0.10553455477E+03  0.18106060301E+04  0.18244383616E+04  0.19200000000E+03 0.  0.
   -5000001    1    1    2    0    0 -0.47745123939E+02 -0.10553455477E+03  0.77692178734E+03  0.80863378779E+03  0.19200000000E+03 0.  0.
<mgrwt>
<rscale>  0 0.48761536E+03</rscale>
<asrwt>0</asrwt>
<pdfrwt beam="1">  1        2 0.37289986E+00 0.48761536E+03</pdfrwt>
<pdfrwt beam="2">  1       -2 0.32531678E-02 0.48761536E+03</pdfrwt>
<totfact> 0.16241744E+03</totfact>
</mgrwt>
</event>
<event>
 4    1  0.2892809E-005  0.8572393E+03  0.7818608E-02  0.9480672E-01
         -2   -1    0    0    0  501 -0.00000000000E+00  0.00000000000E+00  0.56116639283E+03  0.56116639284E+03  0.25500000000E-02 0. -1.
          2   -1    0    0  501    0  0.00000000000E+00 -0.00000000000E+00 -0.32738030461E+03  0.32738030462E+03  0.25500000000E-02 0.  1.
    5000001    1    1    2    0    0  0.14700907898E+03 -0.35385699565E+03  0.11177490073E+03  0.44292671076E+03  0.19200000000E+03 0.  0.
   -5000001    1    1    2    0    0 -0.14700907898E+03  0.35385699565E+03  0.12201118749E+03  0.44561998670E+03  0.19200000000E+03 0.  0.
<mgrwt>
<rscale>  0 0.85723935E+03</rscale>
<asrwt>0</asrwt>
<pdfrwt beam="1">  1        2 0.46768615E-01 0.85723935E+03</pdfrwt>
<pdfrwt beam="2">  1       -2 0.80166627E-01 0.85723935E+03</pdfrwt>
<totfact> 0.14968098E+02</totfact>
</mgrwt>
</event>
<event>
 4    1  0.2892809E-005  0.4789631E+03  0.7818608E-02  0.1019421E+00
          2   -1    0    0  501    0  0.00000000000E+00  0.00000000000E+00  0.29868269419E+03  0.29868269420E+03  0.25500000000E-02 0.  1.
         -2   -1    0    0    0  501 -0.00000000000E+00 -0.00000000000E+00 -0.19201452067E+03  0.19201452068E+03  0.25500000000E-02 0. -1.
    5000001    1    1    2    0    0  0.80325965949E+02  0.37435814475E+02  0.16848755970E+03  0.27038076630E+03  0.19200000000E+03 0.  0.
   -5000001    1    1    2    0    0 -0.80325965949E+02 -0.37435814475E+02 -0.61819386172E+02  0.22031644859E+03  0.19200000000E+03 0.  0.
<mgrwt>
<rscale>  0 0.47896311E+03</rscale>
<asrwt>0</asrwt>
<pdfrwt beam="1">  1        2 0.42668956E-01 0.47896311E+03</pdfrwt>
<pdfrwt beam="2">  1       -2 0.27430646E-01 0.47896311E+03</pdfrwt>
<totfact> 0.14450352E+03</totfact>
</mgrwt>
</event>
<event>
 4    1  0.2892809E-005  0.4709975E+03  0.7818608E-02  0.1021639E+00
         -2   -1    0    0    0  501 -0.00000000000E+00  0.00000000000E+00  0.35573497157E+02  0.35573497248E+02  0.25500000000E-02 0. -1.
          2   -1    0    0  501    0  0.00000000000E+00 -0.00000000000E+00 -0.15590161364E+04  0.15590161364E+04  0.25500000000E-02 0.  1.
    5000001    1    1    2    0    0  0.55630464096E+02 -0.12117208631E+03 -0.66487817453E+03  0.70477259453E+03  0.19200000000E+03 0.  0.
   -5000001    1    1    2    0    0 -0.55630464096E+02  0.12117208631E+03 -0.85856446467E+03  0.88981703908E+03  0.19200000000E+03 0.  0.
<mgrwt>
<rscale>  0 0.47099748E+03</rscale>
<asrwt>0</asrwt>
<pdfrwt beam="1">  1        2 0.22271655E+00 0.47099748E+03</pdfrwt>
<pdfrwt beam="2">  1       -2 0.50819291E-02 0.47099748E+03</pdfrwt>
<totfact> 0.27780024E+03</totfact>
</mgrwt>
</event>
<event>
 4    1  0.2892809E-005  0.5612873E+03  0.7818608E-02  0.9989146E-01
          2   -1    0    0  501    0  0.00000000000E+00  0.00000000000E+00  0.19851323181E+04  0.19851323181E+04  0.25500000000E-02 0.  1.
         -2   -1    0    0    0  501 -0.00000000000E+00 -0.00000000000E+00 -0.39675372735E+02  0.39675372817E+02  0.25500000000E-02 0. -1.
    5000001    1    1    2    0    0  0.15475771500E+03 -0.48172498058E+02  0.52177994646E+03  0.57912766507E+03  0.19200000000E+03 0.  0.
   -5000001    1    1    2    0    0 -0.15475771500E+03  0.48172498058E+02  0.14236769989E+04  0.14456800258E+04  0.19200000000E+03 0.  0.
<mgrwt>
<rscale>  0 0.56128732E+03</rscale>
<asrwt>0</asrwt>
<pdfrwt beam="1">  1        2 0.28359039E+00 0.56128732E+03</pdfrwt>
<pdfrwt beam="2">  1       -2 0.56679092E-02 0.56128732E+03</pdfrwt>
<totfact> 0.14256352E+03</totfact>
</mgrwt>
</event>
<event>
 4    1  0.2892809E-005  0.7614265E+03  0.7818608E-02  0.9617593E-01
          2   -1    0    0  501    0  0.00000000000E+00  0.00000000000E+00  0.22330255304E+04  0.22330255304E+04  0.25500000000E-02 0. -1.
         -2   -1    0    0    0  501 -0.00000000000E+00 -0.00000000000E+00 -0.64908609556E+02  0.64908609606E+02  0.25500000000E-02 0.  1.
    5000001    1    1    2    0    0 -0.23277486032E+03  0.11764207838E+03  0.16880582731E+04  0.17188451145E+04  0.19200000000E+03 0.  0.
   -5000001    1    1    2    0    0  0.23277486032E+03 -0.11764207838E+03  0.48005864772E+03  0.57908902550E+03  0.19200000000E+03 0.  0.
<mgrwt>
<rscale>  0 0.76142651E+03</rscale>
<asrwt>0</asrwt>
<pdfrwt beam="1">  1        2 0.31900366E+00 0.76142651E+03</pdfrwt>
<pdfrwt beam="2">  1       -2 0.92726582E-02 0.76142651E+03</pdfrwt>
<totfact> 0.48338857E+02</totfact>
</mgrwt>
</event>
<event>
 4    1  0.2892809E-005  0.6833500E+03  0.7818608E-02  0.9746137E-01
          2   -1    0    0  501    0  0.00000000000E+00  0.00000000000E+00  0.42469204786E+04  0.42469204786E+04  0.25500000000E-02 0.  1.
         -2   -1    0    0    0  501 -0.00000000000E+00 -0.00000000000E+00 -0.27488580261E+02  0.27488580380E+02  0.25500000000E-02 0. -1.
    5000001    1    1    2    0    0  0.10123626774E+03  0.20628024431E+03  0.10804275052E+04  0.11211547240E+04  0.19200000000E+03 0.  0.
   -5000001    1    1    2    0    0 -0.10123626774E+03 -0.20628024431E+03  0.31390043931E+04  0.31532543349E+04  0.19200000000E+03 0.  0.
<mgrwt>
<rscale>  0 0.68335003E+03</rscale>
<asrwt>0</asrwt>
<pdfrwt beam="1">  1        2 0.60670247E+00 0.68335003E+03</pdfrwt>
<pdfrwt beam="2">  1       -2 0.39269430E-02 0.68335003E+03</pdfrwt>
<totfact> 0.12648856E+02</totfact>
</mgrwt>
</event>
<event>
 4    1  0.2892809E-005  0.6517763E+03  0.7818608E-02  0.9803452E-01
         -2   -1    0    0    0  501 -0.00000000000E+00  0.00000000000E+00  0.12885745716E+03  0.12885745718E+03  0.25500000000E-02 0. -1.
          2   -1    0    0  501    0  0.00000000000E+00 -0.00000000000E+00 -0.82419034321E+03  0.82419034321E+03  0.25500000000E-02 0.  1.
    5000001    1    1    2    0    0 -0.24369102216E+03 -0.46851661345E+02 -0.47646471959E+03  0.57049366470E+03  0.19200000000E+03 0.  0.
   -5000001    1    1    2    0    0  0.24369102216E+03  0.46851661345E+02 -0.21886816646E+03  0.38255413570E+03  0.19200000000E+03 0.  0.
<mgrwt>
<rscale>  0 0.65177626E+03</rscale>
<asrwt>0</asrwt>
<pdfrwt beam="1">  1        2 0.11774147E+00 0.65177626E+03</pdfrwt>
<pdfrwt beam="2">  1       -2 0.18408209E-01 0.65177626E+03</pdfrwt>
<totfact> 0.90475237E+02</totfact>
</mgrwt>
</event>
<event>
 4    1  0.2892809E-005  0.7854922E+03  0.7818608E-02  0.9581257E-01
          2   -1    0    0  501    0  0.00000000000E+00  0.00000000000E+00  0.12425245448E+04  0.12425245448E+04  0.25500000000E-02 0.  1.
         -2   -1    0    0    0  501 -0.00000000000E+00 -0.00000000000E+00 -0.12414201790E+03  0.12414201793E+03  0.25500000000E-02 0. -1.
    5000001    1    1    2    0    0  0.28024259331E+03  0.13193793107E+03  0.30441845005E+03  0.47484536587E+03  0.19200000000E+03 0.  0.
   -5000001    1    1    2    0    0 -0.28024259331E+03 -0.13193793107E+03  0.81396407682E+03  0.89182119682E+03  0.19200000000E+03 0.  0.
<mgrwt>
<rscale>  0 0.78549221E+03</rscale>
<asrwt>0</asrwt>
<pdfrwt beam="1">  1        2 0.17750351E+00 0.78549221E+03</pdfrwt>
<pdfrwt beam="2">  1       -2 0.17734574E-01 0.78549221E+03</pdfrwt>
<totfact> 0.53430141E+02</totfact>
</mgrwt>
</event>
<event>
 4    1  0.2892809E-005  0.5397464E+03  0.7818608E-02  0.1003895E+00
          2   -1    0    0  501    0  0.00000000000E+00  0.00000000000E+00  0.14874923078E+04  0.14874923078E+04  0.25500000000E-02 0.  1.
         -2   -1    0    0    0  501 -0.00000000000E+00 -0.00000000000E+00 -0.48962640739E+02  0.48962640805E+02  0.25500000000E-02 0. -1.
    5000001    1    1    2    0    0 -0.11059252305E+03  0.10018279560E+03  0.38607300261E+03  0.45627147844E+03  0.19200000000E+03 0.  0.
   -5000001    1    1    2    0    0  0.11059252305E+03 -0.10018279560E+03  0.10524566645E+04  0.10801834702E+04  0.19200000000E+03 0.  0.
<mgrwt>
<rscale>  0 0.53974643E+03</rscale>
<asrwt>0</asrwt>
<pdfrwt beam="1">  1        2 0.21249885E+00 0.53974643E+03</pdfrwt>
<pdfrwt beam="2">  1       -2 0.69946647E-02 0.53974643E+03</pdfrwt>
<totfact> 0.18349658E+03</totfact>
</mgrwt>
</event>
<event>
 4    1  0.2892809E-005  0.6257929E+03  0.7818608E-02  0.9853293E-01
          2   -1    0    0  501    0  0.00000000000E+00  0.00000000000E+00  0.23300724488E+04  0.23300724488E+04  0.25500000000E-02 0.  1.
         -2   -1    0    0    0  501 -0.00000000000E+00 -0.00000000000E+00 -0.42017659756E+02  0.42017659834E+02  0.25500000000E-02 0. -1.
    5000001    1    1    2    0    0 -0.15806696974E+03  0.18987022171E+03  0.11361457791E+04  0.11784426585E+04  0.19200000000E+03 0.  0.
   -5000001    1    1    2    0    0  0.15806696974E+03 -0.18987022171E+03  0.11519090099E+04  0.11936474501E+04  0.19200000000E+03 0.  0.
<mgrwt>
<rscale>  0 0.62579291E+03</rscale>
<asrwt>0</asrwt>
<pdfrwt beam="1">  1        2 0.33286740E+00 0.62579291E+03</pdfrwt>
<pdfrwt beam="2">  1       -2 0.60025244E-02 0.62579291E+03</pdfrwt>
<totfact> 0.87048976E+02</totfact>
</mgrwt>
</event>
<event>
 4    1  0.2892809E-005  0.5148722E+03  0.7818608E-02  0.1009968E+00
         -2   -1    0    0    0  501 -0.00000000000E+00  0.00000000000E+00  0.68367632996E+02  0.68367633044E+02  0.25500000000E-02 0. -1.
          2   -1    0    0  501    0  0.00000000000E+00 -0.00000000000E+00 -0.96936715758E+03  0.96936715758E+03  0.25500000000E-02 0.  1.
    5000001    1    1    2    0    0 -0.16942007536E+03  0.10157700149E+02 -0.40100666450E+03  0.47589566691E+03  0.19200000000E+03 0.  0.
   -5000001    1    1    2    0    0  0.16942007536E+03 -0.10157700149E+02 -0.49999286008E+03  0.56183912372E+03  0.19200000000E+03 0.  0.
<mgrwt>
<rscale>  0 0.51487217E+03</rscale>
<asrwt>0</asrwt>
<pdfrwt beam="1">  1        2 0.13848101E+00 0.51487217E+03</pdfrwt>
<pdfrwt beam="2">  1       -2 0.97668053E-02 0.51487217E+03</pdfrwt>
<totfact> 0.20976664E+03</totfact>
</mgrwt>
</event>
<event>
 4    1  0.2892809E-005  0.4360849E+03  0.7818608E-02  0.1031955E+00
          2   -1    0    0  501    0  0.00000000000E+00  0.00000000000E+00  0.84414490692E+02  0.84414490731E+02  0.25500000000E-02 0.  1.
         -2   -1    0    0    0  501 -0.00000000000E+00 -0.00000000000E+00 -0.56320328396E+03  0.56320328396E+03  0.25500000000E-02 0. -1.
    5000001    1    1    2    0    0  0.41415794682E+02 -0.94307576917E+02 -0.22702888022E+03  0.31466696612E+03  0.19200000000E+03 0.  0.
   -5000001    1    1    2    0    0 -0.41415794682E+02  0.94307576917E+02 -0.25175991305E+03  0.33295080857E+03  0.19200000000E+03 0.  0.
<mgrwt>
<rscale>  0 0.43608494E+03</rscale>
<asrwt>0</asrwt>
<pdfrwt beam="1">  1        2 0.12059213E-01 0.43608494E+03</pdfrwt>
<pdfrwt beam="2">  1       -2 0.80457610E-01 0.43608494E+03</pdfrwt>
<totfact> 0.71966371E+02</totfact>
</mgrwt>
</event>
<event>
 4    1  0.2892809E-005  0.5591554E+03  0.7818608E-02  0.9993968E-01
          2   -1    0    0  501    0  0.00000000000E+00  0.00000000000E+00  0.14127616618E+04  0.14127616618E+04  0.25500000000E-02 0.  1.
         -2   -1    0    0    0  501 -0.00000000000E+00 -0.00000000000E+00 -0.55326874007E+02  0.55326874065E+02  0.25500000000E-02 0. -1.
    5000001    1    1    2    0    0 -0.18041944590E+03 -0.46762982592E+02  0.89139855799E+03  0.93069508551E+03  0.19200000000E+03 0.  0.
   -5000001    1    1    2    0    0  0.18041944590E+03  0.46762982592E+02  0.46603622979E+03  0.53739345034E+03  0.19200000000E+03 0.  0.
<mgrwt>
<rscale>  0 0.55915539E+03</rscale>
<asrwt>0</asrwt>
<pdfrwt beam="1">  1        2 0.20182310E+00 0.55915539E+03</pdfrwt>
<pdfrwt beam="2">  1       -2 0.79038388E-02 0.55915539E+03</pdfrwt>
<totfact> 0.16540464E+03</totfact>
</mgrwt>
</event>
<event>
 4    1  0.2892809E-005  0.4400524E+03  0.7818608E-02  0.1030731E+00
         -2   -1    0    0    0  501 -0.00000000000E+00  0.00000000000E+00  0.71918987214E+02  0.71918987260E+02  0.25500000000E-02 0. -1.
          2   -1    0    0  501    0  0.00000000000E+00 -0.00000000000E+00 -0.67313976128E+03  0.67313976129E+03  0.25500000000E-02 0.  1.
    5000001    1    1    2    0    0 -0.10833046739E+01  0.64106189560E+02 -0.15460200364E+03  0.25470876824E+03  0.19200000000E+03 0.  0.
   -5000001    1    1    2    0    0  0.10833046739E+01 -0.64106189560E+02 -0.44661877043E+03  0.49034998031E+03  0.19200000000E+03 0.  0.
<mgrwt>
<rscale>  0 0.44005241E+03</rscale>
<asrwt>0</asrwt>
<pdfrwt beam="1">  1        2 0.96162820E-01 0.44005241E+03</pdfrwt>
<pdfrwt beam="2">  1       -2 0.10274141E-01 0.44005241E+03</pdfrwt>
<totfact> 0.30765683E+03</totfact>
</mgrwt>
</event>
<event>
 4    1  0.2892809E-005  0.5300629E+03  0.7818608E-02  0.1006217E+00
          2   -1    0    0  501    0  0.00000000000E+00  0.00000000000E+00  0.18146925550E+04  0.18146925550E+04  0.25500000000E-02 0.  1.
         -2   -1    0    0    0  501 -0.00000000000E+00 -0.00000000000E+00 -0.38707199259E+02  0.38707199343E+02  0.25500000000E-02 0. -1.
    5000001    1    1    2    0    0 -0.66581874407E+02  0.13849514583E+03  0.12334918611E+04  0.12577679527E+04  0.19200000000E+03 0.  0.
   -5000001    1    1    2    0    0  0.66581874407E+02 -0.13849514583E+03  0.54249349467E+03  0.59563180168E+03  0.19200000000E+03 0.  0.
<mgrwt>
<rscale>  0 0.53006289E+03</rscale>
<asrwt>0</asrwt>
<pdfrwt beam="1">  1        2 0.25924181E+00 0.53006289E+03</pdfrwt>
<pdfrwt beam="2">  1       -2 0.55295995E-02 0.53006289E+03</pdfrwt>
<totfact> 0.18062277E+03</totfact>
</mgrwt>
</event>
<event>
 4    1  0.2892809E-005  0.6517976E+03  0.7818608E-02  0.9803412E-01
         -2   -1    0    0    0  501 -0.00000000000E+00  0.00000000000E+00  0.73869977628E+02  0.73869977672E+02  0.25500000000E-02 0. -1.
          2   -1    0    0  501    0  0.00000000000E+00 -0.00000000000E+00 -0.14377969675E+04  0.14377969675E+04  0.25500000000E-02 0.  1.
    5000001    1    1    2    0    0 -0.25094881427E+03 -0.47326429145E+02 -0.83102563641E+03  0.89032730310E+03  0.19200000000E+03 0.  0.
   -5000001    1    1    2    0    0  0.25094881427E+03  0.47326429145E+02 -0.53290135341E+03  0.62133964202E+03  0.19200000000E+03 0.  0.
<mgrwt>
<rscale>  0 0.65179761E+03</rscale>
<asrwt>0</asrwt>
<pdfrwt beam="1">  1        2 0.20539955E+00 0.65179761E+03</pdfrwt>
<pdfrwt beam="2">  1       -2 0.10552855E-01 0.65179761E+03</pdfrwt>
<totfact> 0.10042999E+03</totfact>
</mgrwt>
</event>
<event>
 4    1  0.2892809E-005  0.5477198E+03  0.7818608E-02  0.1002023E+00
         -2   -1    0    0    0  501 -0.00000000000E+00  0.00000000000E+00  0.15904671936E+03  0.15904671938E+03  0.25500000000E-02 0. -1.
          2   -1    0    0  501    0  0.00000000000E+00 -0.00000000000E+00 -0.47155476266E+03  0.47155476266E+03  0.25500000000E-02 0.  1.
    5000001    1    1    2    0    0 -0.19292266039E+03 -0.24334726858E+02 -0.17697480577E+03  0.32556936849E+03  0.19200000000E+03 0.  0.
   -5000001    1    1    2    0    0  0.19292266039E+03  0.24334726858E+02 -0.13553323752E+03  0.30503211355E+03  0.19200000000E+03 0.  0.
<mgrwt>
<rscale>  0 0.54771978E+03</rscale>
<asrwt>0</asrwt>
<pdfrwt beam="1">  1        2 0.67364965E-01 0.54771978E+03</pdfrwt>
<pdfrwt beam="2">  1       -2 0.22720960E-01 0.54771978E+03</pdfrwt>
<totfact> 0.12222541E+03</totfact>
</mgrwt>
</event>
<event>
 4    1  0.2892809E-005  0.6460213E+03  0.7818608E-02  0.9814274E-01
          2   -1    0    0  501    0  0.00000000000E+00  0.00000000000E+00  0.22628037756E+04  0.22628037756E+04  0.25500000000E-02 0.  1.
         -2   -1    0    0    0  501 -0.00000000000E+00 -0.00000000000E+00 -0.46109109875E+02  0.46109109945E+02  0.25500000000E-02 0. -1.
    5000001    1    1    2    0    0  0.20011938091E+03 -0.12696974699E+03  0.14883209676E+04  0.15192538912E+04  0.19200000000E+03 0.  0.
   -5000001    1    1    2    0    0 -0.20011938091E+03  0.12696974699E+03  0.72837369813E+03  0.78965899437E+03  0.19200000000E+03 0.  0.
<mgrwt>
<rscale>  0 0.64602126E+03</rscale>
<asrwt>0</asrwt>
<pdfrwt beam="1">  1        2 0.32325765E+00 0.64602126E+03</pdfrwt>
<pdfrwt beam="2">  1       -2 0.65870164E-02 0.64602126E+03</pdfrwt>
<totfact> 0.81250227E+02</totfact>
</mgrwt>
</event>
<event>
 4    1  0.2892809E-005  0.6014528E+03  0.7818608E-02  0.9902397E-01
         -2   -1    0    0    0  501 -0.00000000000E+00  0.00000000000E+00  0.21697918116E+03  0.21697918118E+03  0.25500000000E-02 0. -1.
          2   -1    0    0  501    0  0.00000000000E+00 -0.00000000000E+00 -0.41679744016E+03  0.41679744016E+03  0.25500000000E-02 0.  1.
    5000001    1    1    2    0    0  0.10983991246E+03 -0.68962127604E+02  0.10210134492E+03  0.25319807670E+03  0.19200000000E+03 0.  0.
   -5000001    1    1    2    0    0 -0.10983991246E+03  0.68962127604E+02 -0.30191960391E+03  0.38057854464E+03  0.19200000000E+03 0.  0.
<mgrwt>
<rscale>  0 0.60145280E+03</rscale>
<asrwt>0</asrwt>
<pdfrwt beam="1">  1        2 0.59542491E-01 0.60145280E+03</pdfrwt>
<pdfrwt beam="2">  1       -2 0.30997026E-01 0.60145280E+03</pdfrwt>
<totfact> 0.79930355E+02</totfact>
</mgrwt>
</event>
<event>
 4    1  0.2892809E-005  0.4940522E+03  0.7818608E-02  0.1015343E+00
          2   -1    0    0  501    0  0.00000000000E+00  0.00000000000E+00  0.29960915196E+04  0.29960915196E+04  0.25500000000E-02 0.  1.
         -2   -1    0    0    0  501 -0.00000000000E+00 -0.00000000000E+00 -0.20367163008E+02  0.20367163168E+02  0.25500000000E-02 0. -1.
    5000001    1    1    2    0    0  0.12662221515E+03  0.83354630352E+02  0.16973015598E+04  0.17148404488E+04  0.19200000000E+03 0.  0.
   -5000001    1    1    2    0    0 -0.12662221515E+03 -0.83354630352E+02  0.12784227968E+04  0.13016182340E+04  0.19200000000E+03 0.  0.
<mgrwt>
<rscale>  0 0.49405216E+03</rscale>
<asrwt>0</asrwt>
<pdfrwt beam="1">  1        2 0.42801248E+00 0.49405216E+03</pdfrwt>
<pdfrwt beam="2">  1       -2 0.29095988E-02 0.49405216E+03</pdfrwt>
<totfact> 0.12038905E+03</totfact>
</mgrwt>
</event>
<event>
 4    1  0.2892809E-005  0.6385541E+03  0.7818608E-02  0.9828497E-01
         -2   -1    0    0    0  501 -0.00000000000E+00  0.00000000000E+00  0.52679526611E+02  0.52679526673E+02  0.25500000000E-02 0. -1.
          2   -1    0    0  501    0  0.00000000000E+00 -0.00000000000E+00 -0.19350561892E+04  0.19350561892E+04  0.25500000000E-02 0.  1.
    5000001    1    1    2    0    0 -0.21519948740E+03  0.32334655389E+02 -0.52684335280E+03  0.60148505194E+03  0.19200000000E+03 0.  0.
   -5000001    1    1    2    0    0  0.21519948740E+03 -0.32334655389E+02 -0.13555333098E+04  0.13862506640E+04  0.19200000000E+03 0.  0.
<mgrwt>
<rscale>  0 0.63855413E+03</rscale>
<asrwt>0</asrwt>
<pdfrwt beam="1">  1        2 0.27643655E+00 0.63855413E+03</pdfrwt>
<pdfrwt beam="2">  1       -2 0.75256479E-02 0.63855413E+03</pdfrwt>
<totfact> 0.96300829E+02</totfact>
</mgrwt>
</event>
<event>
 4    1  0.2892809E-005  0.5971731E+03  0.7818608E-02  0.9911288E-01
          2   -1    0    0  501    0  0.00000000000E+00  0.00000000000E+00  0.14903159114E+04  0.14903159114E+04  0.25500000000E-02 0.  1.
         -2   -1    0    0    0  501 -0.00000000000E+00 -0.00000000000E+00 -0.59822161350E+02  0.59822161405E+02  0.25500000000E-02 0. -1.
    5000001    1    1    2    0    0 -0.19830245266E+03 -0.74212629789E+02  0.49106673687E+03  0.56819179615E+03  0.19200000000E+03 0.  0.
   -5000001    1    1    2    0    0  0.19830245266E+03  0.74212629789E+02  0.93942701314E+03  0.98194627662E+03  0.19200000000E+03 0.  0.
<mgrwt>
<rscale>  0 0.59717307E+03</rscale>
<asrwt>0</asrwt>
<pdfrwt beam="1">  1        2 0.21290225E+00 0.59717307E+03</pdfrwt>
<pdfrwt beam="2">  1       -2 0.85460239E-02 0.59717307E+03</pdfrwt>
<totfact> 0.13279465E+03</totfact>
</mgrwt>
</event>
<event>
 4    1  0.2892809E-005  0.4832330E+03  0.7818608E-02  0.1018250E+00
          2   -1    0    0  501    0  0.00000000000E+00  0.00000000000E+00  0.28034394973E+04  0.28034394973E+04  0.25500000000E-02 0.  1.
         -2   -1    0    0    0  501 -0.00000000000E+00 -0.00000000000E+00 -0.20823896592E+02  0.20823896748E+02  0.25500000000E-02 0. -1.
    5000001    1    1    2    0    0  0.11132946452E+03 -0.78144968697E+02  0.17121525329E+04  0.17282451162E+04  0.19200000000E+03 0.  0.
   -5000001    1    1    2    0    0 -0.11132946452E+03  0.78144968697E+02  0.10704630677E+04  0.10960182778E+04  0.19200000000E+03 0.  0.
<mgrwt>
<rscale>  0 0.48323301E+03</rscale>
<asrwt>0</asrwt>
<pdfrwt beam="1">  1        2 0.40049124E+00 0.48323301E+03</pdfrwt>
<pdfrwt beam="2">  1       -2 0.29748432E-02 0.48323301E+03</pdfrwt>
<totfact> 0.14761436E+03</totfact>
</mgrwt>
</event>
<event>
 4    1  0.2892809E-005  0.5767808E+03  0.7818608E-02  0.9954785E-01
          2   -1    0    0  501    0  0.00000000000E+00  0.00000000000E+00  0.64501280047E+03  0.64501280048E+03  0.25500000000E-02 0.  1.
         -2   -1    0    0    0  501 -0.00000000000E+00 -0.00000000000E+00 -0.12894164409E+03  0.12894164412E+03  0.25500000000E-02 0. -1.
    5000001    1    1    2    0    0  0.13253820909E+03 -0.16574004163E+03  0.21023714501E+03  0.35510533002E+03  0.19200000000E+03 0.  0.
   -5000001    1    1    2    0    0 -0.13253820909E+03  0.16574004163E+03  0.30583401137E+03  0.41884911457E+03  0.19200000000E+03 0.  0.
<mgrwt>
<rscale>  0 0.57678076E+03</rscale>
<asrwt>0</asrwt>
<pdfrwt beam="1">  1        2 0.92144686E-01 0.57678076E+03</pdfrwt>
<pdfrwt beam="2">  1       -2 0.18420235E-01 0.57678076E+03</pdfrwt>
<totfact> 0.12267948E+03</totfact>
</mgrwt>
</event>
<event>
 4    1  0.2892809E-005  0.5462190E+03  0.7818608E-02  0.1002373E+00
          2   -1    0    0  501    0  0.00000000000E+00  0.00000000000E+00  0.58064157998E+03  0.58064157998E+03  0.25500000000E-02 0.  1.
         -2   -1    0    0    0  501 -0.00000000000E+00 -0.00000000000E+00 -0.12845928430E+03  0.12845928432E+03  0.25500000000E-02 0. -1.
    5000001    1    1    2    0    0 -0.18234284195E+03 -0.66269447946E+02  0.23800703368E+03  0.36214900224E+03  0.19200000000E+03 0.  0.
   -5000001    1    1    2    0    0  0.18234284195E+03  0.66269447946E+02  0.21417526200E+03  0.34695186207E+03  0.19200000000E+03 0.  0.
<mgrwt>
<rscale>  0 0.54621901E+03</rscale>
<asrwt>0</asrwt>
<pdfrwt beam="1">  1        2 0.82948799E-01 0.54621901E+03</pdfrwt>
<pdfrwt beam="2">  1       -2 0.18351326E-01 0.54621901E+03</pdfrwt>
<totfact> 0.13979915E+03</totfact>
</mgrwt>
</event>
<event>
 4    1  0.2892809E-005  0.4653425E+03  0.7818608E-02  0.1023243E+00
         -2   -1    0    0    0  501 -0.00000000000E+00  0.00000000000E+00  0.85662454939E+02  0.85662454977E+02  0.25500000000E-02 0. -1.
          2   -1    0    0  501    0  0.00000000000E+00 -0.00000000000E+00 -0.63196764662E+03  0.63196764663E+03  0.25500000000E-02 0.  1.
    5000001    1    1    2    0    0  0.52013155516E+02  0.70149212077E+02 -0.42461088250E+03  0.47411462943E+03  0.19200000000E+03 0.  0.
   -5000001    1    1    2    0    0 -0.52013155516E+02 -0.70149212077E+02 -0.12169430919E+03  0.24351547218E+03  0.19200000000E+03 0.  0.
<mgrwt>
<rscale>  0 0.46534245E+03</rscale>
<asrwt>0</asrwt>
<pdfrwt beam="1">  1        2 0.90281090E-01 0.46534245E+03</pdfrwt>
<pdfrwt beam="2">  1       -2 0.12237494E-01 0.46534245E+03</pdfrwt>
<totfact> 0.24968609E+03</totfact>
</mgrwt>
</event>
<event>
 4    1  0.2892809E-005  0.5924638E+03  0.7818608E-02  0.9921166E-01
         -2   -1    0    0    0  501 -0.00000000000E+00  0.00000000000E+00  0.17013402559E+03  0.17013402561E+03  0.25500000000E-02 0. -1.
          2   -1    0    0  501    0  0.00000000000E+00 -0.00000000000E+00 -0.51578941307E+03  0.51578941308E+03  0.25500000000E-02 0.  1.
    5000001    1    1    2    0    0 -0.68442104352E+02 -0.78918820087E+02  0.58654723791E+02  0.22631146333E+03  0.19200000000E+03 0.  0.
   -5000001    1    1    2    0    0  0.68442104352E+02  0.78918820087E+02 -0.40431011127E+03  0.45961197535E+03  0.19200000000E+03 0.  0.
<mgrwt>
<rscale>  0 0.59246377E+03</rscale>
<asrwt>0</asrwt>
<pdfrwt beam="1">  1        2 0.73684201E-01 0.59246377E+03</pdfrwt>
<pdfrwt beam="2">  1       -2 0.24304861E-01 0.59246377E+03</pdfrwt>
<totfact> 0.97912348E+02</totfact>
</mgrwt>
</event>
<event>
 4    1  0.2892809E-005  0.6346184E+03  0.7818608E-02  0.9836078E-01
          2   -1    0    0  501    0  0.00000000000E+00  0.00000000000E+00  0.28993182233E+04  0.28993182233E+04  0.25500000000E-02 0.  1.
         -2   -1    0    0    0  501 -0.00000000000E+00 -0.00000000000E+00 -0.34727172507E+02  0.34727172601E+02  0.25500000000E-02 0. -1.
    5000001    1    1    2    0    0  0.86779390504E+02  0.23570761895E+03  0.13071767709E+04  0.13448657386E+04  0.19200000000E+03 0.  0.
   -5000001    1    1    2    0    0 -0.86779390504E+02 -0.23570761895E+03  0.15574142799E+04  0.15891796574E+04  0.19200000000E+03 0.  0.
<mgrwt>
<rscale>  0 0.63461839E+03</rscale>
<asrwt>0</asrwt>
<pdfrwt beam="1">  1        2 0.41418831E+00 0.63461839E+03</pdfrwt>
<pdfrwt beam="2">  1       -2 0.49610247E-02 0.63461839E+03</pdfrwt>
<totfact> 0.59197307E+02</totfact>
</mgrwt>
</event>
<event>
 4    1  0.2892809E-005  0.4591783E+03  0.7818608E-02  0.1025020E+00
         -2   -1    0    0    0  501 -0.00000000000E+00  0.00000000000E+00  0.43247110064E+02  0.43247110139E+02  0.25500000000E-02 0. -1.
          2   -1    0    0  501    0  0.00000000000E+00 -0.00000000000E+00 -0.12188369744E+04  0.12188369744E+04  0.25500000000E-02 0.  1.
    5000001    1    1    2    0    0  0.10169936947E+03  0.66863100537E+02 -0.49942331929E+03  0.54872678795E+03  0.19200000000E+03 0.  0.
   -5000001    1    1    2    0    0 -0.10169936947E+03 -0.66863100537E+02 -0.67616654509E+03  0.71335729664E+03  0.19200000000E+03 0.  0.
<mgrwt>
<rscale>  0 0.45917830E+03</rscale>
<asrwt>0</asrwt>
<pdfrwt beam="1">  1        2 0.17411955E+00 0.45917830E+03</pdfrwt>
<pdfrwt beam="2">  1       -2 0.61781593E-02 0.45917830E+03</pdfrwt>
<totfact> 0.31048968E+03</totfact>
</mgrwt>
</event>
<event>
 4    1  0.2892809E-005  0.5852368E+03  0.7818608E-02  0.9936517E-01
         -2   -1    0    0    0  501 -0.00000000000E+00  0.00000000000E+00  0.27656297690E+02  0.27656297807E+02  0.25500000000E-02 0. -1.
          2   -1    0    0  501    0  0.00000000000E+00 -0.00000000000E+00 -0.30960588646E+04  0.30960588646E+04  0.25500000000E-02 0.  1.
    5000001    1    1    2    0    0  0.67708350158E+02 -0.20916457208E+03 -0.14238697635E+04  0.14534797358E+04  0.19200000000E+03 0.  0.
   -5000001    1    1    2    0    0 -0.67708350158E+02  0.20916457208E+03 -0.16445328034E+04  0.16702354266E+04  0.19200000000E+03 0.  0.
<mgrwt>
<rscale>  0 0.58523679E+03</rscale>
<asrwt>0</asrwt>
<pdfrwt beam="1">  1        2 0.44229390E+00 0.58523679E+03</pdfrwt>
<pdfrwt beam="2">  1       -2 0.39509016E-02 0.58523679E+03</pdfrwt>
<totfact> 0.66050214E+02</totfact>
</mgrwt>
</event>
<event>
 4    1  0.2892809E-005  0.6214782E+03  0.7818608E-02  0.9861821E-01
         -2   -1    0    0    0  501 -0.00000000000E+00  0.00000000000E+00  0.78484644886E+02  0.78484644927E+02  0.25500000000E-02 0.  1.
          2   -1    0    0  501    0  0.00000000000E+00 -0.00000000000E+00 -0.12302889080E+04  0.12302889080E+04  0.25500000000E-02 0. -1.
    5000001    1    1    2    0    0 -0.19088340565E+03 -0.15166404256E+03 -0.54218584085E+03  0.62471428860E+03  0.19200000000E+03 0.  0.
   -5000001    1    1    2    0    0  0.19088340565E+03  0.15166404256E+03 -0.60961842227E+03  0.68405926434E+03  0.19200000000E+03 0.  0.
<mgrwt>
<rscale>  0 0.62147820E+03</rscale>
<asrwt>0</asrwt>
<pdfrwt beam="1">  1        2 0.17575555E+00 0.62147820E+03</pdfrwt>
<pdfrwt beam="2">  1       -2 0.11212093E-01 0.62147820E+03</pdfrwt>
<totfact> 0.11791238E+03</totfact>
</mgrwt>
</event>
<event>
 4    1  0.2892809E-005  0.4857643E+03  0.7818608E-02  0.1017563E+00
         -2   -1    0    0    0  501 -0.00000000000E+00  0.00000000000E+00  0.10827047708E+03  0.10827047711E+03  0.25500000000E-02 0. -1.
          2   -1    0    0  501    0  0.00000000000E+00 -0.00000000000E+00 -0.54485521412E+03  0.54485521413E+03  0.25500000000E-02 0.  1.
    5000001    1    1    2    0    0  0.13656143548E+03  0.58956756747E+02 -0.22054587721E+03  0.32806921340E+03  0.19200000000E+03 0.  0.
   -5000001    1    1    2    0    0 -0.13656143548E+03 -0.58956756747E+02 -0.21603885984E+03  0.32505647784E+03  0.19200000000E+03 0.  0.
<mgrwt>
<rscale>  0 0.48576428E+03</rscale>
<asrwt>0</asrwt>
<pdfrwt beam="1">  1        2 0.77836458E-01 0.48576428E+03</pdfrwt>
<pdfrwt beam="2">  1       -2 0.15467211E-01 0.48576428E+03</pdfrwt>
<totfact> 0.20115841E+03</totfact>
</mgrwt>
</event>
<event>
 4    1  0.2892809E-005  0.7779262E+03  0.7818608E-02  0.9592529E-01
         -2   -1    0    0    0  501 -0.00000000000E+00  0.00000000000E+00  0.26250254301E+03  0.26250254302E+03  0.25500000000E-02 0. -1.
          2   -1    0    0  501    0  0.00000000000E+00 -0.00000000000E+00 -0.57634598980E+03  0.57634598981E+03  0.25500000000E-02 0.  1.
    5000001    1    1    2    0    0  0.21377249997E+03 -0.25328593358E+03 -0.83979218584E+02  0.39213384838E+03  0.19200000000E+03 0.  0.
   -5000001    1    1    2    0    0 -0.21377249997E+03  0.25328593358E+03 -0.22986422821E+03  0.44671468445E+03  0.19200000000E+03 0.  0.
<mgrwt>
<rscale>  0 0.77792619E+03</rscale>
<asrwt>0</asrwt>
<pdfrwt beam="1">  1        2 0.82335141E-01 0.77792619E+03</pdfrwt>
<pdfrwt beam="2">  1       -2 0.37500364E-01 0.77792619E+03</pdfrwt>
<totfact> 0.38353107E+02</totfact>
</mgrwt>
</event>
<event>
 4    1  0.2892809E-005  0.4956080E+03  0.7818608E-02  0.1014932E+00
         -2   -1    0    0    0  501 -0.00000000000E+00  0.00000000000E+00  0.17885943402E+03  0.17885943404E+03  0.25500000000E-02 0. -1.
          2   -1    0    0  501    0  0.00000000000E+00 -0.00000000000E+00 -0.34332454011E+03  0.34332454012E+03  0.25500000000E-02 0.  1.
    5000001    1    1    2    0    0 -0.74414156397E+02 -0.10197332382E+03 -0.17998018357E+03  0.29187821419E+03  0.19200000000E+03 0.  0.
   -5000001    1    1    2    0    0  0.74414156397E+02  0.10197332382E+03  0.15515077480E+02  0.23030575996E+03  0.19200000000E+03 0.  0.
<mgrwt>
<rscale>  0 0.49560804E+03</rscale>
<asrwt>0</asrwt>
<pdfrwt beam="1">  1        2 0.49046363E-01 0.49560804E+03</pdfrwt>
<pdfrwt beam="2">  1       -2 0.25551348E-01 0.49560804E+03</pdfrwt>
<totfact> 0.14098474E+03</totfact>
</mgrwt>
</event>
<event>
 4    1  0.2892809E-005  0.7768176E+03  0.7818608E-02  0.9594192E-01
          2   -1    0    0  501    0  0.00000000000E+00  0.00000000000E+00  0.68117482020E+03  0.68117482021E+03  0.25500000000E-02 0.  1.
         -2   -1    0    0    0  501 -0.00000000000E+00 -0.00000000000E+00 -0.22147238365E+03  0.22147238367E+03  0.25500000000E-02 0. -1.
    5000001    1    1    2    0    0  0.13584765951E+03 -0.16618307457E+03  0.53269385298E+03  0.60555606005E+03  0.19200000000E+03 0.  0.
   -5000001    1    1    2    0    0 -0.13584765951E+03  0.16618307457E+03 -0.72991416426E+02  0.29709114382E+03  0.19200000000E+03 0.  0.
<mgrwt>
<rscale>  0 0.77681764E+03</rscale>
<asrwt>0</asrwt>
<pdfrwt beam="1">  1        2 0.97310690E-01 0.77681764E+03</pdfrwt>
<pdfrwt beam="2">  1       -2 0.31638912E-01 0.77681764E+03</pdfrwt>
<totfact> 0.43349321E+02</totfact>
</mgrwt>
</event>
<event>
 4    1  0.2892809E-005  0.5554557E+03  0.7818608E-02  0.1000239E+00
         -2   -1    0    0    0  501 -0.00000000000E+00  0.00000000000E+00  0.11890483722E+03  0.11890483725E+03  0.25500000000E-02 0. -1.
          2   -1    0    0  501    0  0.00000000000E+00 -0.00000000000E+00 -0.64869327393E+03  0.64869327394E+03  0.25500000000E-02 0.  1.
    5000001    1    1    2    0    0 -0.20007723062E+03 -0.14823450784E+01 -0.24367941610E+03  0.36915681409E+03  0.19200000000E+03 0.  0.
   -5000001    1    1    2    0    0  0.20007723062E+03  0.14823450784E+01 -0.28610902061E+03  0.39844129710E+03  0.19200000000E+03 0.  0.
<mgrwt>
<rscale>  0 0.55545573E+03</rscale>
<asrwt>0</asrwt>
<pdfrwt beam="1">  1        2 0.92670466E-01 0.55545573E+03</pdfrwt>
<pdfrwt beam="2">  1       -2 0.16986406E-01 0.55545573E+03</pdfrwt>
<totfact> 0.14001002E+03</totfact>
</mgrwt>
</event>
<event>
 4    1  0.2892809E-005  0.5860288E+03  0.7818608E-02  0.9934823E-01
         -2   -1    0    0    0  501 -0.00000000000E+00  0.00000000000E+00  0.52724859846E+02  0.52724859907E+02  0.25500000000E-02 0. -1.
          2   -1    0    0  501    0  0.00000000000E+00 -0.00000000000E+00 -0.16284050815E+04  0.16284050815E+04  0.25500000000E-02 0.  1.
    5000001    1    1    2    0    0  0.18510420274E+03  0.11529901772E+03 -0.67913258168E+03  0.73867617591E+03  0.19200000000E+03 0.  0.
   -5000001    1    1    2    0    0 -0.18510420274E+03 -0.11529901772E+03 -0.89654764001E+03  0.94245376553E+03  0.19200000000E+03 0.  0.
<mgrwt>
<rscale>  0 0.58602877E+03</rscale>
<asrwt>0</asrwt>
<pdfrwt beam="1">  1        2 0.23262927E+00 0.58602877E+03</pdfrwt>
<pdfrwt beam="2">  1       -2 0.75321238E-02 0.58602877E+03</pdfrwt>
<totfact> 0.13786117E+03</totfact>
</mgrwt>
</event>
<event>
 4    1  0.2892809E-005  0.4503378E+03  0.7818608E-02  0.1027621E+00
          2   -1    0    0  501    0  0.00000000000E+00  0.00000000000E+00  0.93273777440E+03  0.93273777441E+03  0.25500000000E-02 0.  1.
         -2   -1    0    0    0  501 -0.00000000000E+00 -0.00000000000E+00 -0.54357209433E+02  0.54357209492E+02  0.25500000000E-02 0. -1.
    5000001    1    1    2    0    0 -0.52547327668E+02  0.67129383840E+02  0.61684837248E+03  0.65163907990E+03  0.19200000000E+03 0.  0.
   -5000001    1    1    2    0    0  0.52547327668E+02 -0.67129383840E+02  0.26153219249E+03  0.33545590400E+03  0.19200000000E+03 0.  0.
<mgrwt>
<rscale>  0 0.45033775E+03</rscale>
<asrwt>0</asrwt>
<pdfrwt beam="1">  1        2 0.13324826E+00 0.45033775E+03</pdfrwt>
<pdfrwt beam="2">  1       -2 0.77653153E-02 0.45033775E+03</pdfrwt>
<totfact> 0.31861025E+03</totfact>
</mgrwt>
</event>
<event>
 4    1  0.2892809E-005  0.5702483E+03  0.7818608E-02  0.9969129E-01
         -2   -1    0    0    0  501 -0.00000000000E+00  0.00000000000E+00  0.38193606629E+02  0.38193606714E+02  0.25500000000E-02 0. -1.
          2   -1    0    0  501    0  0.00000000000E+00 -0.00000000000E+00 -0.21285183006E+04  0.21285183006E+04  0.25500000000E-02 0.  1.
    5000001    1    1    2    0    0 -0.17171297119E+03  0.10035162437E+03 -0.77984301565E+03  0.82739042902E+03  0.19200000000E+03 0.  0.
   -5000001    1    1    2    0    0  0.17171297119E+03 -0.10035162437E+03 -0.13104816783E+04  0.13393214783E+04  0.19200000000E+03 0.  0.
<mgrwt>
<rscale>  0 0.57024833E+03</rscale>
<asrwt>0</asrwt>
<pdfrwt beam="1">  1        2 0.30407397E+00 0.57024833E+03</pdfrwt>
<pdfrwt beam="2">  1       -2 0.54562309E-02 0.57024833E+03</pdfrwt>
<totfact> 0.12813689E+03</totfact>
</mgrwt>
</event>
<event>
 4    1  0.2892809E-005  0.4977068E+03  0.7818608E-02  0.1014379E+00
         -2   -1    0    0    0  501 -0.00000000000E+00  0.00000000000E+00  0.17606888533E+02  0.17606888717E+02  0.25500000000E-02 0. -1.
          2   -1    0    0  501    0  0.00000000000E+00 -0.00000000000E+00 -0.35172607216E+04  0.35172607216E+04  0.25500000000E-02 0.  1.
    5000001    1    1    2    0    0  0.38121741902E+02  0.77013707256E+02 -0.80546977244E+03  0.83248419362E+03  0.19200000000E+03 0.  0.
   -5000001    1    1    2    0    0 -0.38121741902E+02 -0.77013707256E+02 -0.26941840606E+04  0.27023834167E+04  0.19200000000E+03 0.  0.
<mgrwt>
<rscale>  0 0.49770681E+03</rscale>
<asrwt>0</asrwt>
<pdfrwt beam="1">  1        2 0.50246537E+00 0.49770681E+03</pdfrwt>
<pdfrwt beam="2">  1       -2 0.25152721E-02 0.49770681E+03</pdfrwt>
<totfact> 0.76120772E+02</totfact>
</mgrwt>
</event>
<event>
 4    1  0.2892809E-005  0.7456447E+03  0.7818608E-02  0.9642208E-01
          2   -1    0    0  501    0  0.00000000000E+00  0.00000000000E+00  0.14852621656E+04  0.14852621656E+04  0.25500000000E-02 0.  1.
         -2   -1    0    0    0  501 -0.00000000000E+00 -0.00000000000E+00 -0.93583829810E+02  0.93583829844E+02  0.25500000000E-02 0. -1.
    5000001    1    1    2    0    0 -0.40702282655E+02  0.30480574870E+03  0.51161962081E+03  0.62704214902E+03  0.19200000000E+03 0.  0.
   -5000001    1    1    2    0    0  0.40702282655E+02 -0.30480574870E+03  0.88005871501E+03  0.95180384645E+03  0.19200000000E+03 0.  0.
<mgrwt>
<rscale>  0 0.74564475E+03</rscale>
<asrwt>0</asrwt>
<pdfrwt beam="1">  1        2 0.21218031E+00 0.74564475E+03</pdfrwt>
<pdfrwt beam="2">  1       -2 0.13369118E-01 0.74564475E+03</pdfrwt>
<totfact> 0.63903681E+02</totfact>
</mgrwt>
</event>
<event>
 4    1  0.2892809E-005  0.5062560E+03  0.7818608E-02  0.1012159E+00
          2   -1    0    0  501    0  0.00000000000E+00  0.00000000000E+00  0.21064530281E+04  0.21064530281E+04  0.25500000000E-02 0.  1.
         -2   -1    0    0    0  501 -0.00000000000E+00 -0.00000000000E+00 -0.30417860828E+02  0.30417860935E+02  0.25500000000E-02 0. -1.
    5000001    1    1    2    0    0 -0.69380632894E+02  0.31607354621E+02  0.16554444190E+04  0.16682844246E+04  0.19200000000E+03 0.  0.
   -5000001    1    1    2    0    0  0.69380632894E+02 -0.31607354621E+02  0.42059074827E+03  0.46858646440E+03  0.19200000000E+03 0.  0.
<mgrwt>
<rscale>  0 0.50625604E+03</rscale>
<asrwt>0</asrwt>
<pdfrwt beam="1">  1        2 0.30092182E+00 0.50625604E+03</pdfrwt>
<pdfrwt beam="2">  1       -2 0.43454093E-02 0.50625604E+03</pdfrwt>
<totfact> 0.18749574E+03</totfact>
</mgrwt>
</event>
<event>
 4    1  0.2892809E-005  0.1187995E+04  0.7818608E-02  0.9123429E-01
          2   -1    0    0  501    0  0.00000000000E+00  0.00000000000E+00  0.16066750925E+04  0.16066750925E+04  0.25500000000E-02 0.  1.
         -2   -1    0    0    0  501 -0.00000000000E+00 -0.00000000000E+00 -0.21960463526E+03  0.21960463527E+03  0.25500000000E-02 0. -1.
    5000001    1    1    2    0    0  0.52569928677E+03 -0.19344290987E+03  0.62160442747E+03  0.85850798700E+03  0.19200000000E+03 0.  0.
   -5000001    1    1    2    0    0 -0.52569928677E+03  0.19344290987E+03  0.76546602978E+03  0.96777174077E+03  0.19200000000E+03 0.  0.
<mgrwt>
<rscale>  0 0.11879955E+04</rscale>
<asrwt>0</asrwt>
<pdfrwt beam="1">  1        2 0.22952502E+00 0.11879955E+04</pdfrwt>
<pdfrwt beam="2">  1       -2 0.31372090E-01 0.11879955E+04</pdfrwt>
<totfact> 0.11941776E+02</totfact>
</mgrwt>
</event>
<event>
 4    1  0.2892809E-005  0.1241304E+04  0.7818608E-02  0.9077452E-01
          2   -1    0    0  501    0  0.00000000000E+00  0.00000000000E+00  0.47935268839E+03  0.47935268840E+03  0.25500000000E-02 0.  1.
         -2   -1    0    0    0  501 -0.00000000000E+00 -0.00000000000E+00 -0.80360226356E+03  0.80360226356E+03  0.25500000000E-02 0. -1.
    5000001    1    1    2    0    0  0.51928493177E+03 -0.65522562997E+02  0.11978146877E+03  0.57022946862E+03  0.19200000000E+03 0.  0.
   -5000001    1    1    2    0    0 -0.51928493177E+03  0.65522562997E+02 -0.44403104394E+03  0.71272548334E+03  0.19200000000E+03 0.  0.
<mgrwt>
<rscale>  0 0.12413040E+04</rscale>
<asrwt>0</asrwt>
<pdfrwt beam="1">  1        2 0.68478956E-01 0.12413040E+04</pdfrwt>
<pdfrwt beam="2">  1       -2 0.11480032E+00 0.12413040E+04</pdfrwt>
<totfact> 0.41106200E+01</totfact>
</mgrwt>
</event>
<event>
 4    1  0.2892809E-005  0.5954444E+03  0.7818608E-02  0.9914903E-01
          2   -1    0    0  501    0  0.00000000000E+00  0.00000000000E+00  0.24553615770E+04  0.24553615770E+04  0.25500000000E-02 0.  1.
         -2   -1    0    0    0  501 -0.00000000000E+00 -0.00000000000E+00 -0.36099980231E+02  0.36099980321E+02  0.25500000000E-02 0. -1.
    5000001    1    1    2    0    0  0.20265212465E+03 -0.14409796978E+01  0.77672133472E+03  0.82536658028E+03  0.19200000000E+03 0.  0.
   -5000001    1    1    2    0    0 -0.20265212465E+03  0.14409796978E+01  0.16425402621E+04  0.16660949770E+04  0.19200000000E+03 0.  0.
<mgrwt>
<rscale>  0 0.59544439E+03</rscale>
<asrwt>0</asrwt>
<pdfrwt beam="1">  1        2 0.35076607E+00 0.59544439E+03</pdfrwt>
<pdfrwt beam="2">  1       -2 0.51571381E-02 0.59544439E+03</pdfrwt>
<totfact> 0.95439244E+02</totfact>
</mgrwt>
</event>
<event>
 4    1  0.2892809E-005  0.5108665E+03  0.7818608E-02  0.1010981E+00
         -2   -1    0    0    0  501 -0.00000000000E+00  0.00000000000E+00  0.36944595972E+03  0.36944595973E+03  0.25500000000E-02 0. -1.
          2   -1    0    0  501    0  0.00000000000E+00 -0.00000000000E+00 -0.17660538940E+03  0.17660538941E+03  0.25500000000E-02 0.  1.
    5000001    1    1    2    0    0  0.11691790118E+03  0.46429273078E+02 -0.23353940303E+02  0.23072685050E+03  0.19200000000E+03 0.  0.
   -5000001    1    1    2    0    0 -0.11691790118E+03 -0.46429273078E+02  0.21619451063E+03  0.31532449864E+03  0.19200000000E+03 0.  0.
<mgrwt>
<rscale>  0 0.51086651E+03</rscale>
<asrwt>0</asrwt>
<pdfrwt beam="1">  1        2 0.25229342E-01 0.51086651E+03</pdfrwt>
<pdfrwt beam="2">  1       -2 0.52777993E-01 0.51086651E+03</pdfrwt>
<totfact> 0.73819575E+02</totfact>
</mgrwt>
</event>
<event>
 4    1  0.2892809E-005  0.5467753E+03  0.7818608E-02  0.1002243E+00
         -2   -1    0    0    0  501 -0.00000000000E+00  0.00000000000E+00  0.38491569016E+02  0.38491569100E+02  0.25500000000E-02 0. -1.
          2   -1    0    0  501    0  0.00000000000E+00 -0.00000000000E+00 -0.19417451245E+04  0.19417451245E+04  0.25500000000E-02 0.  1.
    5000001    1    1    2    0    0  0.13849087887E+03 -0.13673463070E+03 -0.95472916028E+03  0.99310012197E+03  0.19200000000E+03 0.  0.
   -5000001    1    1    2    0    0 -0.13849087887E+03  0.13673463070E+03 -0.94852439519E+03  0.98713657163E+03  0.19200000000E+03 0.  0.
<mgrwt>
<rscale>  0 0.54677533E+03</rscale>
<asrwt>0</asrwt>
<pdfrwt beam="1">  1        2 0.27739210E+00 0.54677533E+03</pdfrwt>
<pdfrwt beam="2">  1       -2 0.54987968E-02 0.54677533E+03</pdfrwt>
<totfact> 0.15722759E+03</totfact>
</mgrwt>
</event>
<event>
 4    1  0.2892809E-005  0.4951849E+03  0.7818608E-02  0.1015043E+00
         -2   -1    0    0    0  501 -0.00000000000E+00  0.00000000000E+00  0.45184127213E+02  0.45184127285E+02  0.25500000000E-02 0. -1.
          2   -1    0    0  501    0  0.00000000000E+00 -0.00000000000E+00 -0.13567160008E+04  0.13567160008E+04  0.25500000000E-02 0.  1.
    5000001    1    1    2    0    0  0.59577871732E+02 -0.86162401750E+02 -0.98427360894E+03  0.10082817164E+04  0.19200000000E+03 0.  0.
   -5000001    1    1    2    0    0 -0.59577871732E+02  0.86162401750E+02 -0.32725826463E+03  0.39361841172E+03  0.19200000000E+03 0.  0.
<mgrwt>
<rscale>  0 0.49518493E+03</rscale>
<asrwt>0</asrwt>
<pdfrwt beam="1">  1        2 0.19381655E+00 0.49518493E+03</pdfrwt>
<pdfrwt beam="2">  1       -2 0.64548762E-02 0.49518493E+03</pdfrwt>
<totfact> 0.24412099E+03</totfact>
</mgrwt>
</event>
<event>
 4    1  0.2892809E-005  0.5955058E+03  0.7818608E-02  0.9914774E-01
          2   -1    0    0  501    0  0.00000000000E+00  0.00000000000E+00  0.15195958976E+04  0.15195958976E+04  0.25500000000E-02 0.  1.
         -2   -1    0    0    0  501 -0.00000000000E+00 -0.00000000000E+00 -0.58342346619E+02  0.58342346675E+02  0.25500000000E-02 0. -1.
    5000001    1    1    2    0    0  0.11838386921E+03 -0.17816602936E+03  0.52478210714E+03  0.59834616610E+03  0.19200000000E+03 0.  0.
   -5000001    1    1    2    0    0 -0.11838386921E+03  0.17816602936E+03  0.93647144385E+03  0.97959207819E+03  0.19200000000E+03 0.  0.
<mgrwt>
<rscale>  0 0.59550580E+03</rscale>
<asrwt>0</asrwt>
<pdfrwt beam="1">  1        2 0.21708509E+00 0.59550580E+03</pdfrwt>
<pdfrwt beam="2">  1       -2 0.83346223E-02 0.59550580E+03</pdfrwt>
<totfact> 0.13346261E+03</totfact>
</mgrwt>
</event>
<event>
 4    1  0.2892809E-005  0.8194699E+03  0.7818608E-02  0.9532255E-01
          2   -1    0    0  501    0  0.00000000000E+00  0.00000000000E+00  0.24710499442E+03  0.24710499444E+03  0.25500000000E-02 0.  1.
         -2   -1    0    0    0  501 -0.00000000000E+00 -0.00000000000E+00 -0.67939833689E+03  0.67939833690E+03  0.25500000000E-02 0. -1.
    5000001    1    1    2    0    0 -0.33312996890E+03  0.14156772395E+03 -0.21466146868E+03  0.46255869118E+03  0.19200000000E+03 0.  0.
   -5000001    1    1    2    0    0  0.33312996890E+03 -0.14156772395E+03 -0.21763187378E+03  0.46394464016E+03  0.19200000000E+03 0.  0.
<mgrwt>
<rscale>  0 0.81946988E+03</rscale>
<asrwt>0</asrwt>
<pdfrwt beam="1">  1        2 0.35300714E-01 0.81946988E+03</pdfrwt>
<pdfrwt beam="2">  1       -2 0.97056905E-01 0.81946988E+03</pdfrwt>
<totfact> 0.13217162E+02</totfact>
</mgrwt>
</event>
<event>
 4    1  0.2892809E-005  0.4264436E+03  0.7818608E-02  0.1034989E+00
          2   -1    0    0  501    0  0.00000000000E+00  0.00000000000E+00  0.56867158287E+03  0.56867158288E+03  0.25500000000E-02 0.  1.
         -2   -1    0    0    0  501 -0.00000000000E+00 -0.00000000000E+00 -0.79946897903E+02  0.79946897944E+02  0.25500000000E-02 0. -1.
    5000001    1    1    2    0    0 -0.59127816183E+02  0.76422202815E+01  0.13632858272E+03  0.24290735815E+03  0.19200000000E+03 0.  0.
   -5000001    1    1    2    0    0  0.59127816183E+02 -0.76422202815E+01  0.35239610226E+03  0.40571112268E+03  0.19200000000E+03 0.  0.
<mgrwt>
<rscale>  0 0.42644357E+03</rscale>
<asrwt>0</asrwt>
<pdfrwt beam="1">  1        2 0.81238797E-01 0.42644357E+03</pdfrwt>
<pdfrwt beam="2">  1       -2 0.11420985E-01 0.42644357E+03</pdfrwt>
<totfact> 0.31572690E+03</totfact>
</mgrwt>
</event>
<event>
 4    1  0.2892809E-005  0.7898271E+03  0.7818608E-02  0.9574860E-01
          2   -1    0    0  501    0  0.00000000000E+00  0.00000000000E+00  0.92580243518E+03  0.92580243518E+03  0.25500000000E-02 0.  1.
         -2   -1    0    0    0  501 -0.00000000000E+00 -0.00000000000E+00 -0.16845572064E+03  0.16845572065E+03  0.25500000000E-02 0. -1.
    5000001    1    1    2    0    0  0.30145633096E+03 -0.16629121605E+03  0.34577014976E+03  0.52435644792E+03  0.19200000000E+03 0.  0.
   -5000001    1    1    2    0    0 -0.30145633096E+03  0.16629121605E+03  0.41157656478E+03  0.56990170792E+03  0.19200000000E+03 0.  0.
<mgrwt>
<rscale>  0 0.78982711E+03</rscale>
<asrwt>0</asrwt>
<pdfrwt beam="1">  1        2 0.13225749E+00 0.78982711E+03</pdfrwt>
<pdfrwt beam="2">  1       -2 0.24065103E-01 0.78982711E+03</pdfrwt>
<totfact> 0.48165552E+02</totfact>
</mgrwt>
</event>
<event>
 4    1  0.2892809E-005  0.4476916E+03  0.7818608E-02  0.1028413E+00
          2   -1    0    0  501    0  0.00000000000E+00  0.00000000000E+00  0.35634300710E+03  0.35634300710E+03  0.25500000000E-02 0.  1.
         -2   -1    0    0    0  501 -0.00000000000E+00 -0.00000000000E+00 -0.14061437106E+03  0.14061437108E+03  0.25500000000E-02 0. -1.
    5000001    1    1    2    0    0 -0.10996350036E+03  0.13263515284E+02  0.73202218953E+02  0.23343191108E+03  0.19200000000E+03 0.  0.
   -5000001    1    1    2    0    0  0.10996350036E+03 -0.13263515284E+02  0.14252641708E+03  0.26352546711E+03  0.19200000000E+03 0.  0.
<mgrwt>
<rscale>  0 0.44769163E+03</rscale>
<asrwt>0</asrwt>
<pdfrwt beam="1">  1        2 0.50906143E-01 0.44769163E+03</pdfrwt>
<pdfrwt beam="2">  1       -2 0.20087768E-01 0.44769163E+03</pdfrwt>
<totfact> 0.20663632E+03</totfact>
</mgrwt>
</event>
<event>
 4    1  0.2892809E-005  0.4078081E+03  0.7818608E-02  0.1041109E+00
         -2   -1    0    0    0  501 -0.00000000000E+00  0.00000000000E+00  0.74845531631E+02  0.74845531674E+02  0.25500000000E-02 0. -1.
          2   -1    0    0  501    0  0.00000000000E+00 -0.00000000000E+00 -0.55550233255E+03  0.55550233255E+03  0.25500000000E-02 0.  1.
    5000001    1    1    2    0    0 -0.28784936515E+02  0.24793161436E+02 -0.15194487493E+03  0.24777917274E+03  0.19200000000E+03 0.  0.
   -5000001    1    1    2    0    0  0.28784936515E+02 -0.24793161436E+02 -0.32871192598E+03  0.38256869149E+03  0.19200000000E+03 0.  0.
<mgrwt>
<rscale>  0 0.40780813E+03</rscale>
<asrwt>0</asrwt>
<pdfrwt beam="1">  1        2 0.79357474E-01 0.40780813E+03</pdfrwt>
<pdfrwt beam="2">  1       -2 0.10692219E-01 0.40780813E+03</pdfrwt>
<totfact> 0.36065561E+03</totfact>
</mgrwt>
</event>
<event>
 4    1  0.2892809E-005  0.8438395E+03  0.7818608E-02  0.9498643E-01
         -2   -1    0    0    0  501 -0.00000000000E+00  0.00000000000E+00  0.79851273693E+02  0.79851273733E+02  0.25500000000E-02 0.  1.
          2   -1    0    0  501    0  0.00000000000E+00 -0.00000000000E+00 -0.22293482372E+04  0.22293482372E+04  0.25500000000E-02 0. -1.
    5000001    1    1    2    0    0 -0.32870074786E+03  0.17134942866E+03 -0.12422704253E+04  0.13105360041E+04  0.19200000000E+03 0.  0.
   -5000001    1    1    2    0    0  0.32870074786E+03 -0.17134942866E+03 -0.90722653815E+03  0.99866350683E+03  0.19200000000E+03 0.  0.
<mgrwt>
<rscale>  0 0.84383955E+03</rscale>
<asrwt>0</asrwt>
<pdfrwt beam="1">  1        2 0.31847828E+00 0.84383955E+03</pdfrwt>
<pdfrwt beam="2">  1       -2 0.11407326E-01 0.84383955E+03</pdfrwt>
<totfact> 0.34404425E+02</totfact>
</mgrwt>
</event>
<event>
 4    1  0.2892809E-005  0.4861626E+03  0.7818608E-02  0.1017455E+00
          2   -1    0    0  501    0  0.00000000000E+00  0.00000000000E+00  0.71001416948E+02  0.71001416994E+02  0.25500000000E-02 0.  1.
         -2   -1    0    0    0  501 -0.00000000000E+00 -0.00000000000E+00 -0.83221588714E+03  0.83221588714E+03  0.25500000000E-02 0. -1.
    5000001    1    1    2    0    0 -0.26360132244E+02  0.87710239087E+02 -0.59914418738E+03  0.63578746440E+03  0.19200000000E+03 0.  0.
   -5000001    1    1    2    0    0  0.26360132244E+02 -0.87710239087E+02 -0.16207028281E+03  0.26742983974E+03  0.19200000000E+03 0.  0.
<mgrwt>
<rscale>  0 0.48616255E+03</rscale>
<asrwt>0</asrwt>
<pdfrwt beam="1">  1        2 0.10143060E-01 0.48616255E+03</pdfrwt>
<pdfrwt beam="2">  1       -2 0.11888798E+00 0.48616255E+03</pdfrwt>
<totfact> 0.35897329E+02</totfact>
</mgrwt>
</event>
<event>
 4    1  0.2892809E-005  0.6831819E+03  0.7818608E-02  0.9746434E-01
         -2   -1    0    0    0  501 -0.00000000000E+00  0.00000000000E+00  0.88811366193E+02  0.88811366230E+02  0.25500000000E-02 0. -1.
          2   -1    0    0  501    0  0.00000000000E+00 -0.00000000000E+00 -0.13138451479E+04  0.13138451479E+04  0.25500000000E-02 0.  1.
    5000001    1    1    2    0    0 -0.76145369507E+02  0.16858604232E+03 -0.10509488555E+04  0.10842402261E+04  0.19200000000E+03 0.  0.
   -5000001    1    1    2    0    0  0.76145369507E+02 -0.16858604232E+03 -0.17408492619E+03  0.31841628804E+03  0.19200000000E+03 0.  0.
<mgrwt>
<rscale>  0 0.68318192E+03</rscale>
<asrwt>0</asrwt>
<pdfrwt beam="1">  1        2 0.18769215E+00 0.68318192E+03</pdfrwt>
<pdfrwt beam="2">  1       -2 0.12687339E-01 0.68318192E+03</pdfrwt>
<totfact> 0.86340719E+02</totfact>
</mgrwt>
</event>
<event>
 4    1  0.2892809E-005  0.5883494E+03  0.7818608E-02  0.9929876E-01
          2   -1    0    0  501    0  0.00000000000E+00  0.00000000000E+00  0.17245365172E+04  0.17245365172E+04  0.25500000000E-02 0.  1.
         -2   -1    0    0    0  501 -0.00000000000E+00 -0.00000000000E+00 -0.50180879538E+02  0.50180879603E+02  0.25500000000E-02 0. -1.
    5000001    1    1    2    0    0  0.16843556717E+02  0.14987799960E+03  0.34219170239E+03  0.42036446252E+03  0.19200000000E+03 0.  0.
   -5000001    1    1    2    0    0 -0.16843556717E+02 -0.14987799960E+03  0.13321639353E+04  0.13543529343E+04  0.19200000000E+03 0.  0.
<mgrwt>
<rscale>  0 0.58834942E+03</rscale>
<asrwt>0</asrwt>
<pdfrwt beam="1">  1        2 0.24636234E+00 0.58834942E+03</pdfrwt>
<pdfrwt beam="2">  1       -2 0.71686976E-02 0.58834942E+03</pdfrwt>
<totfact> 0.13318594E+03</totfact>
</mgrwt>
</event>
<event>
 4    1  0.2892809E-005  0.6413960E+03  0.7818608E-02  0.9823059E-01
          2   -1    0    0  501    0  0.00000000000E+00  0.00000000000E+00  0.19218120323E+04  0.19218120323E+04  0.25500000000E-02 0.  1.
         -2   -1    0    0    0  501 -0.00000000000E+00 -0.00000000000E+00 -0.53515747974E+02  0.53515748034E+02  0.25500000000E-02 0. -1.
    5000001    1    1    2    0    0  0.23584652150E+03  0.48060956804E+02  0.65783299746E+03  0.72632065220E+03  0.19200000000E+03 0.  0.
   -5000001    1    1    2    0    0 -0.23584652150E+03 -0.48060956804E+02  0.12104632869E+04  0.12490071282E+04  0.19200000000E+03 0.  0.
<mgrwt>
<rscale>  0 0.64139600E+03</rscale>
<asrwt>0</asrwt>
<pdfrwt beam="1">  1        2 0.27454460E+00 0.64139600E+03</pdfrwt>
<pdfrwt beam="2">  1       -2 0.76451061E-02 0.64139600E+03</pdfrwt>
<totfact> 0.95357634E+02</totfact>
</mgrwt>
</event>
<event>
 4    1  0.2892809E-005  0.4263427E+03  0.7818608E-02  0.1035022E+00
          2   -1    0    0  501    0  0.00000000000E+00  0.00000000000E+00  0.12099080793E+04  0.12099080793E+04  0.25500000000E-02 0. -1.
         -2   -1    0    0    0  501 -0.00000000000E+00 -0.00000000000E+00 -0.37558244022E+02  0.37558244109E+02  0.25500000000E-02 0.  1.
    5000001    1    1    2    0    0  0.60858450814E+02  0.55629522698E+02  0.46274096540E+03  0.50773181493E+03  0.19200000000E+03 0.  0.
   -5000001    1    1    2    0    0 -0.60858450814E+02 -0.55629522698E+02  0.70960886988E+03  0.73973450849E+03  0.19200000000E+03 0.  0.
<mgrwt>
<rscale>  0 0.42634269E+03</rscale>
<asrwt>0</asrwt>
<pdfrwt beam="1">  1        2 0.17284398E+00 0.42634269E+03</pdfrwt>
<pdfrwt beam="2">  1       -2 0.53654643E-02 0.42634269E+03</pdfrwt>
<totfact> 0.39072625E+03</totfact>
</mgrwt>
</event>
<event>
 4    1  0.2892809E-005  0.7902919E+03  0.7818608E-02  0.9574176E-01
          2   -1    0    0  501    0  0.00000000000E+00  0.00000000000E+00  0.34136800441E+04  0.34136800441E+04  0.25500000000E-02 0.  1.
         -2   -1    0    0    0  501 -0.00000000000E+00 -0.00000000000E+00 -0.45739588335E+02  0.45739588406E+02  0.25500000000E-02 0. -1.
    5000001    1    1    2    0    0  0.31782261576E+03  0.69083818428E+02  0.21924368270E+04  0.22247307768E+04  0.19200000000E+03 0.  0.
   -5000001    1    1    2    0    0 -0.31782261576E+03 -0.69083818428E+02  0.11755036288E+04  0.12346888557E+04  0.19200000000E+03 0.  0.
<mgrwt>
<rscale>  0 0.79029190E+03</rscale>
<asrwt>0</asrwt>
<pdfrwt beam="1">  1        2 0.48766850E+00 0.79029190E+03</pdfrwt>
<pdfrwt beam="2">  1       -2 0.65342279E-02 0.79029190E+03</pdfrwt>
<totfact> 0.19471478E+02</totfact>
</mgrwt>
</event>
<event>
 4    1  0.2892809E-005  0.9245958E+03  0.7818608E-02  0.9395347E-01
         -2   -1    0    0    0  501 -0.00000000000E+00  0.00000000000E+00  0.38266264244E+03  0.38266264245E+03  0.25500000000E-02 0. -1.
          2   -1    0    0  501    0  0.00000000000E+00 -0.00000000000E+00 -0.55850592948E+03  0.55850592949E+03  0.25500000000E-02 0.  1.
    5000001    1    1    2    0    0  0.17361060560E+03  0.24291422610E+03 -0.38938434753E+03  0.52690808850E+03  0.19200000000E+03 0.  0.
   -5000001    1    1    2    0    0 -0.17361060560E+03 -0.24291422610E+03  0.21354106049E+03  0.41426048344E+03  0.19200000000E+03 0.  0.
<mgrwt>
<rscale>  0 0.92459581E+03</rscale>
<asrwt>0</asrwt>
<pdfrwt beam="1">  1        2 0.79786561E-01 0.92459581E+03</pdfrwt>
<pdfrwt beam="2">  1       -2 0.54666092E-01 0.92459581E+03</pdfrwt>
<totfact> 0.18633299E+02</totfact>
</mgrwt>
</event>
<event>
 4    1  0.2892809E-005  0.6422149E+03  0.7818608E-02  0.9821498E-01
          2   -1    0    0  501    0  0.00000000000E+00  0.00000000000E+00  0.41584785445E+04  0.41584785445E+04  0.25500000000E-02 0.  1.
         -2   -1    0    0    0  501 -0.00000000000E+00 -0.00000000000E+00 -0.24795125650E+02  0.24795125781E+02  0.25500000000E-02 0. -1.
    5000001    1    1    2    0    0 -0.24006500613E+03  0.16785788584E+02  0.14722247067E+04  0.15040686676E+04  0.19200000000E+03 0.  0.
   -5000001    1    1    2    0    0  0.24006500613E+03 -0.16785788584E+02  0.26614587122E+04  0.26792050027E+04  0.19200000000E+03 0.  0.
<mgrwt>
<rscale>  0 0.64221491E+03</rscale>
<asrwt>0</asrwt>
<pdfrwt beam="1">  1        2 0.59406851E+00 0.64221491E+03</pdfrwt>
<pdfrwt beam="2">  1       -2 0.35421599E-02 0.64221491E+03</pdfrwt>
<totfact> 0.17221197E+02</totfact>
</mgrwt>
</event>
<event>
 4    1  0.2892809E-005  0.7611621E+03  0.7818608E-02  0.9618000E-01
          2   -1    0    0  501    0  0.00000000000E+00  0.00000000000E+00  0.40425754668E+03  0.40425754669E+03  0.25500000000E-02 0.  1.
         -2   -1    0    0    0  501 -0.00000000000E+00 -0.00000000000E+00 -0.35829122059E+03  0.35829122060E+03  0.25500000000E-02 0. -1.
    5000001    1    1    2    0    0  0.31298755187E+03  0.75609446487E+02 -0.42710179827E+02  0.37731439872E+03  0.19200000000E+03 0.  0.
   -5000001    1    1    2    0    0 -0.31298755187E+03 -0.75609446487E+02  0.88676505922E+02  0.38523436856E+03  0.19200000000E+03 0.  0.
<mgrwt>
<rscale>  0 0.76116208E+03</rscale>
<asrwt>0</asrwt>
<pdfrwt beam="1">  1        2 0.57751078E-01 0.76116208E+03</pdfrwt>
<pdfrwt beam="2">  1       -2 0.51184460E-01 0.76116208E+03</pdfrwt>
<totfact> 0.31051470E+02</totfact>
</mgrwt>
</event>
<event>
 4    1  0.2892809E-005  0.4990052E+03  0.7818608E-02  0.1014039E+00
          2   -1    0    0  501    0  0.00000000000E+00  0.00000000000E+00  0.97029413622E+03  0.97029413622E+03  0.25500000000E-02 0.  1.
         -2   -1    0    0    0  501 -0.00000000000E+00 -0.00000000000E+00 -0.64157395969E+02  0.64157396019E+02  0.25500000000E-02 0. -1.
    5000001    1    1    2    0    0 -0.13357309517E+03  0.76259232445E+02  0.53929991062E+03  0.59276102763E+03  0.19200000000E+03 0.  0.
   -5000001    1    1    2    0    0  0.13357309517E+03 -0.76259232445E+02  0.36683682963E+03  0.44169050461E+03  0.19200000000E+03 0.  0.
<mgrwt>
<rscale>  0 0.49900519E+03</rscale>
<asrwt>0</asrwt>
<pdfrwt beam="1">  1        2 0.13861344E+00 0.49900519E+03</pdfrwt>
<pdfrwt beam="2">  1       -2 0.91653430E-02 0.49900519E+03</pdfrwt>
<totfact> 0.23204328E+03</totfact>
</mgrwt>
</event>
<event>
 4    1  0.2892809E-005  0.8584394E+03  0.7818608E-02  0.9479079E-01
          2   -1    0    0  501    0  0.00000000000E+00  0.00000000000E+00  0.16020781257E+04  0.16020781257E+04  0.25500000000E-02 0.  1.
         -2   -1    0    0    0  501 -0.00000000000E+00 -0.00000000000E+00 -0.11499411830E+03  0.11499411833E+03  0.25500000000E-02 0. -1.
    5000001    1    1    2    0    0 -0.26264622261E+02  0.37299390106E+03  0.56972621356E+03  0.70800158123E+03  0.19200000000E+03 0.  0.
   -5000001    1    1    2    0    0  0.26264622261E+02 -0.37299390106E+03  0.91735779388E+03  0.10090706628E+04  0.19200000000E+03 0.  0.
<mgrwt>
<rscale>  0 0.85843942E+03</rscale>
<asrwt>0</asrwt>
<pdfrwt beam="1">  1        2 0.22886831E+00 0.85843942E+03</pdfrwt>
<pdfrwt beam="2">  1       -2 0.16427731E-01 0.85843942E+03</pdfrwt>
<totfact> 0.38959276E+02</totfact>
</mgrwt>
</event>
<event>
 4    1  0.2892809E-005  0.4286542E+03  0.7818608E-02  0.1034286E+00
          2   -1    0    0  501    0  0.00000000000E+00  0.00000000000E+00  0.11663210887E+04  0.11663210887E+04  0.25500000000E-02 0.  1.
         -2   -1    0    0    0  501 -0.00000000000E+00 -0.00000000000E+00 -0.39385475070E+02  0.39385475153E+02  0.25500000000E-02 0. -1.
    5000001    1    1    2    0    0 -0.89002928796E+01  0.61943435390E+02  0.36149774028E+03  0.41407827839E+03  0.19200000000E+03 0.  0.
   -5000001    1    1    2    0    0  0.89002928796E+01 -0.61943435390E+02  0.76543787331E+03  0.79162828544E+03  0.19200000000E+03 0.  0.
<mgrwt>
<rscale>  0 0.42865422E+03</rscale>
<asrwt>0</asrwt>
<pdfrwt beam="1">  1        2 0.16661727E+00 0.42865422E+03</pdfrwt>
<pdfrwt beam="2">  1       -2 0.56264974E-02 0.42865422E+03</pdfrwt>
<totfact> 0.38388664E+03</totfact>
</mgrwt>
</event>
<event>
 4    1  0.2892809E-005  0.7145474E+03  0.7818608E-02  0.9692673E-01
          2   -1    0    0  501    0  0.00000000000E+00  0.00000000000E+00  0.53667320420E+03  0.53667320421E+03  0.25500000000E-02 0.  1.
         -2   -1    0    0    0  501 -0.00000000000E+00 -0.00000000000E+00 -0.23784399920E+03  0.23784399922E+03  0.25500000000E-02 0. -1.
    5000001    1    1    2    0    0 -0.23840845886E+03  0.15044360197E+03  0.34147593113E+02  0.34278554337E+03  0.19200000000E+03 0.  0.
   -5000001    1    1    2    0    0  0.23840845886E+03 -0.15044360197E+03  0.26468161189E+03  0.43173166006E+03  0.19200000000E+03 0.  0.
<mgrwt>
<rscale>  0 0.71454741E+03</rscale>
<asrwt>0</asrwt>
<pdfrwt beam="1">  1        2 0.76667601E-01 0.71454741E+03</pdfrwt>
<pdfrwt beam="2">  1       -2 0.33977714E-01 0.71454741E+03</pdfrwt>
<totfact> 0.50411875E+02</totfact>
</mgrwt>
</event>
<event>
 4    1  0.2892809E-005  0.6157539E+03  0.7818608E-02  0.9873250E-01
          2   -1    0    0  501    0  0.00000000000E+00  0.00000000000E+00  0.98976475153E+03  0.98976475153E+03  0.25500000000E-02 0.  1.
         -2   -1    0    0    0  501 -0.00000000000E+00 -0.00000000000E+00 -0.95768424355E+02  0.95768424389E+02  0.25500000000E-02 0. -1.
    5000001    1    1    2    0    0 -0.16752237164E+03  0.16948280510E+03  0.38757803045E+03  0.49383083734E+03  0.19200000000E+03 0.  0.
   -5000001    1    1    2    0    0  0.16752237164E+03 -0.16948280510E+03  0.50641829672E+03  0.59170233858E+03  0.19200000000E+03 0.  0.
<mgrwt>
<rscale>  0 0.61575388E+03</rscale>
<asrwt>0</asrwt>
<pdfrwt beam="1">  1        2 0.14139497E+00 0.61575388E+03</pdfrwt>
<pdfrwt beam="2">  1       -2 0.13681203E-01 0.61575388E+03</pdfrwt>
<totfact> 0.11712731E+03</totfact>
</mgrwt>
</event>
<event>
 4    1  0.2892809E-005  0.4558877E+03  0.7818608E-02  0.1025981E+00
         -2   -1    0    0    0  501 -0.00000000000E+00  0.00000000000E+00  0.49958552615E+02  0.49958552680E+02  0.25500000000E-02 0. -1.
          2   -1    0    0  501    0  0.00000000000E+00 -0.00000000000E+00 -0.10400303164E+04  0.10400303164E+04  0.25500000000E-02 0.  1.
    5000001    1    1    2    0    0 -0.27685594621E+02  0.80585342254E+02 -0.70665441710E+03  0.73721432076E+03  0.19200000000E+03 0.  0.
   -5000001    1    1    2    0    0  0.27685594621E+02 -0.80585342254E+02 -0.28341734667E+03  0.35277454830E+03  0.19200000000E+03 0.  0.
<mgrwt>
<rscale>  0 0.45588775E+03</rscale>
<asrwt>0</asrwt>
<pdfrwt beam="1">  1        2 0.14857575E+00 0.45588775E+03</pdfrwt>
<pdfrwt beam="2">  1       -2 0.71369367E-02 0.45588775E+03</pdfrwt>
<totfact> 0.31321626E+03</totfact>
</mgrwt>
</event>
<event>
 4    1  0.2892809E-005  0.5428239E+03  0.7818608E-02  0.1003169E+00
         -2   -1    0    0    0  501 -0.00000000000E+00  0.00000000000E+00  0.17987857330E+03  0.17987857332E+03  0.25500000000E-02 0. -1.
          2   -1    0    0  501    0  0.00000000000E+00 -0.00000000000E+00 -0.40952321383E+03  0.40952321384E+03  0.25500000000E-02 0.  1.
    5000001    1    1    2    0    0 -0.13882161426E+03 -0.13142456910E+03 -0.97429288264E+02  0.28792416391E+03  0.19200000000E+03 0.  0.
   -5000001    1    1    2    0    0  0.13882161426E+03  0.13142456910E+03 -0.13221535227E+03  0.30147762326E+03  0.19200000000E+03 0.  0.
<mgrwt>
<rscale>  0 0.54282392E+03</rscale>
<asrwt>0</asrwt>
<pdfrwt beam="1">  1        2 0.58503316E-01 0.54282392E+03</pdfrwt>
<pdfrwt beam="2">  1       -2 0.25696939E-01 0.54282392E+03</pdfrwt>
<totfact> 0.11488199E+03</totfact>
</mgrwt>
</event>
<event>
 4    1  0.2892809E-005  0.6156411E+03  0.7818608E-02  0.9873477E-01
          2   -1    0    0  501    0  0.00000000000E+00  0.00000000000E+00  0.16805655606E+04  0.16805655606E+04  0.25500000000E-02 0.  1.
         -2   -1    0    0    0  501 -0.00000000000E+00 -0.00000000000E+00 -0.56381908488E+02  0.56381908546E+02  0.25500000000E-02 0. -1.
    5000001    1    1    2    0    0 -0.21284467930E+03 -0.78590383664E+01  0.49634011288E+03  0.57322083846E+03  0.19200000000E+03 0.  0.
   -5000001    1    1    2    0    0  0.21284467930E+03  0.78590383664E+01  0.11278435392E+04  0.11637266307E+04  0.19200000000E+03 0.  0.
<mgrwt>
<rscale>  0 0.61564111E+03</rscale>
<asrwt>0</asrwt>
<pdfrwt beam="1">  1        2 0.24008075E+00 0.61564111E+03</pdfrwt>
<pdfrwt beam="2">  1       -2 0.80545597E-02 0.61564111E+03</pdfrwt>
<totfact> 0.11639172E+03</totfact>
</mgrwt>
</event>
<event>
 4    1  0.2892809E-005  0.5640421E+03  0.7818608E-02  0.9982950E-01
         -2   -1    0    0    0  501 -0.00000000000E+00  0.00000000000E+00  0.64125724728E+02  0.64125724778E+02  0.25500000000E-02 0. -1.
          2   -1    0    0  501    0  0.00000000000E+00 -0.00000000000E+00 -0.12403113262E+04  0.12403113262E+04  0.25500000000E-02 0.  1.
    5000001    1    1    2    0    0 -0.17140488261E+03 -0.95727562541E+02 -0.73668835454E+03  0.78620425573E+03  0.19200000000E+03 0.  0.
   -5000001    1    1    2    0    0  0.17140488261E+03  0.95727562541E+02 -0.43949724694E+03  0.51823279526E+03  0.19200000000E+03 0.  0.
<mgrwt>
<rscale>  0 0.56404206E+03</rscale>
<asrwt>0</asrwt>
<pdfrwt beam="1">  1        2 0.17718732E+00 0.56404206E+03</pdfrwt>
<pdfrwt beam="2">  1       -2 0.91608186E-02 0.56404206E+03</pdfrwt>
<totfact> 0.16181841E+03</totfact>
</mgrwt>
</event>
<event>
 4    1  0.2892809E-005  0.3970527E+03  0.7818608E-02  0.1044805E+00
          2   -1    0    0  501    0  0.00000000000E+00  0.00000000000E+00  0.42640451143E+03  0.42640451144E+03  0.25500000000E-02 0.  1.
         -2   -1    0    0    0  501 -0.00000000000E+00 -0.00000000000E+00 -0.92430336719E+02  0.92430336755E+02  0.25500000000E-02 0. -1.
    5000001    1    1    2    0    0  0.16104588782E+02 -0.46032205139E+02  0.14993002776E+03  0.24843778882E+03  0.19200000000E+03 0.  0.
   -5000001    1    1    2    0    0 -0.16104588782E+02  0.46032205139E+02  0.18404414695E+03  0.27039705937E+03  0.19200000000E+03 0.  0.
<mgrwt>
<rscale>  0 0.39705270E+03</rscale>
<asrwt>0</asrwt>
<pdfrwt beam="1">  1        2 0.60914929E-01 0.39705270E+03</pdfrwt>
<pdfrwt beam="2">  1       -2 0.13204334E-01 0.39705270E+03</pdfrwt>
<totfact> 0.34365441E+03</totfact>
</mgrwt>
</event>
<event>
 4    1  0.2892809E-005  0.8316958E+03  0.7818608E-02  0.9515239E-01
          2   -1    0    0  501    0  0.00000000000E+00  0.00000000000E+00  0.29573474265E+04  0.29573474265E+04  0.25500000000E-02 0. -1.
         -2   -1    0    0    0  501 -0.00000000000E+00 -0.00000000000E+00 -0.58474520310E+02  0.58474520365E+02  0.25500000000E-02 0.  1.
    5000001    1    1    2    0    0  0.14252783069E+03 -0.32179616513E+03  0.18499292655E+04  0.18928732768E+04  0.19200000000E+03 0.  0.
   -5000001    1    1    2    0    0 -0.14252783069E+03  0.32179616513E+03  0.10489436407E+04  0.11229486701E+04  0.19200000000E+03 0.  0.
<mgrwt>
<rscale>  0 0.83169579E+03</rscale>
<asrwt>0</asrwt>
<pdfrwt beam="1">  1        2 0.42247836E+00 0.83169579E+03</pdfrwt>
<pdfrwt beam="2">  1       -2 0.83534999E-02 0.83169579E+03</pdfrwt>
<totfact> 0.23743979E+02</totfact>
</mgrwt>
</event>
<event>
 4    1  0.2892809E-005  0.9764888E+03  0.7818608E-02  0.9334714E-01
         -2   -1    0    0    0  501 -0.00000000000E+00  0.00000000000E+00  0.12596752748E+03  0.12596752751E+03  0.25500000000E-02 0. -1.
          2   -1    0    0  501    0  0.00000000000E+00 -0.00000000000E+00 -0.18924129909E+04  0.18924129909E+04  0.25500000000E-02 0.  1.
    5000001    1    1    2    0    0  0.16153100097E+03 -0.65429403054E+02 -0.28119999813E+02  0.26082178867E+03  0.19200000000E+03 0.  0.
   -5000001    1    1    2    0    0 -0.16153100097E+03  0.65429403054E+02 -0.17383254636E+04  0.17575587298E+04  0.19200000000E+03 0.  0.
<mgrwt>
<rscale>  0 0.97648878E+03</rscale>
<asrwt>0</asrwt>
<pdfrwt beam="1">  1        2 0.27034470E+00 0.97648878E+03</pdfrwt>
<pdfrwt beam="2">  1       -2 0.17995362E-01 0.97648878E+03</pdfrwt>
<totfact> 0.23443037E+02</totfact>
</mgrwt>
</event>
<event>
 4    1  0.2892809E-005  0.4210014E+03  0.7818608E-02  0.1036741E+00
          2   -1    0    0  501    0  0.00000000000E+00  0.00000000000E+00  0.21822168854E+04  0.21822168854E+04  0.25500000000E-02 0.  1.
         -2   -1    0    0    0  501 -0.00000000000E+00 -0.00000000000E+00 -0.20305292260E+02  0.20305292421E+02  0.25500000000E-02 0. -1.
    5000001    1    1    2    0    0 -0.64054767115E+02  0.54981042384E+02  0.98727847632E+03  0.10093110115E+04  0.19200000000E+03 0.  0.
   -5000001    1    1    2    0    0  0.64054767115E+02 -0.54981042384E+02  0.11746331169E+04  0.11932111663E+04  0.19200000000E+03 0.  0.
<mgrwt>
<rscale>  0 0.42100143E+03</rscale>
<asrwt>0</asrwt>
<pdfrwt beam="1">  1        2 0.31174489E+00 0.42100143E+03</pdfrwt>
<pdfrwt beam="2">  1       -2 0.29007596E-02 0.42100143E+03</pdfrwt>
<totfact> 0.31881691E+03</totfact>
</mgrwt>
</event>
<event>
 4    1  0.2892809E-005  0.4919966E+03  0.7818608E-02  0.1015889E+00
          2   -1    0    0  501    0  0.00000000000E+00  0.00000000000E+00  0.15172559727E+04  0.15172559727E+04  0.25500000000E-02 0.  1.
         -2   -1    0    0    0  501 -0.00000000000E+00 -0.00000000000E+00 -0.39884614393E+02  0.39884614475E+02  0.25500000000E-02 0. -1.
    5000001    1    1    2    0    0  0.77922475409E+01 -0.13191826609E+03  0.98765257610E+03  0.10147831094E+04  0.19200000000E+03 0.  0.
   -5000001    1    1    2    0    0 -0.77922475409E+01  0.13191826609E+03  0.48971878218E+03  0.54235747775E+03  0.19200000000E+03 0.  0.
<mgrwt>
<rscale>  0 0.49199662E+03</rscale>
<asrwt>0</asrwt>
<pdfrwt beam="1">  1        2 0.21675082E+00 0.49199662E+03</pdfrwt>
<pdfrwt beam="2">  1       -2 0.56978030E-02 0.49199662E+03</pdfrwt>
<totfact> 0.24439238E+03</totfact>
</mgrwt>
</event>
<event>
 4    1  0.2892809E-005  0.4599677E+03  0.7818608E-02  0.1024791E+00
         -2   -1    0    0    0  501 -0.00000000000E+00  0.00000000000E+00  0.75298748106E+03  0.75298748106E+03  0.25500000000E-02 0. -1.
          2   -1    0    0  501    0  0.00000000000E+00 -0.00000000000E+00 -0.70243617904E+02  0.70243617950E+02  0.25500000000E-02 0.  1.
    5000001    1    1    2    0    0  0.12485464026E+03 -0.14858245251E+02  0.31487889239E+03  0.38964363914E+03  0.19200000000E+03 0.  0.
   -5000001    1    1    2    0    0 -0.12485464026E+03  0.14858245251E+02  0.36786497076E+03  0.43358745987E+03  0.19200000000E+03 0.  0.
<mgrwt>
<rscale>  0 0.45996767E+03</rscale>
<asrwt>0</asrwt>
<pdfrwt beam="1">  1        2 0.10034802E-01 0.45996767E+03</pdfrwt>
<pdfrwt beam="2">  1       -2 0.10756965E+00 0.45996767E+03</pdfrwt>
<totfact> 0.46330653E+02</totfact>
</mgrwt>
</event>
<event>
 4    1  0.2892809E-005  0.6383962E+03  0.7818608E-02  0.9828800E-01
          2   -1    0    0  501    0  0.00000000000E+00  0.00000000000E+00  0.30049535598E+03  0.30049535599E+03  0.25500000000E-02 0.  1.
         -2   -1    0    0    0  501 -0.00000000000E+00 -0.00000000000E+00 -0.33906488697E+03  0.33906488698E+03  0.25500000000E-02 0. -1.
    5000001    1    1    2    0    0  0.15594525309E+03  0.17992207389E+03  0.72164478111E+02  0.31426515323E+03  0.19200000000E+03 0.  0.
   -5000001    1    1    2    0    0 -0.15594525309E+03 -0.17992207389E+03 -0.11073400910E+03  0.32529508973E+03  0.19200000000E+03 0.  0.
<mgrwt>
<rscale>  0 0.63839619E+03</rscale>
<asrwt>0</asrwt>
<pdfrwt beam="1">  1        2 0.42927908E-01 0.63839619E+03</pdfrwt>
<pdfrwt beam="2">  1       -2 0.48437841E-01 0.63839619E+03</pdfrwt>
<totfact> 0.48436070E+02</totfact>
</mgrwt>
</event>
<event>
 4    1  0.2892809E-005  0.7825150E+03  0.7818608E-02  0.9585677E-01
          2   -1    0    0  501    0  0.00000000000E+00  0.00000000000E+00  0.10741826877E+04  0.10741826877E+04  0.25500000000E-02 0.  1.
         -2   -1    0    0    0  501 -0.00000000000E+00 -0.00000000000E+00 -0.14251059702E+03  0.14251059704E+03  0.25500000000E-02 0. -1.
    5000001    1    1    2    0    0 -0.19138523201E+03 -0.91702333817E+02  0.88066576833E+03  0.92599882320E+03  0.19200000000E+03 0.  0.
   -5000001    1    1    2    0    0  0.19138523201E+03  0.91702333817E+02  0.51006322359E+02  0.29069446156E+03  0.19200000000E+03 0.  0.
<mgrwt>
<rscale>  0 0.78251496E+03</rscale>
<asrwt>0</asrwt>
<pdfrwt beam="1">  1        2 0.15345467E+00 0.78251496E+03</pdfrwt>
<pdfrwt beam="2">  1       -2 0.20358657E-01 0.78251496E+03</pdfrwt>
<totfact> 0.52523261E+02</totfact>
</mgrwt>
</event>
<event>
 4    1  0.2892809E-005  0.4108752E+03  0.7818608E-02  0.1040078E+00
          2   -1    0    0  501    0  0.00000000000E+00  0.00000000000E+00  0.92986747357E+03  0.92986747357E+03  0.25500000000E-02 0.  1.
         -2   -1    0    0    0  501 -0.00000000000E+00 -0.00000000000E+00 -0.45387759631E+02  0.45387759702E+02  0.25500000000E-02 0. -1.
    5000001    1    1    2    0    0  0.49973809542E+02 -0.48573823886E+02  0.49444855392E+03  0.53497679434E+03  0.19200000000E+03 0.  0.
   -5000001    1    1    2    0    0 -0.49973809542E+02  0.48573823886E+02  0.39003116002E+03  0.44027843894E+03  0.19200000000E+03 0.  0.
<mgrwt>
<rscale>  0 0.41087517E+03</rscale>
<asrwt>0</asrwt>
<pdfrwt beam="1">  1        2 0.13283821E+00 0.41087517E+03</pdfrwt>
<pdfrwt beam="2">  1       -2 0.64839656E-02 0.41087517E+03</pdfrwt>
<totfact> 0.42420556E+03</totfact>
</mgrwt>
</event>
<event>
 4    1  0.2892809E-005  0.4389336E+03  0.7818608E-02  0.1031075E+00
         -2   -1    0    0    0  501 -0.00000000000E+00  0.00000000000E+00  0.11361385051E+03  0.11361385054E+03  0.25500000000E-02 0. -1.
          2   -1    0    0  501    0  0.00000000000E+00 -0.00000000000E+00 -0.42394186295E+03  0.42394186295E+03  0.25500000000E-02 0.  1.
    5000001    1    1    2    0    0 -0.11744367448E+02  0.82834185218E+02 -0.23549289547E+03  0.31515129101E+03  0.19200000000E+03 0.  0.
   -5000001    1    1    2    0    0  0.11744367448E+02 -0.82834185218E+02 -0.74835116968E+02  0.22240442248E+03  0.19200000000E+03 0.  0.
<mgrwt>
<rscale>  0 0.43893356E+03</rscale>
<asrwt>0</asrwt>
<pdfrwt beam="1">  1        2 0.60563122E-01 0.43893356E+03</pdfrwt>
<pdfrwt beam="2">  1       -2 0.16230550E-01 0.43893356E+03</pdfrwt>
<totfact> 0.24564036E+03</totfact>
</mgrwt>
</event>
<event>
 4    1  0.2892809E-005  0.6472924E+03  0.7818608E-02  0.9811873E-01
         -2   -1    0    0    0  501 -0.00000000000E+00  0.00000000000E+00  0.87814816241E+02  0.87814816278E+02  0.25500000000E-02 0. -1.
          2   -1    0    0  501    0  0.00000000000E+00 -0.00000000000E+00 -0.11928153644E+04  0.11928153644E+04  0.25500000000E-02 0.  1.
    5000001    1    1    2    0    0  0.99804186162E+02  0.17544050429E+03 -0.87844884179E+03  0.92156205096E+03  0.19200000000E+03 0.  0.
   -5000001    1    1    2    0    0 -0.99804186162E+02 -0.17544050429E+03 -0.22655170636E+03  0.35906812972E+03  0.19200000000E+03 0.  0.
<mgrwt>
<rscale>  0 0.64729240E+03</rscale>
<asrwt>0</asrwt>
<pdfrwt beam="1">  1        2 0.17040219E+00 0.64729240E+03</pdfrwt>
<pdfrwt beam="2">  1       -2 0.12544974E-01 0.64729240E+03</pdfrwt>
<totfact> 0.10276848E+03</totfact>
</mgrwt>
</event>
<event>
 4    1  0.2892809E-005  0.6329700E+03  0.7818608E-02  0.9839270E-01
         -2   -1    0    0    0  501 -0.00000000000E+00  0.00000000000E+00  0.33195036119E+02  0.33195036217E+02  0.25500000000E-02 0. -1.
          2   -1    0    0  501    0  0.00000000000E+00 -0.00000000000E+00 -0.30174015462E+04  0.30174015462E+04  0.25500000000E-02 0.  1.
    5000001    1    1    2    0    0 -0.73213033469E+02 -0.21823455239E+03 -0.10026861802E+04  0.10465323904E+04  0.19200000000E+03 0.  0.
   -5000001    1    1    2    0    0  0.73213033469E+02  0.21823455239E+03 -0.19815203299E+04  0.20040641920E+04  0.19200000000E+03 0.  0.
<mgrwt>
<rscale>  0 0.63296999E+03</rscale>
<asrwt>0</asrwt>
<pdfrwt beam="1">  1        2 0.43105719E+00 0.63296999E+03</pdfrwt>
<pdfrwt beam="2">  1       -2 0.47421500E-02 0.63296999E+03</pdfrwt>
<totfact> 0.54802235E+02</totfact>
</mgrwt>
</event>
<event>
 4    1  0.2892809E-005  0.1135913E+04  0.7818608E-02  0.9170878E-01
         -2   -1    0    0    0  501 -0.00000000000E+00  0.00000000000E+00  0.30935513813E+03  0.30935513814E+03  0.25500000000E-02 0. -1.
          2   -1    0    0  501    0  0.00000000000E+00 -0.00000000000E+00 -0.10427328592E+04  0.10427328592E+04  0.25500000000E-02 0.  1.
    5000001    1    1    2    0    0  0.31655579958E+02  0.42944203684E+03 -0.74363972727E+03  0.88050359608E+03  0.19200000000E+03 0.  0.
   -5000001    1    1    2    0    0 -0.31655579958E+02 -0.42944203684E+03  0.10262006189E+02  0.47158440126E+03  0.19200000000E+03 0.  0.
<mgrwt>
<rscale>  0 0.11359133E+04</rscale>
<asrwt>0</asrwt>
<pdfrwt beam="1">  1        2 0.14896183E+00 0.11359133E+04</pdfrwt>
<pdfrwt beam="2">  1       -2 0.44193592E-01 0.11359133E+04</pdfrwt>
<totfact> 0.12711409E+02</totfact>
</mgrwt>
</event>
<event>
 4    1  0.2892809E-005  0.3997205E+03  0.7818608E-02  0.1043877E+00
          2   -1    0    0  501    0  0.00000000000E+00  0.00000000000E+00  0.22405876488E+04  0.22405876488E+04  0.25500000000E-02 0.  1.
         -2   -1    0    0    0  501 -0.00000000000E+00 -0.00000000000E+00 -0.17827516513E+02  0.17827516695E+02  0.25500000000E-02 0. -1.
    5000001    1    1    2    0    0  0.41507163988E+02 -0.29867519597E+02  0.12332417863E+04  0.12491453946E+04  0.19200000000E+03 0.  0.
   -5000001    1    1    2    0    0 -0.41507163988E+02  0.29867519597E+02  0.98951834603E+03  0.10092697709E+04  0.19200000000E+03 0.  0.
<mgrwt>
<rscale>  0 0.39972047E+03</rscale>
<asrwt>0</asrwt>
<pdfrwt beam="1">  1        2 0.32008403E+00 0.39972047E+03</pdfrwt>
<pdfrwt beam="2">  1       -2 0.25467875E-02 0.39972047E+03</pdfrwt>
<totfact> 0.36279337E+03</totfact>
</mgrwt>
</event>
<event>
 4    1  0.2892809E-005  0.4475645E+03  0.7818608E-02  0.1028451E+00
         -2   -1    0    0    0  501 -0.00000000000E+00  0.00000000000E+00  0.41551810505E+03  0.41551810506E+03  0.25500000000E-02 0. -1.
          2   -1    0    0  501    0  0.00000000000E+00 -0.00000000000E+00 -0.12052059127E+03  0.12052059130E+03  0.25500000000E-02 0.  1.
    5000001    1    1    2    0    0  0.98863233158E+02 -0.11307030019E+02  0.78565056496E+02  0.23008314997E+03  0.19200000000E+03 0.  0.
   -5000001    1    1    2    0    0 -0.98863233158E+02  0.11307030019E+02  0.21643245729E+03  0.30595554639E+03  0.19200000000E+03 0.  0.
<mgrwt>
<rscale>  0 0.44756447E+03</rscale>
<asrwt>0</asrwt>
<pdfrwt beam="1">  1        2 0.17217227E-01 0.44756447E+03</pdfrwt>
<pdfrwt beam="2">  1       -2 0.59359729E-01 0.44756447E+03</pdfrwt>
<totfact> 0.90180609E+02</totfact>
</mgrwt>
</event>
<event>
 4    1  0.2892809E-005  0.5478386E+03  0.7818608E-02  0.1001995E+00
          2   -1    0    0  501    0  0.00000000000E+00  0.00000000000E+00  0.19079167892E+03  0.19079167894E+03  0.25500000000E-02 0.  1.
         -2   -1    0    0    0  501 -0.00000000000E+00 -0.00000000000E+00 -0.39326554427E+03  0.39326554428E+03  0.25500000000E-02 0. -1.
    5000001    1    1    2    0    0  0.56443175938E+02  0.17448419318E+03 -0.17304909874E+03  0.31692358126E+03  0.19200000000E+03 0.  0.
   -5000001    1    1    2    0    0 -0.56443175938E+02 -0.17448419318E+03 -0.29424766607E+02  0.26713364197E+03  0.19200000000E+03 0.  0.
<mgrwt>
<rscale>  0 0.54783864E+03</rscale>
<asrwt>0</asrwt>
<pdfrwt beam="1">  1        2 0.27255954E-01 0.54783864E+03</pdfrwt>
<pdfrwt beam="2">  1       -2 0.56180792E-01 0.54783864E+03</pdfrwt>
<totfact> 0.59451926E+02</totfact>
</mgrwt>
</event>
<event>
 4    1  0.2892809E-005  0.8433517E+03  0.7818608E-02  0.9499304E-01
         -2   -1    0    0    0  501 -0.00000000000E+00  0.00000000000E+00  0.93958947147E+02  0.93958947182E+02  0.25500000000E-02 0.  1.
          2   -1    0    0  501    0  0.00000000000E+00 -0.00000000000E+00 -0.18924275903E+04  0.18924275903E+04  0.25500000000E-02 0. -1.
    5000001    1    1    2    0    0  0.18608532898E+03 -0.29120020491E+03 -0.12447663042E+04  0.13060369294E+04  0.19200000000E+03 0.  0.
   -5000001    1    1    2    0    0 -0.18608532898E+03  0.29120020491E+03 -0.55370233898E+03  0.68034960806E+03  0.19200000000E+03 0.  0.
<mgrwt>
<rscale>  0 0.84335166E+03</rscale>
<asrwt>0</asrwt>
<pdfrwt beam="1">  1        2 0.27034678E+00 0.84335166E+03</pdfrwt>
<pdfrwt beam="2">  1       -2 0.13422708E-01 0.84335166E+03</pdfrwt>
<totfact> 0.38947930E+02</totfact>
</mgrwt>
</event>
<event>
 4    1  0.2892809E-005  0.7124121E+03  0.7818608E-02  0.9696238E-01
         -2   -1    0    0    0  501 -0.00000000000E+00  0.00000000000E+00  0.10895469178E+03  0.10895469181E+03  0.25500000000E-02 0. -1.
          2   -1    0    0  501    0  0.00000000000E+00 -0.00000000000E+00 -0.11645458953E+04  0.11645458953E+04  0.25500000000E-02 0.  1.
    5000001    1    1    2    0    0  0.11224981969E+03 -0.25828768648E+03 -0.71275879553E+03  0.79006433385E+03  0.19200000000E+03 0.  0.
   -5000001    1    1    2    0    0 -0.11224981969E+03  0.25828768648E+03 -0.34283240800E+03  0.48343625328E+03  0.19200000000E+03 0.  0.
<mgrwt>
<rscale>  0 0.71241207E+03</rscale>
<asrwt>0</asrwt>
<pdfrwt beam="1">  1        2 0.16636369E+00 0.71241207E+03</pdfrwt>
<pdfrwt beam="2">  1       -2 0.15564957E-01 0.71241207E+03</pdfrwt>
<totfact> 0.74124718E+02</totfact>
</mgrwt>
</event>
<event>
 4    1  0.2892809E-005  0.7312280E+03  0.7818608E-02  0.9665270E-01
          2   -1    0    0  501    0  0.00000000000E+00  0.00000000000E+00  0.47550328321E+03  0.47550328322E+03  0.25500000000E-02 0.  1.
         -2   -1    0    0    0  501 -0.00000000000E+00 -0.00000000000E+00 -0.28112021527E+03  0.28112021528E+03  0.25500000000E-02 0. -1.
    5000001    1    1    2    0    0 -0.22358471834E+03  0.11171591198E+03 -0.94552094705E+02  0.32905116605E+03  0.19200000000E+03 0.  0.
   -5000001    1    1    2    0    0  0.22358471834E+03 -0.11171591198E+03  0.28893516265E+03  0.42757233245E+03  0.19200000000E+03 0.  0.
<mgrwt>
<rscale>  0 0.73122797E+03</rscale>
<asrwt>0</asrwt>
<pdfrwt beam="1">  1        2 0.67929041E-01 0.73122797E+03</pdfrwt>
<pdfrwt beam="2">  1       -2 0.40160031E-01 0.73122797E+03</pdfrwt>
<totfact> 0.41996455E+02</totfact>
</mgrwt>
</event>
<event>
 4    1  0.2892809E-005  0.8821946E+03  0.7818608E-02  0.9448117E-01
         -2   -1    0    0    0  501 -0.00000000000E+00  0.00000000000E+00  0.84445039288E+02  0.84445039326E+02  0.25500000000E-02 0. -1.
          2   -1    0    0  501    0  0.00000000000E+00 -0.00000000000E+00 -0.23040648350E+04  0.23040648350E+04  0.25500000000E-02 0.  1.
    5000001    1    1    2    0    0 -0.37877798701E+02  0.32105040283E+03 -0.48536080342E+03  0.61396025791E+03  0.19200000000E+03 0.  0.
   -5000001    1    1    2    0    0  0.37877798701E+02 -0.32105040283E+03 -0.17342589923E+04  0.17745496164E+04  0.19200000000E+03 0.  0.
<mgrwt>
<rscale>  0 0.88219464E+03</rscale>
<asrwt>0</asrwt>
<pdfrwt beam="1">  1        2 0.32915208E+00 0.88219464E+03</pdfrwt>
<pdfrwt beam="2">  1       -2 0.12063579E-01 0.88219464E+03</pdfrwt>
<totfact> 0.28644077E+02</totfact>
</mgrwt>
</event>
<event>
 4    1  0.2892809E-005  0.5313260E+03  0.7818608E-02  0.1005911E+00
          2   -1    0    0  501    0  0.00000000000E+00  0.00000000000E+00  0.34656554808E+04  0.34656554808E+04  0.25500000000E-02 0.  1.
         -2   -1    0    0    0  501 -0.00000000000E+00 -0.00000000000E+00 -0.20364642460E+02  0.20364642620E+02  0.25500000000E-02 0. -1.
    5000001    1    1    2    0    0 -0.12682560255E+03 -0.11357917759E+03  0.21737753681E+04  0.21888691862E+04  0.19200000000E+03 0.  0.
   -5000001    1    1    2    0    0  0.12682560255E+03  0.11357917759E+03  0.12715154702E+04  0.12971509373E+04  0.19200000000E+03 0.  0.
<mgrwt>
<rscale>  0 0.53132602E+03</rscale>
<asrwt>0</asrwt>
<pdfrwt beam="1">  1        2 0.49509383E+00 0.53132602E+03</pdfrwt>
<pdfrwt beam="2">  1       -2 0.29092335E-02 0.53132602E+03</pdfrwt>
<totfact> 0.65288335E+02</totfact>
</mgrwt>
</event>
<event>
 4    1  0.2892809E-005  0.6068805E+03  0.7818608E-02  0.9891233E-01
          2   -1    0    0  501    0  0.00000000000E+00  0.00000000000E+00  0.39400858316E+03  0.39400858317E+03  0.25500000000E-02 0.  1.
         -2   -1    0    0    0  501 -0.00000000000E+00 -0.00000000000E+00 -0.23369033852E+03  0.23369033854E+03  0.25500000000E-02 0. -1.
    5000001    1    1    2    0    0  0.26988957810E+02  0.16380223111E+03 -0.91835462591E+02  0.26992096427E+03  0.19200000000E+03 0.  0.
   -5000001    1    1    2    0    0 -0.26988957810E+02 -0.16380223111E+03  0.25215370723E+03  0.35777795744E+03  0.19200000000E+03 0.  0.
<mgrwt>
<rscale>  0 0.60688055E+03</rscale>
<asrwt>0</asrwt>
<pdfrwt beam="1">  1        2 0.56286940E-01 0.60688055E+03</pdfrwt>
<pdfrwt beam="2">  1       -2 0.33384334E-01 0.60688055E+03</pdfrwt>
<totfact> 0.74069004E+02</totfact>
</mgrwt>
</event>
<event>
 4    1  0.2892809E-005  0.6420389E+03  0.7818608E-02  0.9821833E-01
         -2   -1    0    0    0  501 -0.00000000000E+00  0.00000000000E+00  0.61897718620E+03  0.61897718620E+03  0.25500000000E-02 0. -1.
          2   -1    0    0  501    0  0.00000000000E+00 -0.00000000000E+00 -0.16648997649E+03  0.16648997651E+03  0.25500000000E-02 0.  1.
    5000001    1    1    2    0    0  0.69973150702E+02 -0.10564441507E+03  0.50016528574E+03  0.55053273955E+03  0.19200000000E+03 0.  0.
   -5000001    1    1    2    0    0 -0.69973150702E+02  0.10564441507E+03 -0.47678076035E+02  0.23493442317E+03  0.19200000000E+03 0.  0.
<mgrwt>
<rscale>  0 0.64203893E+03</rscale>
<asrwt>0</asrwt>
<pdfrwt beam="1">  1        2 0.23784282E-01 0.64203893E+03</pdfrwt>
<pdfrwt beam="2">  1       -2 0.88425313E-01 0.64203893E+03</pdfrwt>
<totfact> 0.25820009E+02</totfact>
</mgrwt>
</event>
<event>
 4    1  0.2892809E-005  0.7677646E+03  0.7818608E-02  0.9607885E-01
         -2   -1    0    0    0  501 -0.00000000000E+00  0.00000000000E+00  0.58871640011E+02  0.58871640066E+02  0.25500000000E-02 0. -1.
          2   -1    0    0  501    0  0.00000000000E+00 -0.00000000000E+00 -0.25031681699E+04  0.25031681699E+04  0.25500000000E-02 0.  1.
    5000001    1    1    2    0    0  0.22409689465E+03 -0.14726001630E+03 -0.18777389872E+04  0.19064817425E+04  0.19200000000E+03 0.  0.
   -5000001    1    1    2    0    0 -0.22409689465E+03  0.14726001630E+03 -0.56655754272E+03  0.65555806746E+03  0.19200000000E+03 0.  0.
<mgrwt>
<rscale>  0 0.76776459E+03</rscale>
<asrwt>0</asrwt>
<pdfrwt beam="1">  1        2 0.35759539E+00 0.76776459E+03</pdfrwt>
<pdfrwt beam="2">  1       -2 0.84102359E-02 0.76776459E+03</pdfrwt>
<totfact> 0.41122551E+02</totfact>
</mgrwt>
</event>
<event>
 4    1  0.2892809E-005  0.6386469E+03  0.7818608E-02  0.9828319E-01
          2   -1    0    0  501    0  0.00000000000E+00  0.00000000000E+00  0.90302891982E+03  0.90302891982E+03  0.25500000000E-02 0.  1.
         -2   -1    0    0    0  501 -0.00000000000E+00 -0.00000000000E+00 -0.11291715043E+03  0.11291715045E+03  0.25500000000E-02 0. -1.
    5000001    1    1    2    0    0  0.33178221589E+02 -0.13422391942E+03  0.53921486623E+02  0.24266928453E+03  0.19200000000E+03 0.  0.
   -5000001    1    1    2    0    0 -0.33178221589E+02  0.13422391942E+03  0.73619028277E+03  0.77327678575E+03  0.19200000000E+03 0.  0.
<mgrwt>
<rscale>  0 0.63864686E+03</rscale>
<asrwt>0</asrwt>
<pdfrwt beam="1">  1        2 0.12900413E+00 0.63864686E+03</pdfrwt>
<pdfrwt beam="2">  1       -2 0.16131022E-01 0.63864686E+03</pdfrwt>
<totfact> 0.10058700E+03</totfact>
</mgrwt>
</event>
<event>
 4    1  0.2892809E-005  0.5415108E+03  0.7818608E-02  0.1003478E+00
         -2   -1    0    0    0  501 -0.00000000000E+00  0.00000000000E+00  0.21026434001E+03  0.21026434003E+03  0.25500000000E-02 0. -1.
          2   -1    0    0  501    0  0.00000000000E+00 -0.00000000000E+00 -0.34864916449E+03  0.34864916450E+03  0.25500000000E-02 0.  1.
    5000001    1    1    2    0    0  0.87564266506E+02  0.83908707242E+02 -0.22136290120E+03  0.31713357745E+03  0.19200000000E+03 0.  0.
   -5000001    1    1    2    0    0 -0.87564266506E+02 -0.83908707242E+02  0.82978076724E+02  0.24177992708E+03  0.19200000000E+03 0.  0.
<mgrwt>
<rscale>  0 0.54151080E+03</rscale>
<asrwt>0</asrwt>
<pdfrwt beam="1">  1        2 0.49807023E-01 0.54151080E+03</pdfrwt>
<pdfrwt beam="2">  1       -2 0.30037763E-01 0.54151080E+03</pdfrwt>
<totfact> 0.10329377E+03</totfact>
</mgrwt>
</event>
<event>
 4    1  0.2892809E-005  0.5118446E+03  0.7818608E-02  0.1010733E+00
         -2   -1    0    0    0  501 -0.00000000000E+00  0.00000000000E+00  0.37632031255E+02  0.37632031342E+02  0.25500000000E-02 0. -1.
          2   -1    0    0  501    0  0.00000000000E+00 -0.00000000000E+00 -0.17404384195E+04  0.17404384195E+04  0.25500000000E-02 0.  1.
    5000001    1    1    2    0    0  0.21957896228E+02 -0.13144946930E+03 -0.48920359091E+03  0.54216719335E+03  0.19200000000E+03 0.  0.
   -5000001    1    1    2    0    0 -0.21957896228E+02  0.13144946930E+03 -0.12136027974E+04  0.12359032575E+04  0.19200000000E+03 0.  0.
<mgrwt>
<rscale>  0 0.51184464E+03</rscale>
<asrwt>0</asrwt>
<pdfrwt beam="1">  1        2 0.24863401E+00 0.51184464E+03</pdfrwt>
<pdfrwt beam="2">  1       -2 0.53760056E-02 0.51184464E+03</pdfrwt>
<totfact> 0.20578498E+03</totfact>
</mgrwt>
</event>
<event>
 4    1  0.2892809E-005  0.7317072E+03  0.7818608E-02  0.9664494E-01
         -2   -1    0    0    0  501 -0.00000000000E+00  0.00000000000E+00  0.34663299396E+02  0.34663299490E+02  0.25500000000E-02 0. -1.
          2   -1    0    0  501    0  0.00000000000E+00 -0.00000000000E+00 -0.38613993608E+04  0.38613993608E+04  0.25500000000E-02 0.  1.
    5000001    1    1    2    0    0 -0.21697544011E+03 -0.19370614101E+03 -0.25059203030E+04  0.25300397182E+04  0.19200000000E+03 0.  0.
   -5000001    1    1    2    0    0  0.21697544011E+03  0.19370614101E+03 -0.13208157584E+04  0.13660229421E+04  0.19200000000E+03 0.  0.
<mgrwt>
<rscale>  0 0.73170716E+03</rscale>
<asrwt>0</asrwt>
<pdfrwt beam="1">  1        2 0.55162821E+00 0.73170716E+03</pdfrwt>
<pdfrwt beam="2">  1       -2 0.49519024E-02 0.73170716E+03</pdfrwt>
<totfact> 0.16051582E+02</totfact>
</mgrwt>
</event>
<event>
 4    1  0.2892809E-005  0.4953255E+03  0.7818608E-02  0.1015006E+00
         -2   -1    0    0    0  501 -0.00000000000E+00  0.00000000000E+00  0.65948785376E+02  0.65948785425E+02  0.25500000000E-02 0. -1.
          2   -1    0    0  501    0  0.00000000000E+00 -0.00000000000E+00 -0.93006769297E+03  0.93006769297E+03  0.25500000000E-02 0.  1.
    5000001    1    1    2    0    0 -0.44892502864E+01  0.11919478805E+03 -0.63559386488E+03  0.67458958777E+03  0.19200000000E+03 0.  0.
   -5000001    1    1    2    0    0  0.44892502864E+01 -0.11919478805E+03 -0.22852504272E+03  0.32142689062E+03  0.19200000000E+03 0.  0.
<mgrwt>
<rscale>  0 0.49532549E+03</rscale>
<asrwt>0</asrwt>
<pdfrwt beam="1">  1        2 0.13286681E+00 0.49532549E+03</pdfrwt>
<pdfrwt beam="2">  1       -2 0.94212556E-02 0.49532549E+03</pdfrwt>
<totfact> 0.23517574E+03</totfact>
</mgrwt>
</event>
<event>
 4    1  0.2892809E-005  0.4280376E+03  0.7818608E-02  0.1034482E+00
         -2   -1    0    0    0  501 -0.00000000000E+00  0.00000000000E+00  0.24243807225E+02  0.24243807359E+02  0.25500000000E-02 0. -1.
          2   -1    0    0  501    0  0.00000000000E+00 -0.00000000000E+00 -0.18893092779E+04  0.18893092779E+04  0.25500000000E-02 0.  1.
    5000001    1    1    2    0    0 -0.16851867737E+02 -0.91856032533E+02 -0.86644544001E+03  0.89236383648E+03  0.19200000000E+03 0.  0.
   -5000001    1    1    2    0    0  0.16851867737E+02  0.91856032533E+02 -0.99862003062E+03  0.10211892487E+04  0.19200000000E+03 0.  0.
<mgrwt>
<rscale>  0 0.42803762E+03</rscale>
<asrwt>0</asrwt>
<pdfrwt beam="1">  1        2 0.26990123E+00 0.42803762E+03</pdfrwt>
<pdfrwt beam="2">  1       -2 0.34634022E-02 0.42803762E+03</pdfrwt>
<totfact> 0.34083463E+03</totfact>
</mgrwt>
</event>
<event>
 4    1  0.2892809E-005  0.4645148E+03  0.7818608E-02  0.1023480E+00
         -2   -1    0    0    0  501 -0.00000000000E+00  0.00000000000E+00  0.69008076018E+02  0.69008076065E+02  0.25500000000E-02 0. -1.
          2   -1    0    0  501    0  0.00000000000E+00 -0.00000000000E+00 -0.78169820313E+03  0.78169820314E+03  0.25500000000E-02 0.  1.
    5000001    1    1    2    0    0  0.46264619784E+00 -0.10798605881E+03 -0.22153848287E+03  0.31241719276E+03  0.19200000000E+03 0.  0.
   -5000001    1    1    2    0    0 -0.46264619784E+00  0.10798605881E+03 -0.49115164424E+03  0.53828908644E+03  0.19200000000E+03 0.  0.
<mgrwt>
<rscale>  0 0.46451475E+03</rscale>
<asrwt>0</asrwt>
<pdfrwt beam="1">  1        2 0.11167117E+00 0.46451475E+03</pdfrwt>
<pdfrwt beam="2">  1       -2 0.98582971E-02 0.46451475E+03</pdfrwt>
<totfact> 0.27393904E+03</totfact>
</mgrwt>
</event>
<event>
 4    1  0.2892809E-005  0.6498836E+03  0.7818608E-02  0.9806998E-01
         -2   -1    0    0    0  501 -0.00000000000E+00  0.00000000000E+00  0.71212845134E+02  0.71212845179E+02  0.25500000000E-02 0. -1.
          2   -1    0    0  501    0  0.00000000000E+00 -0.00000000000E+00 -0.14826984349E+04  0.14826984349E+04  0.25500000000E-02 0.  1.
    5000001    1    1    2    0    0  0.28393765115E+02 -0.18966286568E+03 -0.27838478093E+03  0.38876766168E+03  0.19200000000E+03 0.  0.
   -5000001    1    1    2    0    0 -0.28393765115E+02  0.18966286568E+03 -0.11331008089E+04  0.11651436184E+04  0.19200000000E+03 0.  0.
<mgrwt>
<rscale>  0 0.64988360E+03</rscale>
<asrwt>0</asrwt>
<pdfrwt beam="1">  1        2 0.21181404E+00 0.64988360E+03</pdfrwt>
<pdfrwt beam="2">  1       -2 0.10173265E-01 0.64988360E+03</pdfrwt>
<totfact> 0.10096394E+03</totfact>
</mgrwt>
</event>
<event>
 4    1  0.2892809E-005  0.5980345E+03  0.7818608E-02  0.9909492E-01
         -2   -1    0    0    0  501 -0.00000000000E+00  0.00000000000E+00  0.45047748180E+02  0.45047748252E+02  0.25500000000E-02 0. -1.
          2   -1    0    0  501    0  0.00000000000E+00 -0.00000000000E+00 -0.19848122800E+04  0.19848122800E+04  0.25500000000E-02 0.  1.
    5000001    1    1    2    0    0  0.50335310411E+02 -0.13158511805E+03 -0.35610992252E+03  0.42840000430E+03  0.19200000000E+03 0.  0.
   -5000001    1    1    2    0    0 -0.50335310411E+02  0.13158511805E+03 -0.15836546093E+04  0.16014600239E+04  0.19200000000E+03 0.  0.
<mgrwt>
<rscale>  0 0.59803453E+03</rscale>
<asrwt>0</asrwt>
<pdfrwt beam="1">  1        2 0.28354456E+00 0.59803453E+03</pdfrwt>
<pdfrwt beam="2">  1       -2 0.64353939E-02 0.59803453E+03</pdfrwt>
<totfact> 0.11668190E+03</totfact>
</mgrwt>
</event>
<event>
 4    1  0.2892809E-005  0.6436999E+03  0.7818608E-02  0.9818673E-01
          2   -1    0    0  501    0  0.00000000000E+00  0.00000000000E+00  0.32359172933E+03  0.32359172934E+03  0.25500000000E-02 0.  1.
         -2   -1    0    0    0  501 -0.00000000000E+00 -0.00000000000E+00 -0.32011750297E+03  0.32011750298E+03  0.25500000000E-02 0. -1.
    5000001    1    1    2    0    0 -0.20817582118E+03  0.14946885182E+03  0.34068160824E+02  0.32202911324E+03  0.19200000000E+03 0.  0.
   -5000001    1    1    2    0    0  0.20817582118E+03 -0.14946885182E+03 -0.30593934468E+02  0.32168011909E+03  0.19200000000E+03 0.  0.
<mgrwt>
<rscale>  0 0.64369986E+03</rscale>
<asrwt>0</asrwt>
<pdfrwt beam="1">  1        2 0.46227390E-01 0.64369986E+03</pdfrwt>
<pdfrwt beam="2">  1       -2 0.45731072E-01 0.64369986E+03</pdfrwt>
<totfact> 0.50075387E+02</totfact>
</mgrwt>
</event>
<event>
 4    1  0.2892809E-005  0.6650588E+03  0.7818608E-02  0.9778926E-01
         -2   -1    0    0    0  501 -0.00000000000E+00  0.00000000000E+00  0.94872703481E+02  0.94872703516E+02  0.25500000000E-02 0. -1.
          2   -1    0    0  501    0  0.00000000000E+00 -0.00000000000E+00 -0.11655175690E+04  0.11655175690E+04  0.25500000000E-02 0.  1.
    5000001    1    1    2    0    0 -0.13535899227E+03 -0.21581341793E+03 -0.71324837332E+03  0.78133522268E+03  0.19200000000E+03 0.  0.
   -5000001    1    1    2    0    0  0.13535899227E+03  0.21581341793E+03 -0.35739649221E+03  0.47905504985E+03  0.19200000000E+03 0.  0.
<mgrwt>
<rscale>  0 0.66505880E+03</rscale>
<asrwt>0</asrwt>
<pdfrwt beam="1">  1        2 0.16650250E+00 0.66505880E+03</pdfrwt>
<pdfrwt beam="2">  1       -2 0.13553244E-01 0.66505880E+03</pdfrwt>
<totfact> 0.93594654E+02</totfact>
</mgrwt>
</event>
<event>
 4    1  0.2892809E-005  0.1151491E+04  0.7818608E-02  0.9156409E-01
          2   -1    0    0  501    0  0.00000000000E+00  0.00000000000E+00  0.51857269684E+03  0.51857269684E+03  0.25500000000E-02 0.  1.
         -2   -1    0    0    0  501 -0.00000000000E+00 -0.00000000000E+00 -0.63922197255E+03  0.63922197256E+03  0.25500000000E-02 0. -1.
    5000001    1    1    2    0    0 -0.16746779326E+03  0.43250027165E+03  0.22320677862E+03  0.54935162945E+03  0.19200000000E+03 0.  0.
   -5000001    1    1    2    0    0  0.16746779326E+03 -0.43250027165E+03 -0.34385605434E+03  0.60844303995E+03  0.19200000000E+03 0.  0.
<mgrwt>
<rscale>  0 0.11514913E+04</rscale>
<asrwt>0</asrwt>
<pdfrwt beam="1">  1        2 0.74081814E-01 0.11514913E+04</pdfrwt>
<pdfrwt beam="2">  1       -2 0.91317424E-01 0.11514913E+04</pdfrwt>
<totfact> 0.65193136E+01</totfact>
</mgrwt>
</event>
<event>
 4    1  0.2892809E-005  0.6021912E+03  0.7818608E-02  0.9900870E-01
         -2   -1    0    0    0  501 -0.00000000000E+00  0.00000000000E+00  0.15707691130E+03  0.15707691132E+03  0.25500000000E-02 0. -1.
          2   -1    0    0  501    0  0.00000000000E+00 -0.00000000000E+00 -0.57716031624E+03  0.57716031624E+03  0.25500000000E-02 0.  1.
    5000001    1    1    2    0    0 -0.23093242784E+03 -0.17501337912E+02 -0.22539086844E+03  0.37590042116E+03  0.19200000000E+03 0.  0.
   -5000001    1    1    2    0    0  0.23093242784E+03  0.17501337912E+02 -0.19469253649E+03  0.35833680640E+03  0.19200000000E+03 0.  0.
<mgrwt>
<rscale>  0 0.60219120E+03</rscale>
<asrwt>0</asrwt>
<pdfrwt beam="1">  1        2 0.82451472E-01 0.60219120E+03</pdfrwt>
<pdfrwt beam="2">  1       -2 0.22439559E-01 0.60219120E+03</pdfrwt>
<totfact> 0.99098289E+02</totfact>
</mgrwt>
</event>
<event>
 4    1  0.2892809E-005  0.4320435E+03  0.7818608E-02  0.1033216E+00
          2   -1    0    0  501    0  0.00000000000E+00  0.00000000000E+00  0.17010690314E+03  0.17010690316E+03  0.25500000000E-02 0.  1.
         -2   -1    0    0    0  501 -0.00000000000E+00 -0.00000000000E+00 -0.27432987720E+03  0.27432987721E+03  0.25500000000E-02 0. -1.
    5000001    1    1    2    0    0 -0.95642550692E+02  0.24169668696E+02 -0.60701806963E+02  0.22423286948E+03  0.19200000000E+03 0.  0.
   -5000001    1    1    2    0    0  0.95642550692E+02 -0.24169668696E+02 -0.43521167096E+02  0.22020391089E+03  0.19200000000E+03 0.  0.
<mgrwt>
<rscale>  0 0.43204354E+03</rscale>
<asrwt>0</asrwt>
<pdfrwt beam="1">  1        2 0.24300986E-01 0.43204354E+03</pdfrwt>
<pdfrwt beam="2">  1       -2 0.39189983E-01 0.43204354E+03</pdfrwt>
<totfact> 0.13882120E+03</totfact>
</mgrwt>
</event>
<event>
 4    1  0.2892809E-005  0.6162530E+03  0.7818608E-02  0.9872248E-01
         -2   -1    0    0    0  501 -0.00000000000E+00  0.00000000000E+00  0.29027367117E+03  0.29027367118E+03  0.25500000000E-02 0. -1.
          2   -1    0    0  501    0  0.00000000000E+00 -0.00000000000E+00 -0.32707732594E+03  0.32707732595E+03  0.25500000000E-02 0.  1.
    5000001    1    1    2    0    0 -0.14598575477E+03 -0.15931364421E+03 -0.12529366935E+03  0.31504790335E+03  0.19200000000E+03 0.  0.
   -5000001    1    1    2    0    0  0.14598575477E+03  0.15931364421E+03  0.88490014579E+02  0.30230309378E+03  0.19200000000E+03 0.  0.
<mgrwt>
<rscale>  0 0.61625299E+03</rscale>
<asrwt>0</asrwt>
<pdfrwt beam="1">  1        2 0.46725332E-01 0.61625299E+03</pdfrwt>
<pdfrwt beam="2">  1       -2 0.41467667E-01 0.61625299E+03</pdfrwt>
<totfact> 0.60062772E+02</totfact>
</mgrwt>
</event>
<event>
 4    1  0.2892809E-005  0.4683954E+03  0.7818608E-02  0.1022374E+00
         -2   -1    0    0    0  501 -0.00000000000E+00  0.00000000000E+00  0.12696290395E+03  0.12696290397E+03  0.25500000000E-02 0. -1.
          2   -1    0    0  501    0  0.00000000000E+00 -0.00000000000E+00 -0.43200457365E+03  0.43200457366E+03  0.25500000000E-02 0.  1.
    5000001    1    1    2    0    0 -0.73526472730E+02 -0.26850684506E+02 -0.28246885528E+03  0.35039942302E+03  0.19200000000E+03 0.  0.
   -5000001    1    1    2    0    0  0.73526472730E+02  0.26850684506E+02 -0.22572814419E+02  0.20856805460E+03  0.19200000000E+03 0.  0.
<mgrwt>
<rscale>  0 0.46839537E+03</rscale>
<asrwt>0</asrwt>
<pdfrwt beam="1">  1        2 0.61714938E-01 0.46839537E+03</pdfrwt>
<pdfrwt beam="2">  1       -2 0.18137558E-01 0.46839537E+03</pdfrwt>
<totfact> 0.19934426E+03</totfact>
</mgrwt>
</event>
<event>
 4    1  0.2892809E-005  0.4632111E+03  0.7818608E-02  0.1023854E+00
         -2   -1    0    0    0  501 -0.00000000000E+00  0.00000000000E+00  0.45345059714E+02  0.45345059786E+02  0.25500000000E-02 0. -1.
          2   -1    0    0  501    0  0.00000000000E+00 -0.00000000000E+00 -0.11829543593E+04  0.11829543593E+04  0.25500000000E-02 0.  1.
    5000001    1    1    2    0    0  0.28606668327E+01  0.12057433295E+03 -0.69404778280E+03  0.73014565532E+03  0.19200000000E+03 0.  0.
   -5000001    1    1    2    0    0 -0.28606668327E+01 -0.12057433295E+03 -0.44356151683E+03  0.49815376381E+03  0.19200000000E+03 0.  0.
<mgrwt>
<rscale>  0 0.46321112E+03</rscale>
<asrwt>0</asrwt>
<pdfrwt beam="1">  1        2 0.16899346E+00 0.46321112E+03</pdfrwt>
<pdfrwt beam="2">  1       -2 0.64778664E-02 0.46321112E+03</pdfrwt>
<totfact> 0.30188196E+03</totfact>
</mgrwt>
</event>
<event>
 4    1  0.2892809E-005  0.6268121E+03  0.7818608E-02  0.9851290E-01
          2   -1    0    0  501    0  0.00000000000E+00  0.00000000000E+00  0.43738739588E+03  0.43738739589E+03  0.25500000000E-02 0.  1.
         -2   -1    0    0    0  501 -0.00000000000E+00 -0.00000000000E+00 -0.22456834204E+03  0.22456834205E+03  0.25500000000E-02 0. -1.
    5000001    1    1    2    0    0 -0.18204616677E+03 -0.11517548088E+03  0.23554873141E+03  0.37249617864E+03  0.19200000000E+03 0.  0.
   -5000001    1    1    2    0    0  0.18204616677E+03  0.11517548088E+03 -0.22729677563E+02  0.28945955931E+03  0.19200000000E+03 0.  0.
<mgrwt>
<rscale>  0 0.62681213E+03</rscale>
<asrwt>0</asrwt>
<pdfrwt beam="1">  1        2 0.62483914E-01 0.62681213E+03</pdfrwt>
<pdfrwt beam="2">  1       -2 0.32081192E-01 0.62681213E+03</pdfrwt>
<totfact> 0.71009902E+02</totfact>
</mgrwt>
</event>
<event>
 4    1  0.2892809E-005  0.5383170E+03  0.7818608E-02  0.1004235E+00
          2   -1    0    0  501    0  0.00000000000E+00  0.00000000000E+00  0.14855139416E+04  0.14855139416E+04  0.25500000000E-02 0.  1.
         -2   -1    0    0    0  501 -0.00000000000E+00 -0.00000000000E+00 -0.48768510270E+02  0.48768510336E+02  0.25500000000E-02 0. -1.
    5000001    1    1    2    0    0 -0.93923731718E+02 -0.10244459837E+03  0.35487297187E+03  0.42674979705E+03  0.19200000000E+03 0.  0.
   -5000001    1    1    2    0    0  0.93923731718E+02  0.10244459837E+03  0.10818724594E+04  0.11075326549E+04  0.19200000000E+03 0.  0.
<mgrwt>
<rscale>  0 0.53831701E+03</rscale>
<asrwt>0</asrwt>
<pdfrwt beam="1">  1        2 0.21221625E+00 0.53831701E+03</pdfrwt>
<pdfrwt beam="2">  1       -2 0.69669310E-02 0.53831701E+03</pdfrwt>
<totfact> 0.18509456E+03</totfact>
</mgrwt>
</event>
<event>
 4    1  0.2892809E-005  0.7720252E+03  0.7818608E-02  0.9601416E-01
         -2   -1    0    0    0  501 -0.00000000000E+00  0.00000000000E+00  0.91766704102E+02  0.91766704138E+02  0.25500000000E-02 0. -1.
          2   -1    0    0  501    0  0.00000000000E+00 -0.00000000000E+00 -0.16237448219E+04  0.16237448219E+04  0.25500000000E-02 0.  1.
    5000001    1    1    2    0    0 -0.16606371849E+03 -0.28550055618E+03 -0.64318984130E+03  0.74809417732E+03  0.19200000000E+03 0.  0.
   -5000001    1    1    2    0    0  0.16606371849E+03  0.28550055618E+03 -0.88878827647E+03  0.96741734870E+03  0.19200000000E+03 0.  0.
<mgrwt>
<rscale>  0 0.77202516E+03</rscale>
<asrwt>0</asrwt>
<pdfrwt beam="1">  1        2 0.23196353E+00 0.77202516E+03</pdfrwt>
<pdfrwt beam="2">  1       -2 0.13109530E-01 0.77202516E+03</pdfrwt>
<totfact> 0.55842793E+02</totfact>
</mgrwt>
</event>
<event>
 4    1  0.2892809E-005  0.6310741E+03  0.7818608E-02  0.9842955E-01
          2   -1    0    0  501    0  0.00000000000E+00  0.00000000000E+00  0.31177494104E+04  0.31177494104E+04  0.25500000000E-02 0.  1.
         -2   -1    0    0    0  501 -0.00000000000E+00 -0.00000000000E+00 -0.31934456965E+02  0.31934457067E+02  0.25500000000E-02 0. -1.
    5000001    1    1    2    0    0 -0.39596144093E+02 -0.24647908693E+03  0.16401792266E+04  0.16701412186E+04  0.19200000000E+03 0.  0.
   -5000001    1    1    2    0    0  0.39596144093E+02  0.24647908693E+03  0.14456357269E+04  0.14795426488E+04  0.19200000000E+03 0.  0.
<mgrwt>
<rscale>  0 0.63107411E+03</rscale>
<asrwt>0</asrwt>
<pdfrwt beam="1">  1        2 0.44539294E+00 0.63107411E+03</pdfrwt>
<pdfrwt beam="2">  1       -2 0.45620636E-02 0.63107411E+03</pdfrwt>
<totfact> 0.51246693E+02</totfact>
</mgrwt>
</event>
<event>
 4    1  0.2892809E-005  0.5918955E+03  0.7818608E-02  0.9922365E-01
         -2   -1    0    0    0  501 -0.00000000000E+00  0.00000000000E+00  0.14802862233E+03  0.14802862236E+03  0.25500000000E-02 0. -1.
          2   -1    0    0  501    0  0.00000000000E+00 -0.00000000000E+00 -0.59167650473E+03  0.59167650474E+03  0.25500000000E-02 0.  1.
    5000001    1    1    2    0    0 -0.84190436948E+02 -0.29804581138E+02  0.36553644737E+02  0.21488720686E+03  0.19200000000E+03 0.  0.
   -5000001    1    1    2    0    0  0.84190436948E+02  0.29804581138E+02 -0.48020152713E+03  0.52481792023E+03  0.19200000000E+03 0.  0.
<mgrwt>
<rscale>  0 0.59189546E+03</rscale>
<asrwt>0</asrwt>
<pdfrwt beam="1">  1        2 0.84525213E-01 0.59189546E+03</pdfrwt>
<pdfrwt beam="2">  1       -2 0.21146946E-01 0.59189546E+03</pdfrwt>
<totfact> 0.10687651E+03</totfact>
</mgrwt>
</event>
<event>
 4    1  0.2892809E-005  0.6824585E+03  0.7818608E-02  0.9747710E-01
         -2   -1    0    0    0  501 -0.00000000000E+00  0.00000000000E+00  0.91046345816E+03  0.91046345816E+03  0.25500000000E-02 0.  1.
          2   -1    0    0  501    0  0.00000000000E+00 -0.00000000000E+00 -0.12788805491E+03  0.12788805493E+03  0.25500000000E-02 0. -1.
    5000001    1    1    2    0    0  0.17675549637E+03  0.20924560462E+03  0.49388569190E+03  0.59650088450E+03  0.19200000000E+03 0.  0.
   -5000001    1    1    2    0    0 -0.17675549637E+03 -0.20924560462E+03  0.28868971135E+03  0.44185062859E+03  0.19200000000E+03 0.  0.
<mgrwt>
<rscale>  0 0.68245850E+03</rscale>
<asrwt>0</asrwt>
<pdfrwt beam="1">  1        2 0.18269722E-01 0.68245850E+03</pdfrwt>
<pdfrwt beam="2">  1       -2 0.13006621E+00 0.68245850E+03</pdfrwt>
<totfact> 0.13884448E+02</totfact>
</mgrwt>
</event>
<event>
 4    1  0.2892809E-005  0.4593091E+03  0.7818608E-02  0.1024982E+00
          2   -1    0    0  501    0  0.00000000000E+00  0.00000000000E+00  0.56074879040E+03  0.56074879041E+03  0.25500000000E-02 0.  1.
         -2   -1    0    0    0  501 -0.00000000000E+00 -0.00000000000E+00 -0.94054972846E+02  0.94054972881E+02  0.25500000000E-02 0. -1.
    5000001    1    1    2    0    0 -0.12462443592E+03  0.18582013740E+02  0.23217910732E+03  0.32656956248E+03  0.19200000000E+03 0.  0.
   -5000001    1    1    2    0    0  0.12462443592E+03 -0.18582013740E+02  0.23451471024E+03  0.32823420081E+03  0.19200000000E+03 0.  0.
<mgrwt>
<rscale>  0 0.45930910E+03</rscale>
<asrwt>0</asrwt>
<pdfrwt beam="1">  1        2 0.80106969E-01 0.45930910E+03</pdfrwt>
<pdfrwt beam="2">  1       -2 0.13436425E-01 0.45930910E+03</pdfrwt>
<totfact> 0.24600782E+03</totfact>
</mgrwt>
</event>
<event>
 4    1  0.2892809E-005  0.7524011E+03  0.7818608E-02  0.9631591E-01
          2   -1    0    0  501    0  0.00000000000E+00  0.00000000000E+00  0.16376584532E+03  0.16376584534E+03  0.25500000000E-02 0.  1.
         -2   -1    0    0    0  501 -0.00000000000E+00 -0.00000000000E+00 -0.86420250804E+03  0.86420250805E+03  0.25500000000E-02 0. -1.
    5000001    1    1    2    0    0  0.31396527548E+03  0.41891097400E+02 -0.44016074866E+03  0.57526910478E+03  0.19200000000E+03 0.  0.
   -5000001    1    1    2    0    0 -0.31396527548E+03 -0.41891097400E+02 -0.26027591407E+03  0.45269924861E+03  0.19200000000E+03 0.  0.
<mgrwt>
<rscale>  0 0.75240110E+03</rscale>
<asrwt>0</asrwt>
<pdfrwt beam="1">  1        2 0.23395121E-01 0.75240110E+03</pdfrwt>
<pdfrwt beam="2">  1       -2 0.12345750E+00 0.75240110E+03</pdfrwt>
<totfact> 0.11813176E+02</totfact>
</mgrwt>
</event>
<event>
 4    1  0.2892809E-005  0.6229922E+03  0.7818608E-02  0.9858820E-01
          2   -1    0    0  501    0  0.00000000000E+00  0.00000000000E+00  0.71904982732E+02  0.71904982777E+02  0.25500000000E-02 0.  1.
         -2   -1    0    0    0  501 -0.00000000000E+00 -0.00000000000E+00 -0.13494173859E+04  0.13494173859E+04  0.25500000000E-02 0. -1.
    5000001    1    1    2    0    0  0.14141697907E+03  0.14959465412E+03 -0.94304064818E+03  0.98415800897E+03  0.19200000000E+03 0.  0.
   -5000001    1    1    2    0    0 -0.14141697907E+03 -0.14959465412E+03 -0.33447175497E+03  0.43716435969E+03  0.19200000000E+03 0.  0.
<mgrwt>
<rscale>  0 0.62299224E+03</rscale>
<asrwt>0</asrwt>
<pdfrwt beam="1">  1        2 0.10272141E-01 0.62299224E+03</pdfrwt>
<pdfrwt beam="2">  1       -2 0.19277390E+00 0.62299224E+03</pdfrwt>
<totfact> 0.97580449E+01</totfact>
</mgrwt>
</event>
<event>
 4    1  0.2892809E-005  0.4572549E+03  0.7818608E-02  0.1025580E+00
          2   -1    0    0  501    0  0.00000000000E+00  0.00000000000E+00  0.10005152113E+03  0.10005152116E+03  0.25500000000E-02 0.  1.
         -2   -1    0    0    0  501 -0.00000000000E+00 -0.00000000000E+00 -0.52243590739E+03  0.52243590739E+03  0.25500000000E-02 0. -1.
    5000001    1    1    2    0    0 -0.57782592789E+02  0.10713649583E+03 -0.17814033419E+03  0.28881661212E+03  0.19200000000E+03 0.  0.
   -5000001    1    1    2    0    0  0.57782592789E+02 -0.10713649583E+03 -0.24424405207E+03  0.33367081643E+03  0.19200000000E+03 0.  0.
<mgrwt>
<rscale>  0 0.45725488E+03</rscale>
<asrwt>0</asrwt>
<pdfrwt beam="1">  1        2 0.14293075E-01 0.45725488E+03</pdfrwt>
<pdfrwt beam="2">  1       -2 0.74633700E-01 0.45725488E+03</pdfrwt>
<totfact> 0.69048578E+02</totfact>
</mgrwt>
</event>
<event>
 4    1  0.2892809E-005  0.5245474E+03  0.7818608E-02  0.1007563E+00
          2   -1    0    0  501    0  0.00000000000E+00  0.00000000000E+00  0.79604066295E+03  0.79604066295E+03  0.25500000000E-02 0.  1.
         -2   -1    0    0    0  501 -0.00000000000E+00 -0.00000000000E+00 -0.86412029679E+02  0.86412029716E+02  0.25500000000E-02 0. -1.
    5000001    1    1    2    0    0 -0.11864232897E+03 -0.10501219910E+03  0.49374446965E+03  0.55294770593E+03  0.19200000000E+03 0.  0.
   -5000001    1    1    2    0    0  0.11864232897E+03  0.10501219910E+03  0.21588416362E+03  0.32950498674E+03  0.19200000000E+03 0.  0.
<mgrwt>
<rscale>  0 0.52454738E+03</rscale>
<asrwt>0</asrwt>
<pdfrwt beam="1">  1        2 0.11372009E+00 0.52454738E+03</pdfrwt>
<pdfrwt beam="2">  1       -2 0.12344576E-01 0.52454738E+03</pdfrwt>
<totfact> 0.18574318E+03</totfact>
</mgrwt>
</event>
<event>
 4    1  0.2892809E-005  0.2395096E+04  0.7818608E-02  0.8441342E-01
         -2   -1    0    0    0  501 -0.00000000000E+00  0.00000000000E+00  0.79140762417E+03  0.79140762417E+03  0.25500000000E-02 0. -1.
          2   -1    0    0  501    0  0.00000000000E+00 -0.00000000000E+00 -0.18121150303E+04  0.18121150303E+04  0.25500000000E-02 0.  1.
    5000001    1    1    2    0    0  0.11403386993E+04 -0.30998734778E+03 -0.54096734007E+03  0.13137633607E+04  0.19200000000E+03 0.  0.
   -5000001    1    1    2    0    0 -0.11403386993E+04  0.30998734778E+03 -0.47974006610E+03  0.12897592938E+04  0.19200000000E+03 0.  0.
<mgrwt>
<rscale>  0 0.23950964E+04</rscale>
<asrwt>0</asrwt>
<pdfrwt beam="1">  1        2 0.25887357E+00 0.23950964E+04</pdfrwt>
<pdfrwt beam="2">  1       -2 0.11305823E+00 0.23950964E+04</pdfrwt>
<totfact> 0.55786799E+00</totfact>
</mgrwt>
</event>
<event>
 4    1  0.2892809E-005  0.3987235E+03  0.7818608E-02  0.1044223E+00
          2   -1    0    0  501    0  0.00000000000E+00  0.00000000000E+00  0.19669749039E+04  0.19669749039E+04  0.25500000000E-02 0.  1.
         -2   -1    0    0    0  501 -0.00000000000E+00 -0.00000000000E+00 -0.20206212486E+02  0.20206212647E+02  0.25500000000E-02 0. -1.
    5000001    1    1    2    0    0  0.43038691177E+02  0.13983288789E+02  0.11172488646E+04  0.11345293680E+04  0.19200000000E+03 0.  0.
   -5000001    1    1    2    0    0 -0.43038691177E+02 -0.13983288789E+02  0.82951982684E+03  0.85265174862E+03  0.19200000000E+03 0.  0.
<mgrwt>
<rscale>  0 0.39872353E+03</rscale>
<asrwt>0</asrwt>
<pdfrwt beam="1">  1        2 0.28099612E+00 0.39872353E+03</pdfrwt>
<pdfrwt beam="2">  1       -2 0.28866048E-02 0.39872353E+03</pdfrwt>
<totfact> 0.41081346E+03</totfact>
</mgrwt>
</event>
<event>
 4    1  0.2892809E-005  0.1054465E+04  0.7818608E-02  0.9250746E-01
         -2   -1    0    0    0  501 -0.00000000000E+00  0.00000000000E+00  0.10842126966E+04  0.10842126966E+04  0.25500000000E-02 0. -1.
          2   -1    0    0  501    0  0.00000000000E+00 -0.00000000000E+00 -0.25638343584E+03  0.25638343586E+03  0.25500000000E-02 0.  1.
    5000001    1    1    2    0    0 -0.21111416526E+03  0.35692316666E+03  0.74822658379E+03  0.87673847775E+03  0.19200000000E+03 0.  0.
   -5000001    1    1    2    0    0  0.21111416526E+03 -0.35692316666E+03  0.79602676989E+02  0.46385765473E+03  0.19200000000E+03 0.  0.
<mgrwt>
<rscale>  0 0.10544651E+04</rscale>
<asrwt>0</asrwt>
<pdfrwt beam="1">  1        2 0.36626205E-01 0.10544651E+04</pdfrwt>
<pdfrwt beam="2">  1       -2 0.15488753E+00 0.10544651E+04</pdfrwt>
<totfact> 0.38915685E+01</totfact>
</mgrwt>
</event>
<event>
 4    1  0.2892809E-005  0.5293466E+03  0.7818608E-02  0.1006391E+00
         -2   -1    0    0    0  501 -0.00000000000E+00  0.00000000000E+00  0.12786850770E+03  0.12786850773E+03  0.25500000000E-02 0. -1.
          2   -1    0    0  501    0  0.00000000000E+00 -0.00000000000E+00 -0.54784372215E+03  0.54784372215E+03  0.25500000000E-02 0.  1.
    5000001    1    1    2    0    0 -0.71415522289E+02 -0.13917035756E+03 -0.90790753770E+02  0.26377173127E+03  0.19200000000E+03 0.  0.
   -5000001    1    1    2    0    0  0.71415522289E+02  0.13917035756E+03 -0.32918446067E+03  0.41194049861E+03  0.19200000000E+03 0.  0.
<mgrwt>
<rscale>  0 0.52934661E+03</rscale>
<asrwt>0</asrwt>
<pdfrwt beam="1">  1        2 0.78263388E-01 0.52934661E+03</pdfrwt>
<pdfrwt beam="2">  1       -2 0.18266930E-01 0.52934661E+03</pdfrwt>
<totfact> 0.15072584E+03</totfact>
</mgrwt>
</event>
<event>
 4    1  0.2892809E-005  0.8450706E+03  0.7818608E-02  0.9496977E-01
          2   -1    0    0  501    0  0.00000000000E+00  0.00000000000E+00  0.91931989697E+03  0.91931989697E+03  0.25500000000E-02 0.  1.
         -2   -1    0    0    0  501 -0.00000000000E+00 -0.00000000000E+00 -0.19420453142E+03  0.19420453144E+03  0.25500000000E-02 0. -1.
    5000001    1    1    2    0    0 -0.34710962787E+03  0.30752940344E+02  0.55002494527E+03  0.67883891868E+03  0.19200000000E+03 0.  0.
   -5000001    1    1    2    0    0  0.34710962787E+03 -0.30752940344E+02  0.17509042027E+03  0.43468550973E+03  0.19200000000E+03 0.  0.
<mgrwt>
<rscale>  0 0.84507062E+03</rscale>
<asrwt>0</asrwt>
<pdfrwt beam="1">  1        2 0.13133141E+00 0.84507062E+03</pdfrwt>
<pdfrwt beam="2">  1       -2 0.27743504E-01 0.84507062E+03</pdfrwt>
<totfact> 0.37488379E+02</totfact>
</mgrwt>
</event>
<event>
 4    1  0.2892809E-005  0.6391206E+03  0.7818608E-02  0.9827410E-01
         -2   -1    0    0    0  501 -0.00000000000E+00  0.00000000000E+00  0.15317087301E+03  0.15317087303E+03  0.25500000000E-02 0.  1.
          2   -1    0    0  501    0  0.00000000000E+00 -0.00000000000E+00 -0.66669850428E+03  0.66669850428E+03  0.25500000000E-02 0. -1.
    5000001    1    1    2    0    0  0.17419984528E+03 -0.16729212436E+03 -0.15003174946E+03  0.34308274048E+03  0.19200000000E+03 0.  0.
   -5000001    1    1    2    0    0 -0.17419984528E+03  0.16729212436E+03 -0.36349588181E+03  0.47678663683E+03  0.19200000000E+03 0.  0.
<mgrwt>
<rscale>  0 0.63912062E+03</rscale>
<asrwt>0</asrwt>
<pdfrwt beam="1">  1        2 0.95242642E-01 0.63912062E+03</pdfrwt>
<pdfrwt beam="2">  1       -2 0.21881554E-01 0.63912062E+03</pdfrwt>
<totfact> 0.87245923E+02</totfact>
</mgrwt>
</event>
<event>
 4    1  0.2892809E-005  0.8835417E+03  0.7818608E-02  0.9446392E-01
          2   -1    0    0  501    0  0.00000000000E+00  0.00000000000E+00  0.23885209140E+04  0.23885209140E+04  0.25500000000E-02 0.  1.
         -2   -1    0    0    0  501 -0.00000000000E+00 -0.00000000000E+00 -0.81708098630E+02  0.81708098670E+02  0.25500000000E-02 0. -1.
    5000001    1    1    2    0    0  0.27644251544E+03 -0.26536405830E+03  0.85412299521E+03  0.95562996957E+03  0.19200000000E+03 0.  0.
   -5000001    1    1    2    0    0 -0.27644251544E+03  0.26536405830E+03  0.14526898201E+04  0.15145990431E+04  0.19200000000E+03 0.  0.
<mgrwt>
<rscale>  0 0.88354174E+03</rscale>
<asrwt>0</asrwt>
<pdfrwt beam="1">  1        2 0.34121726E+00 0.88354174E+03</pdfrwt>
<pdfrwt beam="2">  1       -2 0.11672586E-01 0.88354174E+03</pdfrwt>
<totfact> 0.27372339E+02</totfact>
</mgrwt>
</event>
<event>
 4    1  0.2892809E-005  0.7592564E+03  0.7818608E-02  0.9620939E-01
          2   -1    0    0  501    0  0.00000000000E+00  0.00000000000E+00  0.54877850636E+03  0.54877850637E+03  0.25500000000E-02 0.  1.
         -2   -1    0    0    0  501 -0.00000000000E+00 -0.00000000000E+00 -0.26261516201E+03  0.26261516202E+03  0.25500000000E-02 0. -1.
    5000001    1    1    2    0    0 -0.27588523546E+03  0.94858356947E+02  0.30210443657E+03  0.46178118370E+03  0.19200000000E+03 0.  0.
   -5000001    1    1    2    0    0  0.27588523546E+03 -0.94858356947E+02 -0.15941092223E+02  0.34961248469E+03  0.19200000000E+03 0.  0.
<mgrwt>
<rscale>  0 0.75925636E+03</rscale>
<asrwt>0</asrwt>
<pdfrwt beam="1">  1        2 0.78396930E-01 0.75925636E+03</pdfrwt>
<pdfrwt beam="2">  1       -2 0.37516452E-01 0.75925636E+03</pdfrwt>
<totfact> 0.40606834E+02</totfact>
</mgrwt>
</event>
<event>
 4    1  0.2892809E-005  0.4460291E+03  0.7818608E-02  0.1028913E+00
         -2   -1    0    0    0  501 -0.00000000000E+00  0.00000000000E+00  0.22351771932E+02  0.22351772077E+02  0.25500000000E-02 0. -1.
          2   -1    0    0  501    0  0.00000000000E+00 -0.00000000000E+00 -0.22251254101E+04  0.22251254101E+04  0.25500000000E-02 0.  1.
    5000001    1    1    2    0    0  0.75194663739E+02  0.84902122658E+02 -0.10863646297E+04  0.11090152012E+04  0.19200000000E+03 0.  0.
   -5000001    1    1    2    0    0 -0.75194663739E+02 -0.84902122658E+02 -0.11164090085E+04  0.11384619810E+04  0.19200000000E+03 0.  0.
<mgrwt>
<rscale>  0 0.44602913E+03</rscale>
<asrwt>0</asrwt>
<pdfrwt beam="1">  1        2 0.31787492E+00 0.44602913E+03</pdfrwt>
<pdfrwt beam="2">  1       -2 0.31931117E-02 0.44602913E+03</pdfrwt>
<totfact> 0.26231697E+03</totfact>
</mgrwt>
</event>
<event>
 4    1  0.2892809E-005  0.5412828E+03  0.7818608E-02  0.1003532E+00
          2   -1    0    0  501    0  0.00000000000E+00  0.00000000000E+00  0.13238963599E+04  0.13238963599E+04  0.25500000000E-02 0.  1.
         -2   -1    0    0    0  501 -0.00000000000E+00 -0.00000000000E+00 -0.55326671115E+02  0.55326671174E+02  0.25500000000E-02 0. -1.
    5000001    1    1    2    0    0  0.11044599107E+03  0.80881472053E+02  0.29583669913E+03  0.37831664253E+03  0.19200000000E+03 0.  0.
   -5000001    1    1    2    0    0 -0.11044599107E+03 -0.80881472053E+02  0.97273298967E+03  0.10009063886E+04  0.19200000000E+03 0.  0.
<mgrwt>
<rscale>  0 0.54128284E+03</rscale>
<asrwt>0</asrwt>
<pdfrwt beam="1">  1        2 0.18912805E+00 0.54128284E+03</pdfrwt>
<pdfrwt beam="2">  1       -2 0.79038103E-02 0.54128284E+03</pdfrwt>
<totfact> 0.18455155E+03</totfact>
</mgrwt>
</event>
<event>
 4    1  0.2892809E-005  0.5072200E+03  0.7818608E-02  0.1011911E+00
         -2   -1    0    0    0  501 -0.00000000000E+00  0.00000000000E+00  0.24723797546E+03  0.24723797547E+03  0.25500000000E-02 0. -1.
          2   -1    0    0  501    0  0.00000000000E+00 -0.00000000000E+00 -0.26014625038E+03  0.26014625039E+03  0.25500000000E-02 0.  1.
    5000001    1    1    2    0    0  0.14854415015E+03  0.69811111214E+02 -0.29156782053E+02  0.25426968701E+03  0.19200000000E+03 0.  0.
   -5000001    1    1    2    0    0 -0.14854415015E+03 -0.69811111214E+02  0.16248507129E+02  0.25311453885E+03  0.19200000000E+03 0.  0.
<mgrwt>
<rscale>  0 0.50722000E+03</rscale>
<asrwt>0</asrwt>
<pdfrwt beam="1">  1        2 0.37163750E-01 0.50722000E+03</pdfrwt>
<pdfrwt beam="2">  1       -2 0.35319711E-01 0.50722000E+03</pdfrwt>
<totfact> 0.10536179E+03</totfact>
</mgrwt>
</event>
<event>
 4    1  0.2892809E-005  0.4777220E+03  0.7818608E-02  0.1019763E+00
          2   -1    0    0  501    0  0.00000000000E+00  0.00000000000E+00  0.15985817860E+04  0.15985817860E+04  0.25500000000E-02 0.  1.
         -2   -1    0    0    0  501 -0.00000000000E+00 -0.00000000000E+00 -0.35690748985E+02  0.35690749076E+02  0.25500000000E-02 0. -1.
    5000001    1    1    2    0    0 -0.69915007522E+01  0.11940660535E+03  0.51903767936E+03  0.56618983661E+03  0.19200000000E+03 0.  0.
   -5000001    1    1    2    0    0  0.69915007522E+01 -0.11940660535E+03  0.10438533577E+04  0.10680826985E+04  0.19200000000E+03 0.  0.
<mgrwt>
<rscale>  0 0.47772202E+03</rscale>
<asrwt>0</asrwt>
<pdfrwt beam="1">  1        2 0.22836884E+00 0.47772202E+03</pdfrwt>
<pdfrwt beam="2">  1       -2 0.50986781E-02 0.47772202E+03</pdfrwt>
<totfact> 0.26379357E+03</totfact>
</mgrwt>
</event>
<event>
 4    1  0.2892809E-005  0.5021154E+03  0.7818608E-02  0.1013228E+00
          2   -1    0    0  501    0  0.00000000000E+00  0.00000000000E+00  0.15894326055E+04  0.15894326055E+04  0.25500000000E-02 0.  1.
         -2   -1    0    0    0  501 -0.00000000000E+00 -0.00000000000E+00 -0.39655644608E+02  0.39655644690E+02  0.25500000000E-02 0. -1.
    5000001    1    1    2    0    0 -0.12119291029E+03 -0.10680796214E+03  0.74768297713E+03  0.78866310714E+03  0.19200000000E+03 0.  0.
   -5000001    1    1    2    0    0  0.12119291029E+03  0.10680796214E+03  0.80209398380E+03  0.84042514309E+03  0.19200000000E+03 0.  0.
<mgrwt>
<rscale>  0 0.50211542E+03</rscale>
<asrwt>0</asrwt>
<pdfrwt beam="1">  1        2 0.22706180E+00 0.50211542E+03</pdfrwt>
<pdfrwt beam="2">  1       -2 0.56650920E-02 0.50211542E+03</pdfrwt>
<totfact> 0.22636778E+03</totfact>
</mgrwt>
</event>
<event>
 4    1  0.2892809E-005  0.4862419E+03  0.7818608E-02  0.1017434E+00
          2   -1    0    0  501    0  0.00000000000E+00  0.00000000000E+00  0.56481309542E+03  0.56481309543E+03  0.25500000000E-02 0.  1.
         -2   -1    0    0    0  501 -0.00000000000E+00 -0.00000000000E+00 -0.10465020691E+03  0.10465020694E+03  0.25500000000E-02 0. -1.
    5000001    1    1    2    0    0  0.95511215193E+02  0.11297271160E+03  0.20400980695E+03  0.31681102747E+03  0.19200000000E+03 0.  0.
   -5000001    1    1    2    0    0 -0.95511215193E+02 -0.11297271160E+03  0.25615308157E+03  0.35265227490E+03  0.19200000000E+03 0.  0.
<mgrwt>
<rscale>  0 0.48624195E+03</rscale>
<asrwt>0</asrwt>
<pdfrwt beam="1">  1        2 0.80687583E-01 0.48624195E+03</pdfrwt>
<pdfrwt beam="2">  1       -2 0.14950030E-01 0.48624195E+03</pdfrwt>
<totfact> 0.20434259E+03</totfact>
</mgrwt>
</event>
<event>
 4    1  0.2892809E-005  0.6637919E+03  0.7818608E-02  0.9781238E-01
         -2   -1    0    0    0  501 -0.00000000000E+00  0.00000000000E+00  0.61332660980E+03  0.61332660981E+03  0.25500000000E-02 0. -1.
          2   -1    0    0  501    0  0.00000000000E+00 -0.00000000000E+00 -0.17960240101E+03  0.17960240102E+03  0.25500000000E-02 0.  1.
    5000001    1    1    2    0    0  0.23681455186E+03  0.47484334747E+02  0.70780309833E+02  0.31655923029E+03  0.19200000000E+03 0.  0.
   -5000001    1    1    2    0    0 -0.23681455186E+03 -0.47484334747E+02  0.36294389896E+03  0.47636978054E+03  0.19200000000E+03 0.  0.
<mgrwt>
<rscale>  0 0.66379193E+03</rscale>
<asrwt>0</asrwt>
<pdfrwt beam="1">  1        2 0.25657485E-01 0.66379193E+03</pdfrwt>
<pdfrwt beam="2">  1       -2 0.87618089E-01 0.66379193E+03</pdfrwt>
<totfact> 0.24156564E+02</totfact>
</mgrwt>
</event>
<event>
 4    1  0.2892809E-005  0.6446620E+03  0.7818608E-02  0.9816847E-01
          2   -1    0    0  501    0  0.00000000000E+00  0.00000000000E+00  0.52109975128E+03  0.52109975128E+03  0.25500000000E-02 0.  1.
         -2   -1    0    0    0  501 -0.00000000000E+00 -0.00000000000E+00 -0.19938080369E+03  0.19938080370E+03  0.25500000000E-02 0. -1.
    5000001    1    1    2    0    0 -0.10993280084E+03  0.21008023824E+03  0.27708207095E+03  0.41213759989E+03  0.19200000000E+03 0.  0.
   -5000001    1    1    2    0    0  0.10993280084E+03 -0.21008023824E+03  0.44636876637E+02  0.30834295510E+03  0.19200000000E+03 0.  0.
<mgrwt>
<rscale>  0 0.64466204E+03</rscale>
<asrwt>0</asrwt>
<pdfrwt beam="1">  1        2 0.74442821E-01 0.64466204E+03</pdfrwt>
<pdfrwt beam="2">  1       -2 0.28482972E-01 0.64466204E+03</pdfrwt>
<totfact> 0.72552299E+02</totfact>
</mgrwt>
</event>
<event>
 4    1  0.2892809E-005  0.4655622E+03  0.7818608E-02  0.1023180E+00
          2   -1    0    0  501    0  0.00000000000E+00  0.00000000000E+00  0.14645129015E+03  0.14645129018E+03  0.25500000000E-02 0.  1.
         -2   -1    0    0    0  501 -0.00000000000E+00 -0.00000000000E+00 -0.37000037923E+03  0.37000037924E+03  0.25500000000E-02 0. -1.
    5000001    1    1    2    0    0 -0.92126002874E+02  0.90793847139E+02 -0.84776862949E+02  0.24653973224E+03  0.19200000000E+03 0.  0.
   -5000001    1    1    2    0    0  0.92126002874E+02 -0.90793847139E+02 -0.13877222613E+03  0.26991193717E+03  0.19200000000E+03 0.  0.
<mgrwt>
<rscale>  0 0.46556217E+03</rscale>
<asrwt>0</asrwt>
<pdfrwt beam="1">  1        2 0.20921613E-01 0.46556217E+03</pdfrwt>
<pdfrwt beam="2">  1       -2 0.52857197E-01 0.46556217E+03</pdfrwt>
<totfact> 0.91222138E+02</totfact>
</mgrwt>
</event>
<event>
 4    1  0.2892809E-005  0.5227118E+03  0.7818608E-02  0.1008015E+00
          2   -1    0    0  501    0  0.00000000000E+00  0.00000000000E+00  0.85631760666E+03  0.85631760666E+03  0.25500000000E-02 0.  1.
         -2   -1    0    0    0  501 -0.00000000000E+00 -0.00000000000E+00 -0.79768198471E+02  0.79768198512E+02  0.25500000000E-02 0. -1.
    5000001    1    1    2    0    0  0.14383957357E+03  0.98131763117E+02  0.32825539904E+03  0.41825264238E+03  0.19200000000E+03 0.  0.
   -5000001    1    1    2    0    0 -0.14383957357E+03 -0.98131763117E+02  0.44829400915E+03  0.51783316280E+03  0.19200000000E+03 0.  0.
<mgrwt>
<rscale>  0 0.52271182E+03</rscale>
<asrwt>0</asrwt>
<pdfrwt beam="1">  1        2 0.12233109E+00 0.52271182E+03</pdfrwt>
<pdfrwt beam="2">  1       -2 0.11395456E-01 0.52271182E+03</pdfrwt>
<totfact> 0.19279801E+03</totfact>
</mgrwt>
</event>
<event>
 4    1  0.2892809E-005  0.6231841E+03  0.7818608E-02  0.9858440E-01
         -2   -1    0    0    0  501 -0.00000000000E+00  0.00000000000E+00  0.50427908038E+03  0.50427908039E+03  0.25500000000E-02 0. -1.
          2   -1    0    0  501    0  0.00000000000E+00 -0.00000000000E+00 -0.19253152003E+03  0.19253152005E+03  0.25500000000E-02 0.  1.
    5000001    1    1    2    0    0 -0.16213216938E+03 -0.56682072082E+02  0.35187140421E+03  0.43609308954E+03  0.19200000000E+03 0.  0.
   -5000001    1    1    2    0    0  0.16213216938E+03  0.56682072082E+02 -0.40123843865E+02  0.26071751090E+03  0.19200000000E+03 0.  0.
<mgrwt>
<rscale>  0 0.62318414E+03</rscale>
<asrwt>0</asrwt>
<pdfrwt beam="1">  1        2 0.27504503E-01 0.62318414E+03</pdfrwt>
<pdfrwt beam="2">  1       -2 0.72039868E-01 0.62318414E+03</pdfrwt>
<totfact> 0.34620345E+02</totfact>
</mgrwt>
</event>
<event>
 4    1  0.2892809E-005  0.4345868E+03  0.7818608E-02  0.1032421E+00
          2   -1    0    0  501    0  0.00000000000E+00  0.00000000000E+00  0.46213471356E+03  0.46213471357E+03  0.25500000000E-02 0.  1.
         -2   -1    0    0    0  501 -0.00000000000E+00 -0.00000000000E+00 -0.10217025098E+03  0.10217025101E+03  0.25500000000E-02 0. -1.
    5000001    1    1    2    0    0 -0.14838412950E+02  0.97418486719E+02  0.14708463658E+03  0.26116743742E+03  0.19200000000E+03 0.  0.
   -5000001    1    1    2    0    0  0.14838412950E+02 -0.97418486719E+02  0.21287982600E+03  0.30313752716E+03  0.19200000000E+03 0.  0.
<mgrwt>
<rscale>  0 0.43458679E+03</rscale>
<asrwt>0</asrwt>
<pdfrwt beam="1">  1        2 0.66019245E-01 0.43458679E+03</pdfrwt>
<pdfrwt beam="2">  1       -2 0.14595750E-01 0.43458679E+03</pdfrwt>
<totfact> 0.26666975E+03</totfact>
</mgrwt>
</event>
<event>
 4    1  0.2892809E-005  0.7689515E+03  0.7818608E-02  0.9606079E-01
         -2   -1    0    0    0  501 -0.00000000000E+00  0.00000000000E+00  0.61533694006E+02  0.61533694059E+02  0.25500000000E-02 0. -1.
          2   -1    0    0  501    0  0.00000000000E+00 -0.00000000000E+00 -0.24022870376E+04  0.24022870376E+04  0.25500000000E-02 0.  1.
    5000001    1    1    2    0    0  0.22755969244E+03  0.23282729566E+03 -0.94459044463E+03  0.10174021188E+04  0.19200000000E+03 0.  0.
   -5000001    1    1    2    0    0 -0.22755969244E+03 -0.23282729566E+03 -0.13961628989E+04  0.14464186128E+04  0.19200000000E+03 0.  0.
<mgrwt>
<rscale>  0 0.76895148E+03</rscale>
<asrwt>0</asrwt>
<pdfrwt beam="1">  1        2 0.34318380E+00 0.76895148E+03</pdfrwt>
<pdfrwt beam="2">  1       -2 0.87905292E-02 0.76895148E+03</pdfrwt>
<totfact> 0.43161739E+02</totfact>
</mgrwt>
</event>
<event>
 4    1  0.2892809E-005  0.9760117E+03  0.7818608E-02  0.9335253E-01
          2   -1    0    0  501    0  0.00000000000E+00  0.00000000000E+00  0.17367877052E+04  0.17367877052E+04  0.25500000000E-02 0.  1.
         -2   -1    0    0    0  501 -0.00000000000E+00 -0.00000000000E+00 -0.13712078088E+03  0.13712078091E+03  0.25500000000E-02 0. -1.
    5000001    1    1    2    0    0 -0.39729678054E+03 -0.22746916218E+02  0.40205514817E+03  0.59738973560E+03  0.19200000000E+03 0.  0.
   -5000001    1    1    2    0    0  0.39729678054E+03  0.22746916218E+02  0.11976117761E+04  0.12765187505E+04  0.19200000000E+03 0.  0.
<mgrwt>
<rscale>  0 0.97601165E+03</rscale>
<asrwt>0</asrwt>
<pdfrwt beam="1">  1        2 0.24811255E+00 0.97601165E+03</pdfrwt>
<pdfrwt beam="2">  1       -2 0.19588681E-01 0.97601165E+03</pdfrwt>
<totfact> 0.24302745E+02</totfact>
</mgrwt>
</event>
<event>
 4    1  0.2892809E-005  0.4286570E+03  0.7818608E-02  0.1034285E+00
          2   -1    0    0  501    0  0.00000000000E+00  0.00000000000E+00  0.24791022602E+04  0.24791022602E+04  0.25500000000E-02 0.  1.
         -2   -1    0    0    0  501 -0.00000000000E+00 -0.00000000000E+00 -0.18529573849E+02  0.18529574024E+02  0.25500000000E-02 0. -1.
    5000001    1    1    2    0    0  0.40997024395E+02 -0.80279362762E+02  0.14096084998E+04  0.14254773428E+04  0.19200000000E+03 0.  0.
   -5000001    1    1    2    0    0 -0.40997024395E+02  0.80279362762E+02  0.10509641865E+04  0.10721544914E+04  0.19200000000E+03 0.  0.
<mgrwt>
<rscale>  0 0.42865701E+03</rscale>
<asrwt>0</asrwt>
<pdfrwt beam="1">  1        2 0.35415706E+00 0.42865701E+03</pdfrwt>
<pdfrwt beam="2">  1       -2 0.26470850E-02 0.42865701E+03</pdfrwt>
<totfact> 0.25963055E+03</totfact>
</mgrwt>
</event>
<event>
 4    1  0.2892809E-005  0.6537844E+03  0.7818608E-02  0.9799704E-01
          2   -1    0    0  501    0  0.00000000000E+00  0.00000000000E+00  0.97621395012E+03  0.97621395012E+03  0.25500000000E-02 0.  1.
         -2   -1    0    0    0  501 -0.00000000000E+00 -0.00000000000E+00 -0.10946216806E+03  0.10946216809E+03  0.25500000000E-02 0. -1.
    5000001    1    1    2    0    0 -0.20401259359E+03  0.16665092247E+03  0.47408021537E+03  0.57533444092E+03  0.19200000000E+03 0.  0.
   -5000001    1    1    2    0    0  0.20401259359E+03 -0.16665092247E+03  0.39267156668E+03  0.51034167729E+03  0.19200000000E+03 0.  0.
<mgrwt>
<rscale>  0 0.65378435E+03</rscale>
<asrwt>0</asrwt>
<pdfrwt beam="1">  1        2 0.13945913E+00 0.65378435E+03</pdfrwt>
<pdfrwt beam="2">  1       -2 0.15637453E-01 0.65378435E+03</pdfrwt>
<totfact> 0.95284789E+02</totfact>
</mgrwt>
</event>
<event>
 4    1  0.2892809E-005  0.6734938E+03  0.7818608E-02  0.9763667E-01
          2   -1    0    0  501    0  0.00000000000E+00  0.00000000000E+00  0.12238441216E+04  0.12238441216E+04  0.25500000000E-02 0.  1.
         -2   -1    0    0    0  501 -0.00000000000E+00 -0.00000000000E+00 -0.92657605897E+02  0.92657605932E+02  0.25500000000E-02 0. -1.
    5000001    1    1    2    0    0  0.10210494323E+03 -0.25014273440E+03  0.44932909980E+03  0.55835243971E+03  0.19200000000E+03 0.  0.
   -5000001    1    1    2    0    0 -0.10210494323E+03  0.25014273440E+03  0.68185741595E+03  0.75814928787E+03  0.19200000000E+03 0.  0.
<mgrwt>
<rscale>  0 0.67349378E+03</rscale>
<asrwt>0</asrwt>
<pdfrwt beam="1">  1        2 0.17483488E+00 0.67349378E+03</pdfrwt>
<pdfrwt beam="2">  1       -2 0.13236800E-01 0.67349378E+03</pdfrwt>
<totfact> 0.90231835E+02</totfact>
</mgrwt>
</event>
<event>
 4    1  0.2892809E-005  0.5512576E+03  0.7818608E-02  0.1001203E+00
         -2   -1    0    0    0  501 -0.00000000000E+00  0.00000000000E+00  0.14774806923E+03  0.14774806925E+03  0.25500000000E-02 0. -1.
          2   -1    0    0  501    0  0.00000000000E+00 -0.00000000000E+00 -0.51419441935E+03  0.51419441935E+03  0.25500000000E-02 0.  1.
    5000001    1    1    2    0    0  0.76060717246E+01 -0.16866984139E+03 -0.30685089005E+03  0.39941061133E+03  0.19200000000E+03 0.  0.
   -5000001    1    1    2    0    0 -0.76060717246E+01  0.16866984139E+03 -0.59595460066E+02  0.26253187727E+03  0.19200000000E+03 0.  0.
<mgrwt>
<rscale>  0 0.55125759E+03</rscale>
<asrwt>0</asrwt>
<pdfrwt beam="1">  1        2 0.73456345E-01 0.55125759E+03</pdfrwt>
<pdfrwt beam="2">  1       -2 0.21106867E-01 0.55125759E+03</pdfrwt>
<totfact> 0.12614965E+03</totfact>
</mgrwt>
</event>
<event>
 4    1  0.2892809E-005  0.4280235E+03  0.7818608E-02  0.1034486E+00
          2   -1    0    0  501    0  0.00000000000E+00  0.00000000000E+00  0.31809253179E+02  0.31809253282E+02  0.25500000000E-02 0.  1.
         -2   -1    0    0    0  501 -0.00000000000E+00 -0.00000000000E+00 -0.14398652346E+04  0.14398652346E+04  0.25500000000E-02 0. -1.
    5000001    1    1    2    0    0  0.82167900621E+02 -0.46281482244E+02 -0.72670473166E+03  0.75753369991E+03  0.19200000000E+03 0.  0.
   -5000001    1    1    2    0    0 -0.82167900621E+02  0.46281482244E+02 -0.68135124979E+03  0.71414078800E+03  0.19200000000E+03 0.  0.
<mgrwt>
<rscale>  0 0.42802354E+03</rscale>
<asrwt>0</asrwt>
<pdfrwt beam="1">  1        2 0.45441799E-02 0.42802354E+03</pdfrwt>
<pdfrwt beam="2">  1       -2 0.20569499E+00 0.42802354E+03</pdfrwt>
<totfact> 0.23674022E+02</totfact>
</mgrwt>
</event>
<event>
 4    1  0.2892809E-005  0.5237039E+03  0.7818608E-02  0.1007771E+00
         -2   -1    0    0    0  501 -0.00000000000E+00  0.00000000000E+00  0.81926905552E+02  0.81926905592E+02  0.25500000000E-02 0. -1.
          2   -1    0    0  501    0  0.00000000000E+00 -0.00000000000E+00 -0.83692221339E+03  0.83692221340E+03  0.25500000000E-02 0.  1.
    5000001    1    1    2    0    0 -0.86379981367E+02 -0.67921370859E+02 -0.13169172578E+03  0.25745198472E+03  0.19200000000E+03 0.  0.
   -5000001    1    1    2    0    0  0.86379981367E+02  0.67921370859E+02 -0.62330358206E+03  0.66139713426E+03  0.19200000000E+03 0.  0.
<mgrwt>
<rscale>  0 0.52370391E+03</rscale>
<asrwt>0</asrwt>
<pdfrwt beam="1">  1        2 0.11956031E+00 0.52370391E+03</pdfrwt>
<pdfrwt beam="2">  1       -2 0.11703844E-01 0.52370391E+03</pdfrwt>
<totfact> 0.19013186E+03</totfact>
</mgrwt>
</event>
<event>
 4    1  0.2892809E-005  0.5942582E+03  0.7818608E-02  0.9917391E-01
         -2   -1    0    0    0  501 -0.00000000000E+00  0.00000000000E+00  0.41895606028E+02  0.41895606106E+02  0.25500000000E-02 0. -1.
          2   -1    0    0  501    0  0.00000000000E+00 -0.00000000000E+00 -0.21072780935E+04  0.21072780935E+04  0.25500000000E-02 0.  1.
    5000001    1    1    2    0    0 -0.70819013861E+02  0.78879146488E+02 -0.30771242345E+03  0.37787324333E+03  0.19200000000E+03 0.  0.
   -5000001    1    1    2    0    0  0.70819013861E+02 -0.78879146488E+02 -0.17576700640E+04  0.17713004563E+04  0.19200000000E+03 0.  0.
<mgrwt>
<rscale>  0 0.59425817E+03</rscale>
<asrwt>0</asrwt>
<pdfrwt beam="1">  1        2 0.30103966E+00 0.59425817E+03</pdfrwt>
<pdfrwt beam="2">  1       -2 0.59850879E-02 0.59425817E+03</pdfrwt>
<totfact> 0.11350854E+03</totfact>
</mgrwt>
</event>
<event>
 4    1  0.2892809E-005  0.4565747E+03  0.7818608E-02  0.1025779E+00
         -2   -1    0    0    0  501 -0.00000000000E+00  0.00000000000E+00  0.52263367112E+03  0.52263367113E+03  0.25500000000E-02 0. -1.
          2   -1    0    0  501    0  0.00000000000E+00 -0.00000000000E+00 -0.99716334512E+02  0.99716334544E+02  0.25500000000E-02 0.  1.
    5000001    1    1    2    0    0 -0.12036208035E+03  0.16858072336E+02  0.24131890551E+03  0.33146649778E+03  0.19200000000E+03 0.  0.
   -5000001    1    1    2    0    0  0.12036208035E+03 -0.16858072336E+02  0.18159843110E+03  0.29088350790E+03  0.19200000000E+03 0.  0.
<mgrwt>
<rscale>  0 0.45657470E+03</rscale>
<asrwt>0</asrwt>
<pdfrwt beam="1">  1        2 0.14245190E-01 0.45657470E+03</pdfrwt>
<pdfrwt beam="2">  1       -2 0.74661954E-01 0.45657470E+03</pdfrwt>
<totfact> 0.69271935E+02</totfact>
</mgrwt>
</event>
<event>
 4    1  0.2892809E-005  0.5311906E+03  0.7818608E-02  0.1005944E+00
          2   -1    0    0  501    0  0.00000000000E+00  0.00000000000E+00  0.32237450091E+04  0.32237450091E+04  0.25500000000E-02 0.  1.
         -2   -1    0    0    0  501 -0.00000000000E+00 -0.00000000000E+00 -0.21881651567E+02  0.21881651715E+02  0.25500000000E-02 0. -1.
    5000001    1    1    2    0    0  0.16949447706E+03  0.41312101952E+02  0.19488210285E+04  0.19660118180E+04  0.19200000000E+03 0.  0.
   -5000001    1    1    2    0    0 -0.16949447706E+03 -0.41312101952E+02  0.12530423290E+04  0.12796148427E+04  0.19200000000E+03 0.  0.
<mgrwt>
<rscale>  0 0.53119061E+03</rscale>
<asrwt>0</asrwt>
<pdfrwt beam="1">  1        2 0.46053471E+00 0.53119061E+03</pdfrwt>
<pdfrwt beam="2">  1       -2 0.31259522E-02 0.53119061E+03</pdfrwt>
<totfact> 0.80621794E+02</totfact>
</mgrwt>
</event>
<event>
 4    1  0.2892809E-005  0.5144464E+03  0.7818608E-02  0.1010075E+00
         -2   -1    0    0    0  501 -0.00000000000E+00  0.00000000000E+00  0.29448931826E+02  0.29448931936E+02  0.25500000000E-02 0. -1.
          2   -1    0    0  501    0  0.00000000000E+00 -0.00000000000E+00 -0.22467291112E+04  0.22467291112E+04  0.25500000000E-02 0.  1.
    5000001    1    1    2    0    0  0.16320004490E+03  0.50821689878E+02 -0.11488700762E+04  0.11772780262E+04  0.19200000000E+03 0.  0.
   -5000001    1    1    2    0    0 -0.16320004490E+03 -0.50821689878E+02 -0.10684101032E+04  0.10989000170E+04  0.19200000000E+03 0.  0.
<mgrwt>
<rscale>  0 0.51444639E+03</rscale>
<asrwt>0</asrwt>
<pdfrwt beam="1">  1        2 0.32096119E+00 0.51444639E+03</pdfrwt>
<pdfrwt beam="2">  1       -2 0.42069917E-02 0.51444639E+03</pdfrwt>
<totfact> 0.16755523E+03</totfact>
</mgrwt>
</event>
<event>
 4    1  0.2892809E-005  0.4461041E+03  0.7818608E-02  0.1028890E+00
         -2   -1    0    0    0  501 -0.00000000000E+00  0.00000000000E+00  0.30119403613E+03  0.30119403614E+03  0.25500000000E-02 0. -1.
          2   -1    0    0  501    0  0.00000000000E+00 -0.00000000000E+00 -0.16518324326E+03  0.16518324328E+03  0.25500000000E-02 0.  1.
    5000001    1    1    2    0    0  0.72620224098E+02 -0.57412058887E+02  0.13670606272E+03  0.25322398985E+03  0.19200000000E+03 0.  0.
   -5000001    1    1    2    0    0 -0.72620224098E+02  0.57412058887E+02 -0.69526984561E+00  0.21315328957E+03  0.19200000000E+03 0.  0.
<mgrwt>
<rscale>  0 0.44610406E+03</rscale>
<asrwt>0</asrwt>
<pdfrwt beam="1">  1        2 0.23597606E-01 0.44610406E+03</pdfrwt>
<pdfrwt beam="2">  1       -2 0.43027719E-01 0.44610406E+03</pdfrwt>
<totfact> 0.11978862E+03</totfact>
</mgrwt>
</event>
<event>
 4    1  0.2892809E-005  0.5667972E+03  0.7818608E-02  0.9976791E-01
         -2   -1    0    0    0  501 -0.00000000000E+00  0.00000000000E+00  0.31583396770E+02  0.31583396873E+02  0.25500000000E-02 0. -1.
          2   -1    0    0  501    0  0.00000000000E+00 -0.00000000000E+00 -0.25429422420E+04  0.25429422420E+04  0.25500000000E-02 0.  1.
    5000001    1    1    2    0    0 -0.12999631855E+03  0.16293342948E+03 -0.12461421919E+04  0.12779595877E+04  0.19200000000E+03 0.  0.
   -5000001    1    1    2    0    0  0.12999631855E+03 -0.16293342948E+03 -0.12652166533E+04  0.12965660512E+04  0.19200000000E+03 0.  0.
<mgrwt>
<rscale>  0 0.56679716E+03</rscale>
<asrwt>0</asrwt>
<pdfrwt beam="1">  1        2 0.36327733E+00 0.56679716E+03</pdfrwt>
<pdfrwt beam="2">  1       -2 0.45119155E-02 0.56679716E+03</pdfrwt>
<totfact> 0.10607204E+03</totfact>
</mgrwt>
</event>
<event>
 4    1  0.2892809E-005  0.1097467E+04  0.7818608E-02  0.9207664E-01
         -2   -1    0    0    0  501 -0.00000000000E+00  0.00000000000E+00  0.15255639228E+03  0.15255639230E+03  0.25500000000E-02 0. -1.
          2   -1    0    0  501    0  0.00000000000E+00 -0.00000000000E+00 -0.19737512657E+04  0.19737512657E+04  0.25500000000E-02 0.  1.
    5000001    1    1    2    0    0 -0.36725119317E+03 -0.10683675177E+03 -0.15760180655E+04  0.16330904669E+04  0.19200000000E+03 0.  0.
   -5000001    1    1    2    0    0  0.36725119317E+03  0.10683675177E+03 -0.24517680791E+03  0.49321719106E+03  0.19200000000E+03 0.  0.
<mgrwt>
<rscale>  0 0.10974669E+04</rscale>
<asrwt>0</asrwt>
<pdfrwt beam="1">  1        2 0.28196445E+00 0.10974669E+04</pdfrwt>
<pdfrwt beam="2">  1       -2 0.21793771E-01 0.10974669E+04</pdfrwt>
<totfact> 0.15099745E+02</totfact>
</mgrwt>
</event>
<event>
 4    1  0.2892809E-005  0.5335405E+03  0.7818608E-02  0.1005377E+00
         -2   -1    0    0    0  501 -0.00000000000E+00  0.00000000000E+00  0.27522208958E+02  0.27522209076E+02  0.25500000000E-02 0. -1.
          2   -1    0    0  501    0  0.00000000000E+00 -0.00000000000E+00 -0.25857793541E+04  0.25857793541E+04  0.25500000000E-02 0.  1.
    5000001    1    1    2    0    0 -0.11338785596E+03  0.52701953592E+02 -0.60990423276E+03  0.65152242857E+03  0.19200000000E+03 0.  0.
   -5000001    1    1    2    0    0  0.11338785596E+03 -0.52701953592E+02 -0.19483529123E+04  0.19617791346E+04  0.19200000000E+03 0.  0.
<mgrwt>
<rscale>  0 0.53354048E+03</rscale>
<asrwt>0</asrwt>
<pdfrwt beam="1">  1        2 0.36939690E+00 0.53354048E+03</pdfrwt>
<pdfrwt beam="2">  1       -2 0.39317458E-02 0.53354048E+03</pdfrwt>
<totfact> 0.12487235E+03</totfact>
</mgrwt>
</event>
<event>
 4    1  0.2892809E-005  0.7130120E+03  0.7818608E-02  0.9695235E-01
         -2   -1    0    0    0  501 -0.00000000000E+00  0.00000000000E+00  0.12914775510E+03  0.12914775513E+03  0.25500000000E-02 0. -1.
          2   -1    0    0  501    0  0.00000000000E+00 -0.00000000000E+00 -0.98411720207E+03  0.98411720207E+03  0.25500000000E-02 0.  1.
    5000001    1    1    2    0    0  0.22520927512E+03  0.38057314479E+02 -0.73210887756E+03  0.79057889258E+03  0.19200000000E+03 0.  0.
   -5000001    1    1    2    0    0 -0.22520927512E+03 -0.38057314479E+02 -0.12286056941E+03  0.32268606462E+03  0.19200000000E+03 0.  0.
<mgrwt>
<rscale>  0 0.71301200E+03</rscale>
<asrwt>0</asrwt>
<pdfrwt beam="1">  1        2 0.14058817E+00 0.71301200E+03</pdfrwt>
<pdfrwt beam="2">  1       -2 0.18449680E-01 0.71301200E+03</pdfrwt>
<totfact> 0.70871012E+02</totfact>
</mgrwt>
</event>
<event>
 4    1  0.2892809E-005  0.6132813E+03  0.7818608E-02  0.9878228E-01
         -2   -1    0    0    0  501 -0.00000000000E+00  0.00000000000E+00  0.52967731659E+02  0.52967731720E+02  0.25500000000E-02 0. -1.
          2   -1    0    0  501    0  0.00000000000E+00 -0.00000000000E+00 -0.17752034850E+04  0.17752034850E+04  0.25500000000E-02 0.  1.
    5000001    1    1    2    0    0  0.95795457283E+02 -0.57267510233E+02 -0.23081319461E+03  0.32030464900E+03  0.19200000000E+03 0.  0.
   -5000001    1    1    2    0    0 -0.95795457283E+02  0.57267510233E+02 -0.14914225587E+04  0.15078665677E+04  0.19200000000E+03 0.  0.
<mgrwt>
<rscale>  0 0.61328134E+03</rscale>
<asrwt>0</asrwt>
<pdfrwt beam="1">  1        2 0.25360046E+00 0.61328134E+03</pdfrwt>
<pdfrwt beam="2">  1       -2 0.75668199E-02 0.61328134E+03</pdfrwt>
<totfact> 0.11510310E+03</totfact>
</mgrwt>
</event>
<event>
 4    1  0.2892809E-005  0.4851078E+03  0.7818608E-02  0.1017741E+00
         -2   -1    0    0    0  501 -0.00000000000E+00  0.00000000000E+00  0.34390961749E+02  0.34390961843E+02  0.25500000000E-02 0. -1.
          2   -1    0    0  501    0  0.00000000000E+00 -0.00000000000E+00 -0.17106932818E+04  0.17106932818E+04  0.25500000000E-02 0.  1.
    5000001    1    1    2    0    0 -0.14738153283E+03 -0.16115642435E+01 -0.89439752433E+03  0.92657155411E+03  0.19200000000E+03 0.  0.
   -5000001    1    1    2    0    0  0.14738153283E+03  0.16115642435E+01 -0.78190479572E+03  0.81851268953E+03  0.19200000000E+03 0.  0.
<mgrwt>
<rscale>  0 0.48510777E+03</rscale>
<asrwt>0</asrwt>
<pdfrwt beam="1">  1        2 0.24438470E+00 0.48510777E+03</pdfrwt>
<pdfrwt beam="2">  1       -2 0.49129956E-02 0.48510777E+03</pdfrwt>
<totfact> 0.24504610E+03</totfact>
</mgrwt>
</event>
<event>
 4    1  0.2892809E-005  0.6256883E+03  0.7818608E-02  0.9853499E-01
          2   -1    0    0  501    0  0.00000000000E+00  0.00000000000E+00  0.26865197055E+04  0.26865197055E+04  0.25500000000E-02 0.  1.
         -2   -1    0    0    0  501 -0.00000000000E+00 -0.00000000000E+00 -0.36430576527E+02  0.36430576616E+02  0.25500000000E-02 0. -1.
    5000001    1    1    2    0    0  0.10171531247E+03 -0.20098059701E+03  0.88405324928E+03  0.93228394426E+03  0.19200000000E+03 0.  0.
   -5000001    1    1    2    0    0 -0.10171531247E+03  0.20098059701E+03  0.17660358797E+04  0.17906663379E+04  0.19200000000E+03 0.  0.
<mgrwt>
<rscale>  0 0.62568830E+03</rscale>
<asrwt>0</asrwt>
<pdfrwt beam="1">  1        2 0.38378845E+00 0.62568830E+03</pdfrwt>
<pdfrwt beam="2">  1       -2 0.52043691E-02 0.62568830E+03</pdfrwt>
<totfact> 0.71300242E+02</totfact>
</mgrwt>
</event>
<event>
 4    1  0.2892809E-005  0.5484292E+03  0.7818608E-02  0.1001858E+00
          2   -1    0    0  501    0  0.00000000000E+00  0.00000000000E+00  0.14916668111E+04  0.14916668111E+04  0.25500000000E-02 0.  1.
         -2   -1    0    0    0  501 -0.00000000000E+00 -0.00000000000E+00 -0.50409139701E+02  0.50409139766E+02  0.25500000000E-02 0. -1.
    5000001    1    1    2    0    0 -0.75780916629E+02 -0.17008336908E+03  0.89070332403E+03  0.92999328556E+03  0.19200000000E+03 0.  0.
   -5000001    1    1    2    0    0  0.75780916629E+02  0.17008336908E+03  0.55055434742E+03  0.61208266535E+03  0.19200000000E+03 0.  0.
<mgrwt>
<rscale>  0 0.54842918E+03</rscale>
<asrwt>0</asrwt>
<pdfrwt beam="1">  1        2 0.21309526E+00 0.54842918E+03</pdfrwt>
<pdfrwt beam="2">  1       -2 0.72013056E-02 0.54842918E+03</pdfrwt>
<totfact> 0.17433953E+03</totfact>
</mgrwt>
</event>
<event>
 4    1  0.2892809E-005  0.6488311E+03  0.7818608E-02  0.9808975E-01
         -2   -1    0    0    0  501 -0.00000000000E+00  0.00000000000E+00  0.10923600153E+03  0.10923600156E+03  0.25500000000E-02 0. -1.
          2   -1    0    0  501    0  0.00000000000E+00 -0.00000000000E+00 -0.96346859458E+03  0.96346859458E+03  0.25500000000E-02 0.  1.
    5000001    1    1    2    0    0  0.22122223139E+03  0.66352871266E+02 -0.62986815505E+03  0.69781077087E+03  0.19200000000E+03 0.  0.
   -5000001    1    1    2    0    0 -0.22122223139E+03 -0.66352871266E+02 -0.22436443800E+03  0.37489382527E+03  0.19200000000E+03 0.  0.
<mgrwt>
<rscale>  0 0.64883112E+03</rscale>
<asrwt>0</asrwt>
<pdfrwt beam="1">  1        2 0.13763837E+00 0.64883112E+03</pdfrwt>
<pdfrwt beam="2">  1       -2 0.15605144E-01 0.64883112E+03</pdfrwt>
<totfact> 0.97390831E+02</totfact>
</mgrwt>
</event>
<event>
 4    1  0.2892809E-005  0.5924394E+03  0.7818608E-02  0.9921217E-01
         -2   -1    0    0    0  501 -0.00000000000E+00  0.00000000000E+00  0.59181056747E+02  0.59181056802E+02  0.25500000000E-02 0. -1.
          2   -1    0    0  501    0  0.00000000000E+00 -0.00000000000E+00 -0.14826721337E+04  0.14826721337E+04  0.25500000000E-02 0.  1.
    5000001    1    1    2    0    0  0.21010566603E+03  0.84011824517E+01 -0.92425030000E+03  0.96711818710E+03  0.19200000000E+03 0.  0.
   -5000001    1    1    2    0    0 -0.21010566603E+03 -0.84011824517E+01 -0.49924077691E+03  0.57473500336E+03  0.19200000000E+03 0.  0.
<mgrwt>
<rscale>  0 0.59243938E+03</rscale>
<asrwt>0</asrwt>
<pdfrwt beam="1">  1        2 0.21181028E+00 0.59243938E+03</pdfrwt>
<pdfrwt beam="2">  1       -2 0.84544376E-02 0.59243938E+03</pdfrwt>
<totfact> 0.13637434E+03</totfact>
</mgrwt>
</event>
<event>
 4    1  0.2892809E-005  0.7418981E+03  0.7818608E-02  0.9648147E-01
          2   -1    0    0  501    0  0.00000000000E+00  0.00000000000E+00  0.72238908486E+03  0.72238908486E+03  0.25500000000E-02 0.  1.
         -2   -1    0    0    0  501 -0.00000000000E+00 -0.00000000000E+00 -0.19048349311E+03  0.19048349313E+03  0.25500000000E-02 0. -1.
    5000001    1    1    2    0    0 -0.14104491610E+03  0.16316823351E+03  0.55247104689E+03  0.62338254582E+03  0.19200000000E+03 0.  0.
   -5000001    1    1    2    0    0  0.14104491610E+03 -0.16316823351E+03 -0.20565455144E+02  0.28949003217E+03  0.19200000000E+03 0.  0.
<mgrwt>
<rscale>  0 0.74189810E+03</rscale>
<asrwt>0</asrwt>
<pdfrwt beam="1">  1        2 0.10319844E+00 0.74189810E+03</pdfrwt>
<pdfrwt beam="2">  1       -2 0.27211928E-01 0.74189810E+03</pdfrwt>
<totfact> 0.53333675E+02</totfact>
</mgrwt>
</event>
<event>
 4    1  0.2892809E-005  0.7881754E+03  0.7818608E-02  0.9577292E-01
         -2   -1    0    0    0  501 -0.00000000000E+00  0.00000000000E+00  0.89183182551E+02  0.89183182587E+02  0.25500000000E-02 0. -1.
          2   -1    0    0  501    0  0.00000000000E+00 -0.00000000000E+00 -0.17414169976E+04  0.17414169976E+04  0.25500000000E-02 0.  1.
    5000001    1    1    2    0    0  0.22411418287E+03 -0.58305071775E+02 -0.14174151545E+04  0.14489845992E+04  0.19200000000E+03 0.  0.
   -5000001    1    1    2    0    0 -0.22411418287E+03  0.58305071775E+02 -0.23481866056E+03  0.38161558106E+03  0.19200000000E+03 0.  0.
<mgrwt>
<rscale>  0 0.78817539E+03</rscale>
<asrwt>0</asrwt>
<pdfrwt beam="1">  1        2 0.24877384E+00 0.78817539E+03</pdfrwt>
<pdfrwt beam="2">  1       -2 0.12740456E-01 0.78817539E+03</pdfrwt>
<totfact> 0.50904087E+02</totfact>
</mgrwt>
</event>
<event>
 4    1  0.2892809E-005  0.4892545E+03  0.7818608E-02  0.1016622E+00
          2   -1    0    0  501    0  0.00000000000E+00  0.00000000000E+00  0.58592874862E+03  0.58592874862E+03  0.25500000000E-02 0.  1.
         -2   -1    0    0    0  501 -0.00000000000E+00 -0.00000000000E+00 -0.10213271483E+03  0.10213271487E+03  0.25500000000E-02 0. -1.
    5000001    1    1    2    0    0  0.50922397879E+02  0.14162963174E+03  0.21648822287E+03  0.32616436628E+03  0.19200000000E+03 0.  0.
   -5000001    1    1    2    0    0 -0.50922397879E+02 -0.14162963174E+03  0.26730781092E+03  0.36189709721E+03  0.19200000000E+03 0.  0.
<mgrwt>
<rscale>  0 0.48925451E+03</rscale>
<asrwt>0</asrwt>
<pdfrwt beam="1">  1        2 0.83704108E-01 0.48925451E+03</pdfrwt>
<pdfrwt beam="2">  1       -2 0.14590388E-01 0.48925451E+03</pdfrwt>
<totfact> 0.20398903E+03</totfact>
</mgrwt>
</event>
<event>
 4    1  0.2892809E-005  0.5719424E+03  0.7818608E-02  0.9965390E-01
         -2   -1    0    0    0  501 -0.00000000000E+00  0.00000000000E+00  0.11262516539E+03  0.11262516542E+03  0.25500000000E-02 0. -1.
          2   -1    0    0  501    0  0.00000000000E+00 -0.00000000000E+00 -0.72612116478E+03  0.72612116478E+03  0.25500000000E-02 0.  1.
    5000001    1    1    2    0    0 -0.13609801007E+02 -0.97910501910E+02 -0.58166580705E+03  0.62046015517E+03  0.19200000000E+03 0.  0.
   -5000001    1    1    2    0    0  0.13609801007E+02  0.97910501910E+02 -0.31830192339E+02  0.21828617504E+03  0.19200000000E+03 0.  0.
<mgrwt>
<rscale>  0 0.57194236E+03</rscale>
<asrwt>0</asrwt>
<pdfrwt beam="1">  1        2 0.10373159E+00 0.57194236E+03</pdfrwt>
<pdfrwt beam="2">  1       -2 0.16089310E-01 0.57194236E+03</pdfrwt>
<totfact> 0.13386346E+03</totfact>
</mgrwt>
</event>
<event>
 4    1  0.2892809E-005  0.4804506E+03  0.7818608E-02  0.1019011E+00
         -2   -1    0    0    0  501 -0.00000000000E+00  0.00000000000E+00  0.22585679939E+03  0.22585679940E+03  0.25500000000E-02 0. -1.
          2   -1    0    0  501    0  0.00000000000E+00 -0.00000000000E+00 -0.25550791420E+03  0.25550791421E+03  0.25500000000E-02 0.  1.
    5000001    1    1    2    0    0 -0.11229368632E+03 -0.72585450407E+02  0.39736111512E+02  0.23732146586E+03  0.19200000000E+03 0.  0.
   -5000001    1    1    2    0    0  0.11229368632E+03  0.72585450407E+02 -0.69387226323E+02  0.24404324776E+03  0.19200000000E+03 0.  0.
<mgrwt>
<rscale>  0 0.48045062E+03</rscale>
<asrwt>0</asrwt>
<pdfrwt beam="1">  1        2 0.36501131E-01 0.48045062E+03</pdfrwt>
<pdfrwt beam="2">  1       -2 0.32265257E-01 0.48045062E+03</pdfrwt>
<totfact> 0.12733701E+03</totfact>
</mgrwt>
</event>
<event>
 4    1  0.2892809E-005  0.4165398E+03  0.7818608E-02  0.1038198E+00
          2   -1    0    0  501    0  0.00000000000E+00  0.00000000000E+00  0.36017751613E+04  0.36017751613E+04  0.25500000000E-02 0.  1.
         -2   -1    0    0    0  501 -0.00000000000E+00 -0.00000000000E+00 -0.12043046660E+02  0.12043046930E+02  0.25500000000E-02 0. -1.
    5000001    1    1    2    0    0 -0.31815715029E+02  0.63414446723E+02  0.21284860471E+04  0.21383055171E+04  0.19200000000E+03 0.  0.
   -5000001    1    1    2    0    0  0.31815715029E+02 -0.63414446723E+02  0.14612460675E+04  0.14755126911E+04  0.19200000000E+03 0.  0.
<mgrwt>
<rscale>  0 0.41653978E+03</rscale>
<asrwt>0</asrwt>
<pdfrwt beam="1">  1        2 0.51454005E+00 0.41653978E+03</pdfrwt>
<pdfrwt beam="2">  1       -2 0.17204328E-02 0.41653978E+03</pdfrwt>
<totfact> 0.12077685E+03</totfact>
</mgrwt>
</event>
<event>
 4    1  0.2892809E-005  0.5536513E+03  0.7818608E-02  0.1000652E+00
          2   -1    0    0  501    0  0.00000000000E+00  0.00000000000E+00  0.44463411231E+03  0.44463411232E+03  0.25500000000E-02 0.  1.
         -2   -1    0    0    0  501 -0.00000000000E+00 -0.00000000000E+00 -0.17234946450E+03  0.17234946452E+03  0.25500000000E-02 0. -1.
    5000001    1    1    2    0    0 -0.18247875279E+03 -0.80377900050E+02  0.13273492617E+03  0.30698804970E+03  0.19200000000E+03 0.  0.
   -5000001    1    1    2    0    0  0.18247875279E+03  0.80377900050E+02  0.13954972164E+03  0.30999552714E+03  0.19200000000E+03 0.  0.
<mgrwt>
<rscale>  0 0.55365134E+03</rscale>
<asrwt>0</asrwt>
<pdfrwt beam="1">  1        2 0.63519160E-01 0.55365134E+03</pdfrwt>
<pdfrwt beam="2">  1       -2 0.24621352E-01 0.55365134E+03</pdfrwt>
<totfact> 0.11317744E+03</totfact>
</mgrwt>
</event>
<event>
 4    1  0.2892809E-005  0.4796039E+03  0.7818608E-02  0.1019244E+00
         -2   -1    0    0    0  501 -0.00000000000E+00  0.00000000000E+00  0.34337833801E+02  0.34337833896E+02  0.25500000000E-02 0. -1.
          2   -1    0    0  501    0  0.00000000000E+00 -0.00000000000E+00 -0.16746825046E+04  0.16746825046E+04  0.25500000000E-02 0.  1.
    5000001    1    1    2    0    0  0.24878133952E+02 -0.14014299364E+03 -0.88981737534E+03  0.92135657683E+03  0.19200000000E+03 0.  0.
   -5000001    1    1    2    0    0 -0.24878133952E+02  0.14014299364E+03 -0.75052729550E+03  0.78766376171E+03  0.19200000000E+03 0.  0.
<mgrwt>
<rscale>  0 0.47960388E+03</rscale>
<asrwt>0</asrwt>
<pdfrwt beam="1">  1        2 0.23924031E+00 0.47960388E+03</pdfrwt>
<pdfrwt beam="2">  1       -2 0.49054059E-02 0.47960388E+03</pdfrwt>
<totfact> 0.25616714E+03</totfact>
</mgrwt>
</event>
<event>
 4    1  0.2892809E-005  0.4348539E+03  0.7818608E-02  0.1032338E+00
          2   -1    0    0  501    0  0.00000000000E+00  0.00000000000E+00  0.60175241494E+03  0.60175241495E+03  0.25500000000E-02 0. -1.
         -2   -1    0    0    0  501 -0.00000000000E+00 -0.00000000000E+00 -0.78561329171E+02  0.78561329212E+02  0.25500000000E-02 0.  1.
    5000001    1    1    2    0    0 -0.32172918195E+02 -0.63958956311E+02  0.14786607778E+03  0.25269392892E+03  0.19200000000E+03 0.  0.
   -5000001    1    1    2    0    0  0.32172918195E+02  0.63958956311E+02  0.37532500799E+03  0.42761981524E+03  0.19200000000E+03 0.  0.
<mgrwt>
<rscale>  0 0.43485386E+03</rscale>
<asrwt>0</asrwt>
<pdfrwt beam="1">  1        2 0.85964628E-01 0.43485386E+03</pdfrwt>
<pdfrwt beam="2">  1       -2 0.11223047E-01 0.43485386E+03</pdfrwt>
<totfact> 0.30433729E+03</totfact>
</mgrwt>
</event>
<event>
 4    1  0.2892809E-005  0.4460223E+03  0.7818608E-02  0.1028915E+00
         -2   -1    0    0    0  501 -0.00000000000E+00  0.00000000000E+00  0.70828238297E+02  0.70828238343E+02  0.25500000000E-02 0. -1.
          2   -1    0    0  501    0  0.00000000000E+00 -0.00000000000E+00 -0.70217710750E+03  0.70217710750E+03  0.25500000000E-02 0.  1.
    5000001    1    1    2    0    0 -0.13686335053E+02  0.10215748915E+03 -0.23352982333E+03  0.31941140672E+03  0.19200000000E+03 0.  0.
   -5000001    1    1    2    0    0  0.13686335053E+02 -0.10215748915E+03 -0.39781904587E+03  0.45359393913E+03  0.19200000000E+03 0.  0.
<mgrwt>
<rscale>  0 0.44602228E+03</rscale>
<asrwt>0</asrwt>
<pdfrwt beam="1">  1        2 0.10031101E+00 0.44602228E+03</pdfrwt>
<pdfrwt beam="2">  1       -2 0.10118320E-01 0.44602228E+03</pdfrwt>
<totfact> 0.29973652E+03</totfact>
</mgrwt>
</event>
<event>
 4    1  0.2892809E-005  0.5060095E+03  0.7818608E-02  0.1012222E+00
         -2   -1    0    0    0  501 -0.00000000000E+00  0.00000000000E+00  0.51349301479E+03  0.51349301479E+03  0.25500000000E-02 0. -1.
          2   -1    0    0  501    0  0.00000000000E+00 -0.00000000000E+00 -0.12465876035E+03  0.12465876038E+03  0.25500000000E-02 0.  1.
    5000001    1    1    2    0    0  0.34524033931E+02  0.15626514157E+03  0.24385499825E+03  0.34919903144E+03  0.19200000000E+03 0.  0.
   -5000001    1    1    2    0    0 -0.34524033931E+02 -0.15626514157E+03  0.14497925618E+03  0.28895274373E+03  0.19200000000E+03 0.  0.
<mgrwt>
<rscale>  0 0.50600950E+03</rscale>
<asrwt>0</asrwt>
<pdfrwt beam="1">  1        2 0.17808394E-01 0.50600950E+03</pdfrwt>
<pdfrwt beam="2">  1       -2 0.73356145E-01 0.50600950E+03</pdfrwt>
<totfact> 0.55118744E+02</totfact>
</mgrwt>
</event>
<event>
 4    1  0.2892809E-005  0.4854645E+03  0.7818608E-02  0.1017644E+00
         -2   -1    0    0    0  501 -0.00000000000E+00  0.00000000000E+00  0.42619603473E+03  0.42619603474E+03  0.25500000000E-02 0. -1.
          2   -1    0    0  501    0  0.00000000000E+00 -0.00000000000E+00 -0.13824376449E+03  0.13824376451E+03  0.25500000000E-02 0.  1.
    5000001    1    1    2    0    0  0.12431060778E+03 -0.59465183048E+02  0.20835237749E+03  0.31506181680E+03  0.19200000000E+03 0.  0.
   -5000001    1    1    2    0    0 -0.12431060778E+03  0.59465183048E+02  0.79599892750E+02  0.24937798244E+03  0.19200000000E+03 0.  0.
<mgrwt>
<rscale>  0 0.48546450E+03</rscale>
<asrwt>0</asrwt>
<pdfrwt beam="1">  1        2 0.19749109E-01 0.48546450E+03</pdfrwt>
<pdfrwt beam="2">  1       -2 0.60885149E-01 0.48546450E+03</pdfrwt>
<totfact> 0.72798935E+02</totfact>
</mgrwt>
</event>
<event>
 4    1  0.2892809E-005  0.7900824E+03  0.7818608E-02  0.9574484E-01
         -2   -1    0    0    0  501 -0.00000000000E+00  0.00000000000E+00  0.17440191604E+03  0.17440191606E+03  0.25500000000E-02 0. -1.
          2   -1    0    0  501    0  0.00000000000E+00 -0.00000000000E+00 -0.89481557996E+03  0.89481557996E+03  0.25500000000E-02 0.  1.
    5000001    1    1    2    0    0  0.20956984370E+03 -0.41555606265E+02 -0.72721576188E+03  0.78189075459E+03  0.19200000000E+03 0.  0.
   -5000001    1    1    2    0    0 -0.20956984370E+03  0.41555606265E+02  0.68020979549E+01  0.28732674142E+03  0.19200000000E+03 0.  0.
<mgrwt>
<rscale>  0 0.79008240E+03</rscale>
<asrwt>0</asrwt>
<pdfrwt beam="1">  1        2 0.12783079E+00 0.79008240E+03</pdfrwt>
<pdfrwt beam="2">  1       -2 0.24914560E-01 0.79008240E+03</pdfrwt>
<totfact> 0.47390080E+02</totfact>
</mgrwt>
</event>
<event>
 4    1  0.2892809E-005  0.1159534E+04  0.7818608E-02  0.9149033E-01
         -2   -1    0    0    0  501 -0.00000000000E+00  0.00000000000E+00  0.10948958107E+03  0.10948958109E+03  0.25500000000E-02 0. -1.
          2   -1    0    0  501    0  0.00000000000E+00 -0.00000000000E+00 -0.30699698759E+04  0.30699698759E+04  0.25500000000E-02 0.  1.
    5000001    1    1    2    0    0 -0.24395262444E+03 -0.44298063604E+03 -0.90820960388E+03  0.10570966897E+04  0.19200000000E+03 0.  0.
   -5000001    1    1    2    0    0  0.24395262444E+03  0.44298063604E+03 -0.20522706909E+04  0.21223627672E+04  0.19200000000E+03 0.  0.
<mgrwt>
<rscale>  0 0.11595339E+04</rscale>
<asrwt>0</asrwt>
<pdfrwt beam="1">  1        2 0.43856707E+00 0.11595339E+04</pdfrwt>
<pdfrwt beam="2">  1       -2 0.15641371E-01 0.11595339E+04</pdfrwt>
<totfact> 0.70687710E+01</totfact>
</mgrwt>
</event>
<event>
 4    1  0.2892809E-005  0.1067279E+04  0.7818608E-02  0.9237684E-01
          2   -1    0    0  501    0  0.00000000000E+00  0.00000000000E+00  0.29961783398E+04  0.29961783398E+04  0.25500000000E-02 0. -1.
         -2   -1    0    0    0  501 -0.00000000000E+00 -0.00000000000E+00 -0.95044773299E+02  0.95044773333E+02  0.25500000000E-02 0.  1.
    5000001    1    1    2    0    0  0.11012339112E+03  0.31594794017E+03  0.25185217010E+04  0.25478943896E+04  0.19200000000E+03 0.  0.
   -5000001    1    1    2    0    0 -0.11012339112E+03 -0.31594794017E+03  0.38261186543E+03  0.54332872346E+03  0.19200000000E+03 0.  0.
<mgrwt>
<rscale>  0 0.10672790E+04</rscale>
<asrwt>0</asrwt>
<pdfrwt beam="1">  1        2 0.42802540E+00 0.10672790E+04</pdfrwt>
<pdfrwt beam="2">  1       -2 0.13577827E-01 0.10672790E+04</pdfrwt>
<totfact> 0.99572254E+01</totfact>
</mgrwt>
</event>
<event>
 4    1  0.2892809E-005  0.6137754E+03  0.7818608E-02  0.9877232E-01
          2   -1    0    0  501    0  0.00000000000E+00  0.00000000000E+00  0.11147668282E+04  0.11147668282E+04  0.25500000000E-02 0.  1.
         -2   -1    0    0    0  501 -0.00000000000E+00 -0.00000000000E+00 -0.84484094341E+02  0.84484094380E+02  0.25500000000E-02 0. -1.
    5000001    1    1    2    0    0 -0.83655179088E+01  0.23710054284E+03  0.45245167223E+03  0.54576841701E+03  0.19200000000E+03 0.  0.
   -5000001    1    1    2    0    0  0.83655179088E+01 -0.23710054284E+03  0.57783106163E+03  0.65348250558E+03  0.19200000000E+03 0.  0.
<mgrwt>
<rscale>  0 0.61377542E+03</rscale>
<asrwt>0</asrwt>
<pdfrwt beam="1">  1        2 0.15925239E+00 0.61377542E+03</pdfrwt>
<pdfrwt beam="2">  1       -2 0.12069157E-01 0.61377542E+03</pdfrwt>
<totfact> 0.12149730E+03</totfact>
</mgrwt>
</event>
<event>
 4    1  0.2892809E-005  0.4316397E+03  0.7818608E-02  0.1033343E+00
          2   -1    0    0  501    0  0.00000000000E+00  0.00000000000E+00  0.39395656210E+03  0.39395656211E+03  0.25500000000E-02 0.  1.
         -2   -1    0    0    0  501 -0.00000000000E+00 -0.00000000000E+00 -0.11823181371E+03  0.11823181374E+03  0.25500000000E-02 0. -1.
    5000001    1    1    2    0    0 -0.82320154227E+02 -0.36247168302E+00  0.20217471762E+03  0.29071524835E+03  0.19200000000E+03 0.  0.
   -5000001    1    1    2    0    0  0.82320154227E+02  0.36247168302E+00  0.73550030771E+02  0.22147312750E+03  0.19200000000E+03 0.  0.
<mgrwt>
<rscale>  0 0.43163966E+03</rscale>
<asrwt>0</asrwt>
<pdfrwt beam="1">  1        2 0.56279511E-01 0.43163966E+03</pdfrwt>
<pdfrwt beam="2">  1       -2 0.16890259E-01 0.43163966E+03</pdfrwt>
<totfact> 0.24892865E+03</totfact>
</mgrwt>
</event>
<event>
 4    1  0.2892809E-005  0.4945968E+03  0.7818608E-02  0.1015199E+00
          2   -1    0    0  501    0  0.00000000000E+00  0.00000000000E+00  0.23160941228E+04  0.23160941228E+04  0.25500000000E-02 0. -1.
         -2   -1    0    0    0  501 -0.00000000000E+00 -0.00000000000E+00 -0.26405017620E+02  0.26405017743E+02  0.25500000000E-02 0.  1.
    5000001    1    1    2    0    0  0.10342819262E+03 -0.67697037611E+02  0.15944630358E+04  0.16107317133E+04  0.19200000000E+03 0.  0.
   -5000001    1    1    2    0    0 -0.10342819262E+03  0.67697037611E+02  0.69522606945E+03  0.73176742724E+03  0.19200000000E+03 0.  0.
<mgrwt>
<rscale>  0 0.49459683E+03</rscale>
<asrwt>0</asrwt>
<pdfrwt beam="1">  1        2 0.33087055E+00 0.49459683E+03</pdfrwt>
<pdfrwt beam="2">  1       -2 0.37721458E-02 0.49459683E+03</pdfrwt>
<totfact> 0.18291330E+03</totfact>
</mgrwt>
</event>
<event>
 4    1  0.2892809E-005  0.1446994E+04  0.7818608E-02  0.8920487E-01
          2   -1    0    0  501    0  0.00000000000E+00  0.00000000000E+00  0.12335764018E+04  0.12335764018E+04  0.25500000000E-02 0.  1.
         -2   -1    0    0    0  501 -0.00000000000E+00 -0.00000000000E+00 -0.42433358544E+03  0.42433358545E+03  0.25500000000E-02 0. -1.
    5000001    1    1    2    0    0  0.42368113234E+03 -0.51413966504E+03  0.16775451146E+03  0.71333783944E+03  0.19200000000E+03 0.  0.
   -5000001    1    1    2    0    0 -0.42368113234E+03  0.51413966504E+03  0.64148830486E+03  0.94457214777E+03  0.19200000000E+03 0.  0.
<mgrwt>
<rscale>  0 0.14469940E+04</rscale>
<asrwt>0</asrwt>
<pdfrwt beam="1">  1        2 0.17622520E+00 0.14469940E+04</pdfrwt>
<pdfrwt beam="2">  1       -2 0.60619084E-01 0.14469940E+04</pdfrwt>
<totfact> 0.50345132E+01</totfact>
</mgrwt>
</event>
<event>
 4    1  0.2892809E-005  0.9170441E+03  0.7818608E-02  0.9404523E-01
         -2   -1    0    0    0  501 -0.00000000000E+00  0.00000000000E+00  0.10540310437E+03  0.10540310440E+03  0.25500000000E-02 0. -1.
          2   -1    0    0  501    0  0.00000000000E+00 -0.00000000000E+00 -0.19946513793E+04  0.19946513794E+04  0.25500000000E-02 0.  1.
    5000001    1    1    2    0    0  0.38163117803E+03  0.15422908456E+03 -0.10885405680E+04  0.11794971534E+04  0.19200000000E+03 0.  0.
   -5000001    1    1    2    0    0 -0.38163117803E+03 -0.15422908456E+03 -0.80070770695E+03  0.92055733039E+03  0.19200000000E+03 0.  0.
<mgrwt>
<rscale>  0 0.91704405E+03</rscale>
<asrwt>0</asrwt>
<pdfrwt beam="1">  1        2 0.28495017E+00 0.91704405E+03</pdfrwt>
<pdfrwt beam="2">  1       -2 0.15057588E-01 0.91704405E+03</pdfrwt>
<totfact> 0.28330948E+02</totfact>
</mgrwt>
</event>
<event>
 4    1  0.2892809E-005  0.6624469E+03  0.7818608E-02  0.9783700E-01
          2   -1    0    0  501    0  0.00000000000E+00  0.00000000000E+00  0.31420786172E+04  0.31420786172E+04  0.25500000000E-02 0.  1.
         -2   -1    0    0    0  501 -0.00000000000E+00 -0.00000000000E+00 -0.34916046723E+02  0.34916046816E+02  0.25500000000E-02 0. -1.
    5000001    1    1    2    0    0  0.90323207625E+02  0.22029771923E+03  0.94400657803E+03  0.99232141280E+03  0.19200000000E+03 0.  0.
   -5000001    1    1    2    0    0 -0.90323207625E+02 -0.22029771923E+03  0.21631559925E+04  0.21846732512E+04  0.19200000000E+03 0.  0.
<mgrwt>
<rscale>  0 0.66244687E+03</rscale>
<asrwt>0</asrwt>
<pdfrwt beam="1">  1        2 0.44886819E+00 0.66244687E+03</pdfrwt>
<pdfrwt beam="2">  1       -2 0.49880087E-02 0.66244687E+03</pdfrwt>
<totfact> 0.43117048E+02</totfact>
</mgrwt>
</event>
<event>
 4    1  0.2892809E-005  0.5357674E+03  0.7818608E-02  0.1004843E+00
          2   -1    0    0  501    0  0.00000000000E+00  0.00000000000E+00  0.32290410508E+04  0.32290410508E+04  0.25500000000E-02 0.  1.
         -2   -1    0    0    0  501 -0.00000000000E+00 -0.00000000000E+00 -0.22223832364E+02  0.22223832510E+02  0.25500000000E-02 0. -1.
    5000001    1    1    2    0    0  0.18378356775E+03  0.77696031840E+01  0.14057510292E+04  0.14306770155E+04  0.19200000000E+03 0.  0.
   -5000001    1    1    2    0    0 -0.18378356775E+03 -0.77696031840E+01  0.18010661892E+04  0.18205878678E+04  0.19200000000E+03 0.  0.
<mgrwt>
<rscale>  0 0.53576736E+03</rscale>
<asrwt>0</asrwt>
<pdfrwt beam="1">  1        2 0.46129184E+00 0.53576736E+03</pdfrwt>
<pdfrwt beam="2">  1       -2 0.31748314E-02 0.53576736E+03</pdfrwt>
<totfact> 0.78168559E+02</totfact>
</mgrwt>
</event>
<event>
 4    1  0.2892809E-005  0.5844858E+03  0.7818608E-02  0.9938126E-01
         -2   -1    0    0    0  501 -0.00000000000E+00  0.00000000000E+00  0.28384847058E+02  0.28384847173E+02  0.25500000000E-02 0. -1.
          2   -1    0    0  501    0  0.00000000000E+00 -0.00000000000E+00 -0.30088557235E+04  0.30088557235E+04  0.25500000000E-02 0.  1.
    5000001    1    1    2    0    0  0.52342051319E+02 -0.21116176856E+03 -0.13092587886E+04  0.13410263079E+04  0.19200000000E+03 0.  0.
   -5000001    1    1    2    0    0 -0.52342051319E+02  0.21116176856E+03 -0.16712120878E+04  0.16962142628E+04  0.19200000000E+03 0.  0.
<mgrwt>
<rscale>  0 0.58448579E+03</rscale>
<asrwt>0</asrwt>
<pdfrwt beam="1">  1        2 0.42983633E+00 0.58448579E+03</pdfrwt>
<pdfrwt beam="2">  1       -2 0.40549801E-02 0.58448579E+03</pdfrwt>
<totfact> 0.70851912E+02</totfact>
</mgrwt>
</event>
<event>
 4    1  0.2892809E-005  0.4966099E+03  0.7818608E-02  0.1014668E+00
         -2   -1    0    0    0  501 -0.00000000000E+00  0.00000000000E+00  0.13153603529E+03  0.13153603531E+03  0.25500000000E-02 0. -1.
          2   -1    0    0  501    0  0.00000000000E+00 -0.00000000000E+00 -0.46873343092E+03  0.46873343093E+03  0.25500000000E-02 0.  1.
    5000001    1    1    2    0    0 -0.15739730222E+03  0.20241718241E+01 -0.16418572364E+03  0.29765577411E+03  0.19200000000E+03 0.  0.
   -5000001    1    1    2    0    0  0.15739730222E+03 -0.20241718241E+01 -0.17301167199E+03  0.30261369213E+03  0.19200000000E+03 0.  0.
<mgrwt>
<rscale>  0 0.49660986E+03</rscale>
<asrwt>0</asrwt>
<pdfrwt beam="1">  1        2 0.66961918E-01 0.49660986E+03</pdfrwt>
<pdfrwt beam="2">  1       -2 0.18790862E-01 0.49660986E+03</pdfrwt>
<totfact> 0.17135810E+03</totfact>
</mgrwt>
</event>
<event>
 4    1  0.2892809E-005  0.5015786E+03  0.7818608E-02  0.1013368E+00
          2   -1    0    0  501    0  0.00000000000E+00  0.00000000000E+00  0.78568213105E+02  0.78568213147E+02  0.25500000000E-02 0.  1.
         -2   -1    0    0    0  501 -0.00000000000E+00 -0.00000000000E+00 -0.80051816931E+03  0.80051816932E+03  0.25500000000E-02 0. -1.
    5000001    1    1    2    0    0  0.11194946586E+03  0.92930289843E+02 -0.48319012371E+03  0.53991241635E+03  0.19200000000E+03 0.  0.
   -5000001    1    1    2    0    0 -0.11194946586E+03 -0.92930289843E+02 -0.23875983249E+03  0.33917396611E+03  0.19200000000E+03 0.  0.
<mgrwt>
<rscale>  0 0.50157864E+03</rscale>
<asrwt>0</asrwt>
<pdfrwt beam="1">  1        2 0.11224031E-01 0.50157864E+03</pdfrwt>
<pdfrwt beam="2">  1       -2 0.11435973E+00 0.50157864E+03</pdfrwt>
<totfact> 0.34735430E+02</totfact>
</mgrwt>
</event>
<event>
 4    1  0.2892809E-005  0.5268766E+03  0.7818608E-02  0.1006992E+00
         -2   -1    0    0    0  501 -0.00000000000E+00  0.00000000000E+00  0.33340976822E+02  0.33340976919E+02  0.25500000000E-02 0. -1.
          2   -1    0    0  501    0  0.00000000000E+00 -0.00000000000E+00 -0.20815149761E+04  0.20815149761E+04  0.25500000000E-02 0.  1.
    5000001    1    1    2    0    0  0.11800248981E+03 -0.49123005073E+02 -0.15349491288E+04  0.15521824910E+04  0.19200000000E+03 0.  0.
   -5000001    1    1    2    0    0 -0.11800248981E+03  0.49123005073E+02 -0.51322487042E+03  0.56267346200E+03  0.19200000000E+03 0.  0.
<mgrwt>
<rscale>  0 0.52687662E+03</rscale>
<asrwt>0</asrwt>
<pdfrwt beam="1">  1        2 0.29735920E+00 0.52687662E+03</pdfrwt>
<pdfrwt beam="2">  1       -2 0.47629980E-02 0.52687662E+03</pdfrwt>
<totfact> 0.16736992E+03</totfact>
</mgrwt>
</event>
<event>
 4    1  0.2892809E-005  0.6339590E+03  0.7818608E-02  0.9837353E-01
          2   -1    0    0  501    0  0.00000000000E+00  0.00000000000E+00  0.11671583956E+04  0.11671583956E+04  0.25500000000E-02 0.  1.
         -2   -1    0    0    0  501 -0.00000000000E+00 -0.00000000000E+00 -0.86086011674E+02  0.86086011711E+02  0.25500000000E-02 0. -1.
    5000001    1    1    2    0    0  0.23076832722E+03 -0.26769787145E+02  0.73464441662E+03  0.79406363801E+03  0.19200000000E+03 0.  0.
   -5000001    1    1    2    0    0 -0.23076832722E+03  0.26769787145E+02  0.34642796727E+03  0.45918076926E+03  0.19200000000E+03 0.  0.
<mgrwt>
<rscale>  0 0.63395902E+03</rscale>
<asrwt>0</asrwt>
<pdfrwt beam="1">  1        2 0.16673691E+00 0.63395902E+03</pdfrwt>
<pdfrwt beam="2">  1       -2 0.12298002E-01 0.63395902E+03</pdfrwt>
<totfact> 0.10985762E+03</totfact>
</mgrwt>
</event>
<event>
 4    1  0.2892809E-005  0.6217107E+03  0.7818608E-02  0.9861360E-01
          2   -1    0    0  501    0  0.00000000000E+00  0.00000000000E+00  0.37835814284E+03  0.37835814285E+03  0.25500000000E-02 0.  1.
         -2   -1    0    0    0  501 -0.00000000000E+00 -0.00000000000E+00 -0.25539573323E+03  0.25539573324E+03  0.25500000000E-02 0. -1.
    5000001    1    1    2    0    0 -0.14074858074E+03  0.19898275898E+03  0.42066161720E+02  0.31310998597E+03  0.19200000000E+03 0.  0.
   -5000001    1    1    2    0    0  0.14074858074E+03 -0.19898275898E+03  0.80896247889E+02  0.32064389012E+03  0.19200000000E+03 0.  0.
<mgrwt>
<rscale>  0 0.62171072E+03</rscale>
<asrwt>0</asrwt>
<pdfrwt beam="1">  1        2 0.54051163E-01 0.62171072E+03</pdfrwt>
<pdfrwt beam="2">  1       -2 0.36485105E-01 0.62171072E+03</pdfrwt>
<totfact> 0.65461240E+02</totfact>
</mgrwt>
</event>
<event>
 4    1  0.2892809E-005  0.4932743E+03  0.7818608E-02  0.1015549E+00
          2   -1    0    0  501    0  0.00000000000E+00  0.00000000000E+00  0.67602598571E+02  0.67602598619E+02  0.25500000000E-02 0.  1.
         -2   -1    0    0    0  501 -0.00000000000E+00 -0.00000000000E+00 -0.89981559542E+03  0.89981559543E+03  0.25500000000E-02 0. -1.
    5000001    1    1    2    0    0 -0.35073095165E+02 -0.12972651513E+03 -0.26537595489E+03  0.35404447202E+03  0.19200000000E+03 0.  0.
   -5000001    1    1    2    0    0  0.35073095165E+02  0.12972651513E+03 -0.56683704196E+03  0.61337372203E+03  0.19200000000E+03 0.  0.
<mgrwt>
<rscale>  0 0.49327425E+03</rscale>
<asrwt>0</asrwt>
<pdfrwt beam="1">  1        2 0.96575146E-02 0.49327425E+03</pdfrwt>
<pdfrwt beam="2">  1       -2 0.12854508E+00 0.49327425E+03</pdfrwt>
<totfact> 0.31469020E+02</totfact>
</mgrwt>
</event>
<event>
 4    1  0.2892809E-005  0.5210022E+03  0.7818608E-02  0.1008438E+00
          2   -1    0    0  501    0  0.00000000000E+00  0.00000000000E+00  0.50550382667E+03  0.50550382667E+03  0.25500000000E-02 0.  1.
         -2   -1    0    0    0  501 -0.00000000000E+00 -0.00000000000E+00 -0.13424393578E+03  0.13424393580E+03  0.25500000000E-02 0. -1.
    5000001    1    1    2    0    0 -0.17485755222E+03 -0.20434370576E+02  0.18314475885E+03  0.31843167205E+03  0.19200000000E+03 0.  0.
   -5000001    1    1    2    0    0  0.17485755222E+03  0.20434370576E+02  0.18811513204E+03  0.32131609043E+03  0.19200000000E+03 0.  0.
<mgrwt>
<rscale>  0 0.52100220E+03</rscale>
<asrwt>0</asrwt>
<pdfrwt beam="1">  1        2 0.72214833E-01 0.52100220E+03</pdfrwt>
<pdfrwt beam="2">  1       -2 0.19177705E-01 0.52100220E+03</pdfrwt>
<totfact> 0.15195181E+03</totfact>
</mgrwt>
</event>
<event>
 4    1  0.2892809E-005  0.4235182E+03  0.7818608E-02  0.1035927E+00
          2   -1    0    0  501    0  0.00000000000E+00  0.00000000000E+00  0.14381280478E+04  0.14381280478E+04  0.25500000000E-02 0.  1.
         -2   -1    0    0    0  501 -0.00000000000E+00 -0.00000000000E+00 -0.31180748839E+02  0.31180748944E+02  0.25500000000E-02 0. -1.
    5000001    1    1    2    0    0 -0.19500519627E+02  0.12854930068E+02  0.10025659825E+04  0.10210524319E+04  0.19200000000E+03 0.  0.
   -5000001    1    1    2    0    0  0.19500519627E+02 -0.12854930068E+02  0.40438131648E+03  0.44825636483E+03  0.19200000000E+03 0.  0.
<mgrwt>
<rscale>  0 0.42351817E+03</rscale>
<asrwt>0</asrwt>
<pdfrwt beam="1">  1        2 0.20544694E+00 0.42351817E+03</pdfrwt>
<pdfrwt beam="2">  1       -2 0.44543910E-02 0.42351817E+03</pdfrwt>
<totfact> 0.39280941E+03</totfact>
</mgrwt>
</event>
<event>
 4    1  0.2892809E-005  0.7263308E+03  0.7818608E-02  0.9673233E-01
          2   -1    0    0  501    0  0.00000000000E+00  0.00000000000E+00  0.32429815252E+03  0.32429815253E+03  0.25500000000E-02 0.  1.
         -2   -1    0    0    0  501 -0.00000000000E+00 -0.00000000000E+00 -0.40669086535E+03  0.40669086536E+03  0.25500000000E-02 0. -1.
    5000001    1    1    2    0    0 -0.28743586478E+03 -0.95091524959E+02 -0.99562449296E+02  0.37207318607E+03  0.19200000000E+03 0.  0.
   -5000001    1    1    2    0    0  0.28743586478E+03  0.95091524959E+02  0.17169736464E+02  0.35891583182E+03  0.19200000000E+03 0.  0.
<mgrwt>
<rscale>  0 0.72633077E+03</rscale>
<asrwt>0</asrwt>
<pdfrwt beam="1">  1        2 0.46328308E-01 0.72633077E+03</pdfrwt>
<pdfrwt beam="2">  1       -2 0.58098695E-01 0.72633077E+03</pdfrwt>
<totfact> 0.30567780E+02</totfact>
</mgrwt>
</event>
<event>
 4    1  0.2892809E-005  0.4704223E+03  0.7818608E-02  0.1021801E+00
          2   -1    0    0  501    0  0.00000000000E+00  0.00000000000E+00  0.38470784266E+03  0.38470784267E+03  0.25500000000E-02 0.  1.
         -2   -1    0    0    0  501 -0.00000000000E+00 -0.00000000000E+00 -0.14380854906E+03  0.14380854908E+03  0.25500000000E-02 0. -1.
    5000001    1    1    2    0    0 -0.72442164702E+02 -0.11418973627E+03  0.10566754614E+03  0.25752047182E+03  0.19200000000E+03 0.  0.
   -5000001    1    1    2    0    0  0.72442164702E+02  0.11418973627E+03  0.13523174746E+03  0.27099591993E+03  0.19200000000E+03 0.  0.
<mgrwt>
<rscale>  0 0.47042226E+03</rscale>
<asrwt>0</asrwt>
<pdfrwt beam="1">  1        2 0.54958262E-01 0.47042226E+03</pdfrwt>
<pdfrwt beam="2">  1       -2 0.20544079E-01 0.47042226E+03</pdfrwt>
<totfact> 0.18278197E+03</totfact>
</mgrwt>
</event>
<event>
 4    1  0.2892809E-005  0.7189778E+03  0.7818608E-02  0.9685317E-01
         -2   -1    0    0    0  501 -0.00000000000E+00  0.00000000000E+00  0.14032301468E+03  0.14032301470E+03  0.25500000000E-02 0.  1.
          2   -1    0    0  501    0  0.00000000000E+00 -0.00000000000E+00 -0.92096264450E+03  0.92096264451E+03  0.25500000000E-02 0. -1.
    5000001    1    1    2    0    0 -0.20265884230E+03  0.20729261562E+03 -0.52502120263E+03  0.62972382682E+03  0.19200000000E+03 0.  0.
   -5000001    1    1    2    0    0  0.20265884230E+03 -0.20729261562E+03 -0.25561842720E+03  0.43156183239E+03  0.19200000000E+03 0.  0.
<mgrwt>
<rscale>  0 0.71897776E+03</rscale>
<asrwt>0</asrwt>
<pdfrwt beam="1">  1        2 0.13156609E+00 0.71897776E+03</pdfrwt>
<pdfrwt beam="2">  1       -2 0.20046145E-01 0.71897776E+03</pdfrwt>
<totfact> 0.67213563E+02</totfact>
</mgrwt>
</event>
<event>
 4    1  0.2892809E-005  0.5436204E+03  0.7818608E-02  0.1002981E+00
          2   -1    0    0  501    0  0.00000000000E+00  0.00000000000E+00  0.26911526884E+04  0.26911526884E+04  0.25500000000E-02 0.  1.
         -2   -1    0    0    0  501 -0.00000000000E+00 -0.00000000000E+00 -0.27453207470E+02  0.27453207588E+02  0.25500000000E-02 0. -1.
    5000001    1    1    2    0    0  0.59551169051E+02  0.18205693366E+03  0.14221028911E+04  0.14477332979E+04  0.19200000000E+03 0.  0.
   -5000001    1    1    2    0    0 -0.59551169051E+02 -0.18205693366E+03  0.12415965899E+04  0.12708725982E+04  0.19200000000E+03 0.  0.
<mgrwt>
<rscale>  0 0.54362036E+03</rscale>
<asrwt>0</asrwt>
<pdfrwt beam="1">  1        2 0.38445058E+00 0.54362036E+03</pdfrwt>
<pdfrwt beam="2">  1       -2 0.39218848E-02 0.54362036E+03</pdfrwt>
<totfact> 0.11046124E+03</totfact>
</mgrwt>
</event>
<event>
 4    1  0.2892809E-005  0.5064544E+03  0.7818608E-02  0.1012108E+00
          2   -1    0    0  501    0  0.00000000000E+00  0.00000000000E+00  0.76263398971E+03  0.76263398972E+03  0.25500000000E-02 0.  1.
         -2   -1    0    0    0  501 -0.00000000000E+00 -0.00000000000E+00 -0.84082301097E+02  0.84082301136E+02  0.25500000000E-02 0. -1.
    5000001    1    1    2    0    0 -0.18645197656E+02 -0.89464331323E+02  0.56916908898E+03  0.60759275986E+03  0.19200000000E+03 0.  0.
   -5000001    1    1    2    0    0  0.18645197656E+02  0.89464331323E+02  0.10938259963E+03  0.23912353100E+03  0.19200000000E+03 0.  0.
<mgrwt>
<rscale>  0 0.50645442E+03</rscale>
<asrwt>0</asrwt>
<pdfrwt beam="1">  1        2 0.10894771E+00 0.50645442E+03</pdfrwt>
<pdfrwt beam="2">  1       -2 0.12011757E-01 0.50645442E+03</pdfrwt>
<totfact> 0.20504865E+03</totfact>
</mgrwt>
</event>
<event>
 4    1  0.2892809E-005  0.4557931E+03  0.7818608E-02  0.1026008E+00
          2   -1    0    0  501    0  0.00000000000E+00  0.00000000000E+00  0.15762445850E+04  0.15762445850E+04  0.25500000000E-02 0.  1.
         -2   -1    0    0    0  501 -0.00000000000E+00 -0.00000000000E+00 -0.32949739311E+02  0.32949739409E+02  0.25500000000E-02 0. -1.
    5000001    1    1    2    0    0  0.65264697869E+02  0.81750267537E+02  0.54475005361E+03  0.58699165917E+03  0.19200000000E+03 0.  0.
   -5000001    1    1    2    0    0 -0.65264697869E+02 -0.81750267537E+02  0.99854479206E+03  0.10222026652E+04  0.19200000000E+03 0.  0.
<mgrwt>
<rscale>  0 0.45579315E+03</rscale>
<asrwt>0</asrwt>
<pdfrwt beam="1">  1        2 0.22517782E+00 0.45579315E+03</pdfrwt>
<pdfrwt beam="2">  1       -2 0.47071052E-02 0.45579315E+03</pdfrwt>
<totfact> 0.30639011E+03</totfact>
</mgrwt>
</event>
<event>
 4    1  0.2892809E-005  0.6935561E+03  0.7818608E-02  0.9728316E-01
          2   -1    0    0  501    0  0.00000000000E+00  0.00000000000E+00  0.45459647163E+03  0.45459647164E+03  0.25500000000E-02 0.  1.
         -2   -1    0    0    0  501 -0.00000000000E+00 -0.00000000000E+00 -0.26453131466E+03  0.26453131468E+03  0.25500000000E-02 0. -1.
    5000001    1    1    2    0    0 -0.19357241493E+03 -0.20591101518E+03  0.33503456627E+02  0.34330177337E+03  0.19200000000E+03 0.  0.
   -5000001    1    1    2    0    0  0.19357241493E+03  0.20591101518E+03  0.15656170034E+03  0.37582601295E+03  0.19200000000E+03 0.  0.
<mgrwt>
<rscale>  0 0.69355606E+03</rscale>
<asrwt>0</asrwt>
<pdfrwt beam="1">  1        2 0.64942352E-01 0.69355606E+03</pdfrwt>
<pdfrwt beam="2">  1       -2 0.37790188E-01 0.69355606E+03</pdfrwt>
<totfact> 0.49766123E+02</totfact>
</mgrwt>
</event>
<event>
 4    1  0.2892809E-005  0.5333248E+03  0.7818608E-02  0.1005429E+00
          2   -1    0    0  501    0  0.00000000000E+00  0.00000000000E+00  0.14936943863E+04  0.14936943863E+04  0.25500000000E-02 0.  1.
         -2   -1    0    0    0  501 -0.00000000000E+00 -0.00000000000E+00 -0.47606018881E+02  0.47606018949E+02  0.25500000000E-02 0. -1.
    5000001    1    1    2    0    0  0.77112084868E+02 -0.44806536262E+02  0.11916401861E+04  0.12102992326E+04  0.19200000000E+03 0.  0.
   -5000001    1    1    2    0    0 -0.77112084868E+02  0.44806536262E+02  0.25444818139E+03  0.33100117271E+03  0.19200000000E+03 0.  0.
<mgrwt>
<rscale>  0 0.53332483E+03</rscale>
<asrwt>0</asrwt>
<pdfrwt beam="1">  1        2 0.21338490E+00 0.53332483E+03</pdfrwt>
<pdfrwt beam="2">  1       -2 0.68008601E-02 0.53332483E+03</pdfrwt>
<totfact> 0.19041295E+03</totfact>
</mgrwt>
</event>
<event>
 4    1  0.2892809E-005  0.6453414E+03  0.7818608E-02  0.9815560E-01
         -2   -1    0    0    0  501 -0.00000000000E+00  0.00000000000E+00  0.10282724892E+03  0.10282724896E+03  0.25500000000E-02 0. -1.
          2   -1    0    0  501    0  0.00000000000E+00 -0.00000000000E+00 -0.10125368420E+04  0.10125368420E+04  0.25500000000E-02 0.  1.
    5000001    1    1    2    0    0 -0.24585965909E+03  0.20735819617E+02 -0.31685389079E+03  0.44512620041E+03  0.19200000000E+03 0.  0.
   -5000001    1    1    2    0    0  0.24585965909E+03 -0.20735819617E+02 -0.59285570225E+03  0.67023789051E+03  0.19200000000E+03 0.  0.
<mgrwt>
<rscale>  0 0.64534139E+03</rscale>
<asrwt>0</asrwt>
<pdfrwt beam="1">  1        2 0.14464811E+00 0.64534139E+03</pdfrwt>
<pdfrwt beam="2">  1       -2 0.14689608E-01 0.64534139E+03</pdfrwt>
<totfact> 0.10062306E+03</totfact>
</mgrwt>
</event>
<event>
 4    1  0.2892809E-005  0.5869132E+03  0.7818608E-02  0.9932935E-01
          2   -1    0    0  501    0  0.00000000000E+00  0.00000000000E+00  0.42021351490E+03  0.42021351491E+03  0.25500000000E-02 0.  1.
         -2   -1    0    0    0  501 -0.00000000000E+00 -0.00000000000E+00 -0.20493578213E+03  0.20493578215E+03  0.25500000000E-02 0. -1.
    5000001    1    1    2    0    0 -0.20646555885E+03 -0.80847314308E+02  0.97620240169E+02  0.30912461324E+03  0.19200000000E+03 0.  0.
   -5000001    1    1    2    0    0  0.20646555885E+03  0.80847314308E+02  0.11765749260E+03  0.31602468382E+03  0.19200000000E+03 0.  0.
<mgrwt>
<rscale>  0 0.58691323E+03</rscale>
<asrwt>0</asrwt>
<pdfrwt beam="1">  1        2 0.60030501E-01 0.58691323E+03</pdfrwt>
<pdfrwt beam="2">  1       -2 0.29276541E-01 0.58691323E+03</pdfrwt>
<totfact> 0.88037608E+02</totfact>
</mgrwt>
</event>
<event>
 4    1  0.2892809E-005  0.4937125E+03  0.7818608E-02  0.1015433E+00
          2   -1    0    0  501    0  0.00000000000E+00  0.00000000000E+00  0.52869194051E+03  0.52869194052E+03  0.25500000000E-02 0.  1.
         -2   -1    0    0    0  501 -0.00000000000E+00 -0.00000000000E+00 -0.11526184437E+03  0.11526184440E+03  0.25500000000E-02 0. -1.
    5000001    1    1    2    0    0  0.89499590270E+02 -0.12438676405E+03  0.23844394785E+03  0.34234742586E+03  0.19200000000E+03 0.  0.
   -5000001    1    1    2    0    0 -0.89499590270E+02  0.12438676405E+03  0.17498614829E+03  0.30160635905E+03  0.19200000000E+03 0.  0.
<mgrwt>
<rscale>  0 0.49371250E+03</rscale>
<asrwt>0</asrwt>
<pdfrwt beam="1">  1        2 0.75527420E-01 0.49371250E+03</pdfrwt>
<pdfrwt beam="2">  1       -2 0.16465978E-01 0.49371250E+03</pdfrwt>
<totfact> 0.18736349E+03</totfact>
</mgrwt>
</event>
<event>
 4    1  0.2892809E-005  0.1286506E+04  0.7818608E-02  0.9040335E-01
         -2   -1    0    0    0  501 -0.00000000000E+00  0.00000000000E+00  0.44682793437E+03  0.44682793438E+03  0.25500000000E-02 0. -1.
          2   -1    0    0  501    0  0.00000000000E+00 -0.00000000000E+00 -0.92602628129E+03  0.92602628129E+03  0.25500000000E-02 0.  1.
    5000001    1    1    2    0    0  0.52224192889E+03 -0.31353095128E+03 -0.32137220534E+03  0.71497019803E+03  0.19200000000E+03 0.  0.
   -5000001    1    1    2    0    0 -0.52224192889E+03  0.31353095128E+03 -0.15782614157E+03  0.65788401764E+03  0.19200000000E+03 0.  0.
<mgrwt>
<rscale>  0 0.12865060E+04</rscale>
<asrwt>0</asrwt>
<pdfrwt beam="1">  1        2 0.13228947E+00 0.12865060E+04</pdfrwt>
<pdfrwt beam="2">  1       -2 0.63832562E-01 0.12865060E+04</pdfrwt>
<totfact> 0.69723960E+01</totfact>
</mgrwt>
</event>
<event>
 4    1  0.2892809E-005  0.5778122E+03  0.7818608E-02  0.9952539E-01
         -2   -1    0    0    0  501 -0.00000000000E+00  0.00000000000E+00  0.39953893806E+02  0.39953893888E+02  0.25500000000E-02 0. -1.
          2   -1    0    0  501    0  0.00000000000E+00 -0.00000000000E+00 -0.20890765226E+04  0.20890765226E+04  0.25500000000E-02 0.  1.
    5000001    1    1    2    0    0 -0.33165276685E+00  0.20837256613E+03 -0.12324581745E+04  0.12646091840E+04  0.19200000000E+03 0.  0.
   -5000001    1    1    2    0    0  0.33165276685E+00 -0.20837256613E+03 -0.81666445428E+03  0.86442123250E+03  0.19200000000E+03 0.  0.
<mgrwt>
<rscale>  0 0.57781222E+03</rscale>
<asrwt>0</asrwt>
<pdfrwt beam="1">  1        2 0.29843943E+00 0.57781222E+03</pdfrwt>
<pdfrwt beam="2">  1       -2 0.57077004E-02 0.57781222E+03</pdfrwt>
<totfact> 0.12496424E+03</totfact>
</mgrwt>
</event>
<event>
 4    1  0.2892809E-005  0.1079892E+04  0.7818608E-02  0.9225015E-01
         -2   -1    0    0    0  501 -0.00000000000E+00  0.00000000000E+00  0.19806203338E+03  0.19806203340E+03  0.25500000000E-02 0. -1.
          2   -1    0    0  501    0  0.00000000000E+00 -0.00000000000E+00 -0.14719724743E+04  0.14719724743E+04  0.25500000000E-02 0.  1.
    5000001    1    1    2    0    0  0.78933762510E+02 -0.37882176097E+03 -0.11379329344E+04  0.12171654894E+04  0.19200000000E+03 0.  0.
   -5000001    1    1    2    0    0 -0.78933762510E+02  0.37882176097E+03 -0.13597750654E+03  0.45286901830E+03  0.19200000000E+03 0.  0.
<mgrwt>
<rscale>  0 0.10798923E+04</rscale>
<asrwt>0</asrwt>
<pdfrwt beam="1">  1        2 0.21028178E+00 0.10798923E+04</pdfrwt>
<pdfrwt beam="2">  1       -2 0.28294577E-01 0.10798923E+04</pdfrwt>
<totfact> 0.17163557E+02</totfact>
</mgrwt>
</event>
<event>
 4    1  0.2892809E-005  0.1192760E+04  0.7818608E-02  0.9119217E-01
          2   -1    0    0  501    0  0.00000000000E+00  0.00000000000E+00  0.93433943869E+03  0.93433943869E+03  0.25500000000E-02 0.  1.
         -2   -1    0    0    0  501 -0.00000000000E+00 -0.00000000000E+00 -0.38066398710E+03  0.38066398711E+03  0.25500000000E-02 0. -1.
    5000001    1    1    2    0    0  0.40226566780E+03  0.18670426821E+03  0.66212392432E+03  0.81972449177E+03  0.19200000000E+03 0.  0.
   -5000001    1    1    2    0    0 -0.40226566780E+03 -0.18670426821E+03 -0.10844847273E+03  0.49527893403E+03  0.19200000000E+03 0.  0.
<mgrwt>
<rscale>  0 0.11927605E+04</rscale>
<asrwt>0</asrwt>
<pdfrwt beam="1">  1        2 0.13347706E+00 0.11927605E+04</pdfrwt>
<pdfrwt beam="2">  1       -2 0.54380570E-01 0.11927605E+04</pdfrwt>
<totfact> 0.97111681E+01</totfact>
</mgrwt>
</event>
<event>
 4    1  0.2892809E-005  0.7815736E+03  0.7818608E-02  0.9587078E-01
          2   -1    0    0  501    0  0.00000000000E+00  0.00000000000E+00  0.14167307634E+04  0.14167307634E+04  0.25500000000E-02 0.  1.
         -2   -1    0    0    0  501 -0.00000000000E+00 -0.00000000000E+00 -0.10779345607E+03  0.10779345610E+03  0.25500000000E-02 0. -1.
    5000001    1    1    2    0    0  0.11025731118E+03  0.21360686222E+03  0.11244974341E+04  0.11658229049E+04  0.19200000000E+03 0.  0.
   -5000001    1    1    2    0    0 -0.11025731118E+03 -0.21360686222E+03  0.18443987320E+03  0.35870131458E+03  0.19200000000E+03 0.  0.
<mgrwt>
<rscale>  0 0.78157355E+03</rscale>
<asrwt>0</asrwt>
<pdfrwt beam="1">  1        2 0.20239011E+00 0.78157355E+03</pdfrwt>
<pdfrwt beam="2">  1       -2 0.15399065E-01 0.78157355E+03</pdfrwt>
<totfact> 0.54671427E+02</totfact>
</mgrwt>
</event>
<event>
 4    1  0.2892809E-005  0.4634083E+03  0.7818608E-02  0.1023797E+00
          2   -1    0    0  501    0  0.00000000000E+00  0.00000000000E+00  0.10506575420E+04  0.10506575420E+04  0.25500000000E-02 0.  1.
         -2   -1    0    0    0  501 -0.00000000000E+00 -0.00000000000E+00 -0.51098289061E+02  0.51098289125E+02  0.25500000000E-02 0. -1.
    5000001    1    1    2    0    0  0.37083353132E+02  0.12364816199E+03  0.46982307392E+03  0.52370007049E+03  0.19200000000E+03 0.  0.
   -5000001    1    1    2    0    0 -0.37083353132E+02 -0.12364816199E+03  0.52973617899E+03  0.57805576061E+03  0.19200000000E+03 0.  0.
<mgrwt>
<rscale>  0 0.46340826E+03</rscale>
<asrwt>0</asrwt>
<pdfrwt beam="1">  1        2 0.15009393E+00 0.46340826E+03</pdfrwt>
<pdfrwt beam="2">  1       -2 0.72997557E-02 0.46340826E+03</pdfrwt>
<totfact> 0.29798081E+03</totfact>
</mgrwt>
</event>
<event>
 4    1  0.2892809E-005  0.4737655E+03  0.7818608E-02  0.1020863E+00
          2   -1    0    0  501    0  0.00000000000E+00  0.00000000000E+00  0.63656428320E+02  0.63656428371E+02  0.25500000000E-02 0. -1.
         -2   -1    0    0    0  501 -0.00000000000E+00 -0.00000000000E+00 -0.88150471570E+03  0.88150471571E+03  0.25500000000E-02 0.  1.
    5000001    1    1    2    0    0  0.12046724311E+03  0.42054434837E+02 -0.51761966270E+03  0.56663484482E+03  0.19200000000E+03 0.  0.
   -5000001    1    1    2    0    0 -0.12046724311E+03 -0.42054434837E+02 -0.30022862469E+03  0.37852629926E+03  0.19200000000E+03 0.  0.
<mgrwt>
<rscale>  0 0.47376552E+03</rscale>
<asrwt>0</asrwt>
<pdfrwt beam="1">  1        2 0.90937760E-02 0.47376552E+03</pdfrwt>
<pdfrwt beam="2">  1       -2 0.12592924E+00 0.47376552E+03</pdfrwt>
<totfact> 0.35767262E+02</totfact>
</mgrwt>
</event>
<event>
 4    1  0.2892809E-005  0.7089490E+03  0.7818608E-02  0.9702050E-01
          2   -1    0    0  501    0  0.00000000000E+00  0.00000000000E+00  0.36411090241E+03  0.36411090242E+03  0.25500000000E-02 0.  1.
         -2   -1    0    0    0  501 -0.00000000000E+00 -0.00000000000E+00 -0.34509308279E+03  0.34509308280E+03  0.25500000000E-02 0. -1.
    5000001    1    1    2    0    0 -0.63341822612E+02  0.16248632087E+03 -0.23218546108E+03  0.34812078263E+03  0.19200000000E+03 0.  0.
   -5000001    1    1    2    0    0  0.63341822612E+02 -0.16248632087E+03  0.25120328070E+03  0.36108320259E+03  0.19200000000E+03 0.  0.
<mgrwt>
<rscale>  0 0.70894895E+03</rscale>
<asrwt>0</asrwt>
<pdfrwt beam="1">  1        2 0.52015843E-01 0.70894895E+03</pdfrwt>
<pdfrwt beam="2">  1       -2 0.49299012E-01 0.70894895E+03</pdfrwt>
<totfact> 0.37722390E+02</totfact>
</mgrwt>
</event>
<event>
 4    1  0.2892809E-005  0.5876526E+03  0.7818608E-02  0.9931359E-01
         -2   -1    0    0    0  501 -0.00000000000E+00  0.00000000000E+00  0.88875583216E+02  0.88875583252E+02  0.25500000000E-02 0. -1.
          2   -1    0    0  501    0  0.00000000000E+00 -0.00000000000E+00 -0.97140176552E+03  0.97140176553E+03  0.25500000000E-02 0.  1.
    5000001    1    1    2    0    0  0.59794964728E+02 -0.21418261322E+03 -0.44938603469E+03  0.53689983962E+03  0.19200000000E+03 0.  0.
   -5000001    1    1    2    0    0 -0.59794964728E+02  0.21418261322E+03 -0.43314014761E+03  0.52337750915E+03  0.19200000000E+03 0.  0.
<mgrwt>
<rscale>  0 0.58765261E+03</rscale>
<asrwt>0</asrwt>
<pdfrwt beam="1">  1        2 0.13877167E+00 0.58765261E+03</pdfrwt>
<pdfrwt beam="2">  1       -2 0.12696512E-01 0.58765261E+03</pdfrwt>
<totfact> 0.13618020E+03</totfact>
</mgrwt>
</event>
<event>
 4    1  0.2892809E-005  0.6457464E+03  0.7818608E-02  0.9814794E-01
          2   -1    0    0  501    0  0.00000000000E+00  0.00000000000E+00  0.12884529458E+04  0.12884529458E+04  0.25500000000E-02 0.  1.
         -2   -1    0    0    0  501 -0.00000000000E+00 -0.00000000000E+00 -0.80908740380E+02  0.80908740420E+02  0.25500000000E-02 0. -1.
    5000001    1    1    2    0    0 -0.17138051554E+02 -0.23330575020E+03  0.84235297186E+03  0.89506860915E+03  0.19200000000E+03 0.  0.
   -5000001    1    1    2    0    0  0.17138051554E+02  0.23330575020E+03  0.36519123355E+03  0.47429307706E+03  0.19200000000E+03 0.  0.
<mgrwt>
<rscale>  0 0.64574641E+03</rscale>
<asrwt>0</asrwt>
<pdfrwt beam="1">  1        2 0.18406471E+00 0.64574641E+03</pdfrwt>
<pdfrwt beam="2">  1       -2 0.11558391E-01 0.64574641E+03</pdfrwt>
<totfact> 0.10410865E+03</totfact>
</mgrwt>
</event>
<event>
 4    1  0.2892809E-005  0.2174749E+04  0.7818608E-02  0.8529012E-01
         -2   -1    0    0    0  501 -0.00000000000E+00  0.00000000000E+00  0.43574104108E+03  0.43574104109E+03  0.25500000000E-02 0. -1.
          2   -1    0    0  501    0  0.00000000000E+00 -0.00000000000E+00 -0.27135011274E+04  0.27135011274E+04  0.25500000000E-02 0.  1.
    5000001    1    1    2    0    0  0.26723017277E+03 -0.90311801852E+03 -0.18751126955E+04  0.21071178756E+04  0.19200000000E+03 0.  0.
   -5000001    1    1    2    0    0 -0.26723017277E+03  0.90311801852E+03 -0.40264739083E+03  0.10421242930E+04  0.19200000000E+03 0.  0.
<mgrwt>
<rscale>  0 0.21747495E+04</rscale>
<asrwt>0</asrwt>
<pdfrwt beam="1">  1        2 0.38764301E+00 0.21747495E+04</pdfrwt>
<pdfrwt beam="2">  1       -2 0.62248722E-01 0.21747495E+04</pdfrwt>
<totfact> 0.74699898E+00</totfact>
</mgrwt>
</event>
<event>
 4    1  0.2892809E-005  0.7101759E+03  0.7818608E-02  0.9699987E-01
          2   -1    0    0  501    0  0.00000000000E+00  0.00000000000E+00  0.24241993746E+04  0.24241993746E+04  0.25500000000E-02 0.  1.
         -2   -1    0    0    0  501 -0.00000000000E+00 -0.00000000000E+00 -0.52011992570E+02  0.52011992633E+02  0.25500000000E-02 0. -1.
    5000001    1    1    2    0    0  0.16711953617E+03 -0.21860652142E+03  0.15913037166E+04  0.16262931068E+04  0.19200000000E+03 0.  0.
   -5000001    1    1    2    0    0 -0.16711953617E+03  0.21860652142E+03  0.78088366541E+03  0.84991826048E+03  0.19200000000E+03 0.  0.
<mgrwt>
<rscale>  0 0.71017587E+03</rscale>
<asrwt>0</asrwt>
<pdfrwt beam="1">  1        2 0.34631428E+00 0.71017587E+03</pdfrwt>
<pdfrwt beam="2">  1       -2 0.74302830E-02 0.71017587E+03</pdfrwt>
<totfact> 0.55298967E+02</totfact>
</mgrwt>
</event>
<event>
 4    1  0.2892809E-005  0.1022621E+04  0.7818608E-02  0.9284077E-01
         -2   -1    0    0    0  501 -0.00000000000E+00  0.00000000000E+00  0.22523351196E+03  0.22523351198E+03  0.25500000000E-02 0. -1.
          2   -1    0    0  501    0  0.00000000000E+00 -0.00000000000E+00 -0.11607430710E+04  0.11607430710E+04  0.25500000000E-02 0.  1.
    5000001    1    1    2    0    0 -0.96270026288E+02  0.41739548398E+03 -0.74247795947E+03  0.87842155501E+03  0.19200000000E+03 0.  0.
   -5000001    1    1    2    0    0  0.96270026288E+02 -0.41739548398E+03 -0.19303159961E+03  0.50755502801E+03  0.19200000000E+03 0.  0.
<mgrwt>
<rscale>  0 0.10226206E+04</rscale>
<asrwt>0</asrwt>
<pdfrwt beam="1">  1        2 0.16582043E+00 0.10226206E+04</pdfrwt>
<pdfrwt beam="2">  1       -2 0.32176217E-01 0.10226206E+04</pdfrwt>
<totfact> 0.20132015E+02</totfact>
</mgrwt>
</event>
<event>
 4    1  0.2892809E-005  0.1232951E+04  0.7818608E-02  0.9084494E-01
         -2   -1    0    0    0  501 -0.00000000000E+00  0.00000000000E+00  0.20258891105E+03  0.20258891106E+03  0.25500000000E-02 0. -1.
          2   -1    0    0  501    0  0.00000000000E+00 -0.00000000000E+00 -0.18759275973E+04  0.18759275973E+04  0.25500000000E-02 0.  1.
    5000001    1    1    2    0    0  0.19896584702E+03  0.53499871648E+03 -0.10588320670E+04  0.12181134517E+04  0.19200000000E+03 0.  0.
   -5000001    1    1    2    0    0 -0.19896584702E+03 -0.53499871648E+03 -0.61450661918E+03  0.86040305667E+03  0.19200000000E+03 0.  0.
<mgrwt>
<rscale>  0 0.12329511E+04</rscale>
<asrwt>0</asrwt>
<pdfrwt beam="1">  1        2 0.26798965E+00 0.12329511E+04</pdfrwt>
<pdfrwt beam="2">  1       -2 0.28941274E-01 0.12329511E+04</pdfrwt>
<totfact> 0.10037097E+02</totfact>
</mgrwt>
</event>
<event>
 4    1  0.2892809E-005  0.4400523E+03  0.7818608E-02  0.1030731E+00
          2   -1    0    0  501    0  0.00000000000E+00  0.00000000000E+00  0.25742053636E+04  0.25742053636E+04  0.25500000000E-02 0.  1.
         -2   -1    0    0    0  501 -0.00000000000E+00 -0.00000000000E+00 -0.18806389859E+02  0.18806390032E+02  0.25500000000E-02 0. -1.
    5000001    1    1    2    0    0  0.37088768798E+02  0.93852114170E+02  0.14953009383E+04  0.15109509232E+04  0.19200000000E+03 0.  0.
   -5000001    1    1    2    0    0 -0.37088768798E+02 -0.93852114170E+02  0.10600980354E+04  0.10820608304E+04  0.19200000000E+03 0.  0.
<mgrwt>
<rscale>  0 0.44005231E+03</rscale>
<asrwt>0</asrwt>
<pdfrwt beam="1">  1        2 0.36774370E+00 0.44005231E+03</pdfrwt>
<pdfrwt beam="2">  1       -2 0.26866266E-02 0.44005231E+03</pdfrwt>
<totfact> 0.22699420E+03</totfact>
</mgrwt>
</event>
<event>
 4    1  0.2892809E-005  0.7574184E+03  0.7818608E-02  0.9623783E-01
         -2   -1    0    0    0  501 -0.00000000000E+00  0.00000000000E+00  0.59244804199E+02  0.59244804254E+02  0.25500000000E-02 0. -1.
          2   -1    0    0  501    0  0.00000000000E+00 -0.00000000000E+00 -0.24208139719E+04  0.24208139719E+04  0.25500000000E-02 0.  1.
    5000001    1    1    2    0    0  0.33950482771E+02  0.31517424069E+03 -0.92569524454E+03  0.99712743571E+03  0.19200000000E+03 0.  0.
   -5000001    1    1    2    0    0 -0.33950482771E+02 -0.31517424069E+03 -0.14358739231E+04  0.14829313404E+04  0.19200000000E+03 0.  0.
<mgrwt>
<rscale>  0 0.75741838E+03</rscale>
<asrwt>0</asrwt>
<pdfrwt beam="1">  1        2 0.34583050E+00 0.75741838E+03</pdfrwt>
<pdfrwt beam="2">  1       -2 0.84635450E-02 0.75741838E+03</pdfrwt>
<totfact> 0.44922715E+02</totfact>
</mgrwt>
</event>
<event>
 4    1  0.2892809E-005  0.2244438E+04  0.7818608E-02  0.8500157E-01
         -2   -1    0    0    0  501 -0.00000000000E+00  0.00000000000E+00  0.73882713444E+03  0.73882713445E+03  0.25500000000E-02 0. -1.
          2   -1    0    0  501    0  0.00000000000E+00 -0.00000000000E+00 -0.17045599746E+04  0.17045599746E+04  0.25500000000E-02 0.  1.
    5000001    1    1    2    0    0 -0.94087699533E+03 -0.57686909843E+03 -0.40997066465E+03  0.11928819820E+04  0.19200000000E+03 0.  0.
   -5000001    1    1    2    0    0  0.94087699533E+03  0.57686909843E+03 -0.55576217548E+03  0.12505051270E+04  0.19200000000E+03 0.  0.
<mgrwt>
<rscale>  0 0.22444377E+04</rscale>
<asrwt>0</asrwt>
<pdfrwt beam="1">  1        2 0.24350857E+00 0.22444377E+04</pdfrwt>
<pdfrwt beam="2">  1       -2 0.10554673E+00 0.22444377E+04</pdfrwt>
<totfact> 0.75812341E+00</totfact>
</mgrwt>
</event>
<event>
 4    1  0.2892809E-005  0.1067361E+04  0.7818608E-02  0.9237601E-01
         -2   -1    0    0    0  501 -0.00000000000E+00  0.00000000000E+00  0.22045935337E+03  0.22045935338E+03  0.25500000000E-02 0. -1.
          2   -1    0    0  501    0  0.00000000000E+00 -0.00000000000E+00 -0.12919153191E+04  0.12919153191E+04  0.25500000000E-02 0.  1.
    5000001    1    1    2    0    0 -0.69204248322E+02 -0.43280635603E+03 -0.20089997953E+03  0.51897530922E+03  0.19200000000E+03 0.  0.
   -5000001    1    1    2    0    0  0.69204248322E+02  0.43280635603E+03 -0.87055598621E+03  0.99339936327E+03  0.19200000000E+03 0.  0.
<mgrwt>
<rscale>  0 0.10673609E+04</rscale>
<asrwt>0</asrwt>
<pdfrwt beam="1">  1        2 0.18455933E+00 0.10673609E+04</pdfrwt>
<pdfrwt beam="2">  1       -2 0.31494194E-01 0.10673609E+04</pdfrwt>
<totfact> 0.17625259E+02</totfact>
</mgrwt>
</event>
<event>
 4    1  0.2892809E-005  0.6365641E+03  0.7818608E-02  0.9832323E-01
          2   -1    0    0  501    0  0.00000000000E+00  0.00000000000E+00  0.25843832236E+03  0.25843832238E+03  0.25500000000E-02 0.  1.
         -2   -1    0    0    0  501 -0.00000000000E+00 -0.00000000000E+00 -0.39198309244E+03  0.39198309245E+03  0.25500000000E-02 0. -1.
    5000001    1    1    2    0    0 -0.11363493728E+01 -0.22382109910E+03 -0.18913866770E+03  0.35033499869E+03  0.19200000000E+03 0.  0.
   -5000001    1    1    2    0    0  0.11363493728E+01  0.22382109910E+03  0.55593897620E+02  0.30008641613E+03  0.19200000000E+03 0.  0.
<mgrwt>
<rscale>  0 0.63656407E+03</rscale>
<asrwt>0</asrwt>
<pdfrwt beam="1">  1        2 0.36919760E-01 0.63656407E+03</pdfrwt>
<pdfrwt beam="2">  1       -2 0.55997585E-01 0.63656407E+03</pdfrwt>
<totfact> 0.42552574E+02</totfact>
</mgrwt>
</event>
<event>
 4    1  0.2892809E-005  0.6155895E+03  0.7818608E-02  0.9873580E-01
         -2   -1    0    0    0  501 -0.00000000000E+00  0.00000000000E+00  0.33963448985E+02  0.33963449081E+02  0.25500000000E-02 0. -1.
          2   -1    0    0  501    0  0.00000000000E+00 -0.00000000000E+00 -0.27893987951E+04  0.27893987951E+04  0.25500000000E-02 0.  1.
    5000001    1    1    2    0    0  0.19270917290E+03  0.14302484232E+03 -0.13008797341E+04  0.13366918170E+04  0.19200000000E+03 0.  0.
   -5000001    1    1    2    0    0 -0.19270917290E+03 -0.14302484232E+03 -0.14545556120E+04  0.14866704273E+04  0.19200000000E+03 0.  0.
<mgrwt>
<rscale>  0 0.61558949E+03</rscale>
<asrwt>0</asrwt>
<pdfrwt beam="1">  1        2 0.39848540E+00 0.61558949E+03</pdfrwt>
<pdfrwt beam="2">  1       -2 0.48519231E-02 0.61558949E+03</pdfrwt>
<totfact> 0.70245809E+02</totfact>
</mgrwt>
</event>
<event>
 4    1  0.2892809E-005  0.7584062E+03  0.7818608E-02  0.9622254E-01
          2   -1    0    0  501    0  0.00000000000E+00  0.00000000000E+00  0.66513481512E+03  0.66513481513E+03  0.25500000000E-02 0.  1.
         -2   -1    0    0    0  501 -0.00000000000E+00 -0.00000000000E+00 -0.21618923505E+03  0.21618923507E+03  0.25500000000E-02 0. -1.
    5000001    1    1    2    0    0 -0.14134750338E+03 -0.27993553814E+03  0.33216365811E+03  0.49551964441E+03  0.19200000000E+03 0.  0.
   -5000001    1    1    2    0    0  0.14134750338E+03  0.27993553814E+03  0.11678192196E+03  0.38580440578E+03  0.19200000000E+03 0.  0.
<mgrwt>
<rscale>  0 0.75840619E+03</rscale>
<asrwt>0</asrwt>
<pdfrwt beam="1">  1        2 0.95019260E-01 0.75840619E+03</pdfrwt>
<pdfrwt beam="2">  1       -2 0.30884176E-01 0.75840619E+03</pdfrwt>
<totfact> 0.46714082E+02</totfact>
</mgrwt>
</event>
<event>
 4    1  0.2892809E-005  0.5368403E+03  0.7818608E-02  0.1004587E+00
         -2   -1    0    0    0  501 -0.00000000000E+00  0.00000000000E+00  0.41425173495E+03  0.41425173496E+03  0.25500000000E-02 0. -1.
          2   -1    0    0  501    0  0.00000000000E+00 -0.00000000000E+00 -0.17392653819E+03  0.17392653821E+03  0.25500000000E-02 0.  1.
    5000001    1    1    2    0    0 -0.17467458023E+03 -0.63270698131E+02  0.14854300881E+03  0.30568515778E+03  0.19200000000E+03 0.  0.
   -5000001    1    1    2    0    0  0.17467458023E+03  0.63270698131E+02  0.91782187948E+02  0.28249311539E+03  0.19200000000E+03 0.  0.
<mgrwt>
<rscale>  0 0.53684027E+03</rscale>
<asrwt>0</asrwt>
<pdfrwt beam="1">  1        2 0.24846648E-01 0.53684027E+03</pdfrwt>
<pdfrwt beam="2">  1       -2 0.59178820E-01 0.53684027E+03</pdfrwt>
<totfact> 0.59275959E+02</totfact>
</mgrwt>
</event>
<event>
 4    1  0.2892809E-005  0.6953727E+03  0.7818608E-02  0.9725178E-01
          2   -1    0    0  501    0  0.00000000000E+00  0.00000000000E+00  0.16296050431E+04  0.16296050431E+04  0.25500000000E-02 0.  1.
         -2   -1    0    0    0  501 -0.00000000000E+00 -0.00000000000E+00 -0.74181046739E+02  0.74181046783E+02  0.25500000000E-02 0. -1.
    5000001    1    1    2    0    0 -0.20287969537E+03 -0.17825115476E+03  0.10357164583E+04  0.10874310217E+04  0.19200000000E+03 0.  0.
   -5000001    1    1    2    0    0  0.20287969537E+03  0.17825115476E+03  0.51970753812E+03  0.61635506824E+03  0.19200000000E+03 0.  0.
<mgrwt>
<rscale>  0 0.69537273E+03</rscale>
<asrwt>0</asrwt>
<pdfrwt beam="1">  1        2 0.23280075E+00 0.69537273E+03</pdfrwt>
<pdfrwt beam="2">  1       -2 0.10597291E-01 0.69537273E+03</pdfrwt>
<totfact> 0.79088256E+02</totfact>
</mgrwt>
</event>
<event>
 4    1  0.2892809E-005  0.7794030E+03  0.7818608E-02  0.9590318E-01
          2   -1    0    0  501    0  0.00000000000E+00  0.00000000000E+00  0.33152800752E+04  0.33152800752E+04  0.25500000000E-02 0.  1.
         -2   -1    0    0    0  501 -0.00000000000E+00 -0.00000000000E+00 -0.45808277859E+02  0.45808277930E+02  0.25500000000E-02 0. -1.
    5000001    1    1    2    0    0 -0.26682378544E+03 -0.19526998938E+03  0.19596842789E+04  0.19966351129E+04  0.19200000000E+03 0.  0.
   -5000001    1    1    2    0    0  0.26682378544E+03  0.19526998938E+03  0.13097875185E+04  0.13644532403E+04  0.19200000000E+03 0.  0.
<mgrwt>
<rscale>  0 0.77940303E+03</rscale>
<asrwt>0</asrwt>
<pdfrwt beam="1">  1        2 0.47361153E+00 0.77940303E+03</pdfrwt>
<pdfrwt beam="2">  1       -2 0.65440385E-02 0.77940303E+03</pdfrwt>
<totfact> 0.22192805E+02</totfact>
</mgrwt>
</event>
<event>
 4    1  0.2892809E-005  0.6821643E+03  0.7818608E-02  0.9748229E-01
         -2   -1    0    0    0  501 -0.00000000000E+00  0.00000000000E+00  0.25072478349E+03  0.25072478350E+03  0.25500000000E-02 0. -1.
          2   -1    0    0  501    0  0.00000000000E+00 -0.00000000000E+00 -0.46400288972E+03  0.46400288973E+03  0.25500000000E-02 0.  1.
    5000001    1    1    2    0    0 -0.12566804045E+03 -0.23996447521E+03 -0.18845382897E+03  0.38177775132E+03  0.19200000000E+03 0.  0.
   -5000001    1    1    2    0    0  0.12566804045E+03  0.23996447521E+03 -0.24824277263E+02  0.33294992190E+03  0.19200000000E+03 0.  0.
<mgrwt>
<rscale>  0 0.68216427E+03</rscale>
<asrwt>0</asrwt>
<pdfrwt beam="1">  1        2 0.66286127E-01 0.68216427E+03</pdfrwt>
<pdfrwt beam="2">  1       -2 0.35817826E-01 0.68216427E+03</pdfrwt>
<totfact> 0.53903519E+02</totfact>
</mgrwt>
</event>
<event>
 4    1  0.2892809E-005  0.8970365E+03  0.7818608E-02  0.9429293E-01
          2   -1    0    0  501    0  0.00000000000E+00  0.00000000000E+00  0.11075504746E+04  0.11075504746E+04  0.25500000000E-02 0.  1.
         -2   -1    0    0    0  501 -0.00000000000E+00 -0.00000000000E+00 -0.18163383713E+03  0.18163383715E+03  0.25500000000E-02 0. -1.
    5000001    1    1    2    0    0 -0.23126041666E+03 -0.10947520516E+03  0.11135856127E+02  0.32008468902E+03  0.19200000000E+03 0.  0.
   -5000001    1    1    2    0    0  0.23126041666E+03  0.10947520516E+03  0.91478078131E+03  0.96909962270E+03  0.19200000000E+03 0.  0.
<mgrwt>
<rscale>  0 0.89703655E+03</rscale>
<asrwt>0</asrwt>
<pdfrwt beam="1">  1        2 0.15822150E+00 0.89703655E+03</pdfrwt>
<pdfrwt beam="2">  1       -2 0.25947691E-01 0.89703655E+03</pdfrwt>
<totfact> 0.32391538E+02</totfact>
</mgrwt>
</event>
<event>
 4    1  0.2892809E-005  0.4592018E+03  0.7818608E-02  0.1025013E+00
          2   -1    0    0  501    0  0.00000000000E+00  0.00000000000E+00  0.63751434770E+03  0.63751434771E+03  0.25500000000E-02 0. -1.
         -2   -1    0    0    0  501 -0.00000000000E+00 -0.00000000000E+00 -0.82690807106E+02  0.82690807145E+02  0.25500000000E-02 0.  1.
    5000001    1    1    2    0    0 -0.99785517457E+02  0.20889871168E+02  0.39329237725E+03  0.44937337507E+03  0.19200000000E+03 0.  0.
   -5000001    1    1    2    0    0  0.99785517457E+02 -0.20889871168E+02  0.16153116334E+03  0.27083177979E+03  0.19200000000E+03 0.  0.
<mgrwt>
<rscale>  0 0.45920181E+03</rscale>
<asrwt>0</asrwt>
<pdfrwt beam="1">  1        2 0.91073483E-01 0.45920181E+03</pdfrwt>
<pdfrwt beam="2">  1       -2 0.11812972E-01 0.45920181E+03</pdfrwt>
<totfact> 0.26179288E+03</totfact>
</mgrwt>
</event>
<event>
 4    1  0.2892809E-005  0.6207018E+03  0.7818608E-02  0.9863363E-01
         -2   -1    0    0    0  501 -0.00000000000E+00  0.00000000000E+00  0.14620147719E+03  0.14620147722E+03  0.25500000000E-02 0. -1.
          2   -1    0    0  501    0  0.00000000000E+00 -0.00000000000E+00 -0.65880102278E+03  0.65880102278E+03  0.25500000000E-02 0.  1.
    5000001    1    1    2    0    0  0.21747819349E+03 -0.10997976015E+03 -0.26645977533E+03  0.40897081088E+03  0.19200000000E+03 0.  0.
   -5000001    1    1    2    0    0 -0.21747819349E+03  0.10997976015E+03 -0.24613977025E+03  0.39603168912E+03  0.19200000000E+03 0.  0.
<mgrwt>
<rscale>  0 0.62070181E+03</rscale>
<asrwt>0</asrwt>
<pdfrwt beam="1">  1        2 0.94114430E-01 0.62070181E+03</pdfrwt>
<pdfrwt beam="2">  1       -2 0.20885926E-01 0.62070181E+03</pdfrwt>
<totfact> 0.96096600E+02</totfact>
</mgrwt>
</event>
<event>
 4    1  0.2892809E-005  0.9964573E+03  0.7818608E-02  0.9312439E-01
          2   -1    0    0  501    0  0.00000000000E+00  0.00000000000E+00  0.11939144773E+04  0.11939144773E+04  0.25500000000E-02 0.  1.
         -2   -1    0    0    0  501 -0.00000000000E+00 -0.00000000000E+00 -0.20791419750E+03  0.20791419751E+03  0.25500000000E-02 0. -1.
    5000001    1    1    2    0    0  0.45248783928E+03 -0.56850594818E+02  0.41108382322E+03  0.64329708887E+03  0.19200000000E+03 0.  0.
   -5000001    1    1    2    0    0 -0.45248783928E+03  0.56850594818E+02  0.57491645658E+03  0.75853158595E+03  0.19200000000E+03 0.  0.
<mgrwt>
<rscale>  0 0.99645727E+03</rscale>
<asrwt>0</asrwt>
<pdfrwt beam="1">  1        2 0.17055921E+00 0.99645727E+03</pdfrwt>
<pdfrwt beam="2">  1       -2 0.29702029E-01 0.99645727E+03</pdfrwt>
<totfact> 0.22410166E+02</totfact>
</mgrwt>
</event>
<event>
 4    1  0.2892809E-005  0.5701312E+03  0.7818608E-02  0.9969388E-01
         -2   -1    0    0    0  501 -0.00000000000E+00  0.00000000000E+00  0.33742237483E+02  0.33742237579E+02  0.25500000000E-02 0.  1.
          2   -1    0    0  501    0  0.00000000000E+00 -0.00000000000E+00 -0.24083287083E+04  0.24083287083E+04  0.25500000000E-02 0. -1.
    5000001    1    1    2    0    0 -0.12069042749E+03  0.11481770078E+03 -0.17399799756E+04  0.17584492029E+04  0.19200000000E+03 0.  0.
   -5000001    1    1    2    0    0  0.12069042749E+03 -0.11481770078E+03 -0.63460649523E+03  0.68362174299E+03  0.19200000000E+03 0.  0.
<mgrwt>
<rscale>  0 0.57013121E+03</rscale>
<asrwt>0</asrwt>
<pdfrwt beam="1">  1        2 0.34404685E+00 0.57013121E+03</pdfrwt>
<pdfrwt beam="2">  1       -2 0.48203212E-02 0.57013121E+03</pdfrwt>
<totfact> 0.11219307E+03</totfact>
</mgrwt>
</event>
<event>
 4    1  0.2892809E-005  0.1272612E+04  0.7818608E-02  0.9051571E-01
         -2   -1    0    0    0  501 -0.00000000000E+00  0.00000000000E+00  0.16527674136E+03  0.16527674138E+03  0.25500000000E-02 0. -1.
          2   -1    0    0  501    0  0.00000000000E+00 -0.00000000000E+00 -0.24497398314E+04  0.24497398314E+04  0.25500000000E-02 0.  1.
    5000001    1    1    2    0    0  0.50211911275E+03  0.26165645733E+03 -0.69470343436E+03  0.91655036238E+03  0.19200000000E+03 0.  0.
   -5000001    1    1    2    0    0 -0.50211911275E+03 -0.26165645733E+03 -0.15897596556E+04  0.16984662104E+04  0.19200000000E+03 0.  0.
<mgrwt>
<rscale>  0 0.12726115E+04</rscale>
<asrwt>0</asrwt>
<pdfrwt beam="1">  1        2 0.34996281E+00 0.12726115E+04</pdfrwt>
<pdfrwt beam="2">  1       -2 0.23610965E-01 0.12726115E+04</pdfrwt>
<totfact> 0.73451686E+01</totfact>
</mgrwt>
</event>
<event>
 4    1  0.2892809E-005  0.7321035E+03  0.7818608E-02  0.9663853E-01
          2   -1    0    0  501    0  0.00000000000E+00  0.00000000000E+00  0.15418379612E+04  0.15418379613E+04  0.25500000000E-02 0. -1.
         -2   -1    0    0    0  501 -0.00000000000E+00 -0.00000000000E+00 -0.86905299633E+02  0.86905299671E+02  0.25500000000E-02 0.  1.
    5000001    1    1    2    0    0  0.12281525977E+03  0.14756817762E+03  0.12736396738E+04  0.13022603326E+04  0.19200000000E+03 0.  0.
   -5000001    1    1    2    0    0 -0.12281525977E+03 -0.14756817762E+03  0.18129298780E+03  0.32648292835E+03  0.19200000000E+03 0.  0.
<mgrwt>
<rscale>  0 0.73210352E+03</rscale>
<asrwt>0</asrwt>
<pdfrwt beam="1">  1        2 0.22026254E+00 0.73210352E+03</pdfrwt>
<pdfrwt beam="2">  1       -2 0.12415044E-01 0.73210352E+03</pdfrwt>
<totfact> 0.67558248E+02</totfact>
</mgrwt>
</event>
<event>
 4    1  0.2892809E-005  0.4965317E+03  0.7818608E-02  0.1014688E+00
          2   -1    0    0  501    0  0.00000000000E+00  0.00000000000E+00  0.93457850122E+03  0.93457850122E+03  0.25500000000E-02 0.  1.
         -2   -1    0    0    0  501 -0.00000000000E+00 -0.00000000000E+00 -0.65950503993E+02  0.65950504042E+02  0.25500000000E-02 0. -1.
    5000001    1    1    2    0    0 -0.14470918878E+03 -0.40107489898E+01  0.30985250678E+03  0.39221092716E+03  0.19200000000E+03 0.  0.
   -5000001    1    1    2    0    0  0.14470918878E+03  0.40107489898E+01  0.55877549044E+03  0.60831807810E+03  0.19200000000E+03 0.  0.
<mgrwt>
<rscale>  0 0.49653166E+03</rscale>
<asrwt>0</asrwt>
<pdfrwt beam="1">  1        2 0.13351122E+00 0.49653166E+03</pdfrwt>
<pdfrwt beam="2">  1       -2 0.94215003E-02 0.49653166E+03</pdfrwt>
<totfact> 0.23363628E+03</totfact>
</mgrwt>
</event>
<event>
 4    1  0.2892809E-005  0.5925486E+03  0.7818608E-02  0.9920987E-01
          2   -1    0    0  501    0  0.00000000000E+00  0.00000000000E+00  0.10802365393E+03  0.10802365396E+03  0.25500000000E-02 0.  1.
         -2   -1    0    0    0  501 -0.00000000000E+00 -0.00000000000E+00 -0.81258566610E+03  0.81258566610E+03  0.25500000000E-02 0. -1.
    5000001    1    1    2    0    0 -0.89694734992E+02 -0.20616175984E+03 -0.32253142788E+03  0.43753667124E+03  0.19200000000E+03 0.  0.
   -5000001    1    1    2    0    0  0.89694734992E+02  0.20616175984E+03 -0.38203058429E+03  0.48307264882E+03  0.19200000000E+03 0.  0.
<mgrwt>
<rscale>  0 0.59254864E+03</rscale>
<asrwt>0</asrwt>
<pdfrwt beam="1">  1        2 0.15431951E-01 0.59254864E+03</pdfrwt>
<pdfrwt beam="2">  1       -2 0.11608366E+00 0.59254864E+03</pdfrwt>
<totfact> 0.22612165E+02</totfact>
</mgrwt>
</event>
<event>
 4    1  0.2892809E-005  0.5823368E+03  0.7818608E-02  0.9942745E-01
         -2   -1    0    0    0  501 -0.00000000000E+00  0.00000000000E+00  0.63789744191E+03  0.63789744191E+03  0.25500000000E-02 0. -1.
          2   -1    0    0  501    0  0.00000000000E+00 -0.00000000000E+00 -0.13290388614E+03  0.13290388616E+03  0.25500000000E-02 0.  1.
    5000001    1    1    2    0    0  0.44952471607E+02 -0.18111950444E+03  0.10105739502E+03  0.28618455004E+03  0.19200000000E+03 0.  0.
   -5000001    1    1    2    0    0 -0.44952471607E+02  0.18111950444E+03  0.40393616075E+03  0.48461677804E+03  0.19200000000E+03 0.  0.
<mgrwt>
<rscale>  0 0.58233684E+03</rscale>
<asrwt>0</asrwt>
<pdfrwt beam="1">  1        2 0.18986269E-01 0.58233684E+03</pdfrwt>
<pdfrwt beam="2">  1       -2 0.91128207E-01 0.58233684E+03</pdfrwt>
<totfact> 0.31365582E+02</totfact>
</mgrwt>
</event>
<event>
 4    1  0.2892809E-005  0.8150553E+03  0.7818608E-02  0.9538477E-01
          2   -1    0    0  501    0  0.00000000000E+00  0.00000000000E+00  0.32443056681E+04  0.32443056681E+04  0.25500000000E-02 0.  1.
         -2   -1    0    0    0  501 -0.00000000000E+00 -0.00000000000E+00 -0.51190855410E+02  0.51190855473E+02  0.25500000000E-02 0. -1.
    5000001    1    1    2    0    0  0.21866567925E+03 -0.27557671362E+03  0.18952564043E+04  0.19371675308E+04  0.19200000000E+03 0.  0.
   -5000001    1    1    2    0    0 -0.21866567925E+03  0.27557671362E+03  0.12978584084E+04  0.13583289928E+04  0.19200000000E+03 0.  0.
<mgrwt>
<rscale>  0 0.81505529E+03</rscale>
<asrwt>0</asrwt>
<pdfrwt beam="1">  1        2 0.46347214E+00 0.81505529E+03</pdfrwt>
<pdfrwt beam="2">  1       -2 0.73129809E-02 0.81505529E+03</pdfrwt>
<totfact> 0.20356941E+02</totfact>
</mgrwt>
</event>
<event>
 4    1  0.2892809E-005  0.4376092E+03  0.7818608E-02  0.1031483E+00
         -2   -1    0    0    0  501 -0.00000000000E+00  0.00000000000E+00  0.77994352928E+02  0.77994352970E+02  0.25500000000E-02 0. -1.
          2   -1    0    0  501    0  0.00000000000E+00 -0.00000000000E+00 -0.61383242165E+03  0.61383242165E+03  0.25500000000E-02 0.  1.
    5000001    1    1    2    0    0  0.54340313427E+02 -0.87128424234E+02 -0.23374655369E+03  0.31944590049E+03  0.19200000000E+03 0.  0.
   -5000001    1    1    2    0    0 -0.54340313427E+02  0.87128424234E+02 -0.30209151503E+03  0.37238087414E+03  0.19200000000E+03 0.  0.
<mgrwt>
<rscale>  0 0.43760924E+03</rscale>
<asrwt>0</asrwt>
<pdfrwt beam="1">  1        2 0.87690344E-01 0.43760924E+03</pdfrwt>
<pdfrwt beam="2">  1       -2 0.11142051E-01 0.43760924E+03</pdfrwt>
<totfact> 0.30090266E+03</totfact>
</mgrwt>
</event>
<event>
 4    1  0.2892809E-005  0.5576192E+03  0.7818608E-02  0.9997456E-01
         -2   -1    0    0    0  501 -0.00000000000E+00  0.00000000000E+00  0.63095067396E+02  0.63095067448E+02  0.25500000000E-02 0. -1.
          2   -1    0    0  501    0  0.00000000000E+00 -0.00000000000E+00 -0.12320265417E+04  0.12320265417E+04  0.25500000000E-02 0.  1.
    5000001    1    1    2    0    0 -0.11441047629E+03  0.16352913990E+03 -0.50959102943E+03  0.57998151173E+03  0.19200000000E+03 0.  0.
   -5000001    1    1    2    0    0  0.11441047629E+03 -0.16352913990E+03 -0.65934044488E+03  0.71514009741E+03  0.19200000000E+03 0.  0.
<mgrwt>
<rscale>  0 0.55761922E+03</rscale>
<asrwt>0</asrwt>
<pdfrwt beam="1">  1        2 0.17600378E+00 0.55761922E+03</pdfrwt>
<pdfrwt beam="2">  1       -2 0.90135818E-02 0.55761922E+03</pdfrwt>
<totfact> 0.16786916E+03</totfact>
</mgrwt>
</event>
<event>
 4    1  0.2892809E-005  0.1162552E+04  0.7818608E-02  0.9146281E-01
          2   -1    0    0  501    0  0.00000000000E+00  0.00000000000E+00  0.89069001205E+03  0.89069001206E+03  0.25500000000E-02 0.  1.
         -2   -1    0    0    0  501 -0.00000000000E+00 -0.00000000000E+00 -0.37934852798E+03  0.37934852798E+03  0.25500000000E-02 0. -1.
    5000001    1    1    2    0    0  0.38818556029E+03 -0.22554419164E+03 -0.88860061455E+02  0.49630466663E+03  0.19200000000E+03 0.  0.
   -5000001    1    1    2    0    0 -0.38818556029E+03  0.22554419164E+03  0.60020154553E+03  0.77373387341E+03  0.19200000000E+03 0.  0.
<mgrwt>
<rscale>  0 0.11625523E+04</rscale>
<asrwt>0</asrwt>
<pdfrwt beam="1">  1        2 0.12724143E+00 0.11625523E+04</pdfrwt>
<pdfrwt beam="2">  1       -2 0.54192647E-01 0.11625523E+04</pdfrwt>
<totfact> 0.10461076E+02</totfact>
</mgrwt>
</event>
<event>
 4    1  0.2892809E-005  0.6145965E+03  0.7818608E-02  0.9875577E-01
         -2   -1    0    0    0  501 -0.00000000000E+00  0.00000000000E+00  0.13377861662E+03  0.13377861664E+03  0.25500000000E-02 0. -1.
          2   -1    0    0  501    0  0.00000000000E+00 -0.00000000000E+00 -0.70588425818E+03  0.70588425818E+03  0.25500000000E-02 0.  1.
    5000001    1    1    2    0    0 -0.16316855631E+02  0.22319769374E+03 -0.16785647052E+03  0.33929816528E+03  0.19200000000E+03 0.  0.
   -5000001    1    1    2    0    0  0.16316855631E+02 -0.22319769374E+03 -0.40424917104E+03  0.50036470954E+03  0.19200000000E+03 0.  0.
<mgrwt>
<rscale>  0 0.61459652E+03</rscale>
<asrwt>0</asrwt>
<pdfrwt beam="1">  1        2 0.10084061E+00 0.61459652E+03</pdfrwt>
<pdfrwt beam="2">  1       -2 0.19111231E-01 0.61459652E+03</pdfrwt>
<totfact> 0.10315700E+03</totfact>
</mgrwt>
</event>
<event>
 4    1  0.2892809E-005  0.5774047E+03  0.7818608E-02  0.9953426E-01
          2   -1    0    0  501    0  0.00000000000E+00  0.00000000000E+00  0.16068526041E+04  0.16068526041E+04  0.25500000000E-02 0.  1.
         -2   -1    0    0    0  501 -0.00000000000E+00 -0.00000000000E+00 -0.51871005391E+02  0.51871005454E+02  0.25500000000E-02 0. -1.
    5000001    1    1    2    0    0 -0.11772692026E+03  0.17888427383E+03  0.70562397628E+03  0.76198976836E+03  0.19200000000E+03 0.  0.
   -5000001    1    1    2    0    0  0.11772692026E+03 -0.17888427383E+03  0.84935762242E+03  0.89673384119E+03  0.19200000000E+03 0.  0.
<mgrwt>
<rscale>  0 0.57740475E+03</rscale>
<asrwt>0</asrwt>
<pdfrwt beam="1">  1        2 0.22955037E+00 0.57740475E+03</pdfrwt>
<pdfrwt beam="2">  1       -2 0.74101437E-02 0.57740475E+03</pdfrwt>
<totfact> 0.14516730E+03</totfact>
</mgrwt>
</event>
<event>
 4    1  0.2892809E-005  0.4484507E+03  0.7818608E-02  0.1028185E+00
          2   -1    0    0  501    0  0.00000000000E+00  0.00000000000E+00  0.92102314730E+03  0.92102314730E+03  0.25500000000E-02 0.  1.
         -2   -1    0    0    0  501 -0.00000000000E+00 -0.00000000000E+00 -0.54588221725E+02  0.54588221784E+02  0.25500000000E-02 0. -1.
    5000001    1    1    2    0    0 -0.74365938155E+02 -0.87507256246E+02  0.46586491889E+03  0.51679970521E+03  0.19200000000E+03 0.  0.
   -5000001    1    1    2    0    0  0.74365938155E+02  0.87507256246E+02  0.40057000669E+03  0.45881166388E+03  0.19200000000E+03 0.  0.
<mgrwt>
<rscale>  0 0.44845074E+03</rscale>
<asrwt>0</asrwt>
<pdfrwt beam="1">  1        2 0.13157473E+00 0.44845074E+03</pdfrwt>
<pdfrwt beam="2">  1       -2 0.77983176E-02 0.44845074E+03</pdfrwt>
<totfact> 0.32187905E+03</totfact>
</mgrwt>
</event>
<event>
 4    1  0.2892809E-005  0.6201861E+03  0.7818608E-02  0.9864389E-01
          2   -1    0    0  501    0  0.00000000000E+00  0.00000000000E+00  0.62731818048E+03  0.62731818048E+03  0.25500000000E-02 0.  1.
         -2   -1    0    0    0  501 -0.00000000000E+00 -0.00000000000E+00 -0.15328377742E+03  0.15328377744E+03  0.25500000000E-02 0. -1.
    5000001    1    1    2    0    0  0.13680225485E+03  0.19120809774E+03  0.31680365329E+03  0.43875271886E+03  0.19200000000E+03 0.  0.
   -5000001    1    1    2    0    0 -0.13680225485E+03 -0.19120809774E+03  0.15723074977E+03  0.34184923906E+03  0.19200000000E+03 0.  0.
<mgrwt>
<rscale>  0 0.62018610E+03</rscale>
<asrwt>0</asrwt>
<pdfrwt beam="1">  1        2 0.89616884E-01 0.62018610E+03</pdfrwt>
<pdfrwt beam="2">  1       -2 0.21897682E-01 0.62018610E+03</pdfrwt>
<totfact> 0.93767721E+02</totfact>
</mgrwt>
</event>
<event>
 4    1  0.2892809E-005  0.4427961E+03  0.7818608E-02  0.1029892E+00
          2   -1    0    0  501    0  0.00000000000E+00  0.00000000000E+00  0.12006643661E+04  0.12006643661E+04  0.25500000000E-02 0.  1.
         -2   -1    0    0    0  501 -0.00000000000E+00 -0.00000000000E+00 -0.40824970261E+02  0.40824970341E+02  0.25500000000E-02 0. -1.
    5000001    1    1    2    0    0  0.67623912181E+02 -0.49136382994E+02  0.78143323978E+03  0.80900512104E+03  0.19200000000E+03 0.  0.
   -5000001    1    1    2    0    0 -0.67623912181E+02  0.49136382994E+02  0.37840615606E+03  0.43248421541E+03  0.19200000000E+03 0.  0.
<mgrwt>
<rscale>  0 0.44279606E+03</rscale>
<asrwt>0</asrwt>
<pdfrwt beam="1">  1        2 0.17152350E+00 0.44279606E+03</pdfrwt>
<pdfrwt beam="2">  1       -2 0.58321380E-02 0.44279606E+03</pdfrwt>
<totfact> 0.34752443E+03</totfact>
</mgrwt>
</event>
<event>
 4    1  0.2892809E-005  0.7571750E+03  0.7818608E-02  0.9624161E-01
          2   -1    0    0  501    0  0.00000000000E+00  0.00000000000E+00  0.24174372509E+03  0.24174372510E+03  0.25500000000E-02 0.  1.
         -2   -1    0    0    0  501 -0.00000000000E+00 -0.00000000000E+00 -0.59289430148E+03  0.59289430148E+03  0.25500000000E-02 0. -1.
    5000001    1    1    2    0    0  0.22854814767E+03  0.14880321477E+03  0.21881498654E+02  0.33424459982E+03  0.19200000000E+03 0.  0.
   -5000001    1    1    2    0    0 -0.22854814767E+03 -0.14880321477E+03 -0.37303207504E+03  0.50039342676E+03  0.19200000000E+03 0.  0.
<mgrwt>
<rscale>  0 0.75717495E+03</rscale>
<asrwt>0</asrwt>
<pdfrwt beam="1">  1        2 0.34534818E-01 0.75717495E+03</pdfrwt>
<pdfrwt beam="2">  1       -2 0.84699185E-01 0.75717495E+03</pdfrwt>
<totfact> 0.18598842E+02</totfact>
</mgrwt>
</event>
<event>
 4    1  0.2892809E-005  0.7870028E+03  0.7818608E-02  0.9579023E-01
         -2   -1    0    0    0  501 -0.00000000000E+00  0.00000000000E+00  0.32281330773E+03  0.32281330774E+03  0.25500000000E-02 0. -1.
          2   -1    0    0  501    0  0.00000000000E+00 -0.00000000000E+00 -0.47966847794E+03  0.47966847795E+03  0.25500000000E-02 0.  1.
    5000001    1    1    2    0    0  0.21760518309E+03  0.25761262058E+03 -0.11851058450E+02  0.38822767235E+03  0.19200000000E+03 0.  0.
   -5000001    1    1    2    0    0 -0.21760518309E+03 -0.25761262058E+03 -0.14500411176E+03  0.41425411334E+03  0.19200000000E+03 0.  0.
<mgrwt>
<rscale>  0 0.78700284E+03</rscale>
<asrwt>0</asrwt>
<pdfrwt beam="1">  1        2 0.68524068E-01 0.78700284E+03</pdfrwt>
<pdfrwt beam="2">  1       -2 0.46116187E-01 0.78700284E+03</pdfrwt>
<totfact> 0.31586435E+02</totfact>
</mgrwt>
</event>
<event>
 4    1  0.2892809E-005  0.5028630E+03  0.7818608E-02  0.1013034E+00
         -2   -1    0    0    0  501 -0.00000000000E+00  0.00000000000E+00  0.28118032667E+03  0.28118032668E+03  0.25500000000E-02 0. -1.
          2   -1    0    0  501    0  0.00000000000E+00 -0.00000000000E+00 -0.22483010113E+03  0.22483010114E+03  0.25500000000E-02 0.  1.
    5000001    1    1    2    0    0 -0.56556214834E+02 -0.13344632812E+03  0.10175785536E+03  0.26119951963E+03  0.19200000000E+03 0.  0.
   -5000001    1    1    2    0    0  0.56556214834E+02  0.13344632812E+03 -0.45407629822E+02  0.24481090820E+03  0.19200000000E+03 0.  0.
<mgrwt>
<rscale>  0 0.50286301E+03</rscale>
<asrwt>0</asrwt>
<pdfrwt beam="1">  1        2 0.32118586E-01 0.50286301E+03</pdfrwt>
<pdfrwt beam="2">  1       -2 0.40168618E-01 0.50286301E+03</pdfrwt>
<totfact> 0.96825900E+02</totfact>
</mgrwt>
</event>
<event>
 4    1  0.2892809E-005  0.5504867E+03  0.7818608E-02  0.1001381E+00
         -2   -1    0    0    0  501 -0.00000000000E+00  0.00000000000E+00  0.96262711837E+02  0.96262711871E+02  0.25500000000E-02 0. -1.
          2   -1    0    0  501    0  0.00000000000E+00 -0.00000000000E+00 -0.78700159255E+03  0.78700159256E+03  0.25500000000E-02 0.  1.
    5000001    1    1    2    0    0 -0.18574749512E+03 -0.45628234952E+02 -0.42250040243E+03  0.50195085200E+03  0.19200000000E+03 0.  0.
   -5000001    1    1    2    0    0  0.18574749512E+03  0.45628234952E+02 -0.26823847829E+03  0.38131345243E+03  0.19200000000E+03 0.  0.
<mgrwt>
<rscale>  0 0.55048672E+03</rscale>
<asrwt>0</asrwt>
<pdfrwt beam="1">  1        2 0.11242879E+00 0.55048672E+03</pdfrwt>
<pdfrwt beam="2">  1       -2 0.13751817E-01 0.55048672E+03</pdfrwt>
<totfact> 0.15759194E+03</totfact>
</mgrwt>
</event>
<event>
 4    1  0.2892809E-005  0.4944484E+03  0.7818608E-02  0.1015238E+00
         -2   -1    0    0    0  501 -0.00000000000E+00  0.00000000000E+00  0.77827508907E+02  0.77827508949E+02  0.25500000000E-02 0.  1.
          2   -1    0    0  501    0  0.00000000000E+00 -0.00000000000E+00 -0.78532384015E+03  0.78532384016E+03  0.25500000000E-02 0. -1.
    5000001    1    1    2    0    0 -0.13927880472E+03  0.68836977679E+02 -0.33473034665E+03  0.41598740355E+03  0.19200000000E+03 0.  0.
   -5000001    1    1    2    0    0  0.13927880472E+03 -0.68836977679E+02 -0.37276598459E+03  0.44716394556E+03  0.19200000000E+03 0.  0.
<mgrwt>
<rscale>  0 0.49444837E+03</rscale>
<asrwt>0</asrwt>
<pdfrwt beam="1">  1        2 0.11218912E+00 0.49444837E+03</pdfrwt>
<pdfrwt beam="2">  1       -2 0.11118216E-01 0.49444837E+03</pdfrwt>
<totfact> 0.22424416E+03</totfact>
</mgrwt>
</event>
<event>
 4    1  0.2892809E-005  0.1210238E+04  0.7818608E-02  0.9103942E-01
          2   -1    0    0  501    0  0.00000000000E+00  0.00000000000E+00  0.10905679125E+04  0.10905679125E+04  0.25500000000E-02 0.  1.
         -2   -1    0    0    0  501 -0.00000000000E+00 -0.00000000000E+00 -0.33576020158E+03  0.33576020159E+03  0.25500000000E-02 0. -1.
    5000001    1    1    2    0    0  0.51938736839E+03  0.13788940192E+03  0.61466638486E+03  0.83872253474E+03  0.19200000000E+03 0.  0.
   -5000001    1    1    2    0    0 -0.51938736839E+03 -0.13788940192E+03  0.14014132605E+03  0.58760557934E+03  0.19200000000E+03 0.  0.
<mgrwt>
<rscale>  0 0.12102385E+04</rscale>
<asrwt>0</asrwt>
<pdfrwt beam="1">  1        2 0.15579542E+00 0.12102385E+04</pdfrwt>
<pdfrwt beam="2">  1       -2 0.47965743E-01 0.12102385E+04</pdfrwt>
<totfact> 0.10049018E+02</totfact>
</mgrwt>
</event>
<event>
 4    1  0.2892809E-005  0.6249799E+03  0.7818608E-02  0.9854894E-01
         -2   -1    0    0    0  501 -0.00000000000E+00  0.00000000000E+00  0.21177175914E+03  0.21177175916E+03  0.25500000000E-02 0. -1.
          2   -1    0    0  501    0  0.00000000000E+00 -0.00000000000E+00 -0.46110946195E+03  0.46110946195E+03  0.25500000000E-02 0.  1.
    5000001    1    1    2    0    0 -0.24408011151E+03 -0.84037045204E+01 -0.88313337526E+02  0.32296899026E+03  0.19200000000E+03 0.  0.
   -5000001    1    1    2    0    0  0.24408011151E+03  0.84037045204E+01 -0.16102436528E+03  0.34991223085E+03  0.19200000000E+03 0.  0.
<mgrwt>
<rscale>  0 0.62497988E+03</rscale>
<asrwt>0</asrwt>
<pdfrwt beam="1">  1        2 0.65872780E-01 0.62497988E+03</pdfrwt>
<pdfrwt beam="2">  1       -2 0.30253109E-01 0.62497988E+03</pdfrwt>
<totfact> 0.74635908E+02</totfact>
</mgrwt>
</event>
<event>
 4    1  0.2892809E-005  0.9964828E+03  0.7818608E-02  0.9312411E-01
          2   -1    0    0  501    0  0.00000000000E+00  0.00000000000E+00  0.21652656284E+04  0.21652656284E+04  0.25500000000E-02 0.  1.
         -2   -1    0    0    0  501 -0.00000000000E+00 -0.00000000000E+00 -0.11464851492E+03  0.11464851495E+03  0.25500000000E-02 0. -1.
    5000001    1    1    2    0    0 -0.34574554846E+03 -0.24494461086E+03  0.61703313427E+03  0.77274299444E+03  0.19200000000E+03 0.  0.
   -5000001    1    1    2    0    0  0.34574554846E+03  0.24494461086E+03  0.14335839793E+04  0.15071711490E+04  0.19200000000E+03 0.  0.
<mgrwt>
<rscale>  0 0.99648279E+03</rscale>
<asrwt>0</asrwt>
<pdfrwt beam="1">  1        2 0.30932365E+00 0.99648279E+03</pdfrwt>
<pdfrwt beam="2">  1       -2 0.16378360E-01 0.99648279E+03</pdfrwt>
<totfact> 0.19980837E+02</totfact>
</mgrwt>
</event>
<event>
 4    1  0.2892809E-005  0.9288195E+03  0.7818608E-02  0.9390256E-01
          2   -1    0    0  501    0  0.00000000000E+00  0.00000000000E+00  0.11736842940E+04  0.11736842940E+04  0.25500000000E-02 0.  1.
         -2   -1    0    0    0  501 -0.00000000000E+00 -0.00000000000E+00 -0.18376014963E+03  0.18376014964E+03  0.25500000000E-02 0. -1.
    5000001    1    1    2    0    0  0.40544656289E+02  0.41310349118E+03  0.61291694721E+03  0.76474149080E+03  0.19200000000E+03 0.  0.
   -5000001    1    1    2    0    0 -0.40544656289E+02 -0.41310349118E+03  0.37700719714E+03  0.59270295282E+03  0.19200000000E+03 0.  0.
<mgrwt>
<rscale>  0 0.92881947E+03</rscale>
<asrwt>0</asrwt>
<pdfrwt beam="1">  1        2 0.16766918E+00 0.92881947E+03</pdfrwt>
<pdfrwt beam="2">  1       -2 0.26251450E-01 0.92881947E+03</pdfrwt>
<totfact> 0.28985955E+02</totfact>
</mgrwt>
</event>
<event>
 4    1  0.2892809E-005  0.5108494E+03  0.7818608E-02  0.1010985E+00
          2   -1    0    0  501    0  0.00000000000E+00  0.00000000000E+00  0.17139429233E+03  0.17139429235E+03  0.25500000000E-02 0.  1.
         -2   -1    0    0    0  501 -0.00000000000E+00 -0.00000000000E+00 -0.38065315149E+03  0.38065315150E+03  0.25500000000E-02 0. -1.
    5000001    1    1    2    0    0  0.21717291826E+02  0.15949864813E+03 -0.15829652021E+03  0.29636674549E+03  0.19200000000E+03 0.  0.
   -5000001    1    1    2    0    0 -0.21717291826E+02 -0.15949864813E+03 -0.50962338949E+02  0.25568069835E+03  0.19200000000E+03 0.  0.
<mgrwt>
<rscale>  0 0.51084940E+03</rscale>
<asrwt>0</asrwt>
<pdfrwt beam="1">  1        2 0.24484899E-01 0.51084940E+03</pdfrwt>
<pdfrwt beam="2">  1       -2 0.54379021E-01 0.51084940E+03</pdfrwt>
<totfact> 0.71846023E+02</totfact>
</mgrwt>
</event>
<event>
 4    1  0.2892809E-005  0.6848476E+03  0.7818608E-02  0.9743501E-01
         -2   -1    0    0    0  501 -0.00000000000E+00  0.00000000000E+00  0.59219501834E+02  0.59219501889E+02  0.25500000000E-02 0. -1.
          2   -1    0    0  501    0  0.00000000000E+00 -0.00000000000E+00 -0.19799909077E+04  0.19799909077E+04  0.25500000000E-02 0.  1.
    5000001    1    1    2    0    0 -0.28071445717E+03  0.34168950833E+02 -0.10215501961E+04  0.10772172143E+04  0.19200000000E+03 0.  0.
   -5000001    1    1    2    0    0  0.28071445717E+03 -0.34168950833E+02 -0.89922120978E+03  0.96199319529E+03  0.19200000000E+03 0.  0.
<mgrwt>
<rscale>  0 0.68484765E+03</rscale>
<asrwt>0</asrwt>
<pdfrwt beam="1">  1        2 0.28285580E+00 0.68484765E+03</pdfrwt>
<pdfrwt beam="2">  1       -2 0.84599301E-02 0.68484765E+03</pdfrwt>
<totfact> 0.75625936E+02</totfact>
</mgrwt>
</event>
<event>
 4    1  0.2892809E-005  0.7114193E+03  0.7818608E-02  0.9697901E-01
          2   -1    0    0  501    0  0.00000000000E+00  0.00000000000E+00  0.71538548979E+03  0.71538548979E+03  0.25500000000E-02 0.  1.
         -2   -1    0    0    0  501 -0.00000000000E+00 -0.00000000000E+00 -0.17686876569E+03  0.17686876571E+03  0.25500000000E-02 0. -1.
    5000001    1    1    2    0    0  0.53281644073E+02  0.18484802103E+03 -0.18543517736E+02  0.27242537790E+03  0.19200000000E+03 0.  0.
   -5000001    1    1    2    0    0 -0.53281644073E+02 -0.18484802103E+03  0.55706024184E+03  0.61982887760E+03  0.19200000000E+03 0.  0.
<mgrwt>
<rscale>  0 0.71141928E+03</rscale>
<asrwt>0</asrwt>
<pdfrwt beam="1">  1        2 0.10219793E+00 0.71141928E+03</pdfrwt>
<pdfrwt beam="2">  1       -2 0.25266966E-01 0.71141928E+03</pdfrwt>
<totfact> 0.61813590E+02</totfact>
</mgrwt>
</event>
<event>
 4    1  0.2892809E-005  0.7317085E+03  0.7818608E-02  0.9664492E-01
         -2   -1    0    0    0  501 -0.00000000000E+00  0.00000000000E+00  0.22642768713E+03  0.22642768714E+03  0.25500000000E-02 0. -1.
          2   -1    0    0  501    0  0.00000000000E+00 -0.00000000000E+00 -0.59113493421E+03  0.59113493422E+03  0.25500000000E-02 0.  1.
    5000001    1    1    2    0    0 -0.33721889787E+02  0.30699820567E+03 -0.22705049404E+03  0.42872017795E+03  0.19200000000E+03 0.  0.
   -5000001    1    1    2    0    0  0.33721889787E+02 -0.30699820567E+03 -0.13765675305E+03  0.38884244341E+03  0.19200000000E+03 0.  0.
<mgrwt>
<rscale>  0 0.73170846E+03</rscale>
<asrwt>0</asrwt>
<pdfrwt beam="1">  1        2 0.84447847E-01 0.73170846E+03</pdfrwt>
<pdfrwt beam="2">  1       -2 0.32346813E-01 0.73170846E+03</pdfrwt>
<totfact> 0.49377849E+02</totfact>
</mgrwt>
</event>
<event>
 4    1  0.2892809E-005  0.1079821E+04  0.7818608E-02  0.9225086E-01
         -2   -1    0    0    0  501 -0.00000000000E+00  0.00000000000E+00  0.15273914282E+03  0.15273914284E+03  0.25500000000E-02 0. -1.
          2   -1    0    0  501    0  0.00000000000E+00 -0.00000000000E+00 -0.19085058803E+04  0.19085058803E+04  0.25500000000E-02 0.  1.
    5000001    1    1    2    0    0  0.26225901017E+03  0.49569415101E+02 -0.16953696749E+04  0.17269566439E+04  0.19200000000E+03 0.  0.
   -5000001    1    1    2    0    0 -0.26225901017E+03 -0.49569415101E+02 -0.60397062586E+02  0.33428837925E+03  0.19200000000E+03 0.  0.
<mgrwt>
<rscale>  0 0.10798214E+04</rscale>
<asrwt>0</asrwt>
<pdfrwt beam="1">  1        2 0.27264368E+00 0.10798214E+04</pdfrwt>
<pdfrwt beam="2">  1       -2 0.21819879E-01 0.10798214E+04</pdfrwt>
<totfact> 0.16291270E+02</totfact>
</mgrwt>
</event>
<event>
 4    1  0.2892809E-005  0.8194690E+03  0.7818608E-02  0.9532256E-01
         -2   -1    0    0    0  501 -0.00000000000E+00  0.00000000000E+00  0.16220280843E+04  0.16220280843E+04  0.25500000000E-02 0. -1.
          2   -1    0    0  501    0  0.00000000000E+00 -0.00000000000E+00 -0.10350152085E+03  0.10350152088E+03  0.25500000000E-02 0.  1.
    5000001    1    1    2    0    0  0.72230278988E+02 -0.16180848887E+03  0.14238648100E+04  0.14476374537E+04  0.19200000000E+03 0.  0.
   -5000001    1    1    2    0    0 -0.72230278988E+02  0.16180848887E+03  0.94661753432E+02  0.27789215144E+03  0.19200000000E+03 0.  0.
<mgrwt>
<rscale>  0 0.81946903E+03</rscale>
<asrwt>0</asrwt>
<pdfrwt beam="1">  1        2 0.14785932E-01 0.81946903E+03</pdfrwt>
<pdfrwt beam="2">  1       -2 0.23171828E+00 0.81946903E+03</pdfrwt>
<totfact> 0.34679211E+01</totfact>
</mgrwt>
</event>
<event>
 4    1  0.2892809E-005  0.5800803E+03  0.7818608E-02  0.9947617E-01
         -2   -1    0    0    0  501 -0.00000000000E+00  0.00000000000E+00  0.44513593405E+02  0.44513593478E+02  0.25500000000E-02 0. -1.
          2   -1    0    0  501    0  0.00000000000E+00 -0.00000000000E+00 -0.18898334370E+04  0.18898334370E+04  0.25500000000E-02 0.  1.
    5000001    1    1    2    0    0 -0.64118736032E+02 -0.10287136850E+03 -0.15244229328E+04  0.15412407368E+04  0.19200000000E+03 0.  0.
   -5000001    1    1    2    0    0  0.64118736032E+02  0.10287136850E+03 -0.32089691084E+03  0.39310629371E+03  0.19200000000E+03 0.  0.
<mgrwt>
<rscale>  0 0.58008026E+03</rscale>
<asrwt>0</asrwt>
<pdfrwt beam="1">  1        2 0.26997616E+00 0.58008026E+03</pdfrwt>
<pdfrwt beam="2">  1       -2 0.63590859E-02 0.58008026E+03</pdfrwt>
<totfact> 0.13281437E+03</totfact>
</mgrwt>
</event>
<event>
 4    1  0.2892809E-005  0.4231234E+03  0.7818608E-02  0.1036055E+00
         -2   -1    0    0    0  501 -0.00000000000E+00  0.00000000000E+00  0.27891171392E+03  0.27891171393E+03  0.25500000000E-02 0. -1.
          2   -1    0    0  501    0  0.00000000000E+00 -0.00000000000E+00 -0.16047497478E+03  0.16047497480E+03  0.25500000000E-02 0.  1.
    5000001    1    1    2    0    0 -0.81141169227E+02  0.13369009231E+02  0.24284123319E+02  0.21027681374E+03  0.19200000000E+03 0.  0.
   -5000001    1    1    2    0    0  0.81141169227E+02 -0.13369009231E+02  0.94152615828E+02  0.22910987499E+03  0.19200000000E+03 0.  0.
<mgrwt>
<rscale>  0 0.42312339E+03</rscale>
<asrwt>0</asrwt>
<pdfrwt beam="1">  1        2 0.22924997E-01 0.42312339E+03</pdfrwt>
<pdfrwt beam="2">  1       -2 0.39844530E-01 0.42312339E+03</pdfrwt>
<totfact> 0.14367727E+03</totfact>
</mgrwt>
</event>
<event>
 4    1  0.2892809E-005  0.5495194E+03  0.7818608E-02  0.1001605E+00
         -2   -1    0    0    0  501 -0.00000000000E+00  0.00000000000E+00  0.25741103032E+02  0.25741103159E+02  0.25500000000E-02 0. -1.
          2   -1    0    0  501    0  0.00000000000E+00 -0.00000000000E+00 -0.29327761334E+04  0.29327761334E+04  0.25500000000E-02 0.  1.
    5000001    1    1    2    0    0  0.50298539388E+02  0.96158454715E+02 -0.57128421186E+03  0.61237736911E+03  0.19200000000E+03 0.  0.
   -5000001    1    1    2    0    0 -0.50298539388E+02 -0.96158454715E+02 -0.23357508185E+04  0.23461398675E+04  0.19200000000E+03 0.  0.
<mgrwt>
<rscale>  0 0.54951940E+03</rscale>
<asrwt>0</asrwt>
<pdfrwt beam="1">  1        2 0.41896781E+00 0.54951940E+03</pdfrwt>
<pdfrwt beam="2">  1       -2 0.36773023E-02 0.54951940E+03</pdfrwt>
<totfact> 0.90777744E+02</totfact>
</mgrwt>
</event>
<event>
 4    1  0.2892809E-005  0.7324099E+03  0.7818608E-02  0.9663358E-01
          2   -1    0    0  501    0  0.00000000000E+00  0.00000000000E+00  0.39401094473E+03  0.39401094474E+03  0.25500000000E-02 0.  1.
         -2   -1    0    0    0  501 -0.00000000000E+00 -0.00000000000E+00 -0.34036125135E+03  0.34036125136E+03  0.25500000000E-02 0. -1.
    5000001    1    1    2    0    0  0.24700085508E+03  0.19013895389E+03  0.35782651369E+02  0.36784051209E+03  0.19200000000E+03 0.  0.
   -5000001    1    1    2    0    0 -0.24700085508E+03 -0.19013895389E+03  0.17867042004E+02  0.36653168401E+03  0.19200000000E+03 0.  0.
<mgrwt>
<rscale>  0 0.73240988E+03</rscale>
<asrwt>0</asrwt>
<pdfrwt beam="1">  1        2 0.56287278E-01 0.73240988E+03</pdfrwt>
<pdfrwt beam="2">  1       -2 0.48623036E-01 0.73240988E+03</pdfrwt>
<totfact> 0.35501533E+02</totfact>
</mgrwt>
</event>
<event>
 4    1  0.2892809E-005  0.4520863E+03  0.7818608E-02  0.1027102E+00
          2   -1    0    0  501    0  0.00000000000E+00  0.00000000000E+00  0.17343489403E+04  0.17343489403E+04  0.25500000000E-02 0.  1.
         -2   -1    0    0    0  501 -0.00000000000E+00 -0.00000000000E+00 -0.29460908289E+02  0.29460908399E+02  0.25500000000E-02 0. -1.
    5000001    1    1    2    0    0 -0.52699636824E+02 -0.10698497987E+03  0.84109776828E+03  0.87093770928E+03  0.19200000000E+03 0.  0.
   -5000001    1    1    2    0    0  0.52699636824E+02  0.10698497987E+03  0.86379026376E+03  0.89287213945E+03  0.19200000000E+03 0.  0.
<mgrwt>
<rscale>  0 0.45208625E+03</rscale>
<asrwt>0</asrwt>
<pdfrwt beam="1">  1        2 0.24776417E+00 0.45208625E+03</pdfrwt>
<pdfrwt beam="2">  1       -2 0.42087006E-02 0.45208625E+03</pdfrwt>
<totfact> 0.30259880E+03</totfact>
</mgrwt>
</event>
<event>
 4    1  0.2892809E-005  0.7747428E+03  0.7818608E-02  0.9597313E-01
          2   -1    0    0  501    0  0.00000000000E+00  0.00000000000E+00  0.10672276368E+04  0.10672276368E+04  0.25500000000E-02 0.  1.
         -2   -1    0    0    0  501 -0.00000000000E+00 -0.00000000000E+00 -0.14060412357E+03  0.14060412359E+03  0.25500000000E-02 0. -1.
    5000001    1    1    2    0    0 -0.49513333339E+02  0.31547778435E+03  0.29821264665E+03  0.47725526212E+03  0.19200000000E+03 0.  0.
   -5000001    1    1    2    0    0  0.49513333339E+02 -0.31547778435E+03  0.62841086656E+03  0.73057649826E+03  0.19200000000E+03 0.  0.
<mgrwt>
<rscale>  0 0.77474281E+03</rscale>
<asrwt>0</asrwt>
<pdfrwt beam="1">  1        2 0.15246109E+00 0.77474281E+03</pdfrwt>
<pdfrwt beam="2">  1       -2 0.20086304E-01 0.77474281E+03</pdfrwt>
<totfact> 0.54308867E+02</totfact>
</mgrwt>
</event>
<event>
 4    1  0.2892809E-005  0.5691718E+03  0.7818608E-02  0.9971513E-01
         -2   -1    0    0    0  501 -0.00000000000E+00  0.00000000000E+00  0.51002848902E+03  0.51002848903E+03  0.25500000000E-02 0. -1.
          2   -1    0    0  501    0  0.00000000000E+00 -0.00000000000E+00 -0.15879335184E+03  0.15879335186E+03  0.25500000000E-02 0.  1.
    5000001    1    1    2    0    0  0.14883909835E+02 -0.20751118216E+03  0.20972952428E+03  0.35232498471E+03  0.19200000000E+03 0.  0.
   -5000001    1    1    2    0    0 -0.14883909835E+02  0.20751118216E+03  0.14150561290E+03  0.31649685618E+03  0.19200000000E+03 0.  0.
<mgrwt>
<rscale>  0 0.56917180E+03</rscale>
<asrwt>0</asrwt>
<pdfrwt beam="1">  1        2 0.22684764E-01 0.56917180E+03</pdfrwt>
<pdfrwt beam="2">  1       -2 0.72861214E-01 0.56917180E+03</pdfrwt>
<totfact> 0.42139603E+02</totfact>
</mgrwt>
</event>
<event>
 4    1  0.2892809E-005  0.6111633E+03  0.7818608E-02  0.9882513E-01
          2   -1    0    0  501    0  0.00000000000E+00  0.00000000000E+00  0.81195834550E+03  0.81195834551E+03  0.25500000000E-02 0.  1.
         -2   -1    0    0    0  501 -0.00000000000E+00 -0.00000000000E+00 -0.11500608234E+03  0.11500608237E+03  0.25500000000E-02 0. -1.
    5000001    1    1    2    0    0 -0.76813077617E+02 -0.21952222212E+03  0.27377251035E+03  0.40731516338E+03  0.19200000000E+03 0.  0.
   -5000001    1    1    2    0    0  0.76813077617E+02  0.21952222212E+03  0.42317975282E+03  0.51964926450E+03  0.19200000000E+03 0.  0.
<mgrwt>
<rscale>  0 0.61116331E+03</rscale>
<asrwt>0</asrwt>
<pdfrwt beam="1">  1        2 0.11599405E+00 0.61116331E+03</pdfrwt>
<pdfrwt beam="2">  1       -2 0.16429440E-01 0.61116331E+03</pdfrwt>
<totfact> 0.11217304E+03</totfact>
</mgrwt>
</event>
<event>
 4    1  0.2892809E-005  0.5101733E+03  0.7818608E-02  0.1011157E+00
         -2   -1    0    0    0  501 -0.00000000000E+00  0.00000000000E+00  0.61019862414E+03  0.61019862414E+03  0.25500000000E-02 0. -1.
          2   -1    0    0  501    0  0.00000000000E+00 -0.00000000000E+00 -0.10663608907E+03  0.10663608910E+03  0.25500000000E-02 0.  1.
    5000001    1    1    2    0    0  0.14693406781E+03  0.68620793222E+02  0.19042633533E+03  0.31531670228E+03  0.19200000000E+03 0.  0.
   -5000001    1    1    2    0    0 -0.14693406781E+03 -0.68620793222E+02  0.31313619973E+03  0.40151801096E+03  0.19200000000E+03 0.  0.
<mgrwt>
<rscale>  0 0.51017328E+03</rscale>
<asrwt>0</asrwt>
<pdfrwt beam="1">  1        2 0.15233727E-01 0.51017328E+03</pdfrwt>
<pdfrwt beam="2">  1       -2 0.87171229E-01 0.51017328E+03</pdfrwt>
<totfact> 0.45186203E+02</totfact>
</mgrwt>
</event>
<event>
 4    1  0.2892809E-005  0.8654878E+03  0.7818608E-02  0.9469782E-01
         -2   -1    0    0    0  501 -0.00000000000E+00  0.00000000000E+00  0.90529731257E+02  0.90529731293E+02  0.25500000000E-02 0. -1.
          2   -1    0    0  501    0  0.00000000000E+00 -0.00000000000E+00 -0.20685720446E+04  0.20685720446E+04  0.25500000000E-02 0.  1.
    5000001    1    1    2    0    0 -0.28675563924E+02 -0.33189280473E+03 -0.49366749781E+03  0.62573694168E+03  0.19200000000E+03 0.  0.
   -5000001    1    1    2    0    0  0.28675563924E+02  0.33189280473E+03 -0.14843748156E+04  0.15333648343E+04  0.19200000000E+03 0.  0.
<mgrwt>
<rscale>  0 0.86548777E+03</rscale>
<asrwt>0</asrwt>
<pdfrwt beam="1">  1        2 0.29551026E+00 0.86548777E+03</pdfrwt>
<pdfrwt beam="2">  1       -2 0.12932820E-01 0.86548777E+03</pdfrwt>
<totfact> 0.33677521E+02</totfact>
</mgrwt>
</event>
<event>
 4    1  0.2892809E-005  0.8212418E+03  0.7818608E-02  0.9529769E-01
          2   -1    0    0  501    0  0.00000000000E+00  0.00000000000E+00  0.13114603832E+04  0.13114603832E+04  0.25500000000E-02 0.  1.
         -2   -1    0    0    0  501 -0.00000000000E+00 -0.00000000000E+00 -0.12856622016E+03  0.12856622019E+03  0.25500000000E-02 0. -1.
    5000001    1    1    2    0    0  0.23782665426E+03  0.14802106490E+03  0.99616844842E+03  0.10524672588E+04  0.19200000000E+03 0.  0.
   -5000001    1    1    2    0    0 -0.23782665426E+03 -0.14802106490E+03  0.18672571466E+03  0.38755934467E+03  0.19200000000E+03 0.  0.
<mgrwt>
<rscale>  0 0.82124175E+03</rscale>
<asrwt>0</asrwt>
<pdfrwt beam="1">  1        2 0.18735148E+00 0.82124175E+03</pdfrwt>
<pdfrwt beam="2">  1       -2 0.18366603E-01 0.82124175E+03</pdfrwt>
<totfact> 0.45992242E+02</totfact>
</mgrwt>
</event>
<event>
 4    1  0.2892809E-005  0.6580068E+03  0.7818608E-02  0.9791870E-01
         -2   -1    0    0    0  501 -0.00000000000E+00  0.00000000000E+00  0.83675786056E+02  0.83675786095E+02  0.25500000000E-02 0. -1.
          2   -1    0    0  501    0  0.00000000000E+00 -0.00000000000E+00 -0.12936029412E+04  0.12936029412E+04  0.25500000000E-02 0.  1.
    5000001    1    1    2    0    0 -0.19734697786E+03 -0.15050998593E+03 -0.39796642592E+03  0.50679420054E+03  0.19200000000E+03 0.  0.
   -5000001    1    1    2    0    0  0.19734697786E+03  0.15050998593E+03 -0.81196072924E+03  0.87048452678E+03  0.19200000000E+03 0.  0.
<mgrwt>
<rscale>  0 0.65800682E+03</rscale>
<asrwt>0</asrwt>
<pdfrwt beam="1">  1        2 0.18480041E+00 0.65800682E+03</pdfrwt>
<pdfrwt beam="2">  1       -2 0.11953685E-01 0.65800682E+03</pdfrwt>
<totfact> 0.97824192E+02</totfact>
</mgrwt>
</event>
<event>
 4    1  0.2892809E-005  0.6626075E+03  0.7818608E-02  0.9783405E-01
          2   -1    0    0  501    0  0.00000000000E+00  0.00000000000E+00  0.44737071929E+04  0.44737071929E+04  0.25500000000E-02 0.  1.
         -2   -1    0    0    0  501 -0.00000000000E+00 -0.00000000000E+00 -0.24534951603E+02  0.24534951736E+02  0.25500000000E-02 0. -1.
    5000001    1    1    2    0    0 -0.14193535543E+03 -0.22032704819E+03  0.17841813638E+04  0.18135205519E+04  0.19200000000E+03 0.  0.
   -5000001    1    1    2    0    0  0.14193535543E+03  0.22032704819E+03  0.26649908775E+04  0.26847215927E+04  0.19200000000E+03 0.  0.
<mgrwt>
<rscale>  0 0.66260755E+03</rscale>
<asrwt>0</asrwt>
<pdfrwt beam="1">  1        2 0.63910122E+00 0.66260755E+03</pdfrwt>
<pdfrwt beam="2">  1       -2 0.35049921E-02 0.66260755E+03</pdfrwt>
<totfact> 0.10253458E+02</totfact>
</mgrwt>
</event>
<event>
 4    1  0.2892809E-005  0.4516579E+03  0.7818608E-02  0.1027229E+00
          2   -1    0    0  501    0  0.00000000000E+00  0.00000000000E+00  0.12839813372E+04  0.12839813372E+04  0.25500000000E-02 0.  1.
         -2   -1    0    0    0  501 -0.00000000000E+00 -0.00000000000E+00 -0.39719203422E+02  0.39719203504E+02  0.25500000000E-02 0. -1.
    5000001    1    1    2    0    0 -0.53341172338E+02  0.10526062862E+03  0.57969721902E+03  0.62196297828E+03  0.19200000000E+03 0.  0.
   -5000001    1    1    2    0    0  0.53341172338E+02 -0.10526062862E+03  0.66456491477E+03  0.70173756244E+03  0.19200000000E+03 0.  0.
<mgrwt>
<rscale>  0 0.45165791E+03</rscale>
<asrwt>0</asrwt>
<pdfrwt beam="1">  1        2 0.18342592E+00 0.45165791E+03</pdfrwt>
<pdfrwt beam="2">  1       -2 0.56741716E-02 0.45165791E+03</pdfrwt>
<totfact> 0.32654593E+03</totfact>
</mgrwt>
</event>
<event>
 4    1  0.2892809E-005  0.5527888E+03  0.7818608E-02  0.1000850E+00
         -2   -1    0    0    0  501 -0.00000000000E+00  0.00000000000E+00  0.35697341248E+02  0.35697341339E+02  0.25500000000E-02 0. -1.
          2   -1    0    0  501    0  0.00000000000E+00 -0.00000000000E+00 -0.21400438458E+04  0.21400438458E+04  0.25500000000E-02 0.  1.
    5000001    1    1    2    0    0  0.98885862099E+02  0.17180125994E+03 -0.99173531191E+03  0.10294158613E+04  0.19200000000E+03 0.  0.
   -5000001    1    1    2    0    0 -0.98885862099E+02 -0.17180125994E+03 -0.11126111927E+04  0.11463253259E+04  0.19200000000E+03 0.  0.
<mgrwt>
<rscale>  0 0.55278884E+03</rscale>
<asrwt>0</asrwt>
<pdfrwt beam="1">  1        2 0.30572047E+00 0.55278884E+03</pdfrwt>
<pdfrwt beam="2">  1       -2 0.50996215E-02 0.55278884E+03</pdfrwt>
<totfact> 0.14057587E+03</totfact>
</mgrwt>
</event>
<event>
 4    1  0.2892809E-005  0.6461273E+03  0.7818608E-02  0.9814073E-01
         -2   -1    0    0    0  501 -0.00000000000E+00  0.00000000000E+00  0.15391401992E+03  0.15391401994E+03  0.25500000000E-02 0. -1.
          2   -1    0    0  501    0  0.00000000000E+00 -0.00000000000E+00 -0.67810671793E+03  0.67810671793E+03  0.25500000000E-02 0.  1.
    5000001    1    1    2    0    0  0.20671888756E+03  0.10225418020E+02 -0.46434735857E+03  0.54343327747E+03  0.19200000000E+03 0.  0.
   -5000001    1    1    2    0    0 -0.20671888756E+03 -0.10225418020E+02 -0.59845339443E+02  0.28858746040E+03  0.19200000000E+03 0.  0.
<mgrwt>
<rscale>  0 0.64612733E+03</rscale>
<asrwt>0</asrwt>
<pdfrwt beam="1">  1        2 0.96872387E-01 0.64612733E+03</pdfrwt>
<pdfrwt beam="2">  1       -2 0.21987717E-01 0.64612733E+03</pdfrwt>
<totfact> 0.84729910E+02</totfact>
</mgrwt>
</event>
<event>
 4    1  0.2892809E-005  0.7137070E+03  0.7818608E-02  0.9694074E-01
          2   -1    0    0  501    0  0.00000000000E+00  0.00000000000E+00  0.27664623693E+04  0.27664623693E+04  0.25500000000E-02 0.  1.
         -2   -1    0    0    0  501 -0.00000000000E+00 -0.00000000000E+00 -0.46031504088E+02  0.46031504158E+02  0.25500000000E-02 0. -1.
    5000001    1    1    2    0    0 -0.20938885267E+03  0.48092506350E+02  0.53057420088E+03  0.60376283707E+03  0.19200000000E+03 0.  0.
   -5000001    1    1    2    0    0  0.20938885267E+03 -0.48092506350E+02  0.21898566644E+04  0.22087310364E+04  0.19200000000E+03 0.  0.
<mgrwt>
<rscale>  0 0.71370701E+03</rscale>
<asrwt>0</asrwt>
<pdfrwt beam="1">  1        2 0.39520902E+00 0.71370701E+03</pdfrwt>
<pdfrwt beam="2">  1       -2 0.65759274E-02 0.71370701E+03</pdfrwt>
<totfact> 0.44511221E+02</totfact>
</mgrwt>
</event>
<event>
 4    1  0.2892809E-005  0.5238970E+03  0.7818608E-02  0.1007723E+00
          2   -1    0    0  501    0  0.00000000000E+00  0.00000000000E+00  0.13244774259E+04  0.13244774259E+04  0.25500000000E-02 0.  1.
         -2   -1    0    0    0  501 -0.00000000000E+00 -0.00000000000E+00 -0.51806865224E+02  0.51806865287E+02  0.25500000000E-02 0. -1.
    5000001    1    1    2    0    0  0.13657835224E+03  0.78727152071E+02  0.41809685418E+03  0.48633382594E+03  0.19200000000E+03 0.  0.
   -5000001    1    1    2    0    0 -0.13657835224E+03 -0.78727152071E+02  0.85457370653E+03  0.88995046529E+03  0.19200000000E+03 0.  0.
<mgrwt>
<rscale>  0 0.52389703E+03</rscale>
<asrwt>0</asrwt>
<pdfrwt beam="1">  1        2 0.18921103E+00 0.52389703E+03</pdfrwt>
<pdfrwt beam="2">  1       -2 0.74009820E-02 0.52389703E+03</pdfrwt>
<totfact> 0.20473854E+03</totfact>
</mgrwt>
</event>
<event>
 4    1  0.2892809E-005  0.6518428E+03  0.7818608E-02  0.9803327E-01
         -2   -1    0    0    0  501 -0.00000000000E+00  0.00000000000E+00  0.21420555408E+03  0.21420555409E+03  0.25500000000E-02 0. -1.
          2   -1    0    0  501    0  0.00000000000E+00 -0.00000000000E+00 -0.49590109192E+03  0.49590109193E+03  0.25500000000E-02 0.  1.
    5000001    1    1    2    0    0  0.10193258054E+03 -0.24090493756E+03 -0.10753101256E+03  0.34183674258E+03  0.19200000000E+03 0.  0.
   -5000001    1    1    2    0    0 -0.10193258054E+03  0.24090493756E+03 -0.17416452528E+03  0.36826990344E+03  0.19200000000E+03 0.  0.
<mgrwt>
<rscale>  0 0.65184283E+03</rscale>
<asrwt>0</asrwt>
<pdfrwt beam="1">  1        2 0.70843012E-01 0.65184283E+03</pdfrwt>
<pdfrwt beam="2">  1       -2 0.30600794E-01 0.65184283E+03</pdfrwt>
<totfact> 0.67256797E+02</totfact>
</mgrwt>
</event>
<event>
 4    1  0.2892809E-005  0.7727462E+03  0.7818608E-02  0.9600326E-01
         -2   -1    0    0    0  501 -0.00000000000E+00  0.00000000000E+00  0.10360899544E+03  0.10360899547E+03  0.25500000000E-02 0. -1.
          2   -1    0    0  501    0  0.00000000000E+00 -0.00000000000E+00 -0.14408417327E+04  0.14408417327E+04  0.25500000000E-02 0.  1.
    5000001    1    1    2    0    0  0.30067981782E+03  0.14696779562E+03 -0.70919829558E+03  0.80736243921E+03  0.19200000000E+03 0.  0.
   -5000001    1    1    2    0    0 -0.30067981782E+03 -0.14696779562E+03 -0.62803444170E+03  0.73708828898E+03  0.19200000000E+03 0.  0.
<mgrwt>
<rscale>  0 0.77274618E+03</rscale>
<asrwt>0</asrwt>
<pdfrwt beam="1">  1        2 0.20583452E+00 0.77274618E+03</pdfrwt>
<pdfrwt beam="2">  1       -2 0.14801286E-01 0.77274618E+03</pdfrwt>
<totfact> 0.56781786E+02</totfact>
</mgrwt>
</event>
<event>
 4    1  0.2892809E-005  0.5337512E+03  0.7818608E-02  0.1005326E+00
         -2   -1    0    0    0  501 -0.00000000000E+00  0.00000000000E+00  0.10201386241E+03  0.10201386244E+03  0.25500000000E-02 0. -1.
          2   -1    0    0  501    0  0.00000000000E+00 -0.00000000000E+00 -0.69816569117E+03  0.69816569118E+03  0.25500000000E-02 0.  1.
    5000001    1    1    2    0    0 -0.17537793944E+03  0.53949282147E+00 -0.38803646235E+03  0.46711241560E+03  0.19200000000E+03 0.  0.
   -5000001    1    1    2    0    0  0.17537793944E+03 -0.53949282147E+00 -0.20811536640E+03  0.33306713802E+03  0.19200000000E+03 0.  0.
<mgrwt>
<rscale>  0 0.53375117E+03</rscale>
<asrwt>0</asrwt>
<pdfrwt beam="1">  1        2 0.99737953E-01 0.53375117E+03</pdfrwt>
<pdfrwt beam="2">  1       -2 0.14573409E-01 0.53375117E+03</pdfrwt>
<totfact> 0.16598035E+03</totfact>
</mgrwt>
</event>
<event>
 4    1  0.2892809E-005  0.7939004E+03  0.7818608E-02  0.9568888E-01
         -2   -1    0    0    0  501 -0.00000000000E+00  0.00000000000E+00  0.83018222398E+02  0.83018222437E+02  0.25500000000E-02 0. -1.
          2   -1    0    0  501    0  0.00000000000E+00 -0.00000000000E+00 -0.18980105069E+04  0.18980105069E+04  0.25500000000E-02 0.  1.
    5000001    1    1    2    0    0 -0.21638251695E+03  0.18432978215E+03 -0.14059754099E+04  0.14472144677E+04  0.19200000000E+03 0.  0.
   -5000001    1    1    2    0    0  0.21638251695E+03 -0.18432978215E+03 -0.40901687457E+03  0.53381426162E+03  0.19200000000E+03 0.  0.
<mgrwt>
<rscale>  0 0.79390039E+03</rscale>
<asrwt>0</asrwt>
<pdfrwt beam="1">  1        2 0.27114433E+00 0.79390039E+03</pdfrwt>
<pdfrwt beam="2">  1       -2 0.11859747E-01 0.79390039E+03</pdfrwt>
<totfact> 0.47690833E+02</totfact>
</mgrwt>
</event>
<event>
 4    1  0.2892809E-005  0.9392119E+03  0.7818608E-02  0.9377850E-01
         -2   -1    0    0    0  501 -0.00000000000E+00  0.00000000000E+00  0.66648580941E+03  0.66648580941E+03  0.25500000000E-02 0. -1.
          2   -1    0    0  501    0  0.00000000000E+00 -0.00000000000E+00 -0.33088440960E+03  0.33088440961E+03  0.25500000000E-02 0.  1.
    5000001    1    1    2    0    0 -0.78302593979E+02  0.36739955621E+03 -0.51254190852E+02  0.42497614310E+03  0.19200000000E+03 0.  0.
   -5000001    1    1    2    0    0  0.78302593979E+02 -0.36739955621E+03  0.38685559066E+03  0.57239407592E+03  0.19200000000E+03 0.  0.
<mgrwt>
<rscale>  0 0.93921193E+03</rscale>
<asrwt>0</asrwt>
<pdfrwt beam="1">  1        2 0.47269201E-01 0.93921193E+03</pdfrwt>
<pdfrwt beam="2">  1       -2 0.95212259E-01 0.93921193E+03</pdfrwt>
<totfact> 0.99327976E+01</totfact>
</mgrwt>
</event>
<event>
 4    1  0.2892809E-005  0.8715639E+03  0.7818608E-02  0.9461843E-01
          2   -1    0    0  501    0  0.00000000000E+00  0.00000000000E+00  0.27107682601E+04  0.27107682601E+04  0.25500000000E-02 0.  1.
         -2   -1    0    0    0  501 -0.00000000000E+00 -0.00000000000E+00 -0.70056125944E+02  0.70056125991E+02  0.25500000000E-02 0. -1.
    5000001    1    1    2    0    0  0.21104159064E+03 -0.32542027856E+03  0.14832028483E+04  0.15450539148E+04  0.19200000000E+03 0.  0.
   -5000001    1    1    2    0    0 -0.21104159064E+03  0.32542027856E+03  0.11575092859E+04  0.12357704713E+04  0.19200000000E+03 0.  0.
<mgrwt>
<rscale>  0 0.87156393E+03</rscale>
<asrwt>0</asrwt>
<pdfrwt beam="1">  1        2 0.38725250E+00 0.87156393E+03</pdfrwt>
<pdfrwt beam="2">  1       -2 0.10008021E-01 0.87156393E+03</pdfrwt>
<totfact> 0.23953455E+02</totfact>
</mgrwt>
</event>
<event>
 4    1  0.2892809E-005  0.4167993E+03  0.7818608E-02  0.1038113E+00
          2   -1    0    0  501    0  0.00000000000E+00  0.00000000000E+00  0.47259372613E+03  0.47259372614E+03  0.25500000000E-02 0.  1.
         -2   -1    0    0    0  501 -0.00000000000E+00 -0.00000000000E+00 -0.91897993432E+02  0.91897993468E+02  0.25500000000E-02 0. -1.
    5000001    1    1    2    0    0 -0.72367590819E+02  0.33443393606E+02  0.21001562412E+03  0.29550988334E+03  0.19200000000E+03 0.  0.
   -5000001    1    1    2    0    0  0.72367590819E+02 -0.33443393606E+02  0.17068010858E+03  0.26898183627E+03  0.19200000000E+03 0.  0.
<mgrwt>
<rscale>  0 0.41679930E+03</rscale>
<asrwt>0</asrwt>
<pdfrwt beam="1">  1        2 0.67513391E-01 0.41679930E+03</pdfrwt>
<pdfrwt beam="2">  1       -2 0.13128285E-01 0.41679930E+03</pdfrwt>
<totfact> 0.30983007E+03</totfact>
</mgrwt>
</event>
<event>
 4    1  0.2892809E-005  0.7970392E+03  0.7818608E-02  0.9564313E-01
          2   -1    0    0  501    0  0.00000000000E+00  0.00000000000E+00  0.61386907356E+03  0.61386907356E+03  0.25500000000E-02 0.  1.
         -2   -1    0    0    0  501 -0.00000000000E+00 -0.00000000000E+00 -0.25871622454E+03  0.25871622455E+03  0.25500000000E-02 0. -1.
    5000001    1    1    2    0    0 -0.25400028066E+03  0.16073561380E+03 -0.17042092008E+02  0.35708054136E+03  0.19200000000E+03 0.  0.
   -5000001    1    1    2    0    0  0.25400028066E+03 -0.16073561380E+03  0.37219494102E+03  0.51550475676E+03  0.19200000000E+03 0.  0.
<mgrwt>
<rscale>  0 0.79703924E+03</rscale>
<asrwt>0</asrwt>
<pdfrwt beam="1">  1        2 0.87695581E-01 0.79703924E+03</pdfrwt>
<pdfrwt beam="2">  1       -2 0.36959461E-01 0.79703924E+03</pdfrwt>
<totfact> 0.36579324E+02</totfact>
</mgrwt>
</event>
<event>
 4    1  0.2892809E-005  0.9275517E+03  0.7818608E-02  0.9391781E-01
          2   -1    0    0  501    0  0.00000000000E+00  0.00000000000E+00  0.11410199390E+04  0.11410199390E+04  0.25500000000E-02 0.  1.
         -2   -1    0    0    0  501 -0.00000000000E+00 -0.00000000000E+00 -0.18850506130E+03  0.18850506132E+03  0.25500000000E-02 0. -1.
    5000001    1    1    2    0    0 -0.23838921830E+03 -0.33363019486E+03  0.33230890011E+03  0.56163309323E+03  0.19200000000E+03 0.  0.
   -5000001    1    1    2    0    0  0.23838921830E+03  0.33363019486E+03  0.62020597755E+03  0.76789190705E+03  0.19200000000E+03 0.  0.
<mgrwt>
<rscale>  0 0.92755169E+03</rscale>
<asrwt>0</asrwt>
<pdfrwt beam="1">  1        2 0.16300285E+00 0.92755169E+03</pdfrwt>
<pdfrwt beam="2">  1       -2 0.26929294E-01 0.92755169E+03</pdfrwt>
<totfact> 0.28897407E+02</totfact>
</mgrwt>
</event>
<event>
 4    1  0.2892809E-005  0.5249289E+03  0.7818608E-02  0.1007469E+00
         -2   -1    0    0    0  501 -0.00000000000E+00  0.00000000000E+00  0.24421940730E+02  0.24421940863E+02  0.25500000000E-02 0. -1.
          2   -1    0    0  501    0  0.00000000000E+00 -0.00000000000E+00 -0.28207258157E+04  0.28207258157E+04  0.25500000000E-02 0.  1.
    5000001    1    1    2    0    0  0.14124119306E+03 -0.24840909701E+02 -0.19783127052E+04  0.19927747753E+04  0.19200000000E+03 0.  0.
   -5000001    1    1    2    0    0 -0.14124119306E+03  0.24840909701E+02 -0.81799116979E+03  0.85237298131E+03  0.19200000000E+03 0.  0.
<mgrwt>
<rscale>  0 0.52492894E+03</rscale>
<asrwt>0</asrwt>
<pdfrwt beam="1">  1        2 0.40296063E+00 0.52492894E+03</pdfrwt>
<pdfrwt beam="2">  1       -2 0.34888505E-02 0.52492894E+03</pdfrwt>
<totfact> 0.11310531E+03</totfact>
</mgrwt>
</event>
<event>
 4    1  0.2892809E-005  0.6559139E+03  0.7818608E-02  0.9795745E-01
         -2   -1    0    0    0  501 -0.00000000000E+00  0.00000000000E+00  0.82167264128E+03  0.82167264128E+03  0.25500000000E-02 0. -1.
          2   -1    0    0  501    0  0.00000000000E+00 -0.00000000000E+00 -0.13089854162E+03  0.13089854164E+03  0.25500000000E-02 0.  1.
    5000001    1    1    2    0    0 -0.93420972745E+02 -0.81439184282E+02  0.37707836249E+01  0.22855642125E+03  0.19200000000E+03 0.  0.
   -5000001    1    1    2    0    0  0.93420972745E+02  0.81439184282E+02  0.68700331604E+03  0.72401476168E+03  0.19200000000E+03 0.  0.
<mgrwt>
<rscale>  0 0.65591387E+03</rscale>
<asrwt>0</asrwt>
<pdfrwt beam="1">  1        2 0.18699791E-01 0.65591387E+03</pdfrwt>
<pdfrwt beam="2">  1       -2 0.11738181E+00 0.65591387E+03</pdfrwt>
<totfact> 0.17458006E+02</totfact>
</mgrwt>
</event>
<event>
 4    1  0.2892809E-005  0.5407962E+03  0.7818608E-02  0.1003647E+00
          2   -1    0    0  501    0  0.00000000000E+00  0.00000000000E+00  0.20791912889E+03  0.20791912890E+03  0.25500000000E-02 0.  1.
         -2   -1    0    0    0  501 -0.00000000000E+00 -0.00000000000E+00 -0.35165177473E+03  0.35165177474E+03  0.25500000000E-02 0. -1.
    5000001    1    1    2    0    0 -0.14826865915E+03 -0.11823185142E+03 -0.54283299615E+02  0.27526903675E+03  0.19200000000E+03 0.  0.
   -5000001    1    1    2    0    0  0.14826865915E+03  0.11823185142E+03 -0.89449346229E+02  0.28430186689E+03  0.19200000000E+03 0.  0.
<mgrwt>
<rscale>  0 0.54079619E+03</rscale>
<asrwt>0</asrwt>
<pdfrwt beam="1">  1        2 0.29702733E-01 0.54079619E+03</pdfrwt>
<pdfrwt beam="2">  1       -2 0.50235968E-01 0.54079619E+03</pdfrwt>
<totfact> 0.67860880E+02</totfact>
</mgrwt>
</event>
<event>
 4    1  0.2892809E-005  0.4720053E+03  0.7818608E-02  0.1021356E+00
         -2   -1    0    0    0  501 -0.00000000000E+00  0.00000000000E+00  0.14183663767E+04  0.14183663767E+04  0.25500000000E-02 0. -1.
          2   -1    0    0  501    0  0.00000000000E+00 -0.00000000000E+00 -0.39268589208E+02  0.39268589290E+02  0.25500000000E-02 0.  1.
    5000001    1    1    2    0    0  0.10102821752E+03  0.92846422320E+02  0.68192930659E+03  0.72160843818E+03  0.19200000000E+03 0.  0.
   -5000001    1    1    2    0    0 -0.10102821752E+03 -0.92846422320E+02  0.69716848088E+03  0.73602652779E+03  0.19200000000E+03 0.  0.
<mgrwt>
<rscale>  0 0.47200528E+03</rscale>
<asrwt>0</asrwt>
<pdfrwt beam="1">  1        2 0.56097986E-02 0.47200528E+03</pdfrwt>
<pdfrwt beam="2">  1       -2 0.20262376E+00 0.47200528E+03</pdfrwt>
<totfact> 0.18641461E+02</totfact>
</mgrwt>
</event>
<event>
 4    1  0.2892809E-005  0.4169651E+03  0.7818608E-02  0.1038059E+00
         -2   -1    0    0    0  501 -0.00000000000E+00  0.00000000000E+00  0.45799594717E+02  0.45799594788E+02  0.25500000000E-02 0. -1.
          2   -1    0    0  501    0  0.00000000000E+00 -0.00000000000E+00 -0.94902536873E+03  0.94902536873E+03  0.25500000000E-02 0.  1.
    5000001    1    1    2    0    0 -0.19357731318E+02  0.78905485782E+02 -0.45060106298E+03  0.49649382213E+03  0.19200000000E+03 0.  0.
   -5000001    1    1    2    0    0  0.19357731318E+02 -0.78905485782E+02 -0.45262471103E+03  0.49833114139E+03  0.19200000000E+03 0.  0.
<mgrwt>
<rscale>  0 0.41696512E+03</rscale>
<asrwt>0</asrwt>
<pdfrwt beam="1">  1        2 0.13557504E+00 0.41696512E+03</pdfrwt>
<pdfrwt beam="2">  1       -2 0.65427999E-02 0.41696512E+03</pdfrwt>
<totfact> 0.40703413E+03</totfact>
</mgrwt>
</event>
<event>
 4    1  0.2892809E-005  0.6799723E+03  0.7818608E-02  0.9752109E-01
         -2   -1    0    0    0  501 -0.00000000000E+00  0.00000000000E+00  0.14011504056E+03  0.14011504058E+03  0.25500000000E-02 0. -1.
          2   -1    0    0  501    0  0.00000000000E+00 -0.00000000000E+00 -0.82496909198E+03  0.82496909198E+03  0.25500000000E-02 0.  1.
    5000001    1    1    2    0    0 -0.20905246672E+03  0.17163117454E+03 -0.23653566253E+03  0.40739822479E+03  0.19200000000E+03 0.  0.
   -5000001    1    1    2    0    0  0.20905246672E+03 -0.17163117454E+03 -0.44831838888E+03  0.55768590777E+03  0.19200000000E+03 0.  0.
<mgrwt>
<rscale>  0 0.67997229E+03</rscale>
<asrwt>0</asrwt>
<pdfrwt beam="1">  1        2 0.11785273E+00 0.67997229E+03</pdfrwt>
<pdfrwt beam="2">  1       -2 0.20016435E-01 0.67997229E+03</pdfrwt>
<totfact> 0.78080303E+02</totfact>
</mgrwt>
</event>
<event>
 4    1  0.2892809E-005  0.4660149E+03  0.7818608E-02  0.1023051E+00
          2   -1    0    0  501    0  0.00000000000E+00  0.00000000000E+00  0.21924507054E+04  0.21924507054E+04  0.25500000000E-02 0.  1.
         -2   -1    0    0    0  501 -0.00000000000E+00 -0.00000000000E+00 -0.24763375653E+02  0.24763375785E+02  0.25500000000E-02 0. -1.
    5000001    1    1    2    0    0  0.32499836062E+02 -0.10010170262E+03  0.70465155984E+03  0.73788509335E+03  0.19200000000E+03 0.  0.
   -5000001    1    1    2    0    0 -0.32499836062E+02  0.10010170262E+03  0.14630357700E+04  0.14793289879E+04  0.19200000000E+03 0.  0.
<mgrwt>
<rscale>  0 0.46601494E+03</rscale>
<asrwt>0</asrwt>
<pdfrwt beam="1">  1        2 0.31320729E+00 0.46601494E+03</pdfrwt>
<pdfrwt beam="2">  1       -2 0.35376246E-02 0.46601494E+03</pdfrwt>
<totfact> 0.23296458E+03</totfact>
</mgrwt>
</event>
<event>
 4    1  0.2892809E-005  0.7601045E+03  0.7818608E-02  0.9619630E-01
          2   -1    0    0  501    0  0.00000000000E+00  0.00000000000E+00  0.63540631844E+03  0.63540631844E+03  0.25500000000E-02 0.  1.
         -2   -1    0    0    0  501 -0.00000000000E+00 -0.00000000000E+00 -0.22731867748E+03  0.22731867749E+03  0.25500000000E-02 0. -1.
    5000001    1    1    2    0    0 -0.17744814447E+03  0.26381155073E+03  0.29549018190E+03  0.47461861096E+03  0.19200000000E+03 0.  0.
   -5000001    1    1    2    0    0  0.17744814447E+03 -0.26381155073E+03  0.11259745906E+03  0.38810638498E+03  0.19200000000E+03 0.  0.
<mgrwt>
<rscale>  0 0.76010453E+03</rscale>
<asrwt>0</asrwt>
<pdfrwt beam="1">  1        2 0.90772332E-01 0.76010453E+03</pdfrwt>
<pdfrwt beam="2">  1       -2 0.32474097E-01 0.76010453E+03</pdfrwt>
<totfact> 0.44938768E+02</totfact>
</mgrwt>
</event>
<event>
 4    1  0.2892809E-005  0.5928870E+03  0.7818608E-02  0.9920274E-01
          2   -1    0    0  501    0  0.00000000000E+00  0.00000000000E+00  0.25055807719E+03  0.25055807721E+03  0.25500000000E-02 0.  1.
         -2   -1    0    0    0  501 -0.00000000000E+00 -0.00000000000E+00 -0.35073211012E+03  0.35073211013E+03  0.25500000000E-02 0. -1.
    5000001    1    1    2    0    0 -0.75640454089E+02  0.18840940669E+03 -0.15046035519E+03  0.31736713961E+03  0.19200000000E+03 0.  0.
   -5000001    1    1    2    0    0  0.75640454089E+02 -0.18840940669E+03  0.50286322258E+02  0.28392304773E+03  0.19200000000E+03 0.  0.
<mgrwt>
<rscale>  0 0.59288705E+03</rscale>
<asrwt>0</asrwt>
<pdfrwt beam="1">  1        2 0.35794011E-01 0.59288705E+03</pdfrwt>
<pdfrwt beam="2">  1       -2 0.50104587E-01 0.59288705E+03</pdfrwt>
<totfact> 0.55369177E+02</totfact>
</mgrwt>
</event>
<event>
 4    1  0.2892809E-005  0.5359273E+03  0.7818608E-02  0.1004805E+00
          2   -1    0    0  501    0  0.00000000000E+00  0.00000000000E+00  0.20831114588E+04  0.20831114588E+04  0.25500000000E-02 0.  1.
         -2   -1    0    0    0  501 -0.00000000000E+00 -0.00000000000E+00 -0.34469840142E+02  0.34469840236E+02  0.25500000000E-02 0. -1.
    5000001    1    1    2    0    0  0.91747446410E+02 -0.10271425805E+03  0.15236919751E+04  0.15419043575E+04  0.19200000000E+03 0.  0.
   -5000001    1    1    2    0    0 -0.91747446410E+02  0.10271425805E+03  0.52494964351E+03  0.57567694148E+03  0.19200000000E+03 0.  0.
<mgrwt>
<rscale>  0 0.53592731E+03</rscale>
<asrwt>0</asrwt>
<pdfrwt beam="1">  1        2 0.29758742E+00 0.53592731E+03</pdfrwt>
<pdfrwt beam="2">  1       -2 0.49242617E-02 0.53592731E+03</pdfrwt>
<totfact> 0.15861430E+03</totfact>
</mgrwt>
</event>
<event>
 4    1  0.2892809E-005  0.8372575E+03  0.7818608E-02  0.9507601E-01
          2   -1    0    0  501    0  0.00000000000E+00  0.00000000000E+00  0.26094681791E+04  0.26094681791E+04  0.25500000000E-02 0.  1.
         -2   -1    0    0    0  501 -0.00000000000E+00 -0.00000000000E+00 -0.67159293413E+02  0.67159293461E+02  0.25500000000E-02 0. -1.
    5000001    1    1    2    0    0 -0.26341798005E+03 -0.25041305337E+03  0.15247051849E+04  0.15791407886E+04  0.19200000000E+03 0.  0.
   -5000001    1    1    2    0    0  0.26341798005E+03  0.25041305337E+03  0.10176037008E+04  0.10974866839E+04  0.19200000000E+03 0.  0.
<mgrwt>
<rscale>  0 0.83725752E+03</rscale>
<asrwt>0</asrwt>
<pdfrwt beam="1">  1        2 0.37278115E+00 0.83725752E+03</pdfrwt>
<pdfrwt beam="2">  1       -2 0.95941853E-02 0.83725752E+03</pdfrwt>
<totfact> 0.29097840E+02</totfact>
</mgrwt>
</event>
<event>
 4    1  0.2892809E-005  0.4069674E+03  0.7818608E-02  0.1041393E+00
          2   -1    0    0  501    0  0.00000000000E+00  0.00000000000E+00  0.19976039747E+04  0.19976039747E+04  0.25500000000E-02 0.  1.
         -2   -1    0    0    0  501 -0.00000000000E+00 -0.00000000000E+00 -0.20727642313E+02  0.20727642469E+02  0.25500000000E-02 0. -1.
    5000001    1    1    2    0    0 -0.44882951513E+02  0.48360804353E+02  0.10565062409E+04  0.10758358071E+04  0.19200000000E+03 0.  0.
   -5000001    1    1    2    0    0  0.44882951513E+02 -0.48360804353E+02  0.92037009144E+03  0.94249581005E+03  0.19200000000E+03 0.  0.
<mgrwt>
<rscale>  0 0.40696742E+03</rscale>
<asrwt>0</asrwt>
<pdfrwt beam="1">  1        2 0.28537203E+00 0.40696742E+03</pdfrwt>
<pdfrwt beam="2">  1       -2 0.29610914E-02 0.40696742E+03</pdfrwt>
<totfact> 0.38175184E+03</totfact>
</mgrwt>
</event>
<event>
 4    1  0.2892809E-005  0.6685269E+03  0.7818608E-02  0.9772623E-01
          2   -1    0    0  501    0  0.00000000000E+00  0.00000000000E+00  0.52107837855E+03  0.52107837856E+03  0.25500000000E-02 0.  1.
         -2   -1    0    0    0  501 -0.00000000000E+00 -0.00000000000E+00 -0.21442463127E+03  0.21442463128E+03  0.25500000000E-02 0. -1.
    5000001    1    1    2    0    0  0.21977322187E+02  0.26641451010E+03  0.21755679498E+03  0.39453092771E+03  0.19200000000E+03 0.  0.
   -5000001    1    1    2    0    0 -0.21977322187E+02 -0.26641451010E+03  0.89096952306E+02  0.34097208213E+03  0.19200000000E+03 0.  0.
<mgrwt>
<rscale>  0 0.66852686E+03</rscale>
<asrwt>0</asrwt>
<pdfrwt beam="1">  1        2 0.74439769E-01 0.66852686E+03</pdfrwt>
<pdfrwt beam="2">  1       -2 0.30632090E-01 0.66852686E+03</pdfrwt>
<totfact> 0.63408828E+02</totfact>
</mgrwt>
</event>
<event>
 4    1  0.2892809E-005  0.1081868E+04  0.7818608E-02  0.9223047E-01
          2   -1    0    0  501    0  0.00000000000E+00  0.00000000000E+00  0.85692995432E+03  0.85692995432E+03  0.25500000000E-02 0.  1.
         -2   -1    0    0    0  501 -0.00000000000E+00 -0.00000000000E+00 -0.34146285970E+03  0.34146285971E+03  0.25500000000E-02 0. -1.
    5000001    1    1    2    0    0 -0.12689240568E+03  0.38045645056E+03 -0.83499394745E+02  0.45242120011E+03  0.19200000000E+03 0.  0.
   -5000001    1    1    2    0    0  0.12689240568E+03 -0.38045645056E+03  0.59896648937E+03  0.74597161392E+03  0.19200000000E+03 0.  0.
<mgrwt>
<rscale>  0 0.10818683E+04</rscale>
<asrwt>0</asrwt>
<pdfrwt beam="1">  1        2 0.12241856E+00 0.10818683E+04</pdfrwt>
<pdfrwt beam="2">  1       -2 0.48780410E-01 0.10818683E+04</pdfrwt>
<totfact> 0.13734031E+02</totfact>
</mgrwt>
</event>
<event>
 4    1  0.2892809E-005  0.4898050E+03  0.7818608E-02  0.1016475E+00
          2   -1    0    0  501    0  0.00000000000E+00  0.00000000000E+00  0.56338788908E+03  0.56338788909E+03  0.25500000000E-02 0.  1.
         -2   -1    0    0    0  501 -0.00000000000E+00 -0.00000000000E+00 -0.10645816957E+03  0.10645816960E+03  0.25500000000E-02 0. -1.
    5000001    1    1    2    0    0  0.13106699400E+03 -0.62088150923E+02  0.16609753405E+03  0.29237969529E+03  0.19200000000E+03 0.  0.
   -5000001    1    1    2    0    0 -0.13106699400E+03  0.62088150923E+02  0.29083218546E+03  0.37746636340E+03  0.19200000000E+03 0.  0.
<mgrwt>
<rscale>  0 0.48980504E+03</rscale>
<asrwt>0</asrwt>
<pdfrwt beam="1">  1        2 0.80483983E-01 0.48980504E+03</pdfrwt>
<pdfrwt beam="2">  1       -2 0.15208310E-01 0.48980504E+03</pdfrwt>
<totfact> 0.19914600E+03</totfact>
</mgrwt>
</event>
<event>
 4    1  0.2892809E-005  0.1418083E+04  0.7818608E-02  0.8940832E-01
         -2   -1    0    0    0  501 -0.00000000000E+00  0.00000000000E+00  0.58848675509E+03  0.58848675510E+03  0.25500000000E-02 0. -1.
          2   -1    0    0  501    0  0.00000000000E+00 -0.00000000000E+00 -0.85429249030E+03  0.85429249030E+03  0.25500000000E-02 0.  1.
    5000001    1    1    2    0    0  0.63589647579E+03  0.88724237245E+02  0.10273256688E+03  0.67797809588E+03  0.19200000000E+03 0.  0.
   -5000001    1    1    2    0    0 -0.63589647579E+03 -0.88724237245E+02 -0.36853830209E+03  0.76480114952E+03  0.19200000000E+03 0.  0.
<mgrwt>
<rscale>  0 0.14180830E+04</rscale>
<asrwt>0</asrwt>
<pdfrwt beam="1">  1        2 0.12204178E+00 0.14180830E+04</pdfrwt>
<pdfrwt beam="2">  1       -2 0.84069537E-01 0.14180830E+04</pdfrwt>
<totfact> 0.41962828E+01</totfact>
</mgrwt>
</event>
<event>
 4    1  0.2892809E-005  0.4896710E+03  0.7818608E-02  0.1016511E+00
          2   -1    0    0  501    0  0.00000000000E+00  0.00000000000E+00  0.12364847445E+04  0.12364847445E+04  0.25500000000E-02 0.  1.
         -2   -1    0    0    0  501 -0.00000000000E+00 -0.00000000000E+00 -0.48479711395E+02  0.48479711462E+02  0.25500000000E-02 0. -1.
    5000001    1    1    2    0    0 -0.33291737620E+02 -0.14394107822E+03  0.68689292922E+03  0.72836341891E+03  0.19200000000E+03 0.  0.
   -5000001    1    1    2    0    0  0.33291737620E+02  0.14394107822E+03  0.50111210391E+03  0.55660103708E+03  0.19200000000E+03 0.  0.
<mgrwt>
<rscale>  0 0.48967101E+03</rscale>
<asrwt>0</asrwt>
<pdfrwt beam="1">  1        2 0.17664065E+00 0.48967101E+03</pdfrwt>
<pdfrwt beam="2">  1       -2 0.69256742E-02 0.48967101E+03</pdfrwt>
<totfact> 0.25389667E+03</totfact>
</mgrwt>
</event>
<event>
 4    1  0.2892809E-005  0.5054419E+03  0.7818608E-02  0.1012368E+00
          2   -1    0    0  501    0  0.00000000000E+00  0.00000000000E+00  0.18209492023E+04  0.18209492023E+04  0.25500000000E-02 0.  1.
         -2   -1    0    0    0  501 -0.00000000000E+00 -0.00000000000E+00 -0.35073955296E+02  0.35073955388E+02  0.25500000000E-02 0. -1.
    5000001    1    1    2    0    0 -0.11694461116E+03  0.47355204703E+02  0.50631568933E+03  0.55600191974E+03  0.19200000000E+03 0.  0.
   -5000001    1    1    2    0    0  0.11694461116E+03 -0.47355204703E+02  0.12795595577E+04  0.13000212379E+04  0.19200000000E+03 0.  0.
<mgrwt>
<rscale>  0 0.50544195E+03</rscale>
<asrwt>0</asrwt>
<pdfrwt beam="1">  1        2 0.26013560E+00 0.50544195E+03</pdfrwt>
<pdfrwt beam="2">  1       -2 0.50105650E-02 0.50544195E+03</pdfrwt>
<totfact> 0.20910972E+03</totfact>
</mgrwt>
</event>
<event>
 4    1  0.2892809E-005  0.4743602E+03  0.7818608E-02  0.1020697E+00
          2   -1    0    0  501    0  0.00000000000E+00  0.00000000000E+00  0.16878909207E+04  0.16878909207E+04  0.25500000000E-02 0.  1.
         -2   -1    0    0    0  501 -0.00000000000E+00 -0.00000000000E+00 -0.33328219738E+02  0.33328219835E+02  0.25500000000E-02 0. -1.
    5000001    1    1    2    0    0  0.54344714956E+02  0.12810750355E+03  0.84561126271E+03  0.87822963291E+03  0.19200000000E+03 0.  0.
   -5000001    1    1    2    0    0 -0.54344714956E+02 -0.12810750355E+03  0.80895143826E+03  0.84298950763E+03  0.19200000000E+03 0.  0.
<mgrwt>
<rscale>  0 0.47436020E+03</rscale>
<asrwt>0</asrwt>
<pdfrwt beam="1">  1        2 0.24112738E+00 0.47436020E+03</pdfrwt>
<pdfrwt beam="2">  1       -2 0.47611722E-02 0.47436020E+03</pdfrwt>
<totfact> 0.26416174E+03</totfact>
</mgrwt>
</event>
<event>
 4    1  0.2892809E-005  0.5477234E+03  0.7818608E-02  0.1002022E+00
         -2   -1    0    0    0  501 -0.00000000000E+00  0.00000000000E+00  0.34765462691E+02  0.34765462785E+02  0.25500000000E-02 0. -1.
          2   -1    0    0  501    0  0.00000000000E+00 -0.00000000000E+00 -0.21573197821E+04  0.21573197821E+04  0.25500000000E-02 0.  1.
    5000001    1    1    2    0    0 -0.18108527318E+03 -0.71080068539E+02 -0.11296626467E+04  0.11622589848E+04  0.19200000000E+03 0.  0.
   -5000001    1    1    2    0    0  0.18108527318E+03  0.71080068539E+02 -0.99289167266E+03  0.10298262601E+04  0.19200000000E+03 0.  0.
<mgrwt>
<rscale>  0 0.54772336E+03</rscale>
<asrwt>0</asrwt>
<pdfrwt beam="1">  1        2 0.30818846E+00 0.54772336E+03</pdfrwt>
<pdfrwt beam="2">  1       -2 0.49664960E-02 0.54772336E+03</pdfrwt>
<totfact> 0.14360274E+03</totfact>
</mgrwt>
</event>
<event>
 4    1  0.2892809E-005  0.5980711E+03  0.7818608E-02  0.9909416E-01
         -2   -1    0    0    0  501 -0.00000000000E+00  0.00000000000E+00  0.13981299196E+03  0.13981299199E+03  0.25500000000E-02 0. -1.
          2   -1    0    0  501    0  0.00000000000E+00 -0.00000000000E+00 -0.63958469296E+03  0.63958469296E+03  0.25500000000E-02 0.  1.
    5000001    1    1    2    0    0 -0.92457516211E+02  0.13325280801E+03 -0.38731366189E+02  0.25430065252E+03  0.19200000000E+03 0.  0.
   -5000001    1    1    2    0    0  0.92457516211E+02 -0.13325280801E+03 -0.46104033480E+03  0.52509703243E+03  0.19200000000E+03 0.  0.
<mgrwt>
<rscale>  0 0.59807106E+03</rscale>
<asrwt>0</asrwt>
<pdfrwt beam="1">  1        2 0.91369240E-01 0.59807106E+03</pdfrwt>
<pdfrwt beam="2">  1       -2 0.19973285E-01 0.59807106E+03</pdfrwt>
<totfact> 0.10769204E+03</totfact>
</mgrwt>
</event>
<event>
 4    1  0.2892809E-005  0.1051112E+04  0.7818608E-02  0.9254197E-01
         -2   -1    0    0    0  501 -0.00000000000E+00  0.00000000000E+00  0.10377515143E+03  0.10377515146E+03  0.25500000000E-02 0. -1.
          2   -1    0    0  501    0  0.00000000000E+00 -0.00000000000E+00 -0.26616112988E+04  0.26616112988E+04  0.25500000000E-02 0.  1.
    5000001    1    1    2    0    0  0.30450698028E+03  0.37511067517E+03 -0.14812180968E+04  0.15698100426E+04  0.19200000000E+03 0.  0.
   -5000001    1    1    2    0    0 -0.30450698028E+03 -0.37511067517E+03 -0.10766180506E+04  0.11955764077E+04  0.19200000000E+03 0.  0.
<mgrwt>
<rscale>  0 0.10511120E+04</rscale>
<asrwt>0</asrwt>
<pdfrwt beam="1">  1        2 0.38023015E+00 0.10511120E+04</pdfrwt>
<pdfrwt beam="2">  1       -2 0.14825023E-01 0.10511120E+04</pdfrwt>
<totfact> 0.13033900E+02</totfact>
</mgrwt>
</event>
<event>
 4    1  0.2892809E-005  0.4530418E+03  0.7818608E-02  0.1026819E+00
         -2   -1    0    0    0  501 -0.00000000000E+00  0.00000000000E+00  0.45445239463E+02  0.45445239535E+02  0.25500000000E-02 0. -1.
          2   -1    0    0  501    0  0.00000000000E+00 -0.00000000000E+00 -0.11290889652E+04  0.11290889652E+04  0.25500000000E-02 0.  1.
    5000001    1    1    2    0    0 -0.99654052858E+02  0.66465521334E+02 -0.56763340059E+03  0.61108123294E+03  0.19200000000E+03 0.  0.
   -5000001    1    1    2    0    0  0.99654052858E+02 -0.66465521334E+02 -0.51601032514E+03  0.56345297180E+03  0.19200000000E+03 0.  0.
<mgrwt>
<rscale>  0 0.45304180E+03</rscale>
<asrwt>0</asrwt>
<pdfrwt beam="1">  1        2 0.16129841E+00 0.45304180E+03</pdfrwt>
<pdfrwt beam="2">  1       -2 0.64921778E-02 0.45304180E+03</pdfrwt>
<totfact> 0.32260014E+03</totfact>
</mgrwt>
</event>
<event>
 4    1  0.2892809E-005  0.9192963E+03  0.7818608E-02  0.9401776E-01
         -2   -1    0    0    0  501 -0.00000000000E+00  0.00000000000E+00  0.60871886123E+02  0.60871886176E+02  0.25500000000E-02 0. -1.
          2   -1    0    0  501    0  0.00000000000E+00 -0.00000000000E+00 -0.34708377558E+04  0.34708377558E+04  0.25500000000E-02 0.  1.
    5000001    1    1    2    0    0  0.34840187623E+03 -0.10656805332E+03 -0.92073982600E+03  0.10086458469E+04  0.19200000000E+03 0.  0.
   -5000001    1    1    2    0    0 -0.34840187623E+03  0.10656805332E+03 -0.24892260437E+04  0.25230637951E+04  0.19200000000E+03 0.  0.
<mgrwt>
<rscale>  0 0.91929634E+03</rscale>
<asrwt>0</asrwt>
<pdfrwt beam="1">  1        2 0.49583384E+00 0.91929634E+03</pdfrwt>
<pdfrwt beam="2">  1       -2 0.86959859E-02 0.91929634E+03</pdfrwt>
<totfact> 0.11247079E+02</totfact>
</mgrwt>
</event>
<event>
 4    1  0.2892809E-005  0.5867744E+03  0.7818608E-02  0.9933231E-01
         -2   -1    0    0    0  501 -0.00000000000E+00  0.00000000000E+00  0.11835334351E+04  0.11835334351E+04  0.25500000000E-02 0. -1.
          2   -1    0    0  501    0  0.00000000000E+00 -0.00000000000E+00 -0.72728021689E+02  0.72728021733E+02  0.25500000000E-02 0.  1.
    5000001    1    1    2    0    0  0.18922416716E+03  0.10335397551E+03  0.66714810058E+03  0.72693769871E+03  0.19200000000E+03 0.  0.
   -5000001    1    1    2    0    0 -0.18922416716E+03 -0.10335397551E+03  0.44365731282E+03  0.52932375812E+03  0.19200000000E+03 0.  0.
<mgrwt>
<rscale>  0 0.58677439E+03</rscale>
<asrwt>0</asrwt>
<pdfrwt beam="1">  1        2 0.10389718E-01 0.58677439E+03</pdfrwt>
<pdfrwt beam="2">  1       -2 0.16907619E+00 0.58677439E+03</pdfrwt>
<totfact> 0.13968334E+02</totfact>
</mgrwt>
</event>
<event>
 4    1  0.2892809E-005  0.5402845E+03  0.7818608E-02  0.1003768E+00
          2   -1    0    0  501    0  0.00000000000E+00  0.00000000000E+00  0.28972965487E+03  0.28972965488E+03  0.25500000000E-02 0.  1.
         -2   -1    0    0    0  501 -0.00000000000E+00 -0.00000000000E+00 -0.25187910360E+03  0.25187910361E+03  0.25500000000E-02 0. -1.
    5000001    1    1    2    0    0 -0.16186233249E+03 -0.99252414254E+02  0.26843327830E+02  0.27135773559E+03  0.19200000000E+03 0.  0.
   -5000001    1    1    2    0    0  0.16186233249E+03  0.99252414254E+02  0.11007223440E+02  0.27025102291E+03  0.19200000000E+03 0.  0.
<mgrwt>
<rscale>  0 0.54028454E+03</rscale>
<asrwt>0</asrwt>
<pdfrwt beam="1">  1        2 0.41389951E-01 0.54028454E+03</pdfrwt>
<pdfrwt beam="2">  1       -2 0.35982729E-01 0.54028454E+03</pdfrwt>
<totfact> 0.90316740E+02</totfact>
</mgrwt>
</event>
<event>
 4    1  0.2892809E-005  0.5836200E+03  0.7818608E-02  0.9939984E-01
          2   -1    0    0  501    0  0.00000000000E+00  0.00000000000E+00  0.27339594967E+03  0.27339594968E+03  0.25500000000E-02 0.  1.
         -2   -1    0    0    0  501 -0.00000000000E+00 -0.00000000000E+00 -0.31146429659E+03  0.31146429660E+03  0.25500000000E-02 0. -1.
    5000001    1    1    2    0    0 -0.21868976577E+03 -0.20222128268E+02 -0.26461335990E+02  0.29291355453E+03  0.19200000000E+03 0.  0.
   -5000001    1    1    2    0    0  0.21868976577E+03  0.20222128268E+02 -0.11607010931E+02  0.29194669175E+03  0.19200000000E+03 0.  0.
<mgrwt>
<rscale>  0 0.58362000E+03</rscale>
<asrwt>0</asrwt>
<pdfrwt beam="1">  1        2 0.39056565E-01 0.58362000E+03</pdfrwt>
<pdfrwt beam="2">  1       -2 0.44494899E-01 0.58362000E+03</pdfrwt>
<totfact> 0.63766134E+02</totfact>
</mgrwt>
</event>
<event>
 4    1  0.2892809E-005  0.5688921E+03  0.7818608E-02  0.9972133E-01
          2   -1    0    0  501    0  0.00000000000E+00  0.00000000000E+00  0.75549377155E+03  0.75549377156E+03  0.25500000000E-02 0.  1.
         -2   -1    0    0    0  501 -0.00000000000E+00 -0.00000000000E+00 -0.10709492211E+03  0.10709492214E+03  0.25500000000E-02 0. -1.
    5000001    1    1    2    0    0  0.15622811889E+03  0.39264418177E+02  0.12022641745E+03  0.27796998241E+03  0.19200000000E+03 0.  0.
   -5000001    1    1    2    0    0 -0.15622811889E+03 -0.39264418177E+02  0.52817243200E+03  0.58461871129E+03  0.19200000000E+03 0.  0.
<mgrwt>
<rscale>  0 0.56889207E+03</rscale>
<asrwt>0</asrwt>
<pdfrwt beam="1">  1        2 0.10792768E+00 0.56889207E+03</pdfrwt>
<pdfrwt beam="2">  1       -2 0.15299275E-01 0.56889207E+03</pdfrwt>
<totfact> 0.13874602E+03</totfact>
</mgrwt>
</event>
<event>
 4    1  0.2892809E-005  0.6958635E+03  0.7818608E-02  0.9724332E-01
          2   -1    0    0  501    0  0.00000000000E+00  0.00000000000E+00  0.69047927922E+03  0.69047927923E+03  0.25500000000E-02 0. -1.
         -2   -1    0    0    0  501 -0.00000000000E+00 -0.00000000000E+00 -0.17532240534E+03  0.17532240536E+03  0.25500000000E-02 0.  1.
    5000001    1    1    2    0    0 -0.50754954512E+02  0.22792531022E+03  0.43275869946E+02  0.30538960913E+03  0.19200000000E+03 0.  0.
   -5000001    1    1    2    0    0  0.50754954512E+02 -0.22792531022E+03  0.47188100393E+03  0.56041207546E+03  0.19200000000E+03 0.  0.
<mgrwt>
<rscale>  0 0.69586346E+03</rscale>
<asrwt>0</asrwt>
<pdfrwt beam="1">  1        2 0.98639898E-01 0.69586346E+03</pdfrwt>
<pdfrwt beam="2">  1       -2 0.25046058E-01 0.69586346E+03</pdfrwt>
<totfact> 0.65628563E+02</totfact>
</mgrwt>
</event>
<event>
 4    1  0.2892809E-005  0.4321357E+03  0.7818608E-02  0.1033187E+00
         -2   -1    0    0    0  501 -0.00000000000E+00  0.00000000000E+00  0.38730896498E+02  0.38730896582E+02  0.25500000000E-02 0. -1.
          2   -1    0    0  501    0  0.00000000000E+00 -0.00000000000E+00 -0.12053764700E+04  0.12053764700E+04  0.25500000000E-02 0.  1.
    5000001    1    1    2    0    0 -0.83826739710E+00  0.70692873556E+02 -0.38338169780E+03  0.43456151609E+03  0.19200000000E+03 0.  0.
   -5000001    1    1    2    0    0  0.83826739710E+00 -0.70692873556E+02 -0.78326387572E+03  0.80954585050E+03  0.19200000000E+03 0.  0.
<mgrwt>
<rscale>  0 0.43213568E+03</rscale>
<asrwt>0</asrwt>
<pdfrwt beam="1">  1        2 0.17219661E+00 0.43213568E+03</pdfrwt>
<pdfrwt beam="2">  1       -2 0.55329860E-02 0.43213568E+03</pdfrwt>
<totfact> 0.37477380E+03</totfact>
</mgrwt>
</event>
<event>
 4    1  0.2892809E-005  0.5276764E+03  0.7818608E-02  0.1006797E+00
          2   -1    0    0  501    0  0.00000000000E+00  0.00000000000E+00  0.48565673690E+03  0.48565673691E+03  0.25500000000E-02 0.  1.
         -2   -1    0    0    0  501 -0.00000000000E+00 -0.00000000000E+00 -0.14333291362E+03  0.14333291364E+03  0.25500000000E-02 0. -1.
    5000001    1    1    2    0    0 -0.30448516167E+02  0.17741977605E+03  0.19319635930E+03  0.32648694050E+03  0.19200000000E+03 0.  0.
   -5000001    1    1    2    0    0  0.30448516167E+02 -0.17741977605E+03  0.14912746398E+03  0.30250271004E+03  0.19200000000E+03 0.  0.
<mgrwt>
<rscale>  0 0.52767640E+03</rscale>
<asrwt>0</asrwt>
<pdfrwt beam="1">  1        2 0.69379535E-01 0.52767640E+03</pdfrwt>
<pdfrwt beam="2">  1       -2 0.20476130E-01 0.52767640E+03</pdfrwt>
<totfact> 0.14191837E+03</totfact>
</mgrwt>
</event>
<event>
 4    1  0.2892809E-005  0.7694484E+03  0.7818608E-02  0.9605323E-01
          2   -1    0    0  501    0  0.00000000000E+00  0.00000000000E+00  0.69861014964E+03  0.69861014964E+03  0.25500000000E-02 0.  1.
         -2   -1    0    0    0  501 -0.00000000000E+00 -0.00000000000E+00 -0.21186738738E+03  0.21186738739E+03  0.25500000000E-02 0. -1.
    5000001    1    1    2    0    0 -0.27387470112E+03  0.12409969457E+03  0.41378355542E+03  0.54634139221E+03  0.19200000000E+03 0.  0.
   -5000001    1    1    2    0    0  0.27387470112E+03 -0.12409969457E+03  0.72959206835E+02  0.36413614482E+03  0.19200000000E+03 0.  0.
<mgrwt>
<rscale>  0 0.76944839E+03</rscale>
<asrwt>0</asrwt>
<pdfrwt beam="1">  1        2 0.99801452E-01 0.76944839E+03</pdfrwt>
<pdfrwt beam="2">  1       -2 0.30266769E-01 0.76944839E+03</pdfrwt>
<totfact> 0.45657388E+02</totfact>
</mgrwt>
</event>
<event>
 4    1  0.2892809E-005  0.5207184E+03  0.7818608E-02  0.1008508E+00
         -2   -1    0    0    0  501 -0.00000000000E+00  0.00000000000E+00  0.37397709942E+02  0.37397710029E+02  0.25500000000E-02 0. -1.
          2   -1    0    0  501    0  0.00000000000E+00 -0.00000000000E+00 -0.18125950479E+04  0.18125950479E+04  0.25500000000E-02 0.  1.
    5000001    1    1    2    0    0 -0.16756554074E+03 -0.51048637100E+02 -0.83270519027E+03  0.87232224991E+03  0.19200000000E+03 0.  0.
   -5000001    1    1    2    0    0  0.16756554074E+03  0.51048637100E+02 -0.94249214766E+03  0.97767050799E+03  0.19200000000E+03 0.  0.
<mgrwt>
<rscale>  0 0.52071837E+03</rscale>
<asrwt>0</asrwt>
<pdfrwt beam="1">  1        2 0.25894210E+00 0.52071837E+03</pdfrwt>
<pdfrwt beam="2">  1       -2 0.53425311E-02 0.52071837E+03</pdfrwt>
<totfact> 0.19106956E+03</totfact>
</mgrwt>
</event>
<event>
 4    1  0.2892809E-005  0.6817353E+03  0.7818608E-02  0.9748987E-01
          2   -1    0    0  501    0  0.00000000000E+00  0.00000000000E+00  0.58463655599E+03  0.58463655600E+03  0.25500000000E-02 0.  1.
         -2   -1    0    0    0  501 -0.00000000000E+00 -0.00000000000E+00 -0.19874013810E+03  0.19874013812E+03  0.25500000000E-02 0. -1.
    5000001    1    1    2    0    0 -0.28041450336E+02  0.27909923185E+03  0.16378648292E+03  0.37732309251E+03  0.19200000000E+03 0.  0.
   -5000001    1    1    2    0    0  0.28041450336E+02 -0.27909923185E+03  0.22210993497E+03  0.40605360160E+03  0.19200000000E+03 0.  0.
<mgrwt>
<rscale>  0 0.68173529E+03</rscale>
<asrwt>0</asrwt>
<pdfrwt beam="1">  1        2 0.83519507E-01 0.68173529E+03</pdfrwt>
<pdfrwt beam="2">  1       -2 0.28391449E-01 0.68173529E+03</pdfrwt>
<totfact> 0.63807024E+02</totfact>
</mgrwt>
</event>
<event>
 4    1  0.2892809E-005  0.6986427E+03  0.7818608E-02  0.9719556E-01
          2   -1    0    0  501    0  0.00000000000E+00  0.00000000000E+00  0.47586545428E+03  0.47586545428E+03  0.25500000000E-02 0.  1.
         -2   -1    0    0    0  501 -0.00000000000E+00 -0.00000000000E+00 -0.25642834017E+03  0.25642834018E+03  0.25500000000E-02 0. -1.
    5000001    1    1    2    0    0 -0.27430297733E+03  0.26217717355E+02  0.90078320736E+01  0.33596820254E+03  0.19200000000E+03 0.  0.
   -5000001    1    1    2    0    0  0.27430297733E+03 -0.26217717355E+02  0.21042928204E+03  0.39632559192E+03  0.19200000000E+03 0.  0.
<mgrwt>
<rscale>  0 0.69864265E+03</rscale>
<asrwt>0</asrwt>
<pdfrwt beam="1">  1        2 0.67980778E-01 0.69864265E+03</pdfrwt>
<pdfrwt beam="2">  1       -2 0.36632621E-01 0.69864265E+03</pdfrwt>
<totfact> 0.50159431E+02</totfact>
</mgrwt>
</event>
<event>
 4    1  0.2892809E-005  0.3900747E+03  0.7818608E-02  0.1047272E+00
          2   -1    0    0  501    0  0.00000000000E+00  0.00000000000E+00  0.12555111874E+03  0.12555111877E+03  0.25500000000E-02 0.  1.
         -2   -1    0    0    0  501 -0.00000000000E+00 -0.00000000000E+00 -0.30298076135E+03  0.30298076136E+03  0.25500000000E-02 0. -1.
    5000001    1    1    2    0    0  0.26302923824E+02  0.21094119866E+02 -0.95555059489E+02  0.21709807712E+03  0.19200000000E+03 0.  0.
   -5000001    1    1    2    0    0 -0.26302923824E+02 -0.21094119866E+02 -0.81874583121E+02  0.21143380301E+03  0.19200000000E+03 0.  0.
<mgrwt>
<rscale>  0 0.39007473E+03</rscale>
<asrwt>0</asrwt>
<pdfrwt beam="1">  1        2 0.17935874E-01 0.39007473E+03</pdfrwt>
<pdfrwt beam="2">  1       -2 0.43282966E-01 0.39007473E+03</pdfrwt>
<totfact> 0.16240164E+03</totfact>
</mgrwt>
</event>
<event>
 4    1  0.2892809E-005  0.6995515E+03  0.7818608E-02  0.9717999E-01
          2   -1    0    0  501    0  0.00000000000E+00  0.00000000000E+00  0.14015665390E+04  0.14015665390E+04  0.25500000000E-02 0.  1.
         -2   -1    0    0    0  501 -0.00000000000E+00 -0.00000000000E+00 -0.87290249002E+02  0.87290249039E+02  0.25500000000E-02 0. -1.
    5000001    1    1    2    0    0  0.19831997824E+03 -0.10198747304E+03  0.10595326056E+04  0.10996388502E+04  0.19200000000E+03 0.  0.
   -5000001    1    1    2    0    0 -0.19831997824E+03  0.10198747304E+03  0.25474368436E+03  0.38921793785E+03  0.19200000000E+03 0.  0.
<mgrwt>
<rscale>  0 0.69955155E+03</rscale>
<asrwt>0</asrwt>
<pdfrwt beam="1">  1        2 0.20022379E+00 0.69955155E+03</pdfrwt>
<pdfrwt beam="2">  1       -2 0.12470035E-01 0.69955155E+03</pdfrwt>
<totfact> 0.79633701E+02</totfact>
</mgrwt>
</event>
<event>
 4    1  0.2892809E-005  0.6364757E+03  0.7818608E-02  0.9832493E-01
          2   -1    0    0  501    0  0.00000000000E+00  0.00000000000E+00  0.37170250841E+03  0.37170250842E+03  0.25500000000E-02 0.  1.
         -2   -1    0    0    0  501 -0.00000000000E+00 -0.00000000000E+00 -0.27246341475E+03  0.27246341477E+03  0.25500000000E-02 0. -1.
    5000001    1    1    2    0    0 -0.23941778703E+03  0.27806500115E+02  0.13006104747E+03  0.33447564076E+03  0.19200000000E+03 0.  0.
   -5000001    1    1    2    0    0  0.23941778703E+03 -0.27806500115E+02 -0.30821953816E+02  0.30969028243E+03  0.19200000000E+03 0.  0.
<mgrwt>
<rscale>  0 0.63647572E+03</rscale>
<asrwt>0</asrwt>
<pdfrwt beam="1">  1        2 0.53100359E-01 0.63647572E+03</pdfrwt>
<pdfrwt beam="2">  1       -2 0.38923345E-01 0.63647572E+03</pdfrwt>
<totfact> 0.58943257E+02</totfact>
</mgrwt>
</event>
<event>
 4    1  0.2892809E-005  0.6753749E+03  0.7818608E-02  0.9760296E-01
         -2   -1    0    0    0  501 -0.00000000000E+00  0.00000000000E+00  0.42860235853E+03  0.42860235853E+03  0.25500000000E-02 0. -1.
          2   -1    0    0  501    0  0.00000000000E+00 -0.00000000000E+00 -0.26605738965E+03  0.26605738966E+03  0.25500000000E-02 0.  1.
    5000001    1    1    2    0    0  0.19171095667E+03  0.16785977565E+03 -0.32515692785E+02  0.32070432717E+03  0.19200000000E+03 0.  0.
   -5000001    1    1    2    0    0 -0.19171095667E+03 -0.16785977565E+03  0.19506066166E+03  0.37395542103E+03  0.19200000000E+03 0.  0.
<mgrwt>
<rscale>  0 0.67537493E+03</rscale>
<asrwt>0</asrwt>
<pdfrwt beam="1">  1        2 0.38008199E-01 0.67537493E+03</pdfrwt>
<pdfrwt beam="2">  1       -2 0.61228908E-01 0.67537493E+03</pdfrwt>
<totfact> 0.34138492E+02</totfact>
</mgrwt>
</event>
<event>
 4    1  0.2892809E-005  0.4168856E+03  0.7818608E-02  0.1038085E+00
         -2   -1    0    0    0  501 -0.00000000000E+00  0.00000000000E+00  0.68407608371E+02  0.68407608419E+02  0.25500000000E-02 0. -1.
          2   -1    0    0  501    0  0.00000000000E+00 -0.00000000000E+00 -0.63513974846E+03  0.63513974846E+03  0.25500000000E-02 0.  1.
    5000001    1    1    2    0    0  0.33058390218E+02 -0.71030258547E+02 -0.24771611502E+03  0.32305638584E+03  0.19200000000E+03 0.  0.
   -5000001    1    1    2    0    0 -0.33058390218E+02  0.71030258547E+02 -0.31901602507E+03  0.38049097104E+03  0.19200000000E+03 0.  0.
<mgrwt>
<rscale>  0 0.41688555E+03</rscale>
<asrwt>0</asrwt>
<pdfrwt beam="1">  1        2 0.90734246E-01 0.41688555E+03</pdfrwt>
<pdfrwt beam="2">  1       -2 0.97725158E-02 0.41688555E+03</pdfrwt>
<totfact> 0.35700972E+03</totfact>
</mgrwt>
</event>
<event>
 4    1  0.2892809E-005  0.4987266E+03  0.7818608E-02  0.1014112E+00
          2   -1    0    0  501    0  0.00000000000E+00  0.00000000000E+00  0.28501300118E+03  0.28501300120E+03  0.25500000000E-02 0.  1.
         -2   -1    0    0    0  501 -0.00000000000E+00 -0.00000000000E+00 -0.21817270487E+03  0.21817270489E+03  0.25500000000E-02 0. -1.
    5000001    1    1    2    0    0  0.15936680411E+02  0.15217567549E+03  0.77475684629E+02  0.25744493723E+03  0.19200000000E+03 0.  0.
   -5000001    1    1    2    0    0 -0.15936680411E+02 -0.15217567549E+03 -0.10635388318E+02  0.24574076886E+03  0.19200000000E+03 0.  0.
<mgrwt>
<rscale>  0 0.49872661E+03</rscale>
<asrwt>0</asrwt>
<pdfrwt beam="1">  1        2 0.40716143E-01 0.49872661E+03</pdfrwt>
<pdfrwt beam="2">  1       -2 0.31167529E-01 0.49872661E+03</pdfrwt>
<totfact> 0.12040938E+03</totfact>
</mgrwt>
</event>
<event>
 4    1  0.2892809E-005  0.6026804E+03  0.7818608E-02  0.9899861E-01
          2   -1    0    0  501    0  0.00000000000E+00  0.00000000000E+00  0.14631574491E+04  0.14631574491E+04  0.25500000000E-02 0.  1.
         -2   -1    0    0    0  501 -0.00000000000E+00 -0.00000000000E+00 -0.62061609765E+02  0.62061609817E+02  0.25500000000E-02 0. -1.
    5000001    1    1    2    0    0  0.14727600505E+03  0.15262710062E+03  0.46104100464E+03  0.54259382734E+03  0.19200000000E+03 0.  0.
   -5000001    1    1    2    0    0 -0.14727600505E+03 -0.15262710062E+03  0.94005483473E+03  0.98262523161E+03  0.19200000000E+03 0.  0.
<mgrwt>
<rscale>  0 0.60268037E+03</rscale>
<asrwt>0</asrwt>
<pdfrwt beam="1">  1        2 0.20902243E+00 0.60268037E+03</pdfrwt>
<pdfrwt beam="2">  1       -2 0.88659467E-02 0.60268037E+03</pdfrwt>
<totfact> 0.12933568E+03</totfact>
</mgrwt>
</event>
<event>
 4    1  0.2892809E-005  0.4350716E+03  0.7818608E-02  0.1032270E+00
          2   -1    0    0  501    0  0.00000000000E+00  0.00000000000E+00  0.11424507192E+04  0.11424507192E+04  0.25500000000E-02 0.  1.
         -2   -1    0    0    0  501 -0.00000000000E+00 -0.00000000000E+00 -0.41421321683E+02  0.41421321762E+02  0.25500000000E-02 0. -1.
    5000001    1    1    2    0    0 -0.78678146931E+02 -0.49133152411E+02  0.66766421640E+03  0.70088788214E+03  0.19200000000E+03 0.  0.
   -5000001    1    1    2    0    0  0.78678146931E+02  0.49133152411E+02  0.43336518112E+03  0.48298415882E+03  0.19200000000E+03 0.  0.
<mgrwt>
<rscale>  0 0.43507157E+03</rscale>
<asrwt>0</asrwt>
<pdfrwt beam="1">  1        2 0.16320722E+00 0.43507157E+03</pdfrwt>
<pdfrwt beam="2">  1       -2 0.59173326E-02 0.43507157E+03</pdfrwt>
<totfact> 0.36621154E+03</totfact>
</mgrwt>
</event>
<event>
 4    1  0.2892809E-005  0.6683015E+03  0.7818608E-02  0.9773031E-01
         -2   -1    0    0    0  501 -0.00000000000E+00  0.00000000000E+00  0.14293765251E+03  0.14293765254E+03  0.25500000000E-02 0. -1.
          2   -1    0    0  501    0  0.00000000000E+00 -0.00000000000E+00 -0.78115677286E+03  0.78115677287E+03  0.25500000000E-02 0.  1.
    5000001    1    1    2    0    0 -0.26694770570E+03 -0.34879204457E+02 -0.38564098556E+03  0.50799665966E+03  0.19200000000E+03 0.  0.
   -5000001    1    1    2    0    0  0.26694770570E+03  0.34879204457E+02 -0.25257813479E+03  0.41609776574E+03  0.19200000000E+03 0.  0.
<mgrwt>
<rscale>  0 0.66830147E+03</rscale>
<asrwt>0</asrwt>
<pdfrwt beam="1">  1        2 0.11159382E+00 0.66830147E+03</pdfrwt>
<pdfrwt beam="2">  1       -2 0.20419665E-01 0.66830147E+03</pdfrwt>
<totfact> 0.80903106E+02</totfact>
</mgrwt>
</event>
<event>
 4    1  0.2892809E-005  0.8293071E+03  0.7818608E-02  0.9518539E-01
         -2   -1    0    0    0  501 -0.00000000000E+00  0.00000000000E+00  0.16073873775E+03  0.16073873777E+03  0.25500000000E-02 0. -1.
          2   -1    0    0  501    0  0.00000000000E+00 -0.00000000000E+00 -0.10696709922E+04  0.10696709922E+04  0.25500000000E-02 0.  1.
    5000001    1    1    2    0    0  0.78333532169E+02  0.35691792113E+03 -0.39611054606E+03  0.57209624137E+03  0.19200000000E+03 0.  0.
   -5000001    1    1    2    0    0 -0.78333532169E+02 -0.35691792113E+03 -0.51282170839E+03  0.65831348861E+03  0.19200000000E+03 0.  0.
<mgrwt>
<rscale>  0 0.82930710E+03</rscale>
<asrwt>0</asrwt>
<pdfrwt beam="1">  1        2 0.15281014E+00 0.82930710E+03</pdfrwt>
<pdfrwt beam="2">  1       -2 0.22962677E-01 0.82930710E+03</pdfrwt>
<totfact> 0.42630875E+02</totfact>
</mgrwt>
</event>
<event>
 4    1  0.2892809E-005  0.4760856E+03  0.7818608E-02  0.1020217E+00
         -2   -1    0    0    0  501 -0.00000000000E+00  0.00000000000E+00  0.39463904965E+02  0.39463905047E+02  0.25500000000E-02 0. -1.
          2   -1    0    0  501    0  0.00000000000E+00 -0.00000000000E+00 -0.14358529592E+04  0.14358529592E+04  0.25500000000E-02 0.  1.
    5000001    1    1    2    0    0  0.80284975963E+02 -0.11546242842E+03 -0.71309320323E+03  0.75176004565E+03  0.19200000000E+03 0.  0.
   -5000001    1    1    2    0    0 -0.80284975963E+02  0.11546242842E+03 -0.68329585103E+03  0.72355681863E+03  0.19200000000E+03 0.  0.
<mgrwt>
<rscale>  0 0.47608556E+03</rscale>
<asrwt>0</asrwt>
<pdfrwt beam="1">  1        2 0.20512182E+00 0.47608556E+03</pdfrwt>
<pdfrwt beam="2">  1       -2 0.56377016E-02 0.47608556E+03</pdfrwt>
<totfact> 0.27391079E+03</totfact>
</mgrwt>
</event>
<event>
 4    1  0.2892809E-005  0.7614177E+03  0.7818608E-02  0.9617606E-01
         -2   -1    0    0    0  501 -0.00000000000E+00  0.00000000000E+00  0.24540246155E+03  0.24540246156E+03  0.25500000000E-02 0. -1.
          2   -1    0    0  501    0  0.00000000000E+00 -0.00000000000E+00 -0.59061854311E+03  0.59061854312E+03  0.25500000000E-02 0.  1.
    5000001    1    1    2    0    0 -0.24555823923E+03  0.10282774987E+03  0.39170669261E+02  0.33056124445E+03  0.19200000000E+03 0.  0.
   -5000001    1    1    2    0    0  0.24555823923E+03 -0.10282774987E+03 -0.38438675083E+03  0.50545976023E+03  0.19200000000E+03 0.  0.
<mgrwt>
<rscale>  0 0.76141774E+03</rscale>
<asrwt>0</asrwt>
<pdfrwt beam="1">  1        2 0.84374077E-01 0.76141774E+03</pdfrwt>
<pdfrwt beam="2">  1       -2 0.35057495E-01 0.76141774E+03</pdfrwt>
<totfact> 0.42416496E+02</totfact>
</mgrwt>
</event>
<event>
 4    1  0.2892809E-005  0.7494824E+03  0.7818608E-02  0.9636163E-01
         -2   -1    0    0    0  501 -0.00000000000E+00  0.00000000000E+00  0.14183531924E+03  0.14183531927E+03  0.25500000000E-02 0. -1.
          2   -1    0    0  501    0  0.00000000000E+00 -0.00000000000E+00 -0.99009875241E+03  0.99009875241E+03  0.25500000000E-02 0.  1.
    5000001    1    1    2    0    0 -0.11990536564E+03 -0.28643658375E+03 -0.29648104755E+03  0.47030652215E+03  0.19200000000E+03 0.  0.
   -5000001    1    1    2    0    0  0.11990536564E+03  0.28643658375E+03 -0.55178238561E+03  0.66162754952E+03  0.19200000000E+03 0.  0.
<mgrwt>
<rscale>  0 0.74948242E+03</rscale>
<asrwt>0</asrwt>
<pdfrwt beam="1">  1        2 0.14144267E+00 0.74948242E+03</pdfrwt>
<pdfrwt beam="2">  1       -2 0.20262189E-01 0.74948242E+03</pdfrwt>
<totfact> 0.59618690E+02</totfact>
</mgrwt>
</event>
<event>
 4    1  0.2892809E-005  0.8487278E+03  0.7818608E-02  0.9492046E-01
          2   -1    0    0  501    0  0.00000000000E+00  0.00000000000E+00  0.28763265081E+04  0.28763265081E+04  0.25500000000E-02 0.  1.
         -2   -1    0    0    0  501 -0.00000000000E+00 -0.00000000000E+00 -0.62609274361E+02  0.62609274412E+02  0.25500000000E-02 0. -1.
    5000001    1    1    2    0    0 -0.36308043256E+03  0.62003180549E+02  0.11059988571E+04  0.11814267928E+04  0.19200000000E+03 0.  0.
   -5000001    1    1    2    0    0  0.36308043256E+03 -0.62003180549E+02  0.17077183766E+04  0.17575089897E+04  0.19200000000E+03 0.  0.
<mgrwt>
<rscale>  0 0.84872779E+03</rscale>
<asrwt>0</asrwt>
<pdfrwt beam="1">  1        2 0.41090374E+00 0.84872779E+03</pdfrwt>
<pdfrwt beam="2">  1       -2 0.89441830E-02 0.84872779E+03</pdfrwt>
<totfact> 0.23496593E+02</totfact>
</mgrwt>
</event>
<event>
 4    1  0.2892809E-005  0.5329588E+03  0.7818608E-02  0.1005517E+00
          2   -1    0    0  501    0  0.00000000000E+00  0.00000000000E+00  0.70097167075E+03  0.70097167075E+03  0.25500000000E-02 0.  1.
         -2   -1    0    0    0  501 -0.00000000000E+00 -0.00000000000E+00 -0.10130404414E+03  0.10130404417E+03  0.25500000000E-02 0. -1.
    5000001    1    1    2    0    0  0.99128426514E+02  0.12259979236E+03  0.44492481481E+03  0.50958732801E+03  0.19200000000E+03 0.  0.
   -5000001    1    1    2    0    0 -0.99128426514E+02 -0.12259979236E+03  0.15474281180E+03  0.29268838691E+03  0.19200000000E+03 0.  0.
<mgrwt>
<rscale>  0 0.53295878E+03</rscale>
<asrwt>0</asrwt>
<pdfrwt beam="1">  1        2 0.10013881E+00 0.53295878E+03</pdfrwt>
<pdfrwt beam="2">  1       -2 0.14472007E-01 0.53295878E+03</pdfrwt>
<totfact> 0.16711269E+03</totfact>
</mgrwt>
</event>
<event>
 4    1  0.2892809E-005  0.4645488E+03  0.7818608E-02  0.1023470E+00
          2   -1    0    0  501    0  0.00000000000E+00  0.00000000000E+00  0.24209763284E+04  0.24209763284E+04  0.25500000000E-02 0.  1.
         -2   -1    0    0    0  501 -0.00000000000E+00 -0.00000000000E+00 -0.22284978350E+02  0.22284978495E+02  0.25500000000E-02 0. -1.
    5000001    1    1    2    0    0 -0.54238811837E+02  0.79319999454E+02  0.73324356931E+03  0.76403117931E+03  0.19200000000E+03 0.  0.
   -5000001    1    1    2    0    0  0.54238811837E+02 -0.79319999454E+02  0.16654477807E+04  0.16792301276E+04  0.19200000000E+03 0.  0.
<mgrwt>
<rscale>  0 0.46454884E+03</rscale>
<asrwt>0</asrwt>
<pdfrwt beam="1">  1        2 0.34585387E+00 0.46454884E+03</pdfrwt>
<pdfrwt beam="2">  1       -2 0.31835673E-02 0.46454884E+03</pdfrwt>
<totfact> 0.20992657E+03</totfact>
</mgrwt>
</event>
<event>
 4    1  0.2892809E-005  0.4693479E+03  0.7818608E-02  0.1022104E+00
         -2   -1    0    0    0  501 -0.00000000000E+00  0.00000000000E+00  0.35549609301E+03  0.35549609302E+03  0.25500000000E-02 0. -1.
          2   -1    0    0  501    0  0.00000000000E+00 -0.00000000000E+00 -0.15491554227E+03  0.15491554229E+03  0.25500000000E-02 0.  1.
    5000001    1    1    2    0    0 -0.11258013771E+03  0.49668792658E+02  0.40068469425E+02  0.23153997196E+03  0.19200000000E+03 0.  0.
   -5000001    1    1    2    0    0  0.11258013771E+03 -0.49668792658E+02  0.16051208131E+03  0.27887166335E+03  0.19200000000E+03 0.  0.
<mgrwt>
<rscale>  0 0.46934793E+03</rscale>
<asrwt>0</asrwt>
<pdfrwt beam="1">  1        2 0.22130792E-01 0.46934793E+03</pdfrwt>
<pdfrwt beam="2">  1       -2 0.50785156E-01 0.46934793E+03</pdfrwt>
<totfact> 0.92732913E+02</totfact>
</mgrwt>
</event>
<event>
 4    1  0.2892809E-005  0.5809726E+03  0.7818608E-02  0.9945688E-01
         -2   -1    0    0    0  501 -0.00000000000E+00  0.00000000000E+00  0.14083015523E+03  0.14083015525E+03  0.25500000000E-02 0. -1.
          2   -1    0    0  501    0  0.00000000000E+00 -0.00000000000E+00 -0.59917770995E+03  0.59917770995E+03  0.25500000000E-02 0.  1.
    5000001    1    1    2    0    0  0.14671822584E+03 -0.12303751550E+03 -0.96473438437E+02  0.28781173071E+03  0.19200000000E+03 0.  0.
   -5000001    1    1    2    0    0 -0.14671822584E+03  0.12303751550E+03 -0.36187411628E+03  0.45219613449E+03  0.19200000000E+03 0.  0.
<mgrwt>
<rscale>  0 0.58097260E+03</rscale>
<asrwt>0</asrwt>
<pdfrwt beam="1">  1        2 0.85596814E-01 0.58097260E+03</pdfrwt>
<pdfrwt beam="2">  1       -2 0.20118594E-01 0.58097260E+03</pdfrwt>
<totfact> 0.11490763E+03</totfact>
</mgrwt>
</event>
<event>
 4    1  0.2892809E-005  0.7787829E+03  0.7818608E-02  0.9591246E-01
          2   -1    0    0  501    0  0.00000000000E+00  0.00000000000E+00  0.20819169166E+04  0.20819169166E+04  0.25500000000E-02 0.  1.
         -2   -1    0    0    0  501 -0.00000000000E+00 -0.00000000000E+00 -0.72829850037E+02  0.72829850081E+02  0.25500000000E-02 0. -1.
    5000001    1    1    2    0    0  0.21502376888E+03 -0.22693364903E+03  0.13655845042E+04  0.14140081826E+04  0.19200000000E+03 0.  0.
   -5000001    1    1    2    0    0 -0.21502376888E+03  0.22693364903E+03  0.64350256241E+03  0.74073858417E+03  0.19200000000E+03 0.  0.
<mgrwt>
<rscale>  0 0.77878289E+03</rscale>
<asrwt>0</asrwt>
<pdfrwt beam="1">  1        2 0.29741668E+00 0.77878289E+03</pdfrwt>
<pdfrwt beam="2">  1       -2 0.10404265E-01 0.77878289E+03</pdfrwt>
<totfact> 0.47764352E+02</totfact>
</mgrwt>
</event>
<event>
 4    1  0.2892809E-005  0.5422990E+03  0.7818608E-02  0.1003292E+00
         -2   -1    0    0    0  501 -0.00000000000E+00  0.00000000000E+00  0.32843749152E+02  0.32843749251E+02  0.25500000000E-02 0. -1.
          2   -1    0    0  501    0  0.00000000000E+00 -0.00000000000E+00 -0.22385405467E+04  0.22385405467E+04  0.25500000000E-02 0.  1.
    5000001    1    1    2    0    0 -0.89248253913E+02 -0.12190826819E+03 -0.61026302397E+03  0.65735213934E+03  0.19200000000E+03 0.  0.
   -5000001    1    1    2    0    0  0.89248253913E+02  0.12190826819E+03 -0.15954337736E+04  0.16140321566E+04  0.19200000000E+03 0.  0.
<mgrwt>
<rscale>  0 0.54229905E+03</rscale>
<asrwt>0</asrwt>
<pdfrwt beam="1">  1        2 0.31979141E+00 0.54229905E+03</pdfrwt>
<pdfrwt beam="2">  1       -2 0.46919656E-02 0.54229905E+03</pdfrwt>
<totfact> 0.14278448E+03</totfact>
</mgrwt>
</event>
<event>
 4    1  0.2892809E-005  0.5794615E+03  0.7818608E-02  0.9948957E-01
         -2   -1    0    0    0  501 -0.00000000000E+00  0.00000000000E+00  0.57758950827E+02  0.57758950883E+02  0.25500000000E-02 0.  1.
          2   -1    0    0  501    0  0.00000000000E+00 -0.00000000000E+00 -0.14533490299E+04  0.14533490299E+04  0.25500000000E-02 0. -1.
    5000001    1    1    2    0    0  0.19420233459E+03 -0.92129130905E+02 -0.77504835729E+03  0.82690161426E+03  0.19200000000E+03 0.  0.
   -5000001    1    1    2    0    0 -0.19420233459E+03  0.92129130905E+02 -0.62054172174E+03  0.68420636649E+03  0.19200000000E+03 0.  0.
<mgrwt>
<rscale>  0 0.57946153E+03</rscale>
<asrwt>0</asrwt>
<pdfrwt beam="1">  1        2 0.20762127E+00 0.57946153E+03</pdfrwt>
<pdfrwt beam="2">  1       -2 0.82512796E-02 0.57946153E+03</pdfrwt>
<totfact> 0.14694435E+03</totfact>
</mgrwt>
</event>
<event>
 4    1  0.2892809E-005  0.6017973E+03  0.7818608E-02  0.9901684E-01
          2   -1    0    0  501    0  0.00000000000E+00  0.00000000000E+00  0.10210899483E+04  0.10210899483E+04  0.25500000000E-02 0.  1.
         -2   -1    0    0    0  501 -0.00000000000E+00 -0.00000000000E+00 -0.88669942533E+02  0.88669942570E+02  0.25500000000E-02 0. -1.
    5000001    1    1    2    0    0 -0.20155581571E+03  0.69700422842E+02  0.29929218017E+03  0.41463562908E+03  0.19200000000E+03 0.  0.
   -5000001    1    1    2    0    0  0.20155581571E+03 -0.69700422842E+02  0.63312782559E+03  0.69512426179E+03  0.19200000000E+03 0.  0.
<mgrwt>
<rscale>  0 0.60179727E+03</rscale>
<asrwt>0</asrwt>
<pdfrwt beam="1">  1        2 0.14586999E+00 0.60179727E+03</pdfrwt>
<pdfrwt beam="2">  1       -2 0.12667135E-01 0.60179727E+03</pdfrwt>
<totfact> 0.12744490E+03</totfact>
</mgrwt>
</event>
<event>
 4    1  0.2892809E-005  0.6987588E+03  0.7818608E-02  0.9719357E-01
          2   -1    0    0  501    0  0.00000000000E+00  0.00000000000E+00  0.73797183708E+02  0.73797183752E+02  0.25500000000E-02 0.  1.
         -2   -1    0    0    0  501 -0.00000000000E+00 -0.00000000000E+00 -0.16540733420E+04  0.16540733420E+04  0.25500000000E-02 0. -1.
    5000001    1    1    2    0    0  0.16913521610E+02  0.28921085508E+03 -0.87836329717E+03  0.94462429977E+03  0.19200000000E+03 0.  0.
   -5000001    1    1    2    0    0 -0.16913521610E+02 -0.28921085508E+03 -0.70191286116E+03  0.78324622601E+03  0.19200000000E+03 0.  0.
<mgrwt>
<rscale>  0 0.69875877E+03</rscale>
<asrwt>0</asrwt>
<pdfrwt beam="1">  1        2 0.10542456E-01 0.69875877E+03</pdfrwt>
<pdfrwt beam="2">  1       -2 0.23629617E+00 0.69875877E+03</pdfrwt>
<totfact> 0.49937161E+01</totfact>
</mgrwt>
</event>
<event>
 4    1  0.2892809E-005  0.5094859E+03  0.7818608E-02  0.1011332E+00
          2   -1    0    0  501    0  0.00000000000E+00  0.00000000000E+00  0.58316062457E+03  0.58316062458E+03  0.25500000000E-02 0.  1.
         -2   -1    0    0    0  501 -0.00000000000E+00 -0.00000000000E+00 -0.11127974955E+03  0.11127974958E+03  0.25500000000E-02 0. -1.
    5000001    1    1    2    0    0  0.14247196822E+03  0.87825252710E+02  0.23008871922E+03  0.34324387169E+03  0.19200000000E+03 0.  0.
   -5000001    1    1    2    0    0 -0.14247196822E+03 -0.87825252710E+02  0.24179215580E+03  0.35119650247E+03  0.19200000000E+03 0.  0.
<mgrwt>
<rscale>  0 0.50948589E+03</rscale>
<asrwt>0</asrwt>
<pdfrwt beam="1">  1        2 0.83308659E-01 0.50948589E+03</pdfrwt>
<pdfrwt beam="2">  1       -2 0.15897107E-01 0.50948589E+03</pdfrwt>
<totfact> 0.17762337E+03</totfact>
</mgrwt>
</event>
<event>
 4    1  0.2892809E-005  0.4399227E+03  0.7818608E-02  0.1030771E+00
         -2   -1    0    0    0  501 -0.00000000000E+00  0.00000000000E+00  0.14689187129E+03  0.14689187131E+03  0.25500000000E-02 0. -1.
          2   -1    0    0  501    0  0.00000000000E+00 -0.00000000000E+00 -0.32937829469E+03  0.32937829470E+03  0.25500000000E-02 0.  1.
    5000001    1    1    2    0    0  0.78605028674E+02 -0.69721731916E+02 -0.67545805495E+02  0.22905524721E+03  0.19200000000E+03 0.  0.
   -5000001    1    1    2    0    0 -0.78605028674E+02  0.69721731916E+02 -0.11494061791E+03  0.24721491880E+03  0.19200000000E+03 0.  0.
<mgrwt>
<rscale>  0 0.43992269E+03</rscale>
<asrwt>0</asrwt>
<pdfrwt beam="1">  1        2 0.47054042E-01 0.43992269E+03</pdfrwt>
<pdfrwt beam="2">  1       -2 0.20984553E-01 0.43992269E+03</pdfrwt>
<totfact> 0.20873658E+03</totfact>
</mgrwt>
</event>
<event>
 4    1  0.2892809E-005  0.5010628E+03  0.7818608E-02  0.1013502E+00
          2   -1    0    0  501    0  0.00000000000E+00  0.00000000000E+00  0.27875634247E+04  0.27875634247E+04  0.25500000000E-02 0.  1.
         -2   -1    0    0    0  501 -0.00000000000E+00 -0.00000000000E+00 -0.22516429119E+02  0.22516429264E+02  0.25500000000E-02 0. -1.
    5000001    1    1    2    0    0  0.10237642980E+03  0.21753259791E+02  0.69685262454E+03  0.73035725369E+03  0.19200000000E+03 0.  0.
   -5000001    1    1    2    0    0 -0.10237642980E+03 -0.21753259791E+02  0.20681943711E+04  0.20797226003E+04  0.19200000000E+03 0.  0.
<mgrwt>
<rscale>  0 0.50106277E+03</rscale>
<asrwt>0</asrwt>
<pdfrwt beam="1">  1        2 0.39822270E+00 0.50106277E+03</pdfrwt>
<pdfrwt beam="2">  1       -2 0.32166379E-02 0.50106277E+03</pdfrwt>
<totfact> 0.13348873E+03</totfact>
</mgrwt>
</event>
<event>
 4    1  0.2892809E-005  0.5207169E+03  0.7818608E-02  0.1008509E+00
         -2   -1    0    0    0  501 -0.00000000000E+00  0.00000000000E+00  0.65835129949E+03  0.65835129949E+03  0.25500000000E-02 0. -1.
          2   -1    0    0  501    0  0.00000000000E+00 -0.00000000000E+00 -0.10296405845E+03  0.10296405848E+03  0.25500000000E-02 0.  1.
    5000001    1    1    2    0    0 -0.60747217798E+02 -0.15453437910E+03  0.19305325366E+03  0.31891167671E+03  0.19200000000E+03 0.  0.
   -5000001    1    1    2    0    0  0.60747217798E+02  0.15453437910E+03  0.36233398737E+03  0.44240368127E+03  0.19200000000E+03 0.  0.
<mgrwt>
<rscale>  0 0.52071690E+03</rscale>
<asrwt>0</asrwt>
<pdfrwt beam="1">  1        2 0.14709152E-01 0.52071690E+03</pdfrwt>
<pdfrwt beam="2">  1       -2 0.94050183E-01 0.52071690E+03</pdfrwt>
<totfact> 0.39595351E+02</totfact>
</mgrwt>
</event>
<event>
 4    1  0.2892809E-005  0.5986126E+03  0.7818608E-02  0.9908289E-01
         -2   -1    0    0    0  501 -0.00000000000E+00  0.00000000000E+00  0.22414369579E+03  0.22414369580E+03  0.25500000000E-02 0. -1.
          2   -1    0    0  501    0  0.00000000000E+00 -0.00000000000E+00 -0.39967334648E+03  0.39967334649E+03  0.25500000000E-02 0.  1.
    5000001    1    1    2    0    0 -0.15165174120E+03 -0.17154837814E+03 -0.69921863154E+02  0.30688786812E+03  0.19200000000E+03 0.  0.
   -5000001    1    1    2    0    0  0.15165174120E+03  0.17154837814E+03 -0.10560778754E+03  0.31692917417E+03  0.19200000000E+03 0.  0.
<mgrwt>
<rscale>  0 0.59861260E+03</rscale>
<asrwt>0</asrwt>
<pdfrwt beam="1">  1        2 0.57096192E-01 0.59861260E+03</pdfrwt>
<pdfrwt beam="2">  1       -2 0.32020528E-01 0.59861260E+03</pdfrwt>
<totfact> 0.78837499E+02</totfact>
</mgrwt>
</event>
<event>
 4    1  0.2892809E-005  0.4352505E+03  0.7818608E-02  0.1032214E+00
         -2   -1    0    0    0  501 -0.00000000000E+00  0.00000000000E+00  0.38194167191E+02  0.38194167276E+02  0.25500000000E-02 0. -1.
          2   -1    0    0  501    0  0.00000000000E+00 -0.00000000000E+00 -0.12399996644E+04  0.12399996644E+04  0.25500000000E-02 0.  1.
    5000001    1    1    2    0    0  0.85624526967E+02  0.14967047359E+02 -0.76016703381E+03  0.78884313486E+03  0.19200000000E+03 0.  0.
   -5000001    1    1    2    0    0 -0.85624526967E+02 -0.14967047359E+02 -0.44163846342E+03  0.48935069684E+03  0.19200000000E+03 0.  0.
<mgrwt>
<rscale>  0 0.43525052E+03</rscale>
<asrwt>0</asrwt>
<pdfrwt beam="1">  1        2 0.17714278E+00 0.43525052E+03</pdfrwt>
<pdfrwt beam="2">  1       -2 0.54563104E-02 0.43525052E+03</pdfrwt>
<totfact> 0.36654975E+03</totfact>
</mgrwt>
</event>
<event>
 4    1  0.2892809E-005  0.4509548E+03  0.7818608E-02  0.1027438E+00
          2   -1    0    0  501    0  0.00000000000E+00  0.00000000000E+00  0.16085690111E+04  0.16085690111E+04  0.25500000000E-02 0.  1.
         -2   -1    0    0    0  501 -0.00000000000E+00 -0.00000000000E+00 -0.31605770929E+02  0.31605771032E+02  0.25500000000E-02 0. -1.
    5000001    1    1    2    0    0  0.65860244640E+02  0.97453054815E+02  0.83173028148E+03  0.86166926999E+03  0.19200000000E+03 0.  0.
   -5000001    1    1    2    0    0 -0.65860244640E+02 -0.97453054815E+02  0.74523295867E+03  0.77850551212E+03  0.19200000000E+03 0.  0.
<mgrwt>
<rscale>  0 0.45095483E+03</rscale>
<asrwt>0</asrwt>
<pdfrwt beam="1">  1        2 0.22979552E+00 0.45095483E+03</pdfrwt>
<pdfrwt beam="2">  1       -2 0.45151111E-02 0.45095483E+03</pdfrwt>
<totfact> 0.31449562E+03</totfact>
</mgrwt>
</event>
<event>
 4    1  0.2892809E-005  0.1173512E+04  0.7818608E-02  0.9136363E-01
          2   -1    0    0  501    0  0.00000000000E+00  0.00000000000E+00  0.14123292202E+04  0.14123292202E+04  0.25500000000E-02 0.  1.
         -2   -1    0    0    0  501 -0.00000000000E+00 -0.00000000000E+00 -0.24376929002E+03  0.24376929003E+03  0.25500000000E-02 0. -1.
    5000001    1    1    2    0    0  0.32052191682E+03 -0.45032565572E+03  0.64564825180E+03  0.87135134155E+03  0.19200000000E+03 0.  0.
   -5000001    1    1    2    0    0 -0.32052191682E+03  0.45032565572E+03  0.52291167837E+03  0.78474716867E+03  0.19200000000E+03 0.  0.
<mgrwt>
<rscale>  0 0.11735118E+04</rscale>
<asrwt>0</asrwt>
<pdfrwt beam="1">  1        2 0.20176133E+00 0.11735118E+04</pdfrwt>
<pdfrwt beam="2">  1       -2 0.34824183E-01 0.11735118E+04</pdfrwt>
<totfact> 0.12442291E+02</totfact>
</mgrwt>
</event>
<event>
 4    1  0.2892809E-005  0.6470599E+03  0.7818608E-02  0.9812312E-01
          2   -1    0    0  501    0  0.00000000000E+00  0.00000000000E+00  0.12437414113E+04  0.12437414113E+04  0.25500000000E-02 0.  1.
         -2   -1    0    0    0  501 -0.00000000000E+00 -0.00000000000E+00 -0.84158670001E+02  0.84158670039E+02  0.25500000000E-02 0. -1.
    5000001    1    1    2    0    0  0.23346608970E+03 -0.11512659499E+03  0.59387182347E+03  0.67624573242E+03  0.19200000000E+03 0.  0.
   -5000001    1    1    2    0    0 -0.23346608970E+03  0.11512659499E+03  0.56571091785E+03  0.65165434894E+03  0.19200000000E+03 0.  0.
<mgrwt>
<rscale>  0 0.64705988E+03</rscale>
<asrwt>0</asrwt>
<pdfrwt beam="1">  1        2 0.17767735E+00 0.64705988E+03</pdfrwt>
<pdfrwt beam="2">  1       -2 0.12022667E-01 0.64705988E+03</pdfrwt>
<totfact> 0.10325918E+03</totfact>
</mgrwt>
</event>
<event>
 4    1  0.2892809E-005  0.4827908E+03  0.7818608E-02  0.1018371E+00
         -2   -1    0    0    0  501 -0.00000000000E+00  0.00000000000E+00  0.31535771532E+02  0.31535771635E+02  0.25500000000E-02 0. -1.
          2   -1    0    0  501    0  0.00000000000E+00 -0.00000000000E+00 -0.18477984220E+04  0.18477984220E+04  0.25500000000E-02 0.  1.
    5000001    1    1    2    0    0  0.73405831706E+02  0.45475903901E+02 -0.44834934843E+03  0.49531566924E+03  0.19200000000E+03 0.  0.
   -5000001    1    1    2    0    0 -0.73405831706E+02 -0.45475903901E+02 -0.13679133021E+04  0.13840185244E+04  0.19200000000E+03 0.  0.
<mgrwt>
<rscale>  0 0.48279084E+03</rscale>
<asrwt>0</asrwt>
<pdfrwt beam="1">  1        2 0.26397114E+00 0.48279084E+03</pdfrwt>
<pdfrwt beam="2">  1       -2 0.45051114E-02 0.48279084E+03</pdfrwt>
<totfact> 0.23900865E+03</totfact>
</mgrwt>
</event>
<event>
 4    1  0.2892809E-005  0.5399266E+03  0.7818608E-02  0.1003853E+00
         -2   -1    0    0    0  501 -0.00000000000E+00  0.00000000000E+00  0.16036510825E+03  0.16036510827E+03  0.25500000000E-02 0. -1.
          2   -1    0    0  501    0  0.00000000000E+00 -0.00000000000E+00 -0.45446404754E+03  0.45446404755E+03  0.25500000000E-02 0.  1.
    5000001    1    1    2    0    0 -0.13945945143E+03  0.11703916686E+03 -0.20804393101E+03  0.33659082341E+03  0.19200000000E+03 0.  0.
   -5000001    1    1    2    0    0  0.13945945143E+03 -0.11703916686E+03 -0.86055008280E+02  0.27823833241E+03  0.19200000000E+03 0.  0.
<mgrwt>
<rscale>  0 0.53992657E+03</rscale>
<asrwt>0</asrwt>
<pdfrwt beam="1">  1        2 0.64923435E-01 0.53992657E+03</pdfrwt>
<pdfrwt beam="2">  1       -2 0.22909301E-01 0.53992657E+03</pdfrwt>
<totfact> 0.12555399E+03</totfact>
</mgrwt>
</event>
<event>
 4    1  0.2892809E-005  0.4820810E+03  0.7818608E-02  0.1018565E+00
         -2   -1    0    0    0  501 -0.00000000000E+00  0.00000000000E+00  0.35438195436E+02  0.35438195528E+02  0.25500000000E-02 0. -1.
          2   -1    0    0  501    0  0.00000000000E+00 -0.00000000000E+00 -0.16394890059E+04  0.16394890059E+04  0.25500000000E-02 0.  1.
    5000001    1    1    2    0    0 -0.11410317075E+03 -0.76013083129E+02 -0.97361171430E+03  0.10017890460E+04  0.19200000000E+03 0.  0.
   -5000001    1    1    2    0    0  0.11410317075E+03  0.76013083129E+02 -0.63043909621E+03  0.67313815551E+03  0.19200000000E+03 0.  0.
<mgrwt>
<rscale>  0 0.48208104E+03</rscale>
<asrwt>0</asrwt>
<pdfrwt beam="1">  1        2 0.23421267E+00 0.48208104E+03</pdfrwt>
<pdfrwt beam="2">  1       -2 0.50626004E-02 0.48208104E+03</pdfrwt>
<totfact> 0.25420623E+03</totfact>
</mgrwt>
</event>
<event>
 4    1  0.2892809E-005  0.4786122E+03  0.7818608E-02  0.1019517E+00
         -2   -1    0    0    0  501 -0.00000000000E+00  0.00000000000E+00  0.40096252645E+02  0.40096252726E+02  0.25500000000E-02 0. -1.
          2   -1    0    0  501    0  0.00000000000E+00 -0.00000000000E+00 -0.14282483529E+04  0.14282483529E+04  0.25500000000E-02 0.  1.
    5000001    1    1    2    0    0 -0.12818247900E+03  0.37402834841E+02 -0.84971636178E+03  0.88131243918E+03  0.19200000000E+03 0.  0.
   -5000001    1    1    2    0    0  0.12818247900E+03 -0.37402834841E+02 -0.53843573844E+03  0.58703216642E+03  0.19200000000E+03 0.  0.
<mgrwt>
<rscale>  0 0.47861219E+03</rscale>
<asrwt>0</asrwt>
<pdfrwt beam="1">  1        2 0.20403545E+00 0.47861219E+03</pdfrwt>
<pdfrwt beam="2">  1       -2 0.57280370E-02 0.47861219E+03</pdfrwt>
<totfact> 0.26968287E+03</totfact>
</mgrwt>
</event>
<event>
 4    1  0.2892809E-005  0.5793146E+03  0.7818608E-02  0.9949276E-01
         -2   -1    0    0    0  501 -0.00000000000E+00  0.00000000000E+00  0.14700238949E+03  0.14700238951E+03  0.25500000000E-02 0. -1.
          2   -1    0    0  501    0  0.00000000000E+00 -0.00000000000E+00 -0.57074812926E+03  0.57074812927E+03  0.25500000000E-02 0.  1.
    5000001    1    1    2    0    0 -0.61662964659E+02  0.19207643772E+03 -0.31053728363E+03  0.41712478189E+03  0.19200000000E+03 0.  0.
   -5000001    1    1    2    0    0  0.61662964659E+02 -0.19207643772E+03 -0.11320845615E+03  0.30062573689E+03  0.19200000000E+03 0.  0.
<mgrwt>
<rscale>  0 0.57931456E+03</rscale>
<asrwt>0</asrwt>
<pdfrwt beam="1">  1        2 0.81535446E-01 0.57931456E+03</pdfrwt>
<pdfrwt beam="2">  1       -2 0.21000342E-01 0.57931456E+03</pdfrwt>
<totfact> 0.11284798E+03</totfact>
</mgrwt>
</event>
<event>
 4    1  0.2892809E-005  0.5247004E+03  0.7818608E-02  0.1007526E+00
          2   -1    0    0  501    0  0.00000000000E+00  0.00000000000E+00  0.23815766539E+04  0.23815766539E+04  0.25500000000E-02 0.  1.
         -2   -1    0    0    0  501 -0.00000000000E+00 -0.00000000000E+00 -0.28900028198E+02  0.28900028310E+02  0.25500000000E-02 0. -1.
    5000001    1    1    2    0    0 -0.12609363406E+03 -0.10492636167E+03  0.84972788183E+03  0.88645959811E+03  0.19200000000E+03 0.  0.
   -5000001    1    1    2    0    0  0.12609363406E+03  0.10492636167E+03  0.15029487438E+04  0.15240170841E+04  0.19200000000E+03 0.  0.
<mgrwt>
<rscale>  0 0.52470042E+03</rscale>
<asrwt>0</asrwt>
<pdfrwt beam="1">  1        2 0.34022525E+00 0.52470042E+03</pdfrwt>
<pdfrwt beam="2">  1       -2 0.41285753E-02 0.52470042E+03</pdfrwt>
<totfact> 0.14738648E+03</totfact>
</mgrwt>
</event>
<event>
 4    1  0.2892809E-005  0.6773166E+03  0.7818608E-02  0.9756830E-01
          2   -1    0    0  501    0  0.00000000000E+00  0.00000000000E+00  0.25521985566E+04  0.25521985566E+04  0.25500000000E-02 0.  1.
         -2   -1    0    0    0  501 -0.00000000000E+00 -0.00000000000E+00 -0.44937503099E+02  0.44937503172E+02  0.25500000000E-02 0. -1.
    5000001    1    1    2    0    0 -0.26807929833E+02 -0.25377062198E+03  0.16858741276E+04  0.17158536557E+04  0.19200000000E+03 0.  0.
   -5000001    1    1    2    0    0  0.26807929833E+02  0.25377062198E+03  0.82138692593E+03  0.88128240410E+03  0.19200000000E+03 0.  0.
<mgrwt>
<rscale>  0 0.67731656E+03</rscale>
<asrwt>0</asrwt>
<pdfrwt beam="1">  1        2 0.36459978E+00 0.67731656E+03</pdfrwt>
<pdfrwt beam="2">  1       -2 0.64196435E-02 0.67731656E+03</pdfrwt>
<totfact> 0.60043438E+02</totfact>
</mgrwt>
</event>
<event>
 4    1  0.2892809E-005  0.5405237E+03  0.7818608E-02  0.1003711E+00
         -2   -1    0    0    0  501 -0.00000000000E+00  0.00000000000E+00  0.70114553860E+03  0.70114553860E+03  0.25500000000E-02 0. -1.
          2   -1    0    0  501    0  0.00000000000E+00 -0.00000000000E+00 -0.10417448542E+03  0.10417448545E+03  0.25500000000E-02 0.  1.
    5000001    1    1    2    0    0  0.81407318535E+01 -0.18884054595E+03  0.33010671463E+03  0.42610030081E+03  0.19200000000E+03 0.  0.
   -5000001    1    1    2    0    0 -0.81407318535E+01  0.18884054595E+03  0.26686433855E+03  0.37921972324E+03  0.19200000000E+03 0.  0.
<mgrwt>
<rscale>  0 0.54052373E+03</rscale>
<asrwt>0</asrwt>
<pdfrwt beam="1">  1        2 0.14882069E-01 0.54052373E+03</pdfrwt>
<pdfrwt beam="2">  1       -2 0.10016365E+00 0.54052373E+03</pdfrwt>
<totfact> 0.33692460E+02</totfact>
</mgrwt>
</event>
<event>
 4    1  0.2892809E-005  0.8374616E+03  0.7818608E-02  0.9507322E-01
          2   -1    0    0  501    0  0.00000000000E+00  0.00000000000E+00  0.76631266029E+03  0.76631266030E+03  0.25500000000E-02 0.  1.
         -2   -1    0    0    0  501 -0.00000000000E+00 -0.00000000000E+00 -0.22880410351E+03  0.22880410352E+03  0.25500000000E-02 0. -1.
    5000001    1    1    2    0    0 -0.11906081399E+03  0.35255638279E+03  0.26872102452E+03  0.49754041996E+03  0.19200000000E+03 0.  0.
   -5000001    1    1    2    0    0  0.11906081399E+03 -0.35255638279E+03  0.26878753226E+03  0.49757634386E+03  0.19200000000E+03 0.  0.
<mgrwt>
<rscale>  0 0.83746160E+03</rscale>
<asrwt>0</asrwt>
<pdfrwt beam="1">  1        2 0.10947324E+00 0.83746160E+03</pdfrwt>
<pdfrwt beam="2">  1       -2 0.32686300E-01 0.83746160E+03</pdfrwt>
<totfact> 0.35131061E+02</totfact>
</mgrwt>
</event>
<event>
 4    1  0.2892809E-005  0.5600563E+03  0.7818608E-02  0.9991927E-01
          2   -1    0    0  501    0  0.00000000000E+00  0.00000000000E+00  0.26376415275E+04  0.26376415275E+04  0.25500000000E-02 0.  1.
         -2   -1    0    0    0  501 -0.00000000000E+00 -0.00000000000E+00 -0.29729499762E+02  0.29729499871E+02  0.25500000000E-02 0. -1.
    5000001    1    1    2    0    0  0.35958253402E+01  0.17018774383E+03  0.76987745543E+03  0.81151222695E+03  0.19200000000E+03 0.  0.
   -5000001    1    1    2    0    0 -0.35958253402E+01 -0.17018774383E+03  0.18380345723E+04  0.18558588004E+04  0.19200000000E+03 0.  0.
<mgrwt>
<rscale>  0 0.56005629E+03</rscale>
<asrwt>0</asrwt>
<pdfrwt beam="1">  1        2 0.37680561E+00 0.56005629E+03</pdfrwt>
<pdfrwt beam="2">  1       -2 0.42470750E-02 0.56005629E+03</pdfrwt>
<totfact> 0.10408443E+03</totfact>
</mgrwt>
</event>
<event>
 4    1  0.2892809E-005  0.5238275E+03  0.7818608E-02  0.1007740E+00
          2   -1    0    0  501    0  0.00000000000E+00  0.00000000000E+00  0.55156304625E+03  0.55156304626E+03  0.25500000000E-02 0.  1.
         -2   -1    0    0    0  501 -0.00000000000E+00 -0.00000000000E+00 -0.12437165365E+03  0.12437165367E+03  0.25500000000E-02 0. -1.
    5000001    1    1    2    0    0 -0.12140514182E+03 -0.11942279245E+03  0.14612743154E+03  0.29532734053E+03  0.19200000000E+03 0.  0.
   -5000001    1    1    2    0    0  0.12140514182E+03  0.11942279245E+03  0.28106396106E+03  0.38060735940E+03  0.19200000000E+03 0.  0.
<mgrwt>
<rscale>  0 0.52382748E+03</rscale>
<asrwt>0</asrwt>
<pdfrwt beam="1">  1        2 0.78794721E-01 0.52382748E+03</pdfrwt>
<pdfrwt beam="2">  1       -2 0.17767379E-01 0.52382748E+03</pdfrwt>
<totfact> 0.15683353E+03</totfact>
</mgrwt>
</event>
<event>
 4    1  0.2892809E-005  0.4705729E+03  0.7818608E-02  0.1021759E+00
         -2   -1    0    0    0  501 -0.00000000000E+00  0.00000000000E+00  0.24190341464E+02  0.24190341598E+02  0.25500000000E-02 0. -1.
          2   -1    0    0  501    0  0.00000000000E+00 -0.00000000000E+00 -0.22885047087E+04  0.22885047087E+04  0.25500000000E-02 0.  1.
    5000001    1    1    2    0    0 -0.38167140192E+02 -0.12837979975E+03 -0.12482099641E+04  0.12699725265E+04  0.19200000000E+03 0.  0.
   -5000001    1    1    2    0    0  0.38167140192E+02  0.12837979975E+03 -0.10161044031E+04  0.10427225238E+04  0.19200000000E+03 0.  0.
<mgrwt>
<rscale>  0 0.47057289E+03</rscale>
<asrwt>0</asrwt>
<pdfrwt beam="1">  1        2 0.32692911E+00 0.47057289E+03</pdfrwt>
<pdfrwt beam="2">  1       -2 0.34557645E-02 0.47057289E+03</pdfrwt>
<totfact> 0.21606546E+03</totfact>
</mgrwt>
</event>
<event>
 4    1  0.2892809E-005  0.4567242E+03  0.7818608E-02  0.1025736E+00
         -2   -1    0    0    0  501 -0.00000000000E+00  0.00000000000E+00  0.30665878132E+03  0.30665878133E+03  0.25500000000E-02 0. -1.
          2   -1    0    0  501    0  0.00000000000E+00 -0.00000000000E+00 -0.17005626411E+03  0.17005626413E+03  0.25500000000E-02 0.  1.
    5000001    1    1    2    0    0 -0.11351585986E+03 -0.39465847536E+01  0.11926269268E+03  0.25296050252E+03  0.19200000000E+03 0.  0.
   -5000001    1    1    2    0    0  0.11351585986E+03  0.39465847536E+01  0.17339824535E+02  0.22375454294E+03  0.19200000000E+03 0.  0.
<mgrwt>
<rscale>  0 0.45672419E+03</rscale>
<asrwt>0</asrwt>
<pdfrwt beam="1">  1        2 0.24293752E-01 0.45672419E+03</pdfrwt>
<pdfrwt beam="2">  1       -2 0.43808398E-01 0.45672419E+03</pdfrwt>
<totfact> 0.11188565E+03</totfact>
</mgrwt>
</event>
<event>
 4    1  0.2892809E-005  0.1037345E+04  0.7818608E-02  0.9268508E-01
         -2   -1    0    0    0  501 -0.00000000000E+00  0.00000000000E+00  0.20127571964E+03  0.20127571965E+03  0.25500000000E-02 0. -1.
          2   -1    0    0  501    0  0.00000000000E+00 -0.00000000000E+00 -0.13365806753E+04  0.13365806753E+04  0.25500000000E-02 0.  1.
    5000001    1    1    2    0    0 -0.34723816282E+03  0.24575908214E+03 -0.90305430490E+03  0.10165347735E+04  0.19200000000E+03 0.  0.
   -5000001    1    1    2    0    0  0.34723816282E+03 -0.24575908214E+03 -0.23225065073E+03  0.52132162140E+03  0.19200000000E+03 0.  0.
<mgrwt>
<rscale>  0 0.10373451E+04</rscale>
<asrwt>0</asrwt>
<pdfrwt beam="1">  1        2 0.19094009E+00 0.10373451E+04</pdfrwt>
<pdfrwt beam="2">  1       -2 0.28753675E-01 0.10373451E+04</pdfrwt>
<totfact> 0.19765481E+02</totfact>
</mgrwt>
</event>
<event>
 4    1  0.2892809E-005  0.1190266E+04  0.7818608E-02  0.9121419E-01
          2   -1    0    0  501    0  0.00000000000E+00  0.00000000000E+00  0.10940256030E+04  0.10940256030E+04  0.25500000000E-02 0.  1.
         -2   -1    0    0    0  501 -0.00000000000E+00 -0.00000000000E+00 -0.32374336932E+03  0.32374336933E+03  0.25500000000E-02 0. -1.
    5000001    1    1    2    0    0  0.10463181832E+03  0.52988374155E+03  0.57570400566E+03  0.81241842612E+03  0.19200000000E+03 0.  0.
   -5000001    1    1    2    0    0 -0.10463181832E+03 -0.52988374155E+03  0.19457822801E+03  0.60535054620E+03  0.19200000000E+03 0.  0.
<mgrwt>
<rscale>  0 0.11902664E+04</rscale>
<asrwt>0</asrwt>
<pdfrwt beam="1">  1        2 0.15628937E+00 0.11902664E+04</pdfrwt>
<pdfrwt beam="2">  1       -2 0.46249053E-01 0.11902664E+04</pdfrwt>
<totfact> 0.10777411E+02</totfact>
</mgrwt>
</event>
<event>
 4    1  0.2892809E-005  0.8624928E+03  0.7818608E-02  0.9473721E-01
         -2   -1    0    0    0  501 -0.00000000000E+00  0.00000000000E+00  0.70560896783E+03  0.70560896783E+03  0.25500000000E-02 0. -1.
          2   -1    0    0  501    0  0.00000000000E+00 -0.00000000000E+00 -0.26356449728E+03  0.26356449729E+03  0.25500000000E-02 0.  1.
    5000001    1    1    2    0    0 -0.87552024679E+02 -0.30788860288E+03 -0.21675600532E+02  0.37389113452E+03  0.19200000000E+03 0.  0.
   -5000001    1    1    2    0    0  0.87552024679E+02  0.30788860288E+03  0.46372007108E+03  0.59528233061E+03  0.19200000000E+03 0.  0.
<mgrwt>
<rscale>  0 0.86249284E+03</rscale>
<asrwt>0</asrwt>
<pdfrwt beam="1">  1        2 0.37652071E-01 0.86249284E+03</pdfrwt>
<pdfrwt beam="2">  1       -2 0.10080128E+00 0.86249284E+03</pdfrwt>
<totfact> 0.11225433E+02</totfact>
</mgrwt>
</event>
<event>
 4    1  0.2892809E-005  0.4864453E+03  0.7818608E-02  0.1017379E+00
         -2   -1    0    0    0  501 -0.00000000000E+00  0.00000000000E+00  0.50939642323E+03  0.50939642324E+03  0.25500000000E-02 0. -1.
          2   -1    0    0  501    0  0.00000000000E+00 -0.00000000000E+00 -0.11613207806E+03  0.11613207809E+03  0.25500000000E-02 0.  1.
    5000001    1    1    2    0    0  0.13185188256E+03 -0.28395878764E+02  0.11427300150E+03  0.26098575389E+03  0.19200000000E+03 0.  0.
   -5000001    1    1    2    0    0 -0.13185188256E+03  0.28395878764E+02  0.27899134367E+03  0.36454274743E+03  0.19200000000E+03 0.  0.
<mgrwt>
<rscale>  0 0.48644533E+03</rscale>
<asrwt>0</asrwt>
<pdfrwt beam="1">  1        2 0.16590297E-01 0.48644533E+03</pdfrwt>
<pdfrwt beam="2">  1       -2 0.72770919E-01 0.48644533E+03</pdfrwt>
<totfact> 0.61019881E+02</totfact>
</mgrwt>
</event>
<event>
 4    1  0.2892809E-005  0.1100316E+04  0.7818608E-02  0.9204884E-01
          2   -1    0    0  501    0  0.00000000000E+00  0.00000000000E+00  0.26731932219E+04  0.26731932219E+04  0.25500000000E-02 0.  1.
         -2   -1    0    0    0  501 -0.00000000000E+00 -0.00000000000E+00 -0.11322556127E+03  0.11322556130E+03  0.25500000000E-02 0. -1.
    5000001    1    1    2    0    0  0.98468817095E+02  0.49501177800E+03  0.15465105378E+04  0.16380755819E+04  0.19200000000E+03 0.  0.
   -5000001    1    1    2    0    0 -0.98468817095E+02 -0.49501177800E+03  0.10134571228E+04  0.11483432014E+04  0.19200000000E+03 0.  0.
<mgrwt>
<rscale>  0 0.11003160E+04</rscale>
<asrwt>0</asrwt>
<pdfrwt beam="1">  1        2 0.38188473E+00 0.11003160E+04</pdfrwt>
<pdfrwt beam="2">  1       -2 0.16175081E-01 0.11003160E+04</pdfrwt>
<totfact> 0.11031631E+02</totfact>
</mgrwt>
</event>
<event>
 4    1  0.2892809E-005  0.5590264E+03  0.7818608E-02  0.9994260E-01
          2   -1    0    0  501    0  0.00000000000E+00  0.00000000000E+00  0.21488036834E+04  0.21488036834E+04  0.25500000000E-02 0.  1.
         -2   -1    0    0    0  501 -0.00000000000E+00 -0.00000000000E+00 -0.36358667806E+02  0.36358667896E+02  0.25500000000E-02 0. -1.
    5000001    1    1    2    0    0 -0.93534453717E+02  0.10671408523E+03  0.16243826795E+04  0.16418342424E+04  0.19200000000E+03 0.  0.
   -5000001    1    1    2    0    0  0.93534453717E+02 -0.10671408523E+03  0.48806233611E+03  0.54332810893E+03  0.19200000000E+03 0.  0.
<mgrwt>
<rscale>  0 0.55902644E+03</rscale>
<asrwt>0</asrwt>
<pdfrwt beam="1">  1        2 0.30697204E+00 0.55902644E+03</pdfrwt>
<pdfrwt beam="2">  1       -2 0.51940939E-02 0.55902644E+03</pdfrwt>
<totfact> 0.13520758E+03</totfact>
</mgrwt>
</event>
<event>
 4    1  0.2892809E-005  0.5096537E+03  0.7818608E-02  0.1011289E+00
          2   -1    0    0  501    0  0.00000000000E+00  0.00000000000E+00  0.93187860460E+03  0.93187860460E+03  0.25500000000E-02 0.  1.
         -2   -1    0    0    0  501 -0.00000000000E+00 -0.00000000000E+00 -0.69683661368E+02  0.69683661415E+02  0.25500000000E-02 0. -1.
    5000001    1    1    2    0    0 -0.11615922804E+03  0.45593283267E+02  0.65082029677E+03  0.68992954164E+03  0.19200000000E+03 0.  0.
   -5000001    1    1    2    0    0  0.11615922804E+03 -0.45593283267E+02  0.21137464646E+03  0.31163272437E+03  0.19200000000E+03 0.  0.
<mgrwt>
<rscale>  0 0.50965366E+03</rscale>
<asrwt>0</asrwt>
<pdfrwt beam="1">  1        2 0.13312552E+00 0.50965366E+03</pdfrwt>
<pdfrwt beam="2">  1       -2 0.99548081E-02 0.50965366E+03</pdfrwt>
<totfact> 0.21464445E+03</totfact>
</mgrwt>
</event>
<event>
 4    1  0.2892809E-005  0.6309465E+03  0.7818608E-02  0.9843203E-01
          2   -1    0    0  501    0  0.00000000000E+00  0.00000000000E+00  0.19744170248E+04  0.19744170248E+04  0.25500000000E-02 0.  1.
         -2   -1    0    0    0  501 -0.00000000000E+00 -0.00000000000E+00 -0.50406463034E+02  0.50406463099E+02  0.25500000000E-02 0. -1.
    5000001    1    1    2    0    0 -0.22591020559E+03 -0.10659039942E+03  0.91001604398E+03  0.96301097322E+03  0.19200000000E+03 0.  0.
   -5000001    1    1    2    0    0  0.22591020559E+03  0.10659039942E+03  0.10139945178E+04  0.10618125147E+04  0.19200000000E+03 0.  0.
<mgrwt>
<rscale>  0 0.63094652E+03</rscale>
<asrwt>0</asrwt>
<pdfrwt beam="1">  1        2 0.28205963E+00 0.63094652E+03</pdfrwt>
<pdfrwt beam="2">  1       -2 0.72009220E-02 0.63094652E+03</pdfrwt>
<totfact> 0.98719472E+02</totfact>
</mgrwt>
</event>
<event>
 4    1  0.2892809E-005  0.4778353E+03  0.7818608E-02  0.1019732E+00
         -2   -1    0    0    0  501 -0.00000000000E+00  0.00000000000E+00  0.54700248575E+03  0.54700248576E+03  0.25500000000E-02 0.  1.
          2   -1    0    0  501    0  0.00000000000E+00 -0.00000000000E+00 -0.10435353749E+03  0.10435353752E+03  0.25500000000E-02 0. -1.
    5000001    1    1    2    0    0 -0.52928602100E+02  0.11190722732E+03  0.12597310821E+03  0.26087906861E+03  0.19200000000E+03 0.  0.
   -5000001    1    1    2    0    0  0.52928602100E+02 -0.11190722732E+03  0.31667584006E+03  0.39047695467E+03  0.19200000000E+03 0.  0.
<mgrwt>
<rscale>  0 0.47783530E+03</rscale>
<asrwt>0</asrwt>
<pdfrwt beam="1">  1        2 0.14907648E-01 0.47783530E+03</pdfrwt>
<pdfrwt beam="2">  1       -2 0.78143213E-01 0.47783530E+03</pdfrwt>
<totfact> 0.59300116E+02</totfact>
</mgrwt>
</event>
<event>
 4    1  0.2892809E-005  0.1250440E+04  0.7818608E-02  0.9069817E-01
          2   -1    0    0  501    0  0.00000000000E+00  0.00000000000E+00  0.35445882972E+03  0.35445882972E+03  0.25500000000E-02 0.  1.
         -2   -1    0    0    0  501 -0.00000000000E+00 -0.00000000000E+00 -0.11028080609E+04  0.11028080609E+04  0.25500000000E-02 0. -1.
    5000001    1    1    2    0    0  0.53531144698E+03 -0.11376362596E+03 -0.64632946200E+03  0.86839293025E+03  0.19200000000E+03 0.  0.
   -5000001    1    1    2    0    0 -0.53531144698E+03  0.11376362596E+03 -0.10201976915E+03  0.58887396033E+03  0.19200000000E+03 0.  0.
<mgrwt>
<rscale>  0 0.12504400E+04</rscale>
<asrwt>0</asrwt>
<pdfrwt beam="1">  1        2 0.50636976E-01 0.12504400E+04</pdfrwt>
<pdfrwt beam="2">  1       -2 0.15754401E+00 0.12504400E+04</pdfrwt>
<totfact> 0.25586594E+01</totfact>
</mgrwt>
</event>
<event>
 4    1  0.2892809E-005  0.1959845E+04  0.7818608E-02  0.8625628E-01
         -2   -1    0    0    0  501 -0.00000000000E+00  0.00000000000E+00  0.32187366331E+03  0.32187366332E+03  0.25500000000E-02 0. -1.
          2   -1    0    0  501    0  0.00000000000E+00 -0.00000000000E+00 -0.29833060296E+04  0.29833060296E+04  0.25500000000E-02 0.  1.
    5000001    1    1    2    0    0 -0.70653589398E+03 -0.52556489576E+03 -0.19794455198E+04  0.21749666653E+04  0.19200000000E+03 0.  0.
   -5000001    1    1    2    0    0  0.70653589398E+03  0.52556489576E+03 -0.68198684652E+03  0.11302130277E+04  0.19200000000E+03 0.  0.
<mgrwt>
<rscale>  0 0.19598445E+04</rscale>
<asrwt>0</asrwt>
<pdfrwt beam="1">  1        2 0.42618656E+00 0.19598445E+04</pdfrwt>
<pdfrwt beam="2">  1       -2 0.45981954E-01 0.19598445E+04</pdfrwt>
<totfact> 0.10120433E+01</totfact>
</mgrwt>
</event>
<event>
 4    1  0.2892809E-005  0.5500230E+03  0.7818608E-02  0.1001489E+00
         -2   -1    0    0    0  501 -0.00000000000E+00  0.00000000000E+00  0.52750051456E+02  0.52750051518E+02  0.25500000000E-02 0. -1.
          2   -1    0    0  501    0  0.00000000000E+00 -0.00000000000E+00 -0.14337676389E+04  0.14337676389E+04  0.25500000000E-02 0.  1.
    5000001    1    1    2    0    0 -0.45406010214E+02 -0.18856774793E+03 -0.78207290599E+03  0.82832453278E+03  0.19200000000E+03 0.  0.
   -5000001    1    1    2    0    0  0.45406010214E+02  0.18856774793E+03 -0.59894468145E+03  0.65819315764E+03  0.19200000000E+03 0.  0.
<mgrwt>
<rscale>  0 0.55002297E+03</rscale>
<asrwt>0</asrwt>
<pdfrwt beam="1">  1        2 0.20482392E+00 0.55002297E+03</pdfrwt>
<pdfrwt beam="2">  1       -2 0.75357226E-02 0.55002297E+03</pdfrwt>
<totfact> 0.17396547E+03</totfact>
</mgrwt>
</event>
<event>
 4    1  0.2892809E-005  0.1085551E+04  0.7818608E-02  0.9219391E-01
          2   -1    0    0  501    0  0.00000000000E+00  0.00000000000E+00  0.26496462763E+03  0.26496462764E+03  0.25500000000E-02 0.  1.
         -2   -1    0    0    0  501 -0.00000000000E+00 -0.00000000000E+00 -0.11118656165E+04  0.11118656165E+04  0.25500000000E-02 0. -1.
    5000001    1    1    2    0    0  0.19145099799E+03  0.46342036393E+03 -0.52435316894E+03  0.75048128832E+03  0.19200000000E+03 0.  0.
   -5000001    1    1    2    0    0 -0.19145099799E+03 -0.46342036393E+03 -0.32254781996E+03  0.62634895585E+03  0.19200000000E+03 0.  0.
<mgrwt>
<rscale>  0 0.10855507E+04</rscale>
<asrwt>0</asrwt>
<pdfrwt beam="1">  1        2 0.37852090E-01 0.10855507E+04</pdfrwt>
<pdfrwt beam="2">  1       -2 0.15883794E+00 0.10855507E+04</pdfrwt>
<totfact> 0.34974601E+01</totfact>
</mgrwt>
</event>
<event>
 4    1  0.2892809E-005  0.5350358E+03  0.7818608E-02  0.1005018E+00
          2   -1    0    0  501    0  0.00000000000E+00  0.00000000000E+00  0.15829822935E+04  0.15829822935E+04  0.25500000000E-02 0.  1.
         -2   -1    0    0    0  501 -0.00000000000E+00 -0.00000000000E+00 -0.45209498335E+02  0.45209498407E+02  0.25500000000E-02 0. -1.
    5000001    1    1    2    0    0 -0.66911707085E+02  0.15899324850E+03  0.55487287137E+03  0.61196726464E+03  0.19200000000E+03 0.  0.
   -5000001    1    1    2    0    0  0.66911707085E+02 -0.15899324850E+03  0.98289992375E+03  0.10162245272E+04  0.19200000000E+03 0.  0.
<mgrwt>
<rscale>  0 0.53503583E+03</rscale>
<asrwt>0</asrwt>
<pdfrwt beam="1">  1        2 0.22614028E+00 0.53503583E+03</pdfrwt>
<pdfrwt beam="2">  1       -2 0.64585010E-02 0.53503583E+03</pdfrwt>
<totfact> 0.18571230E+03</totfact>
</mgrwt>
</event>
<event>
 4    1  0.2892809E-005  0.9168629E+03  0.7818608E-02  0.9404744E-01
          2   -1    0    0  501    0  0.00000000000E+00  0.00000000000E+00  0.59179365993E+03  0.59179365993E+03  0.25500000000E-02 0.  1.
         -2   -1    0    0    0  501 -0.00000000000E+00 -0.00000000000E+00 -0.35512273372E+03  0.35512273373E+03  0.25500000000E-02 0. -1.
    5000001    1    1    2    0    0  0.21707545110E+03 -0.34698970375E+03  0.19679793657E+03  0.49306899499E+03  0.19200000000E+03 0.  0.
   -5000001    1    1    2    0    0 -0.21707545110E+03  0.34698970375E+03  0.39872989635E+02  0.45384739868E+03  0.19200000000E+03 0.  0.
<mgrwt>
<rscale>  0 0.91686287E+03</rscale>
<asrwt>0</asrwt>
<pdfrwt beam="1">  1        2 0.84541951E-01 0.91686287E+03</pdfrwt>
<pdfrwt beam="2">  1       -2 0.50731819E-01 0.91686287E+03</pdfrwt>
<totfact> 0.20304358E+02</totfact>
</mgrwt>
</event>
<event>
 4    1  0.2892809E-005  0.5766160E+03  0.7818608E-02  0.9955144E-01
         -2   -1    0    0    0  501 -0.00000000000E+00  0.00000000000E+00  0.12350637318E+03  0.12350637321E+03  0.25500000000E-02 0. -1.
          2   -1    0    0  501    0  0.00000000000E+00 -0.00000000000E+00 -0.67301394589E+03  0.67301394590E+03  0.25500000000E-02 0.  1.
    5000001    1    1    2    0    0 -0.17382221185E+03 -0.32820596782E+02 -0.44374546495E+03  0.51484501606E+03  0.19200000000E+03 0.  0.
   -5000001    1    1    2    0    0  0.17382221185E+03  0.32820596782E+02 -0.10576210776E+03  0.28167530304E+03  0.19200000000E+03 0.  0.
<mgrwt>
<rscale>  0 0.57661603E+03</rscale>
<asrwt>0</asrwt>
<pdfrwt beam="1">  1        2 0.96144847E-01 0.57661603E+03</pdfrwt>
<pdfrwt beam="2">  1       -2 0.17643768E-01 0.57661603E+03</pdfrwt>
<totfact> 0.12551840E+03</totfact>
</mgrwt>
</event>
<event>
 4    1  0.2892809E-005  0.6489586E+03  0.7818608E-02  0.9808735E-01
         -2   -1    0    0    0  501 -0.00000000000E+00  0.00000000000E+00  0.70398985556E+02  0.70398985602E+02  0.25500000000E-02 0. -1.
          2   -1    0    0  501    0  0.00000000000E+00 -0.00000000000E+00 -0.14955731017E+04  0.14955731017E+04  0.25500000000E-02 0.  1.
    5000001    1    1    2    0    0  0.53730402897E+02  0.25588353926E+03 -0.73119847148E+03  0.79992408799E+03  0.19200000000E+03 0.  0.
   -5000001    1    1    2    0    0 -0.53730402897E+02 -0.25588353926E+03 -0.69397564466E+03  0.76604799931E+03  0.19200000000E+03 0.  0.
<mgrwt>
<rscale>  0 0.64895864E+03</rscale>
<asrwt>0</asrwt>
<pdfrwt beam="1">  1        2 0.21365328E+00 0.64895864E+03</pdfrwt>
<pdfrwt beam="2">  1       -2 0.10056999E-01 0.64895864E+03</pdfrwt>
<totfact> 0.10128682E+03</totfact>
</mgrwt>
</event>
<event>
 4    1  0.2892809E-005  0.1213769E+04  0.7818608E-02  0.9100889E-01
          2   -1    0    0  501    0  0.00000000000E+00  0.00000000000E+00  0.59231155432E+03  0.59231155432E+03  0.25500000000E-02 0.  1.
         -2   -1    0    0    0  501 -0.00000000000E+00 -0.00000000000E+00 -0.62181578641E+03  0.62181578641E+03  0.25500000000E-02 0. -1.
    5000001    1    1    2    0    0 -0.31158859861E+03  0.48357583140E+03 -0.37378157950E+02  0.60761350066E+03  0.19200000000E+03 0.  0.
   -5000001    1    1    2    0    0  0.31158859861E+03 -0.48357583140E+03  0.78739258605E+01  0.60651384008E+03  0.19200000000E+03 0.  0.
<mgrwt>
<rscale>  0 0.12137688E+04</rscale>
<asrwt>0</asrwt>
<pdfrwt beam="1">  1        2 0.84615937E-01 0.12137688E+04</pdfrwt>
<pdfrwt beam="2">  1       -2 0.88830826E-01 0.12137688E+04</pdfrwt>
<totfact> 0.59246991E+01</totfact>
</mgrwt>
</event>
<event>
 4    1  0.2892809E-005  0.7025565E+03  0.7818608E-02  0.9712870E-01
         -2   -1    0    0    0  501 -0.00000000000E+00  0.00000000000E+00  0.14612819222E+03  0.14612819225E+03  0.25500000000E-02 0. -1.
          2   -1    0    0  501    0  0.00000000000E+00 -0.00000000000E+00 -0.84443949857E+03  0.84443949858E+03  0.25500000000E-02 0.  1.
    5000001    1    1    2    0    0  0.81863876848E+02  0.23254084725E+03 -0.57543123471E+03  0.65479924088E+03  0.19200000000E+03 0.  0.
   -5000001    1    1    2    0    0 -0.81863876848E+02 -0.23254084725E+03 -0.12288007164E+03  0.33576844995E+03  0.19200000000E+03 0.  0.
<mgrwt>
<rscale>  0 0.70255652E+03</rscale>
<asrwt>0</asrwt>
<pdfrwt beam="1">  1        2 0.12063421E+00 0.70255652E+03</pdfrwt>
<pdfrwt beam="2">  1       -2 0.20875456E-01 0.70255652E+03</pdfrwt>
<totfact> 0.70322852E+02</totfact>
</mgrwt>
</event>
<event>
 4    1  0.2892809E-005  0.4543444E+03  0.7818608E-02  0.1026434E+00
          2   -1    0    0  501    0  0.00000000000E+00  0.00000000000E+00  0.26964469831E+04  0.26964469831E+04  0.25500000000E-02 0.  1.
         -2   -1    0    0    0  501 -0.00000000000E+00 -0.00000000000E+00 -0.19138969014E+02  0.19138969184E+02  0.25500000000E-02 0. -1.
    5000001    1    1    2    0    0 -0.10504307543E+03  0.84928536454E+01  0.97819794223E+03  0.10024177724E+04  0.19200000000E+03 0.  0.
   -5000001    1    1    2    0    0  0.10504307543E+03 -0.84928536454E+01  0.16991100718E+04  0.17131681799E+04  0.19200000000E+03 0.  0.
<mgrwt>
<rscale>  0 0.45434443E+03</rscale>
<asrwt>0</asrwt>
<pdfrwt beam="1">  1        2 0.38520688E+00 0.45434443E+03</pdfrwt>
<pdfrwt beam="2">  1       -2 0.27341372E-02 0.45434443E+03</pdfrwt>
<totfact> 0.19108938E+03</totfact>
</mgrwt>
</event>
<event>
 4    1  0.2892809E-005  0.9580963E+03  0.7818608E-02  0.9355737E-01
         -2   -1    0    0    0  501 -0.00000000000E+00  0.00000000000E+00  0.18378800430E+03  0.18378800432E+03  0.25500000000E-02 0. -1.
          2   -1    0    0  501    0  0.00000000000E+00 -0.00000000000E+00 -0.12486512258E+04  0.12486512258E+04  0.25500000000E-02 0.  1.
    5000001    1    1    2    0    0  0.26086796096E+03  0.27851653251E+03 -0.20830553226E+03  0.47526702674E+03  0.19200000000E+03 0.  0.
   -5000001    1    1    2    0    0 -0.26086796096E+03 -0.27851653251E+03 -0.85655768927E+03  0.95717220342E+03  0.19200000000E+03 0.  0.
<mgrwt>
<rscale>  0 0.95809627E+03</rscale>
<asrwt>0</asrwt>
<pdfrwt beam="1">  1        2 0.17837874E+00 0.95809627E+03</pdfrwt>
<pdfrwt beam="2">  1       -2 0.26255430E-01 0.95809627E+03</pdfrwt>
<totfact> 0.26238660E+02</totfact>
</mgrwt>
</event>
<event>
 4    1  0.2892809E-005  0.6928797E+03  0.7818608E-02  0.9729487E-01
          2   -1    0    0  501    0  0.00000000000E+00  0.00000000000E+00  0.67373797221E+03  0.67373797222E+03  0.25500000000E-02 0.  1.
         -2   -1    0    0    0  501 -0.00000000000E+00 -0.00000000000E+00 -0.17814132914E+03  0.17814132916E+03  0.25500000000E-02 0. -1.
    5000001    1    1    2    0    0 -0.15730423286E+03 -0.14407502082E+03  0.92217683239E+01  0.28714329926E+03  0.19200000000E+03 0.  0.
   -5000001    1    1    2    0    0  0.15730423286E+03  0.14407502082E+03  0.48637487475E+03  0.56473600212E+03  0.19200000000E+03 0.  0.
<mgrwt>
<rscale>  0 0.69287972E+03</rscale>
<asrwt>0</asrwt>
<pdfrwt beam="1">  1        2 0.96248281E-01 0.69287972E+03</pdfrwt>
<pdfrwt beam="2">  1       -2 0.25448762E-01 0.69287972E+03</pdfrwt>
<totfact> 0.65712432E+02</totfact>
</mgrwt>
</event>
<event>
 4    1  0.2892809E-005  0.6559359E+03  0.7818608E-02  0.9795704E-01
         -2   -1    0    0    0  501 -0.00000000000E+00  0.00000000000E+00  0.50081257781E+02  0.50081257846E+02  0.25500000000E-02 0. -1.
          2   -1    0    0  501    0  0.00000000000E+00 -0.00000000000E+00 -0.21477690222E+04  0.21477690222E+04  0.25500000000E-02 0.  1.
    5000001    1    1    2    0    0 -0.15710438377E+02 -0.25010965431E+03 -0.13466108343E+04  0.13831219744E+04  0.19200000000E+03 0.  0.
   -5000001    1    1    2    0    0  0.15710438377E+02  0.25010965431E+03 -0.75107693020E+03  0.81472830571E+03  0.19200000000E+03 0.  0.
<mgrwt>
<rscale>  0 0.65593589E+03</rscale>
<asrwt>0</asrwt>
<pdfrwt beam="1">  1        2 0.30682409E+00 0.65593589E+03</pdfrwt>
<pdfrwt beam="2">  1       -2 0.71544668E-02 0.65593589E+03</pdfrwt>
<totfact> 0.81456416E+02</totfact>
</mgrwt>
</event>
<event>
 4    1  0.2892809E-005  0.4272807E+03  0.7818608E-02  0.1034722E+00
          2   -1    0    0  501    0  0.00000000000E+00  0.00000000000E+00  0.86198242920E+02  0.86198242958E+02  0.25500000000E-02 0.  1.
         -2   -1    0    0    0  501 -0.00000000000E+00 -0.00000000000E+00 -0.52950263456E+03  0.52950263456E+03  0.25500000000E-02 0. -1.
    5000001    1    1    2    0    0 -0.31321818699E+02  0.86983991014E+02 -0.24354960106E+03  0.32361656199E+03  0.19200000000E+03 0.  0.
   -5000001    1    1    2    0    0  0.31321818699E+02 -0.86983991014E+02 -0.19975479057E+03  0.29208431553E+03  0.19200000000E+03 0.  0.
<mgrwt>
<rscale>  0 0.42728069E+03</rscale>
<asrwt>0</asrwt>
<pdfrwt beam="1">  1        2 0.12314035E-01 0.42728069E+03</pdfrwt>
<pdfrwt beam="2">  1       -2 0.75643232E-01 0.42728069E+03</pdfrwt>
<totfact> 0.80392930E+02</totfact>
</mgrwt>
</event>
<event>
 4    1  0.2892809E-005  0.9143849E+03  0.7818608E-02  0.9407776E-01
          2   -1    0    0  501    0  0.00000000000E+00  0.00000000000E+00  0.61773855496E+03  0.61773855497E+03  0.25500000000E-02 0.  1.
         -2   -1    0    0    0  501 -0.00000000000E+00 -0.00000000000E+00 -0.33837122625E+03  0.33837122626E+03  0.25500000000E-02 0. -1.
    5000001    1    1    2    0    0  0.20438368356E+03  0.36109288798E+03  0.14013763725E+03  0.47818753772E+03  0.19200000000E+03 0.  0.
   -5000001    1    1    2    0    0 -0.20438368356E+03 -0.36109288798E+03  0.13922969146E+03  0.47792224351E+03  0.19200000000E+03 0.  0.
<mgrwt>
<rscale>  0 0.91438494E+03</rscale>
<asrwt>0</asrwt>
<pdfrwt beam="1">  1        2 0.88248365E-01 0.91438494E+03</pdfrwt>
<pdfrwt beam="2">  1       -2 0.48338747E-01 0.91438494E+03</pdfrwt>
<totfact> 0.21286802E+02</totfact>
</mgrwt>
</event>
<event>
 4    1  0.2892809E-005  0.5002032E+03  0.7818608E-02  0.1013726E+00
         -2   -1    0    0    0  501 -0.00000000000E+00  0.00000000000E+00  0.18376329541E+03  0.18376329543E+03  0.25500000000E-02 0. -1.
          2   -1    0    0  501    0  0.00000000000E+00 -0.00000000000E+00 -0.34038795115E+03  0.34038795115E+03  0.25500000000E-02 0.  1.
    5000001    1    1    2    0    0 -0.14301242947E+03 -0.63010934662E+02 -0.11556546578E+03  0.27320744820E+03  0.19200000000E+03 0.  0.
   -5000001    1    1    2    0    0  0.14301242947E+03  0.63010934662E+02 -0.41059189951E+02  0.25094379839E+03  0.19200000000E+03 0.  0.
<mgrwt>
<rscale>  0 0.50020321E+03</rscale>
<asrwt>0</asrwt>
<pdfrwt beam="1">  1        2 0.48626850E-01 0.50020321E+03</pdfrwt>
<pdfrwt beam="2">  1       -2 0.26251899E-01 0.50020321E+03</pdfrwt>
<totfact> 0.13556930E+03</totfact>
</mgrwt>
</event>
<event>
 4    1  0.2892809E-005  0.6974820E+03  0.7818608E-02  0.9721548E-01
         -2   -1    0    0    0  501 -0.00000000000E+00  0.00000000000E+00  0.29594696715E+03  0.29594696716E+03  0.25500000000E-02 0. -1.
          2   -1    0    0  501    0  0.00000000000E+00 -0.00000000000E+00 -0.41095291582E+03  0.41095291583E+03  0.25500000000E-02 0.  1.
    5000001    1    1    2    0    0 -0.19626068633E+03  0.20994130001E+03 -0.10370599525E+02  0.34578194832E+03  0.19200000000E+03 0.  0.
   -5000001    1    1    2    0    0  0.19626068633E+03 -0.20994130001E+03 -0.10463534915E+03  0.36111793467E+03  0.19200000000E+03 0.  0.
<mgrwt>
<rscale>  0 0.69748195E+03</rscale>
<asrwt>0</asrwt>
<pdfrwt beam="1">  1        2 0.58707559E-01 0.69748195E+03</pdfrwt>
<pdfrwt beam="2">  1       -2 0.42278138E-01 0.69748195E+03</pdfrwt>
<totfact> 0.44800275E+02</totfact>
</mgrwt>
</event>
<event>
 4    1  0.2892809E-005  0.4278812E+03  0.7818608E-02  0.1034531E+00
         -2   -1    0    0    0  501 -0.00000000000E+00  0.00000000000E+00  0.44060121841E+03  0.44060121842E+03  0.25500000000E-02 0. -1.
          2   -1    0    0  501    0  0.00000000000E+00 -0.00000000000E+00 -0.10388212049E+03  0.10388212052E+03  0.25500000000E-02 0.  1.
    5000001    1    1    2    0    0 -0.12740886617E+01  0.51704490166E+02  0.26881222857E+03  0.33436356236E+03  0.19200000000E+03 0.  0.
   -5000001    1    1    2    0    0  0.12740886617E+01 -0.51704490166E+02  0.67906869352E+02  0.21011977658E+03  0.19200000000E+03 0.  0.
<mgrwt>
<rscale>  0 0.42788124E+03</rscale>
<asrwt>0</asrwt>
<pdfrwt beam="1">  1        2 0.14840303E-01 0.42788124E+03</pdfrwt>
<pdfrwt beam="2">  1       -2 0.62943031E-01 0.42788124E+03</pdfrwt>
<totfact> 0.95184982E+02</totfact>
</mgrwt>
</event>
<event>
 4    1  0.2892809E-005  0.4495121E+03  0.7818608E-02  0.1027868E+00
          2   -1    0    0  501    0  0.00000000000E+00  0.00000000000E+00  0.26801425161E+03  0.26801425162E+03  0.25500000000E-02 0.  1.
         -2   -1    0    0    0  501 -0.00000000000E+00 -0.00000000000E+00 -0.18847980831E+03  0.18847980833E+03  0.25500000000E-02 0. -1.
    5000001    1    1    2    0    0  0.81434444171E+02  0.78691961470E+02  0.68976469452E+02  0.23333612415E+03  0.19200000000E+03 0.  0.
   -5000001    1    1    2    0    0 -0.81434444171E+02 -0.78691961470E+02  0.10557973847E+02  0.22315793580E+03  0.19200000000E+03 0.  0.
<mgrwt>
<rscale>  0 0.44951207E+03</rscale>
<asrwt>0</asrwt>
<pdfrwt beam="1">  1        2 0.38287750E-01 0.44951207E+03</pdfrwt>
<pdfrwt beam="2">  1       -2 0.26925687E-01 0.44951207E+03</pdfrwt>
<totfact> 0.16822431E+03</totfact>
</mgrwt>
</event>
<event>
 4    1  0.2892809E-005  0.7881408E+03  0.7818608E-02  0.9577343E-01
         -2   -1    0    0    0  501 -0.00000000000E+00  0.00000000000E+00  0.94025193716E+03  0.94025193716E+03  0.25500000000E-02 0. -1.
          2   -1    0    0  501    0  0.00000000000E+00 -0.00000000000E+00 -0.16515944874E+03  0.16515944876E+03  0.25500000000E-02 0.  1.
    5000001    1    1    2    0    0 -0.52386284832E+02  0.32874799607E+03  0.26521055128E+03  0.46692633709E+03  0.19200000000E+03 0.  0.
   -5000001    1    1    2    0    0  0.52386284832E+02 -0.32874799607E+03  0.50988193714E+03  0.63848504883E+03  0.19200000000E+03 0.  0.
<mgrwt>
<rscale>  0 0.78814083E+03</rscale>
<asrwt>0</asrwt>
<pdfrwt beam="1">  1        2 0.23594207E-01 0.78814083E+03</pdfrwt>
<pdfrwt beam="2">  1       -2 0.13432170E+00 0.78814083E+03</pdfrwt>
<totfact> 0.94417778E+01</totfact>
</mgrwt>
</event>
<event>
 4    1  0.2892809E-005  0.7482666E+03  0.7818608E-02  0.9638074E-01
         -2   -1    0    0    0  501 -0.00000000000E+00  0.00000000000E+00  0.83434625778E+02  0.83434625817E+02  0.25500000000E-02 0. -1.
          2   -1    0    0  501    0  0.00000000000E+00 -0.00000000000E+00 -0.16776695287E+04  0.16776695287E+04  0.25500000000E-02 0.  1.
    5000001    1    1    2    0    0 -0.11062764818E+03  0.29937337665E+03 -0.71394470152E+03  0.80526016418E+03  0.19200000000E+03 0.  0.
   -5000001    1    1    2    0    0  0.11062764818E+03 -0.29937337665E+03 -0.88029020142E+03  0.95584399036E+03  0.19200000000E+03 0.  0.
<mgrwt>
<rscale>  0 0.74826661E+03</rscale>
<asrwt>0</asrwt>
<pdfrwt beam="1">  1        2 0.23966705E+00 0.74826661E+03</pdfrwt>
<pdfrwt beam="2">  1       -2 0.11919233E-01 0.74826661E+03</pdfrwt>
<totfact> 0.61426933E+02</totfact>
</mgrwt>
</event>
<event>
 4    1  0.2892809E-005  0.7482574E+03  0.7818608E-02  0.9638088E-01
         -2   -1    0    0    0  501 -0.00000000000E+00  0.00000000000E+00  0.45626492367E+03  0.45626492368E+03  0.25500000000E-02 0. -1.
          2   -1    0    0  501    0  0.00000000000E+00 -0.00000000000E+00 -0.30677853337E+03  0.30677853338E+03  0.25500000000E-02 0.  1.
    5000001    1    1    2    0    0  0.14166034876E+03 -0.24899918744E+03  0.22266134791E+03  0.41050009210E+03  0.19200000000E+03 0.  0.
   -5000001    1    1    2    0    0 -0.14166034876E+03  0.24899918744E+03 -0.73174957612E+02  0.35254336496E+03  0.19200000000E+03 0.  0.
<mgrwt>
<rscale>  0 0.74825740E+03</rscale>
<asrwt>0</asrwt>
<pdfrwt beam="1">  1        2 0.43825505E-01 0.74825740E+03</pdfrwt>
<pdfrwt beam="2">  1       -2 0.65180703E-01 0.74825740E+03</pdfrwt>
<totfact> 0.25456635E+02</totfact>
</mgrwt>
</event>
<event>
 4    1  0.2892809E-005  0.4458188E+03  0.7818608E-02  0.1028976E+00
         -2   -1    0    0    0  501 -0.00000000000E+00  0.00000000000E+00  0.12138016058E+03  0.12138016061E+03  0.25500000000E-02 0. -1.
          2   -1    0    0  501    0  0.00000000000E+00 -0.00000000000E+00 -0.40936351475E+03  0.40936351475E+03  0.25500000000E-02 0.  1.
    5000001    1    1    2    0    0  0.63350841388E+02  0.44449563390E+02 -0.45565169477E+02  0.21196527418E+03  0.19200000000E+03 0.  0.
   -5000001    1    1    2    0    0 -0.63350841388E+02 -0.44449563390E+02 -0.24241818469E+03  0.31877840118E+03  0.19200000000E+03 0.  0.
<mgrwt>
<rscale>  0 0.44581884E+03</rscale>
<asrwt>0</asrwt>
<pdfrwt beam="1">  1        2 0.58480501E-01 0.44581884E+03</pdfrwt>
<pdfrwt beam="2">  1       -2 0.17340023E-01 0.44581884E+03</pdfrwt>
<totfact> 0.22831710E+03</totfact>
</mgrwt>
</event>
<event>
 4    1  0.2892809E-005  0.4607400E+03  0.7818608E-02  0.1024567E+00
          2   -1    0    0  501    0  0.00000000000E+00  0.00000000000E+00  0.15221302480E+04  0.15221302480E+04  0.25500000000E-02 0.  1.
         -2   -1    0    0    0  501 -0.00000000000E+00 -0.00000000000E+00 -0.34865837544E+02  0.34865837637E+02  0.25500000000E-02 0. -1.
    5000001    1    1    2    0    0 -0.84904511472E+02  0.91532192000E+02  0.65952621961E+03  0.69815883049E+03  0.19200000000E+03 0.  0.
   -5000001    1    1    2    0    0  0.84904511472E+02 -0.91532192000E+02  0.82773819081E+03  0.85883725511E+03  0.19200000000E+03 0.  0.
<mgrwt>
<rscale>  0 0.46074004E+03</rscale>
<asrwt>0</asrwt>
<pdfrwt beam="1">  1        2 0.21744726E+00 0.46074004E+03</pdfrwt>
<pdfrwt beam="2">  1       -2 0.49808320E-02 0.46074004E+03</pdfrwt>
<totfact> 0.29935111E+03</totfact>
</mgrwt>
</event>
<event>
 4    1  0.2892809E-005  0.6707900E+03  0.7818608E-02  0.9768532E-01
         -2   -1    0    0    0  501 -0.00000000000E+00  0.00000000000E+00  0.14527906365E+03  0.14527906367E+03  0.25500000000E-02 0. -1.
          2   -1    0    0  501    0  0.00000000000E+00 -0.00000000000E+00 -0.77430166865E+03  0.77430166865E+03  0.25500000000E-02 0.  1.
    5000001    1    1    2    0    0  0.58964711036E+02  0.26788594538E+03 -0.34144870450E+03  0.47821640989E+03  0.19200000000E+03 0.  0.
   -5000001    1    1    2    0    0 -0.58964711036E+02 -0.26788594538E+03 -0.28757390050E+03  0.44136432244E+03  0.19200000000E+03 0.  0.
<mgrwt>
<rscale>  0 0.67079005E+03</rscale>
<asrwt>0</asrwt>
<pdfrwt beam="1">  1        2 0.11061452E+00 0.67079005E+03</pdfrwt>
<pdfrwt beam="2">  1       -2 0.20754152E-01 0.67079005E+03</pdfrwt>
<totfact> 0.79512748E+02</totfact>
</mgrwt>
</event>
<event>
 4    1  0.2892809E-005  0.1274837E+04  0.7818608E-02  0.9049761E-01
         -2   -1    0    0    0  501 -0.00000000000E+00  0.00000000000E+00  0.17985277639E+03  0.17985277641E+03  0.25500000000E-02 0. -1.
          2   -1    0    0  501    0  0.00000000000E+00 -0.00000000000E+00 -0.22590816194E+04  0.22590816194E+04  0.25500000000E-02 0.  1.
    5000001    1    1    2    0    0  0.51551123967E+03 -0.18470874980E+03 -0.15442214373E+04  0.16496523900E+04  0.19200000000E+03 0.  0.
   -5000001    1    1    2    0    0 -0.51551123967E+03  0.18470874980E+03 -0.53500740567E+03  0.78928200575E+03  0.19200000000E+03 0.  0.
<mgrwt>
<rscale>  0 0.12748366E+04</rscale>
<asrwt>0</asrwt>
<pdfrwt beam="1">  1        2 0.32272593E+00 0.12748366E+04</pdfrwt>
<pdfrwt beam="2">  1       -2 0.25693255E-01 0.12748366E+04</pdfrwt>
<totfact> 0.79143772E+01</totfact>
</mgrwt>
</event>
<event>
 4    1  0.2892809E-005  0.6192921E+03  0.7818608E-02  0.9866170E-01
          2   -1    0    0  501    0  0.00000000000E+00  0.00000000000E+00  0.71108069973E+03  0.71108069974E+03  0.25500000000E-02 0.  1.
         -2   -1    0    0    0  501 -0.00000000000E+00 -0.00000000000E+00 -0.13483798441E+03  0.13483798444E+03  0.25500000000E-02 0. -1.
    5000001    1    1    2    0    0 -0.18690603315E+03  0.15982498554E+02  0.77272514968E+02  0.27932838570E+03  0.19200000000E+03 0.  0.
   -5000001    1    1    2    0    0  0.18690603315E+03 -0.15982498554E+02  0.49897020035E+03  0.56659029848E+03  0.19200000000E+03 0.  0.
<mgrwt>
<rscale>  0 0.61929214E+03</rscale>
<asrwt>0</asrwt>
<pdfrwt beam="1">  1        2 0.10158296E+00 0.61929214E+03</pdfrwt>
<pdfrwt beam="2">  1       -2 0.19262569E-01 0.61929214E+03</pdfrwt>
<totfact> 0.10083430E+03</totfact>
</mgrwt>
</event>
<event>
 4    1  0.2892809E-005  0.5706574E+03  0.7818608E-02  0.9968225E-01
         -2   -1    0    0    0  501 -0.00000000000E+00  0.00000000000E+00  0.38385639051E+02  0.38385639136E+02  0.25500000000E-02 0. -1.
          2   -1    0    0  501    0  0.00000000000E+00 -0.00000000000E+00 -0.21209097856E+04  0.21209097856E+04  0.25500000000E-02 0.  1.
    5000001    1    1    2    0    0  0.11188950905E+03 -0.11586207315E+03 -0.52513849411E+03  0.58187431652E+03  0.19200000000E+03 0.  0.
   -5000001    1    1    2    0    0 -0.11188950905E+03  0.11586207315E+03 -0.15573856524E+04  0.15774211082E+04  0.19200000000E+03 0.  0.
<mgrwt>
<rscale>  0 0.57065744E+03</rscale>
<asrwt>0</asrwt>
<pdfrwt beam="1">  1        2 0.30298704E+00 0.57065744E+03</pdfrwt>
<pdfrwt beam="2">  1       -2 0.54836641E-02 0.57065744E+03</pdfrwt>
<totfact> 0.12826018E+03</totfact>
</mgrwt>
</event>
<event>
 4    1  0.2892809E-005  0.6636459E+03  0.7818608E-02  0.9781505E-01
          2   -1    0    0  501    0  0.00000000000E+00  0.00000000000E+00  0.25625540576E+04  0.25625540576E+04  0.25500000000E-02 0.  1.
         -2   -1    0    0    0  501 -0.00000000000E+00 -0.00000000000E+00 -0.42967468842E+02  0.42967468917E+02  0.25500000000E-02 0. -1.
    5000001    1    1    2    0    0  0.12452943336E+03  0.16876504311E+03  0.58829444967E+03  0.65340919725E+03  0.19200000000E+03 0.  0.
   -5000001    1    1    2    0    0 -0.12452943336E+03 -0.16876504311E+03  0.19312921391E+04  0.19521123293E+04  0.19200000000E+03 0.  0.
<mgrwt>
<rscale>  0 0.66364587E+03</rscale>
<asrwt>0</asrwt>
<pdfrwt beam="1">  1        2 0.36607927E+00 0.66364587E+03</pdfrwt>
<pdfrwt beam="2">  1       -2 0.61382079E-02 0.66364587E+03</pdfrwt>
<totfact> 0.63711727E+02</totfact>
</mgrwt>
</event>
<event>
 4    1  0.2892809E-005  0.6837477E+03  0.7818608E-02  0.9745437E-01
         -2   -1    0    0    0  501 -0.00000000000E+00  0.00000000000E+00  0.31944513218E+02  0.31944513320E+02  0.25500000000E-02 0. -1.
          2   -1    0    0  501    0  0.00000000000E+00 -0.00000000000E+00 -0.36587729244E+04  0.36587729244E+04  0.25500000000E-02 0.  1.
    5000001    1    1    2    0    0 -0.25287229614E+03 -0.10659007336E+03 -0.21837771695E+04  0.22093104282E+04  0.19200000000E+03 0.  0.
   -5000001    1    1    2    0    0  0.25287229614E+03  0.10659007336E+03 -0.14430512417E+04  0.14814070096E+04  0.19200000000E+03 0.  0.
<mgrwt>
<rscale>  0 0.68374767E+03</rscale>
<asrwt>0</asrwt>
<pdfrwt beam="1">  1        2 0.52268158E+00 0.68374767E+03</pdfrwt>
<pdfrwt beam="2">  1       -2 0.45635042E-02 0.68374767E+03</pdfrwt>
<totfact> 0.24616219E+02</totfact>
</mgrwt>
</event>
<event>
 4    1  0.2892809E-005  0.4014307E+03  0.7818608E-02  0.1043285E+00
          2   -1    0    0  501    0  0.00000000000E+00  0.00000000000E+00  0.38051212261E+03  0.38051212262E+03  0.25500000000E-02 0.  1.
         -2   -1    0    0    0  501 -0.00000000000E+00 -0.00000000000E+00 -0.10587481071E+03  0.10587481074E+03  0.25500000000E-02 0. -1.
    5000001    1    1    2    0    0 -0.17578526298E+02  0.52268797632E+02  0.16098794890E+03  0.25655828087E+03  0.19200000000E+03 0.  0.
   -5000001    1    1    2    0    0  0.17578526298E+02 -0.52268797632E+02  0.11364936301E+03  0.22982865249E+03  0.19200000000E+03 0.  0.
<mgrwt>
<rscale>  0 0.40143069E+03</rscale>
<asrwt>0</asrwt>
<pdfrwt beam="1">  1        2 0.54358876E-01 0.40143069E+03</pdfrwt>
<pdfrwt beam="2">  1       -2 0.15124972E-01 0.40143069E+03</pdfrwt>
<totfact> 0.31098924E+03</totfact>
</mgrwt>
</event>
<event>
 4    1  0.2892809E-005  0.2184671E+04  0.7818608E-02  0.8524835E-01
          2   -1    0    0  501    0  0.00000000000E+00  0.00000000000E+00  0.11984463864E+04  0.11984463864E+04  0.25500000000E-02 0.  1.
         -2   -1    0    0    0  501 -0.00000000000E+00 -0.00000000000E+00 -0.99561993748E+03  0.99561993749E+03  0.25500000000E-02 0. -1.
    5000001    1    1    2    0    0 -0.14426094134E+03  0.10490912640E+04  0.28911108692E+03  0.11143845476E+04  0.19200000000E+03 0.  0.
   -5000001    1    1    2    0    0  0.14426094134E+03 -0.10490912640E+04 -0.86284638007E+02  0.10796817763E+04  0.19200000000E+03 0.  0.
<mgrwt>
<rscale>  0 0.21846712E+04</rscale>
<asrwt>0</asrwt>
<pdfrwt beam="1">  1        2 0.17120663E+00 0.21846712E+04</pdfrwt>
<pdfrwt beam="2">  1       -2 0.14223142E+00 0.21846712E+04</pdfrwt>
<totfact> 0.67869471E+00</totfact>
</mgrwt>
</event>
<event>
 4    1  0.2892809E-005  0.5922586E+03  0.7818608E-02  0.9921598E-01
         -2   -1    0    0    0  501 -0.00000000000E+00  0.00000000000E+00  0.30845541720E+03  0.30845541721E+03  0.25500000000E-02 0. -1.
          2   -1    0    0  501    0  0.00000000000E+00 -0.00000000000E+00 -0.28429572571E+03  0.28429572572E+03  0.25500000000E-02 0.  1.
    5000001    1    1    2    0    0  0.80099315924E+02 -0.18427422850E+03 -0.90258140762E+02  0.29220442104E+03  0.19200000000E+03 0.  0.
   -5000001    1    1    2    0    0 -0.80099315924E+02  0.18427422850E+03  0.11441783225E+03  0.30054672189E+03  0.19200000000E+03 0.  0.
<mgrwt>
<rscale>  0 0.59225858E+03</rscale>
<asrwt>0</asrwt>
<pdfrwt beam="1">  1        2 0.40613675E-01 0.59225858E+03</pdfrwt>
<pdfrwt beam="2">  1       -2 0.44065060E-01 0.59225858E+03</pdfrwt>
<totfact> 0.62247163E+02</totfact>
</mgrwt>
</event>
<event>
 4    1  0.2892809E-005  0.6020567E+03  0.7818608E-02  0.9901148E-01
         -2   -1    0    0    0  501 -0.00000000000E+00  0.00000000000E+00  0.61280635704E+03  0.61280635704E+03  0.25500000000E-02 0. -1.
          2   -1    0    0  501    0  0.00000000000E+00 -0.00000000000E+00 -0.14787392416E+03  0.14787392418E+03  0.25500000000E-02 0.  1.
    5000001    1    1    2    0    0 -0.19840763258E+03  0.90331608436E+02  0.33218183387E+03  0.44128693489E+03  0.19200000000E+03 0.  0.
   -5000001    1    1    2    0    0  0.19840763258E+03 -0.90331608436E+02  0.13275059901E+03  0.31939334634E+03  0.19200000000E+03 0.  0.
<mgrwt>
<rscale>  0 0.60205674E+03</rscale>
<asrwt>0</asrwt>
<pdfrwt beam="1">  1        2 0.21124847E-01 0.60205674E+03</pdfrwt>
<pdfrwt beam="2">  1       -2 0.87543764E-01 0.60205674E+03</pdfrwt>
<totfact> 0.30335944E+02</totfact>
</mgrwt>
</event>
<event>
 4    1  0.2892809E-005  0.4025299E+03  0.7818608E-02  0.1042907E+00
         -2   -1    0    0    0  501 -0.00000000000E+00  0.00000000000E+00  0.13283709000E+03  0.13283709002E+03  0.25500000000E-02 0. -1.
          2   -1    0    0  501    0  0.00000000000E+00 -0.00000000000E+00 -0.30494171819E+03  0.30494171820E+03  0.25500000000E-02 0.  1.
    5000001    1    1    2    0    0 -0.44432380049E+02 -0.36497832513E+02 -0.10602459472E+03  0.22674113623E+03  0.19200000000E+03 0.  0.
   -5000001    1    1    2    0    0  0.44432380049E+02  0.36497832513E+02 -0.66080033471E+02  0.21103767199E+03  0.19200000000E+03 0.  0.
<mgrwt>
<rscale>  0 0.40252985E+03</rscale>
<asrwt>0</asrwt>
<pdfrwt beam="1">  1        2 0.43563102E-01 0.40252985E+03</pdfrwt>
<pdfrwt beam="2">  1       -2 0.18976727E-01 0.40252985E+03</pdfrwt>
<totfact> 0.26982761E+03</totfact>
</mgrwt>
</event>
<event>
 4    1  0.2892809E-005  0.4744802E+03  0.7818608E-02  0.1020663E+00
          2   -1    0    0  501    0  0.00000000000E+00  0.00000000000E+00  0.10499821981E+04  0.10499821981E+04  0.25500000000E-02 0.  1.
         -2   -1    0    0    0  501 -0.00000000000E+00 -0.00000000000E+00 -0.53603631563E+02  0.53603631624E+02  0.25500000000E-02 0. -1.
    5000001    1    1    2    0    0 -0.11620102852E+03  0.44114741656E+02  0.35163885293E+03  0.41947904876E+03  0.19200000000E+03 0.  0.
   -5000001    1    1    2    0    0  0.11620102852E+03 -0.44114741656E+02  0.64473971365E+03  0.68410678100E+03  0.19200000000E+03 0.  0.
<mgrwt>
<rscale>  0 0.47448017E+03</rscale>
<asrwt>0</asrwt>
<pdfrwt beam="1">  1        2 0.14999746E+00 0.47448017E+03</pdfrwt>
<pdfrwt beam="2">  1       -2 0.76576616E-02 0.47448017E+03</pdfrwt>
<totfact> 0.27657695E+03</totfact>
</mgrwt>
</event>
<event>
 4    1  0.2892809E-005  0.7416016E+03  0.7818608E-02  0.9648619E-01
          2   -1    0    0  501    0  0.00000000000E+00  0.00000000000E+00  0.31053501476E+04  0.31053501476E+04  0.25500000000E-02 0.  1.
         -2   -1    0    0    0  501 -0.00000000000E+00 -0.00000000000E+00 -0.44276246916E+02  0.44276246990E+02  0.25500000000E-02 0. -1.
    5000001    1    1    2    0    0  0.17216854994E+03  0.42684029720E+02  0.41359003446E+03  0.48926950915E+03  0.19200000000E+03 0.  0.
   -5000001    1    1    2    0    0 -0.17216854994E+03 -0.42684029720E+02  0.26474838662E+04  0.26603568854E+04  0.19200000000E+03 0.  0.
<mgrwt>
<rscale>  0 0.74160165E+03</rscale>
<asrwt>0</asrwt>
<pdfrwt beam="1">  1        2 0.44362150E+00 0.74160165E+03</pdfrwt>
<pdfrwt beam="2">  1       -2 0.63251774E-02 0.74160165E+03</pdfrwt>
<totfact> 0.30913658E+02</totfact>
</mgrwt>
</event>
<event>
 4    1  0.2892809E-005  0.8869698E+03  0.7818608E-02  0.9442018E-01
         -2   -1    0    0    0  501 -0.00000000000E+00  0.00000000000E+00  0.20940635500E+03  0.20940635502E+03  0.25500000000E-02 0. -1.
          2   -1    0    0  501    0  0.00000000000E+00 -0.00000000000E+00 -0.93922100042E+03  0.93922100042E+03  0.25500000000E-02 0.  1.
    5000001    1    1    2    0    0 -0.13776681965E+03 -0.34132654175E+03 -0.56690824904E+03  0.70266099048E+03  0.19200000000E+03 0.  0.
   -5000001    1    1    2    0    0  0.13776681965E+03  0.34132654175E+03 -0.16290639638E+03  0.44596636497E+03  0.19200000000E+03 0.  0.
<mgrwt>
<rscale>  0 0.88696978E+03</rscale>
<asrwt>0</asrwt>
<pdfrwt beam="1">  1        2 0.13417443E+00 0.88696978E+03</pdfrwt>
<pdfrwt beam="2">  1       -2 0.29915194E-01 0.88696978E+03</pdfrwt>
<totfact> 0.31617193E+02</totfact>
</mgrwt>
</event>
<event>
 4    1  0.2892809E-005  0.6793564E+03  0.7818608E-02  0.9753202E-01
          2   -1    0    0  501    0  0.00000000000E+00  0.00000000000E+00  0.90790672662E+03  0.90790672663E+03  0.25500000000E-02 0.  1.
         -2   -1    0    0    0  501 -0.00000000000E+00 -0.00000000000E+00 -0.12708493539E+03  0.12708493541E+03  0.25500000000E-02 0. -1.
    5000001    1    1    2    0    0  0.14617133328E+03  0.22912792420E+03  0.28650491602E+03  0.43910674240E+03  0.19200000000E+03 0.  0.
   -5000001    1    1    2    0    0 -0.14617133328E+03 -0.22912792420E+03  0.49431687522E+03  0.59588491963E+03  0.19200000000E+03 0.  0.
<mgrwt>
<rscale>  0 0.67935637E+03</rscale>
<asrwt>0</asrwt>
<pdfrwt beam="1">  1        2 0.12970096E+00 0.67935637E+03</pdfrwt>
<pdfrwt beam="2">  1       -2 0.18154991E-01 0.67935637E+03</pdfrwt>
<totfact> 0.81486470E+02</totfact>
</mgrwt>
</event>
<event>
 4    1  0.2892809E-005  0.1109683E+04  0.7818608E-02  0.9195805E-01
          2   -1    0    0  501    0  0.00000000000E+00  0.00000000000E+00  0.10116222872E+04  0.10116222872E+04  0.25500000000E-02 0.  1.
         -2   -1    0    0    0  501 -0.00000000000E+00 -0.00000000000E+00 -0.30431228323E+03  0.30431228324E+03  0.25500000000E-02 0. -1.
    5000001    1    1    2    0    0  0.50920479316E+03  0.10281627533E+03  0.39341917452E+03  0.67934038208E+03  0.19200000000E+03 0.  0.
   -5000001    1    1    2    0    0 -0.50920479316E+03 -0.10281627533E+03  0.31389082945E+03  0.63659418836E+03  0.19200000000E+03 0.  0.
<mgrwt>
<rscale>  0 0.11096830E+04</rscale>
<asrwt>0</asrwt>
<pdfrwt beam="1">  1        2 0.14451747E+00 0.11096830E+04</pdfrwt>
<pdfrwt beam="2">  1       -2 0.43473184E-01 0.11096830E+04</pdfrwt>
<totfact> 0.13742288E+02</totfact>
</mgrwt>
</event>
<event>
 4    1  0.2892809E-005  0.4457521E+03  0.7818608E-02  0.1028996E+00
         -2   -1    0    0    0  501 -0.00000000000E+00  0.00000000000E+00  0.70125935382E+02  0.70125935428E+02  0.25500000000E-02 0. -1.
          2   -1    0    0  501    0  0.00000000000E+00 -0.00000000000E+00 -0.70835049738E+03  0.70835049738E+03  0.25500000000E-02 0.  1.
    5000001    1    1    2    0    0 -0.44429478324E+02  0.97056914723E+02 -0.25340092738E+03  0.33536555165E+03  0.19200000000E+03 0.  0.
   -5000001    1    1    2    0    0  0.44429478324E+02 -0.97056914723E+02 -0.38482363462E+03  0.44311088116E+03  0.19200000000E+03 0.  0.
<mgrwt>
<rscale>  0 0.44575213E+03</rscale>
<asrwt>0</asrwt>
<pdfrwt beam="1">  1        2 0.10119292E+00 0.44575213E+03</pdfrwt>
<pdfrwt beam="2">  1       -2 0.10017991E-01 0.44575213E+03</pdfrwt>
<totfact> 0.30136623E+03</totfact>
</mgrwt>
</event>
<event>
 4    1  0.2892809E-005  0.4241558E+03  0.7818608E-02  0.1035722E+00
         -2   -1    0    0    0  501 -0.00000000000E+00  0.00000000000E+00  0.18109751301E+03  0.18109751303E+03  0.25500000000E-02 0. -1.
          2   -1    0    0  501    0  0.00000000000E+00 -0.00000000000E+00 -0.24835813089E+03  0.24835813090E+03  0.25500000000E-02 0.  1.
    5000001    1    1    2    0    0  0.24974725090E+02 -0.44086953042E+02 -0.10902987723E+03  0.22653677505E+03  0.19200000000E+03 0.  0.
   -5000001    1    1    2    0    0 -0.24974725090E+02  0.44086953042E+02  0.41769259349E+02  0.20291886888E+03  0.19200000000E+03 0.  0.
<mgrwt>
<rscale>  0 0.42415582E+03</rscale>
<asrwt>0</asrwt>
<pdfrwt beam="1">  1        2 0.35479733E-01 0.42415582E+03</pdfrwt>
<pdfrwt beam="2">  1       -2 0.25871073E-01 0.42415582E+03</pdfrwt>
<totfact> 0.19643164E+03</totfact>
</mgrwt>
</event>
<event>
 4    1  0.2892809E-005  0.5872823E+03  0.7818608E-02  0.9932148E-01
          2   -1    0    0  501    0  0.00000000000E+00  0.00000000000E+00  0.39492604032E+03  0.39492604033E+03  0.25500000000E-02 0.  1.
         -2   -1    0    0    0  501 -0.00000000000E+00 -0.00000000000E+00 -0.21833232266E+03  0.21833232267E+03  0.25500000000E-02 0. -1.
    5000001    1    1    2    0    0 -0.80512532041E+02  0.19191651490E+03  0.16949817855E+03  0.33001189227E+03  0.19200000000E+03 0.  0.
   -5000001    1    1    2    0    0  0.80512532041E+02 -0.19191651490E+03  0.70955391134E+01  0.28324647073E+03  0.19200000000E+03 0.  0.
<mgrwt>
<rscale>  0 0.58728228E+03</rscale>
<asrwt>0</asrwt>
<pdfrwt beam="1">  1        2 0.56418005E-01 0.58728228E+03</pdfrwt>
<pdfrwt beam="2">  1       -2 0.31190332E-01 0.58728228E+03</pdfrwt>
<totfact> 0.83908500E+02</totfact>
</mgrwt>
</event>
<event>
 4    1  0.2892809E-005  0.8397641E+03  0.7818608E-02  0.9504179E-01
          2   -1    0    0  501    0  0.00000000000E+00  0.00000000000E+00  0.42280665027E+03  0.42280665028E+03  0.25500000000E-02 0.  1.
         -2   -1    0    0    0  501 -0.00000000000E+00 -0.00000000000E+00 -0.41697767197E+03  0.41697767197E+03  0.25500000000E-02 0. -1.
    5000001    1    1    2    0    0 -0.59573273346E+01  0.34824690884E+03  0.13754883379E+03  0.42082666378E+03  0.19200000000E+03 0.  0.
   -5000001    1    1    2    0    0  0.59573273346E+01 -0.34824690884E+03 -0.13171985549E+03  0.41895765848E+03  0.19200000000E+03 0.  0.
<mgrwt>
<rscale>  0 0.83976409E+03</rscale>
<asrwt>0</asrwt>
<pdfrwt beam="1">  1        2 0.60400950E-01 0.83976409E+03</pdfrwt>
<pdfrwt beam="2">  1       -2 0.59568239E-01 0.83976409E+03</pdfrwt>
<totfact> 0.21491593E+02</totfact>
</mgrwt>
</event>
<event>
 4    1  0.2892809E-005  0.1382260E+04  0.7818608E-02  0.8966760E-01
         -2   -1    0    0    0  501 -0.00000000000E+00  0.00000000000E+00  0.71646721751E+03  0.71646721752E+03  0.25500000000E-02 0. -1.
          2   -1    0    0  501    0  0.00000000000E+00 -0.00000000000E+00 -0.66668907258E+03  0.66668907259E+03  0.25500000000E-02 0.  1.
    5000001    1    1    2    0    0  0.38612470366E+03  0.52692250407E+03 -0.93751069134E+02  0.68730842788E+03  0.19200000000E+03 0.  0.
   -5000001    1    1    2    0    0 -0.38612470366E+03 -0.52692250407E+03  0.14352921407E+03  0.69584786222E+03  0.19200000000E+03 0.  0.
<mgrwt>
<rscale>  0 0.13822603E+04</rscale>
<asrwt>0</asrwt>
<pdfrwt beam="1">  1        2 0.95241296E-01 0.13822603E+04</pdfrwt>
<pdfrwt beam="2">  1       -2 0.10235246E+00 0.13822603E+04</pdfrwt>
<totfact> 0.36460919E+01</totfact>
</mgrwt>
</event>
<event>
 4    1  0.2892809E-005  0.5635766E+03  0.7818608E-02  0.9983994E-01
         -2   -1    0    0    0  501 -0.00000000000E+00  0.00000000000E+00  0.16100900476E+03  0.16100900478E+03  0.25500000000E-02 0. -1.
          2   -1    0    0  501    0  0.00000000000E+00 -0.00000000000E+00 -0.49316894247E+03  0.49316894247E+03  0.25500000000E-02 0.  1.
    5000001    1    1    2    0    0  0.51376574488E+02 -0.19907188814E+03 -0.14695480643E+03  0.31737814069E+03  0.19200000000E+03 0.  0.
   -5000001    1    1    2    0    0 -0.51376574488E+02  0.19907188814E+03 -0.18520513127E+03  0.33679980656E+03  0.19200000000E+03 0.  0.
<mgrwt>
<rscale>  0 0.56357658E+03</rscale>
<asrwt>0</asrwt>
<pdfrwt beam="1">  1        2 0.70452705E-01 0.56357658E+03</pdfrwt>
<pdfrwt beam="2">  1       -2 0.23001287E-01 0.56357658E+03</pdfrwt>
<totfact> 0.11368941E+03</totfact>
</mgrwt>
</event>
<event>
 4    1  0.2892809E-005  0.6190498E+03  0.7818608E-02  0.9866653E-01
         -2   -1    0    0    0  501 -0.00000000000E+00  0.00000000000E+00  0.17833517769E+03  0.17833517771E+03  0.25500000000E-02 0. -1.
          2   -1    0    0  501    0  0.00000000000E+00 -0.00000000000E+00 -0.53722247015E+03  0.53722247016E+03  0.25500000000E-02 0.  1.
    5000001    1    1    2    0    0 -0.19277205929E+03  0.12140719755E+03 -0.27643495611E+03  0.40642472786E+03  0.19200000000E+03 0.  0.
   -5000001    1    1    2    0    0  0.19277205929E+03 -0.12140719755E+03 -0.82452336350E+02  0.30913292000E+03  0.19200000000E+03 0.  0.
<mgrwt>
<rscale>  0 0.61904980E+03</rscale>
<asrwt>0</asrwt>
<pdfrwt beam="1">  1        2 0.76746066E-01 0.61904980E+03</pdfrwt>
<pdfrwt beam="2">  1       -2 0.25476454E-01 0.61904980E+03</pdfrwt>
<totfact> 0.85839720E+02</totfact>
</mgrwt>
</event>
<event>
 4    1  0.2892809E-005  0.7578375E+03  0.7818608E-02  0.9623134E-01
         -2   -1    0    0    0  501 -0.00000000000E+00  0.00000000000E+00  0.48097703059E+02  0.48097703126E+02  0.25500000000E-02 0. -1.
          2   -1    0    0  501    0  0.00000000000E+00 -0.00000000000E+00 -0.29851620511E+04  0.29851620511E+04  0.25500000000E-02 0.  1.
    5000001    1    1    2    0    0 -0.32187820026E+03 -0.54591478927E+02 -0.15141033960E+04  0.15607558743E+04  0.19200000000E+03 0.  0.
   -5000001    1    1    2    0    0  0.32187820026E+03  0.54591478927E+02 -0.14229609520E+04  0.14725038799E+04  0.19200000000E+03 0.  0.
<mgrwt>
<rscale>  0 0.75783755E+03</rscale>
<asrwt>0</asrwt>
<pdfrwt beam="1">  1        2 0.42645160E+00 0.75783755E+03</pdfrwt>
<pdfrwt beam="2">  1       -2 0.68711024E-02 0.75783755E+03</pdfrwt>
<totfact> 0.31540789E+02</totfact>
</mgrwt>
</event>
<event>
 4    1  0.2892809E-005  0.4904264E+03  0.7818608E-02  0.1016308E+00
         -2   -1    0    0    0  501 -0.00000000000E+00  0.00000000000E+00  0.35138145158E+02  0.35138145250E+02  0.25500000000E-02 0. -1.
          2   -1    0    0  501    0  0.00000000000E+00 -0.00000000000E+00 -0.17112319107E+04  0.17112319107E+04  0.25500000000E-02 0.  1.
    5000001    1    1    2    0    0 -0.51021506728E+02 -0.62192688504E+02 -0.12995180325E+04  0.13160859552E+04  0.19200000000E+03 0.  0.
   -5000001    1    1    2    0    0  0.51021506728E+02  0.62192688504E+02 -0.37657573303E+03  0.43028410075E+03  0.19200000000E+03 0.  0.
<mgrwt>
<rscale>  0 0.49042641E+03</rscale>
<asrwt>0</asrwt>
<pdfrwt beam="1">  1        2 0.24446165E+00 0.49042641E+03</pdfrwt>
<pdfrwt beam="2">  1       -2 0.50197361E-02 0.49042641E+03</pdfrwt>
<totfact> 0.23686873E+03</totfact>
</mgrwt>
</event>
<event>
 4    1  0.2892809E-005  0.7829501E+03  0.7818608E-02  0.9585029E-01
          2   -1    0    0  501    0  0.00000000000E+00  0.00000000000E+00  0.19699621833E+04  0.19699621833E+04  0.25500000000E-02 0.  1.
         -2   -1    0    0    0  501 -0.00000000000E+00 -0.00000000000E+00 -0.77794744655E+02  0.77794744696E+02  0.25500000000E-02 0. -1.
    5000001    1    1    2    0    0  0.20388842499E+03  0.27260644656E+03  0.10047966792E+04  0.10781303869E+04  0.19200000000E+03 0.  0.
   -5000001    1    1    2    0    0 -0.20388842499E+03 -0.27260644656E+03  0.88737075943E+03  0.96962654112E+03  0.19200000000E+03 0.  0.
<mgrwt>
<rscale>  0 0.78295008E+03</rscale>
<asrwt>0</asrwt>
<pdfrwt beam="1">  1        2 0.28142315E+00 0.78295008E+03</pdfrwt>
<pdfrwt beam="2">  1       -2 0.11113536E-01 0.78295008E+03</pdfrwt>
<totfact> 0.48838255E+02</totfact>
</mgrwt>
</event>
<event>
 4    1  0.2892809E-005  0.7788275E+03  0.7818608E-02  0.9591179E-01
          2   -1    0    0  501    0  0.00000000000E+00  0.00000000000E+00  0.12450000980E+04  0.12450000980E+04  0.25500000000E-02 0.  1.
         -2   -1    0    0    0  501 -0.00000000000E+00 -0.00000000000E+00 -0.12180166096E+03  0.12180166099E+03  0.25500000000E-02 0. -1.
    5000001    1    1    2    0    0 -0.24283284283E+03 -0.13238731323E+02  0.97554388097E+03  0.10235687164E+04  0.19200000000E+03 0.  0.
   -5000001    1    1    2    0    0  0.24283284283E+03  0.13238731323E+02  0.14765455604E+03  0.34323304253E+03  0.19200000000E+03 0.  0.
<mgrwt>
<rscale>  0 0.77882753E+03</rscale>
<asrwt>0</asrwt>
<pdfrwt beam="1">  1        2 0.17785716E+00 0.77882753E+03</pdfrwt>
<pdfrwt beam="2">  1       -2 0.17400237E-01 0.77882753E+03</pdfrwt>
<totfact> 0.55050799E+02</totfact>
</mgrwt>
</event>
<event>
 4    1  0.2892809E-005  0.9115050E+03  0.7818608E-02  0.9411313E-01
          2   -1    0    0  501    0  0.00000000000E+00  0.00000000000E+00  0.15537867108E+04  0.15537867108E+04  0.25500000000E-02 0.  1.
         -2   -1    0    0    0  501 -0.00000000000E+00 -0.00000000000E+00 -0.13368008066E+03  0.13368008068E+03  0.25500000000E-02 0. -1.
    5000001    1    1    2    0    0  0.13576936253E+03  0.36997987035E+03  0.94074538779E+03  0.10378749004E+04  0.19200000000E+03 0.  0.
   -5000001    1    1    2    0    0 -0.13576936253E+03 -0.36997987035E+03  0.47936124234E+03  0.64959189106E+03  0.19200000000E+03 0.  0.
<mgrwt>
<rscale>  0 0.91150498E+03</rscale>
<asrwt>0</asrwt>
<pdfrwt beam="1">  1        2 0.22196953E+00 0.91150498E+03</pdfrwt>
<pdfrwt beam="2">  1       -2 0.19097154E-01 0.91150498E+03</pdfrwt>
<totfact> 0.31740093E+02</totfact>
</mgrwt>
</event>
<event>
 4    1  0.2892809E-005  0.5314340E+03  0.7818608E-02  0.1005885E+00
         -2   -1    0    0    0  501 -0.00000000000E+00  0.00000000000E+00  0.58709907132E+02  0.58709907188E+02  0.25500000000E-02 0. -1.
          2   -1    0    0  501    0  0.00000000000E+00 -0.00000000000E+00 -0.12026167992E+04  0.12026167992E+04  0.25500000000E-02 0.  1.
    5000001    1    1    2    0    0  0.85555329373E+01 -0.12937292215E+03 -0.26312365167E+03  0.35058323719E+03  0.19200000000E+03 0.  0.
   -5000001    1    1    2    0    0 -0.85555329373E+01  0.12937292215E+03 -0.88078324044E+03  0.91074346924E+03  0.19200000000E+03 0.  0.
<mgrwt>
<rscale>  0 0.53143399E+03</rscale>
<asrwt>0</asrwt>
<pdfrwt beam="1">  1        2 0.17180239E+00 0.53143399E+03</pdfrwt>
<pdfrwt beam="2">  1       -2 0.83871303E-02 0.53143399E+03</pdfrwt>
<totfact> 0.19568455E+03</totfact>
</mgrwt>
</event>
<event>
 4    1  0.2892809E-005  0.9693131E+03  0.7818608E-02  0.9342857E-01
          2   -1    0    0  501    0  0.00000000000E+00  0.00000000000E+00  0.15382224735E+04  0.15382224735E+04  0.25500000000E-02 0.  1.
         -2   -1    0    0    0  501 -0.00000000000E+00 -0.00000000000E+00 -0.15270350593E+03  0.15270350596E+03  0.25500000000E-02 0. -1.
    5000001    1    1    2    0    0 -0.35124645136E+03  0.21613380721E+03  0.40116837010E+03  0.60653767680E+03  0.19200000000E+03 0.  0.
   -5000001    1    1    2    0    0  0.35124645136E+03 -0.21613380721E+03  0.98435059747E+03  0.10843883027E+04  0.19200000000E+03 0.  0.
<mgrwt>
<rscale>  0 0.96931309E+03</rscale>
<asrwt>0</asrwt>
<pdfrwt beam="1">  1        2 0.21974607E+00 0.96931309E+03</pdfrwt>
<pdfrwt beam="2">  1       -2 0.21814786E-01 0.96931309E+03</pdfrwt>
<totfact> 0.25508371E+02</totfact>
</mgrwt>
</event>
<event>
 4    1  0.2892809E-005  0.4464806E+03  0.7818608E-02  0.1028777E+00
          2   -1    0    0  501    0  0.00000000000E+00  0.00000000000E+00  0.24678170161E+03  0.24678170162E+03  0.25500000000E-02 0.  1.
         -2   -1    0    0    0  501 -0.00000000000E+00 -0.00000000000E+00 -0.20194459062E+03  0.20194459064E+03  0.25500000000E-02 0. -1.
    5000001    1    1    2    0    0  0.11237627196E+03 -0.90353584877E+01  0.61455897921E+01  0.22273713762E+03  0.19200000000E+03 0.  0.
   -5000001    1    1    2    0    0 -0.11237627196E+03  0.90353584877E+01  0.38691521193E+02  0.22598915464E+03  0.19200000000E+03 0.  0.
<mgrwt>
<rscale>  0 0.44648059E+03</rscale>
<asrwt>0</asrwt>
<pdfrwt beam="1">  1        2 0.35254529E-01 0.44648059E+03</pdfrwt>
<pdfrwt beam="2">  1       -2 0.28849227E-01 0.44648059E+03</pdfrwt>
<totfact> 0.16253194E+03</totfact>
</mgrwt>
</event>
<event>
 4    1  0.2892809E-005  0.7685594E+03  0.7818608E-02  0.9606675E-01
          2   -1    0    0  501    0  0.00000000000E+00  0.00000000000E+00  0.15509031808E+04  0.15509031808E+04  0.25500000000E-02 0.  1.
         -2   -1    0    0    0  501 -0.00000000000E+00 -0.00000000000E+00 -0.95216056606E+02  0.95216056640E+02  0.25500000000E-02 0. -1.
    5000001    1    1    2    0    0  0.20438198457E+03 -0.25853684671E+03  0.62752959123E+03  0.73435051889E+03  0.19200000000E+03 0.  0.
   -5000001    1    1    2    0    0 -0.20438198457E+03  0.25853684671E+03  0.82815753294E+03  0.91176871853E+03  0.19200000000E+03 0.  0.
<mgrwt>
<rscale>  0 0.76855939E+03</rscale>
<asrwt>0</asrwt>
<pdfrwt beam="1">  1        2 0.22155759E+00 0.76855939E+03</pdfrwt>
<pdfrwt beam="2">  1       -2 0.13602294E-01 0.76855939E+03</pdfrwt>
<totfact> 0.57289968E+02</totfact>
</mgrwt>
</event>
<event>
 4    1  0.2892809E-005  0.9792074E+03  0.7818608E-02  0.9331648E-01
         -2   -1    0    0    0  501 -0.00000000000E+00  0.00000000000E+00  0.16516622688E+03  0.16516622690E+03  0.25500000000E-02 0. -1.
          2   -1    0    0  501    0  0.00000000000E+00 -0.00000000000E+00 -0.14513365556E+04  0.14513365556E+04  0.25500000000E-02 0.  1.
    5000001    1    1    2    0    0  0.12122283772E+03  0.31558000952E+03 -0.11343612621E+04  0.11991351849E+04  0.19200000000E+03 0.  0.
   -5000001    1    1    2    0    0 -0.12122283772E+03 -0.31558000952E+03 -0.15180906661E+03  0.41736759756E+03  0.19200000000E+03 0.  0.
<mgrwt>
<rscale>  0 0.97920740E+03</rscale>
<asrwt>0</asrwt>
<pdfrwt beam="1">  1        2 0.20733379E+00 0.97920740E+03</pdfrwt>
<pdfrwt beam="2">  1       -2 0.23595176E-01 0.97920740E+03</pdfrwt>
<totfact> 0.24641743E+02</totfact>
</mgrwt>
</event>
<event>
 4    1  0.2892809E-005  0.5215750E+03  0.7818608E-02  0.1008296E+00
         -2   -1    0    0    0  501 -0.00000000000E+00  0.00000000000E+00  0.10726274064E+03  0.10726274068E+03  0.25500000000E-02 0. -1.
          2   -1    0    0  501    0  0.00000000000E+00 -0.00000000000E+00 -0.63405159070E+03  0.63405159071E+03  0.25500000000E-02 0.  1.
    5000001    1    1    2    0    0  0.65297879714E+02 -0.68541372410E+02 -0.51700063429E+02  0.22022404361E+03  0.19200000000E+03 0.  0.
   -5000001    1    1    2    0    0 -0.65297879714E+02  0.68541372410E+02 -0.47508878663E+03  0.52109028777E+03  0.19200000000E+03 0.  0.
<mgrwt>
<rscale>  0 0.52157497E+03</rscale>
<asrwt>0</asrwt>
<pdfrwt beam="1">  1        2 0.90578797E-01 0.52157497E+03</pdfrwt>
<pdfrwt beam="2">  1       -2 0.15323249E-01 0.52157497E+03</pdfrwt>
<totfact> 0.17129984E+03</totfact>
</mgrwt>
</event>
<event>
 4    1  0.2892809E-005  0.4981486E+03  0.7818608E-02  0.1014263E+00
          2   -1    0    0  501    0  0.00000000000E+00  0.00000000000E+00  0.14289815629E+03  0.14289815632E+03  0.25500000000E-02 0.  1.
         -2   -1    0    0    0  501 -0.00000000000E+00 -0.00000000000E+00 -0.43414133360E+03  0.43414133361E+03  0.25500000000E-02 0. -1.
    5000001    1    1    2    0    0  0.11507044139E+03  0.88331581268E+02 -0.22006711137E+03  0.32609386416E+03  0.19200000000E+03 0.  0.
   -5000001    1    1    2    0    0 -0.11507044139E+03 -0.88331581268E+02 -0.71176065934E+02  0.25094562577E+03  0.19200000000E+03 0.  0.
<mgrwt>
<rscale>  0 0.49814856E+03</rscale>
<asrwt>0</asrwt>
<pdfrwt beam="1">  1        2 0.20414023E-01 0.49814856E+03</pdfrwt>
<pdfrwt beam="2">  1       -2 0.62020190E-01 0.49814856E+03</pdfrwt>
<totfact> 0.67372297E+02</totfact>
</mgrwt>
</event>
<event>
 4    1  0.2892809E-005  0.4944542E+03  0.7818608E-02  0.1015237E+00
         -2   -1    0    0    0  501 -0.00000000000E+00  0.00000000000E+00  0.44291708869E+02  0.44291708943E+02  0.25500000000E-02 0. -1.
          2   -1    0    0  501    0  0.00000000000E+00 -0.00000000000E+00 -0.13799704729E+04  0.13799704729E+04  0.25500000000E-02 0.  1.
    5000001    1    1    2    0    0 -0.77544638186E+02  0.39910055912E+02 -0.10395350283E+04  0.10607087529E+04  0.19200000000E+03 0.  0.
   -5000001    1    1    2    0    0  0.77544638186E+02 -0.39910055912E+02 -0.29614373580E+03  0.36355342899E+03  0.19200000000E+03 0.  0.
<mgrwt>
<rscale>  0 0.49445425E+03</rscale>
<asrwt>0</asrwt>
<pdfrwt beam="1">  1        2 0.19713861E+00 0.49445425E+03</pdfrwt>
<pdfrwt beam="2">  1       -2 0.63273878E-02 0.49445425E+03</pdfrwt>
<totfact> 0.24480518E+03</totfact>
</mgrwt>
</event>
<event>
 4    1  0.2892809E-005  0.4530563E+03  0.7818608E-02  0.1026815E+00
         -2   -1    0    0    0  501 -0.00000000000E+00  0.00000000000E+00  0.50541140578E+03  0.50541140578E+03  0.25500000000E-02 0. -1.
          2   -1    0    0  501    0  0.00000000000E+00 -0.00000000000E+00 -0.10153115464E+03  0.10153115467E+03  0.25500000000E-02 0.  1.
    5000001    1    1    2    0    0 -0.56010696695E+02 -0.95283301341E+02  0.26527228017E+03  0.34561465288E+03  0.19200000000E+03 0.  0.
   -5000001    1    1    2    0    0  0.56010696695E+02  0.95283301341E+02  0.13860797097E+03  0.26132790757E+03  0.19200000000E+03 0.  0.
<mgrwt>
<rscale>  0 0.45305630E+03</rscale>
<asrwt>0</asrwt>
<pdfrwt beam="1">  1        2 0.14504451E-01 0.45305630E+03</pdfrwt>
<pdfrwt beam="2">  1       -2 0.72201629E-01 0.45305630E+03</pdfrwt>
<totfact> 0.72926120E+02</totfact>
</mgrwt>
</event>
<event>
 4    1  0.2892809E-005  0.9938946E+03  0.7818608E-02  0.9315266E-01
          2   -1    0    0  501    0  0.00000000000E+00  0.00000000000E+00  0.18908949410E+03  0.18908949412E+03  0.25500000000E-02 0.  1.
         -2   -1    0    0    0  501 -0.00000000000E+00 -0.00000000000E+00 -0.13060304645E+04  0.13060304645E+04  0.25500000000E-02 0. -1.
    5000001    1    1    2    0    0 -0.13377091942E+03 -0.34388045200E+03 -0.14940975146E+03  0.44196798298E+03  0.19200000000E+03 0.  0.
   -5000001    1    1    2    0    0  0.13377091942E+03  0.34388045200E+03 -0.96753121890E+03  0.10531519756E+04  0.19200000000E+03 0.  0.
<mgrwt>
<rscale>  0 0.99389464E+03</rscale>
<asrwt>0</asrwt>
<pdfrwt beam="1">  1        2 0.27012786E-01 0.99389464E+03</pdfrwt>
<pdfrwt beam="2">  1       -2 0.18657577E+00 0.99389464E+03</pdfrwt>
<totfact> 0.32790813E+01</totfact>
</mgrwt>
</event>
<event>
 4    1  0.2892809E-005  0.4688753E+03  0.7818608E-02  0.1022238E+00
         -2   -1    0    0    0  501 -0.00000000000E+00  0.00000000000E+00  0.24769637860E+02  0.24769637991E+02  0.25500000000E-02 0. -1.
          2   -1    0    0  501    0  0.00000000000E+00 -0.00000000000E+00 -0.22188865045E+04  0.22188865045E+04  0.25500000000E-02 0.  1.
    5000001    1    1    2    0    0 -0.48172675939E+01  0.11645759281E+03 -0.77565061125E+03  0.80751684052E+03  0.19200000000E+03 0.  0.
   -5000001    1    1    2    0    0  0.48172675939E+01 -0.11645759281E+03 -0.14184662553E+04  0.14361393019E+04  0.19200000000E+03 0.  0.
<mgrwt>
<rscale>  0 0.46887532E+03</rscale>
<asrwt>0</asrwt>
<pdfrwt beam="1">  1        2 0.31698366E+00 0.46887532E+03</pdfrwt>
<pdfrwt beam="2">  1       -2 0.35385211E-02 0.46887532E+03</pdfrwt>
<totfact> 0.22587075E+03</totfact>
</mgrwt>
</event>
<event>
 4    1  0.2892809E-005  0.7610323E+03  0.7818608E-02  0.9618200E-01
         -2   -1    0    0    0  501 -0.00000000000E+00  0.00000000000E+00  0.73956225208E+02  0.73956225252E+02  0.25500000000E-02 0. -1.
          2   -1    0    0  501    0  0.00000000000E+00 -0.00000000000E+00 -0.19578141821E+04  0.19578141821E+04  0.25500000000E-02 0.  1.
    5000001    1    1    2    0    0 -0.17882355678E+03 -0.27338663753E+03 -0.10348130226E+04  0.11020073093E+04  0.19200000000E+03 0.  0.
   -5000001    1    1    2    0    0  0.17882355678E+03  0.27338663753E+03 -0.84904493433E+03  0.92976309808E+03  0.19200000000E+03 0.  0.
<mgrwt>
<rscale>  0 0.76103232E+03</rscale>
<asrwt>0</asrwt>
<pdfrwt beam="1">  1        2 0.27968771E+00 0.76103232E+03</pdfrwt>
<pdfrwt beam="2">  1       -2 0.10565176E-01 0.76103232E+03</pdfrwt>
<totfact> 0.53893694E+02</totfact>
</mgrwt>
</event>
<event>
 4    1  0.2892809E-005  0.1437823E+04  0.7818608E-02  0.8926886E-01
         -2   -1    0    0    0  501 -0.00000000000E+00  0.00000000000E+00  0.20387110882E+03  0.20387110884E+03  0.25500000000E-02 0. -1.
          2   -1    0    0  501    0  0.00000000000E+00 -0.00000000000E+00 -0.25351016003E+04  0.25351016003E+04  0.25500000000E-02 0.  1.
    5000001    1    1    2    0    0 -0.22373354620E+03  0.60865020218E+03 -0.16301177744E+04  0.17648398587E+04  0.19200000000E+03 0.  0.
   -5000001    1    1    2    0    0  0.22373354620E+03 -0.60865020218E+03 -0.70111271705E+03  0.97413285045E+03  0.19200000000E+03 0.  0.
<mgrwt>
<rscale>  0 0.14378233E+04</rscale>
<asrwt>0</asrwt>
<pdfrwt beam="1">  1        2 0.36215735E+00 0.14378233E+04</pdfrwt>
<pdfrwt beam="2">  1       -2 0.29124446E-01 0.14378233E+04</pdfrwt>
<totfact> 0.44573068E+01</totfact>
</mgrwt>
</event>
<event>
 4    1  0.2892809E-005  0.4523041E+03  0.7818608E-02  0.1027037E+00
          2   -1    0    0  501    0  0.00000000000E+00  0.00000000000E+00  0.25743654658E+02  0.25743654784E+02  0.25500000000E-02 0.  1.
         -2   -1    0    0    0  501 -0.00000000000E+00 -0.00000000000E+00 -0.19866936493E+04  0.19866936493E+04  0.25500000000E-02 0. -1.
    5000001    1    1    2    0    0  0.22121279207E+02 -0.70724139492E+02 -0.13976073808E+04  0.14126788898E+04  0.19200000000E+03 0.  0.
   -5000001    1    1    2    0    0 -0.22121279207E+02  0.70724139492E+02 -0.56334261382E+03  0.59975841424E+03  0.19200000000E+03 0.  0.
<mgrwt>
<rscale>  0 0.45230412E+03</rscale>
<asrwt>0</asrwt>
<pdfrwt beam="1">  1        2 0.36776662E-02 0.45230412E+03</pdfrwt>
<pdfrwt beam="2">  1       -2 0.28381328E+00 0.45230412E+03</pdfrwt>
<totfact> 0.10649707E+02</totfact>
</mgrwt>
</event>
<event>
 4    1  0.2892809E-005  0.4512997E+03  0.7818608E-02  0.1027335E+00
         -2   -1    0    0    0  501 -0.00000000000E+00  0.00000000000E+00  0.30842021716E+02  0.30842021821E+02  0.25500000000E-02 0. -1.
          2   -1    0    0  501    0  0.00000000000E+00 -0.00000000000E+00 -0.16509248188E+04  0.16509248188E+04  0.25500000000E-02 0.  1.
    5000001    1    1    2    0    0 -0.10384477533E+03 -0.57007441202E+02 -0.79326244265E+03  0.82471988495E+03  0.19200000000E+03 0.  0.
   -5000001    1    1    2    0    0  0.10384477533E+03  0.57007441202E+02 -0.82682035441E+03  0.85704695565E+03  0.19200000000E+03 0.  0.
<mgrwt>
<rscale>  0 0.45129972E+03</rscale>
<asrwt>0</asrwt>
<pdfrwt beam="1">  1        2 0.23584635E+00 0.45129972E+03</pdfrwt>
<pdfrwt beam="2">  1       -2 0.44060042E-02 0.45129972E+03</pdfrwt>
<totfact> 0.31076768E+03</totfact>
</mgrwt>
</event>
<event>
 4    1  0.2892809E-005  0.4705434E+03  0.7818608E-02  0.1021767E+00
         -2   -1    0    0    0  501 -0.00000000000E+00  0.00000000000E+00  0.13208992526E+03  0.13208992528E+03  0.25500000000E-02 0. -1.
          2   -1    0    0  501    0  0.00000000000E+00 -0.00000000000E+00 -0.41905373747E+03  0.41905373748E+03  0.25500000000E-02 0.  1.
    5000001    1    1    2    0    0 -0.12402028593E+03 -0.38117994127E+02 -0.19112864235E+03  0.30038004382E+03  0.19200000000E+03 0.  0.
   -5000001    1    1    2    0    0  0.12402028593E+03  0.38117994127E+02 -0.95835169864E+02  0.25076361894E+03  0.19200000000E+03 0.  0.
<mgrwt>
<rscale>  0 0.47054342E+03</rscale>
<asrwt>0</asrwt>
<pdfrwt beam="1">  1        2 0.59864819E-01 0.47054342E+03</pdfrwt>
<pdfrwt beam="2">  1       -2 0.18869989E-01 0.47054342E+03</pdfrwt>
<totfact> 0.19265406E+03</totfact>
</mgrwt>
</event>
<event>
 4    1  0.2892809E-005  0.4800733E+03  0.7818608E-02  0.1019115E+00
         -2   -1    0    0    0  501 -0.00000000000E+00  0.00000000000E+00  0.73079684367E+02  0.73079684412E+02  0.25500000000E-02 0. -1.
          2   -1    0    0  501    0  0.00000000000E+00 -0.00000000000E+00 -0.78842159936E+03  0.78842159936E+03  0.25500000000E-02 0.  1.
    5000001    1    1    2    0    0  0.61069277899E+02 -0.88923742124E+02 -0.18632751533E+03  0.28847674358E+03  0.19200000000E+03 0.  0.
   -5000001    1    1    2    0    0 -0.61069277899E+02  0.88923742124E+02 -0.52901439966E+03  0.57302454020E+03  0.19200000000E+03 0.  0.
<mgrwt>
<rscale>  0 0.48007333E+03</rscale>
<asrwt>0</asrwt>
<pdfrwt beam="1">  1        2 0.11263165E+00 0.48007333E+03</pdfrwt>
<pdfrwt beam="2">  1       -2 0.10439955E-01 0.48007333E+03</pdfrwt>
<totfact> 0.24710489E+03</totfact>
</mgrwt>
</event>
<event>
 4    1  0.2892809E-005  0.5535812E+03  0.7818608E-02  0.1000668E+00
          2   -1    0    0  501    0  0.00000000000E+00  0.00000000000E+00  0.14919457755E+03  0.14919457757E+03  0.25500000000E-02 0.  1.
         -2   -1    0    0    0  501 -0.00000000000E+00 -0.00000000000E+00 -0.51351082115E+03  0.51351082116E+03  0.25500000000E-02 0. -1.
    5000001    1    1    2    0    0  0.17428372712E+03  0.10491449257E+02 -0.29738181595E+03  0.39469587343E+03  0.19200000000E+03 0.  0.
   -5000001    1    1    2    0    0 -0.17428372712E+03 -0.10491449257E+02 -0.66934427662E+02  0.26800952530E+03  0.19200000000E+03 0.  0.
<mgrwt>
<rscale>  0 0.55358118E+03</rscale>
<asrwt>0</asrwt>
<pdfrwt beam="1">  1        2 0.21313511E-01 0.55358118E+03</pdfrwt>
<pdfrwt beam="2">  1       -2 0.73358688E-01 0.55358118E+03</pdfrwt>
<totfact> 0.44631815E+02</totfact>
</mgrwt>
</event>
<event>
 4    1  0.2892809E-005  0.6426992E+03  0.7818608E-02  0.9820576E-01
         -2   -1    0    0    0  501 -0.00000000000E+00  0.00000000000E+00  0.15593167391E+03  0.15593167393E+03  0.25500000000E-02 0. -1.
          2   -1    0    0  501    0  0.00000000000E+00 -0.00000000000E+00 -0.66224872338E+03  0.66224872338E+03  0.25500000000E-02 0.  1.
    5000001    1    1    2    0    0  0.19769745365E+03 -0.16246494781E+03 -0.21449484067E+03  0.38516383413E+03  0.19200000000E+03 0.  0.
   -5000001    1    1    2    0    0 -0.19769745365E+03  0.16246494781E+03 -0.29182220880E+03  0.43301656319E+03  0.19200000000E+03 0.  0.
<mgrwt>
<rscale>  0 0.64269916E+03</rscale>
<asrwt>0</asrwt>
<pdfrwt beam="1">  1        2 0.94606960E-01 0.64269916E+03</pdfrwt>
<pdfrwt beam="2">  1       -2 0.22275954E-01 0.64269916E+03</pdfrwt>
<totfact> 0.85216393E+02</totfact>
</mgrwt>
</event>
<event>
 4    1  0.2892809E-005  0.4795338E+03  0.7818608E-02  0.1019263E+00
          2   -1    0    0  501    0  0.00000000000E+00  0.00000000000E+00  0.10824199776E+03  0.10824199779E+03  0.25500000000E-02 0.  1.
         -2   -1    0    0    0  501 -0.00000000000E+00 -0.00000000000E+00 -0.53110766748E+03  0.53110766748E+03  0.25500000000E-02 0. -1.
    5000001    1    1    2    0    0 -0.10052073399E+03  0.99098053820E+02 -0.17617505369E+03  0.29635534714E+03  0.19200000000E+03 0.  0.
   -5000001    1    1    2    0    0  0.10052073399E+03 -0.99098053820E+02 -0.24669061603E+03  0.34299431813E+03  0.19200000000E+03 0.  0.
<mgrwt>
<rscale>  0 0.47953375E+03</rscale>
<asrwt>0</asrwt>
<pdfrwt beam="1">  1        2 0.15463143E-01 0.47953375E+03</pdfrwt>
<pdfrwt beam="2">  1       -2 0.75872522E-01 0.47953375E+03</pdfrwt>
<totfact> 0.60569160E+02</totfact>
</mgrwt>
</event>
<event>
 4    1  0.2892809E-005  0.4348355E+03  0.7818608E-02  0.1032343E+00
         -2   -1    0    0    0  501 -0.00000000000E+00  0.00000000000E+00  0.25374982076E+02  0.25374982204E+02  0.25500000000E-02 0. -1.
          2   -1    0    0  501    0  0.00000000000E+00 -0.00000000000E+00 -0.18628775301E+04  0.18628775301E+04  0.25500000000E-02 0.  1.
    5000001    1    1    2    0    0  0.86538273742E+02  0.39286544501E+02 -0.10797256131E+04  0.11007741389E+04  0.19200000000E+03 0.  0.
   -5000001    1    1    2    0    0 -0.86538273742E+02 -0.39286544501E+02 -0.75777693498E+03  0.78747837341E+03  0.19200000000E+03 0.  0.
<mgrwt>
<rscale>  0 0.43483553E+03</rscale>
<asrwt>0</asrwt>
<pdfrwt beam="1">  1        2 0.26612527E+00 0.43483553E+03</pdfrwt>
<pdfrwt beam="2">  1       -2 0.36249986E-02 0.43483553E+03</pdfrwt>
<totfact> 0.32778453E+03</totfact>
</mgrwt>
</event>
<event>
 4    1  0.2892809E-005  0.7087976E+03  0.7818608E-02  0.9702304E-01
         -2   -1    0    0    0  501 -0.00000000000E+00  0.00000000000E+00  0.48202731841E+03  0.48202731842E+03  0.25500000000E-02 0. -1.
          2   -1    0    0  501    0  0.00000000000E+00 -0.00000000000E+00 -0.26056305034E+03  0.26056305035E+03  0.25500000000E-02 0.  1.
    5000001    1    1    2    0    0  0.12336250788E+03  0.22363193963E+03 -0.49890518579E+02  0.32339235708E+03  0.19200000000E+03 0.  0.
   -5000001    1    1    2    0    0 -0.12336250788E+03 -0.22363193963E+03  0.27135478665E+03  0.41919801170E+03  0.19200000000E+03 0.  0.
<mgrwt>
<rscale>  0 0.70879760E+03</rscale>
<asrwt>0</asrwt>
<pdfrwt beam="1">  1        2 0.37223293E-01 0.70879760E+03</pdfrwt>
<pdfrwt beam="2">  1       -2 0.68861045E-01 0.70879760E+03</pdfrwt>
<totfact> 0.27140105E+02</totfact>
</mgrwt>
</event>
<event>
 4    1  0.2892809E-005  0.5326660E+03  0.7818608E-02  0.1005588E+00
         -2   -1    0    0    0  501 -0.00000000000E+00  0.00000000000E+00  0.57889564647E+02  0.57889564703E+02  0.25500000000E-02 0. -1.
          2   -1    0    0  501    0  0.00000000000E+00 -0.00000000000E+00 -0.12253205809E+04  0.12253205809E+04  0.25500000000E-02 0.  1.
    5000001    1    1    2    0    0 -0.17951955261E+03 -0.23964596914E+02 -0.49794231054E+03  0.56357086183E+03  0.19200000000E+03 0.  0.
   -5000001    1    1    2    0    0  0.17951955261E+03  0.23964596914E+02 -0.66948870566E+03  0.71963928373E+03  0.19200000000E+03 0.  0.
<mgrwt>
<rscale>  0 0.53266603E+03</rscale>
<asrwt>0</asrwt>
<pdfrwt beam="1">  1        2 0.17504578E+00 0.53266603E+03</pdfrwt>
<pdfrwt beam="2">  1       -2 0.82699386E-02 0.53266603E+03</pdfrwt>
<totfact> 0.19439272E+03</totfact>
</mgrwt>
</event>
<event>
 4    1  0.2892809E-005  0.6302827E+03  0.7818608E-02  0.9844497E-01
          2   -1    0    0  501    0  0.00000000000E+00  0.00000000000E+00  0.64059035723E+03  0.64059035723E+03  0.25500000000E-02 0.  1.
         -2   -1    0    0    0  501 -0.00000000000E+00 -0.00000000000E+00 -0.15503523079E+03  0.15503523081E+03  0.25500000000E-02 0. -1.
    5000001    1    1    2    0    0  0.24138859476E+03  0.53601137347E+02  0.19711434001E+03  0.36994539954E+03  0.19200000000E+03 0.  0.
   -5000001    1    1    2    0    0 -0.24138859476E+03 -0.53601137347E+02  0.28844078643E+03  0.42568018850E+03  0.19200000000E+03 0.  0.
<mgrwt>
<rscale>  0 0.63028271E+03</rscale>
<asrwt>0</asrwt>
<pdfrwt beam="1">  1        2 0.91512909E-01 0.63028271E+03</pdfrwt>
<pdfrwt beam="2">  1       -2 0.22147890E-01 0.63028271E+03</pdfrwt>
<totfact> 0.89622034E+02</totfact>
</mgrwt>
</event>
<event>
 4    1  0.2892809E-005  0.4530381E+03  0.7818608E-02  0.1026820E+00
          2   -1    0    0  501    0  0.00000000000E+00  0.00000000000E+00  0.62116166882E+03  0.62116166883E+03  0.25500000000E-02 0.  1.
         -2   -1    0    0    0  501 -0.00000000000E+00 -0.00000000000E+00 -0.82604720739E+02  0.82604720778E+02  0.25500000000E-02 0. -1.
    5000001    1    1    2    0    0  0.54405092887E+02  0.61756470558E+02  0.40535383418E+03  0.45601480971E+03  0.19200000000E+03 0.  0.
   -5000001    1    1    2    0    0 -0.54405092887E+02 -0.61756470558E+02  0.13320311390E+03  0.24775157989E+03  0.19200000000E+03 0.  0.
<mgrwt>
<rscale>  0 0.45303813E+03</rscale>
<asrwt>0</asrwt>
<pdfrwt beam="1">  1        2 0.88737377E-01 0.45303813E+03</pdfrwt>
<pdfrwt beam="2">  1       -2 0.11800675E-01 0.45303813E+03</pdfrwt>
<totfact> 0.27035621E+03</totfact>
</mgrwt>
</event>
<event>
 4    1  0.2892809E-005  0.5619812E+03  0.7818608E-02  0.9987582E-01
          2   -1    0    0  501    0  0.00000000000E+00  0.00000000000E+00  0.67946357779E+02  0.67946357827E+02  0.25500000000E-02 0.  1.
         -2   -1    0    0    0  501 -0.00000000000E+00 -0.00000000000E+00 -0.11620303681E+04  0.11620303681E+04  0.25500000000E-02 0. -1.
    5000001    1    1    2    0    0 -0.13987326159E+03  0.37196166934E+01 -0.21864794966E+03  0.32287658748E+03  0.19200000000E+03 0.  0.
   -5000001    1    1    2    0    0  0.13987326159E+03 -0.37196166934E+01 -0.87543606070E+03  0.90710013848E+03  0.19200000000E+03 0.  0.
<mgrwt>
<rscale>  0 0.56198125E+03</rscale>
<asrwt>0</asrwt>
<pdfrwt beam="1">  1        2 0.97066233E-02 0.56198125E+03</pdfrwt>
<pdfrwt beam="2">  1       -2 0.16600433E+00 0.56198125E+03</pdfrwt>
<totfact> 0.16025437E+02</totfact>
</mgrwt>
</event>
<event>
 4    1  0.2892809E-005  0.9540122E+03  0.7818608E-02  0.9360473E-01
         -2   -1    0    0    0  501 -0.00000000000E+00  0.00000000000E+00  0.29325504681E+03  0.29325504682E+03  0.25500000000E-02 0. -1.
          2   -1    0    0  501    0  0.00000000000E+00 -0.00000000000E+00 -0.77589389845E+03  0.77589389845E+03  0.25500000000E-02 0.  1.
    5000001    1    1    2    0    0 -0.35177895819E+03  0.10924367861E+02  0.48336463111E+02  0.40381702652E+03  0.19200000000E+03 0.  0.
   -5000001    1    1    2    0    0  0.35177895819E+03 -0.10924367861E+02 -0.53097531475E+03  0.66533191875E+03  0.19200000000E+03 0.  0.
<mgrwt>
<rscale>  0 0.95401216E+03</rscale>
<asrwt>0</asrwt>
<pdfrwt beam="1">  1        2 0.11084199E+00 0.95401216E+03</pdfrwt>
<pdfrwt beam="2">  1       -2 0.41893578E-01 0.95401216E+03</pdfrwt>
<totfact> 0.21333934E+02</totfact>
</mgrwt>
</event>
<event>
 4    1  0.2892809E-005  0.5914754E+03  0.7818608E-02  0.9923251E-01
          2   -1    0    0  501    0  0.00000000000E+00  0.00000000000E+00  0.47410970714E+03  0.47410970715E+03  0.25500000000E-02 0.  1.
         -2   -1    0    0    0  501 -0.00000000000E+00 -0.00000000000E+00 -0.18447376227E+03  0.18447376229E+03  0.25500000000E-02 0. -1.
    5000001    1    1    2    0    0  0.29325136226E+02 -0.90319996407E+02 -0.82226971104E+02  0.22944049369E+03  0.19200000000E+03 0.  0.
   -5000001    1    1    2    0    0 -0.29325136226E+02  0.90319996407E+02  0.37186291597E+03  0.42914297576E+03  0.19200000000E+03 0.  0.
<mgrwt>
<rscale>  0 0.59147545E+03</rscale>
<asrwt>0</asrwt>
<pdfrwt beam="1">  1        2 0.67729958E-01 0.59147545E+03</pdfrwt>
<pdfrwt beam="2">  1       -2 0.26353395E-01 0.59147545E+03</pdfrwt>
<totfact> 0.93156349E+02</totfact>
</mgrwt>
</event>
<event>
 4    1  0.2892809E-005  0.1831134E+04  0.7818608E-02  0.8689916E-01
         -2   -1    0    0    0  501 -0.00000000000E+00  0.00000000000E+00  0.10350913910E+04  0.10350913910E+04  0.25500000000E-02 0. -1.
          2   -1    0    0  501    0  0.00000000000E+00 -0.00000000000E+00 -0.80984412002E+03  0.80984412002E+03  0.25500000000E-02 0.  1.
    5000001    1    1    2    0    0 -0.60115038930E+03  0.52702085660E+03 -0.29323497563E+03  0.87291667689E+03  0.19200000000E+03 0.  0.
   -5000001    1    1    2    0    0  0.60115038930E+03 -0.52702085660E+03  0.51848224659E+03  0.97201883412E+03  0.19200000000E+03 0.  0.
<mgrwt>
<rscale>  0 0.18311337E+04</rscale>
<asrwt>0</asrwt>
<pdfrwt beam="1">  1        2 0.11569202E+00 0.18311337E+04</pdfrwt>
<pdfrwt beam="2">  1       -2 0.14787020E+00 0.18311337E+04</pdfrwt>
<totfact> 0.10995256E+01</totfact>
</mgrwt>
</event>
<event>
 4    1  0.2892809E-005  0.4316882E+03  0.7818608E-02  0.1033328E+00
         -2   -1    0    0    0  501 -0.00000000000E+00  0.00000000000E+00  0.16066300265E+04  0.16066300265E+04  0.25500000000E-02 0. -1.
          2   -1    0    0  501    0  0.00000000000E+00 -0.00000000000E+00 -0.28997767825E+02  0.28997767937E+02  0.25500000000E-02 0.  1.
    5000001    1    1    2    0    0 -0.36309828767E+01  0.62774345101E+02  0.10766456699E+04  0.10954376755E+04  0.19200000000E+03 0.  0.
   -5000001    1    1    2    0    0  0.36309828767E+01 -0.62774345101E+02  0.50098658875E+03  0.54019011889E+03  0.19200000000E+03 0.  0.
<mgrwt>
<rscale>  0 0.43168824E+03</rscale>
<asrwt>0</asrwt>
<pdfrwt beam="1">  1        2 0.41425387E-02 0.43168824E+03</pdfrwt>
<pdfrwt beam="2">  1       -2 0.22951855E+00 0.43168824E+03</pdfrwt>
<totfact> 0.19101096E+02</totfact>
</mgrwt>
</event>
<event>
 4    1  0.2892809E-005  0.7486883E+03  0.7818608E-02  0.9637410E-01
          2   -1    0    0  501    0  0.00000000000E+00  0.00000000000E+00  0.43645790121E+03  0.43645790121E+03  0.25500000000E-02 0.  1.
         -2   -1    0    0    0  501 -0.00000000000E+00 -0.00000000000E+00 -0.32107005234E+03  0.32107005235E+03  0.25500000000E-02 0. -1.
    5000001    1    1    2    0    0 -0.20692491995E+03 -0.24283507552E+03  0.96655249670E+02  0.38469862710E+03  0.19200000000E+03 0.  0.
   -5000001    1    1    2    0    0  0.20692491995E+03  0.24283507552E+03  0.18732599195E+02  0.37282932647E+03  0.19200000000E+03 0.  0.
<mgrwt>
<rscale>  0 0.74868835E+03</rscale>
<asrwt>0</asrwt>
<pdfrwt beam="1">  1        2 0.62351129E-01 0.74868835E+03</pdfrwt>
<pdfrwt beam="2">  1       -2 0.45867150E-01 0.74868835E+03</pdfrwt>
<totfact> 0.35577144E+02</totfact>
</mgrwt>
</event>
<event>
 4    1  0.2892809E-005  0.7259516E+03  0.7818608E-02  0.9673853E-01
         -2   -1    0    0    0  501 -0.00000000000E+00  0.00000000000E+00  0.18538119786E+03  0.18538119788E+03  0.25500000000E-02 0. -1.
          2   -1    0    0  501    0  0.00000000000E+00 -0.00000000000E+00 -0.71070549677E+03  0.71070549677E+03  0.25500000000E-02 0.  1.
    5000001    1    1    2    0    0 -0.25644250817E+03  0.16941824805E+03 -0.23730109582E+03  0.43317561433E+03  0.19200000000E+03 0.  0.
   -5000001    1    1    2    0    0  0.25644250817E+03 -0.16941824805E+03 -0.28802320308E+03  0.46291108032E+03  0.19200000000E+03 0.  0.
<mgrwt>
<rscale>  0 0.72595161E+03</rscale>
<asrwt>0</asrwt>
<pdfrwt beam="1">  1        2 0.10152936E+00 0.72595161E+03</pdfrwt>
<pdfrwt beam="2">  1       -2 0.26483029E-01 0.72595161E+03</pdfrwt>
<totfact> 0.57209979E+02</totfact>
</mgrwt>
</event>
<event>
 4    1  0.2892809E-005  0.5214495E+03  0.7818608E-02  0.1008327E+00
         -2   -1    0    0    0  501 -0.00000000000E+00  0.00000000000E+00  0.43782071317E+02  0.43782071391E+02  0.25500000000E-02 0. -1.
          2   -1    0    0  501    0  0.00000000000E+00 -0.00000000000E+00 -0.15526309779E+04  0.15526309779E+04  0.25500000000E-02 0.  1.
    5000001    1    1    2    0    0  0.80358539146E+02  0.13188044720E+03 -0.49350613780E+03  0.55159972372E+03  0.19200000000E+03 0.  0.
   -5000001    1    1    2    0    0 -0.80358539146E+02 -0.13188044720E+03 -0.10153427688E+04  0.10448133256E+04  0.19200000000E+03 0.  0.
<mgrwt>
<rscale>  0 0.52144952E+03</rscale>
<asrwt>0</asrwt>
<pdfrwt beam="1">  1        2 0.22180439E+00 0.52144952E+03</pdfrwt>
<pdfrwt beam="2">  1       -2 0.62545826E-02 0.52144952E+03</pdfrwt>
<totfact> 0.20250120E+03</totfact>
</mgrwt>
</event>
<event>
 4    1  0.2892809E-005  0.4936154E+03  0.7818608E-02  0.1015459E+00
         -2   -1    0    0    0  501 -0.00000000000E+00  0.00000000000E+00  0.19516057020E+02  0.19516057187E+02  0.25500000000E-02 0. -1.
          2   -1    0    0  501    0  0.00000000000E+00 -0.00000000000E+00 -0.31212270920E+04  0.31212270920E+04  0.25500000000E-02 0.  1.
    5000001    1    1    2    0    0  0.14424221810E+03 -0.25515948407E+02 -0.12268452431E+04  0.12503879924E+04  0.19200000000E+03 0.  0.
   -5000001    1    1    2    0    0 -0.14424221810E+03  0.25515948407E+02 -0.18748657919E+04  0.18903551568E+04  0.19200000000E+03 0.  0.
<mgrwt>
<rscale>  0 0.49361542E+03</rscale>
<asrwt>0</asrwt>
<pdfrwt beam="1">  1        2 0.44588926E+00 0.49361542E+03</pdfrwt>
<pdfrwt beam="2">  1       -2 0.27880102E-02 0.49361542E+03</pdfrwt>
<totfact> 0.10973158E+03</totfact>
</mgrwt>
</event>
<event>
 4    1  0.2892809E-005  0.9546155E+03  0.7818608E-02  0.9359772E-01
         -2   -1    0    0    0  501 -0.00000000000E+00  0.00000000000E+00  0.53170773662E+02  0.53170773723E+02  0.25500000000E-02 0. -1.
          2   -1    0    0  501    0  0.00000000000E+00 -0.00000000000E+00 -0.42847351776E+04  0.42847351776E+04  0.25500000000E-02 0.  1.
    5000001    1    1    2    0    0 -0.38468375411E+03  0.83979372525E+02 -0.29770681769E+04  0.30091249651E+04  0.19200000000E+03 0.  0.
   -5000001    1    1    2    0    0  0.38468375411E+03 -0.83979372525E+02 -0.12544962270E+04  0.13287809862E+04  0.19200000000E+03 0.  0.
<mgrwt>
<rscale>  0 0.95461549E+03</rscale>
<asrwt>0</asrwt>
<pdfrwt beam="1">  1        2 0.61210481E+00 0.95461549E+03</pdfrwt>
<pdfrwt beam="2">  1       -2 0.75958275E-02 0.95461549E+03</pdfrwt>
<totfact> 0.40612445E+01</totfact>
</mgrwt>
</event>
<event>
 4    1  0.2892809E-005  0.5075543E+03  0.7818608E-02  0.1011826E+00
          2   -1    0    0  501    0  0.00000000000E+00  0.00000000000E+00  0.14997346780E+03  0.14997346783E+03  0.25500000000E-02 0.  1.
         -2   -1    0    0    0  501 -0.00000000000E+00 -0.00000000000E+00 -0.42942818981E+03  0.42942818982E+03  0.25500000000E-02 0. -1.
    5000001    1    1    2    0    0 -0.99847827489E+01 -0.16349754469E+03 -0.17009558037E+03  0.30434790860E+03  0.19200000000E+03 0.  0.
   -5000001    1    1    2    0    0  0.99847827489E+01  0.16349754469E+03 -0.10935914164E+03  0.27505374905E+03  0.19200000000E+03 0.  0.
<mgrwt>
<rscale>  0 0.50755427E+03</rscale>
<asrwt>0</asrwt>
<pdfrwt beam="1">  1        2 0.21424781E-01 0.50755427E+03</pdfrwt>
<pdfrwt beam="2">  1       -2 0.61346884E-01 0.50755427E+03</pdfrwt>
<totfact> 0.65179150E+02</totfact>
</mgrwt>
</event>
<event>
 4    1  0.2892809E-005  0.1030520E+04  0.7818608E-02  0.9275690E-01
          2   -1    0    0  501    0  0.00000000000E+00  0.00000000000E+00  0.34089285477E+04  0.34089285477E+04  0.25500000000E-02 0.  1.
         -2   -1    0    0    0  501 -0.00000000000E+00 -0.00000000000E+00 -0.77881650785E+02  0.77881650827E+02  0.25500000000E-02 0. -1.
    5000001    1    1    2    0    0 -0.34850024068E+03 -0.20192902882E+03  0.25374097578E+04  0.25763423743E+04  0.19200000000E+03 0.  0.
   -5000001    1    1    2    0    0  0.34850024068E+03  0.20192902882E+03  0.79363713906E+03  0.91046782421E+03  0.19200000000E+03 0.  0.
<mgrwt>
<rscale>  0 0.10305202E+04</rscale>
<asrwt>0</asrwt>
<pdfrwt beam="1">  1        2 0.48698981E+00 0.10305202E+04</pdfrwt>
<pdfrwt beam="2">  1       -2 0.11125950E-01 0.10305202E+04</pdfrwt>
<totfact> 0.80918211E+01</totfact>
</mgrwt>
</event>
<event>
 4    1  0.2892809E-005  0.4811308E+03  0.7818608E-02  0.1018825E+00
          2   -1    0    0  501    0  0.00000000000E+00  0.00000000000E+00  0.20208353157E+04  0.20208353157E+04  0.25500000000E-02 0.  1.
         -2   -1    0    0    0  501 -0.00000000000E+00 -0.00000000000E+00 -0.28637521872E+02  0.28637521986E+02  0.25500000000E-02 0. -1.
    5000001    1    1    2    0    0  0.12787944176E+03  0.66479900102E+02  0.10613970422E+04  0.10882097270E+04  0.19200000000E+03 0.  0.
   -5000001    1    1    2    0    0 -0.12787944176E+03 -0.66479900102E+02  0.93080075166E+03  0.96126311072E+03  0.19200000000E+03 0.  0.
<mgrwt>
<rscale>  0 0.48113082E+03</rscale>
<asrwt>0</asrwt>
<pdfrwt beam="1">  1        2 0.28869079E+00 0.48113082E+03</pdfrwt>
<pdfrwt beam="2">  1       -2 0.40910742E-02 0.48113082E+03</pdfrwt>
<totfact> 0.22715174E+03</totfact>
</mgrwt>
</event>
<event>
 4    1  0.2892809E-005  0.4431980E+03  0.7818608E-02  0.1029770E+00
          2   -1    0    0  501    0  0.00000000000E+00  0.00000000000E+00  0.35862528473E+04  0.35862528473E+04  0.25500000000E-02 0.  1.
         -2   -1    0    0    0  501 -0.00000000000E+00 -0.00000000000E+00 -0.13692875035E+02  0.13692875272E+02  0.25500000000E-02 0. -1.
    5000001    1    1    2    0    0 -0.59689806811E+02 -0.75131567368E+02  0.22337261867E+04  0.22440152189E+04  0.19200000000E+03 0.  0.
   -5000001    1    1    2    0    0  0.59689806811E+02  0.75131567368E+02  0.13388337856E+04  0.13559305037E+04  0.19200000000E+03 0.  0.
<mgrwt>
<rscale>  0 0.44319798E+03</rscale>
<asrwt>0</asrwt>
<pdfrwt beam="1">  1        2 0.51232241E+00 0.44319798E+03</pdfrwt>
<pdfrwt beam="2">  1       -2 0.19561228E-02 0.44319798E+03</pdfrwt>
<totfact> 0.10160814E+03</totfact>
</mgrwt>
</event>
<event>
 4    1  0.2892809E-005  0.9254265E+03  0.7818608E-02  0.9394344E-01
          2   -1    0    0  501    0  0.00000000000E+00  0.00000000000E+00  0.21554654651E+04  0.21554654651E+04  0.25500000000E-02 0.  1.
         -2   -1    0    0    0  501 -0.00000000000E+00 -0.00000000000E+00 -0.99330536112E+02  0.99330536144E+02  0.25500000000E-02 0. -1.
    5000001    1    1    2    0    0  0.28380482399E+03 -0.26198993636E+03  0.61995919932E+03  0.75524652512E+03  0.19200000000E+03 0.  0.
   -5000001    1    1    2    0    0 -0.28380482399E+03  0.26198993636E+03  0.14361757296E+04  0.14995494761E+04  0.19200000000E+03 0.  0.
<mgrwt>
<rscale>  0 0.92542648E+03</rscale>
<asrwt>0</asrwt>
<pdfrwt beam="1">  1        2 0.30792357E+00 0.92542648E+03</pdfrwt>
<pdfrwt beam="2">  1       -2 0.14190080E-01 0.92542648E+03</pdfrwt>
<totfact> 0.25924197E+02</totfact>
</mgrwt>
</event>
<event>
 4    1  0.2892809E-005  0.7455069E+03  0.7818608E-02  0.9642426E-01
         -2   -1    0    0    0  501 -0.00000000000E+00  0.00000000000E+00  0.14691480962E+03  0.14691480965E+03  0.25500000000E-02 0. -1.
          2   -1    0    0  501    0  0.00000000000E+00 -0.00000000000E+00 -0.94575306423E+03  0.94575306423E+03  0.25500000000E-02 0.  1.
    5000001    1    1    2    0    0 -0.74486752428E+02 -0.28697418278E+03 -0.57394278768E+03  0.67392639168E+03  0.19200000000E+03 0.  0.
   -5000001    1    1    2    0    0  0.74486752428E+02  0.28697418278E+03 -0.22489546692E+03  0.41874148220E+03  0.19200000000E+03 0.  0.
<mgrwt>
<rscale>  0 0.74550689E+03</rscale>
<asrwt>0</asrwt>
<pdfrwt beam="1">  1        2 0.13510758E+00 0.74550689E+03</pdfrwt>
<pdfrwt beam="2">  1       -2 0.20987830E-01 0.74550689E+03</pdfrwt>
<totfact> 0.59746799E+02</totfact>
</mgrwt>
</event>
<event>
 4    1  0.2892809E-005  0.8105500E+03  0.7818608E-02  0.9544871E-01
          2   -1    0    0  501    0  0.00000000000E+00  0.00000000000E+00  0.17624666685E+04  0.17624666685E+04  0.25500000000E-02 0.  1.
         -2   -1    0    0    0  501 -0.00000000000E+00 -0.00000000000E+00 -0.93192029379E+02  0.93192029414E+02  0.25500000000E-02 0. -1.
    5000001    1    1    2    0    0  0.41539341956E+02 -0.34725070824E+03  0.99773508989E+03  0.10745454299E+04  0.19200000000E+03 0.  0.
   -5000001    1    1    2    0    0 -0.41539341956E+02  0.34725070824E+03  0.67153954922E+03  0.78111326802E+03  0.19200000000E+03 0.  0.
<mgrwt>
<rscale>  0 0.81055005E+03</rscale>
<asrwt>0</asrwt>
<pdfrwt beam="1">  1        2 0.25178096E+00 0.81055005E+03</pdfrwt>
<pdfrwt beam="2">  1       -2 0.13313147E-01 0.81055005E+03</pdfrwt>
<totfact> 0.46085890E+02</totfact>
</mgrwt>
</event>
<event>
 4    1  0.2892809E-005  0.5414370E+03  0.7818608E-02  0.1003496E+00
          2   -1    0    0  501    0  0.00000000000E+00  0.00000000000E+00  0.25124646525E+04  0.25124646525E+04  0.25500000000E-02 0.  1.
         -2   -1    0    0    0  501 -0.00000000000E+00 -0.00000000000E+00 -0.29169963572E+02  0.29169963683E+02  0.25500000000E-02 0. -1.
    5000001    1    1    2    0    0  0.74355362603E+02  0.16843700424E+03  0.10057760493E+04  0.10403601327E+04  0.19200000000E+03 0.  0.
   -5000001    1    1    2    0    0 -0.74355362603E+02 -0.16843700424E+03  0.14775186396E+04  0.15012744835E+04  0.19200000000E+03 0.  0.
<mgrwt>
<rscale>  0 0.54143699E+03</rscale>
<asrwt>0</asrwt>
<pdfrwt beam="1">  1        2 0.35892349E+00 0.54143699E+03</pdfrwt>
<pdfrwt beam="2">  1       -2 0.41671380E-02 0.54143699E+03</pdfrwt>
<totfact> 0.12449667E+03</totfact>
</mgrwt>
</event>
<event>
 4    1  0.2892809E-005  0.6858050E+03  0.7818608E-02  0.9741820E-01
          2   -1    0    0  501    0  0.00000000000E+00  0.00000000000E+00  0.36659031865E+04  0.36659031865E+04  0.25500000000E-02 0.  1.
         -2   -1    0    0    0  501 -0.00000000000E+00 -0.00000000000E+00 -0.32074532416E+02  0.32074532517E+02  0.25500000000E-02 0. -1.
    5000001    1    1    2    0    0  0.18938392822E+03  0.25690782206E+02  0.29504486752E+04  0.29628597121E+04  0.19200000000E+03 0.  0.
   -5000001    1    1    2    0    0 -0.18938392822E+03 -0.25690782206E+02  0.68337997882E+03  0.73511800686E+03  0.19200000000E+03 0.  0.
<mgrwt>
<rscale>  0 0.68580502E+03</rscale>
<asrwt>0</asrwt>
<pdfrwt beam="1">  1        2 0.52370022E+00 0.68580502E+03</pdfrwt>
<pdfrwt beam="2">  1       -2 0.45820781E-02 0.68580502E+03</pdfrwt>
<totfact> 0.24209067E+02</totfact>
</mgrwt>
</event>
<event>
 4    1  0.2892809E-005  0.6771016E+03  0.7818608E-02  0.9757213E-01
          2   -1    0    0  501    0  0.00000000000E+00  0.00000000000E+00  0.46772281735E+03  0.46772281735E+03  0.25500000000E-02 0.  1.
         -2   -1    0    0    0  501 -0.00000000000E+00 -0.00000000000E+00 -0.24505250703E+03  0.24505250704E+03  0.25500000000E-02 0. -1.
    5000001    1    1    2    0    0 -0.27619246136E+03  0.35488342249E+02  0.96045790418E+02  0.35161127969E+03  0.19200000000E+03 0.  0.
   -5000001    1    1    2    0    0  0.27619246136E+03 -0.35488342249E+02  0.12662451990E+03  0.36116404471E+03  0.19200000000E+03 0.  0.
<mgrwt>
<rscale>  0 0.67710161E+03</rscale>
<asrwt>0</asrwt>
<pdfrwt beam="1">  1        2 0.66817546E-01 0.67710161E+03</pdfrwt>
<pdfrwt beam="2">  1       -2 0.35007501E-01 0.67710161E+03</pdfrwt>
<totfact> 0.55803224E+02</totfact>
</mgrwt>
</event>
<event>
 4    1  0.2892809E-005  0.8599261E+03  0.7818608E-02  0.9477111E-01
         -2   -1    0    0    0  501 -0.00000000000E+00  0.00000000000E+00  0.15437640698E+03  0.15437640700E+03  0.25500000000E-02 0. -1.
          2   -1    0    0  501    0  0.00000000000E+00 -0.00000000000E+00 -0.11975159354E+04  0.11975159354E+04  0.25500000000E-02 0.  1.
    5000001    1    1    2    0    0 -0.36761631256E+03  0.98507221021E+02 -0.43321279826E+03  0.60776866852E+03  0.19200000000E+03 0.  0.
   -5000001    1    1    2    0    0  0.36761631256E+03 -0.98507221021E+02 -0.60992673013E+03  0.74412367385E+03  0.19200000000E+03 0.  0.
<mgrwt>
<rscale>  0 0.85992606E+03</rscale>
<asrwt>0</asrwt>
<pdfrwt beam="1">  1        2 0.17107370E+00 0.85992606E+03</pdfrwt>
<pdfrwt beam="2">  1       -2 0.22053773E-01 0.85992606E+03</pdfrwt>
<totfact> 0.38554074E+02</totfact>
</mgrwt>
</event>
<event>
 4    1  0.2892809E-005  0.9203099E+03  0.7818608E-02  0.9400543E-01
         -2   -1    0    0    0  501 -0.00000000000E+00  0.00000000000E+00  0.80393553261E+02  0.80393553301E+02  0.25500000000E-02 0. -1.
          2   -1    0    0  501    0  0.00000000000E+00 -0.00000000000E+00 -0.26338255586E+04  0.26338255586E+04  0.25500000000E-02 0.  1.
    5000001    1    1    2    0    0 -0.40988929495E+03 -0.82879282841E+02 -0.12785477135E+04  0.13588327584E+04  0.19200000000E+03 0.  0.
   -5000001    1    1    2    0    0  0.40988929495E+03  0.82879282841E+02 -0.12748842918E+04  0.13553863534E+04  0.19200000000E+03 0.  0.
<mgrwt>
<rscale>  0 0.92030994E+03</rscale>
<asrwt>0</asrwt>
<pdfrwt beam="1">  1        2 0.37626074E+00 0.92030994E+03</pdfrwt>
<pdfrwt beam="2">  1       -2 0.11484795E-01 0.92030994E+03</pdfrwt>
<totfact> 0.20896567E+02</totfact>
</mgrwt>
</event>
<event>
 4    1  0.2892809E-005  0.4640301E+03  0.7818608E-02  0.1023619E+00
         -2   -1    0    0    0  501 -0.00000000000E+00  0.00000000000E+00  0.32511592550E+02  0.32511592650E+02  0.25500000000E-02 0. -1.
          2   -1    0    0  501    0  0.00000000000E+00 -0.00000000000E+00 -0.16557472580E+04  0.16557472580E+04  0.25500000000E-02 0.  1.
    5000001    1    1    2    0    0 -0.41946294955E+02  0.44539626906E+02 -0.39323914061E+03  0.44186456266E+03  0.19200000000E+03 0.  0.
   -5000001    1    1    2    0    0  0.41946294955E+02 -0.44539626906E+02 -0.12299965249E+04  0.12463942880E+04  0.19200000000E+03 0.  0.
<mgrwt>
<rscale>  0 0.46403009E+03</rscale>
<asrwt>0</asrwt>
<pdfrwt beam="1">  1        2 0.23653527E+00 0.46403009E+03</pdfrwt>
<pdfrwt beam="2">  1       -2 0.46445143E-02 0.46403009E+03</pdfrwt>
<totfact> 0.28495387E+03</totfact>
</mgrwt>
</event>
<event>
 4    1  0.2892809E-005  0.4928653E+03  0.7818608E-02  0.1015658E+00
          2   -1    0    0  501    0  0.00000000000E+00  0.00000000000E+00  0.28666274026E+04  0.28666274026E+04  0.25500000000E-02 0.  1.
         -2   -1    0    0    0  501 -0.00000000000E+00 -0.00000000000E+00 -0.21184846019E+02  0.21184846173E+02  0.25500000000E-02 0. -1.
    5000001    1    1    2    0    0 -0.13628159936E+03 -0.72288659930E+02  0.13748561019E+04  0.13967432210E+04  0.19200000000E+03 0.  0.
   -5000001    1    1    2    0    0  0.13628159936E+03  0.72288659930E+02  0.14705864547E+04  0.14910690277E+04  0.19200000000E+03 0.  0.
<mgrwt>
<rscale>  0 0.49286534E+03</rscale>
<asrwt>0</asrwt>
<pdfrwt beam="1">  1        2 0.40951831E+00 0.49286534E+03</pdfrwt>
<pdfrwt beam="2">  1       -2 0.30264058E-02 0.49286534E+03</pdfrwt>
<totfact> 0.13307507E+03</totfact>
</mgrwt>
</event>
<event>
 4    1  0.2892809E-005  0.7226867E+03  0.7818608E-02  0.9679203E-01
         -2   -1    0    0    0  501 -0.00000000000E+00  0.00000000000E+00  0.79301461527E+02  0.79301461568E+02  0.25500000000E-02 0. -1.
          2   -1    0    0  501    0  0.00000000000E+00 -0.00000000000E+00 -0.16464894685E+04  0.16464894685E+04  0.25500000000E-02 0.  1.
    5000001    1    1    2    0    0 -0.94149035910E+02 -0.20459146066E+03 -0.12786884594E+04  0.13124899554E+04  0.19200000000E+03 0.  0.
   -5000001    1    1    2    0    0  0.94149035910E+02  0.20459146066E+03 -0.28849954757E+03  0.41330097470E+03  0.19200000000E+03 0.  0.
<mgrwt>
<rscale>  0 0.72268671E+03</rscale>
<asrwt>0</asrwt>
<pdfrwt beam="1">  1        2 0.23521276E+00 0.72268671E+03</pdfrwt>
<pdfrwt beam="2">  1       -2 0.11328781E-01 0.72268671E+03</pdfrwt>
<totfact> 0.69395003E+02</totfact>
</mgrwt>
</event>
<event>
 4    1  0.2892809E-005  0.8544905E+03  0.7818608E-02  0.9484330E-01
         -2   -1    0    0    0  501 -0.00000000000E+00  0.00000000000E+00  0.16364426806E+03  0.16364426808E+03  0.25500000000E-02 0. -1.
          2   -1    0    0  501    0  0.00000000000E+00 -0.00000000000E+00 -0.11154592546E+04  0.11154592546E+04  0.25500000000E-02 0.  1.
    5000001    1    1    2    0    0 -0.35172491258E+03  0.90189755749E+02 -0.29986882418E+03  0.50855670076E+03  0.19200000000E+03 0.  0.
   -5000001    1    1    2    0    0  0.35172491258E+03 -0.90189755749E+02 -0.65194616235E+03  0.77054682192E+03  0.19200000000E+03 0.  0.
<mgrwt>
<rscale>  0 0.85449052E+03</rscale>
<asrwt>0</asrwt>
<pdfrwt beam="1">  1        2 0.15935132E+00 0.85449052E+03</pdfrwt>
<pdfrwt beam="2">  1       -2 0.23377753E-01 0.85449052E+03</pdfrwt>
<totfact> 0.38754159E+02</totfact>
</mgrwt>
</event>
<event>
 4    1  0.2892809E-005  0.6333361E+03  0.7818608E-02  0.9838560E-01
         -2   -1    0    0    0  501 -0.00000000000E+00  0.00000000000E+00  0.18121776452E+03  0.18121776453E+03  0.25500000000E-02 0. -1.
          2   -1    0    0  501    0  0.00000000000E+00 -0.00000000000E+00 -0.55336001236E+03  0.55336001237E+03  0.25500000000E-02 0.  1.
    5000001    1    1    2    0    0 -0.23785847945E+03  0.78695249291E+02 -0.21552928046E+03  0.38221259692E+03  0.19200000000E+03 0.  0.
   -5000001    1    1    2    0    0  0.23785847945E+03 -0.78695249291E+02 -0.15661296739E+03  0.35236517998E+03  0.19200000000E+03 0.  0.
<mgrwt>
<rscale>  0 0.63333613E+03</rscale>
<asrwt>0</asrwt>
<pdfrwt beam="1">  1        2 0.79051429E-01 0.63333613E+03</pdfrwt>
<pdfrwt beam="2">  1       -2 0.25888252E-01 0.63333613E+03</pdfrwt>
<totfact> 0.80567583E+02</totfact>
</mgrwt>
</event>
<event>
 4    1  0.2892809E-005  0.7650038E+03  0.7818608E-02  0.9612101E-01
         -2   -1    0    0    0  501 -0.00000000000E+00  0.00000000000E+00  0.25320815685E+04  0.25320815685E+04  0.25500000000E-02 0. -1.
          2   -1    0    0  501    0  0.00000000000E+00 -0.00000000000E+00 -0.57781586066E+02  0.57781586122E+02  0.25500000000E-02 0.  1.
    5000001    1    1    2    0    0  0.18541298800E+03 -0.21894460935E+03  0.67954082131E+03  0.76220367744E+03  0.19200000000E+03 0.  0.
   -5000001    1    1    2    0    0 -0.18541298800E+03  0.21894460935E+03  0.17947591611E+04  0.18276594772E+04  0.19200000000E+03 0.  0.
<mgrwt>
<rscale>  0 0.76500376E+03</rscale>
<asrwt>0</asrwt>
<pdfrwt beam="1">  1        2 0.82545117E-02 0.76500376E+03</pdfrwt>
<pdfrwt beam="2">  1       -2 0.36172597E+00 0.76500376E+03</pdfrwt>
<totfact> 0.11778294E+01</totfact>
</mgrwt>
</event>
<event>
 4    1  0.2892809E-005  0.5079270E+03  0.7818608E-02  0.1011730E+00
         -2   -1    0    0    0  501 -0.00000000000E+00  0.00000000000E+00  0.24603810178E+02  0.24603810310E+02  0.25500000000E-02 0. -1.
          2   -1    0    0  501    0  0.00000000000E+00 -0.00000000000E+00 -0.26214416478E+04  0.26214416478E+04  0.25500000000E-02 0.  1.
    5000001    1    1    2    0    0  0.35908174192E+02  0.15270001533E+03 -0.15850248038E+04  0.16042987004E+04  0.19200000000E+03 0.  0.
   -5000001    1    1    2    0    0 -0.35908174192E+02 -0.15270001533E+03 -0.10118130339E+04  0.10417467577E+04  0.19200000000E+03 0.  0.
<mgrwt>
<rscale>  0 0.50792697E+03</rscale>
<asrwt>0</asrwt>
<pdfrwt beam="1">  1        2 0.37449149E+00 0.50792697E+03</pdfrwt>
<pdfrwt beam="2">  1       -2 0.35148317E-02 0.50792697E+03</pdfrwt>
<totfact> 0.14229887E+03</totfact>
</mgrwt>
</event>
<event>
 4    1  0.2892809E-005  0.7995720E+03  0.7818608E-02  0.9560637E-01
         -2   -1    0    0    0  501 -0.00000000000E+00  0.00000000000E+00  0.17919624190E+03  0.17919624192E+03  0.25500000000E-02 0. -1.
          2   -1    0    0  501    0  0.00000000000E+00 -0.00000000000E+00 -0.89192071141E+03  0.89192071142E+03  0.25500000000E-02 0.  1.
    5000001    1    1    2    0    0 -0.21770063861E+03 -0.17864444493E+03 -0.76458671887E+02  0.34930979697E+03  0.19200000000E+03 0.  0.
   -5000001    1    1    2    0    0  0.21770063861E+03  0.17864444493E+03 -0.63626579762E+03  0.72180715636E+03  0.19200000000E+03 0.  0.
<mgrwt>
<rscale>  0 0.79957198E+03</rscale>
<asrwt>0</asrwt>
<pdfrwt beam="1">  1        2 0.12741724E+00 0.79957198E+03</pdfrwt>
<pdfrwt beam="2">  1       -2 0.25599464E-01 0.79957198E+03</pdfrwt>
<totfact> 0.45304849E+02</totfact>
</mgrwt>
</event>
<event>
 4    1  0.2892809E-005  0.6617695E+03  0.7818608E-02  0.9784942E-01
         -2   -1    0    0    0  501 -0.00000000000E+00  0.00000000000E+00  0.65801425047E+02  0.65801425096E+02  0.25500000000E-02 0. -1.
          2   -1    0    0  501    0  0.00000000000E+00 -0.00000000000E+00 -0.16638655159E+04  0.16638655159E+04  0.25500000000E-02 0.  1.
    5000001    1    1    2    0    0  0.19064851201E+03 -0.18976898991E+03 -0.84130595885E+03  0.90389094534E+03  0.19200000000E+03 0.  0.
   -5000001    1    1    2    0    0 -0.19064851201E+03  0.18976898991E+03 -0.75675813203E+03  0.82577599569E+03  0.19200000000E+03 0.  0.
<mgrwt>
<rscale>  0 0.66176951E+03</rscale>
<asrwt>0</asrwt>
<pdfrwt beam="1">  1        2 0.23769505E+00 0.66176951E+03</pdfrwt>
<pdfrwt beam="2">  1       -2 0.94002047E-02 0.66176951E+03</pdfrwt>
<totfact> 0.92428937E+02</totfact>
</mgrwt>
</event>
<event>
 4    1  0.2892809E-005  0.5017303E+03  0.7818608E-02  0.1013328E+00
         -2   -1    0    0    0  501 -0.00000000000E+00  0.00000000000E+00  0.14593008827E+03  0.14593008829E+03  0.25500000000E-02 0. -1.
          2   -1    0    0  501    0  0.00000000000E+00 -0.00000000000E+00 -0.43125674125E+03  0.43125674126E+03  0.25500000000E-02 0.  1.
    5000001    1    1    2    0    0  0.10853079190E+03  0.11907157889E+03 -0.13046913132E+03  0.28256533389E+03  0.19200000000E+03 0.  0.
   -5000001    1    1    2    0    0 -0.10853079190E+03 -0.11907157889E+03 -0.15485752166E+03  0.29462149566E+03  0.19200000000E+03 0.  0.
<mgrwt>
<rscale>  0 0.50173034E+03</rscale>
<asrwt>0</asrwt>
<pdfrwt beam="1">  1        2 0.61608105E-01 0.50173034E+03</pdfrwt>
<pdfrwt beam="2">  1       -2 0.20847156E-01 0.50173034E+03</pdfrwt>
<totfact> 0.15709680E+03</totfact>
</mgrwt>
</event>
<event>
 4    1  0.2892809E-005  0.6845906E+03  0.7818608E-02  0.9743953E-01
         -2   -1    0    0    0  501 -0.00000000000E+00  0.00000000000E+00  0.95188503626E+02  0.95188503660E+02  0.25500000000E-02 0. -1.
          2   -1    0    0  501    0  0.00000000000E+00 -0.00000000000E+00 -0.12308847348E+04  0.12308847348E+04  0.25500000000E-02 0.  1.
    5000001    1    1    2    0    0 -0.88350618857E+02  0.24495265662E+03 -0.78436659778E+03  0.84847073936E+03  0.19200000000E+03 0.  0.
   -5000001    1    1    2    0    0  0.88350618857E+02 -0.24495265662E+03 -0.35132963335E+03  0.47760249906E+03  0.19200000000E+03 0.  0.
<mgrwt>
<rscale>  0 0.68459061E+03</rscale>
<asrwt>0</asrwt>
<pdfrwt beam="1">  1        2 0.17584067E+00 0.68459061E+03</pdfrwt>
<pdfrwt beam="2">  1       -2 0.13598358E-01 0.68459061E+03</pdfrwt>
<totfact> 0.85453880E+02</totfact>
</mgrwt>
</event>
<event>
 4    1  0.2892809E-005  0.6864487E+03  0.7818608E-02  0.9740691E-01
          2   -1    0    0  501    0  0.00000000000E+00  0.00000000000E+00  0.87843277042E+03  0.87843277043E+03  0.25500000000E-02 0.  1.
         -2   -1    0    0    0  501 -0.00000000000E+00 -0.00000000000E+00 -0.13410583680E+03  0.13410583682E+03  0.25500000000E-02 0. -1.
    5000001    1    1    2    0    0 -0.26359424610E+03 -0.74094313213E+02  0.25822142902E+03  0.42250940845E+03  0.19200000000E+03 0.  0.
   -5000001    1    1    2    0    0  0.26359424610E+03  0.74094313213E+02  0.48610550461E+03  0.59002919880E+03  0.19200000000E+03 0.  0.
<mgrwt>
<rscale>  0 0.68644872E+03</rscale>
<asrwt>0</asrwt>
<pdfrwt beam="1">  1        2 0.12549039E+00 0.68644872E+03</pdfrwt>
<pdfrwt beam="2">  1       -2 0.19157977E-01 0.68644872E+03</pdfrwt>
<totfact> 0.77586695E+02</totfact>
</mgrwt>
</event>
<event>
 4    1  0.2892809E-005  0.5199346E+03  0.7818608E-02  0.1008703E+00
         -2   -1    0    0    0  501 -0.00000000000E+00  0.00000000000E+00  0.46182169418E+02  0.46182169489E+02  0.25500000000E-02 0. -1.
          2   -1    0    0  501    0  0.00000000000E+00 -0.00000000000E+00 -0.14634002358E+04  0.14634002358E+04  0.25500000000E-02 0.  1.
    5000001    1    1    2    0    0  0.17121422231E+03  0.14910742303E+01 -0.81734019645E+03  0.85686961082E+03  0.19200000000E+03 0.  0.
   -5000001    1    1    2    0    0 -0.17121422231E+03 -0.14910742303E+01 -0.59987786991E+03  0.65271279444E+03  0.19200000000E+03 0.  0.
<mgrwt>
<rscale>  0 0.51993460E+03</rscale>
<asrwt>0</asrwt>
<pdfrwt beam="1">  1        2 0.20905715E+00 0.51993460E+03</pdfrwt>
<pdfrwt beam="2">  1       -2 0.65974537E-02 0.51993460E+03</pdfrwt>
<totfact> 0.20717356E+03</totfact>
</mgrwt>
</event>
<event>
 4    1  0.2892809E-005  0.7427480E+03  0.7818608E-02  0.9646797E-01
         -2   -1    0    0    0  501 -0.00000000000E+00  0.00000000000E+00  0.21566078279E+03  0.21566078281E+03  0.25500000000E-02 0. -1.
          2   -1    0    0  501    0  0.00000000000E+00 -0.00000000000E+00 -0.63951653413E+03  0.63951653413E+03  0.25500000000E-02 0.  1.
    5000001    1    1    2    0    0  0.59202354901E+02 -0.74586824191E+01 -0.57143196532E+03  0.60577144350E+03  0.19200000000E+03 0.  0.
   -5000001    1    1    2    0    0 -0.59202354901E+02  0.74586824191E+01  0.14757621399E+03  0.24940587344E+03  0.19200000000E+03 0.  0.
<mgrwt>
<rscale>  0 0.74274797E+03</rscale>
<asrwt>0</asrwt>
<pdfrwt beam="1">  1        2 0.91359504E-01 0.74274797E+03</pdfrwt>
<pdfrwt beam="2">  1       -2 0.30808684E-01 0.74274797E+03</pdfrwt>
<totfact> 0.49233248E+02</totfact>
</mgrwt>
</event>
<event>
 4    1  0.2892809E-005  0.6437549E+03  0.7818608E-02  0.9818569E-01
          2   -1    0    0  501    0  0.00000000000E+00  0.00000000000E+00  0.43734083322E+03  0.43734083323E+03  0.25500000000E-02 0.  1.
         -2   -1    0    0    0  501 -0.00000000000E+00 -0.00000000000E+00 -0.23689781632E+03  0.23689781634E+03  0.25500000000E-02 0. -1.
    5000001    1    1    2    0    0 -0.19228271914E+03 -0.14649172555E+03  0.19568944125E+03  0.36550078954E+03  0.19200000000E+03 0.  0.
   -5000001    1    1    2    0    0  0.19228271914E+03  0.14649172555E+03  0.47535756472E+01  0.30873786003E+03  0.19200000000E+03 0.  0.
<mgrwt>
<rscale>  0 0.64375489E+03</rscale>
<asrwt>0</asrwt>
<pdfrwt beam="1">  1        2 0.62477262E-01 0.64375489E+03</pdfrwt>
<pdfrwt beam="2">  1       -2 0.33842545E-01 0.64375489E+03</pdfrwt>
<totfact> 0.64216464E+02</totfact>
</mgrwt>
</event>
<event>
 4    1  0.2892809E-005  0.4923672E+03  0.7818608E-02  0.1015791E+00
         -2   -1    0    0    0  501 -0.00000000000E+00  0.00000000000E+00  0.76163458408E+02  0.76163458451E+02  0.25500000000E-02 0. -1.
          2   -1    0    0  501    0  0.00000000000E+00 -0.00000000000E+00 -0.79574066286E+03  0.79574066286E+03  0.25500000000E-02 0.  1.
    5000001    1    1    2    0    0  0.14411658519E+02  0.88706939260E+02 -0.58143217525E+03  0.61887316260E+03  0.19200000000E+03 0.  0.
   -5000001    1    1    2    0    0 -0.14411658519E+02 -0.88706939260E+02 -0.13814502920E+03  0.25303095871E+03  0.19200000000E+03 0.  0.
<mgrwt>
<rscale>  0 0.49236718E+03</rscale>
<asrwt>0</asrwt>
<pdfrwt beam="1">  1        2 0.11367723E+00 0.49236718E+03</pdfrwt>
<pdfrwt beam="2">  1       -2 0.10880495E-01 0.49236718E+03</pdfrwt>
<totfact> 0.22842964E+03</totfact>
</mgrwt>
</event>
<event>
 4    1  0.2892809E-005  0.5931933E+03  0.7818608E-02  0.9919629E-01
          2   -1    0    0  501    0  0.00000000000E+00  0.00000000000E+00  0.51868481039E+03  0.51868481040E+03  0.25500000000E-02 0.  1.
         -2   -1    0    0    0  501 -0.00000000000E+00 -0.00000000000E+00 -0.16960122622E+03  0.16960122624E+03  0.25500000000E-02 0. -1.
    5000001    1    1    2    0    0 -0.74778293425E+02 -0.16070119185E+03  0.33735273126E+03  0.42671715634E+03  0.19200000000E+03 0.  0.
   -5000001    1    1    2    0    0  0.74778293425E+02  0.16070119185E+03  0.11730852919E+02  0.26156888030E+03  0.19200000000E+03 0.  0.
<mgrwt>
<rscale>  0 0.59319332E+03</rscale>
<asrwt>0</asrwt>
<pdfrwt beam="1">  1        2 0.74097830E-01 0.59319332E+03</pdfrwt>
<pdfrwt beam="2">  1       -2 0.24228747E-01 0.59319332E+03</pdfrwt>
<totfact> 0.97833718E+02</totfact>
</mgrwt>
</event>
<event>
 4    1  0.2892809E-005  0.4529865E+03  0.7818608E-02  0.1026835E+00
          2   -1    0    0  501    0  0.00000000000E+00  0.00000000000E+00  0.19106328894E+03  0.19106328895E+03  0.25500000000E-02 0.  1.
         -2   -1    0    0    0  501 -0.00000000000E+00 -0.00000000000E+00 -0.26849325008E+03  0.26849325009E+03  0.25500000000E-02 0. -1.
    5000001    1    1    2    0    0 -0.10264466813E+03  0.49509307200E+02 -0.10909451484E+00  0.22327362428E+03  0.19200000000E+03 0.  0.
   -5000001    1    1    2    0    0  0.10264466813E+03 -0.49509307200E+02 -0.77320866630E+02  0.23628291477E+03  0.19200000000E+03 0.  0.
<mgrwt>
<rscale>  0 0.45298655E+03</rscale>
<asrwt>0</asrwt>
<pdfrwt beam="1">  1        2 0.27294756E-01 0.45298655E+03</pdfrwt>
<pdfrwt beam="2">  1       -2 0.38356179E-01 0.45298655E+03</pdfrwt>
<totfact> 0.12690184E+03</totfact>
</mgrwt>
</event>
<event>
 4    1  0.2892809E-005  0.5824654E+03  0.7818608E-02  0.9942468E-01
         -2   -1    0    0    0  501 -0.00000000000E+00  0.00000000000E+00  0.31207172565E+03  0.31207172566E+03  0.25500000000E-02 0. -1.
          2   -1    0    0  501    0  0.00000000000E+00 -0.00000000000E+00 -0.27178518720E+03  0.27178518721E+03  0.25500000000E-02 0.  1.
    5000001    1    1    2    0    0 -0.18365213257E+03  0.50902135670E+02  0.12825890913E+03  0.29938851178E+03  0.19200000000E+03 0.  0.
   -5000001    1    1    2    0    0  0.18365213257E+03 -0.50902135670E+02 -0.87972370683E+02  0.28446840109E+03  0.19200000000E+03 0.  0.
<mgrwt>
<rscale>  0 0.58246535E+03</rscale>
<asrwt>0</asrwt>
<pdfrwt beam="1">  1        2 0.38826455E-01 0.58246535E+03</pdfrwt>
<pdfrwt beam="2">  1       -2 0.44581675E-01 0.58246535E+03</pdfrwt>
<totfact> 0.63938318E+02</totfact>
</mgrwt>
</event>
<event>
 4    1  0.2892809E-005  0.4851100E+03  0.7818608E-02  0.1017740E+00
         -2   -1    0    0    0  501 -0.00000000000E+00  0.00000000000E+00  0.34715143094E+02  0.34715143187E+02  0.25500000000E-02 0. -1.
          2   -1    0    0  501    0  0.00000000000E+00 -0.00000000000E+00 -0.16947335315E+04  0.16947335315E+04  0.25500000000E-02 0.  1.
    5000001    1    1    2    0    0  0.12501516802E+03 -0.41226214321E+02 -0.58715197971E+03  0.63161684609E+03  0.19200000000E+03 0.  0.
   -5000001    1    1    2    0    0 -0.12501516802E+03  0.41226214321E+02 -0.10728664087E+04  0.10978318286E+04  0.19200000000E+03 0.  0.
<mgrwt>
<rscale>  0 0.48510996E+03</rscale>
<asrwt>0</asrwt>
<pdfrwt beam="1">  1        2 0.24210474E+00 0.48510996E+03</pdfrwt>
<pdfrwt beam="2">  1       -2 0.49593072E-02 0.48510996E+03</pdfrwt>
<totfact> 0.24604484E+03</totfact>
</mgrwt>
</event>
<event>
 4    1  0.2892809E-005  0.4342517E+03  0.7818608E-02  0.1032525E+00
         -2   -1    0    0    0  501 -0.00000000000E+00  0.00000000000E+00  0.12708483952E+04  0.12708483952E+04  0.25500000000E-02 0. -1.
          2   -1    0    0  501    0  0.00000000000E+00 -0.00000000000E+00 -0.37096195689E+02  0.37096195777E+02  0.25500000000E-02 0.  1.
    5000001    1    1    2    0    0 -0.68273326221E+02  0.66737782929E+02  0.71965653812E+03  0.75092257364E+03  0.19200000000E+03 0.  0.
   -5000001    1    1    2    0    0  0.68273326221E+02 -0.66737782929E+02  0.51409566143E+03  0.55702201738E+03  0.19200000000E+03 0.  0.
<mgrwt>
<rscale>  0 0.43425173E+03</rscale>
<asrwt>0</asrwt>
<pdfrwt beam="1">  1        2 0.52994568E-02 0.43425173E+03</pdfrwt>
<pdfrwt beam="2">  1       -2 0.18154976E+00 0.43425173E+03</pdfrwt>
<totfact> 0.27664775E+02</totfact>
</mgrwt>
</event>
<event>
 4    1  0.2892809E-005  0.4950592E+03  0.7818608E-02  0.1015077E+00
          2   -1    0    0  501    0  0.00000000000E+00  0.00000000000E+00  0.97779071064E+03  0.97779071064E+03  0.25500000000E-02 0.  1.
         -2   -1    0    0    0  501 -0.00000000000E+00 -0.00000000000E+00 -0.62662604461E+02  0.62662604513E+02  0.25500000000E-02 0. -1.
    5000001    1    1    2    0    0 -0.94416675315E+01  0.15389616681E+03  0.51047189813E+03  0.56676162011E+03  0.19200000000E+03 0.  0.
   -5000001    1    1    2    0    0  0.94416675315E+01 -0.15389616681E+03  0.40465620804E+03  0.47369169505E+03  0.19200000000E+03 0.  0.
<mgrwt>
<rscale>  0 0.49505924E+03</rscale>
<asrwt>0</asrwt>
<pdfrwt beam="1">  1        2 0.13968438E+00 0.49505924E+03</pdfrwt>
<pdfrwt beam="2">  1       -2 0.89518010E-02 0.49505924E+03</pdfrwt>
<totfact> 0.23843507E+03</totfact>
</mgrwt>
</event>
<event>
 4    1  0.2892809E-005  0.6961988E+03  0.7818608E-02  0.9723755E-01
         -2   -1    0    0    0  501 -0.00000000000E+00  0.00000000000E+00  0.31503845870E+03  0.31503845871E+03  0.25500000000E-02 0. -1.
          2   -1    0    0  501    0  0.00000000000E+00 -0.00000000000E+00 -0.38462983839E+03  0.38462983840E+03  0.25500000000E-02 0.  1.
    5000001    1    1    2    0    0  0.25016459040E+03 -0.13617695663E+03 -0.91492309317E+02  0.35547338645E+03  0.19200000000E+03 0.  0.
   -5000001    1    1    2    0    0 -0.25016459040E+03  0.13617695663E+03  0.21900929630E+02  0.34419491066E+03  0.19200000000E+03 0.  0.
<mgrwt>
<rscale>  0 0.69619880E+03</rscale>
<asrwt>0</asrwt>
<pdfrwt beam="1">  1        2 0.54947120E-01 0.69619880E+03</pdfrwt>
<pdfrwt beam="2">  1       -2 0.45005494E-01 0.69619880E+03</pdfrwt>
<totfact> 0.42627213E+02</totfact>
</mgrwt>
</event>
<event>
 4    1  0.2892809E-005  0.4897071E+03  0.7818608E-02  0.1016501E+00
         -2   -1    0    0    0  501 -0.00000000000E+00  0.00000000000E+00  0.98944463482E+02  0.98944463515E+02  0.25500000000E-02 0. -1.
          2   -1    0    0  501    0  0.00000000000E+00 -0.00000000000E+00 -0.60592836859E+03  0.60592836859E+03  0.25500000000E-02 0.  1.
    5000001    1    1    2    0    0 -0.28269207562E+02  0.14356848769E+03 -0.19452671381E+03  0.31002532339E+03  0.19200000000E+03 0.  0.
   -5000001    1    1    2    0    0  0.28269207562E+02 -0.14356848769E+03 -0.31245719129E+03  0.39484750872E+03  0.19200000000E+03 0.  0.
<mgrwt>
<rscale>  0 0.48970709E+03</rscale>
<asrwt>0</asrwt>
<pdfrwt beam="1">  1        2 0.86561194E-01 0.48970709E+03</pdfrwt>
<pdfrwt beam="2">  1       -2 0.14134924E-01 0.48970709E+03</pdfrwt>
<totfact> 0.20681576E+03</totfact>
</mgrwt>
</event>
<event>
 4    1  0.2892809E-005  0.4531560E+03  0.7818608E-02  0.1026785E+00
          2   -1    0    0  501    0  0.00000000000E+00  0.00000000000E+00  0.78842883691E+03  0.78842883692E+03  0.25500000000E-02 0.  1.
         -2   -1    0    0    0  501 -0.00000000000E+00 -0.00000000000E+00 -0.65113796655E+02  0.65113796705E+02  0.25500000000E-02 0. -1.
    5000001    1    1    2    0    0  0.74905845035E+02  0.92115628510E+02  0.39824985485E+03  0.45778064782E+03  0.19200000000E+03 0.  0.
   -5000001    1    1    2    0    0 -0.74905845035E+02 -0.92115628510E+02  0.32506518541E+03  0.39576198580E+03  0.19200000000E+03 0.  0.
<mgrwt>
<rscale>  0 0.45315602E+03</rscale>
<asrwt>0</asrwt>
<pdfrwt beam="1">  1        2 0.11263270E+00 0.45315602E+03</pdfrwt>
<pdfrwt beam="2">  1       -2 0.93019705E-02 0.45315602E+03</pdfrwt>
<totfact> 0.29743440E+03</totfact>
</mgrwt>
</event>
<event>
 4    1  0.2892809E-005  0.5124281E+03  0.7818608E-02  0.1010585E+00
          2   -1    0    0  501    0  0.00000000000E+00  0.00000000000E+00  0.13146733924E+03  0.13146733926E+03  0.25500000000E-02 0.  1.
         -2   -1    0    0    0  501 -0.00000000000E+00 -0.00000000000E+00 -0.49933037633E+03  0.49933037633E+03  0.25500000000E-02 0. -1.
    5000001    1    1    2    0    0 -0.92387166632E+02 -0.13489659513E+03 -0.12820720820E+03  0.28290204695E+03  0.19200000000E+03 0.  0.
   -5000001    1    1    2    0    0  0.92387166632E+02  0.13489659513E+03 -0.23965582889E+03  0.34789566864E+03  0.19200000000E+03 0.  0.
<mgrwt>
<rscale>  0 0.51242809E+03</rscale>
<asrwt>0</asrwt>
<pdfrwt beam="1">  1        2 0.18781049E-01 0.51242809E+03</pdfrwt>
<pdfrwt beam="2">  1       -2 0.71332910E-01 0.51242809E+03</pdfrwt>
<totfact> 0.55025152E+02</totfact>
</mgrwt>
</event>
<event>
 4    1  0.2892809E-005  0.4628097E+03  0.7818608E-02  0.1023969E+00
         -2   -1    0    0    0  501 -0.00000000000E+00  0.00000000000E+00  0.19382335169E+02  0.19382335337E+02  0.25500000000E-02 0. -1.
          2   -1    0    0  501    0  0.00000000000E+00 -0.00000000000E+00 -0.27627329214E+04  0.27627329214E+04  0.25500000000E-02 0.  1.
    5000001    1    1    2    0    0 -0.20067449305E+02 -0.12516022842E+03 -0.12224251883E+04  0.12438871035E+04  0.19200000000E+03 0.  0.
   -5000001    1    1    2    0    0  0.20067449305E+02  0.12516022842E+03 -0.15209253980E+04  0.15382281533E+04  0.19200000000E+03 0.  0.
<mgrwt>
<rscale>  0 0.46280975E+03</rscale>
<asrwt>0</asrwt>
<pdfrwt beam="1">  1        2 0.39467588E+00 0.46280975E+03</pdfrwt>
<pdfrwt beam="2">  1       -2 0.27689068E-02 0.46280975E+03</pdfrwt>
<totfact> 0.17306167E+03</totfact>
</mgrwt>
</event>
<event>
 4    1  0.2892809E-005  0.1157817E+04  0.7818608E-02  0.9150602E-01
         -2   -1    0    0    0  501 -0.00000000000E+00  0.00000000000E+00  0.16596774258E+03  0.16596774260E+03  0.25500000000E-02 0. -1.
          2   -1    0    0  501    0  0.00000000000E+00 -0.00000000000E+00 -0.20192787026E+04  0.20192787026E+04  0.25500000000E-02 0.  1.
    5000001    1    1    2    0    0 -0.54328990440E+03 -0.33761367443E+02 -0.84294027756E+03  0.10216242272E+04  0.19200000000E+03 0.  0.
   -5000001    1    1    2    0    0  0.54328990440E+03  0.33761367443E+02 -0.10103706825E+04  0.11636222180E+04  0.19200000000E+03 0.  0.
<mgrwt>
<rscale>  0 0.11578171E+04</rscale>
<asrwt>0</asrwt>
<pdfrwt beam="1">  1        2 0.28846837E+00 0.11578171E+04</pdfrwt>
<pdfrwt beam="2">  1       -2 0.23709679E-01 0.11578171E+04</pdfrwt>
<totfact> 0.12258121E+02</totfact>
</mgrwt>
</event>
<event>
 4    1  0.2892809E-005  0.7100717E+03  0.7818608E-02  0.9700162E-01
          2   -1    0    0  501    0  0.00000000000E+00  0.00000000000E+00  0.25368634367E+04  0.25368634367E+04  0.25500000000E-02 0.  1.
         -2   -1    0    0    0  501 -0.00000000000E+00 -0.00000000000E+00 -0.49687519141E+02  0.49687519207E+02  0.25500000000E-02 0. -1.
    5000001    1    1    2    0    0 -0.10857965107E+03 -0.16189763534E+03  0.41945987001E+03  0.50081031090E+03  0.19200000000E+03 0.  0.
   -5000001    1    1    2    0    0  0.10857965107E+03  0.16189763534E+03  0.20677160475E+04  0.20857406450E+04  0.19200000000E+03 0.  0.
<mgrwt>
<rscale>  0 0.71007169E+03</rscale>
<asrwt>0</asrwt>
<pdfrwt beam="1">  1        2 0.36240923E+00 0.71007169E+03</pdfrwt>
<pdfrwt beam="2">  1       -2 0.70982138E-02 0.71007169E+03</pdfrwt>
<totfact> 0.52028820E+02</totfact>
</mgrwt>
</event>
<event>
 4    1  0.2892809E-005  0.5294325E+03  0.7818608E-02  0.1006370E+00
          2   -1    0    0  501    0  0.00000000000E+00  0.00000000000E+00  0.55268191422E+02  0.55268191481E+02  0.25500000000E-02 0.  1.
         -2   -1    0    0    0  501 -0.00000000000E+00 -0.00000000000E+00 -0.12679027806E+04  0.12679027806E+04  0.25500000000E-02 0. -1.
    5000001    1    1    2    0    0 -0.63109548597E+02  0.15008324800E+03 -0.40170268302E+03  0.47406417498E+03  0.19200000000E+03 0.  0.
   -5000001    1    1    2    0    0  0.63109548597E+02 -0.15008324800E+03 -0.81093190612E+03  0.84910679706E+03  0.19200000000E+03 0.  0.
<mgrwt>
<rscale>  0 0.52943250E+03</rscale>
<asrwt>0</asrwt>
<pdfrwt beam="1">  1        2 0.78954567E-02 0.52943250E+03</pdfrwt>
<pdfrwt beam="2">  1       -2 0.18112895E+00 0.52943250E+03</pdfrwt>
<totfact> 0.16424562E+02</totfact>
</mgrwt>
</event>
<event>
 4    1  0.2892809E-005  0.5693876E+03  0.7818608E-02  0.9971035E-01
          2   -1    0    0  501    0  0.00000000000E+00  0.00000000000E+00  0.16744514210E+03  0.16744514212E+03  0.25500000000E-02 0.  1.
         -2   -1    0    0    0  501 -0.00000000000E+00 -0.00000000000E+00 -0.48404244477E+03  0.48404244478E+03  0.25500000000E-02 0. -1.
    5000001    1    1    2    0    0  0.19605784622E+03 -0.75569919163E+02 -0.16526452402E+03  0.32912893316E+03  0.19200000000E+03 0.  0.
   -5000001    1    1    2    0    0 -0.19605784622E+03  0.75569919163E+02 -0.15133277865E+03  0.32235865374E+03  0.19200000000E+03 0.  0.
<mgrwt>
<rscale>  0 0.56938759E+03</rscale>
<asrwt>0</asrwt>
<pdfrwt beam="1">  1        2 0.23920735E-01 0.56938759E+03</pdfrwt>
<pdfrwt beam="2">  1       -2 0.69148920E-01 0.56938759E+03</pdfrwt>
<totfact> 0.44427512E+02</totfact>
</mgrwt>
</event>
<event>
 4    1  0.2892809E-005  0.8437708E+03  0.7818608E-02  0.9498736E-01
          2   -1    0    0  501    0  0.00000000000E+00  0.00000000000E+00  0.78670481466E+03  0.78670481466E+03  0.25500000000E-02 0.  1.
         -2   -1    0    0    0  501 -0.00000000000E+00 -0.00000000000E+00 -0.22624407427E+03  0.22624407428E+03  0.25500000000E-02 0. -1.
    5000001    1    1    2    0    0 -0.36496186526E+03  0.79460344832E+02  0.23202765016E+03  0.47980406410E+03  0.19200000000E+03 0.  0.
   -5000001    1    1    2    0    0  0.36496186526E+03 -0.79460344832E+02  0.32843309023E+03  0.53314482484E+03  0.19200000000E+03 0.  0.
<mgrwt>
<rscale>  0 0.84377083E+03</rscale>
<asrwt>0</asrwt>
<pdfrwt beam="1">  1        2 0.11238640E+00 0.84377083E+03</pdfrwt>
<pdfrwt beam="2">  1       -2 0.32320582E-01 0.84377083E+03</pdfrwt>
<totfact> 0.34690455E+02</totfact>
</mgrwt>
</event>
<event>
 4    1  0.2892809E-005  0.6941700E+03  0.7818608E-02  0.9727255E-01
          2   -1    0    0  501    0  0.00000000000E+00  0.00000000000E+00  0.16804260611E+04  0.16804260611E+04  0.25500000000E-02 0.  1.
         -2   -1    0    0    0  501 -0.00000000000E+00 -0.00000000000E+00 -0.71688958181E+02  0.71688958227E+02  0.25500000000E-02 0. -1.
    5000001    1    1    2    0    0  0.24649758377E+03  0.20600029917E+02  0.11822893266E+04  0.12230525221E+04  0.19200000000E+03 0.  0.
   -5000001    1    1    2    0    0 -0.24649758377E+03 -0.20600029917E+02  0.42644777628E+03  0.52906249719E+03  0.19200000000E+03 0.  0.
<mgrwt>
<rscale>  0 0.69416999E+03</rscale>
<asrwt>0</asrwt>
<pdfrwt beam="1">  1        2 0.24006089E+00 0.69416999E+03</pdfrwt>
<pdfrwt beam="2">  1       -2 0.10241279E-01 0.69416999E+03</pdfrwt>
<totfact> 0.78750204E+02</totfact>
</mgrwt>
</event>
<event>
 4    1  0.2892809E-005  0.5177423E+03  0.7818608E-02  0.1009249E+00
         -2   -1    0    0    0  501 -0.00000000000E+00  0.00000000000E+00  0.86095210015E+02  0.86095210053E+02  0.25500000000E-02 0. -1.
          2   -1    0    0  501    0  0.00000000000E+00 -0.00000000000E+00 -0.77837409869E+03  0.77837409870E+03  0.25500000000E-02 0.  1.
    5000001    1    1    2    0    0 -0.15626259443E+02 -0.14741328818E+03 -0.49710957933E+03  0.55313361078E+03  0.19200000000E+03 0.  0.
   -5000001    1    1    2    0    0  0.15626259443E+02  0.14741328818E+03 -0.19516930935E+03  0.31133569797E+03  0.19200000000E+03 0.  0.
<mgrwt>
<rscale>  0 0.51774234E+03</rscale>
<asrwt>0</asrwt>
<pdfrwt beam="1">  1        2 0.11119630E+00 0.51774234E+03</pdfrwt>
<pdfrwt beam="2">  1       -2 0.12299316E-01 0.51774234E+03</pdfrwt>
<totfact> 0.19224767E+03</totfact>
</mgrwt>
</event>
<event>
 4    1  0.2892809E-005  0.7669545E+03  0.7818608E-02  0.9609121E-01
         -2   -1    0    0    0  501 -0.00000000000E+00  0.00000000000E+00  0.34765204547E+03  0.34765204548E+03  0.25500000000E-02 0. -1.
          2   -1    0    0  501    0  0.00000000000E+00 -0.00000000000E+00 -0.42299421603E+03  0.42299421603E+03  0.25500000000E-02 0.  1.
    5000001    1    1    2    0    0  0.21380952091E+03  0.25162815443E+03 -0.71887384702E+02  0.38866828455E+03  0.19200000000E+03 0.  0.
   -5000001    1    1    2    0    0 -0.21380952091E+03 -0.25162815443E+03 -0.34547858578E+01  0.38197797696E+03  0.19200000000E+03 0.  0.
<mgrwt>
<rscale>  0 0.76695451E+03</rscale>
<asrwt>0</asrwt>
<pdfrwt beam="1">  1        2 0.60427744E-01 0.76695451E+03</pdfrwt>
<pdfrwt beam="2">  1       -2 0.49664579E-01 0.76695451E+03</pdfrwt>
<totfact> 0.31377309E+02</totfact>
</mgrwt>
</event>
<event>
 4    1  0.2892809E-005  0.7401631E+03  0.7818608E-02  0.9650910E-01
          2   -1    0    0  501    0  0.00000000000E+00  0.00000000000E+00  0.37260758910E+03  0.37260758911E+03  0.25500000000E-02 0.  1.
         -2   -1    0    0    0  501 -0.00000000000E+00 -0.00000000000E+00 -0.36757267780E+03  0.36757267781E+03  0.25500000000E-02 0. -1.
    5000001    1    1    2    0    0  0.22247957242E+03 -0.18497711624E+03  0.13051524352E+03  0.37096080988E+03  0.19200000000E+03 0.  0.
   -5000001    1    1    2    0    0 -0.22247957242E+03  0.18497711624E+03 -0.12548033222E+03  0.36921945703E+03  0.19200000000E+03 0.  0.
<mgrwt>
<rscale>  0 0.74016314E+03</rscale>
<asrwt>0</asrwt>
<pdfrwt beam="1">  1        2 0.53229656E-01 0.74016314E+03</pdfrwt>
<pdfrwt beam="2">  1       -2 0.52510382E-01 0.74016314E+03</pdfrwt>
<totfact> 0.32297214E+02</totfact>
</mgrwt>
</event>
<event>
 4    1  0.2892809E-005  0.5813844E+03  0.7818608E-02  0.9944798E-01
         -2   -1    0    0    0  501 -0.00000000000E+00  0.00000000000E+00  0.10385371649E+03  0.10385371652E+03  0.25500000000E-02 0. -1.
          2   -1    0    0  501    0  0.00000000000E+00 -0.00000000000E+00 -0.81366327363E+03  0.81366327363E+03  0.25500000000E-02 0.  1.
    5000001    1    1    2    0    0 -0.17085843728E+03  0.49184331817E+02 -0.55469154117E+03  0.61331754412E+03  0.19200000000E+03 0.  0.
   -5000001    1    1    2    0    0  0.17085843728E+03 -0.49184331817E+02 -0.15511801597E+03  0.30419944603E+03  0.19200000000E+03 0.  0.
<mgrwt>
<rscale>  0 0.58138440E+03</rscale>
<asrwt>0</asrwt>
<pdfrwt beam="1">  1        2 0.11623761E+00 0.58138440E+03</pdfrwt>
<pdfrwt beam="2">  1       -2 0.14836246E-01 0.58138440E+03</pdfrwt>
<totfact> 0.13298676E+03</totfact>
</mgrwt>
</event>
<event>
 4    1  0.2892809E-005  0.8392132E+03  0.7818608E-02  0.9504930E-01
         -2   -1    0    0    0  501 -0.00000000000E+00  0.00000000000E+00  0.41514566465E+03  0.41514566466E+03  0.25500000000E-02 0. -1.
          2   -1    0    0  501    0  0.00000000000E+00 -0.00000000000E+00 -0.42411543790E+03  0.42411543790E+03  0.25500000000E-02 0.  1.
    5000001    1    1    2    0    0 -0.24306771509E+03 -0.11561211265E+02 -0.28732626922E+03  0.42265347592E+03  0.19200000000E+03 0.  0.
   -5000001    1    1    2    0    0  0.24306771509E+03  0.11561211265E+02  0.27835649597E+03  0.41660762664E+03  0.19200000000E+03 0.  0.
<mgrwt>
<rscale>  0 0.83921317E+03</rscale>
<asrwt>0</asrwt>
<pdfrwt beam="1">  1        2 0.60587919E-01 0.83921317E+03</pdfrwt>
<pdfrwt beam="2">  1       -2 0.59306524E-01 0.83921317E+03</pdfrwt>
<totfact> 0.21617154E+02</totfact>
</mgrwt>
</event>
<event>
 4    1  0.2892809E-005  0.1426401E+04  0.7818608E-02  0.8934927E-01
          2   -1    0    0  501    0  0.00000000000E+00  0.00000000000E+00  0.89850380728E+03  0.89850380728E+03  0.25500000000E-02 0.  1.
         -2   -1    0    0    0  501 -0.00000000000E+00 -0.00000000000E+00 -0.56611342374E+03  0.56611342375E+03  0.25500000000E-02 0. -1.
    5000001    1    1    2    0    0 -0.46185255183E+03 -0.29668084769E+03  0.59012942716E+03  0.82851918856E+03  0.19200000000E+03 0.  0.
   -5000001    1    1    2    0    0  0.46185255183E+03  0.29668084769E+03 -0.25773904362E+03  0.63609804246E+03  0.19200000000E+03 0.  0.
<mgrwt>
<rscale>  0 0.14264012E+04</rscale>
<asrwt>0</asrwt>
<pdfrwt beam="1">  1        2 0.12835769E+00 0.14264012E+04</pdfrwt>
<pdfrwt beam="2">  1       -2 0.80873347E-01 0.14264012E+04</pdfrwt>
<totfact> 0.42787390E+01</totfact>
</mgrwt>
</event>
<event>
 4    1  0.2892809E-005  0.7878803E+03  0.7818608E-02  0.9577727E-01
         -2   -1    0    0    0  501 -0.00000000000E+00  0.00000000000E+00  0.11370008538E+04  0.11370008538E+04  0.25500000000E-02 0. -1.
          2   -1    0    0  501    0  0.00000000000E+00 -0.00000000000E+00 -0.13648965115E+03  0.13648965117E+03  0.25500000000E-02 0.  1.
    5000001    1    1    2    0    0 -0.15834943711E+03  0.27376849508E+03  0.71891807371E+03  0.80853628851E+03  0.19200000000E+03 0.  0.
   -5000001    1    1    2    0    0  0.15834943711E+03 -0.27376849508E+03  0.28159312891E+03  0.46495421644E+03  0.19200000000E+03 0.  0.
<mgrwt>
<rscale>  0 0.78788032E+03</rscale>
<asrwt>0</asrwt>
<pdfrwt beam="1">  1        2 0.19498520E-01 0.78788032E+03</pdfrwt>
<pdfrwt beam="2">  1       -2 0.16242871E+00 0.78788032E+03</pdfrwt>
<totfact> 0.71515772E+01</totfact>
</mgrwt>
</event>
<event>
 4    1  0.2892809E-005  0.6655586E+03  0.7818608E-02  0.9778015E-01
         -2   -1    0    0    0  501 -0.00000000000E+00  0.00000000000E+00  0.59028341419E+02  0.59028341475E+02  0.25500000000E-02 0. -1.
          2   -1    0    0  501    0  0.00000000000E+00 -0.00000000000E+00 -0.18760831532E+04  0.18760831532E+04  0.25500000000E-02 0.  1.
    5000001    1    1    2    0    0 -0.16393433422E+03  0.21185422659E+03 -0.10424428638E+04  0.10933013325E+04  0.19200000000E+03 0.  0.
   -5000001    1    1    2    0    0  0.16393433422E+03 -0.21185422659E+03 -0.77461194791E+03  0.84181016215E+03  0.19200000000E+03 0.  0.
<mgrwt>
<rscale>  0 0.66555864E+03</rscale>
<asrwt>0</asrwt>
<pdfrwt beam="1">  1        2 0.26801184E+00 0.66555864E+03</pdfrwt>
<pdfrwt beam="2">  1       -2 0.84326213E-02 0.66555864E+03</pdfrwt>
<totfact> 0.85870473E+02</totfact>
</mgrwt>
</event>
<event>
 4    1  0.2892809E-005  0.7336416E+03  0.7818608E-02  0.9661369E-01
          2   -1    0    0  501    0  0.00000000000E+00  0.00000000000E+00  0.61935223362E+03  0.61935223362E+03  0.25500000000E-02 0.  1.
         -2   -1    0    0    0  501 -0.00000000000E+00 -0.00000000000E+00 -0.21725523483E+03  0.21725523484E+03  0.25500000000E-02 0. -1.
    5000001    1    1    2    0    0  0.14966069432E+03 -0.22324470444E+03  0.19102999603E+02  0.33085562724E+03  0.19200000000E+03 0.  0.
   -5000001    1    1    2    0    0 -0.14966069432E+03  0.22324470444E+03  0.38299399919E+03  0.50575184122E+03  0.19200000000E+03 0.  0.
<mgrwt>
<rscale>  0 0.73364164E+03</rscale>
<asrwt>0</asrwt>
<pdfrwt beam="1">  1        2 0.88478891E-01 0.73364164E+03</pdfrwt>
<pdfrwt beam="2">  1       -2 0.31036462E-01 0.73364164E+03</pdfrwt>
<totfact> 0.50475106E+02</totfact>
</mgrwt>
</event>
<event>
 4    1  0.2892809E-005  0.4148124E+03  0.7818608E-02  0.1038768E+00
         -2   -1    0    0    0  501 -0.00000000000E+00  0.00000000000E+00  0.35155665948E+02  0.35155666040E+02  0.25500000000E-02 0. -1.
          2   -1    0    0  501    0  0.00000000000E+00 -0.00000000000E+00 -0.12236243826E+04  0.12236243826E+04  0.25500000000E-02 0.  1.
    5000001    1    1    2    0    0 -0.71868619774E+02 -0.28545121467E+02 -0.55427373698E+03  0.59166147244E+03  0.19200000000E+03 0.  0.
   -5000001    1    1    2    0    0  0.71868619774E+02  0.28545121467E+02 -0.63419497965E+03  0.66711857618E+03  0.19200000000E+03 0.  0.
<mgrwt>
<rscale>  0 0.41481239E+03</rscale>
<asrwt>0</asrwt>
<pdfrwt beam="1">  1        2 0.17480346E+00 0.41481239E+03</pdfrwt>
<pdfrwt beam="2">  1       -2 0.50222388E-02 0.41481239E+03</pdfrwt>
<totfact> 0.42510480E+03</totfact>
</mgrwt>
</event>
<event>
 4    1  0.2892809E-005  0.5857847E+03  0.7818608E-02  0.9935345E-01
          2   -1    0    0  501    0  0.00000000000E+00  0.00000000000E+00  0.22039687131E+03  0.22039687133E+03  0.25500000000E-02 0.  1.
         -2   -1    0    0    0  501 -0.00000000000E+00 -0.00000000000E+00 -0.38923385118E+03  0.38923385119E+03  0.25500000000E-02 0. -1.
    5000001    1    1    2    0    0 -0.15081214888E+03 -0.15011024326E+03 -0.14724599540E+03  0.32221541326E+03  0.19200000000E+03 0.  0.
   -5000001    1    1    2    0    0  0.15081214888E+03  0.15011024326E+03 -0.21590984466E+02  0.28741530925E+03  0.19200000000E+03 0.  0.
<mgrwt>
<rscale>  0 0.58578468E+03</rscale>
<asrwt>0</asrwt>
<pdfrwt beam="1">  1        2 0.31485267E-01 0.58578468E+03</pdfrwt>
<pdfrwt beam="2">  1       -2 0.55604836E-01 0.58578468E+03</pdfrwt>
<totfact> 0.51615578E+02</totfact>
</mgrwt>
</event>
<event>
 4    1  0.2892809E-005  0.6268240E+03  0.7818608E-02  0.9851266E-01
          2   -1    0    0  501    0  0.00000000000E+00  0.00000000000E+00  0.84462896908E+03  0.84462896908E+03  0.25500000000E-02 0.  1.
         -2   -1    0    0    0  501 -0.00000000000E+00 -0.00000000000E+00 -0.11629611391E+03  0.11629611393E+03  0.25500000000E-02 0. -1.
    5000001    1    1    2    0    0  0.69375238519E+02  0.15502683280E+03  0.64060459674E+03  0.68998876221E+03  0.19200000000E+03 0.  0.
   -5000001    1    1    2    0    0 -0.69375238519E+02 -0.15502683280E+03  0.87728258434E+02  0.27093632081E+03  0.19200000000E+03 0.  0.
<mgrwt>
<rscale>  0 0.62682395E+03</rscale>
<asrwt>0</asrwt>
<pdfrwt beam="1">  1        2 0.12066128E+00 0.62682395E+03</pdfrwt>
<pdfrwt beam="2">  1       -2 0.16613730E-01 0.62682395E+03</pdfrwt>
<totfact> 0.10454718E+03</totfact>
</mgrwt>
</event>
<event>
 4    1  0.2892809E-005  0.6095853E+03  0.7818608E-02  0.9885717E-01
          2   -1    0    0  501    0  0.00000000000E+00  0.00000000000E+00  0.13502089842E+04  0.13502089842E+04  0.25500000000E-02 0.  1.
         -2   -1    0    0    0  501 -0.00000000000E+00 -0.00000000000E+00 -0.68803098220E+02  0.68803098267E+02  0.25500000000E-02 0. -1.
    5000001    1    1    2    0    0  0.20937694259E+03 -0.99850719516E+02  0.53088228301E+03  0.61033504626E+03  0.19200000000E+03 0.  0.
   -5000001    1    1    2    0    0 -0.20937694259E+03  0.99850719516E+02  0.75052360296E+03  0.80867703620E+03  0.19200000000E+03 0.  0.
<mgrwt>
<rscale>  0 0.60958531E+03</rscale>
<asrwt>0</asrwt>
<pdfrwt beam="1">  1        2 0.19288701E+00 0.60958531E+03</pdfrwt>
<pdfrwt beam="2">  1       -2 0.98290134E-02 0.60958531E+03</pdfrwt>
<totfact> 0.12570022E+03</totfact>
</mgrwt>
</event>
<event>
 4    1  0.2892809E-005  0.4037231E+03  0.7818608E-02  0.1042498E+00
         -2   -1    0    0    0  501 -0.00000000000E+00  0.00000000000E+00  0.35261981053E+02  0.35261981146E+02  0.25500000000E-02 0. -1.
          2   -1    0    0  501    0  0.00000000000E+00 -0.00000000000E+00 -0.11555814596E+04  0.11555814596E+04  0.25500000000E-02 0.  1.
    5000001    1    1    2    0    0  0.17037349167E+02 -0.58084349935E+02 -0.51640645871E+03  0.55425959042E+03  0.19200000000E+03 0.  0.
   -5000001    1    1    2    0    0 -0.17037349167E+02  0.58084349935E+02 -0.60391301987E+03  0.63658385036E+03  0.19200000000E+03 0.  0.
<mgrwt>
<rscale>  0 0.40372313E+03</rscale>
<asrwt>0</asrwt>
<pdfrwt beam="1">  1        2 0.16508304E+00 0.40372313E+03</pdfrwt>
<pdfrwt beam="2">  1       -2 0.50374266E-02 0.40372313E+03</pdfrwt>
<totfact> 0.46141040E+03</totfact>
</mgrwt>
</event>
<event>
 4    1  0.2892809E-005  0.5154520E+03  0.7818608E-02  0.1009823E+00
          2   -1    0    0  501    0  0.00000000000E+00  0.00000000000E+00  0.36333505248E+03  0.36333505249E+03  0.25500000000E-02 0.  1.
         -2   -1    0    0    0  501 -0.00000000000E+00 -0.00000000000E+00 -0.18281391502E+03  0.18281391503E+03  0.25500000000E-02 0. -1.
    5000001    1    1    2    0    0 -0.13573264770E+03 -0.89587656969E+02  0.31177725350E+02  0.25354555901E+03  0.19200000000E+03 0.  0.
   -5000001    1    1    2    0    0  0.13573264770E+03  0.89587656969E+02  0.14934341211E+03  0.29260340852E+03  0.19200000000E+03 0.  0.
<mgrwt>
<rscale>  0 0.51545205E+03</rscale>
<asrwt>0</asrwt>
<pdfrwt beam="1">  1        2 0.51905007E-01 0.51545205E+03</pdfrwt>
<pdfrwt beam="2">  1       -2 0.26116274E-01 0.51545205E+03</pdfrwt>
<totfact> 0.12737032E+03</totfact>
</mgrwt>
</event>
<event>
 4    1  0.2892809E-005  0.8185572E+03  0.7818608E-02  0.9533538E-01
          2   -1    0    0  501    0  0.00000000000E+00  0.00000000000E+00  0.19140187335E+04  0.19140187335E+04  0.25500000000E-02 0.  1.
         -2   -1    0    0    0  501 -0.00000000000E+00 -0.00000000000E+00 -0.87516890254E+02  0.87516890291E+02  0.25500000000E-02 0. -1.
    5000001    1    1    2    0    0 -0.77839059552E+02 -0.14837732360E+03  0.16963648300E+04  0.17153986084E+04  0.19200000000E+03 0.  0.
   -5000001    1    1    2    0    0  0.77839059552E+02  0.14837732360E+03  0.13013701327E+03  0.28613701539E+03  0.19200000000E+03 0.  0.
<mgrwt>
<rscale>  0 0.81855719E+03</rscale>
<asrwt>0</asrwt>
<pdfrwt beam="1">  1        2 0.27343121E+00 0.81855719E+03</pdfrwt>
<pdfrwt beam="2">  1       -2 0.12502415E-01 0.81855719E+03</pdfrwt>
<totfact> 0.42820466E+02</totfact>
</mgrwt>
</event>
<event>
 4    1  0.2892809E-005  0.6018607E+03  0.7818608E-02  0.9901553E-01
          2   -1    0    0  501    0  0.00000000000E+00  0.00000000000E+00  0.15250875855E+04  0.15250875855E+04  0.25500000000E-02 0.  1.
         -2   -1    0    0    0  501 -0.00000000000E+00 -0.00000000000E+00 -0.59379591766E+02  0.59379591821E+02  0.25500000000E-02 0. -1.
    5000001    1    1    2    0    0  0.21714673383E+03 -0.74836363639E+02  0.65205833797E+03  0.71749373618E+03  0.19200000000E+03 0.  0.
   -5000001    1    1    2    0    0 -0.21714673383E+03  0.74836363639E+02  0.81364965581E+03  0.86697344119E+03  0.19200000000E+03 0.  0.
<mgrwt>
<rscale>  0 0.60186071E+03</rscale>
<asrwt>0</asrwt>
<pdfrwt beam="1">  1        2 0.21786966E+00 0.60186071E+03</pdfrwt>
<pdfrwt beam="2">  1       -2 0.84827986E-02 0.60186071E+03</pdfrwt>
<totfact> 0.12887425E+03</totfact>
</mgrwt>
</event>
<event>
 4    1  0.2892809E-005  0.6483893E+03  0.7818608E-02  0.9809806E-01
          2   -1    0    0  501    0  0.00000000000E+00  0.00000000000E+00  0.20425691256E+04  0.20425691256E+04  0.25500000000E-02 0.  1.
         -2   -1    0    0    0  501 -0.00000000000E+00 -0.00000000000E+00 -0.51455873589E+02  0.51455873652E+02  0.25500000000E-02 0. -1.
    5000001    1    1    2    0    0  0.14207874783E+03 -0.61400802381E+02  0.16751644862E+04  0.16932207431E+04  0.19200000000E+03 0.  0.
   -5000001    1    1    2    0    0 -0.14207874783E+03  0.61400802381E+02  0.31594876582E+03  0.40080425614E+03  0.19200000000E+03 0.  0.
<mgrwt>
<rscale>  0 0.64838932E+03</rscale>
<asrwt>0</asrwt>
<pdfrwt beam="1">  1        2 0.29179560E+00 0.64838932E+03</pdfrwt>
<pdfrwt beam="2">  1       -2 0.73508389E-02 0.64838932E+03</pdfrwt>
<totfact> 0.88201675E+02</totfact>
</mgrwt>
</event>
<event>
 4    1  0.2892809E-005  0.6841982E+03  0.7818608E-02  0.9744643E-01
          2   -1    0    0  501    0  0.00000000000E+00  0.00000000000E+00  0.17005340401E+04  0.17005340401E+04  0.25500000000E-02 0.  1.
         -2   -1    0    0    0  501 -0.00000000000E+00 -0.00000000000E+00 -0.68820621337E+02  0.68820621384E+02  0.25500000000E-02 0. -1.
    5000001    1    1    2    0    0 -0.14161383732E+03  0.24415857498E+03  0.87367742575E+03  0.93800007086E+03  0.19200000000E+03 0.  0.
   -5000001    1    1    2    0    0  0.14161383732E+03 -0.24415857498E+03  0.75803599300E+03  0.83135459062E+03  0.19200000000E+03 0.  0.
<mgrwt>
<rscale>  0 0.68419824E+03</rscale>
<asrwt>0</asrwt>
<pdfrwt beam="1">  1        2 0.24293338E+00 0.68419824E+03</pdfrwt>
<pdfrwt beam="2">  1       -2 0.98315196E-02 0.68419824E+03</pdfrwt>
<totfact> 0.82227599E+02</totfact>
</mgrwt>
</event>
<event>
 4    1  0.2892809E-005  0.4893537E+03  0.7818608E-02  0.1016596E+00
          2   -1    0    0  501    0  0.00000000000E+00  0.00000000000E+00  0.44912359637E+03  0.44912359638E+03  0.25500000000E-02 0.  1.
         -2   -1    0    0    0  501 -0.00000000000E+00 -0.00000000000E+00 -0.13329682873E+03  0.13329682875E+03  0.25500000000E-02 0. -1.
    5000001    1    1    2    0    0 -0.15123596825E+03  0.12476753949E+01  0.17142478303E+03  0.29853698435E+03  0.19200000000E+03 0.  0.
   -5000001    1    1    2    0    0  0.15123596825E+03 -0.12476753949E+01  0.14440198461E+03  0.28388344078E+03  0.19200000000E+03 0.  0.
<mgrwt>
<rscale>  0 0.48935366E+03</rscale>
<asrwt>0</asrwt>
<pdfrwt beam="1">  1        2 0.64160515E-01 0.48935366E+03</pdfrwt>
<pdfrwt beam="2">  1       -2 0.19042404E-01 0.48935366E+03</pdfrwt>
<totfact> 0.17566166E+03</totfact>
</mgrwt>
</event>
<event>
 4    1  0.2892809E-005  0.6568574E+03  0.7818608E-02  0.9793996E-01
          2   -1    0    0  501    0  0.00000000000E+00  0.00000000000E+00  0.14312740503E+04  0.14312740503E+04  0.25500000000E-02 0.  1.
         -2   -1    0    0    0  501 -0.00000000000E+00 -0.00000000000E+00 -0.75363205283E+02  0.75363205326E+02  0.25500000000E-02 0. -1.
    5000001    1    1    2    0    0  0.21356674045E+03 -0.13998426234E+03  0.85256431698E+03  0.91045936807E+03  0.19200000000E+03 0.  0.
   -5000001    1    1    2    0    0 -0.21356674045E+03  0.13998426234E+03  0.50334652806E+03  0.59617788758E+03  0.19200000000E+03 0.  0.
<mgrwt>
<rscale>  0 0.65685737E+03</rscale>
<asrwt>0</asrwt>
<pdfrwt beam="1">  1        2 0.20446775E+00 0.65685737E+03</pdfrwt>
<pdfrwt beam="2">  1       -2 0.10766171E-01 0.65685737E+03</pdfrwt>
<totfact> 0.97958146E+02</totfact>
</mgrwt>
</event>
<event>
 4    1  0.2892809E-005  0.1181581E+04  0.7818608E-02  0.9129133E-01
         -2   -1    0    0    0  501 -0.00000000000E+00  0.00000000000E+00  0.17257559566E+03  0.17257559568E+03  0.25500000000E-02 0. -1.
          2   -1    0    0  501    0  0.00000000000E+00 -0.00000000000E+00 -0.20224961931E+04  0.20224961931E+04  0.25500000000E-02 0.  1.
    5000001    1    1    2    0    0 -0.32326751068E+03  0.41247495271E+03 -0.12848638460E+04  0.14008485189E+04  0.19200000000E+03 0.  0.
   -5000001    1    1    2    0    0  0.32326751068E+03 -0.41247495271E+03 -0.56505675136E+03  0.79422326983E+03  0.19200000000E+03 0.  0.
<mgrwt>
<rscale>  0 0.11815811E+04</rscale>
<asrwt>0</asrwt>
<pdfrwt beam="1">  1        2 0.28892801E+00 0.11815811E+04</pdfrwt>
<pdfrwt beam="2">  1       -2 0.24653658E-01 0.11815811E+04</pdfrwt>
<totfact> 0.11362299E+02</totfact>
</mgrwt>
</event>
<event>
 4    1  0.2892809E-005  0.8319462E+03  0.7818608E-02  0.9514894E-01
         -2   -1    0    0    0  501 -0.00000000000E+00  0.00000000000E+00  0.10463967419E+03  0.10463967422E+03  0.25500000000E-02 0. -1.
          2   -1    0    0  501    0  0.00000000000E+00 -0.00000000000E+00 -0.16536138621E+04  0.16536138621E+04  0.25500000000E-02 0.  1.
    5000001    1    1    2    0    0 -0.14516960788E+02  0.31977224360E+03 -0.38648795664E+03  0.53730993901E+03  0.19200000000E+03 0.  0.
   -5000001    1    1    2    0    0  0.14516960788E+02 -0.31977224360E+03 -0.11624862312E+04  0.12209435973E+04  0.19200000000E+03 0.  0.
<mgrwt>
<rscale>  0 0.83194619E+03</rscale>
<asrwt>0</asrwt>
<pdfrwt beam="1">  1        2 0.23623054E+00 0.83194619E+03</pdfrwt>
<pdfrwt beam="2">  1       -2 0.14948526E-01 0.83194619E+03</pdfrwt>
<totfact> 0.43081957E+02</totfact>
</mgrwt>
</event>
<event>
 4    1  0.2892809E-005  0.6167725E+03  0.7818608E-02  0.9871207E-01
          2   -1    0    0  501    0  0.00000000000E+00  0.00000000000E+00  0.66251547877E+03  0.66251547878E+03  0.25500000000E-02 0.  1.
         -2   -1    0    0    0  501 -0.00000000000E+00 -0.00000000000E+00 -0.14354697366E+03  0.14354697368E+03  0.25500000000E-02 0. -1.
    5000001    1    1    2    0    0 -0.13300366036E+03  0.16896779926E+03  0.40263648001E+03  0.49519715861E+03  0.19200000000E+03 0.  0.
   -5000001    1    1    2    0    0  0.13300366036E+03 -0.16896779926E+03  0.11633202510E+03  0.31086529385E+03  0.19200000000E+03 0.  0.
<mgrwt>
<rscale>  0 0.61677254E+03</rscale>
<asrwt>0</asrwt>
<pdfrwt beam="1">  1        2 0.94645069E-01 0.61677254E+03</pdfrwt>
<pdfrwt beam="2">  1       -2 0.20506710E-01 0.61677254E+03</pdfrwt>
<totfact> 0.98565187E+02</totfact>
</mgrwt>
</event>
<event>
 4    1  0.2892809E-005  0.7326795E+03  0.7818608E-02  0.9662922E-01
          2   -1    0    0  501    0  0.00000000000E+00  0.00000000000E+00  0.20813597988E+04  0.20813597988E+04  0.25500000000E-02 0.  1.
         -2   -1    0    0    0  501 -0.00000000000E+00 -0.00000000000E+00 -0.64479391908E+02  0.64479391959E+02  0.25500000000E-02 0. -1.
    5000001    1    1    2    0    0  0.54694587991E+02 -0.21739455040E+03  0.37290074308E+03  0.47557423468E+03  0.19200000000E+03 0.  0.
   -5000001    1    1    2    0    0 -0.54694587991E+02  0.21739455040E+03  0.16439796638E+04  0.16702649561E+04  0.19200000000E+03 0.  0.
<mgrwt>
<rscale>  0 0.73267950E+03</rscale>
<asrwt>0</asrwt>
<pdfrwt beam="1">  1        2 0.29733717E+00 0.73267950E+03</pdfrwt>
<pdfrwt beam="2">  1       -2 0.92113399E-02 0.73267950E+03</pdfrwt>
<totfact> 0.58433877E+02</totfact>
</mgrwt>
</event>
<event>
 4    1  0.2892809E-005  0.5485821E+03  0.7818608E-02  0.1001823E+00
          2   -1    0    0  501    0  0.00000000000E+00  0.00000000000E+00  0.42002292765E+03  0.42002292766E+03  0.25500000000E-02 0.  1.
         -2   -1    0    0    0  501 -0.00000000000E+00 -0.00000000000E+00 -0.17912253147E+03  0.17912253149E+03  0.25500000000E-02 0. -1.
    5000001    1    1    2    0    0 -0.15036018806E+03  0.35799237984E+02 -0.10982044595E+02  0.24672733310E+03  0.19200000000E+03 0.  0.
   -5000001    1    1    2    0    0  0.15036018806E+03 -0.35799237984E+02  0.25188244078E+03  0.35241812605E+03  0.19200000000E+03 0.  0.
<mgrwt>
<rscale>  0 0.54858206E+03</rscale>
<asrwt>0</asrwt>
<pdfrwt beam="1">  1        2 0.60003274E-01 0.54858206E+03</pdfrwt>
<pdfrwt beam="2">  1       -2 0.25588934E-01 0.54858206E+03</pdfrwt>
<totfact> 0.11254409E+03</totfact>
</mgrwt>
</event>
<event>
 4    1  0.2892809E-005  0.1140349E+04  0.7818608E-02  0.9166733E-01
         -2   -1    0    0    0  501 -0.00000000000E+00  0.00000000000E+00  0.57742797045E+03  0.57742797046E+03  0.25500000000E-02 0. -1.
          2   -1    0    0  501    0  0.00000000000E+00 -0.00000000000E+00 -0.56301246752E+03  0.56301246753E+03  0.25500000000E-02 0.  1.
    5000001    1    1    2    0    0  0.42171661301E+03 -0.21296263434E+03  0.26225197166E+03  0.57344405303E+03  0.19200000000E+03 0.  0.
   -5000001    1    1    2    0    0 -0.42171661301E+03  0.21296263434E+03 -0.24783646873E+03  0.56699638495E+03  0.19200000000E+03 0.  0.
<mgrwt>
<rscale>  0 0.11403493E+04</rscale>
<asrwt>0</asrwt>
<pdfrwt beam="1">  1        2 0.80430353E-01 0.11403493E+04</pdfrwt>
<pdfrwt beam="2">  1       -2 0.82489710E-01 0.11403493E+04</pdfrwt>
<totfact> 0.74827046E+01</totfact>
</mgrwt>
</event>
<event>
 4    1  0.2892809E-005  0.5895551E+03  0.7818608E-02  0.9927316E-01
          2   -1    0    0  501    0  0.00000000000E+00  0.00000000000E+00  0.31654090991E+03  0.31654090992E+03  0.25500000000E-02 0.  1.
         -2   -1    0    0    0  501 -0.00000000000E+00 -0.00000000000E+00 -0.27451053252E+03  0.27451053254E+03  0.25500000000E-02 0. -1.
    5000001    1    1    2    0    0 -0.42922057412E+02 -0.21793611151E+03  0.47375687282E+02  0.29740024792E+03  0.19200000000E+03 0.  0.
   -5000001    1    1    2    0    0  0.42922057412E+02  0.21793611151E+03 -0.53453098993E+01  0.29365119454E+03  0.19200000000E+03 0.  0.
<mgrwt>
<rscale>  0 0.58955513E+03</rscale>
<asrwt>0</asrwt>
<pdfrwt beam="1">  1        2 0.45220130E-01 0.58955513E+03</pdfrwt>
<pdfrwt beam="2">  1       -2 0.39215791E-01 0.58955513E+03</pdfrwt>
<totfact> 0.69441735E+02</totfact>
</mgrwt>
</event>
<event>
 4    1  0.2892809E-005  0.6969633E+03  0.7818608E-02  0.9722439E-01
          2   -1    0    0  501    0  0.00000000000E+00  0.00000000000E+00  0.80597020587E+03  0.80597020587E+03  0.25500000000E-02 0.  1.
         -2   -1    0    0    0  501 -0.00000000000E+00 -0.00000000000E+00 -0.15067487329E+03  0.15067487331E+03  0.25500000000E-02 0. -1.
    5000001    1    1    2    0    0  0.17212611368E+03  0.22351232939E+03  0.42461025159E+03  0.54474124697E+03  0.19200000000E+03 0.  0.
   -5000001    1    1    2    0    0 -0.17212611368E+03 -0.22351232939E+03  0.23068508099E+03  0.41190383221E+03  0.19200000000E+03 0.  0.
<mgrwt>
<rscale>  0 0.69696330E+03</rscale>
<asrwt>0</asrwt>
<pdfrwt beam="1">  1        2 0.11513860E+00 0.69696330E+03</pdfrwt>
<pdfrwt beam="2">  1       -2 0.21524982E-01 0.69696330E+03</pdfrwt>
<totfact> 0.70802058E+02</totfact>
</mgrwt>
</event>
<event>
 4    1  0.2892809E-005  0.4281293E+03  0.7818608E-02  0.1034453E+00
          2   -1    0    0  501    0  0.00000000000E+00  0.00000000000E+00  0.19635663317E+03  0.19635663319E+03  0.25500000000E-02 0. -1.
         -2   -1    0    0    0  501 -0.00000000000E+00 -0.00000000000E+00 -0.23336962253E+03  0.23336962254E+03  0.25500000000E-02 0.  1.
    5000001    1    1    2    0    0  0.14434240071E+02 -0.93465300229E+02 -0.14546688784E+02  0.21452206364E+03  0.19200000000E+03 0.  0.
   -5000001    1    1    2    0    0 -0.14434240071E+02  0.93465300229E+02 -0.22466300572E+02  0.21520419209E+03  0.19200000000E+03 0.  0.
<mgrwt>
<rscale>  0 0.42812930E+03</rscale>
<asrwt>0</asrwt>
<pdfrwt beam="1">  1        2 0.28050948E-01 0.42812930E+03</pdfrwt>
<pdfrwt beam="2">  1       -2 0.33338517E-01 0.42812930E+03</pdfrwt>
<totfact> 0.16035823E+03</totfact>
</mgrwt>
</event>
<event>
 4    1  0.2892809E-005  0.5450761E+03  0.7818608E-02  0.1002640E+00
         -2   -1    0    0    0  501 -0.00000000000E+00  0.00000000000E+00  0.73893961542E+03  0.73893961542E+03  0.25500000000E-02 0. -1.
          2   -1    0    0  501    0  0.00000000000E+00 -0.00000000000E+00 -0.10051835578E+03  0.10051835582E+03  0.25500000000E-02 0.  1.
    5000001    1    1    2    0    0 -0.10725224618E+03  0.13219987265E+03  0.46063901105E+03  0.52728753934E+03  0.19200000000E+03 0.  0.
   -5000001    1    1    2    0    0  0.10725224618E+03 -0.13219987265E+03  0.17778224858E+03  0.31217043190E+03  0.19200000000E+03 0.  0.
<mgrwt>
<rscale>  0 0.54507612E+03</rscale>
<asrwt>0</asrwt>
<pdfrwt beam="1">  1        2 0.14359765E-01 0.54507612E+03</pdfrwt>
<pdfrwt beam="2">  1       -2 0.10556280E+00 0.54507612E+03</pdfrwt>
<totfact> 0.31058042E+02</totfact>
</mgrwt>
</event>
<event>
 4    1  0.2892809E-005  0.4784835E+03  0.7818608E-02  0.1019553E+00
         -2   -1    0    0    0  501 -0.00000000000E+00  0.00000000000E+00  0.66151170885E+03  0.66151170885E+03  0.25500000000E-02 0. -1.
          2   -1    0    0  501    0  0.00000000000E+00 -0.00000000000E+00 -0.86523956437E+02  0.86523956475E+02  0.25500000000E-02 0.  1.
    5000001    1    1    2    0    0 -0.85437561907E+02  0.11048109337E+03  0.33352538572E+03  0.40940057633E+03  0.19200000000E+03 0.  0.
   -5000001    1    1    2    0    0  0.85437561907E+02 -0.11048109337E+03  0.24146236669E+03  0.33863508900E+03  0.19200000000E+03 0.  0.
<mgrwt>
<rscale>  0 0.47848348E+03</rscale>
<asrwt>0</asrwt>
<pdfrwt beam="1">  1        2 0.12360565E-01 0.47848348E+03</pdfrwt>
<pdfrwt beam="2">  1       -2 0.94501671E-01 0.47848348E+03</pdfrwt>
<totfact> 0.48452341E+02</totfact>
</mgrwt>
</event>
<event>
 4    1  0.2892809E-005  0.6647349E+03  0.7818608E-02  0.9779516E-01
          2   -1    0    0  501    0  0.00000000000E+00  0.00000000000E+00  0.16722205280E+04  0.16722205280E+04  0.25500000000E-02 0.  1.
         -2   -1    0    0    0  501 -0.00000000000E+00 -0.00000000000E+00 -0.66060734370E+02  0.66060734419E+02  0.25500000000E-02 0. -1.
    5000001    1    1    2    0    0 -0.59943733632E+02 -0.25976444303E+03  0.67146204076E+03  0.74752664785E+03  0.19200000000E+03 0.  0.
   -5000001    1    1    2    0    0  0.59943733632E+02  0.25976444303E+03  0.93469775282E+03  0.99075461452E+03  0.19200000000E+03 0.  0.
<mgrwt>
<rscale>  0 0.66473488E+03</rscale>
<asrwt>0</asrwt>
<pdfrwt beam="1">  1        2 0.23888864E+00 0.66473488E+03</pdfrwt>
<pdfrwt beam="2">  1       -2 0.94372480E-02 0.66473488E+03</pdfrwt>
<totfact> 0.90930139E+02</totfact>
</mgrwt>
</event>
<event>
 4    1  0.2892809E-005  0.7203548E+03  0.7818608E-02  0.9683042E-01
         -2   -1    0    0    0  501 -0.00000000000E+00  0.00000000000E+00  0.38526290525E+03  0.38526290526E+03  0.25500000000E-02 0. -1.
          2   -1    0    0  501    0  0.00000000000E+00 -0.00000000000E+00 -0.33672531043E+03  0.33672531044E+03  0.25500000000E-02 0.  1.
    5000001    1    1    2    0    0  0.42054236339E+02  0.27591943292E+03 -0.98334691232E+02  0.35275175939E+03  0.19200000000E+03 0.  0.
   -5000001    1    1    2    0    0 -0.42054236339E+02 -0.27591943292E+03  0.14687228605E+03  0.36923645631E+03  0.19200000000E+03 0.  0.
<mgrwt>
<rscale>  0 0.72035483E+03</rscale>
<asrwt>0</asrwt>
<pdfrwt beam="1">  1        2 0.48103616E-01 0.72035483E+03</pdfrwt>
<pdfrwt beam="2">  1       -2 0.55037558E-01 0.72035483E+03</pdfrwt>
<totfact> 0.32824779E+02</totfact>
</mgrwt>
</event>
<event>
 4    1  0.2892809E-005  0.4475362E+03  0.7818608E-02  0.1028459E+00
          2   -1    0    0  501    0  0.00000000000E+00  0.00000000000E+00  0.13310117934E+04  0.13310117934E+04  0.25500000000E-02 0.  1.
         -2   -1    0    0    0  501 -0.00000000000E+00 -0.00000000000E+00 -0.37619619597E+02  0.37619619684E+02  0.25500000000E-02 0. -1.
    5000001    1    1    2    0    0  0.95393778963E+02  0.63465770421E+02  0.67409686690E+03  0.71021015415E+03  0.19200000000E+03 0.  0.
   -5000001    1    1    2    0    0 -0.95393778963E+02 -0.63465770421E+02  0.61929530690E+03  0.65842125895E+03  0.19200000000E+03 0.  0.
<mgrwt>
<rscale>  0 0.44753618E+03</rscale>
<asrwt>0</asrwt>
<pdfrwt beam="1">  1        2 0.19014459E+00 0.44753618E+03</pdfrwt>
<pdfrwt beam="2">  1       -2 0.53742301E-02 0.44753618E+03</pdfrwt>
<totfact> 0.33512821E+03</totfact>
</mgrwt>
</event>
<event>
 4    1  0.2892809E-005  0.4563946E+03  0.7818608E-02  0.1025832E+00
         -2   -1    0    0    0  501 -0.00000000000E+00  0.00000000000E+00  0.53533690964E+02  0.53533691025E+02  0.25500000000E-02 0.  1.
          2   -1    0    0  501    0  0.00000000000E+00 -0.00000000000E+00 -0.97273319331E+03  0.97273319331E+03  0.25500000000E-02 0. -1.
    5000001    1    1    2    0    0  0.76849530838E+02  0.94854564867E+02 -0.42021584875E+03  0.47785834555E+03  0.19200000000E+03 0.  0.
   -5000001    1    1    2    0    0 -0.76849530838E+02 -0.94854564867E+02 -0.49898365359E+03  0.54840853879E+03  0.19200000000E+03 0.  0.
<mgrwt>
<rscale>  0 0.45639456E+03</rscale>
<asrwt>0</asrwt>
<pdfrwt beam="1">  1        2 0.13896187E+00 0.45639456E+03</pdfrwt>
<pdfrwt beam="2">  1       -2 0.76476707E-02 0.45639456E+03</pdfrwt>
<totfact> 0.30833383E+03</totfact>
</mgrwt>
</event>
<event>
 4    1  0.2892809E-005  0.7341640E+03  0.7818608E-02  0.9660527E-01
         -2   -1    0    0    0  501 -0.00000000000E+00  0.00000000000E+00  0.29204140362E+03  0.29204140363E+03  0.25500000000E-02 0. -1.
          2   -1    0    0  501    0  0.00000000000E+00 -0.00000000000E+00 -0.46140440728E+03  0.46140440729E+03  0.25500000000E-02 0.  1.
    5000001    1    1    2    0    0  0.31248174510E+03 -0.33622573320E+01 -0.10021321292E+03  0.38021419468E+03  0.19200000000E+03 0.  0.
   -5000001    1    1    2    0    0 -0.31248174510E+03  0.33622573320E+01 -0.69149790748E+02  0.37323161623E+03  0.19200000000E+03 0.  0.
<mgrwt>
<rscale>  0 0.73416399E+03</rscale>
<asrwt>0</asrwt>
<pdfrwt beam="1">  1        2 0.65914915E-01 0.73416399E+03</pdfrwt>
<pdfrwt beam="2">  1       -2 0.41720201E-01 0.73416399E+03</pdfrwt>
<totfact> 0.40330026E+02</totfact>
</mgrwt>
</event>
<event>
 4    1  0.2892809E-005  0.5736998E+03  0.7818608E-02  0.9961525E-01
         -2   -1    0    0    0  501 -0.00000000000E+00  0.00000000000E+00  0.41921479422E+02  0.41921479499E+02  0.25500000000E-02 0. -1.
          2   -1    0    0  501    0  0.00000000000E+00 -0.00000000000E+00 -0.19627856702E+04  0.19627856702E+04  0.25500000000E-02 0.  1.
    5000001    1    1    2    0    0 -0.85128891902E+02 -0.10679208131E+03 -0.38873061497E+03  0.45456239163E+03  0.19200000000E+03 0.  0.
   -5000001    1    1    2    0    0  0.85128891902E+02  0.10679208131E+03 -0.15321335758E+04  0.15501447581E+04  0.19200000000E+03 0.  0.
<mgrwt>
<rscale>  0 0.57369985E+03</rscale>
<asrwt>0</asrwt>
<pdfrwt beam="1">  1        2 0.28039789E+00 0.57369985E+03</pdfrwt>
<pdfrwt beam="2">  1       -2 0.59887840E-02 0.57369985E+03</pdfrwt>
<totfact> 0.13415207E+03</totfact>
</mgrwt>
</event>
<event>
 4    1  0.2892809E-005  0.7398551E+03  0.7818608E-02  0.9651402E-01
         -2   -1    0    0    0  501 -0.00000000000E+00  0.00000000000E+00  0.38980320213E+02  0.38980320296E+02  0.25500000000E-02 0. -1.
          2   -1    0    0  501    0  0.00000000000E+00 -0.00000000000E+00 -0.35106537794E+04  0.35106537794E+04  0.25500000000E-02 0.  1.
    5000001    1    1    2    0    0  0.44408479848E+02 -0.25409614908E+03 -0.85842110564E+03  0.91667211187E+03  0.19200000000E+03 0.  0.
   -5000001    1    1    2    0    0 -0.44408479848E+02  0.25409614908E+03 -0.26132523536E+04  0.26329619879E+04  0.19200000000E+03 0.  0.
<mgrwt>
<rscale>  0 0.73985514E+03</rscale>
<asrwt>0</asrwt>
<pdfrwt beam="1">  1        2 0.50152177E+00 0.73985514E+03</pdfrwt>
<pdfrwt beam="2">  1       -2 0.55686194E-02 0.73985514E+03</pdfrwt>
<totfact> 0.22060313E+02</totfact>
</mgrwt>
</event>
<event>
 4    1  0.2892809E-005  0.4477991E+03  0.7818608E-02  0.1028380E+00
         -2   -1    0    0    0  501 -0.00000000000E+00  0.00000000000E+00  0.37218862285E+02  0.37218862372E+02  0.25500000000E-02 0. -1.
          2   -1    0    0  501    0  0.00000000000E+00 -0.00000000000E+00 -0.13469247556E+04  0.13469247556E+04  0.25500000000E-02 0.  1.
    5000001    1    1    2    0    0 -0.76815981552E+02  0.13510955004E+02 -0.39286938814E+03  0.44417743872E+03  0.19200000000E+03 0.  0.
   -5000001    1    1    2    0    0  0.76815981552E+02 -0.13510955004E+02 -0.91683650517E+03  0.93996617925E+03  0.19200000000E+03 0.  0.
<mgrwt>
<rscale>  0 0.44779909E+03</rscale>
<asrwt>0</asrwt>
<pdfrwt beam="1">  1        2 0.19241779E+00 0.44779909E+03</pdfrwt>
<pdfrwt beam="2">  1       -2 0.53169812E-02 0.44779909E+03</pdfrwt>
<totfact> 0.33413850E+03</totfact>
</mgrwt>
</event>
<event>
 4    1  0.2892809E-005  0.1167427E+04  0.7818608E-02  0.9141855E-01
         -2   -1    0    0    0  501 -0.00000000000E+00  0.00000000000E+00  0.52652192586E+03  0.52652192587E+03  0.25500000000E-02 0. -1.
          2   -1    0    0  501    0  0.00000000000E+00 -0.00000000000E+00 -0.64711784266E+03  0.64711784267E+03  0.25500000000E-02 0.  1.
    5000001    1    1    2    0    0 -0.44252122849E+03 -0.11876270016E+03 -0.36840577020E+03  0.61847912506E+03  0.19200000000E+03 0.  0.
   -5000001    1    1    2    0    0  0.44252122849E+03  0.11876270016E+03  0.24780985340E+03  0.55516064347E+03  0.19200000000E+03 0.  0.
<mgrwt>
<rscale>  0 0.11674275E+04</rscale>
<asrwt>0</asrwt>
<pdfrwt beam="1">  1        2 0.92445405E-01 0.11674275E+04</pdfrwt>
<pdfrwt beam="2">  1       -2 0.75217419E-01 0.11674275E+04</pdfrwt>
<totfact> 0.77837506E+01</totfact>
</mgrwt>
</event>
<event>
 4    1  0.2892809E-005  0.4828073E+03  0.7818608E-02  0.1018366E+00
         -2   -1    0    0    0  501 -0.00000000000E+00  0.00000000000E+00  0.26606025674E+03  0.26606025675E+03  0.25500000000E-02 0. -1.
          2   -1    0    0  501    0  0.00000000000E+00 -0.00000000000E+00 -0.21903202585E+03  0.21903202587E+03  0.25500000000E-02 0.  1.
    5000001    1    1    2    0    0  0.59209410174E+02  0.13360654292E+03  0.30982630843E+02  0.24327019131E+03  0.19200000000E+03 0.  0.
   -5000001    1    1    2    0    0 -0.59209410174E+02 -0.13360654292E+03  0.16045600040E+02  0.24182209131E+03  0.19200000000E+03 0.  0.
<mgrwt>
<rscale>  0 0.48280728E+03</rscale>
<asrwt>0</asrwt>
<pdfrwt beam="1">  1        2 0.31290289E-01 0.48280728E+03</pdfrwt>
<pdfrwt beam="2">  1       -2 0.38008608E-01 0.48280728E+03</pdfrwt>
<totfact> 0.11086867E+03</totfact>
</mgrwt>
</event>
<event>
 4    1  0.2892809E-005  0.4501830E+03  0.7818608E-02  0.1027667E+00
          2   -1    0    0  501    0  0.00000000000E+00  0.00000000000E+00  0.33943124609E+03  0.33943124610E+03  0.25500000000E-02 0.  1.
         -2   -1    0    0    0  501 -0.00000000000E+00 -0.00000000000E+00 -0.14926791232E+03  0.14926791234E+03  0.25500000000E-02 0. -1.
    5000001    1    1    2    0    0 -0.79877205295E+02 -0.82673339694E+02  0.12138137707E+03  0.25458336105E+03  0.19200000000E+03 0.  0.
   -5000001    1    1    2    0    0  0.79877205295E+02  0.82673339694E+02  0.68781956696E+02  0.23411579739E+03  0.19200000000E+03 0.  0.
<mgrwt>
<rscale>  0 0.45018304E+03</rscale>
<asrwt>0</asrwt>
<pdfrwt beam="1">  1        2 0.48490179E-01 0.45018304E+03</pdfrwt>
<pdfrwt beam="2">  1       -2 0.21323987E-01 0.45018304E+03</pdfrwt>
<totfact> 0.19645820E+03</totfact>
</mgrwt>
</event>
<event>
 4    1  0.2892809E-005  0.4991688E+03  0.7818608E-02  0.1013996E+00
          2   -1    0    0  501    0  0.00000000000E+00  0.00000000000E+00  0.40407490693E+03  0.40407490693E+03  0.25500000000E-02 0.  1.
         -2   -1    0    0    0  501 -0.00000000000E+00 -0.00000000000E+00 -0.15416048405E+03  0.15416048407E+03  0.25500000000E-02 0. -1.
    5000001    1    1    2    0    0 -0.16317623794E+02  0.14834693588E+03  0.62138276111E+02  0.25099450908E+03  0.19200000000E+03 0.  0.
   -5000001    1    1    2    0    0  0.16317623794E+02 -0.14834693588E+03  0.18777614676E+03  0.30724088192E+03  0.19200000000E+03 0.  0.
<mgrwt>
<rscale>  0 0.49916884E+03</rscale>
<asrwt>0</asrwt>
<pdfrwt beam="1">  1        2 0.57724985E-01 0.49916884E+03</pdfrwt>
<pdfrwt beam="2">  1       -2 0.22022927E-01 0.49916884E+03</pdfrwt>
<totfact> 0.15338381E+03</totfact>
</mgrwt>
</event>
<event>
 4    1  0.2892809E-005  0.6063248E+03  0.7818608E-02  0.9892370E-01
          2   -1    0    0  501    0  0.00000000000E+00  0.00000000000E+00  0.34034676104E+03  0.34034676105E+03  0.25500000000E-02 0.  1.
         -2   -1    0    0    0  501 -0.00000000000E+00 -0.00000000000E+00 -0.27004061624E+03  0.27004061625E+03  0.25500000000E-02 0. -1.
    5000001    1    1    2    0    0 -0.10171425099E+03  0.15851962289E+03  0.17598029374E+03  0.32141456638E+03  0.19200000000E+03 0.  0.
   -5000001    1    1    2    0    0  0.10171425099E+03 -0.15851962289E+03 -0.10567414894E+03  0.28897281092E+03  0.19200000000E+03 0.  0.
<mgrwt>
<rscale>  0 0.60632483E+03</rscale>
<asrwt>0</asrwt>
<pdfrwt beam="1">  1        2 0.48620966E-01 0.60632483E+03</pdfrwt>
<pdfrwt beam="2">  1       -2 0.38577231E-01 0.60632483E+03</pdfrwt>
<totfact> 0.66149457E+02</totfact>
</mgrwt>
</event>
<event>
 4    1  0.2892809E-005  0.5473865E+03  0.7818608E-02  0.1002101E+00
          2   -1    0    0  501    0  0.00000000000E+00  0.00000000000E+00  0.15790121969E+04  0.15790121969E+04  0.25500000000E-02 0.  1.
         -2   -1    0    0    0  501 -0.00000000000E+00 -0.00000000000E+00 -0.47439788705E+02  0.47439788774E+02  0.25500000000E-02 0. -1.
    5000001    1    1    2    0    0 -0.12236682257E+03  0.14642059809E+03  0.64577440826E+03  0.70021512207E+03  0.19200000000E+03 0.  0.
   -5000001    1    1    2    0    0  0.12236682257E+03 -0.14642059809E+03  0.88579799992E+03  0.92623686359E+03  0.19200000000E+03 0.  0.
<mgrwt>
<rscale>  0 0.54738654E+03</rscale>
<asrwt>0</asrwt>
<pdfrwt beam="1">  1        2 0.22557311E+00 0.54738654E+03</pdfrwt>
<pdfrwt beam="2">  1       -2 0.67771144E-02 0.54738654E+03</pdfrwt>
<totfact> 0.17292241E+03</totfact>
</mgrwt>
</event>
<event>
 4    1  0.2892809E-005  0.5041621E+03  0.7818608E-02  0.1012698E+00
         -2   -1    0    0    0  501 -0.00000000000E+00  0.00000000000E+00  0.69252386408E+02  0.69252386455E+02  0.25500000000E-02 0. -1.
          2   -1    0    0  501    0  0.00000000000E+00 -0.00000000000E+00 -0.91758361152E+03  0.91758361153E+03  0.25500000000E-02 0.  1.
    5000001    1    1    2    0    0  0.27266314890E+02 -0.15470568755E+03 -0.51177995930E+03  0.56873546436E+03  0.19200000000E+03 0.  0.
   -5000001    1    1    2    0    0 -0.27266314890E+02  0.15470568755E+03 -0.33655126582E+03  0.41810053362E+03  0.19200000000E+03 0.  0.
<mgrwt>
<rscale>  0 0.50416210E+03</rscale>
<asrwt>0</asrwt>
<pdfrwt beam="1">  1        2 0.13108337E+00 0.50416210E+03</pdfrwt>
<pdfrwt beam="2">  1       -2 0.98931986E-02 0.50416210E+03</pdfrwt>
<totfact> 0.22136351E+03</totfact>
</mgrwt>
</event>
<event>
 4    1  0.2892809E-005  0.6478635E+03  0.7818608E-02  0.9810796E-01
         -2   -1    0    0    0  501 -0.00000000000E+00  0.00000000000E+00  0.12094648675E+03  0.12094648677E+03  0.25500000000E-02 0. -1.
          2   -1    0    0  501    0  0.00000000000E+00 -0.00000000000E+00 -0.86758849937E+03  0.86758849938E+03  0.25500000000E-02 0.  1.
    5000001    1    1    2    0    0 -0.25590385995E+03 -0.27361469519E+02 -0.43863589613E+03  0.54359993095E+03  0.19200000000E+03 0.  0.
   -5000001    1    1    2    0    0  0.25590385995E+03  0.27361469519E+02 -0.30800611650E+03  0.44493505521E+03  0.19200000000E+03 0.  0.
<mgrwt>
<rscale>  0 0.64786351E+03</rscale>
<asrwt>0</asrwt>
<pdfrwt beam="1">  1        2 0.12394121E+00 0.64786351E+03</pdfrwt>
<pdfrwt beam="2">  1       -2 0.17278070E-01 0.64786351E+03</pdfrwt>
<totfact> 0.94344910E+02</totfact>
</mgrwt>
</event>
<event>
 4    1  0.2892809E-005  0.5350233E+03  0.7818608E-02  0.1005021E+00
         -2   -1    0    0    0  501 -0.00000000000E+00  0.00000000000E+00  0.16118755141E+03  0.16118755143E+03  0.25500000000E-02 0. -1.
          2   -1    0    0  501    0  0.00000000000E+00 -0.00000000000E+00 -0.44397025206E+03  0.44397025207E+03  0.25500000000E-02 0.  1.
    5000001    1    1    2    0    0 -0.13712261789E+03  0.72910439985E+02 -0.25049110357E+02  0.24821362277E+03  0.19200000000E+03 0.  0.
   -5000001    1    1    2    0    0  0.13712261789E+03 -0.72910439985E+02 -0.25773359029E+03  0.35694418074E+03  0.19200000000E+03 0.  0.
<mgrwt>
<rscale>  0 0.53502328E+03</rscale>
<asrwt>0</asrwt>
<pdfrwt beam="1">  1        2 0.63424321E-01 0.53502328E+03</pdfrwt>
<pdfrwt beam="2">  1       -2 0.23026793E-01 0.53502328E+03</pdfrwt>
<totfact> 0.12771726E+03</totfact>
</mgrwt>
</event>
<event>
 4    1  0.2892809E-005  0.7348870E+03  0.7818608E-02  0.9659363E-01
          2   -1    0    0  501    0  0.00000000000E+00  0.00000000000E+00  0.57485883387E+03  0.57485883388E+03  0.25500000000E-02 0.  1.
         -2   -1    0    0    0  501 -0.00000000000E+00 -0.00000000000E+00 -0.23486590364E+03  0.23486590366E+03  0.25500000000E-02 0. -1.
    5000001    1    1    2    0    0  0.68995690147E+02 -0.13600831191E+03 -0.13153646454E+03  0.27825259688E+03  0.19200000000E+03 0.  0.
   -5000001    1    1    2    0    0 -0.68995690147E+02  0.13600831191E+03  0.47152939476E+03  0.53147214066E+03  0.19200000000E+03 0.  0.
<mgrwt>
<rscale>  0 0.73488704E+03</rscale>
<asrwt>0</asrwt>
<pdfrwt beam="1">  1        2 0.82122691E-01 0.73488704E+03</pdfrwt>
<pdfrwt beam="2">  1       -2 0.33552272E-01 0.73488704E+03</pdfrwt>
<totfact> 0.47626117E+02</totfact>
</mgrwt>
</event>
<event>
 4    1  0.2892809E-005  0.4359599E+03  0.7818608E-02  0.1031994E+00
          2   -1    0    0  501    0  0.00000000000E+00  0.00000000000E+00  0.23949336097E+03  0.23949336099E+03  0.25500000000E-02 0.  1.
         -2   -1    0    0    0  501 -0.00000000000E+00 -0.00000000000E+00 -0.19839902101E+03  0.19839902103E+03  0.25500000000E-02 0. -1.
    5000001    1    1    2    0    0  0.96869812660E+02  0.16630808370E+02 -0.11070996114E+02  0.21597896043E+03  0.19200000000E+03 0.  0.
   -5000001    1    1    2    0    0 -0.96869812660E+02 -0.16630808370E+02  0.52165336079E+02  0.22191342159E+03  0.19200000000E+03 0.  0.
<mgrwt>
<rscale>  0 0.43595985E+03</rscale>
<asrwt>0</asrwt>
<pdfrwt beam="1">  1        2 0.34213337E-01 0.43595985E+03</pdfrwt>
<pdfrwt beam="2">  1       -2 0.28342717E-01 0.43595985E+03</pdfrwt>
<totfact> 0.17346894E+03</totfact>
</mgrwt>
</event>
<event>
 4    1  0.2892809E-005  0.5500074E+03  0.7818608E-02  0.1001492E+00
         -2   -1    0    0    0  501 -0.00000000000E+00  0.00000000000E+00  0.95026657828E+02  0.95026657862E+02  0.25500000000E-02 0. -1.
          2   -1    0    0  501    0  0.00000000000E+00 -0.00000000000E+00 -0.79585081133E+03  0.79585081133E+03  0.25500000000E-02 0.  1.
    5000001    1    1    2    0    0 -0.14494758546E+03 -0.10544778542E+03 -0.21848397603E+03  0.34165521475E+03  0.19200000000E+03 0.  0.
   -5000001    1    1    2    0    0  0.14494758546E+03  0.10544778542E+03 -0.48234017747E+03  0.54922225445E+03  0.19200000000E+03 0.  0.
<mgrwt>
<rscale>  0 0.55000743E+03</rscale>
<asrwt>0</asrwt>
<pdfrwt beam="1">  1        2 0.11369297E+00 0.55000743E+03</pdfrwt>
<pdfrwt beam="2">  1       -2 0.13575237E-01 0.55000743E+03</pdfrwt>
<totfact> 0.15875055E+03</totfact>
</mgrwt>
</event>
<event>
 4    1  0.2892809E-005  0.5312055E+03  0.7818608E-02  0.1005940E+00
          2   -1    0    0  501    0  0.00000000000E+00  0.00000000000E+00  0.81666000271E+03  0.81666000271E+03  0.25500000000E-02 0.  1.
         -2   -1    0    0    0  501 -0.00000000000E+00 -0.00000000000E+00 -0.86382123294E+02  0.86382123332E+02  0.25500000000E-02 0. -1.
    5000001    1    1    2    0    0 -0.11515046620E+03 -0.10363692431E+03  0.53240051902E+03  0.58678322625E+03  0.19200000000E+03 0.  0.
   -5000001    1    1    2    0    0  0.11515046620E+03  0.10363692431E+03  0.19787736039E+03  0.31625889980E+03  0.19200000000E+03 0.  0.
<mgrwt>
<rscale>  0 0.53120552E+03</rscale>
<asrwt>0</asrwt>
<pdfrwt beam="1">  1        2 0.11666572E+00 0.53120552E+03</pdfrwt>
<pdfrwt beam="2">  1       -2 0.12340303E-01 0.53120552E+03</pdfrwt>
<totfact> 0.17988183E+03</totfact>
</mgrwt>
</event>
<event>
 4    1  0.2892809E-005  0.5395338E+03  0.7818608E-02  0.1003946E+00
          2   -1    0    0  501    0  0.00000000000E+00  0.00000000000E+00  0.58074019413E+03  0.58074019413E+03  0.25500000000E-02 0.  1.
         -2   -1    0    0    0  501 -0.00000000000E+00 -0.00000000000E+00 -0.12531279145E+03  0.12531279148E+03  0.25500000000E-02 0. -1.
    5000001    1    1    2    0    0  0.60029497845E+02 -0.15618992419E+03  0.11131618122E+03  0.27794626321E+03  0.19200000000E+03 0.  0.
   -5000001    1    1    2    0    0 -0.60029497845E+02  0.15618992419E+03  0.34411122145E+03  0.42810672240E+03  0.19200000000E+03 0.  0.
<mgrwt>
<rscale>  0 0.53953378E+03</rscale>
<asrwt>0</asrwt>
<pdfrwt beam="1">  1        2 0.82962887E-01 0.53953378E+03</pdfrwt>
<pdfrwt beam="2">  1       -2 0.17901827E-01 0.53953378E+03</pdfrwt>
<totfact> 0.14585040E+03</totfact>
</mgrwt>
</event>
<event>
 4    1  0.2892809E-005  0.6852629E+03  0.7818608E-02  0.9742772E-01
         -2   -1    0    0    0  501 -0.00000000000E+00  0.00000000000E+00  0.62301688193E+02  0.62301688246E+02  0.25500000000E-02 0. -1.
          2   -1    0    0  501    0  0.00000000000E+00 -0.00000000000E+00 -0.18843201128E+04  0.18843201128E+04  0.25500000000E-02 0.  1.
    5000001    1    1    2    0    0 -0.17929506720E+03  0.20580778254E+03 -0.11315750891E+04  0.11797583425E+04  0.19200000000E+03 0.  0.
   -5000001    1    1    2    0    0  0.17929506720E+03 -0.20580778254E+03 -0.69044333550E+03  0.76686345852E+03  0.19200000000E+03 0.  0.
<mgrwt>
<rscale>  0 0.68526294E+03</rscale>
<asrwt>0</asrwt>
<pdfrwt beam="1">  1        2 0.26918855E+00 0.68526294E+03</pdfrwt>
<pdfrwt beam="2">  1       -2 0.89002424E-02 0.68526294E+03</pdfrwt>
<totfact> 0.77901605E+02</totfact>
</mgrwt>
</event>
