<event>
 4    1  0.8641621E-005  0.5839045E+03  0.7818608E-02  0.9939373E-01
          2   -1    0    0  501    0  0.00000000000E+00  0.00000000000E+00  0.92359005511E+03  0.92359005512E+03  0.25500000000E-02 0.  1.
         -2   -1    0    0    0  501 -0.00000000000E+00 -0.00000000000E+00 -0.92287832734E+02  0.92287832770E+02  0.25500000000E-02 0. -1.
    5000001    1    1    2    0    0 -0.18054049445E+03  0.14138852416E+03  0.54380185595E+03  0.61280587745E+03  0.16500000000E+03 0.  0.
   -5000001    1    1    2    0    0  0.18054049445E+03 -0.14138852416E+03  0.28750036642E+03  0.40307201043E+03  0.16500000000E+03 0.  0.
<mgrwt>
<rscale>  0 0.58390453E+03</rscale>
<asrwt>0</asrwt>
<pdfrwt beam="1">  1        2 0.14209078E+00 0.58390453E+03</pdfrwt>
<pdfrwt beam="2">  1       -2 0.14198128E-01 0.58390453E+03</pdfrwt>
<totfact> 0.10939888E+03</totfact>
</mgrwt>
</event>
<event>
 4    1  0.8641621E-005  0.3689323E+03  0.7818608E-02  0.1055102E+00
         -2   -1    0    0    0  501 -0.00000000000E+00  0.00000000000E+00  0.19849422439E+02  0.19849422602E+02  0.25500000000E-02 0. -1.
          2   -1    0    0  501    0  0.00000000000E+00 -0.00000000000E+00 -0.17142945121E+04  0.17142945121E+04  0.25500000000E-02 0.  1.
    5000001    1    1    2    0    0  0.48061303274E+02  0.66901601748E+02 -0.86662739747E+03  0.88603259491E+03  0.16500000000E+03 0.  0.
   -5000001    1    1    2    0    0 -0.48061303274E+02 -0.66901601748E+02 -0.82781769215E+03  0.84811133976E+03  0.16500000000E+03 0.  0.
<mgrwt>
<rscale>  0 0.36893228E+03</rscale>
<asrwt>0</asrwt>
<pdfrwt beam="1">  1        2 0.26373750E+00 0.36893228E+03</pdfrwt>
<pdfrwt beam="2">  1       -2 0.30537587E-02 0.36893228E+03</pdfrwt>
<totfact> 0.43319304E+03</totfact>
</mgrwt>
</event>
<event>
 4    1  0.8641621E-005  0.5457388E+03  0.7818608E-02  0.1002485E+00
         -2   -1    0    0    0  501 -0.00000000000E+00  0.00000000000E+00  0.10944172372E+03  0.10944172375E+03  0.25500000000E-02 0. -1.
          2   -1    0    0  501    0  0.00000000000E+00 -0.00000000000E+00 -0.68034110447E+03  0.68034110448E+03  0.25500000000E-02 0.  1.
    5000001    1    1    2    0    0  0.18159602980E+03  0.18658295151E+02 -0.45611555956E+03  0.51825828859E+03  0.16500000000E+03 0.  0.
   -5000001    1    1    2    0    0 -0.18159602980E+03 -0.18658295151E+02 -0.11478382119E+03  0.27152453964E+03  0.16500000000E+03 0.  0.
<mgrwt>
<rscale>  0 0.54573878E+03</rscale>
<asrwt>0</asrwt>
<pdfrwt beam="1">  1        2 0.10466786E+00 0.54573878E+03</pdfrwt>
<pdfrwt beam="2">  1       -2 0.16837189E-01 0.54573878E+03</pdfrwt>
<totfact> 0.12255724E+03</totfact>
</mgrwt>
</event>
<event>
 4    1  0.8641621E-005  0.4183215E+03  0.7818608E-02  0.1037614E+00
         -2   -1    0    0    0  501 -0.00000000000E+00  0.00000000000E+00  0.42327888536E+02  0.42327888613E+02  0.25500000000E-02 0. -1.
          2   -1    0    0  501    0  0.00000000000E+00 -0.00000000000E+00 -0.10335555958E+04  0.10335555958E+04  0.25500000000E-02 0.  1.
    5000001    1    1    2    0    0 -0.89898676093E+02 -0.91723705907E+02 -0.50927546875E+03  0.55052839459E+03  0.16500000000E+03 0.  0.
   -5000001    1    1    2    0    0  0.89898676093E+02  0.91723705907E+02 -0.48195223851E+03  0.52535508981E+03  0.16500000000E+03 0.  0.
<mgrwt>
<rscale>  0 0.41832153E+03</rscale>
<asrwt>0</asrwt>
<pdfrwt beam="1">  1        2 0.15900853E+00 0.41832153E+03</pdfrwt>
<pdfrwt beam="2">  1       -2 0.65119836E-02 0.41832153E+03</pdfrwt>
<totfact> 0.32768095E+03</totfact>
</mgrwt>
</event>
<event>
 4    1  0.8641621E-005  0.6228174E+03  0.7818608E-02  0.9859166E-01
          2   -1    0    0  501    0  0.00000000000E+00  0.00000000000E+00  0.43682558404E+03  0.43682558405E+03  0.25500000000E-02 0.  1.
         -2   -1    0    0    0  501 -0.00000000000E+00 -0.00000000000E+00 -0.22200019512E+03  0.22200019514E+03  0.25500000000E-02 0. -1.
    5000001    1    1    2    0    0 -0.17307240106E+03 -0.19659885781E+03  0.14320998586E+03  0.34108542471E+03  0.16500000000E+03 0.  0.
   -5000001    1    1    2    0    0  0.17307240106E+03  0.19659885781E+03  0.71615403064E+02  0.31774035447E+03  0.16500000000E+03 0.  0.
<mgrwt>
<rscale>  0 0.62281736E+03</rscale>
<asrwt>0</asrwt>
<pdfrwt beam="1">  1        2 0.67203935E-01 0.62281736E+03</pdfrwt>
<pdfrwt beam="2">  1       -2 0.34153877E-01 0.62281736E+03</pdfrwt>
<totfact> 0.58150488E+02</totfact>
</mgrwt>
</event>
<event>
 4    1  0.8641621E-005  0.4583432E+03  0.7818608E-02  0.1025263E+00
         -2   -1    0    0    0  501 -0.00000000000E+00  0.00000000000E+00  0.11684461389E+03  0.11684461392E+03  0.25500000000E-02 0. -1.
          2   -1    0    0  501    0  0.00000000000E+00 -0.00000000000E+00 -0.44948262921E+03  0.44948262922E+03  0.25500000000E-02 0.  1.
    5000001    1    1    2    0    0 -0.67972835541E+02 -0.66472651454E+01  0.11152097528E+02  0.17892417887E+03  0.16500000000E+03 0.  0.
   -5000001    1    1    2    0    0  0.67972835541E+02  0.66472651454E+01 -0.34379011285E+03  0.38740306426E+03  0.16500000000E+03 0.  0.
<mgrwt>
<rscale>  0 0.45834321E+03</rscale>
<asrwt>0</asrwt>
<pdfrwt beam="1">  1        2 0.69151173E-01 0.45834321E+03</pdfrwt>
<pdfrwt beam="2">  1       -2 0.17976095E-01 0.45834321E+03</pdfrwt>
<totfact> 0.17817718E+03</totfact>
</mgrwt>
</event>
<event>
 4    1  0.8641621E-005  0.6560361E+03  0.7818608E-02  0.9795518E-01
         -2   -1    0    0    0  501 -0.00000000000E+00  0.00000000000E+00  0.42333228495E+02  0.42333228572E+02  0.25500000000E-02 0. -1.
          2   -1    0    0  501    0  0.00000000000E+00 -0.00000000000E+00 -0.25416406461E+04  0.25416406461E+04  0.25500000000E-02 0.  1.
    5000001    1    1    2    0    0 -0.27732978472E+03 -0.16702812480E+02 -0.14717688021E+04  0.15068242102E+04  0.16500000000E+03 0.  0.
   -5000001    1    1    2    0    0  0.27732978472E+03  0.16702812480E+02 -0.10275386154E+04  0.10771496644E+04  0.16500000000E+03 0.  0.
<mgrwt>
<rscale>  0 0.65603614E+03</rscale>
<asrwt>0</asrwt>
<pdfrwt beam="1">  1        2 0.39102152E+00 0.65603614E+03</pdfrwt>
<pdfrwt beam="2">  1       -2 0.65128064E-02 0.65603614E+03</pdfrwt>
<totfact> 0.47081584E+02</totfact>
</mgrwt>
</event>
<event>
 4    1  0.8641621E-005  0.4447542E+03  0.7818608E-02  0.1029298E+00
          2   -1    0    0  501    0  0.00000000000E+00  0.00000000000E+00  0.17403575117E+04  0.17403575117E+04  0.25500000000E-02 0.  1.
         -2   -1    0    0    0  501 -0.00000000000E+00 -0.00000000000E+00 -0.28414611705E+02  0.28414611819E+02  0.25500000000E-02 0. -1.
    5000001    1    1    2    0    0 -0.13897763421E+03  0.23286320200E+02  0.10495621544E+04  0.10717568528E+04  0.16500000000E+03 0.  0.
   -5000001    1    1    2    0    0  0.13897763421E+03 -0.23286320200E+02  0.66238074557E+03  0.69701527073E+03  0.16500000000E+03 0.  0.
<mgrwt>
<rscale>  0 0.44475424E+03</rscale>
<asrwt>0</asrwt>
<pdfrwt beam="1">  1        2 0.26774728E+00 0.44475424E+03</pdfrwt>
<pdfrwt beam="2">  1       -2 0.43714793E-02 0.44475424E+03</pdfrwt>
<totfact> 0.24308440E+03</totfact>
</mgrwt>
</event>
<event>
 4    1  0.8641621E-005  0.4876318E+03  0.7818608E-02  0.1017059E+00
         -2   -1    0    0    0  501 -0.00000000000E+00  0.00000000000E+00  0.89526637186E+02  0.89526637223E+02  0.25500000000E-02 0. -1.
          2   -1    0    0  501    0  0.00000000000E+00 -0.00000000000E+00 -0.66400566803E+03  0.66400566804E+03  0.25500000000E-02 0.  1.
    5000001    1    1    2    0    0 -0.16394942502E+03  0.38168008411E+02 -0.38355684930E+03  0.45019669865E+03  0.16500000000E+03 0.  0.
   -5000001    1    1    2    0    0  0.16394942502E+03 -0.38168008411E+02 -0.19092218155E+03  0.30333560661E+03  0.16500000000E+03 0.  0.
<mgrwt>
<rscale>  0 0.48763181E+03</rscale>
<asrwt>0</asrwt>
<pdfrwt beam="1">  1        2 0.10215472E+00 0.48763181E+03</pdfrwt>
<pdfrwt beam="2">  1       -2 0.13773329E-01 0.48763181E+03</pdfrwt>
<totfact> 0.17707185E+03</totfact>
</mgrwt>
</event>
<event>
 4    1  0.8641621E-005  0.4032839E+03  0.7818608E-02  0.1042648E+00
         -2   -1    0    0    0  501 -0.00000000000E+00  0.00000000000E+00  0.17697472583E+02  0.17697472767E+02  0.25500000000E-02 0. -1.
          2   -1    0    0  501    0  0.00000000000E+00 -0.00000000000E+00 -0.22974736543E+04  0.22974736543E+04  0.25500000000E-02 0.  1.
    5000001    1    1    2    0    0 -0.84484390958E+02  0.54851484385E+02 -0.14690806195E+04  0.14817453101E+04  0.16500000000E+03 0.  0.
   -5000001    1    1    2    0    0  0.84484390958E+02 -0.54851484385E+02 -0.81069556221E+03  0.83342581688E+03  0.16500000000E+03 0.  0.
<mgrwt>
<rscale>  0 0.40328391E+03</rscale>
<asrwt>0</asrwt>
<pdfrwt beam="1">  1        2 0.35345725E+00 0.40328391E+03</pdfrwt>
<pdfrwt beam="2">  1       -2 0.27226899E-02 0.40328391E+03</pdfrwt>
<totfact> 0.25062735E+03</totfact>
</mgrwt>
</event>
<event>
 4    1  0.8641621E-005  0.3737390E+03  0.7818608E-02  0.1053272E+00
         -2   -1    0    0    0  501 -0.00000000000E+00  0.00000000000E+00  0.38209635074E+02  0.38209635159E+02  0.25500000000E-02 0. -1.
          2   -1    0    0  501    0  0.00000000000E+00 -0.00000000000E+00 -0.91391134154E+03  0.91391134155E+03  0.25500000000E-02 0.  1.
    5000001    1    1    2    0    0  0.67387483603E+02 -0.38442258467E+02 -0.54215571360E+03  0.57199361707E+03  0.16500000000E+03 0.  0.
   -5000001    1    1    2    0    0 -0.67387483603E+02  0.38442258467E+02 -0.33354599287E+03  0.38012735963E+03  0.16500000000E+03 0.  0.
<mgrwt>
<rscale>  0 0.37373905E+03</rscale>
<asrwt>0</asrwt>
<pdfrwt beam="1">  1        2 0.14060173E+00 0.37373905E+03</pdfrwt>
<pdfrwt beam="2">  1       -2 0.58784061E-02 0.37373905E+03</pdfrwt>
<totfact> 0.45662978E+03</totfact>
</mgrwt>
</event>
<event>
 4    1  0.8641621E-005  0.3641227E+03  0.7818608E-02  0.1056963E+00
         -2   -1    0    0    0  501 -0.00000000000E+00  0.00000000000E+00  0.29456415822E+02  0.29456415933E+02  0.25500000000E-02 0.  1.
          2   -1    0    0  501    0  0.00000000000E+00 -0.00000000000E+00 -0.11252670002E+04  0.11252670002E+04  0.25500000000E-02 0. -1.
    5000001    1    1    2    0    0 -0.33051603016E+02  0.67651657477E+02 -0.59826502450E+03  0.62515213729E+03  0.16500000000E+03 0.  0.
   -5000001    1    1    2    0    0  0.33051603016E+02 -0.67651657477E+02 -0.49754555987E+03  0.52957127883E+03  0.16500000000E+03 0.  0.
<mgrwt>
<rscale>  0 0.36412269E+03</rscale>
<asrwt>0</asrwt>
<pdfrwt beam="1">  1        2 0.17311797E+00 0.36412269E+03</pdfrwt>
<pdfrwt beam="2">  1       -2 0.45317572E-02 0.36412269E+03</pdfrwt>
<totfact> 0.50419235E+03</totfact>
</mgrwt>
</event>
<event>
 4    1  0.8641621E-005  0.3553582E+03  0.7818608E-02  0.1060437E+00
         -2   -1    0    0    0  501 -0.00000000000E+00  0.00000000000E+00  0.35838465303E+03  0.35838465304E+03  0.25500000000E-02 0. -1.
          2   -1    0    0  501    0  0.00000000000E+00 -0.00000000000E+00 -0.88089350730E+02  0.88089350766E+02  0.25500000000E-02 0.  1.
    5000001    1    1    2    0    0 -0.63865636567E+02 -0.44996900550E+01  0.15484577362E+03  0.23516224261E+03  0.16500000000E+03 0.  0.
   -5000001    1    1    2    0    0  0.63865636567E+02  0.44996900550E+01  0.11544952869E+03  0.21131176119E+03  0.16500000000E+03 0.  0.
<mgrwt>
<rscale>  0 0.35535825E+03</rscale>
<asrwt>0</asrwt>
<pdfrwt beam="1">  1        2 0.13552208E-01 0.35535825E+03</pdfrwt>
<pdfrwt beam="2">  1       -2 0.55136101E-01 0.35535825E+03</pdfrwt>
<totfact> 0.13948739E+03</totfact>
</mgrwt>
</event>
<event>
 4    1  0.8641621E-005  0.5766506E+03  0.7818608E-02  0.9955069E-01
         -2   -1    0    0    0  501 -0.00000000000E+00  0.00000000000E+00  0.62508026945E+02  0.62508026997E+02  0.25500000000E-02 0. -1.
          2   -1    0    0  501    0  0.00000000000E+00 -0.00000000000E+00 -0.13299326455E+04  0.13299326455E+04  0.25500000000E-02 0.  1.
    5000001    1    1    2    0    0 -0.70072351071E+02  0.16773439988E+03 -0.26860849536E+03  0.36389625866E+03  0.16500000000E+03 0.  0.
   -5000001    1    1    2    0    0  0.70072351071E+02 -0.16773439988E+03 -0.99881612321E+03  0.10285444139E+04  0.16500000000E+03 0.  0.
<mgrwt>
<rscale>  0 0.57665056E+03</rscale>
<asrwt>0</asrwt>
<pdfrwt beam="1">  1        2 0.20460500E+00 0.57665056E+03</pdfrwt>
<pdfrwt beam="2">  1       -2 0.96166205E-02 0.57665056E+03</pdfrwt>
<totfact> 0.11789259E+03</totfact>
</mgrwt>
</event>
<event>
 4    1  0.8641621E-005  0.3670959E+03  0.7818608E-02  0.1055809E+00
         -2   -1    0    0    0  501 -0.00000000000E+00  0.00000000000E+00  0.52900129154E+02  0.52900129215E+02  0.25500000000E-02 0. -1.
          2   -1    0    0  501    0  0.00000000000E+00 -0.00000000000E+00 -0.63685749157E+03  0.63685749158E+03  0.25500000000E-02 0.  1.
    5000001    1    1    2    0    0 -0.64911952799E+02 -0.42888826172E+02 -0.33010951449E+03  0.37716084710E+03  0.16500000000E+03 0.  0.
   -5000001    1    1    2    0    0  0.64911952799E+02  0.42888826172E+02 -0.25384784792E+03  0.31259677369E+03  0.16500000000E+03 0.  0.
<mgrwt>
<rscale>  0 0.36709587E+03</rscale>
<asrwt>0</asrwt>
<pdfrwt beam="1">  1        2 0.97978070E-01 0.36709587E+03</pdfrwt>
<pdfrwt beam="2">  1       -2 0.81384819E-02 0.36709587E+03</pdfrwt>
<totfact> 0.43483118E+03</totfact>
</mgrwt>
</event>
<event>
 4    1  0.8641621E-005  0.8396325E+03  0.7818608E-02  0.9504358E-01
          2   -1    0    0  501    0  0.00000000000E+00  0.00000000000E+00  0.42080846416E+03  0.42080846417E+03  0.25500000000E-02 0.  1.
         -2   -1    0    0    0  501 -0.00000000000E+00 -0.00000000000E+00 -0.41882636952E+03  0.41882636953E+03  0.25500000000E-02 0. -1.
    5000001    1    1    2    0    0 -0.22041779828E+03 -0.21428080932E+02 -0.31520204245E+03  0.41907099162E+03  0.16500000000E+03 0.  0.
   -5000001    1    1    2    0    0  0.22041779828E+03  0.21428080932E+02  0.31718413708E+03  0.42056384208E+03  0.16500000000E+03 0.  0.
<mgrwt>
<rscale>  0 0.83963249E+03</rscale>
<asrwt>0</asrwt>
<pdfrwt beam="1">  1        2 0.64739763E-01 0.83963249E+03</pdfrwt>
<pdfrwt beam="2">  1       -2 0.64434827E-01 0.83963249E+03</pdfrwt>
<totfact> 0.16808648E+02</totfact>
</mgrwt>
</event>
<event>
 4    1  0.8641621E-005  0.5977780E+03  0.7818608E-02  0.9910027E-01
          2   -1    0    0  501    0  0.00000000000E+00  0.00000000000E+00  0.23579410496E+03  0.23579410497E+03  0.25500000000E-02 0.  1.
         -2   -1    0    0    0  501 -0.00000000000E+00 -0.00000000000E+00 -0.37886707539E+03  0.37886707540E+03  0.25500000000E-02 0. -1.
    5000001    1    1    2    0    0 -0.13956766722E+03  0.20616413717E+03 -0.83116794606E+02  0.31002610654E+03  0.16500000000E+03 0.  0.
   -5000001    1    1    2    0    0  0.13956766722E+03 -0.20616413717E+03 -0.59956175825E+02  0.30463507383E+03  0.16500000000E+03 0.  0.
<mgrwt>
<rscale>  0 0.59777796E+03</rscale>
<asrwt>0</asrwt>
<pdfrwt beam="1">  1        2 0.36276016E-01 0.59777796E+03</pdfrwt>
<pdfrwt beam="2">  1       -2 0.58287242E-01 0.59777796E+03</pdfrwt>
<totfact> 0.39939179E+02</totfact>
</mgrwt>
</event>
<event>
 4    1  0.8641621E-005  0.4073984E+03  0.7818608E-02  0.1041248E+00
         -2   -1    0    0    0  501 -0.00000000000E+00  0.00000000000E+00  0.72846445233E+02  0.72846445277E+02  0.25500000000E-02 0. -1.
          2   -1    0    0  501    0  0.00000000000E+00 -0.00000000000E+00 -0.56960033155E+03  0.56960033156E+03  0.25500000000E-02 0.  1.
    5000001    1    1    2    0    0  0.95608685195E+02 -0.59137917919E+02 -0.31204442955E+03  0.37045248013E+03  0.16500000000E+03 0.  0.
   -5000001    1    1    2    0    0 -0.95608685195E+02  0.59137917919E+02 -0.18470945677E+03  0.27199429670E+03  0.16500000000E+03 0.  0.
<mgrwt>
<rscale>  0 0.40739838E+03</rscale>
<asrwt>0</asrwt>
<pdfrwt beam="1">  1        2 0.87630817E-01 0.40739838E+03</pdfrwt>
<pdfrwt beam="2">  1       -2 0.11207146E-01 0.40739838E+03</pdfrwt>
<totfact> 0.29790662E+03</totfact>
</mgrwt>
</event>
<event>
 4    1  0.8641621E-005  0.5266223E+03  0.7818608E-02  0.1007055E+00
          2   -1    0    0  501    0  0.00000000000E+00  0.00000000000E+00  0.23614034921E+04  0.23614034921E+04  0.25500000000E-02 0.  1.
         -2   -1    0    0    0  501 -0.00000000000E+00 -0.00000000000E+00 -0.29360828270E+02  0.29360828381E+02  0.25500000000E-02 0. -1.
    5000001    1    1    2    0    0 -0.15513312539E+03 -0.12488369026E+03  0.94151691472E+03  0.97639199269E+03  0.16500000000E+03 0.  0.
   -5000001    1    1    2    0    0  0.15513312539E+03  0.12488369026E+03  0.13905257491E+04  0.14143723278E+04  0.16500000000E+03 0.  0.
<mgrwt>
<rscale>  0 0.52662230E+03</rscale>
<asrwt>0</asrwt>
<pdfrwt beam="1">  1        2 0.36329278E+00 0.52662230E+03</pdfrwt>
<pdfrwt beam="2">  1       -2 0.45170513E-02 0.52662230E+03</pdfrwt>
<totfact> 0.10619979E+03</totfact>
</mgrwt>
</event>
<event>
 4    1  0.8641621E-005  0.7102306E+03  0.7818608E-02  0.9699895E-01
          2   -1    0    0  501    0  0.00000000000E+00  0.00000000000E+00  0.30232079629E+03  0.30232079630E+03  0.25500000000E-02 0.  1.
         -2   -1    0    0    0  501 -0.00000000000E+00 -0.00000000000E+00 -0.41712937413E+03  0.41712937414E+03  0.25500000000E-02 0. -1.
    5000001    1    1    2    0    0 -0.15009442700E+03  0.24013305704E+03 -0.19588907187E+03  0.38182424043E+03  0.16500000000E+03 0.  0.
   -5000001    1    1    2    0    0  0.15009442700E+03 -0.24013305704E+03  0.81080494032E+02  0.33762593001E+03  0.16500000000E+03 0.  0.
<mgrwt>
<rscale>  0 0.71023062E+03</rscale>
<asrwt>0</asrwt>
<pdfrwt beam="1">  1        2 0.46510892E-01 0.71023062E+03</pdfrwt>
<pdfrwt beam="2">  1       -2 0.64173750E-01 0.71023062E+03</pdfrwt>
<totfact> 0.24663041E+02</totfact>
</mgrwt>
</event>
<event>
 4    1  0.8641621E-005  0.5715732E+03  0.7818608E-02  0.9966203E-01
         -2   -1    0    0    0  501 -0.00000000000E+00  0.00000000000E+00  0.51838459374E+03  0.51838459375E+03  0.25500000000E-02 0. -1.
          2   -1    0    0  501    0  0.00000000000E+00 -0.00000000000E+00 -0.15755481392E+03  0.15755481394E+03  0.25500000000E-02 0.  1.
    5000001    1    1    2    0    0 -0.13843807247E+03  0.15153010831E+03  0.31169095784E+03  0.40804745659E+03  0.16500000000E+03 0.  0.
   -5000001    1    1    2    0    0  0.13843807247E+03 -0.15153010831E+03  0.49138821986E+02  0.26789195109E+03  0.16500000000E+03 0.  0.
<mgrwt>
<rscale>  0 0.57157323E+03</rscale>
<asrwt>0</asrwt>
<pdfrwt beam="1">  1        2 0.24239203E-01 0.57157323E+03</pdfrwt>
<pdfrwt beam="2">  1       -2 0.79751474E-01 0.57157323E+03</pdfrwt>
<totfact> 0.31956291E+02</totfact>
</mgrwt>
</event>
<event>
 4    1  0.8641621E-005  0.4227197E+03  0.7818608E-02  0.1036185E+00
          2   -1    0    0  501    0  0.00000000000E+00  0.00000000000E+00  0.18058412952E+04  0.18058412952E+04  0.25500000000E-02 0.  1.
         -2   -1    0    0    0  501 -0.00000000000E+00 -0.00000000000E+00 -0.24738047774E+02  0.24738047906E+02  0.25500000000E-02 0. -1.
    5000001    1    1    2    0    0  0.12045290772E+03 -0.53022064585E+02  0.84160645946E+03  0.86766737574E+03  0.16500000000E+03 0.  0.
   -5000001    1    1    2    0    0 -0.12045290772E+03  0.53022064585E+02  0.93949678798E+03  0.96291196738E+03  0.16500000000E+03 0.  0.
<mgrwt>
<rscale>  0 0.42271971E+03</rscale>
<asrwt>0</asrwt>
<pdfrwt beam="1">  1        2 0.27782179E+00 0.42271971E+03</pdfrwt>
<pdfrwt beam="2">  1       -2 0.38058528E-02 0.42271971E+03</pdfrwt>
<totfact> 0.27723033E+03</totfact>
</mgrwt>
</event>
<event>
 4    1  0.8641621E-005  0.4952622E+03  0.7818608E-02  0.1015023E+00
         -2   -1    0    0    0  501 -0.00000000000E+00  0.00000000000E+00  0.11310595463E+03  0.11310595466E+03  0.25500000000E-02 0. -1.
          2   -1    0    0  501    0  0.00000000000E+00 -0.00000000000E+00 -0.54215677921E+03  0.54215677921E+03  0.25500000000E-02 0.  1.
    5000001    1    1    2    0    0  0.94877214027E+02 -0.14918409437E+03 -0.28501596032E+03  0.37378694117E+03  0.16500000000E+03 0.  0.
   -5000001    1    1    2    0    0 -0.94877214027E+02  0.14918409437E+03 -0.14403486426E+03  0.28147579270E+03  0.16500000000E+03 0.  0.
<mgrwt>
<rscale>  0 0.49526219E+03</rscale>
<asrwt>0</asrwt>
<pdfrwt beam="1">  1        2 0.83408734E-01 0.49526219E+03</pdfrwt>
<pdfrwt beam="2">  1       -2 0.17400916E-01 0.49526219E+03</pdfrwt>
<totfact> 0.15210372E+03</totfact>
</mgrwt>
</event>
<event>
 4    1  0.8641621E-005  0.3924894E+03  0.7818608E-02  0.1046412E+00
         -2   -1    0    0    0  501 -0.00000000000E+00  0.00000000000E+00  0.34394957151E+02  0.34394957245E+02  0.25500000000E-02 0. -1.
          2   -1    0    0  501    0  0.00000000000E+00 -0.00000000000E+00 -0.11196983133E+04  0.11196983133E+04  0.25500000000E-02 0.  1.
    5000001    1    1    2    0    0  0.73436609466E+02  0.76766463119E+02 -0.53978554589E+03  0.57435133936E+03  0.16500000000E+03 0.  0.
   -5000001    1    1    2    0    0 -0.73436609466E+02 -0.76766463119E+02 -0.54551781024E+03  0.57974193117E+03  0.16500000000E+03 0.  0.
<mgrwt>
<rscale>  0 0.39248937E+03</rscale>
<asrwt>0</asrwt>
<pdfrwt beam="1">  1        2 0.17226125E+00 0.39248937E+03</pdfrwt>
<pdfrwt beam="2">  1       -2 0.52915327E-02 0.39248937E+03</pdfrwt>
<totfact> 0.40088307E+03</totfact>
</mgrwt>
</event>
<event>
 4    1  0.8641621E-005  0.9769688E+03  0.7818608E-02  0.9334172E-01
          2   -1    0    0  501    0  0.00000000000E+00  0.00000000000E+00  0.18585382758E+04  0.18585382758E+04  0.25500000000E-02 0.  1.
         -2   -1    0    0    0  501 -0.00000000000E+00 -0.00000000000E+00 -0.12838961340E+03  0.12838961342E+03  0.25500000000E-02 0. -1.
    5000001    1    1    2    0    0 -0.19098327930E+03 -0.40481341013E+03  0.65134959382E+03  0.80735977319E+03  0.16500000000E+03 0.  0.
   -5000001    1    1    2    0    0  0.19098327930E+03  0.40481341013E+03  0.10787990686E+04  0.11795681160E+04  0.16500000000E+03 0.  0.
<mgrwt>
<rscale>  0 0.97696880E+03</rscale>
<asrwt>0</asrwt>
<pdfrwt beam="1">  1        2 0.28592892E+00 0.97696880E+03</pdfrwt>
<pdfrwt beam="2">  1       -2 0.19752251E-01 0.97696880E+03</pdfrwt>
<totfact> 0.17526338E+02</totfact>
</mgrwt>
</event>
<event>
 4    1  0.8641621E-005  0.5825500E+03  0.7818608E-02  0.9942286E-01
         -2   -1    0    0    0  501 -0.00000000000E+00  0.00000000000E+00  0.67724410360E+02  0.67724410408E+02  0.25500000000E-02 0. -1.
          2   -1    0    0  501    0  0.00000000000E+00 -0.00000000000E+00 -0.12527405399E+04  0.12527405399E+04  0.25500000000E-02 0.  1.
    5000001    1    1    2    0    0 -0.15847962576E+03 -0.56727969750E+02 -0.20462930613E+03  0.31214100541E+03  0.16500000000E+03 0.  0.
   -5000001    1    1    2    0    0  0.15847962576E+03  0.56727969750E+02 -0.98038682340E+03  0.10083239449E+04  0.16500000000E+03 0.  0.
<mgrwt>
<rscale>  0 0.58254996E+03</rscale>
<asrwt>0</asrwt>
<pdfrwt beam="1">  1        2 0.19272930E+00 0.58254996E+03</pdfrwt>
<pdfrwt beam="2">  1       -2 0.10419141E-01 0.58254996E+03</pdfrwt>
<totfact> 0.11459995E+03</totfact>
</mgrwt>
</event>
<event>
 4    1  0.8641621E-005  0.3837251E+03  0.7818608E-02  0.1049565E+00
          2   -1    0    0  501    0  0.00000000000E+00  0.00000000000E+00  0.13254135592E+03  0.13254135594E+03  0.25500000000E-02 0.  1.
         -2   -1    0    0    0  501 -0.00000000000E+00 -0.00000000000E+00 -0.27773399923E+03  0.27773399924E+03  0.25500000000E-02 0. -1.
    5000001    1    1    2    0    0 -0.40706572950E+02  0.18479076525E+02  0.20538355214E+02  0.17217817918E+03  0.16500000000E+03 0.  0.
   -5000001    1    1    2    0    0  0.40706572950E+02 -0.18479076525E+02 -0.16573099853E+03  0.23809717601E+03  0.16500000000E+03 0.  0.
<mgrwt>
<rscale>  0 0.38372511E+03</rscale>
<asrwt>0</asrwt>
<pdfrwt beam="1">  1        2 0.20390978E-01 0.38372511E+03</pdfrwt>
<pdfrwt beam="2">  1       -2 0.42728307E-01 0.38372511E+03</pdfrwt>
<totfact> 0.14331053E+03</totfact>
</mgrwt>
</event>
<event>
 4    1  0.8641621E-005  0.6252766E+03  0.7818608E-02  0.9854310E-01
         -2   -1    0    0    0  501 -0.00000000000E+00  0.00000000000E+00  0.30456348844E+03  0.30456348845E+03  0.25500000000E-02 0. -1.
          2   -1    0    0  501    0  0.00000000000E+00 -0.00000000000E+00 -0.32092716871E+03  0.32092716872E+03  0.25500000000E-02 0.  1.
    5000001    1    1    2    0    0  0.25511374932E+03  0.70303938033E+02  0.14007486806E+02  0.31216482583E+03  0.16500000000E+03 0.  0.
   -5000001    1    1    2    0    0 -0.25511374932E+03 -0.70303938033E+02 -0.30371167084E+02  0.31332583134E+03  0.16500000000E+03 0.  0.
<mgrwt>
<rscale>  0 0.62527657E+03</rscale>
<asrwt>0</asrwt>
<pdfrwt beam="1">  1        2 0.49373410E-01 0.62527657E+03</pdfrwt>
<pdfrwt beam="2">  1       -2 0.46855922E-01 0.62527657E+03</pdfrwt>
<totfact> 0.44356954E+02</totfact>
</mgrwt>
</event>
<event>
 4    1  0.8641621E-005  0.6900664E+03  0.7818608E-02  0.9734372E-01
          2   -1    0    0  501    0  0.00000000000E+00  0.00000000000E+00  0.27360201172E+04  0.27360201172E+04  0.25500000000E-02 0.  1.
         -2   -1    0    0    0  501 -0.00000000000E+00 -0.00000000000E+00 -0.43511341243E+02  0.43511341317E+02  0.25500000000E-02 0. -1.
    5000001    1    1    2    0    0 -0.27004026930E+03 -0.13502495735E+03  0.14504692627E+04  0.14907178030E+04  0.16500000000E+03 0.  0.
   -5000001    1    1    2    0    0  0.27004026930E+03  0.13502495735E+03  0.12420395132E+04  0.12888136555E+04  0.16500000000E+03 0.  0.
<mgrwt>
<rscale>  0 0.69006639E+03</rscale>
<asrwt>0</asrwt>
<pdfrwt beam="1">  1        2 0.42092624E+00 0.69006639E+03</pdfrwt>
<pdfrwt beam="2">  1       -2 0.66940514E-02 0.69006639E+03</pdfrwt>
<totfact> 0.34733979E+02</totfact>
</mgrwt>
</event>
<event>
 4    1  0.8641621E-005  0.5707547E+03  0.7818608E-02  0.9968010E-01
          2   -1    0    0  501    0  0.00000000000E+00  0.00000000000E+00  0.69055326933E+03  0.69055326933E+03  0.25500000000E-02 0.  1.
         -2   -1    0    0    0  501 -0.00000000000E+00 -0.00000000000E+00 -0.11793475439E+03  0.11793475442E+03  0.25500000000E-02 0. -1.
    5000001    1    1    2    0    0  0.15306625828E+02 -0.14394439334E+03  0.54464911606E+03  0.58721541260E+03  0.16500000000E+03 0.  0.
   -5000001    1    1    2    0    0 -0.15306625828E+02  0.14394439334E+03  0.27969398876E+02  0.22127261114E+03  0.16500000000E+03 0.  0.
<mgrwt>
<rscale>  0 0.57075469E+03</rscale>
<asrwt>0</asrwt>
<pdfrwt beam="1">  1        2 0.10623896E+00 0.57075469E+03</pdfrwt>
<pdfrwt beam="2">  1       -2 0.18143809E-01 0.57075469E+03</pdfrwt>
<totfact> 0.10583809E+03</totfact>
</mgrwt>
</event>
<event>
 4    1  0.8641621E-005  0.6290967E+03  0.7818608E-02  0.9846813E-01
         -2   -1    0    0    0  501 -0.00000000000E+00  0.00000000000E+00  0.60201600671E+02  0.60201600725E+02  0.25500000000E-02 0. -1.
          2   -1    0    0  501    0  0.00000000000E+00 -0.00000000000E+00 -0.16434887974E+04  0.16434887974E+04  0.25500000000E-02 0.  1.
    5000001    1    1    2    0    0 -0.26219338871E+02  0.26062970842E+03 -0.94243590617E+03  0.99198071346E+03  0.16500000000E+03 0.  0.
   -5000001    1    1    2    0    0  0.26219338871E+02 -0.26062970842E+03 -0.64085129060E+03  0.71170968470E+03  0.16500000000E+03 0.  0.
<mgrwt>
<rscale>  0 0.62909667E+03</rscale>
<asrwt>0</asrwt>
<pdfrwt beam="1">  1        2 0.25284440E+00 0.62909667E+03</pdfrwt>
<pdfrwt beam="2">  1       -2 0.92617860E-02 0.62909667E+03</pdfrwt>
<totfact> 0.83731815E+02</totfact>
</mgrwt>
</event>
<event>
 4    1  0.8641621E-005  0.8259678E+03  0.7818608E-02  0.9523172E-01
          2   -1    0    0  501    0  0.00000000000E+00  0.00000000000E+00  0.52690729383E+03  0.52690729384E+03  0.25500000000E-02 0.  1.
         -2   -1    0    0    0  501 -0.00000000000E+00 -0.00000000000E+00 -0.32369207544E+03  0.32369207545E+03  0.25500000000E-02 0. -1.
    5000001    1    1    2    0    0 -0.25007223866E+03  0.15223188087E+03 -0.14559253512E+03  0.36624152739E+03  0.16500000000E+03 0.  0.
   -5000001    1    1    2    0    0  0.25007223866E+03 -0.15223188087E+03  0.34880775351E+03  0.48435784190E+03  0.16500000000E+03 0.  0.
<mgrwt>
<rscale>  0 0.82596783E+03</rscale>
<asrwt>0</asrwt>
<pdfrwt beam="1">  1        2 0.81062660E-01 0.82596783E+03</pdfrwt>
<pdfrwt beam="2">  1       -2 0.49798781E-01 0.82596783E+03</pdfrwt>
<totfact> 0.22234922E+02</totfact>
</mgrwt>
</event>
<event>
 4    1  0.8641621E-005  0.4476570E+03  0.7818608E-02  0.1028423E+00
         -2   -1    0    0    0  501 -0.00000000000E+00  0.00000000000E+00  0.32108602044E+02  0.32108602145E+02  0.25500000000E-02 0. -1.
          2   -1    0    0  501    0  0.00000000000E+00 -0.00000000000E+00 -0.15603046373E+04  0.15603046373E+04  0.25500000000E-02 0.  1.
    5000001    1    1    2    0    0 -0.66971919934E+02 -0.11790644748E+03 -0.10023793307E+04  0.10248787689E+04  0.16500000000E+03 0.  0.
   -5000001    1    1    2    0    0  0.66971919934E+02  0.11790644748E+03 -0.52581670453E+03  0.56753447048E+03  0.16500000000E+03 0.  0.
<mgrwt>
<rscale>  0 0.44765701E+03</rscale>
<asrwt>0</asrwt>
<pdfrwt beam="1">  1        2 0.24004681E+00 0.44765701E+03</pdfrwt>
<pdfrwt beam="2">  1       -2 0.49397862E-02 0.44765701E+03</pdfrwt>
<totfact> 0.25191075E+03</totfact>
</mgrwt>
</event>
<event>
 4    1  0.8641621E-005  0.4222474E+03  0.7818608E-02  0.1036337E+00
         -2   -1    0    0    0  501 -0.00000000000E+00  0.00000000000E+00  0.21111728771E+02  0.21111728925E+02  0.25500000000E-02 0. -1.
          2   -1    0    0  501    0  0.00000000000E+00 -0.00000000000E+00 -0.21113008502E+04  0.21113008502E+04  0.25500000000E-02 0.  1.
    5000001    1    1    2    0    0  0.91245115181E+02  0.38805521304E-01 -0.15247933823E+04  0.15364066946E+04  0.16500000000E+03 0.  0.
   -5000001    1    1    2    0    0 -0.91245115181E+02 -0.38805521304E-01 -0.56539573917E+03  0.59600588455E+03  0.16500000000E+03 0.  0.
<mgrwt>
<rscale>  0 0.42224737E+03</rscale>
<asrwt>0</asrwt>
<pdfrwt beam="1">  1        2 0.32481535E+00 0.42224737E+03</pdfrwt>
<pdfrwt beam="2">  1       -2 0.32479600E-02 0.42224737E+03</pdfrwt>
<totfact> 0.24199881E+03</totfact>
</mgrwt>
</event>
<event>
 4    1  0.8641621E-005  0.5998694E+03  0.7818608E-02  0.9905677E-01
          2   -1    0    0  501    0  0.00000000000E+00  0.00000000000E+00  0.69407305833E+03  0.69407305833E+03  0.25500000000E-02 0.  1.
         -2   -1    0    0    0  501 -0.00000000000E+00 -0.00000000000E+00 -0.12961288957E+03  0.12961288959E+03  0.25500000000E-02 0. -1.
    5000001    1    1    2    0    0 -0.71897455224E+02 -0.22945363350E+03  0.37852017635E+03  0.47782919323E+03  0.16500000000E+03 0.  0.
   -5000001    1    1    2    0    0  0.71897455224E+02  0.22945363350E+03  0.18593999241E+03  0.34585675470E+03  0.16500000000E+03 0.  0.
<mgrwt>
<rscale>  0 0.59986937E+03</rscale>
<asrwt>0</asrwt>
<pdfrwt beam="1">  1        2 0.10678047E+00 0.59986937E+03</pdfrwt>
<pdfrwt beam="2">  1       -2 0.19940445E-01 0.59986937E+03</pdfrwt>
<totfact> 0.89270356E+02</totfact>
</mgrwt>
</event>
<event>
 4    1  0.8641621E-005  0.4699621E+03  0.7818608E-02  0.1021931E+00
         -2   -1    0    0    0  501 -0.00000000000E+00  0.00000000000E+00  0.21964283792E+02  0.21964283940E+02  0.25500000000E-02 0. -1.
          2   -1    0    0  501    0  0.00000000000E+00 -0.00000000000E+00 -0.25139042061E+04  0.25139042061E+04  0.25500000000E-02 0.  1.
    5000001    1    1    2    0    0 -0.28008243947E+02 -0.16365380207E+03 -0.13570884106E+04  0.13771278019E+04  0.16500000000E+03 0.  0.
   -5000001    1    1    2    0    0  0.28008243947E+02  0.16365380207E+03 -0.11348515117E+04  0.11587406881E+04  0.16500000000E+03 0.  0.
<mgrwt>
<rscale>  0 0.46996215E+03</rscale>
<asrwt>0</asrwt>
<pdfrwt beam="1">  1        2 0.38675427E+00 0.46996215E+03</pdfrwt>
<pdfrwt beam="2">  1       -2 0.33791226E-02 0.46996215E+03</pdfrwt>
<totfact> 0.13678417E+03</totfact>
</mgrwt>
</event>
<event>
 4    1  0.8641621E-005  0.5781962E+03  0.7818608E-02  0.9951704E-01
         -2   -1    0    0    0  501 -0.00000000000E+00  0.00000000000E+00  0.14749642441E+03  0.14749642443E+03  0.25500000000E-02 0. -1.
          2   -1    0    0  501    0  0.00000000000E+00 -0.00000000000E+00 -0.56664237327E+03  0.56664237328E+03  0.25500000000E-02 0.  1.
    5000001    1    1    2    0    0 -0.10652055238E+03  0.16916529481E+03 -0.36769276329E+03  0.44987386368E+03  0.16500000000E+03 0.  0.
   -5000001    1    1    2    0    0  0.10652055238E+03 -0.16916529481E+03 -0.51453185575E+02  0.26426493402E+03  0.16500000000E+03 0.  0.
<mgrwt>
<rscale>  0 0.57819624E+03</rscale>
<asrwt>0</asrwt>
<pdfrwt beam="1">  1        2 0.87175748E-01 0.57819624E+03</pdfrwt>
<pdfrwt beam="2">  1       -2 0.22691758E-01 0.57819624E+03</pdfrwt>
<totfact> 0.91016367E+02</totfact>
</mgrwt>
</event>
<event>
 4    1  0.8641621E-005  0.3889376E+03  0.7818608E-02  0.1047679E+00
          2   -1    0    0  501    0  0.00000000000E+00  0.00000000000E+00  0.59069151620E+03  0.59069151621E+03  0.25500000000E-02 0.  1.
         -2   -1    0    0    0  501 -0.00000000000E+00 -0.00000000000E+00 -0.64023471913E+02  0.64023471964E+02  0.25500000000E-02 0. -1.
    5000001    1    1    2    0    0  0.89954532340E+00  0.10079423188E+03  0.22831260850E+03  0.29918545012E+03  0.16500000000E+03 0.  0.
   -5000001    1    1    2    0    0 -0.89954532340E+00 -0.10079423188E+03  0.29835543579E+03  0.35552953806E+03  0.16500000000E+03 0.  0.
<mgrwt>
<rscale>  0 0.38893764E+03</rscale>
<asrwt>0</asrwt>
<pdfrwt beam="1">  1        2 0.90875618E-01 0.38893764E+03</pdfrwt>
<pdfrwt beam="2">  1       -2 0.98497649E-02 0.38893764E+03</pdfrwt>
<totfact> 0.35131816E+03</totfact>
</mgrwt>
</event>
<event>
 4    1  0.8641621E-005  0.5493817E+03  0.7818608E-02  0.1001637E+00
         -2   -1    0    0    0  501 -0.00000000000E+00  0.00000000000E+00  0.50806987521E+03  0.50806987522E+03  0.25500000000E-02 0. -1.
          2   -1    0    0  501    0  0.00000000000E+00 -0.00000000000E+00 -0.14851314228E+03  0.14851314230E+03  0.25500000000E-02 0.  1.
    5000001    1    1    2    0    0 -0.10852302867E+03 -0.17905963531E+02 -0.47397702678E+02  0.20388578543E+03  0.16500000000E+03 0.  0.
   -5000001    1    1    2    0    0  0.10852302867E+03  0.17905963531E+02  0.40695443561E+03  0.45269723209E+03  0.16500000000E+03 0.  0.
<mgrwt>
<rscale>  0 0.54938167E+03</rscale>
<asrwt>0</asrwt>
<pdfrwt beam="1">  1        2 0.22848176E-01 0.54938167E+03</pdfrwt>
<pdfrwt beam="2">  1       -2 0.78164596E-01 0.54938167E+03</pdfrwt>
<totfact> 0.35786334E+02</totfact>
</mgrwt>
</event>
<event>
 4    1  0.8641621E-005  0.8329028E+03  0.7818608E-02  0.9513576E-01
          2   -1    0    0  501    0  0.00000000000E+00  0.00000000000E+00  0.11561956635E+04  0.11561956635E+04  0.25500000000E-02 0.  1.
         -2   -1    0    0    0  501 -0.00000000000E+00 -0.00000000000E+00 -0.15000209797E+03  0.15000209799E+03  0.25500000000E-02 0. -1.
    5000001    1    1    2    0    0  0.29002782752E+03 -0.24782072802E+03  0.54385677613E+03  0.68449722199E+03  0.16500000000E+03 0.  0.
   -5000001    1    1    2    0    0 -0.29002782752E+03  0.24782072802E+03  0.46233678938E+03  0.62170053948E+03  0.16500000000E+03 0.  0.
<mgrwt>
<rscale>  0 0.83290282E+03</rscale>
<asrwt>0</asrwt>
<pdfrwt beam="1">  1        2 0.17787626E+00 0.83290282E+03</pdfrwt>
<pdfrwt beam="2">  1       -2 0.23077246E-01 0.83290282E+03</pdfrwt>
<totfact> 0.33470142E+02</totfact>
</mgrwt>
</event>
<event>
 4    1  0.8641621E-005  0.4808368E+03  0.7818608E-02  0.1018905E+00
          2   -1    0    0  501    0  0.00000000000E+00  0.00000000000E+00  0.49616212929E+03  0.49616212930E+03  0.25500000000E-02 0.  1.
         -2   -1    0    0    0  501 -0.00000000000E+00 -0.00000000000E+00 -0.11649620109E+03  0.11649620111E+03  0.25500000000E-02 0. -1.
    5000001    1    1    2    0    0  0.12853353159E+03 -0.11697623306E+03  0.21439782015E+03  0.32155206908E+03  0.16500000000E+03 0.  0.
   -5000001    1    1    2    0    0 -0.12853353159E+03  0.11697623306E+03  0.16526810806E+03  0.29110626133E+03  0.16500000000E+03 0.  0.
<mgrwt>
<rscale>  0 0.48083678E+03</rscale>
<asrwt>0</asrwt>
<pdfrwt beam="1">  1        2 0.76332634E-01 0.48083678E+03</pdfrwt>
<pdfrwt beam="2">  1       -2 0.17922493E-01 0.48083678E+03</pdfrwt>
<totfact> 0.16016738E+03</totfact>
</mgrwt>
</event>
<event>
 4    1  0.8641621E-005  0.6218996E+03  0.7818608E-02  0.9860985E-01
          2   -1    0    0  501    0  0.00000000000E+00  0.00000000000E+00  0.25033477415E+04  0.25033477415E+04  0.25500000000E-02 0.  1.
         -2   -1    0    0    0  501 -0.00000000000E+00 -0.00000000000E+00 -0.38624193589E+02  0.38624193674E+02  0.25500000000E-02 0. -1.
    5000001    1    1    2    0    0 -0.79186656858E+02  0.25132445410E+03  0.12548538081E+04  0.12927944877E+04  0.16500000000E+03 0.  0.
   -5000001    1    1    2    0    0  0.79186656858E+02 -0.25132445410E+03  0.12098697399E+04  0.12491774475E+04  0.16500000000E+03 0.  0.
<mgrwt>
<rscale>  0 0.62189963E+03</rscale>
<asrwt>0</asrwt>
<pdfrwt beam="1">  1        2 0.38513038E+00 0.62189963E+03</pdfrwt>
<pdfrwt beam="2">  1       -2 0.59421843E-02 0.62189963E+03</pdfrwt>
<totfact> 0.57338402E+02</totfact>
</mgrwt>
</event>
<event>
 4    1  0.8641621E-005  0.6326485E+03  0.7818608E-02  0.9839894E-01
         -2   -1    0    0    0  501 -0.00000000000E+00  0.00000000000E+00  0.31467730573E+02  0.31467730677E+02  0.25500000000E-02 0. -1.
          2   -1    0    0  501    0  0.00000000000E+00 -0.00000000000E+00 -0.31797982581E+04  0.31797982581E+04  0.25500000000E-02 0.  1.
    5000001    1    1    2    0    0 -0.11988067669E+03 -0.22970617916E+03 -0.11909516610E+04  0.12299297396E+04  0.16500000000E+03 0.  0.
   -5000001    1    1    2    0    0  0.11988067669E+03  0.22970617916E+03 -0.19573788665E+04  0.19813362492E+04  0.16500000000E+03 0.  0.
<mgrwt>
<rscale>  0 0.63264851E+03</rscale>
<asrwt>0</asrwt>
<pdfrwt beam="1">  1        2 0.48919948E+00 0.63264851E+03</pdfrwt>
<pdfrwt beam="2">  1       -2 0.48411918E-02 0.63264851E+03</pdfrwt>
<totfact> 0.31260539E+02</totfact>
</mgrwt>
</event>
<event>
 4    1  0.8641621E-005  0.3740437E+03  0.7818608E-02  0.1053157E+00
          2   -1    0    0  501    0  0.00000000000E+00  0.00000000000E+00  0.25826708492E+04  0.25826708492E+04  0.25500000000E-02 0.  1.
         -2   -1    0    0    0  501 -0.00000000000E+00 -0.00000000000E+00 -0.13543021359E+02  0.13543021599E+02  0.25500000000E-02 0. -1.
    5000001    1    1    2    0    0 -0.37099881709E+02 -0.71510909909E+02  0.10379939638E+04  0.10541094252E+04  0.16500000000E+03 0.  0.
   -5000001    1    1    2    0    0  0.37099881709E+02  0.71510909909E+02  0.15311338640E+04  0.15421044456E+04  0.16500000000E+03 0.  0.
<mgrwt>
<rscale>  0 0.37404367E+03</rscale>
<asrwt>0</asrwt>
<pdfrwt beam="1">  1        2 0.39733363E+00 0.37404367E+03</pdfrwt>
<pdfrwt beam="2">  1       -2 0.20835436E-02 0.37404367E+03</pdfrwt>
<totfact> 0.26072571E+03</totfact>
</mgrwt>
</event>
<event>
 4    1  0.8641621E-005  0.4632513E+03  0.7818608E-02  0.1023842E+00
          2   -1    0    0  501    0  0.00000000000E+00  0.00000000000E+00  0.25051664786E+03  0.25051664788E+03  0.25500000000E-02 0.  1.
         -2   -1    0    0    0  501 -0.00000000000E+00 -0.00000000000E+00 -0.21415917715E+03  0.21415917716E+03  0.25500000000E-02 0. -1.
    5000001    1    1    2    0    0 -0.39765113161E+02 -0.11720433772E+03  0.12389408452E+03  0.24060936221E+03  0.16500000000E+03 0.  0.
   -5000001    1    1    2    0    0  0.39765113161E+02  0.11720433772E+03 -0.87536613809E+02  0.22406646282E+03  0.16500000000E+03 0.  0.
<mgrwt>
<rscale>  0 0.46325129E+03</rscale>
<asrwt>0</asrwt>
<pdfrwt beam="1">  1        2 0.38541022E-01 0.46325129E+03</pdfrwt>
<pdfrwt beam="2">  1       -2 0.32947566E-01 0.46325129E+03</pdfrwt>
<totfact> 0.11526828E+03</totfact>
</mgrwt>
</event>
<event>
 4    1  0.8641621E-005  0.4091657E+03  0.7818608E-02  0.1040651E+00
          2   -1    0    0  501    0  0.00000000000E+00  0.00000000000E+00  0.11118482796E+04  0.11118482796E+04  0.25500000000E-02 0.  1.
         -2   -1    0    0    0  501 -0.00000000000E+00 -0.00000000000E+00 -0.37643759482E+02  0.37643759569E+02  0.25500000000E-02 0. -1.
    5000001    1    1    2    0    0 -0.10847347008E+03 -0.30562576465E+02  0.66047694199E+03  0.69004011165E+03  0.16500000000E+03 0.  0.
   -5000001    1    1    2    0    0  0.10847347008E+03  0.30562576465E+02  0.41372757808E+03  0.45945192747E+03  0.16500000000E+03 0.  0.
<mgrwt>
<rscale>  0 0.40916573E+03</rscale>
<asrwt>0</asrwt>
<pdfrwt beam="1">  1        2 0.17105357E+00 0.40916573E+03</pdfrwt>
<pdfrwt beam="2">  1       -2 0.57913481E-02 0.40916573E+03</pdfrwt>
<totfact> 0.35257609E+03</totfact>
</mgrwt>
</event>
<event>
 4    1  0.8641621E-005  0.4263271E+03  0.7818608E-02  0.1035027E+00
         -2   -1    0    0    0  501 -0.00000000000E+00  0.00000000000E+00  0.13110658464E+03  0.13110658467E+03  0.25500000000E-02 0. -1.
          2   -1    0    0  501    0  0.00000000000E+00 -0.00000000000E+00 -0.34657823384E+03  0.34657823385E+03  0.25500000000E-02 0.  1.
    5000001    1    1    2    0    0 -0.27069710795E+02 -0.12851036824E+03 -0.14256058526E+03  0.25455098596E+03  0.16500000000E+03 0.  0.
   -5000001    1    1    2    0    0  0.27069710795E+02  0.12851036824E+03 -0.72911063940E+02  0.22313383256E+03  0.16500000000E+03 0.  0.
<mgrwt>
<rscale>  0 0.42632705E+03</rscale>
<asrwt>0</asrwt>
<pdfrwt beam="1">  1        2 0.53319728E-01 0.42632705E+03</pdfrwt>
<pdfrwt beam="2">  1       -2 0.20170244E-01 0.42632705E+03</pdfrwt>
<totfact> 0.19481837E+03</totfact>
</mgrwt>
</event>
<event>
 4    1  0.8641621E-005  0.6684659E+03  0.7818608E-02  0.9772733E-01
         -2   -1    0    0    0  501 -0.00000000000E+00  0.00000000000E+00  0.53410472972E+02  0.53410473033E+02  0.25500000000E-02 0. -1.
          2   -1    0    0  501    0  0.00000000000E+00 -0.00000000000E+00 -0.20915682305E+04  0.20915682305E+04  0.25500000000E-02 0.  1.
    5000001    1    1    2    0    0  0.10158892833E+03 -0.18491080341E+03 -0.37752317376E+03  0.46288342194E+03  0.16500000000E+03 0.  0.
   -5000001    1    1    2    0    0 -0.10158892833E+03  0.18491080341E+03 -0.16606345838E+04  0.16820952816E+04  0.16500000000E+03 0.  0.
<mgrwt>
<rscale>  0 0.66846585E+03</rscale>
<asrwt>0</asrwt>
<pdfrwt beam="1">  1        2 0.32177966E+00 0.66846585E+03</pdfrwt>
<pdfrwt beam="2">  1       -2 0.82169975E-02 0.66846585E+03</pdfrwt>
<totfact> 0.57786318E+02</totfact>
</mgrwt>
</event>
<event>
 4    1  0.8641621E-005  0.5388507E+03  0.7818608E-02  0.1004108E+00
          2   -1    0    0  501    0  0.00000000000E+00  0.00000000000E+00  0.12577967020E+04  0.12577967020E+04  0.25500000000E-02 0.  1.
         -2   -1    0    0    0  501 -0.00000000000E+00 -0.00000000000E+00 -0.57712038500E+02  0.57712038556E+02  0.25500000000E-02 0. -1.
    5000001    1    1    2    0    0  0.19249420557E+03 -0.53640747186E+02  0.42008412765E+03  0.49358588234E+03  0.16500000000E+03 0.  0.
   -5000001    1    1    2    0    0 -0.19249420557E+03  0.53640747186E+02  0.78000053581E+03  0.82192285818E+03  0.16500000000E+03 0.  0.
<mgrwt>
<rscale>  0 0.53885067E+03</rscale>
<asrwt>0</asrwt>
<pdfrwt beam="1">  1        2 0.19350718E+00 0.53885067E+03</pdfrwt>
<pdfrwt beam="2">  1       -2 0.88787752E-02 0.53885067E+03</pdfrwt>
<totfact> 0.14758063E+03</totfact>
</mgrwt>
</event>
<event>
 4    1  0.8641621E-005  0.7232757E+03  0.7818608E-02  0.9678235E-01
          2   -1    0    0  501    0  0.00000000000E+00  0.00000000000E+00  0.11998962292E+04  0.11998962292E+04  0.25500000000E-02 0.  1.
         -2   -1    0    0    0  501 -0.00000000000E+00 -0.00000000000E+00 -0.10899437029E+03  0.10899437032E+03  0.25500000000E-02 0. -1.
    5000001    1    1    2    0    0  0.40418409053E+02 -0.29540185036E+03  0.76457079874E+03  0.83707192479E+03  0.16500000000E+03 0.  0.
   -5000001    1    1    2    0    0 -0.40418409053E+02  0.29540185036E+03  0.32633106012E+03  0.47181867469E+03  0.16500000000E+03 0.  0.
<mgrwt>
<rscale>  0 0.72327570E+03</rscale>
<asrwt>0</asrwt>
<pdfrwt beam="1">  1        2 0.18459942E+00 0.72327570E+03</pdfrwt>
<pdfrwt beam="2">  1       -2 0.16768365E-01 0.72327570E+03</pdfrwt>
<totfact> 0.55365946E+02</totfact>
</mgrwt>
</event>
<event>
 4    1  0.8641621E-005  0.5499898E+03  0.7818608E-02  0.1001496E+00
          2   -1    0    0  501    0  0.00000000000E+00  0.00000000000E+00  0.30316630121E+03  0.30316630122E+03  0.25500000000E-02 0.  1.
         -2   -1    0    0    0  501 -0.00000000000E+00 -0.00000000000E+00 -0.24944132011E+03  0.24944132012E+03  0.25500000000E-02 0. -1.
    5000001    1    1    2    0    0 -0.19792659581E+03 -0.92652297329E+02  0.14872473982E+01  0.27383680803E+03  0.16500000000E+03 0.  0.
   -5000001    1    1    2    0    0  0.19792659581E+03  0.92652297329E+02  0.52237733705E+02  0.27877081331E+03  0.16500000000E+03 0.  0.
<mgrwt>
<rscale>  0 0.54998983E+03</rscale>
<asrwt>0</asrwt>
<pdfrwt beam="1">  1        2 0.46640969E-01 0.54998983E+03</pdfrwt>
<pdfrwt beam="2">  1       -2 0.38375588E-01 0.54998983E+03</pdfrwt>
<totfact> 0.69984610E+02</totfact>
</mgrwt>
</event>
<event>
 4    1  0.8641621E-005  0.3389493E+03  0.7818608E-02  0.1067244E+00
          2   -1    0    0  501    0  0.00000000000E+00  0.00000000000E+00  0.21677038308E+03  0.21677038310E+03  0.25500000000E-02 0.  1.
         -2   -1    0    0    0  501 -0.00000000000E+00 -0.00000000000E+00 -0.13249810324E+03  0.13249810327E+03  0.25500000000E-02 0. -1.
    5000001    1    1    2    0    0  0.25500783926E+02  0.14734938975E+02  0.67984818945E+02  0.18087107014E+03  0.16500000000E+03 0.  0.
   -5000001    1    1    2    0    0 -0.25500783926E+02 -0.14734938975E+02  0.16287460896E+02  0.16839741622E+03  0.16500000000E+03 0.  0.
<mgrwt>
<rscale>  0 0.33894934E+03</rscale>
<asrwt>0</asrwt>
<pdfrwt beam="1">  1        2 0.33349290E-01 0.33894934E+03</pdfrwt>
<pdfrwt beam="2">  1       -2 0.20384324E-01 0.33894934E+03</pdfrwt>
<totfact> 0.31817395E+03</totfact>
</mgrwt>
</event>
<event>
 4    1  0.8641621E-005  0.5097838E+03  0.7818608E-02  0.1011256E+00
          2   -1    0    0  501    0  0.00000000000E+00  0.00000000000E+00  0.50258103536E+03  0.50258103536E+03  0.25500000000E-02 0.  1.
         -2   -1    0    0    0  501 -0.00000000000E+00 -0.00000000000E+00 -0.12927246319E+03  0.12927246321E+03  0.25500000000E-02 0. -1.
    5000001    1    1    2    0    0 -0.73670683018E+02  0.17573441735E+03  0.23360543395E+03  0.34366619524E+03  0.16500000000E+03 0.  0.
   -5000001    1    1    2    0    0  0.73670683018E+02 -0.17573441735E+03  0.13970313821E+03  0.28818730334E+03  0.16500000000E+03 0.  0.
<mgrwt>
<rscale>  0 0.50978383E+03</rscale>
<asrwt>0</asrwt>
<pdfrwt beam="1">  1        2 0.77320161E-01 0.50978383E+03</pdfrwt>
<pdfrwt beam="2">  1       -2 0.19888071E-01 0.50978383E+03</pdfrwt>
<totfact> 0.13193698E+03</totfact>
</mgrwt>
</event>
<event>
 4    1  0.8641621E-005  0.6235086E+03  0.7818608E-02  0.9857799E-01
          2   -1    0    0  501    0  0.00000000000E+00  0.00000000000E+00  0.22246788575E+04  0.22246788575E+04  0.25500000000E-02 0.  1.
         -2   -1    0    0    0  501 -0.00000000000E+00 -0.00000000000E+00 -0.43687540135E+02  0.43687540210E+02  0.25500000000E-02 0. -1.
    5000001    1    1    2    0    0  0.23008538376E+03  0.41439020058E+02  0.15406360681E+04  0.15669846747E+04  0.16500000000E+03 0.  0.
   -5000001    1    1    2    0    0 -0.23008538376E+03 -0.41439020058E+02  0.64035524924E+03  0.70138172305E+03  0.16500000000E+03 0.  0.
<mgrwt>
<rscale>  0 0.62350861E+03</rscale>
<asrwt>0</asrwt>
<pdfrwt beam="1">  1        2 0.34225840E+00 0.62350861E+03</pdfrwt>
<pdfrwt beam="2">  1       -2 0.67211578E-02 0.62350861E+03</pdfrwt>
<totfact> 0.67477555E+02</totfact>
</mgrwt>
</event>
<event>
 4    1  0.8641621E-005  0.8740309E+03  0.7818608E-02  0.9458639E-01
         -2   -1    0    0    0  501 -0.00000000000E+00  0.00000000000E+00  0.29191129274E+03  0.29191129275E+03  0.25500000000E-02 0. -1.
          2   -1    0    0  501    0  0.00000000000E+00 -0.00000000000E+00 -0.65424848985E+03  0.65424848986E+03  0.25500000000E-02 0.  1.
    5000001    1    1    2    0    0 -0.21482433441E+03  0.23788133005E+03  0.86240117597E+02  0.37067422317E+03  0.16500000000E+03 0.  0.
   -5000001    1    1    2    0    0  0.21482433441E+03 -0.23788133005E+03 -0.44857731471E+03  0.57548555943E+03  0.16500000000E+03 0.  0.
<mgrwt>
<rscale>  0 0.87403094E+03</rscale>
<asrwt>0</asrwt>
<pdfrwt beam="1">  1        2 0.10065361E+00 0.87403094E+03</pdfrwt>
<pdfrwt beam="2">  1       -2 0.44909430E-01 0.87403094E+03</pdfrwt>
<totfact> 0.21054403E+02</totfact>
</mgrwt>
</event>
<event>
 4    1  0.8641621E-005  0.5446569E+03  0.7818608E-02  0.1002738E+00
          2   -1    0    0  501    0  0.00000000000E+00  0.00000000000E+00  0.19029345519E+03  0.19029345521E+03  0.25500000000E-02 0.  1.
         -2   -1    0    0    0  501 -0.00000000000E+00 -0.00000000000E+00 -0.38972845915E+03  0.38972845915E+03  0.25500000000E-02 0. -1.
    5000001    1    1    2    0    0  0.20711124391E+03  0.63367037058E+02 -0.10528438621E+03  0.29192507724E+03  0.16500000000E+03 0.  0.
   -5000001    1    1    2    0    0 -0.20711124391E+03 -0.63367037058E+02 -0.94150617745E+02  0.28809683712E+03  0.16500000000E+03 0.  0.
<mgrwt>
<rscale>  0 0.54465686E+03</rscale>
<asrwt>0</asrwt>
<pdfrwt beam="1">  1        2 0.29275916E-01 0.54465686E+03</pdfrwt>
<pdfrwt beam="2">  1       -2 0.59958224E-01 0.54465686E+03</pdfrwt>
<totfact> 0.47873130E+02</totfact>
</mgrwt>
</event>
<event>
 4    1  0.8641621E-005  0.3563942E+03  0.7818608E-02  0.1060021E+00
          2   -1    0    0  501    0  0.00000000000E+00  0.00000000000E+00  0.19471998441E+04  0.19471998441E+04  0.25500000000E-02 0.  1.
         -2   -1    0    0    0  501 -0.00000000000E+00 -0.00000000000E+00 -0.16307622966E+02  0.16307623166E+02  0.25500000000E-02 0. -1.
    5000001    1    1    2    0    0 -0.23314257329E+02 -0.63119220355E+02  0.97243785029E+03  0.98862933562E+03  0.16500000000E+03 0.  0.
   -5000001    1    1    2    0    0  0.23314257329E+02  0.63119220355E+02  0.95845437081E+03  0.97487813161E+03  0.16500000000E+03 0.  0.
<mgrwt>
<rscale>  0 0.35639417E+03</rscale>
<asrwt>0</asrwt>
<pdfrwt beam="1">  1        2 0.29956910E+00 0.35639417E+03</pdfrwt>
<pdfrwt beam="2">  1       -2 0.25088660E-02 0.35639417E+03</pdfrwt>
<totfact> 0.43737314E+03</totfact>
</mgrwt>
</event>
<event>
 4    1  0.8641621E-005  0.8150086E+03  0.7818608E-02  0.9538543E-01
         -2   -1    0    0    0  501 -0.00000000000E+00  0.00000000000E+00  0.14755243342E+03  0.14755243344E+03  0.25500000000E-02 0. -1.
          2   -1    0    0  501    0  0.00000000000E+00 -0.00000000000E+00 -0.11254287696E+04  0.11254287696E+04  0.25500000000E-02 0.  1.
    5000001    1    1    2    0    0 -0.29120770031E+03  0.23217899687E+03 -0.47142355722E+03  0.62303626027E+03  0.16500000000E+03 0.  0.
   -5000001    1    1    2    0    0  0.29120770031E+03 -0.23217899687E+03 -0.50645277891E+03  0.64994494273E+03  0.16500000000E+03 0.  0.
<mgrwt>
<rscale>  0 0.81500860E+03</rscale>
<asrwt>0</asrwt>
<pdfrwt beam="1">  1        2 0.17314288E+00 0.81500860E+03</pdfrwt>
<pdfrwt beam="2">  1       -2 0.22700375E-01 0.81500860E+03</pdfrwt>
<totfact> 0.36008306E+02</totfact>
</mgrwt>
</event>
<event>
 4    1  0.8641621E-005  0.4969482E+03  0.7818608E-02  0.1014579E+00
          2   -1    0    0  501    0  0.00000000000E+00  0.00000000000E+00  0.11214894242E+04  0.11214894243E+04  0.25500000000E-02 0.  1.
         -2   -1    0    0    0  501 -0.00000000000E+00 -0.00000000000E+00 -0.55051227482E+02  0.55051227541E+02  0.25500000000E-02 0. -1.
    5000001    1    1    2    0    0  0.13013454185E+03  0.12279401458E+03  0.41481881765E+03  0.48095012265E+03  0.16500000000E+03 0.  0.
   -5000001    1    1    2    0    0 -0.13013454185E+03 -0.12279401458E+03  0.65161937911E+03  0.69559052914E+03  0.16500000000E+03 0.  0.
<mgrwt>
<rscale>  0 0.49694816E+03</rscale>
<asrwt>0</asrwt>
<pdfrwt beam="1">  1        2 0.17253684E+00 0.49694816E+03</pdfrwt>
<pdfrwt beam="2">  1       -2 0.84694195E-02 0.49694816E+03</pdfrwt>
<totfact> 0.19146187E+03</totfact>
</mgrwt>
</event>
<event>
 4    1  0.8641621E-005  0.7039470E+03  0.7818608E-02  0.9710506E-01
          2   -1    0    0  501    0  0.00000000000E+00  0.00000000000E+00  0.14727788024E+04  0.14727788024E+04  0.25500000000E-02 0.  1.
         -2   -1    0    0    0  501 -0.00000000000E+00 -0.00000000000E+00 -0.84116745071E+02  0.84116745110E+02  0.25500000000E-02 0. -1.
    5000001    1    1    2    0    0 -0.10825562761E+03 -0.21181304905E+03  0.25157615033E+03  0.38353566727E+03  0.16500000000E+03 0.  0.
   -5000001    1    1    2    0    0  0.10825562761E+03  0.21181304905E+03  0.11370859070E+04  0.11733598802E+04  0.16500000000E+03 0.  0.
<mgrwt>
<rscale>  0 0.70394704E+03</rscale>
<asrwt>0</asrwt>
<pdfrwt beam="1">  1        2 0.22658136E+00 0.70394704E+03</pdfrwt>
<pdfrwt beam="2">  1       -2 0.12941038E-01 0.70394704E+03</pdfrwt>
<totfact> 0.59889103E+02</totfact>
</mgrwt>
</event>
<event>
 4    1  0.8641621E-005  0.4993354E+03  0.7818608E-02  0.1013953E+00
          2   -1    0    0  501    0  0.00000000000E+00  0.00000000000E+00  0.15936113806E+03  0.15936113808E+03  0.25500000000E-02 0.  1.
         -2   -1    0    0    0  501 -0.00000000000E+00 -0.00000000000E+00 -0.39114911903E+03  0.39114911904E+03  0.25500000000E-02 0. -1.
    5000001    1    1    2    0    0  0.94251858530E+02 -0.15432151370E+03 -0.61766241996E+02  0.25246506902E+03  0.16500000000E+03 0.  0.
   -5000001    1    1    2    0    0 -0.94251858530E+02  0.15432151370E+03 -0.17002173898E+03  0.29804518810E+03  0.16500000000E+03 0.  0.
<mgrwt>
<rscale>  0 0.49933543E+03</rscale>
<asrwt>0</asrwt>
<pdfrwt beam="1">  1        2 0.24517098E-01 0.49933543E+03</pdfrwt>
<pdfrwt beam="2">  1       -2 0.60176787E-01 0.49933543E+03</pdfrwt>
<totfact> 0.58108862E+02</totfact>
</mgrwt>
</event>
<event>
 4    1  0.8641621E-005  0.5935441E+03  0.7818608E-02  0.9918891E-01
         -2   -1    0    0    0  501 -0.00000000000E+00  0.00000000000E+00  0.69146755819E+02  0.69146755866E+02  0.25500000000E-02 0. -1.
          2   -1    0    0  501    0  0.00000000000E+00 -0.00000000000E+00 -0.12737204256E+04  0.12737204256E+04  0.25500000000E-02 0.  1.
    5000001    1    1    2    0    0 -0.55615621327E+02  0.23961712237E+03 -0.56062000181E+03  0.63405776479E+03  0.16500000000E+03 0.  0.
   -5000001    1    1    2    0    0  0.55615621327E+02 -0.23961712237E+03 -0.64395366793E+03  0.70880941663E+03  0.16500000000E+03 0.  0.
<mgrwt>
<rscale>  0 0.59354405E+03</rscale>
<asrwt>0</asrwt>
<pdfrwt beam="1">  1        2 0.19595697E+00 0.59354405E+03</pdfrwt>
<pdfrwt beam="2">  1       -2 0.10637963E-01 0.59354405E+03</pdfrwt>
<totfact> 0.10770194E+03</totfact>
</mgrwt>
</event>
<event>
 4    1  0.8641621E-005  0.3893182E+03  0.7818608E-02  0.1047542E+00
          2   -1    0    0  501    0  0.00000000000E+00  0.00000000000E+00  0.24745074504E+04  0.24745074504E+04  0.25500000000E-02 0. -1.
         -2   -1    0    0    0  501 -0.00000000000E+00 -0.00000000000E+00 -0.15313010092E+02  0.15313010304E+02  0.25500000000E-02 0.  1.
    5000001    1    1    2    0    0  0.84138429851E+02 -0.41799612044E+02  0.95521756239E+03  0.97390557779E+03  0.16500000000E+03 0.  0.
   -5000001    1    1    2    0    0 -0.84138429851E+02  0.41799612044E+02  0.15039768779E+04  0.15159148829E+04  0.16500000000E+03 0.  0.
<mgrwt>
<rscale>  0 0.38931816E+03</rscale>
<asrwt>0</asrwt>
<pdfrwt beam="1">  1        2 0.38069349E+00 0.38931816E+03</pdfrwt>
<pdfrwt beam="2">  1       -2 0.23558475E-02 0.38931816E+03</pdfrwt>
<totfact> 0.24913082E+03</totfact>
</mgrwt>
</event>
<event>
 4    1  0.8641621E-005  0.6757081E+03  0.7818608E-02  0.9759701E-01
          2   -1    0    0  501    0  0.00000000000E+00  0.00000000000E+00  0.84510911099E+03  0.84510911099E+03  0.25500000000E-02 0.  1.
         -2   -1    0    0    0  501 -0.00000000000E+00 -0.00000000000E+00 -0.13506582968E+03  0.13506582970E+03  0.25500000000E-02 0. -1.
    5000001    1    1    2    0    0  0.27407078753E+03  0.76013759501E+02  0.24240250944E+03  0.40850564842E+03  0.16500000000E+03 0.  0.
   -5000001    1    1    2    0    0 -0.27407078753E+03 -0.76013759501E+02  0.46764077187E+03  0.57166929227E+03  0.16500000000E+03 0.  0.
<mgrwt>
<rscale>  0 0.67570811E+03</rscale>
<asrwt>0</asrwt>
<pdfrwt beam="1">  1        2 0.13001679E+00 0.67570811E+03</pdfrwt>
<pdfrwt beam="2">  1       -2 0.20779358E-01 0.67570811E+03</pdfrwt>
<totfact> 0.64214796E+02</totfact>
</mgrwt>
</event>
<event>
 4    1  0.8641621E-005  0.4431296E+03  0.7818608E-02  0.1029791E+00
          2   -1    0    0  501    0  0.00000000000E+00  0.00000000000E+00  0.30895858653E+03  0.30895858654E+03  0.25500000000E-02 0.  1.
         -2   -1    0    0    0  501 -0.00000000000E+00 -0.00000000000E+00 -0.15889170626E+03  0.15889170628E+03  0.25500000000E-02 0. -1.
    5000001    1    1    2    0    0 -0.32614475602E+02 -0.10433841306E+03 -0.30099524898E+02  0.20020287175E+03  0.16500000000E+03 0.  0.
   -5000001    1    1    2    0    0  0.32614475602E+02  0.10433841306E+03  0.18016640516E+03  0.26764742108E+03  0.16500000000E+03 0.  0.
<mgrwt>
<rscale>  0 0.44312958E+03</rscale>
<asrwt>0</asrwt>
<pdfrwt beam="1">  1        2 0.47532090E-01 0.44312958E+03</pdfrwt>
<pdfrwt beam="2">  1       -2 0.24444878E-01 0.44312958E+03</pdfrwt>
<totfact> 0.15774707E+03</totfact>
</mgrwt>
</event>
<event>
 4    1  0.8641621E-005  0.7422229E+03  0.7818608E-02  0.9647631E-01
         -2   -1    0    0    0  501 -0.00000000000E+00  0.00000000000E+00  0.40417615654E+02  0.40417615735E+02  0.25500000000E-02 0. -1.
          2   -1    0    0  501    0  0.00000000000E+00 -0.00000000000E+00 -0.34075164633E+04  0.34075164633E+04  0.25500000000E-02 0.  1.
    5000001    1    1    2    0    0  0.18400607537E+03  0.26435060614E+03 -0.13016291873E+04  0.13510007475E+04  0.16500000000E+03 0.  0.
   -5000001    1    1    2    0    0 -0.18400607537E+03 -0.26435060614E+03 -0.20654696604E+04  0.20969333315E+04  0.16500000000E+03 0.  0.
<mgrwt>
<rscale>  0 0.74222285E+03</rscale>
<asrwt>0</asrwt>
<pdfrwt beam="1">  1        2 0.52423307E+00 0.74222285E+03</pdfrwt>
<pdfrwt beam="2">  1       -2 0.62180974E-02 0.74222285E+03</pdfrwt>
<totfact> 0.14841525E+02</totfact>
</mgrwt>
</event>
<event>
 4    1  0.8641621E-005  0.3953038E+03  0.7818608E-02  0.1045418E+00
         -2   -1    0    0    0  501 -0.00000000000E+00  0.00000000000E+00  0.27125458110E+03  0.27125458111E+03  0.25500000000E-02 0. -1.
          2   -1    0    0  501    0  0.00000000000E+00 -0.00000000000E+00 -0.14402071975E+03  0.14402071977E+03  0.25500000000E-02 0.  1.
    5000001    1    1    2    0    0  0.76195447762E+02 -0.39514330497E+02  0.13388538757E+03  0.22916680732E+03  0.16500000000E+03 0.  0.
   -5000001    1    1    2    0    0 -0.76195447762E+02  0.39514330497E+02 -0.66515262195E+01  0.18610849356E+03  0.16500000000E+03 0.  0.
<mgrwt>
<rscale>  0 0.39530383E+03</rscale>
<asrwt>0</asrwt>
<pdfrwt beam="1">  1        2 0.22157034E-01 0.39530383E+03</pdfrwt>
<pdfrwt beam="2">  1       -2 0.41731474E-01 0.39530383E+03</pdfrwt>
<totfact> 0.13642024E+03</totfact>
</mgrwt>
</event>
<event>
 4    1  0.8641621E-005  0.4413334E+03  0.7818608E-02  0.1030338E+00
          2   -1    0    0  501    0  0.00000000000E+00  0.00000000000E+00  0.79694058348E+03  0.79694058348E+03  0.25500000000E-02 0.  1.
         -2   -1    0    0    0  501 -0.00000000000E+00 -0.00000000000E+00 -0.61100895611E+02  0.61100895664E+02  0.25500000000E-02 0. -1.
    5000001    1    1    2    0    0  0.59095057851E+02  0.86758549090E+02  0.56666178448E+03  0.59945796324E+03  0.16500000000E+03 0.  0.
   -5000001    1    1    2    0    0 -0.59095057851E+02 -0.86758549090E+02  0.16917790338E+03  0.25858351590E+03  0.16500000000E+03 0.  0.
<mgrwt>
<rscale>  0 0.44133336E+03</rscale>
<asrwt>0</asrwt>
<pdfrwt beam="1">  1        2 0.12260625E+00 0.44133336E+03</pdfrwt>
<pdfrwt beam="2">  1       -2 0.94001375E-02 0.44133336E+03</pdfrwt>
<totfact> 0.26228988E+03</totfact>
</mgrwt>
</event>
<event>
 4    1  0.8641621E-005  0.3731123E+03  0.7818608E-02  0.1053509E+00
         -2   -1    0    0    0  501 -0.00000000000E+00  0.00000000000E+00  0.13022338519E+03  0.13022338521E+03  0.25500000000E-02 0. -1.
          2   -1    0    0  501    0  0.00000000000E+00 -0.00000000000E+00 -0.26725766044E+03  0.26725766045E+03  0.25500000000E-02 0.  1.
    5000001    1    1    2    0    0  0.24854775214E+02 -0.80601081062E+02 -0.45572007979E+02  0.19083003440E+03  0.16500000000E+03 0.  0.
   -5000001    1    1    2    0    0 -0.24854775214E+02  0.80601081062E+02 -0.91462267270E+02  0.20665101126E+03  0.16500000000E+03 0.  0.
<mgrwt>
<rscale>  0 0.37311230E+03</rscale>
<asrwt>0</asrwt>
<pdfrwt beam="1">  1        2 0.41116563E-01 0.37311230E+03</pdfrwt>
<pdfrwt beam="2">  1       -2 0.20034367E-01 0.37311230E+03</pdfrwt>
<totfact> 0.26125438E+03</totfact>
</mgrwt>
</event>
<event>
 4    1  0.8641621E-005  0.1032994E+04  0.7818608E-02  0.9273080E-01
          2   -1    0    0  501    0  0.00000000000E+00  0.00000000000E+00  0.21793822521E+04  0.21793822521E+04  0.25500000000E-02 0.  1.
         -2   -1    0    0    0  501 -0.00000000000E+00 -0.00000000000E+00 -0.12240578506E+03  0.12240578509E+03  0.25500000000E-02 0. -1.
    5000001    1    1    2    0    0 -0.33741746543E+03 -0.35314358143E+03  0.95862353783E+03  0.10884599314E+04  0.16500000000E+03 0.  0.
   -5000001    1    1    2    0    0  0.33741746543E+03  0.35314358143E+03  0.10983529292E+04  0.12133281057E+04  0.16500000000E+03 0.  0.
<mgrwt>
<rscale>  0 0.10329937E+04</rscale>
<asrwt>0</asrwt>
<pdfrwt beam="1">  1        2 0.33528958E+00 0.10329937E+04</pdfrwt>
<pdfrwt beam="2">  1       -2 0.18831659E-01 0.10329937E+04</pdfrwt>
<totfact> 0.12623875E+02</totfact>
</mgrwt>
</event>
<event>
 4    1  0.8641621E-005  0.4710370E+03  0.7818608E-02  0.1021628E+00
         -2   -1    0    0    0  501 -0.00000000000E+00  0.00000000000E+00  0.25111624187E+02  0.25111624317E+02  0.25500000000E-02 0. -1.
          2   -1    0    0  501    0  0.00000000000E+00 -0.00000000000E+00 -0.22088955383E+04  0.22088955383E+04  0.25500000000E-02 0.  1.
    5000001    1    1    2    0    0 -0.16575010154E+03 -0.53212676846E+01 -0.96265393652E+03  0.99067099158E+03  0.16500000000E+03 0.  0.
   -5000001    1    1    2    0    0  0.16575010154E+03  0.53212676846E+01 -0.12211299775E+04  0.12433361710E+04  0.16500000000E+03 0.  0.
<mgrwt>
<rscale>  0 0.47103696E+03</rscale>
<asrwt>0</asrwt>
<pdfrwt beam="1">  1        2 0.33982993E+00 0.47103696E+03</pdfrwt>
<pdfrwt beam="2">  1       -2 0.38633286E-02 0.47103696E+03</pdfrwt>
<totfact> 0.16422318E+03</totfact>
</mgrwt>
</event>
<event>
 4    1  0.8641621E-005  0.4390106E+03  0.7818608E-02  0.1031051E+00
         -2   -1    0    0    0  501 -0.00000000000E+00  0.00000000000E+00  0.38759932700E+02  0.38759932784E+02  0.25500000000E-02 0. -1.
          2   -1    0    0  501    0  0.00000000000E+00 -0.00000000000E+00 -0.12431029555E+04  0.12431029555E+04  0.25500000000E-02 0.  1.
    5000001    1    1    2    0    0 -0.36802584216E+02 -0.13490818800E+03 -0.49280466425E+03  0.53817848945E+03  0.16500000000E+03 0.  0.
   -5000001    1    1    2    0    0  0.36802584216E+02  0.13490818800E+03 -0.71153835856E+03  0.74368439886E+03  0.16500000000E+03 0.  0.
<mgrwt>
<rscale>  0 0.43901065E+03</rscale>
<asrwt>0</asrwt>
<pdfrwt beam="1">  1        2 0.19124658E+00 0.43901065E+03</pdfrwt>
<pdfrwt beam="2">  1       -2 0.59630675E-02 0.43901065E+03</pdfrwt>
<totfact> 0.28248662E+03</totfact>
</mgrwt>
</event>
<event>
 4    1  0.8641621E-005  0.5385808E+03  0.7818608E-02  0.1004172E+00
          2   -1    0    0  501    0  0.00000000000E+00  0.00000000000E+00  0.16503236128E+04  0.16503236128E+04  0.25500000000E-02 0.  1.
         -2   -1    0    0    0  501 -0.00000000000E+00 -0.00000000000E+00 -0.43941272247E+02  0.43941272321E+02  0.25500000000E-02 0. -1.
    5000001    1    1    2    0    0  0.54909918755E+01 -0.13030287874E+03  0.27414241257E+03  0.34552576397E+03  0.16500000000E+03 0.  0.
   -5000001    1    1    2    0    0 -0.54909918755E+01  0.13030287874E+03  0.13322399279E+04  0.13487391211E+04  0.16500000000E+03 0.  0.
<mgrwt>
<rscale>  0 0.53858080E+03</rscale>
<asrwt>0</asrwt>
<pdfrwt beam="1">  1        2 0.25389592E+00 0.53858080E+03</pdfrwt>
<pdfrwt beam="2">  1       -2 0.67601962E-02 0.53858080E+03</pdfrwt>
<totfact> 0.13769667E+03</totfact>
</mgrwt>
</event>
<event>
 4    1  0.8641621E-005  0.1095523E+04  0.7818608E-02  0.9209566E-01
          2   -1    0    0  501    0  0.00000000000E+00  0.00000000000E+00  0.17501550310E+03  0.17501550312E+03  0.25500000000E-02 0.  1.
         -2   -1    0    0    0  501 -0.00000000000E+00 -0.00000000000E+00 -0.17143787647E+04  0.17143787647E+04  0.25500000000E-02 0. -1.
    5000001    1    1    2    0    0 -0.37108071306E+03  0.14738181471E+03 -0.18891856827E+03  0.47152679707E+03  0.16500000000E+03 0.  0.
   -5000001    1    1    2    0    0  0.37108071306E+03 -0.14738181471E+03 -0.13504446934E+04  0.14178674708E+04  0.16500000000E+03 0.  0.
<mgrwt>
<rscale>  0 0.10955234E+04</rscale>
<asrwt>0</asrwt>
<pdfrwt beam="1">  1        2 0.26925463E-01 0.10955234E+04</pdfrwt>
<pdfrwt beam="2">  1       -2 0.26375057E+00 0.10955234E+04</pdfrwt>
<totfact> 0.10653768E+01</totfact>
</mgrwt>
</event>
<event>
 4    1  0.8641621E-005  0.4724565E+03  0.7818608E-02  0.1021229E+00
          2   -1    0    0  501    0  0.00000000000E+00  0.00000000000E+00  0.16134110908E+04  0.16134110908E+04  0.25500000000E-02 0.  1.
         -2   -1    0    0    0  501 -0.00000000000E+00 -0.00000000000E+00 -0.34587456241E+02  0.34587456335E+02  0.25500000000E-02 0. -1.
    5000001    1    1    2    0    0 -0.14288823719E+03 -0.88406645390E+02  0.72452828379E+03  0.76183923323E+03  0.16500000000E+03 0.  0.
   -5000001    1    1    2    0    0  0.14288823719E+03  0.88406645390E+02  0.85429535073E+03  0.88615931387E+03  0.16500000000E+03 0.  0.
<mgrwt>
<rscale>  0 0.47245650E+03</rscale>
<asrwt>0</asrwt>
<pdfrwt beam="1">  1        2 0.24821702E+00 0.47245650E+03</pdfrwt>
<pdfrwt beam="2">  1       -2 0.53211487E-02 0.47245650E+03</pdfrwt>
<totfact> 0.21003027E+03</totfact>
</mgrwt>
</event>
<event>
 4    1  0.8641621E-005  0.6406855E+03  0.7818608E-02  0.9824416E-01
          2   -1    0    0  501    0  0.00000000000E+00  0.00000000000E+00  0.13939632553E+04  0.13939632553E+04  0.25500000000E-02 0.  1.
         -2   -1    0    0    0  501 -0.00000000000E+00 -0.00000000000E+00 -0.73617069507E+02  0.73617069552E+02  0.25500000000E-02 0. -1.
    5000001    1    1    2    0    0  0.84076641113E+02 -0.25461807681E+03  0.52474908471E+03  0.61195248878E+03  0.16500000000E+03 0.  0.
   -5000001    1    1    2    0    0 -0.84076641113E+02  0.25461807681E+03  0.79559710109E+03  0.85562783609E+03  0.16500000000E+03 0.  0.
<mgrwt>
<rscale>  0 0.64068554E+03</rscale>
<asrwt>0</asrwt>
<pdfrwt beam="1">  1        2 0.21445589E+00 0.64068554E+03</pdfrwt>
<pdfrwt beam="2">  1       -2 0.11325703E-01 0.64068554E+03</pdfrwt>
<totfact> 0.82891845E+02</totfact>
</mgrwt>
</event>
<event>
 4    1  0.8641621E-005  0.3886311E+03  0.7818608E-02  0.1047789E+00
         -2   -1    0    0    0  501 -0.00000000000E+00  0.00000000000E+00  0.21933743361E+02  0.21933743509E+02  0.25500000000E-02 0. -1.
          2   -1    0    0  501    0  0.00000000000E+00 -0.00000000000E+00 -0.17214815171E+04  0.17214815171E+04  0.25500000000E-02 0.  1.
    5000001    1    1    2    0    0  0.40317673525E+02 -0.86849646806E+02 -0.10155243466E+04  0.10332875081E+04  0.16500000000E+03 0.  0.
   -5000001    1    1    2    0    0 -0.40317673525E+02  0.86849646806E+02 -0.68402342716E+03  0.71012775249E+03  0.16500000000E+03 0.  0.
<mgrwt>
<rscale>  0 0.38863110E+03</rscale>
<asrwt>0</asrwt>
<pdfrwt beam="1">  1        2 0.26484320E+00 0.38863110E+03</pdfrwt>
<pdfrwt beam="2">  1       -2 0.33744234E-02 0.38863110E+03</pdfrwt>
<totfact> 0.36933184E+03</totfact>
</mgrwt>
</event>
<event>
 4    1  0.8641621E-005  0.6910358E+03  0.7818608E-02  0.9732686E-01
          2   -1    0    0  501    0  0.00000000000E+00  0.00000000000E+00  0.11600706786E+04  0.11600706786E+04  0.25500000000E-02 0.  1.
         -2   -1    0    0    0  501 -0.00000000000E+00 -0.00000000000E+00 -0.10290979108E+03  0.10290979111E+03  0.25500000000E-02 0. -1.
    5000001    1    1    2    0    0 -0.39478990691E+02 -0.17023433689E+03  0.74895376500E+02  0.25173922536E+03  0.16500000000E+03 0.  0.
   -5000001    1    1    2    0    0  0.39478990691E+02  0.17023433689E+03  0.98226551099E+03  0.10112412443E+04  0.16500000000E+03 0.  0.
<mgrwt>
<rscale>  0 0.69103583E+03</rscale>
<asrwt>0</asrwt>
<pdfrwt beam="1">  1        2 0.17847242E+00 0.69103583E+03</pdfrwt>
<pdfrwt beam="2">  1       -2 0.15832275E-01 0.69103583E+03</pdfrwt>
<totfact> 0.64572879E+02</totfact>
</mgrwt>
</event>
<event>
 4    1  0.8641621E-005  0.6774984E+03  0.7818608E-02  0.9756506E-01
         -2   -1    0    0    0  501 -0.00000000000E+00  0.00000000000E+00  0.12336796886E+03  0.12336796888E+03  0.25500000000E-02 0. -1.
          2   -1    0    0  501    0  0.00000000000E+00 -0.00000000000E+00 -0.93015237347E+03  0.93015237348E+03  0.25500000000E-02 0.  1.
    5000001    1    1    2    0    0 -0.23192982042E+03 -0.39629269581E+02 -0.12451032232E+03  0.31319281756E+03  0.16500000000E+03 0.  0.
   -5000001    1    1    2    0    0  0.23192982042E+03  0.39629269581E+02 -0.68227408230E+03  0.74032752480E+03  0.16500000000E+03 0.  0.
<mgrwt>
<rscale>  0 0.67749837E+03</rscale>
<asrwt>0</asrwt>
<pdfrwt beam="1">  1        2 0.14310036E+00 0.67749837E+03</pdfrwt>
<pdfrwt beam="2">  1       -2 0.18979688E-01 0.67749837E+03</pdfrwt>
<totfact> 0.65888059E+02</totfact>
</mgrwt>
</event>
<event>
 4    1  0.8641621E-005  0.3821304E+03  0.7818608E-02  0.1050149E+00
         -2   -1    0    0    0  501 -0.00000000000E+00  0.00000000000E+00  0.21391557523E+02  0.21391557675E+02  0.25500000000E-02 0.  1.
          2   -1    0    0  501    0  0.00000000000E+00 -0.00000000000E+00 -0.17065569185E+04  0.17065569185E+04  0.25500000000E-02 0. -1.
    5000001    1    1    2    0    0 -0.62563378527E+02  0.39229856844E+02 -0.11223462310E+04  0.11368109870E+04  0.16500000000E+03 0.  0.
   -5000001    1    1    2    0    0  0.62563378527E+02 -0.39229856844E+02 -0.56281912994E+03  0.59113748911E+03  0.16500000000E+03 0.  0.
<mgrwt>
<rscale>  0 0.38213040E+03</rscale>
<asrwt>0</asrwt>
<pdfrwt beam="1">  1        2 0.26254711E+00 0.38213040E+03</pdfrwt>
<pdfrwt beam="2">  1       -2 0.32910102E-02 0.38213040E+03</pdfrwt>
<totfact> 0.39068706E+03</totfact>
</mgrwt>
</event>
<event>
 4    1  0.8641621E-005  0.3871150E+03  0.7818608E-02  0.1048335E+00
         -2   -1    0    0    0  501 -0.00000000000E+00  0.00000000000E+00  0.21638988095E+02  0.21638988245E+02  0.25500000000E-02 0. -1.
          2   -1    0    0  501    0  0.00000000000E+00 -0.00000000000E+00 -0.17313430537E+04  0.17313430537E+04  0.25500000000E-02 0.  1.
    5000001    1    1    2    0    0 -0.95624255944E+02 -0.32955161815E+02 -0.84091623536E+03  0.86289927333E+03  0.16500000000E+03 0.  0.
   -5000001    1    1    2    0    0  0.95624255944E+02  0.32955161815E+02 -0.86878783026E+03  0.89008276864E+03  0.16500000000E+03 0.  0.
<mgrwt>
<rscale>  0 0.38711503E+03</rscale>
<asrwt>0</asrwt>
<pdfrwt beam="1">  1        2 0.26636036E+00 0.38711503E+03</pdfrwt>
<pdfrwt beam="2">  1       -2 0.33290765E-02 0.38711503E+03</pdfrwt>
<totfact> 0.37242302E+03</totfact>
</mgrwt>
</event>
<event>
 4    1  0.8641621E-005  0.5341527E+03  0.7818608E-02  0.1005230E+00
         -2   -1    0    0    0  501 -0.00000000000E+00  0.00000000000E+00  0.17875266149E+03  0.17875266151E+03  0.25500000000E-02 0. -1.
          2   -1    0    0  501    0  0.00000000000E+00 -0.00000000000E+00 -0.39904172172E+03  0.39904172173E+03  0.25500000000E-02 0.  1.
    5000001    1    1    2    0    0  0.95441110071E+02  0.15640602136E+03 -0.22115969753E+03  0.33122267558E+03  0.16500000000E+03 0.  0.
   -5000001    1    1    2    0    0 -0.95441110071E+02 -0.15640602136E+03  0.87063729541E+00  0.24657170766E+03  0.16500000000E+03 0.  0.
<mgrwt>
<rscale>  0 0.53415267E+03</rscale>
<asrwt>0</asrwt>
<pdfrwt beam="1">  1        2 0.61391034E-01 0.53415267E+03</pdfrwt>
<pdfrwt beam="2">  1       -2 0.27500410E-01 0.53415267E+03</pdfrwt>
<totfact> 0.96291880E+02</totfact>
</mgrwt>
</event>
<event>
 4    1  0.8641621E-005  0.4367128E+03  0.7818608E-02  0.1031760E+00
         -2   -1    0    0    0  501 -0.00000000000E+00  0.00000000000E+00  0.49719024332E+02  0.49719024398E+02  0.25500000000E-02 0. -1.
          2   -1    0    0  501    0  0.00000000000E+00 -0.00000000000E+00 -0.95897949576E+03  0.95897949577E+03  0.25500000000E-02 0.  1.
    5000001    1    1    2    0    0 -0.98073462311E+02 -0.10179088354E+03 -0.50495618085E+03  0.54971404618E+03  0.16500000000E+03 0.  0.
   -5000001    1    1    2    0    0  0.98073462311E+02  0.10179088354E+03 -0.40430429058E+03  0.45898447399E+03  0.16500000000E+03 0.  0.
<mgrwt>
<rscale>  0 0.43671283E+03</rscale>
<asrwt>0</asrwt>
<pdfrwt beam="1">  1        2 0.14753529E+00 0.43671283E+03</pdfrwt>
<pdfrwt beam="2">  1       -2 0.76490814E-02 0.43671283E+03</pdfrwt>
<totfact> 0.28348848E+03</totfact>
</mgrwt>
</event>
<event>
 4    1  0.8641621E-005  0.8107392E+03  0.7818608E-02  0.9544601E-01
         -2   -1    0    0    0  501 -0.00000000000E+00  0.00000000000E+00  0.12316930488E+03  0.12316930490E+03  0.25500000000E-02 0. -1.
          2   -1    0    0  501    0  0.00000000000E+00 -0.00000000000E+00 -0.13341353253E+04  0.13341353253E+04  0.25500000000E-02 0.  1.
    5000001    1    1    2    0    0 -0.33521366035E+03 -0.15705695742E+03 -0.61991177092E+03  0.74064207934E+03  0.16500000000E+03 0.  0.
   -5000001    1    1    2    0    0  0.33521366035E+03  0.15705695742E+03 -0.59105424950E+03  0.71666255087E+03  0.16500000000E+03 0.  0.
<mgrwt>
<rscale>  0 0.81073922E+03</rscale>
<asrwt>0</asrwt>
<pdfrwt beam="1">  1        2 0.20525158E+00 0.81073922E+03</pdfrwt>
<pdfrwt beam="2">  1       -2 0.18949125E-01 0.81073922E+03</pdfrwt>
<totfact> 0.37294799E+02</totfact>
</mgrwt>
</event>
<event>
 4    1  0.8641621E-005  0.1450999E+04  0.7818608E-02  0.8917708E-01
         -2   -1    0    0    0  501 -0.00000000000E+00  0.00000000000E+00  0.17928366840E+03  0.17928366842E+03  0.25500000000E-02 0. -1.
          2   -1    0    0  501    0  0.00000000000E+00 -0.00000000000E+00 -0.29358474123E+04  0.29358474123E+04  0.25500000000E-02 0.  1.
    5000001    1    1    2    0    0 -0.64019604698E+03 -0.12225642194E+03 -0.19635868054E+04  0.20754989168E+04  0.16500000000E+03 0.  0.
   -5000001    1    1    2    0    0  0.64019604698E+03  0.12225642194E+03 -0.79297693850E+03  0.10396321639E+04  0.16500000000E+03 0.  0.
<mgrwt>
<rscale>  0 0.14509990E+04</rscale>
<asrwt>0</asrwt>
<pdfrwt beam="1">  1        2 0.45166880E+00 0.14509990E+04</pdfrwt>
<pdfrwt beam="2">  1       -2 0.27582105E-01 0.14509990E+04</pdfrwt>
<totfact> 0.22353587E+01</totfact>
</mgrwt>
</event>
<event>
 4    1  0.8641621E-005  0.4602109E+03  0.7818608E-02  0.1024720E+00
          2   -1    0    0  501    0  0.00000000000E+00  0.00000000000E+00  0.10624318501E+04  0.10624318501E+04  0.25500000000E-02 0.  1.
         -2   -1    0    0    0  501 -0.00000000000E+00 -0.00000000000E+00 -0.49837094397E+02  0.49837094462E+02  0.25500000000E-02 0. -1.
    5000001    1    1    2    0    0 -0.53486064778E+02 -0.15042664938E+03  0.54331417546E+03  0.58983406923E+03  0.16500000000E+03 0.  0.
   -5000001    1    1    2    0    0  0.53486064778E+02  0.15042664938E+03  0.46928058021E+03  0.52243487531E+03  0.16500000000E+03 0.  0.
<mgrwt>
<rscale>  0 0.46021089E+03</rscale>
<asrwt>0</asrwt>
<pdfrwt beam="1">  1        2 0.16345103E+00 0.46021089E+03</pdfrwt>
<pdfrwt beam="2">  1       -2 0.76672464E-02 0.46021089E+03</pdfrwt>
<totfact> 0.24347942E+03</totfact>
</mgrwt>
</event>
<event>
 4    1  0.8641621E-005  0.6971114E+03  0.7818608E-02  0.9722185E-01
         -2   -1    0    0    0  501 -0.00000000000E+00  0.00000000000E+00  0.30137015780E+03  0.30137015781E+03  0.25500000000E-02 0. -1.
          2   -1    0    0  501    0  0.00000000000E+00 -0.00000000000E+00 -0.40312913816E+03  0.40312913817E+03  0.25500000000E-02 0.  1.
    5000001    1    1    2    0    0  0.23781091571E+03 -0.16009940290E+03  0.60195468175E+02  0.33620580725E+03  0.16500000000E+03 0.  0.
   -5000001    1    1    2    0    0 -0.23781091571E+03  0.16009940290E+03 -0.16195444854E+03  0.36829348873E+03  0.16500000000E+03 0.  0.
<mgrwt>
<rscale>  0 0.69711145E+03</rscale>
<asrwt>0</asrwt>
<pdfrwt beam="1">  1        2 0.62019868E-01 0.69711145E+03</pdfrwt>
<pdfrwt beam="2">  1       -2 0.46364639E-01 0.69711145E+03</pdfrwt>
<totfact> 0.35072023E+02</totfact>
</mgrwt>
</event>
<event>
 4    1  0.8641621E-005  0.4621940E+03  0.7818608E-02  0.1024147E+00
         -2   -1    0    0    0  501 -0.00000000000E+00  0.00000000000E+00  0.80896658345E+02  0.80896658385E+02  0.25500000000E-02 0. -1.
          2   -1    0    0  501    0  0.00000000000E+00 -0.00000000000E+00 -0.66017344300E+03  0.66017344300E+03  0.25500000000E-02 0.  1.
    5000001    1    1    2    0    0 -0.13058082713E+03 -0.93151634948E+02 -0.25554090819E+03  0.34388186237E+03  0.16500000000E+03 0.  0.
   -5000001    1    1    2    0    0  0.13058082713E+03  0.93151634948E+02 -0.32373587646E+03  0.39718823902E+03  0.16500000000E+03 0.  0.
<mgrwt>
<rscale>  0 0.46219401E+03</rscale>
<asrwt>0</asrwt>
<pdfrwt beam="1">  1        2 0.10156514E+00 0.46219401E+03</pdfrwt>
<pdfrwt beam="2">  1       -2 0.12445640E-01 0.46219401E+03</pdfrwt>
<totfact> 0.21080516E+03</totfact>
</mgrwt>
</event>
<event>
 4    1  0.8641621E-005  0.6133507E+03  0.7818608E-02  0.9878088E-01
          2   -1    0    0  501    0  0.00000000000E+00  0.00000000000E+00  0.13295161096E+04  0.13295161096E+04  0.25500000000E-02 0.  1.
         -2   -1    0    0    0  501 -0.00000000000E+00 -0.00000000000E+00 -0.70739853268E+02  0.70739853314E+02  0.25500000000E-02 0. -1.
    5000001    1    1    2    0    0  0.16574689502E+03 -0.19256926054E+03  0.73815443517E+03  0.79790470826E+03  0.16500000000E+03 0.  0.
   -5000001    1    1    2    0    0 -0.16574689502E+03  0.19256926054E+03  0.52062182118E+03  0.60235125467E+03  0.16500000000E+03 0.  0.
<mgrwt>
<rscale>  0 0.61335071E+03</rscale>
<asrwt>0</asrwt>
<pdfrwt beam="1">  1        2 0.20454094E+00 0.61335071E+03</pdfrwt>
<pdfrwt beam="2">  1       -2 0.10883054E-01 0.61335071E+03</pdfrwt>
<totfact> 0.96345356E+02</totfact>
</mgrwt>
</event>
<event>
 4    1  0.8641621E-005  0.7010627E+03  0.7818608E-02  0.9715417E-01
         -2   -1    0    0    0  501 -0.00000000000E+00  0.00000000000E+00  0.10400777498E+03  0.10400777501E+03  0.25500000000E-02 0.  1.
          2   -1    0    0  501    0  0.00000000000E+00 -0.00000000000E+00 -0.11813753634E+04  0.11813753634E+04  0.25500000000E-02 0. -1.
    5000001    1    1    2    0    0 -0.13707388532E+03 -0.26985655359E+03 -0.42221226911E+03  0.54506881193E+03  0.16500000000E+03 0.  0.
   -5000001    1    1    2    0    0  0.13707388532E+03  0.26985655359E+03 -0.65515531927E+03  0.74031432643E+03  0.16500000000E+03 0.  0.
<mgrwt>
<rscale>  0 0.70106269E+03</rscale>
<asrwt>0</asrwt>
<pdfrwt beam="1">  1        2 0.18175005E+00 0.70106269E+03</pdfrwt>
<pdfrwt beam="2">  1       -2 0.16001197E-01 0.70106269E+03</pdfrwt>
<totfact> 0.61566071E+02</totfact>
</mgrwt>
</event>
<event>
 4    1  0.8641621E-005  0.7067441E+03  0.7818608E-02  0.9705768E-01
         -2   -1    0    0    0  501 -0.00000000000E+00  0.00000000000E+00  0.18981347294E+03  0.18981347296E+03  0.25500000000E-02 0. -1.
          2   -1    0    0  501    0  0.00000000000E+00 -0.00000000000E+00 -0.65786590409E+03  0.65786590409E+03  0.25500000000E-02 0.  1.
    5000001    1    1    2    0    0  0.14967521075E+03  0.23331476675E+03 -0.40704305392E+03  0.51937221416E+03  0.16500000000E+03 0.  0.
   -5000001    1    1    2    0    0 -0.14967521075E+03 -0.23331476675E+03 -0.61009377232E+02  0.32830716289E+03  0.16500000000E+03 0.  0.
<mgrwt>
<rscale>  0 0.70674412E+03</rscale>
<asrwt>0</asrwt>
<pdfrwt beam="1">  1        2 0.10121014E+00 0.70674412E+03</pdfrwt>
<pdfrwt beam="2">  1       -2 0.29202073E-01 0.70674412E+03</pdfrwt>
<totfact> 0.48039712E+02</totfact>
</mgrwt>
</event>
<event>
 4    1  0.8641621E-005  0.6537732E+03  0.7818608E-02  0.9799725E-01
          2   -1    0    0  501    0  0.00000000000E+00  0.00000000000E+00  0.52702843426E+03  0.52702843427E+03  0.25500000000E-02 0.  1.
         -2   -1    0    0    0  501 -0.00000000000E+00 -0.00000000000E+00 -0.20274966538E+03  0.20274966540E+03  0.25500000000E-02 0. -1.
    5000001    1    1    2    0    0 -0.19526798085E+03  0.11406335255E+03  0.35055134976E+03  0.44861038949E+03  0.16500000000E+03 0.  0.
   -5000001    1    1    2    0    0  0.19526798085E+03 -0.11406335255E+03 -0.26272580875E+02  0.28116771018E+03  0.16500000000E+03 0.  0.
<mgrwt>
<rscale>  0 0.65377317E+03</rscale>
<asrwt>0</asrwt>
<pdfrwt beam="1">  1        2 0.81081295E-01 0.65377317E+03</pdfrwt>
<pdfrwt beam="2">  1       -2 0.31192257E-01 0.65377317E+03</pdfrwt>
<totfact> 0.55538094E+02</totfact>
</mgrwt>
</event>
<event>
 4    1  0.8641621E-005  0.6012528E+03  0.7818608E-02  0.9902810E-01
         -2   -1    0    0    0  501 -0.00000000000E+00  0.00000000000E+00  0.72776193520E+02  0.72776193565E+02  0.25500000000E-02 0. -1.
          2   -1    0    0  501    0  0.00000000000E+00 -0.00000000000E+00 -0.12418379884E+04  0.12418379884E+04  0.25500000000E-02 0.  1.
    5000001    1    1    2    0    0  0.16881805844E+03  0.16232077194E+03 -0.78377077679E+03  0.83448738780E+03  0.16500000000E+03 0.  0.
   -5000001    1    1    2    0    0 -0.16881805844E+03 -0.16232077194E+03 -0.38529101813E+03  0.48012679420E+03  0.16500000000E+03 0.  0.
<mgrwt>
<rscale>  0 0.60125283E+03</rscale>
<asrwt>0</asrwt>
<pdfrwt beam="1">  1        2 0.19105198E+00 0.60125283E+03</pdfrwt>
<pdfrwt beam="2">  1       -2 0.11196338E-01 0.60125283E+03</pdfrwt>
<totfact> 0.10333311E+03</totfact>
</mgrwt>
</event>
<event>
 4    1  0.8641621E-005  0.4323991E+03  0.7818608E-02  0.1033105E+00
         -2   -1    0    0    0  501 -0.00000000000E+00  0.00000000000E+00  0.34532462393E+02  0.34532462487E+02  0.25500000000E-02 0. -1.
          2   -1    0    0  501    0  0.00000000000E+00 -0.00000000000E+00 -0.13535740363E+04  0.13535740363E+04  0.25500000000E-02 0.  1.
    5000001    1    1    2    0    0  0.55384355978E+02 -0.11022993703E+03 -0.44903113156E+03  0.49403645919E+03  0.16500000000E+03 0.  0.
   -5000001    1    1    2    0    0 -0.55384355978E+02  0.11022993703E+03 -0.87001044236E+03  0.89407003961E+03  0.16500000000E+03 0.  0.
<mgrwt>
<rscale>  0 0.43239910E+03</rscale>
<asrwt>0</asrwt>
<pdfrwt beam="1">  1        2 0.20824212E+00 0.43239910E+03</pdfrwt>
<pdfrwt beam="2">  1       -2 0.53126876E-02 0.43239910E+03</pdfrwt>
<totfact> 0.29258743E+03</totfact>
</mgrwt>
</event>
<event>
 4    1  0.8641621E-005  0.5927098E+03  0.7818608E-02  0.9920647E-01
          2   -1    0    0  501    0  0.00000000000E+00  0.00000000000E+00  0.33045690880E+04  0.33045690880E+04  0.25500000000E-02 0.  1.
         -2   -1    0    0    0  501 -0.00000000000E+00 -0.00000000000E+00 -0.26577205904E+02  0.26577206027E+02  0.25500000000E-02 0. -1.
    5000001    1    1    2    0    0 -0.19437829492E+03  0.15105251017E+03  0.16457188730E+04  0.16721888025E+04  0.16500000000E+03 0.  0.
   -5000001    1    1    2    0    0  0.19437829492E+03 -0.15105251017E+03  0.16322730091E+04  0.16589574915E+04  0.16500000000E+03 0.  0.
<mgrwt>
<rscale>  0 0.59270975E+03</rscale>
<asrwt>0</asrwt>
<pdfrwt beam="1">  1        2 0.50839511E+00 0.59270975E+03</pdfrwt>
<pdfrwt beam="2">  1       -2 0.40888020E-02 0.59270975E+03</pdfrwt>
<totfact> 0.33939997E+02</totfact>
</mgrwt>
</event>
<event>
 4    1  0.8641621E-005  0.5584324E+03  0.7818608E-02  0.9995608E-01
          2   -1    0    0  501    0  0.00000000000E+00  0.00000000000E+00  0.12163309694E+04  0.12163309694E+04  0.25500000000E-02 0. -1.
         -2   -1    0    0    0  501 -0.00000000000E+00 -0.00000000000E+00 -0.64095773873E+02  0.64095773923E+02  0.25500000000E-02 0.  1.
    5000001    1    1    2    0    0  0.14111449183E+03  0.91635066399E+02  0.91948877852E+03  0.94920751105E+03  0.16500000000E+03 0.  0.
   -5000001    1    1    2    0    0 -0.14111449183E+03 -0.91635066399E+02  0.23274641697E+03  0.33121923225E+03  0.16500000000E+03 0.  0.
<mgrwt>
<rscale>  0 0.55843236E+03</rscale>
<asrwt>0</asrwt>
<pdfrwt beam="1">  1        2 0.18712785E+00 0.55843236E+03</pdfrwt>
<pdfrwt beam="2">  1       -2 0.98608879E-02 0.55843236E+03</pdfrwt>
<totfact> 0.13165445E+03</totfact>
</mgrwt>
</event>
<event>
 4    1  0.8641621E-005  0.4869682E+03  0.7818608E-02  0.1017238E+00
         -2   -1    0    0    0  501 -0.00000000000E+00  0.00000000000E+00  0.11880354335E+03  0.11880354337E+03  0.25500000000E-02 0. -1.
          2   -1    0    0  501    0  0.00000000000E+00 -0.00000000000E+00 -0.49901285048E+03  0.49901285049E+03  0.25500000000E-02 0.  1.
    5000001    1    1    2    0    0 -0.12369142080E+03  0.68441839400E+02 -0.32952109167E+03  0.39470622343E+03  0.16500000000E+03 0.  0.
   -5000001    1    1    2    0    0  0.12369142080E+03 -0.68441839400E+02 -0.50688215460E+02  0.22311017042E+03  0.16500000000E+03 0.  0.
<mgrwt>
<rscale>  0 0.48696815E+03</rscale>
<asrwt>0</asrwt>
<pdfrwt beam="1">  1        2 0.76771206E-01 0.48696815E+03</pdfrwt>
<pdfrwt beam="2">  1       -2 0.18277469E-01 0.48696815E+03</pdfrwt>
<totfact> 0.15387366E+03</totfact>
</mgrwt>
</event>
<event>
 4    1  0.8641621E-005  0.5108232E+03  0.7818608E-02  0.1010992E+00
         -2   -1    0    0    0  501 -0.00000000000E+00  0.00000000000E+00  0.26626133152E+02  0.26626133274E+02  0.25500000000E-02 0. -1.
          2   -1    0    0  501    0  0.00000000000E+00 -0.00000000000E+00 -0.24500394578E+04  0.24500394578E+04  0.25500000000E-02 0.  1.
    5000001    1    1    2    0    0 -0.17607504394E+03  0.11285343528E+02 -0.16138680540E+04  0.16318470749E+04  0.16500000000E+03 0.  0.
   -5000001    1    1    2    0    0  0.17607504394E+03 -0.11285343528E+02 -0.80954527060E+03  0.84481851615E+03  0.16500000000E+03 0.  0.
<mgrwt>
<rscale>  0 0.51082317E+03</rscale>
<asrwt>0</asrwt>
<pdfrwt beam="1">  1        2 0.37692897E+00 0.51082317E+03</pdfrwt>
<pdfrwt beam="2">  1       -2 0.40963301E-02 0.51082317E+03</pdfrwt>
<totfact> 0.11034208E+03</totfact>
</mgrwt>
</event>
<event>
 4    1  0.8641621E-005  0.4315156E+03  0.7818608E-02  0.1033382E+00
          2   -1    0    0  501    0  0.00000000000E+00  0.00000000000E+00  0.19256277877E+03  0.19256277879E+03  0.25500000000E-02 0.  1.
         -2   -1    0    0    0  501 -0.00000000000E+00 -0.00000000000E+00 -0.24174675540E+03  0.24174675542E+03  0.25500000000E-02 0. -1.
    5000001    1    1    2    0    0 -0.94284613610E+02  0.29347933460E+02 -0.12308024439E+03  0.22830820423E+03  0.16500000000E+03 0.  0.
   -5000001    1    1    2    0    0  0.94284613610E+02 -0.29347933460E+02  0.73896267753E+02  0.20600132997E+03  0.16500000000E+03 0.  0.
<mgrwt>
<rscale>  0 0.43151559E+03</rscale>
<asrwt>0</asrwt>
<pdfrwt beam="1">  1        2 0.29625043E-01 0.43151559E+03</pdfrwt>
<pdfrwt beam="2">  1       -2 0.37191809E-01 0.43151559E+03</pdfrwt>
<totfact> 0.12269346E+03</totfact>
</mgrwt>
</event>
<event>
 4    1  0.8641621E-005  0.8607555E+03  0.7818608E-02  0.9476014E-01
          2   -1    0    0  501    0  0.00000000000E+00  0.00000000000E+00  0.17922192257E+03  0.17922192259E+03  0.25500000000E-02 0.  1.
         -2   -1    0    0    0  501 -0.00000000000E+00 -0.00000000000E+00 -0.10334952200E+04  0.10334952200E+04  0.25500000000E-02 0. -1.
    5000001    1    1    2    0    0  0.38562431063E+03  0.89136970115E+02 -0.37539933277E+03  0.56991329817E+03  0.16500000000E+03 0.  0.
   -5000001    1    1    2    0    0 -0.38562431063E+03 -0.89136970115E+02 -0.47887396467E+03  0.64280384444E+03  0.16500000000E+03 0.  0.
<mgrwt>
<rscale>  0 0.86075548E+03</rscale>
<asrwt>0</asrwt>
<pdfrwt beam="1">  1        2 0.27572604E-01 0.86075548E+03</pdfrwt>
<pdfrwt beam="2">  1       -2 0.15899926E+00 0.86075548E+03</pdfrwt>
<totfact> 0.50479286E+01</totfact>
</mgrwt>
</event>
<event>
 4    1  0.8641621E-005  0.5475478E+03  0.7818608E-02  0.1002063E+00
         -2   -1    0    0    0  501 -0.00000000000E+00  0.00000000000E+00  0.48365636366E+02  0.48365636434E+02  0.25500000000E-02 0. -1.
          2   -1    0    0  501    0  0.00000000000E+00 -0.00000000000E+00 -0.15496981219E+04  0.15496981219E+04  0.25500000000E-02 0.  1.
    5000001    1    1    2    0    0 -0.14847837031E+03  0.10832884731E+03 -0.40599933962E+03  0.47522776580E+03  0.16500000000E+03 0.  0.
   -5000001    1    1    2    0    0  0.14847837031E+03 -0.10832884731E+03 -0.10953331459E+04  0.11228359925E+04  0.16500000000E+03 0.  0.
<mgrwt>
<rscale>  0 0.54754775E+03</rscale>
<asrwt>0</asrwt>
<pdfrwt beam="1">  1        2 0.23841506E+00 0.54754775E+03</pdfrwt>
<pdfrwt beam="2">  1       -2 0.74408683E-02 0.54754775E+03</pdfrwt>
<totfact> 0.13421805E+03</totfact>
</mgrwt>
</event>
<event>
 4    1  0.8641621E-005  0.8547865E+03  0.7818608E-02  0.9483935E-01
          2   -1    0    0  501    0  0.00000000000E+00  0.00000000000E+00  0.14091649282E+03  0.14091649284E+03  0.25500000000E-02 0.  1.
         -2   -1    0    0    0  501 -0.00000000000E+00 -0.00000000000E+00 -0.12962640390E+04  0.12962640390E+04  0.25500000000E-02 0. -1.
    5000001    1    1    2    0    0  0.24256826354E+03  0.10854462979E+03 -0.88008344506E+02  0.32494886957E+03  0.16500000000E+03 0.  0.
   -5000001    1    1    2    0    0 -0.24256826354E+03 -0.10854462979E+03 -0.10673392017E+04  0.11122316623E+04  0.16500000000E+03 0.  0.
<mgrwt>
<rscale>  0 0.85478648E+03</rscale>
<asrwt>0</asrwt>
<pdfrwt beam="1">  1        2 0.21679461E-01 0.85478648E+03</pdfrwt>
<pdfrwt beam="2">  1       -2 0.19942523E+00 0.85478648E+03</pdfrwt>
<totfact> 0.35033007E+01</totfact>
</mgrwt>
</event>
<event>
 4    1  0.8641621E-005  0.4894855E+03  0.7818608E-02  0.1016560E+00
          2   -1    0    0  501    0  0.00000000000E+00  0.00000000000E+00  0.74291390658E+02  0.74291390702E+02  0.25500000000E-02 0.  1.
         -2   -1    0    0    0  501 -0.00000000000E+00 -0.00000000000E+00 -0.80627127696E+03  0.80627127697E+03  0.25500000000E-02 0. -1.
    5000001    1    1    2    0    0  0.30400949914E+02 -0.14612772806E+03 -0.18256276914E+03  0.28780496059E+03  0.16500000000E+03 0.  0.
   -5000001    1    1    2    0    0 -0.30400949914E+02  0.14612772806E+03 -0.54941711717E+03  0.59275770708E+03  0.16500000000E+03 0.  0.
<mgrwt>
<rscale>  0 0.48948550E+03</rscale>
<asrwt>0</asrwt>
<pdfrwt beam="1">  1        2 0.11429445E-01 0.48948550E+03</pdfrwt>
<pdfrwt beam="2">  1       -2 0.12404173E+00 0.48948550E+03</pdfrwt>
<totfact> 0.27816109E+02</totfact>
</mgrwt>
</event>
<event>
 4    1  0.8641621E-005  0.9250080E+03  0.7818608E-02  0.9394849E-01
          2   -1    0    0  501    0  0.00000000000E+00  0.00000000000E+00  0.41701156389E+03  0.41701156390E+03  0.25500000000E-02 0.  1.
         -2   -1    0    0    0  501 -0.00000000000E+00 -0.00000000000E+00 -0.51295928914E+03  0.51295928915E+03  0.25500000000E-02 0. -1.
    5000001    1    1    2    0    0  0.26644881887E+03 -0.14863577536E+03  0.25960444918E+03  0.43325170148E+03  0.16500000000E+03 0.  0.
   -5000001    1    1    2    0    0 -0.26644881887E+03  0.14863577536E+03 -0.35555217443E+03  0.49671915157E+03  0.16500000000E+03 0.  0.
<mgrwt>
<rscale>  0 0.92500801E+03</rscale>
<asrwt>0</asrwt>
<pdfrwt beam="1">  1        2 0.64155625E-01 0.92500801E+03</pdfrwt>
<pdfrwt beam="2">  1       -2 0.78916814E-01 0.92500801E+03</pdfrwt>
<totfact> 0.10842489E+02</totfact>
</mgrwt>
</event>
<event>
 4    1  0.8641621E-005  0.5203305E+03  0.7818608E-02  0.1008604E+00
         -2   -1    0    0    0  501 -0.00000000000E+00  0.00000000000E+00  0.58218420598E+02  0.58218420654E+02  0.25500000000E-02 0. -1.
          2   -1    0    0  501    0  0.00000000000E+00 -0.00000000000E+00 -0.11626210367E+04  0.11626210367E+04  0.25500000000E-02 0.  1.
    5000001    1    1    2    0    0 -0.67780180236E+02  0.17155415626E+03 -0.36397228913E+03  0.44014294112E+03  0.16500000000E+03 0.  0.
   -5000001    1    1    2    0    0  0.67780180236E+02 -0.17155415626E+03 -0.74043032695E+03  0.78069651622E+03  0.16500000000E+03 0.  0.
<mgrwt>
<rscale>  0 0.52033051E+03</rscale>
<asrwt>0</asrwt>
<pdfrwt beam="1">  1        2 0.17886476E+00 0.52033051E+03</pdfrwt>
<pdfrwt beam="2">  1       -2 0.89566810E-02 0.52033051E+03</pdfrwt>
<totfact> 0.16543322E+03</totfact>
</mgrwt>
</event>
<event>
 4    1  0.8641621E-005  0.7083841E+03  0.7818608E-02  0.9703001E-01
          2   -1    0    0  501    0  0.00000000000E+00  0.00000000000E+00  0.48560377607E+03  0.48560377607E+03  0.25500000000E-02 0.  1.
         -2   -1    0    0    0  501 -0.00000000000E+00 -0.00000000000E+00 -0.25834233062E+03  0.25834233063E+03  0.25500000000E-02 0. -1.
    5000001    1    1    2    0    0 -0.30356667781E+03  0.88820731509E+01  0.19494774442E+03  0.39681386336E+03  0.16500000000E+03 0.  0.
   -5000001    1    1    2    0    0  0.30356667781E+03 -0.88820731509E+01  0.32313701020E+02  0.34713224335E+03  0.16500000000E+03 0.  0.
<mgrwt>
<rscale>  0 0.70838411E+03</rscale>
<asrwt>0</asrwt>
<pdfrwt beam="1">  1        2 0.74708272E-01 0.70838411E+03</pdfrwt>
<pdfrwt beam="2">  1       -2 0.39744975E-01 0.70838411E+03</pdfrwt>
<totfact> 0.38451877E+02</totfact>
</mgrwt>
</event>
<event>
 4    1  0.8641621E-005  0.5946361E+03  0.7818608E-02  0.9916597E-01
          2   -1    0    0  501    0  0.00000000000E+00  0.00000000000E+00  0.22274322800E+03  0.22274322802E+03  0.25500000000E-02 0.  1.
         -2   -1    0    0    0  501 -0.00000000000E+00 -0.00000000000E+00 -0.39686065390E+03  0.39686065391E+03  0.25500000000E-02 0. -1.
    5000001    1    1    2    0    0  0.79502118806E+02  0.23173471025E+03 -0.51700741437E+02  0.29986585250E+03  0.16500000000E+03 0.  0.
   -5000001    1    1    2    0    0 -0.79502118806E+02 -0.23173471025E+03 -0.12241668446E+03  0.31973802943E+03  0.16500000000E+03 0.  0.
<mgrwt>
<rscale>  0 0.59463610E+03</rscale>
<asrwt>0</asrwt>
<pdfrwt beam="1">  1        2 0.34268189E-01 0.59463610E+03</pdfrwt>
<pdfrwt beam="2">  1       -2 0.61055485E-01 0.59463610E+03</pdfrwt>
<totfact> 0.38603203E+02</totfact>
</mgrwt>
</event>
<event>
 4    1  0.8641621E-005  0.5232306E+03  0.7818608E-02  0.1007887E+00
         -2   -1    0    0    0  501 -0.00000000000E+00  0.00000000000E+00  0.95557339280E+02  0.95557339314E+02  0.25500000000E-02 0. -1.
          2   -1    0    0  501    0  0.00000000000E+00 -0.00000000000E+00 -0.71624607291E+03  0.71624607292E+03  0.25500000000E-02 0.  1.
    5000001    1    1    2    0    0 -0.76847762429E+02 -0.10148808310E+03 -0.55572106569E+03  0.59351184693E+03  0.16500000000E+03 0.  0.
   -5000001    1    1    2    0    0  0.76847762429E+02  0.10148808310E+03 -0.64967667947E+02  0.21829156530E+03  0.16500000000E+03 0.  0.
<mgrwt>
<rscale>  0 0.52323061E+03</rscale>
<asrwt>0</asrwt>
<pdfrwt beam="1">  1        2 0.11019170E+00 0.52323061E+03</pdfrwt>
<pdfrwt beam="2">  1       -2 0.14701130E-01 0.52323061E+03</pdfrwt>
<totfact> 0.14457508E+03</totfact>
</mgrwt>
</event>
<event>
 4    1  0.8641621E-005  0.6435472E+03  0.7818608E-02  0.9818963E-01
          2   -1    0    0  501    0  0.00000000000E+00  0.00000000000E+00  0.22917825372E+03  0.22917825373E+03  0.25500000000E-02 0.  1.
         -2   -1    0    0    0  501 -0.00000000000E+00 -0.00000000000E+00 -0.45178047421E+03  0.45178047422E+03  0.25500000000E-02 0. -1.
    5000001    1    1    2    0    0  0.19016926546E+02 -0.27516865666E+03 -0.12748145361E+03  0.34576864248E+03  0.16500000000E+03 0.  0.
   -5000001    1    1    2    0    0 -0.19016926546E+02  0.27516865666E+03 -0.95120766879E+02  0.33519008547E+03  0.16500000000E+03 0.  0.
<mgrwt>
<rscale>  0 0.64354723E+03</rscale>
<asrwt>0</asrwt>
<pdfrwt beam="1">  1        2 0.35258193E-01 0.64354723E+03</pdfrwt>
<pdfrwt beam="2">  1       -2 0.69504688E-01 0.64354723E+03</pdfrwt>
<totfact> 0.28298134E+02</totfact>
</mgrwt>
</event>
<event>
 4    1  0.8641621E-005  0.6444292E+03  0.7818608E-02  0.9817289E-01
         -2   -1    0    0    0  501 -0.00000000000E+00  0.00000000000E+00  0.21745296155E+03  0.21745296156E+03  0.25500000000E-02 0. -1.
          2   -1    0    0  501    0  0.00000000000E+00 -0.00000000000E+00 -0.47744689986E+03  0.47744689986E+03  0.25500000000E-02 0.  1.
    5000001    1    1    2    0    0 -0.24793425610E+03 -0.16747071927E+01  0.26100801645E+01  0.29783554609E+03  0.16500000000E+03 0.  0.
   -5000001    1    1    2    0    0  0.24793425610E+03  0.16747071927E+01 -0.26260401848E+03  0.39706431534E+03  0.16500000000E+03 0.  0.
<mgrwt>
<rscale>  0 0.64442918E+03</rscale>
<asrwt>0</asrwt>
<pdfrwt beam="1">  1        2 0.73453369E-01 0.64442918E+03</pdfrwt>
<pdfrwt beam="2">  1       -2 0.33454302E-01 0.64442918E+03</pdfrwt>
<totfact> 0.54619529E+02</totfact>
</mgrwt>
</event>
<event>
 4    1  0.8641621E-005  0.6577744E+03  0.7818608E-02  0.9792300E-01
          2   -1    0    0  501    0  0.00000000000E+00  0.00000000000E+00  0.20984158580E+04  0.20984158580E+04  0.25500000000E-02 0.  1.
         -2   -1    0    0    0  501 -0.00000000000E+00 -0.00000000000E+00 -0.51546873875E+02  0.51546873938E+02  0.25500000000E-02 0. -1.
    5000001    1    1    2    0    0 -0.13582527087E+03  0.13512894709E+03  0.33600311175E+03  0.42051329070E+03  0.16500000000E+03 0.  0.
   -5000001    1    1    2    0    0  0.13582527087E+03 -0.13512894709E+03  0.17108658724E+04  0.17294494413E+04  0.16500000000E+03 0.  0.
<mgrwt>
<rscale>  0 0.65777436E+03</rscale>
<asrwt>0</asrwt>
<pdfrwt beam="1">  1        2 0.32283320E+00 0.65777436E+03</pdfrwt>
<pdfrwt beam="2">  1       -2 0.79302885E-02 0.65777436E+03</pdfrwt>
<totfact> 0.60686163E+02</totfact>
</mgrwt>
</event>
<event>
 4    1  0.8641621E-005  0.8193070E+03  0.7818608E-02  0.9532484E-01
         -2   -1    0    0    0  501 -0.00000000000E+00  0.00000000000E+00  0.94854659835E+02  0.94854659869E+02  0.25500000000E-02 0. -1.
          2   -1    0    0  501    0  0.00000000000E+00 -0.00000000000E+00 -0.17691907843E+04  0.17691907843E+04  0.25500000000E-02 0.  1.
    5000001    1    1    2    0    0  0.29309908273E+03 -0.18992454692E+03 -0.11475619559E+04  0.12108269275E+04  0.16500000000E+03 0.  0.
   -5000001    1    1    2    0    0 -0.29309908273E+03  0.18992454692E+03 -0.52677416860E+03  0.65321851667E+03  0.16500000000E+03 0.  0.
<mgrwt>
<rscale>  0 0.81930700E+03</rscale>
<asrwt>0</asrwt>
<pdfrwt beam="1">  1        2 0.27218317E+00 0.81930700E+03</pdfrwt>
<pdfrwt beam="2">  1       -2 0.14593026E-01 0.81930700E+03</pdfrwt>
<totfact> 0.33381946E+02</totfact>
</mgrwt>
</event>
<event>
 4    1  0.8641621E-005  0.6100458E+03  0.7818608E-02  0.9884781E-01
         -2   -1    0    0    0  501 -0.00000000000E+00  0.00000000000E+00  0.88946300600E+02  0.88946300637E+02  0.25500000000E-02 0. -1.
          2   -1    0    0  501    0  0.00000000000E+00 -0.00000000000E+00 -0.10460126810E+04  0.10460126810E+04  0.25500000000E-02 0.  1.
    5000001    1    1    2    0    0 -0.24274645336E+03  0.70015204051E+01 -0.32467624143E+03  0.43773796232E+03  0.16500000000E+03 0.  0.
   -5000001    1    1    2    0    0  0.24274645336E+03 -0.70015204051E+01 -0.63239013895E+03  0.69722101930E+03  0.16500000000E+03 0.  0.
<mgrwt>
<rscale>  0 0.61004576E+03</rscale>
<asrwt>0</asrwt>
<pdfrwt beam="1">  1        2 0.16092502E+00 0.61004576E+03</pdfrwt>
<pdfrwt beam="2">  1       -2 0.13684047E-01 0.61004576E+03</pdfrwt>
<totfact> 0.97131126E+02</totfact>
</mgrwt>
</event>
<event>
 4    1  0.8641621E-005  0.4090450E+03  0.7818608E-02  0.1040692E+00
         -2   -1    0    0    0  501 -0.00000000000E+00  0.00000000000E+00  0.10965678143E+03  0.10965678146E+03  0.25500000000E-02 0. -1.
          2   -1    0    0  501    0  0.00000000000E+00 -0.00000000000E+00 -0.38145791309E+03  0.38145791310E+03  0.25500000000E-02 0.  1.
    5000001    1    1    2    0    0  0.95877206093E+02 -0.59020405732E+02 -0.83173578171E+02  0.21637627191E+03  0.16500000000E+03 0.  0.
   -5000001    1    1    2    0    0 -0.95877206093E+02  0.59020405732E+02 -0.18862755349E+03  0.27473842264E+03  0.16500000000E+03 0.  0.
<mgrwt>
<rscale>  0 0.40904497E+03</rscale>
<asrwt>0</asrwt>
<pdfrwt beam="1">  1        2 0.58685832E-01 0.40904497E+03</pdfrwt>
<pdfrwt beam="2">  1       -2 0.16870274E-01 0.40904497E+03</pdfrwt>
<totfact> 0.23791616E+03</totfact>
</mgrwt>
</event>
<event>
 4    1  0.8641621E-005  0.5328218E+03  0.7818608E-02  0.1005550E+00
          2   -1    0    0  501    0  0.00000000000E+00  0.00000000000E+00  0.97475138333E+03  0.97475138334E+03  0.25500000000E-02 0.  1.
         -2   -1    0    0    0  501 -0.00000000000E+00 -0.00000000000E+00 -0.72813197805E+02  0.72813197849E+02  0.25500000000E-02 0. -1.
    5000001    1    1    2    0    0 -0.17955250763E+03  0.18630980733E+00  0.66190393856E+03  0.70539418880E+03  0.16500000000E+03 0.  0.
   -5000001    1    1    2    0    0  0.17955250763E+03 -0.18630980733E+00  0.24003424697E+03  0.34217039239E+03  0.16500000000E+03 0.  0.
<mgrwt>
<rscale>  0 0.53282179E+03</rscale>
<asrwt>0</asrwt>
<pdfrwt beam="1">  1        2 0.14996175E+00 0.53282179E+03</pdfrwt>
<pdfrwt beam="2">  1       -2 0.11202031E-01 0.53282179E+03</pdfrwt>
<totfact> 0.15011722E+03</totfact>
</mgrwt>
</event>
<event>
 4    1  0.8641621E-005  0.6387204E+03  0.7818608E-02  0.9828178E-01
          2   -1    0    0  501    0  0.00000000000E+00  0.00000000000E+00  0.89823891288E+03  0.89823891288E+03  0.25500000000E-02 0.  1.
         -2   -1    0    0    0  501 -0.00000000000E+00 -0.00000000000E+00 -0.11354545675E+03  0.11354545678E+03  0.25500000000E-02 0. -1.
    5000001    1    1    2    0    0 -0.15169160576E+02  0.26260612339E+03  0.27408192758E+03  0.41417144095E+03  0.16500000000E+03 0.  0.
   -5000001    1    1    2    0    0  0.15169160576E+02 -0.26260612339E+03  0.51061152855E+03  0.59761292871E+03  0.16500000000E+03 0.  0.
<mgrwt>
<rscale>  0 0.63872043E+03</rscale>
<asrwt>0</asrwt>
<pdfrwt beam="1">  1        2 0.13819060E+00 0.63872043E+03</pdfrwt>
<pdfrwt beam="2">  1       -2 0.17468532E-01 0.63872043E+03</pdfrwt>
<totfact> 0.79927121E+02</totfact>
</mgrwt>
</event>
<event>
 4    1  0.8641621E-005  0.4676632E+03  0.7818608E-02  0.1022582E+00
         -2   -1    0    0    0  501 -0.00000000000E+00  0.00000000000E+00  0.20067639968E+04  0.20067639968E+04  0.25500000000E-02 0.  1.
          2   -1    0    0  501    0  0.00000000000E+00 -0.00000000000E+00 -0.27246456518E+02  0.27246456638E+02  0.25500000000E-02 0. -1.
    5000001    1    1    2    0    0 -0.13636355056E+03 -0.67397693068E+02  0.70406722168E+03  0.73896760389E+03  0.16500000000E+03 0.  0.
   -5000001    1    1    2    0    0  0.13636355056E+03  0.67397693068E+02  0.12754503186E+04  0.12950428496E+04  0.16500000000E+03 0.  0.
<mgrwt>
<rscale>  0 0.46766316E+03</rscale>
<asrwt>0</asrwt>
<pdfrwt beam="1">  1        2 0.41917621E-02 0.46766316E+03</pdfrwt>
<pdfrwt beam="2">  1       -2 0.30873295E+00 0.46766316E+03</pdfrwt>
<totfact> 0.63263861E+01</totfact>
</mgrwt>
</event>
<event>
 4    1  0.8641621E-005  0.4012964E+03  0.7818608E-02  0.1043332E+00
          2   -1    0    0  501    0  0.00000000000E+00  0.00000000000E+00  0.16401450116E+04  0.16401450116E+04  0.25500000000E-02 0.  1.
         -2   -1    0    0    0  501 -0.00000000000E+00 -0.00000000000E+00 -0.24546427735E+02  0.24546427868E+02  0.25500000000E-02 0. -1.
    5000001    1    1    2    0    0  0.90229800337E+02 -0.52560734196E+02  0.99927993968E+03  0.10181794761E+04  0.16500000000E+03 0.  0.
   -5000001    1    1    2    0    0 -0.90229800337E+02  0.52560734196E+02  0.61631864422E+03  0.64651196343E+03  0.16500000000E+03 0.  0.
<mgrwt>
<rscale>  0 0.40129640E+03</rscale>
<asrwt>0</asrwt>
<pdfrwt beam="1">  1        2 0.25232997E+00 0.40129640E+03</pdfrwt>
<pdfrwt beam="2">  1       -2 0.37763740E-02 0.40129640E+03</pdfrwt>
<totfact> 0.34424263E+03</totfact>
</mgrwt>
</event>
<event>
 4    1  0.8641621E-005  0.4309049E+03  0.7818608E-02  0.1033574E+00
         -2   -1    0    0    0  501 -0.00000000000E+00  0.00000000000E+00  0.37506862797E+02  0.37506862884E+02  0.25500000000E-02 0. -1.
          2   -1    0    0  501    0  0.00000000000E+00 -0.00000000000E+00 -0.12376339103E+04  0.12376339103E+04  0.25500000000E-02 0.  1.
    5000001    1    1    2    0    0  0.47640512455E+02 -0.12769583417E+03 -0.67368325336E+03  0.70685922951E+03  0.16500000000E+03 0.  0.
   -5000001    1    1    2    0    0 -0.47640512455E+02  0.12769583417E+03 -0.52644379419E+03  0.56828154372E+03  0.16500000000E+03 0.  0.
<mgrwt>
<rscale>  0 0.43090493E+03</rscale>
<asrwt>0</asrwt>
<pdfrwt beam="1">  1        2 0.19040519E+00 0.43090493E+03</pdfrwt>
<pdfrwt beam="2">  1       -2 0.57702875E-02 0.43090493E+03</pdfrwt>
<totfact> 0.29943809E+03</totfact>
</mgrwt>
</event>
<event>
 4    1  0.8641621E-005  0.4460249E+03  0.7818608E-02  0.1028914E+00
         -2   -1    0    0    0  501 -0.00000000000E+00  0.00000000000E+00  0.13115344553E+03  0.13115344555E+03  0.25500000000E-02 0. -1.
          2   -1    0    0  501    0  0.00000000000E+00 -0.00000000000E+00 -0.37920891231E+03  0.37920891231E+03  0.25500000000E-02 0.  1.
    5000001    1    1    2    0    0 -0.61245770019E+02  0.12255073298E+03 -0.19400313312E+03  0.28919187776E+03  0.16500000000E+03 0.  0.
   -5000001    1    1    2    0    0  0.61245770019E+02 -0.12255073298E+03 -0.54052333654E+02  0.22117048011E+03  0.16500000000E+03 0.  0.
<mgrwt>
<rscale>  0 0.44602491E+03</rscale>
<asrwt>0</asrwt>
<pdfrwt beam="1">  1        2 0.58339832E-01 0.44602491E+03</pdfrwt>
<pdfrwt beam="2">  1       -2 0.20177453E-01 0.44602491E+03</pdfrwt>
<totfact> 0.17641673E+03</totfact>
</mgrwt>
</event>
<event>
 4    1  0.8641621E-005  0.3824340E+03  0.7818608E-02  0.1050038E+00
         -2   -1    0    0    0  501 -0.00000000000E+00  0.00000000000E+00  0.11726170042E+03  0.11726170045E+03  0.25500000000E-02 0. -1.
          2   -1    0    0  501    0  0.00000000000E+00 -0.00000000000E+00 -0.31181479787E+03  0.31181479788E+03  0.25500000000E-02 0.  1.
    5000001    1    1    2    0    0  0.69086375822E+02  0.54456734285E+02 -0.14216163580E+03  0.23489017418E+03  0.16500000000E+03 0.  0.
   -5000001    1    1    2    0    0 -0.69086375822E+02 -0.54456734285E+02 -0.52391461653E+02  0.19418632415E+03  0.16500000000E+03 0.  0.
<mgrwt>
<rscale>  0 0.38243396E+03</rscale>
<asrwt>0</asrwt>
<pdfrwt beam="1">  1        2 0.47971507E-01 0.38243396E+03</pdfrwt>
<pdfrwt beam="2">  1       -2 0.18040262E-01 0.38243396E+03</pdfrwt>
<totfact> 0.26445833E+03</totfact>
</mgrwt>
</event>
<event>
 4    1  0.8641621E-005  0.3703436E+03  0.7818608E-02  0.1054562E+00
          2   -1    0    0  501    0  0.00000000000E+00  0.00000000000E+00  0.10728116783E+04  0.10728116783E+04  0.25500000000E-02 0.  1.
         -2   -1    0    0    0  501 -0.00000000000E+00 -0.00000000000E+00 -0.31961436562E+02  0.31961436664E+02  0.25500000000E-02 0. -1.
    5000001    1    1    2    0    0  0.50577311030E+02  0.55574024409E+02  0.63272084745E+03  0.65818478209E+03  0.16500000000E+03 0.  0.
   -5000001    1    1    2    0    0 -0.50577311030E+02 -0.55574024409E+02  0.40812939432E+03  0.44658833290E+03  0.16500000000E+03 0.  0.
<mgrwt>
<rscale>  0 0.37034364E+03</rscale>
<asrwt>0</asrwt>
<pdfrwt beam="1">  1        2 0.16504796E+00 0.37034364E+03</pdfrwt>
<pdfrwt beam="2">  1       -2 0.49171437E-02 0.37034364E+03</pdfrwt>
<totfact> 0.47832500E+03</totfact>
</mgrwt>
</event>
<event>
 4    1  0.8641621E-005  0.5023603E+03  0.7818608E-02  0.1013165E+00
         -2   -1    0    0    0  501 -0.00000000000E+00  0.00000000000E+00  0.76736442751E+02  0.76736442794E+02  0.25500000000E-02 0. -1.
          2   -1    0    0  501    0  0.00000000000E+00 -0.00000000000E+00 -0.82218398538E+03  0.82218398538E+03  0.25500000000E-02 0.  1.
    5000001    1    1    2    0    0  0.17511007620E+03 -0.72012277162E+02 -0.38013788768E+03  0.45560851671E+03  0.16500000000E+03 0.  0.
   -5000001    1    1    2    0    0 -0.17511007620E+03  0.72012277162E+02 -0.36530965494E+03  0.44331191146E+03  0.16500000000E+03 0.  0.
<mgrwt>
<rscale>  0 0.50236033E+03</rscale>
<asrwt>0</asrwt>
<pdfrwt beam="1">  1        2 0.12648984E+00 0.50236033E+03</pdfrwt>
<pdfrwt beam="2">  1       -2 0.11805607E-01 0.50236033E+03</pdfrwt>
<totfact> 0.17412331E+03</totfact>
</mgrwt>
</event>
<event>
 4    1  0.8641621E-005  0.4901133E+03  0.7818608E-02  0.1016392E+00
         -2   -1    0    0    0  501 -0.00000000000E+00  0.00000000000E+00  0.23631066747E+02  0.23631066884E+02  0.25500000000E-02 0. -1.
          2   -1    0    0  501    0  0.00000000000E+00 -0.00000000000E+00 -0.25412634332E+04  0.25412634332E+04  0.25500000000E-02 0.  1.
    5000001    1    1    2    0    0  0.73074072045E+02 -0.46249207470E+01 -0.39150467866E+03  0.43111729646E+03  0.16500000000E+03 0.  0.
   -5000001    1    1    2    0    0 -0.73074072045E+02  0.46249207470E+01 -0.21261276878E+04  0.21337772036E+04  0.16500000000E+03 0.  0.
<mgrwt>
<rscale>  0 0.49011332E+03</rscale>
<asrwt>0</asrwt>
<pdfrwt beam="1">  1        2 0.39096339E+00 0.49011332E+03</pdfrwt>
<pdfrwt beam="2">  1       -2 0.36355508E-02 0.49011332E+03</pdfrwt>
<totfact> 0.11793068E+03</totfact>
</mgrwt>
</event>
<event>
 4    1  0.8641621E-005  0.6152873E+03  0.7818608E-02  0.9874188E-01
          2   -1    0    0  501    0  0.00000000000E+00  0.00000000000E+00  0.29104659511E+04  0.29104659511E+04  0.25500000000E-02 0.  1.
         -2   -1    0    0    0  501 -0.00000000000E+00 -0.00000000000E+00 -0.32518715945E+02  0.32518716045E+02  0.25500000000E-02 0. -1.
    5000001    1    1    2    0    0 -0.22462186314E+02 -0.25592234715E+03  0.12588073808E+04  0.12953076158E+04  0.16500000000E+03 0.  0.
   -5000001    1    1    2    0    0  0.22462186314E+02  0.25592234715E+03  0.16191398544E+04  0.16476770514E+04  0.16500000000E+03 0.  0.
<mgrwt>
<rscale>  0 0.61528730E+03</rscale>
<asrwt>0</asrwt>
<pdfrwt beam="1">  1        2 0.44776387E+00 0.61528730E+03</pdfrwt>
<pdfrwt beam="2">  1       -2 0.50028807E-02 0.61528730E+03</pdfrwt>
<totfact> 0.43562951E+02</totfact>
</mgrwt>
</event>
<event>
 4    1  0.8641621E-005  0.4141221E+03  0.7818608E-02  0.1038996E+00
          2   -1    0    0  501    0  0.00000000000E+00  0.00000000000E+00  0.27770099463E+03  0.27770099464E+03  0.25500000000E-02 0. -1.
         -2   -1    0    0    0  501 -0.00000000000E+00 -0.00000000000E+00 -0.15439011398E+03  0.15439011400E+03  0.25500000000E-02 0.  1.
    5000001    1    1    2    0    0  0.24725315113E+02 -0.11551079853E+03  0.18696094818E+02  0.20378574471E+03  0.16500000000E+03 0.  0.
   -5000001    1    1    2    0    0 -0.24725315113E+02  0.11551079853E+03  0.10461478583E+03  0.22830536393E+03  0.16500000000E+03 0.  0.
<mgrwt>
<rscale>  0 0.41412215E+03</rscale>
<asrwt>0</asrwt>
<pdfrwt beam="1">  1        2 0.42723230E-01 0.41412215E+03</pdfrwt>
<pdfrwt beam="2">  1       -2 0.23752325E-01 0.41412215E+03</pdfrwt>
<totfact> 0.18641329E+03</totfact>
</mgrwt>
</event>
<event>
 4    1  0.8641621E-005  0.5321916E+03  0.7818608E-02  0.1005702E+00
          2   -1    0    0  501    0  0.00000000000E+00  0.00000000000E+00  0.83418687664E+02  0.83418687703E+02  0.25500000000E-02 0.  1.
         -2   -1    0    0    0  501 -0.00000000000E+00 -0.00000000000E+00 -0.84881430273E+03  0.84881430274E+03  0.25500000000E-02 0. -1.
    5000001    1    1    2    0    0 -0.62168174241E+02  0.19889698694E+03 -0.36074350952E+03  0.44809125517E+03  0.16500000000E+03 0.  0.
   -5000001    1    1    2    0    0  0.62168174241E+02 -0.19889698694E+03 -0.40465210555E+03  0.48414173527E+03  0.16500000000E+03 0.  0.
<mgrwt>
<rscale>  0 0.53219160E+03</rscale>
<asrwt>0</asrwt>
<pdfrwt beam="1">  1        2 0.12833645E-01 0.53219160E+03</pdfrwt>
<pdfrwt beam="2">  1       -2 0.13058681E+00 0.53219160E+03</pdfrwt>
<totfact> 0.21169462E+02</totfact>
</mgrwt>
</event>
<event>
 4    1  0.8641621E-005  0.5736742E+03  0.7818608E-02  0.9961581E-01
          2   -1    0    0  501    0  0.00000000000E+00  0.00000000000E+00  0.16090501343E+04  0.16090501343E+04  0.25500000000E-02 0.  1.
         -2   -1    0    0    0  501 -0.00000000000E+00 -0.00000000000E+00 -0.51132980850E+02  0.51132980914E+02  0.25500000000E-02 0. -1.
    5000001    1    1    2    0    0  0.36975031024E+02 -0.20451508565E+03  0.10940795202E+04  0.11258013012E+04  0.16500000000E+03 0.  0.
   -5000001    1    1    2    0    0 -0.36975031024E+02  0.20451508565E+03  0.46383763329E+03  0.53438181409E+03  0.16500000000E+03 0.  0.
<mgrwt>
<rscale>  0 0.57367423E+03</rscale>
<asrwt>0</asrwt>
<pdfrwt beam="1">  1        2 0.24754621E+00 0.57367423E+03</pdfrwt>
<pdfrwt beam="2">  1       -2 0.78666113E-02 0.57367423E+03</pdfrwt>
<totfact> 0.11389468E+03</totfact>
</mgrwt>
</event>
<event>
 4    1  0.8641621E-005  0.8118572E+03  0.7818608E-02  0.9543011E-01
          2   -1    0    0  501    0  0.00000000000E+00  0.00000000000E+00  0.63029759526E+03  0.63029759526E+03  0.25500000000E-02 0.  1.
         -2   -1    0    0    0  501 -0.00000000000E+00 -0.00000000000E+00 -0.26142895131E+03  0.26142895132E+03  0.25500000000E-02 0. -1.
    5000001    1    1    2    0    0 -0.36954495293E+03  0.29305613338E+02  0.17187489569E+03  0.44066798270E+03  0.16500000000E+03 0.  0.
   -5000001    1    1    2    0    0  0.36954495293E+03 -0.29305613338E+02  0.19699374826E+03  0.45105856389E+03  0.16500000000E+03 0.  0.
<mgrwt>
<rscale>  0 0.81185723E+03</rscale>
<asrwt>0</asrwt>
<pdfrwt beam="1">  1        2 0.96968860E-01 0.81185723E+03</pdfrwt>
<pdfrwt beam="2">  1       -2 0.40219839E-01 0.81185723E+03</pdfrwt>
<totfact> 0.27478915E+02</totfact>
</mgrwt>
</event>
<event>
 4    1  0.8641621E-005  0.8416727E+03  0.7818608E-02  0.9501582E-01
          2   -1    0    0  501    0  0.00000000000E+00  0.00000000000E+00  0.14327610865E+04  0.14327610865E+04  0.25500000000E-02 0.  1.
         -2   -1    0    0    0  501 -0.00000000000E+00 -0.00000000000E+00 -0.12360974412E+03  0.12360974415E+03  0.25500000000E-02 0. -1.
    5000001    1    1    2    0    0  0.24189151910E+03 -0.25296268061E+03  0.34861919422E+03  0.52082815532E+03  0.16500000000E+03 0.  0.
   -5000001    1    1    2    0    0 -0.24189151910E+03  0.25296268061E+03  0.96053214821E+03  0.10355426754E+04  0.16500000000E+03 0.  0.
<mgrwt>
<rscale>  0 0.84167269E+03</rscale>
<asrwt>0</asrwt>
<pdfrwt beam="1">  1        2 0.22042478E+00 0.84167269E+03</pdfrwt>
<pdfrwt beam="2">  1       -2 0.19016884E-01 0.84167269E+03</pdfrwt>
<totfact> 0.32516702E+02</totfact>
</mgrwt>
</event>
<event>
 4    1  0.8641621E-005  0.5434529E+03  0.7818608E-02  0.1003021E+00
         -2   -1    0    0    0  501 -0.00000000000E+00  0.00000000000E+00  0.57527077931E+03  0.57527077931E+03  0.25500000000E-02 0. -1.
          2   -1    0    0  501    0  0.00000000000E+00 -0.00000000000E+00 -0.12834872817E+03  0.12834872820E+03  0.25500000000E-02 0.  1.
    5000001    1    1    2    0    0 -0.77118603807E+02 -0.19009658729E+03  0.13635529932E+03  0.29648230842E+03  0.16500000000E+03 0.  0.
   -5000001    1    1    2    0    0  0.77118603807E+02  0.19009658729E+03  0.31056675181E+03  0.40713719909E+03  0.16500000000E+03 0.  0.
<mgrwt>
<rscale>  0 0.54345293E+03</rscale>
<asrwt>0</asrwt>
<pdfrwt beam="1">  1        2 0.19745958E-01 0.54345293E+03</pdfrwt>
<pdfrwt beam="2">  1       -2 0.88503197E-01 0.54345293E+03</pdfrwt>
<totfact> 0.32043598E+02</totfact>
</mgrwt>
</event>
<event>
 4    1  0.8641621E-005  0.7050656E+03  0.7818608E-02  0.9708608E-01
         -2   -1    0    0    0  501 -0.00000000000E+00  0.00000000000E+00  0.71631122308E+02  0.71631122353E+02  0.25500000000E-02 0. -1.
          2   -1    0    0  501    0  0.00000000000E+00 -0.00000000000E+00 -0.17349913816E+04  0.17349913816E+04  0.25500000000E-02 0.  1.
    5000001    1    1    2    0    0  0.20529278196E+03  0.22609222714E+03 -0.98945824214E+03  0.10485778152E+04  0.16500000000E+03 0.  0.
   -5000001    1    1    2    0    0 -0.20529278196E+03 -0.22609222714E+03 -0.67390201718E+03  0.75804468882E+03  0.16500000000E+03 0.  0.
<mgrwt>
<rscale>  0 0.70506561E+03</rscale>
<asrwt>0</asrwt>
<pdfrwt beam="1">  1        2 0.26692172E+00 0.70506561E+03</pdfrwt>
<pdfrwt beam="2">  1       -2 0.11020174E-01 0.70506561E+03</pdfrwt>
<totfact> 0.56009945E+02</totfact>
</mgrwt>
</event>
<event>
 4    1  0.8641621E-005  0.5806985E+03  0.7818608E-02  0.9946280E-01
         -2   -1    0    0    0  501 -0.00000000000E+00  0.00000000000E+00  0.29485769515E+03  0.29485769516E+03  0.25500000000E-02 0. -1.
          2   -1    0    0  501    0  0.00000000000E+00 -0.00000000000E+00 -0.28590974644E+03  0.28590974645E+03  0.25500000000E-02 0.  1.
    5000001    1    1    2    0    0  0.10821760389E+03  0.21104606797E+03  0.33221016531E+02  0.29082662969E+03  0.16500000000E+03 0.  0.
   -5000001    1    1    2    0    0 -0.10821760389E+03 -0.21104606797E+03 -0.24273067823E+02  0.28994081192E+03  0.16500000000E+03 0.  0.
<mgrwt>
<rscale>  0 0.58069851E+03</rscale>
<asrwt>0</asrwt>
<pdfrwt beam="1">  1        2 0.43986115E-01 0.58069851E+03</pdfrwt>
<pdfrwt beam="2">  1       -2 0.45362722E-01 0.58069851E+03</pdfrwt>
<totfact> 0.53807282E+02</totfact>
</mgrwt>
</event>
<event>
 4    1  0.8641621E-005  0.5110169E+03  0.7818608E-02  0.1010943E+00
          2   -1    0    0  501    0  0.00000000000E+00  0.00000000000E+00  0.27670443330E+03  0.27670443332E+03  0.25500000000E-02 0.  1.
         -2   -1    0    0    0  501 -0.00000000000E+00 -0.00000000000E+00 -0.23593611148E+03  0.23593611150E+03  0.25500000000E-02 0. -1.
    5000001    1    1    2    0    0 -0.18883578901E+03  0.14971332522E+02  0.67185063933E+02  0.26004216740E+03  0.16500000000E+03 0.  0.
   -5000001    1    1    2    0    0  0.18883578901E+03 -0.14971332522E+02 -0.26416742111E+02  0.25259837741E+03  0.16500000000E+03 0.  0.
<mgrwt>
<rscale>  0 0.51101690E+03</rscale>
<asrwt>0</asrwt>
<pdfrwt beam="1">  1        2 0.42569913E-01 0.51101690E+03</pdfrwt>
<pdfrwt beam="2">  1       -2 0.36297863E-01 0.51101690E+03</pdfrwt>
<totfact> 0.86105131E+02</totfact>
</mgrwt>
</event>
<event>
 4    1  0.8641621E-005  0.5569719E+03  0.7818608E-02  0.9998930E-01
          2   -1    0    0  501    0  0.00000000000E+00  0.00000000000E+00  0.12868659690E+04  0.12868659690E+04  0.25500000000E-02 0.  1.
         -2   -1    0    0    0  501 -0.00000000000E+00 -0.00000000000E+00 -0.60266123877E+02  0.60266123931E+02  0.25500000000E-02 0. -1.
    5000001    1    1    2    0    0 -0.21115017431E+03  0.34378115191E+02  0.44991560557E+03  0.52480025062E+03  0.16500000000E+03 0.  0.
   -5000001    1    1    2    0    0  0.21115017431E+03 -0.34378115191E+02  0.77668423960E+03  0.82233184236E+03  0.16500000000E+03 0.  0.
<mgrwt>
<rscale>  0 0.55697190E+03</rscale>
<asrwt>0</asrwt>
<pdfrwt beam="1">  1        2 0.19797938E+00 0.55697190E+03</pdfrwt>
<pdfrwt beam="2">  1       -2 0.92717113E-02 0.55697190E+03</pdfrwt>
<totfact> 0.13240328E+03</totfact>
</mgrwt>
</event>
<event>
 4    1  0.8641621E-005  0.6154844E+03  0.7818608E-02  0.9873792E-01
         -2   -1    0    0    0  501 -0.00000000000E+00  0.00000000000E+00  0.13794409484E+03  0.13794409486E+03  0.25500000000E-02 0. -1.
          2   -1    0    0  501    0  0.00000000000E+00 -0.00000000000E+00 -0.68654818819E+03  0.68654818820E+03  0.25500000000E-02 0.  1.
    5000001    1    1    2    0    0 -0.22012159980E+03 -0.13385289883E+02 -0.45820866996E+03  0.53461469294E+03  0.16500000000E+03 0.  0.
   -5000001    1    1    2    0    0  0.22012159980E+03  0.13385289883E+02 -0.90395423390E+02  0.28987759012E+03  0.16500000000E+03 0.  0.
<mgrwt>
<rscale>  0 0.61548442E+03</rscale>
<asrwt>0</asrwt>
<pdfrwt beam="1">  1        2 0.10562280E+00 0.61548442E+03</pdfrwt>
<pdfrwt beam="2">  1       -2 0.21222169E-01 0.61548442E+03</pdfrwt>
<totfact> 0.81121333E+02</totfact>
</mgrwt>
</event>
<event>
 4    1  0.8641621E-005  0.7056938E+03  0.7818608E-02  0.9707544E-01
          2   -1    0    0  501    0  0.00000000000E+00  0.00000000000E+00  0.52611071949E+03  0.52611071950E+03  0.25500000000E-02 0.  1.
         -2   -1    0    0    0  501 -0.00000000000E+00 -0.00000000000E+00 -0.23664397612E+03  0.23664397613E+03  0.25500000000E-02 0. -1.
    5000001    1    1    2    0    0  0.14113258374E+03 -0.26108099890E+03  0.41093594294E+02  0.34204587071E+03  0.16500000000E+03 0.  0.
   -5000001    1    1    2    0    0 -0.14113258374E+03  0.26108099890E+03  0.24837314908E+03  0.42070882492E+03  0.16500000000E+03 0.  0.
<mgrwt>
<rscale>  0 0.70569379E+03</rscale>
<asrwt>0</asrwt>
<pdfrwt beam="1">  1        2 0.80940109E-01 0.70569379E+03</pdfrwt>
<pdfrwt beam="2">  1       -2 0.36406766E-01 0.70569379E+03</pdfrwt>
<totfact> 0.41503579E+02</totfact>
</mgrwt>
</event>
<event>
 4    1  0.8641621E-005  0.7315192E+03  0.7818608E-02  0.9664798E-01
         -2   -1    0    0    0  501 -0.00000000000E+00  0.00000000000E+00  0.25462892480E+03  0.25462892481E+03  0.25500000000E-02 0.  1.
          2   -1    0    0  501    0  0.00000000000E+00 -0.00000000000E+00 -0.52539226603E+03  0.52539226604E+03  0.25500000000E-02 0. -1.
    5000001    1    1    2    0    0 -0.97956556209E+02  0.29040836132E+03 -0.15582309936E+02  0.34842547498E+03  0.16500000000E+03 0.  0.
   -5000001    1    1    2    0    0  0.97956556209E+02 -0.29040836132E+03 -0.25518103130E+03  0.43159571588E+03  0.16500000000E+03 0.  0.
<mgrwt>
<rscale>  0 0.73151915E+03</rscale>
<asrwt>0</asrwt>
<pdfrwt beam="1">  1        2 0.80829579E-01 0.73151915E+03</pdfrwt>
<pdfrwt beam="2">  1       -2 0.39173681E-01 0.73151915E+03</pdfrwt>
<totfact> 0.36066537E+02</totfact>
</mgrwt>
</event>
<event>
 4    1  0.8641621E-005  0.4473917E+03  0.7818608E-02  0.1028503E+00
         -2   -1    0    0    0  501 -0.00000000000E+00  0.00000000000E+00  0.72899077397E+03  0.72899077397E+03  0.25500000000E-02 0. -1.
          2   -1    0    0  501    0  0.00000000000E+00 -0.00000000000E+00 -0.68642617608E+02  0.68642617656E+02  0.25500000000E-02 0.  1.
    5000001    1    1    2    0    0 -0.45000748586E+02 -0.12838407266E+03  0.44718269077E+03  0.49568628830E+03  0.16500000000E+03 0.  0.
   -5000001    1    1    2    0    0  0.45000748586E+02  0.12838407266E+03  0.21316546559E+03  0.30194710333E+03  0.16500000000E+03 0.  0.
<mgrwt>
<rscale>  0 0.44739171E+03</rscale>
<asrwt>0</asrwt>
<pdfrwt beam="1">  1        2 0.10560403E-01 0.44739171E+03</pdfrwt>
<pdfrwt beam="2">  1       -2 0.11215243E+00 0.44739171E+03</pdfrwt>
<totfact> 0.39293810E+02</totfact>
</mgrwt>
</event>
<event>
 4    1  0.8641621E-005  0.4012341E+03  0.7818608E-02  0.1043353E+00
          2   -1    0    0  501    0  0.00000000000E+00  0.00000000000E+00  0.18480965576E+04  0.18480965576E+04  0.25500000000E-02 0.  1.
         -2   -1    0    0    0  501 -0.00000000000E+00 -0.00000000000E+00 -0.21777651102E+02  0.21777651251E+02  0.25500000000E-02 0. -1.
    5000001    1    1    2    0    0  0.46500031791E+02 -0.10420736556E+03  0.90905896115E+03  0.93093212580E+03  0.16500000000E+03 0.  0.
   -5000001    1    1    2    0    0 -0.46500031791E+02  0.10420736556E+03  0.91725994537E+03  0.93894208307E+03  0.16500000000E+03 0.  0.
<mgrwt>
<rscale>  0 0.40123411E+03</rscale>
<asrwt>0</asrwt>
<pdfrwt beam="1">  1        2 0.28432255E+00 0.40123411E+03</pdfrwt>
<pdfrwt beam="2">  1       -2 0.33504079E-02 0.40123411E+03</pdfrwt>
<totfact> 0.31950610E+03</totfact>
</mgrwt>
</event>
<event>
 4    1  0.8641621E-005  0.5676993E+03  0.7818608E-02  0.9974783E-01
         -2   -1    0    0    0  501 -0.00000000000E+00  0.00000000000E+00  0.47938568355E+02  0.47938568423E+02  0.25500000000E-02 0. -1.
          2   -1    0    0  501    0  0.00000000000E+00 -0.00000000000E+00 -0.16807057828E+04  0.16807057828E+04  0.25500000000E-02 0.  1.
    5000001    1    1    2    0    0  0.11615234817E+03 -0.18489819888E+03 -0.58715927768E+03  0.64781149210E+03  0.16500000000E+03 0.  0.
   -5000001    1    1    2    0    0 -0.11615234817E+03  0.18489819888E+03 -0.10456079367E+04  0.10808328591E+04  0.16500000000E+03 0.  0.
<mgrwt>
<rscale>  0 0.56769932E+03</rscale>
<asrwt>0</asrwt>
<pdfrwt beam="1">  1        2 0.25857008E+00 0.56769932E+03</pdfrwt>
<pdfrwt beam="2">  1       -2 0.73751657E-02 0.56769932E+03</pdfrwt>
<totfact> 0.11537977E+03</totfact>
</mgrwt>
</event>
<event>
 4    1  0.8641621E-005  0.4957907E+03  0.7818608E-02  0.1014883E+00
          2   -1    0    0  501    0  0.00000000000E+00  0.00000000000E+00  0.61602896792E+02  0.61602896845E+02  0.25500000000E-02 0.  1.
         -2   -1    0    0    0  501 -0.00000000000E+00 -0.00000000000E+00 -0.99755222447E+03  0.99755222447E+03  0.25500000000E-02 0. -1.
    5000001    1    1    2    0    0 -0.17902050085E+03 -0.46673914052E+02 -0.46677990092E+03  0.52852177806E+03  0.16500000000E+03 0.  0.
   -5000001    1    1    2    0    0  0.17902050085E+03  0.46673914052E+02 -0.46916942675E+03  0.53063334326E+03  0.16500000000E+03 0.  0.
<mgrwt>
<rscale>  0 0.49579071E+03</rscale>
<asrwt>0</asrwt>
<pdfrwt beam="1">  1        2 0.94773695E-02 0.49579071E+03</pdfrwt>
<pdfrwt beam="2">  1       -2 0.15346956E+00 0.49579071E+03</pdfrwt>
<totfact> 0.20434385E+02</totfact>
</mgrwt>
</event>
<event>
 4    1  0.8641621E-005  0.4377189E+03  0.7818608E-02  0.1031449E+00
         -2   -1    0    0    0  501 -0.00000000000E+00  0.00000000000E+00  0.38420125999E+03  0.38420126000E+03  0.25500000000E-02 0. -1.
          2   -1    0    0  501    0  0.00000000000E+00 -0.00000000000E+00 -0.12467284722E+03  0.12467284725E+03  0.25500000000E-02 0.  1.
    5000001    1    1    2    0    0  0.42364487323E+02  0.13532204170E+03  0.10206551407E+03  0.24031057804E+03  0.16500000000E+03 0.  0.
   -5000001    1    1    2    0    0 -0.42364487323E+02 -0.13532204170E+03  0.15746289870E+03  0.26856352921E+03  0.16500000000E+03 0.  0.
<mgrwt>
<rscale>  0 0.43771893E+03</rscale>
<asrwt>0</asrwt>
<pdfrwt beam="1">  1        2 0.19180438E-01 0.43771893E+03</pdfrwt>
<pdfrwt beam="2">  1       -2 0.59107885E-01 0.43771893E+03</pdfrwt>
<totfact> 0.80084225E+02</totfact>
</mgrwt>
</event>
<event>
 4    1  0.8641621E-005  0.7149064E+03  0.7818608E-02  0.9692074E-01
          2   -1    0    0  501    0  0.00000000000E+00  0.00000000000E+00  0.36645918109E+03  0.36645918110E+03  0.25500000000E-02 0.  1.
         -2   -1    0    0    0  501 -0.00000000000E+00 -0.00000000000E+00 -0.34866857219E+03  0.34866857220E+03  0.25500000000E-02 0. -1.
    5000001    1    1    2    0    0 -0.15939093383E+02  0.31196898006E+03  0.63401624427E+02  0.35891985901E+03  0.16500000000E+03 0.  0.
   -5000001    1    1    2    0    0  0.15939093383E+02 -0.31196898006E+03 -0.45611015524E+02  0.35620789429E+03  0.16500000000E+03 0.  0.
<mgrwt>
<rscale>  0 0.71490643E+03</rscale>
<asrwt>0</asrwt>
<pdfrwt beam="1">  1        2 0.56378335E-01 0.71490643E+03</pdfrwt>
<pdfrwt beam="2">  1       -2 0.53641319E-01 0.71490643E+03</pdfrwt>
<totfact> 0.29006735E+02</totfact>
</mgrwt>
</event>
<event>
 4    1  0.8641621E-005  0.6105645E+03  0.7818608E-02  0.9883727E-01
         -2   -1    0    0    0  501 -0.00000000000E+00  0.00000000000E+00  0.10405817291E+04  0.10405817291E+04  0.25500000000E-02 0. -1.
          2   -1    0    0  501    0  0.00000000000E+00 -0.00000000000E+00 -0.89562659243E+02  0.89562659279E+02  0.25500000000E-02 0.  1.
    5000001    1    1    2    0    0  0.19202988707E+03 -0.14471374169E+03  0.64265974885E+03  0.70572947888E+03  0.16500000000E+03 0.  0.
   -5000001    1    1    2    0    0 -0.19202988707E+03  0.14471374169E+03  0.30835932101E+03  0.42441490951E+03  0.16500000000E+03 0.  0.
<mgrwt>
<rscale>  0 0.61056455E+03</rscale>
<asrwt>0</asrwt>
<pdfrwt beam="1">  1        2 0.13778870E-01 0.61056455E+03</pdfrwt>
<pdfrwt beam="2">  1       -2 0.16008950E+00 0.61056455E+03</pdfrwt>
<totfact> 0.11388558E+02</totfact>
</mgrwt>
</event>
<event>
 4    1  0.8641621E-005  0.5422210E+03  0.7818608E-02  0.1003311E+00
          2   -1    0    0  501    0  0.00000000000E+00  0.00000000000E+00  0.20812259694E+04  0.20812259694E+04  0.25500000000E-02 0.  1.
         -2   -1    0    0    0  501 -0.00000000000E+00 -0.00000000000E+00 -0.35316159286E+02  0.35316159378E+02  0.25500000000E-02 0. -1.
    5000001    1    1    2    0    0  0.85743034308E+02  0.19728324407E+03  0.10157980076E+04  0.10513530038E+04  0.16500000000E+03 0.  0.
   -5000001    1    1    2    0    0 -0.85743034308E+02 -0.19728324407E+03  0.10301118025E+04  0.10651891249E+04  0.16500000000E+03 0.  0.
<mgrwt>
<rscale>  0 0.54222102E+03</rscale>
<asrwt>0</asrwt>
<pdfrwt beam="1">  1        2 0.32018873E+00 0.54222102E+03</pdfrwt>
<pdfrwt beam="2">  1       -2 0.54332532E-02 0.54222102E+03</pdfrwt>
<totfact> 0.11339682E+03</totfact>
</mgrwt>
</event>
<event>
 4    1  0.8641621E-005  0.4712361E+03  0.7818608E-02  0.1021572E+00
         -2   -1    0    0    0  501 -0.00000000000E+00  0.00000000000E+00  0.31728141072E+02  0.31728141174E+02  0.25500000000E-02 0. -1.
          2   -1    0    0  501    0  0.00000000000E+00 -0.00000000000E+00 -0.17497361435E+04  0.17497361435E+04  0.25500000000E-02 0.  1.
    5000001    1    1    2    0    0 -0.72815123789E+02  0.15104184275E+03 -0.90904190478E+03  0.93898768105E+03  0.16500000000E+03 0.  0.
   -5000001    1    1    2    0    0  0.72815123789E+02 -0.15104184275E+03 -0.80896609764E+03  0.84247660362E+03  0.16500000000E+03 0.  0.
<mgrwt>
<rscale>  0 0.47123614E+03</rscale>
<asrwt>0</asrwt>
<pdfrwt beam="1">  1        2 0.26919010E+00 0.47123614E+03</pdfrwt>
<pdfrwt beam="2">  1       -2 0.48812539E-02 0.47123614E+03</pdfrwt>
<totfact> 0.20262964E+03</totfact>
</mgrwt>
</event>
<event>
 4    1  0.8641621E-005  0.1407908E+04  0.7818608E-02  0.8948114E-01
          2   -1    0    0  501    0  0.00000000000E+00  0.00000000000E+00  0.29018642648E+04  0.29018642648E+04  0.25500000000E-02 0.  1.
         -2   -1    0    0    0  501 -0.00000000000E+00 -0.00000000000E+00 -0.17077007112E+03  0.17077007114E+03  0.25500000000E-02 0. -1.
    5000001    1    1    2    0    0  0.64233211977E+03 -0.14573231100E+03  0.96019343771E+03  0.11760207891E+04  0.16500000000E+03 0.  0.
   -5000001    1    1    2    0    0 -0.64233211977E+03  0.14573231100E+03  0.17709007560E+04  0.18966135468E+04  0.16500000000E+03 0.  0.
<mgrwt>
<rscale>  0 0.14079085E+04</rscale>
<asrwt>0</asrwt>
<pdfrwt beam="1">  1        2 0.44644067E+00 0.14079085E+04</pdfrwt>
<pdfrwt beam="2">  1       -2 0.26272318E-01 0.14079085E+04</pdfrwt>
<totfact> 0.25742768E+01</totfact>
</mgrwt>
</event>
<event>
 4    1  0.8641621E-005  0.3922273E+03  0.7818608E-02  0.1046505E+00
          2   -1    0    0  501    0  0.00000000000E+00  0.00000000000E+00  0.10127068885E+04  0.10127068885E+04  0.25500000000E-02 0.  1.
         -2   -1    0    0    0  501 -0.00000000000E+00 -0.00000000000E+00 -0.37977974344E+02  0.37977974429E+02  0.25500000000E-02 0. -1.
    5000001    1    1    2    0    0 -0.38558773897E+02  0.91197635021E+02  0.38600340364E+03  0.43130895573E+03  0.16500000000E+03 0.  0.
   -5000001    1    1    2    0    0  0.38558773897E+02 -0.91197635021E+02  0.58872551047E+03  0.61937590715E+03  0.16500000000E+03 0.  0.
<mgrwt>
<rscale>  0 0.39222726E+03</rscale>
<asrwt>0</asrwt>
<pdfrwt beam="1">  1        2 0.15580106E+00 0.39222726E+03</pdfrwt>
<pdfrwt beam="2">  1       -2 0.58427653E-02 0.39222726E+03</pdfrwt>
<totfact> 0.39930465E+03</totfact>
</mgrwt>
</event>
<event>
 4    1  0.8641621E-005  0.3840467E+03  0.7818608E-02  0.1049448E+00
          2   -1    0    0  501    0  0.00000000000E+00  0.00000000000E+00  0.41258372501E+03  0.41258372501E+03  0.25500000000E-02 0.  1.
         -2   -1    0    0    0  501 -0.00000000000E+00 -0.00000000000E+00 -0.89370855585E+02  0.89370855622E+02  0.25500000000E-02 0. -1.
    5000001    1    1    2    0    0 -0.54789418235E+02  0.75058321953E+02  0.20319186002E+03  0.27775450315E+03  0.16500000000E+03 0.  0.
   -5000001    1    1    2    0    0  0.54789418235E+02 -0.75058321953E+02  0.12002100941E+03  0.22420007748E+03  0.16500000000E+03 0.  0.
<mgrwt>
<rscale>  0 0.38404667E+03</rscale>
<asrwt>0</asrwt>
<pdfrwt beam="1">  1        2 0.63474418E-01 0.38404667E+03</pdfrwt>
<pdfrwt beam="2">  1       -2 0.13749363E-01 0.38404667E+03</pdfrwt>
<totfact> 0.30683656E+03</totfact>
</mgrwt>
</event>
<event>
 4    1  0.8641621E-005  0.3646929E+03  0.7818608E-02  0.1056741E+00
         -2   -1    0    0    0  501 -0.00000000000E+00  0.00000000000E+00  0.54130028244E+02  0.54130028304E+02  0.25500000000E-02 0. -1.
          2   -1    0    0  501    0  0.00000000000E+00 -0.00000000000E+00 -0.61426576463E+03  0.61426576464E+03  0.25500000000E-02 0.  1.
    5000001    1    1    2    0    0 -0.17377269901E+02 -0.74035527447E+02 -0.30857864610E+03  0.35809078411E+03  0.16500000000E+03 0.  0.
   -5000001    1    1    2    0    0  0.17377269901E+02  0.74035527447E+02 -0.25155709028E+03  0.31030500883E+03  0.16500000000E+03 0.  0.
<mgrwt>
<rscale>  0 0.36469287E+03</rscale>
<asrwt>0</asrwt>
<pdfrwt beam="1">  1        2 0.94502420E-01 0.36469287E+03</pdfrwt>
<pdfrwt beam="2">  1       -2 0.83276971E-02 0.36469287E+03</pdfrwt>
<totfact> 0.43768492E+03</totfact>
</mgrwt>
</event>
<event>
 4    1  0.8641621E-005  0.4093570E+03  0.7818608E-02  0.1040587E+00
         -2   -1    0    0    0  501 -0.00000000000E+00  0.00000000000E+00  0.40527308303E+02  0.40527308383E+02  0.25500000000E-02 0. -1.
          2   -1    0    0  501    0  0.00000000000E+00 -0.00000000000E+00 -0.10337054046E+04  0.10337054046E+04  0.25500000000E-02 0.  1.
    5000001    1    1    2    0    0  0.87128591905E+02  0.42284398123E+02 -0.68743381361E+03  0.71356121667E+03  0.16500000000E+03 0.  0.
   -5000001    1    1    2    0    0 -0.87128591905E+02 -0.42284398123E+02 -0.30574428267E+03  0.36067149629E+03  0.16500000000E+03 0.  0.
<mgrwt>
<rscale>  0 0.40935705E+03</rscale>
<asrwt>0</asrwt>
<pdfrwt beam="1">  1        2 0.15903158E+00 0.40935705E+03</pdfrwt>
<pdfrwt beam="2">  1       -2 0.62349713E-02 0.40935705E+03</pdfrwt>
<totfact> 0.35053214E+03</totfact>
</mgrwt>
</event>
<event>
 4    1  0.8641621E-005  0.4649165E+03  0.7818608E-02  0.1023365E+00
          2   -1    0    0  501    0  0.00000000000E+00  0.00000000000E+00  0.32965155982E+03  0.32965155983E+03  0.25500000000E-02 0.  1.
         -2   -1    0    0    0  501 -0.00000000000E+00 -0.00000000000E+00 -0.16392106003E+03  0.16392106005E+03  0.25500000000E-02 0. -1.
    5000001    1    1    2    0    0  0.14279412611E+03  0.63651368920E+02  0.31180046814E+02  0.22943159010E+03  0.16500000000E+03 0.  0.
   -5000001    1    1    2    0    0 -0.14279412611E+03 -0.63651368920E+02  0.13455045298E+03  0.26414102978E+03  0.16500000000E+03 0.  0.
<mgrwt>
<rscale>  0 0.46491648E+03</rscale>
<asrwt>0</asrwt>
<pdfrwt beam="1">  1        2 0.50715624E-01 0.46491648E+03</pdfrwt>
<pdfrwt beam="2">  1       -2 0.25218625E-01 0.46491648E+03</pdfrwt>
<totfact> 0.13902213E+03</totfact>
</mgrwt>
</event>
<event>
 4    1  0.8641621E-005  0.4235584E+03  0.7818608E-02  0.1035914E+00
          2   -1    0    0  501    0  0.00000000000E+00  0.00000000000E+00  0.13073547949E+04  0.13073547949E+04  0.25500000000E-02 0.  1.
         -2   -1    0    0    0  501 -0.00000000000E+00 -0.00000000000E+00 -0.34306240925E+02  0.34306241019E+02  0.25500000000E-02 0. -1.
    5000001    1    1    2    0    0 -0.93293678826E+02  0.13108983933E+02  0.34022514507E+03  0.38968410964E+03  0.16500000000E+03 0.  0.
   -5000001    1    1    2    0    0  0.93293678826E+02 -0.13108983933E+02  0.93282340889E+03  0.95197692626E+03  0.16500000000E+03 0.  0.
<mgrwt>
<rscale>  0 0.42355840E+03</rscale>
<asrwt>0</asrwt>
<pdfrwt beam="1">  1        2 0.20113148E+00 0.42355840E+03</pdfrwt>
<pdfrwt beam="2">  1       -2 0.52778839E-02 0.42355840E+03</pdfrwt>
<totfact> 0.31377223E+03</totfact>
</mgrwt>
</event>
<event>
 4    1  0.8641621E-005  0.5281397E+03  0.7818608E-02  0.1006684E+00
          2   -1    0    0  501    0  0.00000000000E+00  0.00000000000E+00  0.38723814898E+03  0.38723814899E+03  0.25500000000E-02 0.  1.
         -2   -1    0    0    0  501 -0.00000000000E+00 -0.00000000000E+00 -0.18007749350E+03  0.18007749352E+03  0.25500000000E-02 0. -1.
    5000001    1    1    2    0    0  0.56786315010E+02  0.18685847613E+03  0.17456629825E+03  0.30957901764E+03  0.16500000000E+03 0.  0.
   -5000001    1    1    2    0    0 -0.56786315010E+02 -0.18685847613E+03  0.32594357233E+02  0.25773662487E+03  0.16500000000E+03 0.  0.
<mgrwt>
<rscale>  0 0.52813966E+03</rscale>
<asrwt>0</asrwt>
<pdfrwt beam="1">  1        2 0.59575100E-01 0.52813966E+03</pdfrwt>
<pdfrwt beam="2">  1       -2 0.27704230E-01 0.52813966E+03</pdfrwt>
<totfact> 0.98237414E+02</totfact>
</mgrwt>
</event>
<event>
 4    1  0.8641621E-005  0.4948408E+03  0.7818608E-02  0.1015134E+00
          2   -1    0    0  501    0  0.00000000000E+00  0.00000000000E+00  0.11895761572E+04  0.11895761572E+04  0.25500000000E-02 0.  1.
         -2   -1    0    0    0  501 -0.00000000000E+00 -0.00000000000E+00 -0.51461065635E+02  0.51461065698E+02  0.25500000000E-02 0. -1.
    5000001    1    1    2    0    0  0.15877674841E+03  0.54981916487E+02  0.75937775693E+03  0.79505512054E+03  0.16500000000E+03 0.  0.
   -5000001    1    1    2    0    0 -0.15877674841E+03 -0.54981916487E+02  0.37873733460E+03  0.44598210232E+03  0.16500000000E+03 0.  0.
<mgrwt>
<rscale>  0 0.49484081E+03</rscale>
<asrwt>0</asrwt>
<pdfrwt beam="1">  1        2 0.18301169E+00 0.49484081E+03</pdfrwt>
<pdfrwt beam="2">  1       -2 0.79170880E-02 0.49484081E+03</pdfrwt>
<totfact> 0.19427970E+03</totfact>
</mgrwt>
</event>
<event>
 4    1  0.8641621E-005  0.4003255E+03  0.7818608E-02  0.1043667E+00
          2   -1    0    0  501    0  0.00000000000E+00  0.00000000000E+00  0.33935722871E+03  0.33935722872E+03  0.25500000000E-02 0.  1.
         -2   -1    0    0    0  501 -0.00000000000E+00 -0.00000000000E+00 -0.11806178839E+03  0.11806178841E+03  0.25500000000E-02 0. -1.
    5000001    1    1    2    0    0 -0.53396925252E+02 -0.22250154871E+02 -0.68465988002E+00  0.17484784751E+03  0.16500000000E+03 0.  0.
   -5000001    1    1    2    0    0  0.53396925252E+02  0.22250154871E+02  0.22198010020E+03  0.28257116963E+03  0.16500000000E+03 0.  0.
<mgrwt>
<rscale>  0 0.40032547E+03</rscale>
<asrwt>0</asrwt>
<pdfrwt beam="1">  1        2 0.52208804E-01 0.40032547E+03</pdfrwt>
<pdfrwt beam="2">  1       -2 0.18163352E-01 0.40032547E+03</pdfrwt>
<totfact> 0.23852236E+03</totfact>
</mgrwt>
</event>
<event>
 4    1  0.8641621E-005  0.4457517E+03  0.7818608E-02  0.1028997E+00
          2   -1    0    0  501    0  0.00000000000E+00  0.00000000000E+00  0.53397104323E+03  0.53397104323E+03  0.25500000000E-02 0.  1.
         -2   -1    0    0    0  501 -0.00000000000E+00 -0.00000000000E+00 -0.93026855067E+02  0.93026855102E+02  0.25500000000E-02 0. -1.
    5000001    1    1    2    0    0 -0.91632723746E+01 -0.14515732319E+03  0.27107153438E+03  0.34908364440E+03  0.16500000000E+03 0.  0.
   -5000001    1    1    2    0    0  0.91632723746E+01  0.14515732319E+03  0.16987265377E+03  0.27791425393E+03  0.16500000000E+03 0.  0.
<mgrwt>
<rscale>  0 0.44575171E+03</rscale>
<asrwt>0</asrwt>
<pdfrwt beam="1">  1        2 0.82149391E-01 0.44575171E+03</pdfrwt>
<pdfrwt beam="2">  1       -2 0.14311824E-01 0.44575171E+03</pdfrwt>
<totfact> 0.21505872E+03</totfact>
</mgrwt>
</event>
<event>
 4    1  0.8641621E-005  0.4257831E+03  0.7818608E-02  0.1035200E+00
         -2   -1    0    0    0  501 -0.00000000000E+00  0.00000000000E+00  0.11241000947E+03  0.11241000950E+03  0.25500000000E-02 0. -1.
          2   -1    0    0  501    0  0.00000000000E+00 -0.00000000000E+00 -0.40319191946E+03  0.40319191947E+03  0.25500000000E-02 0.  1.
    5000001    1    1    2    0    0 -0.13081497859E+03  0.31366546604E+02 -0.14681793685E+03  0.25860573360E+03  0.16500000000E+03 0.  0.
   -5000001    1    1    2    0    0  0.13081497859E+03 -0.31366546604E+02 -0.14396397314E+03  0.25699619536E+03  0.16500000000E+03 0.  0.
<mgrwt>
<rscale>  0 0.42578308E+03</rscale>
<asrwt>0</asrwt>
<pdfrwt beam="1">  1        2 0.62029525E-01 0.42578308E+03</pdfrwt>
<pdfrwt beam="2">  1       -2 0.17293848E-01 0.42578308E+03</pdfrwt>
<totfact> 0.21469384E+03</totfact>
</mgrwt>
</event>
<event>
 4    1  0.8641621E-005  0.4019275E+03  0.7818608E-02  0.1043114E+00
         -2   -1    0    0    0  501 -0.00000000000E+00  0.00000000000E+00  0.32496242127E+02  0.32496242227E+02  0.25500000000E-02 0.  1.
          2   -1    0    0  501    0  0.00000000000E+00 -0.00000000000E+00 -0.12428032519E+04  0.12428032519E+04  0.25500000000E-02 0. -1.
    5000001    1    1    2    0    0 -0.30524442389E+02 -0.10974307935E+03 -0.64844438604E+03  0.67873441554E+03  0.16500000000E+03 0.  0.
   -5000001    1    1    2    0    0  0.30524442389E+02  0.10974307935E+03 -0.56186262372E+03  0.59656507858E+03  0.16500000000E+03 0.  0.
<mgrwt>
<rscale>  0 0.40192753E+03</rscale>
<asrwt>0</asrwt>
<pdfrwt beam="1">  1        2 0.19120046E+00 0.40192753E+03</pdfrwt>
<pdfrwt beam="2">  1       -2 0.49994228E-02 0.40192753E+03</pdfrwt>
<totfact> 0.37107288E+03</totfact>
</mgrwt>
</event>
<event>
 4    1  0.8641621E-005  0.5268018E+03  0.7818608E-02  0.1007011E+00
         -2   -1    0    0    0  501 -0.00000000000E+00  0.00000000000E+00  0.24914867617E+02  0.24914867748E+02  0.25500000000E-02 0. -1.
          2   -1    0    0  501    0  0.00000000000E+00 -0.00000000000E+00 -0.27846839747E+04  0.27846839747E+04  0.25500000000E-02 0.  1.
    5000001    1    1    2    0    0 -0.82879119464E+02 -0.18449736599E+03 -0.15682046025E+04  0.15897795136E+04  0.16500000000E+03 0.  0.
   -5000001    1    1    2    0    0  0.82879119464E+02  0.18449736599E+03 -0.11915645046E+04  0.12198193289E+04  0.16500000000E+03 0.  0.
<mgrwt>
<rscale>  0 0.52680179E+03</rscale>
<asrwt>0</asrwt>
<pdfrwt beam="1">  1        2 0.42841267E+00 0.52680179E+03</pdfrwt>
<pdfrwt beam="2">  1       -2 0.38330588E-02 0.52680179E+03</pdfrwt>
<totfact> 0.78658055E+02</totfact>
</mgrwt>
</event>
<event>
 4    1  0.8641621E-005  0.5639876E+03  0.7818608E-02  0.9983072E-01
         -2   -1    0    0    0  501 -0.00000000000E+00  0.00000000000E+00  0.55667637066E+02  0.55667637125E+02  0.25500000000E-02 0. -1.
          2   -1    0    0  501    0  0.00000000000E+00 -0.00000000000E+00 -0.14284872163E+04  0.14284872163E+04  0.25500000000E-02 0.  1.
    5000001    1    1    2    0    0  0.45261045448E+02 -0.22323963723E+03 -0.73975996957E+03  0.79142549267E+03  0.16500000000E+03 0.  0.
   -5000001    1    1    2    0    0 -0.45261045448E+02  0.22323963723E+03 -0.63305960961E+03  0.69272936071E+03  0.16500000000E+03 0.  0.
<mgrwt>
<rscale>  0 0.56398762E+03</rscale>
<asrwt>0</asrwt>
<pdfrwt beam="1">  1        2 0.21976724E+00 0.56398762E+03</pdfrwt>
<pdfrwt beam="2">  1       -2 0.85642529E-02 0.56398762E+03</pdfrwt>
<totfact> 0.12509060E+03</totfact>
</mgrwt>
</event>
<event>
 4    1  0.8641621E-005  0.7755038E+03  0.7818608E-02  0.9596167E-01
          2   -1    0    0  501    0  0.00000000000E+00  0.00000000000E+00  0.90527252678E+03  0.90527252678E+03  0.25500000000E-02 0.  1.
         -2   -1    0    0    0  501 -0.00000000000E+00 -0.00000000000E+00 -0.16608428333E+03  0.16608428335E+03  0.25500000000E-02 0. -1.
    5000001    1    1    2    0    0  0.28464926194E+03  0.88209788725E+02  0.11366118572E+03  0.35909613516E+03  0.16500000000E+03 0.  0.
   -5000001    1    1    2    0    0 -0.28464926194E+03 -0.88209788725E+02  0.62552705773E+03  0.71226067496E+03  0.16500000000E+03 0.  0.
<mgrwt>
<rscale>  0 0.77550381E+03</rscale>
<asrwt>0</asrwt>
<pdfrwt beam="1">  1        2 0.13927270E+00 0.77550381E+03</pdfrwt>
<pdfrwt beam="2">  1       -2 0.25551428E-01 0.77550381E+03</pdfrwt>
<totfact> 0.40268662E+02</totfact>
</mgrwt>
</event>
<event>
 4    1  0.8641621E-005  0.4222635E+03  0.7818608E-02  0.1036332E+00
         -2   -1    0    0    0  501 -0.00000000000E+00  0.00000000000E+00  0.67470338945E+02  0.67470338993E+02  0.25500000000E-02 0. -1.
          2   -1    0    0  501    0  0.00000000000E+00 -0.00000000000E+00 -0.66068471041E+03  0.66068471042E+03  0.25500000000E-02 0.  1.
    5000001    1    1    2    0    0  0.55911344892E+02 -0.11106001563E+03 -0.37159847846E+03  0.42517153568E+03  0.16500000000E+03 0.  0.
   -5000001    1    1    2    0    0 -0.55911344892E+02  0.11106001563E+03 -0.22161589301E+03  0.30298351374E+03  0.16500000000E+03 0.  0.
<mgrwt>
<rscale>  0 0.42226353E+03</rscale>
<asrwt>0</asrwt>
<pdfrwt beam="1">  1        2 0.10164380E+00 0.42226353E+03</pdfrwt>
<pdfrwt beam="2">  1       -2 0.10380053E-01 0.42226353E+03</pdfrwt>
<totfact> 0.28280279E+03</totfact>
</mgrwt>
</event>
<event>
 4    1  0.8641621E-005  0.6748462E+03  0.7818608E-02  0.9761243E-01
         -2   -1    0    0    0  501 -0.00000000000E+00  0.00000000000E+00  0.16599026735E+03  0.16599026737E+03  0.25500000000E-02 0. -1.
          2   -1    0    0  501    0  0.00000000000E+00 -0.00000000000E+00 -0.68590978739E+03  0.68590978739E+03  0.25500000000E-02 0.  1.
    5000001    1    1    2    0    0  0.18904605445E+03 -0.18652844917E+03 -0.42012594245E+03  0.52370037289E+03  0.16500000000E+03 0.  0.
   -5000001    1    1    2    0    0 -0.18904605445E+03  0.18652844917E+03 -0.99793577591E+02  0.32819968187E+03  0.16500000000E+03 0.  0.
<mgrwt>
<rscale>  0 0.67484620E+03</rscale>
<asrwt>0</asrwt>
<pdfrwt beam="1">  1        2 0.10552458E+00 0.67484620E+03</pdfrwt>
<pdfrwt beam="2">  1       -2 0.25536964E-01 0.67484620E+03</pdfrwt>
<totfact> 0.58320028E+02</totfact>
</mgrwt>
</event>
<event>
 4    1  0.8641621E-005  0.4413966E+03  0.7818608E-02  0.1030319E+00
          2   -1    0    0  501    0  0.00000000000E+00  0.00000000000E+00  0.92993111513E+03  0.92993111513E+03  0.25500000000E-02 0.  1.
         -2   -1    0    0    0  501 -0.00000000000E+00 -0.00000000000E+00 -0.52377800574E+02  0.52377800636E+02  0.25500000000E-02 0. -1.
    5000001    1    1    2    0    0 -0.79602072801E+02 -0.11865882120E+03  0.51144864874E+03  0.55607654702E+03  0.16500000000E+03 0.  0.
   -5000001    1    1    2    0    0  0.79602072801E+02  0.11865882120E+03  0.36610466581E+03  0.42623236875E+03  0.16500000000E+03 0.  0.
<mgrwt>
<rscale>  0 0.44139663E+03</rscale>
<asrwt>0</asrwt>
<pdfrwt beam="1">  1        2 0.14306632E+00 0.44139663E+03</pdfrwt>
<pdfrwt beam="2">  1       -2 0.80581235E-02 0.44139663E+03</pdfrwt>
<totfact> 0.27256265E+03</totfact>
</mgrwt>
</event>
<event>
 4    1  0.8641621E-005  0.4170599E+03  0.7818608E-02  0.1038027E+00
          2   -1    0    0  501    0  0.00000000000E+00  0.00000000000E+00  0.35799362797E+03  0.35799362798E+03  0.25500000000E-02 0.  1.
         -2   -1    0    0    0  501 -0.00000000000E+00 -0.00000000000E+00 -0.12146793996E+03  0.12146793998E+03  0.25500000000E-02 0. -1.
    5000001    1    1    2    0    0  0.56994346194E+02 -0.11406575305E+03  0.11753849267E+03  0.23937345044E+03  0.16500000000E+03 0.  0.
   -5000001    1    1    2    0    0 -0.56994346194E+02  0.11406575305E+03  0.11898719534E+03  0.24008811751E+03  0.16500000000E+03 0.  0.
<mgrwt>
<rscale>  0 0.41705994E+03</rscale>
<asrwt>0</asrwt>
<pdfrwt beam="1">  1        2 0.55075943E-01 0.41705994E+03</pdfrwt>
<pdfrwt beam="2">  1       -2 0.18687375E-01 0.41705994E+03</pdfrwt>
<totfact> 0.21439239E+03</totfact>
</mgrwt>
</event>
<event>
 4    1  0.8641621E-005  0.5095714E+03  0.7818608E-02  0.1011310E+00
          2   -1    0    0  501    0  0.00000000000E+00  0.00000000000E+00  0.41874413531E+03  0.41874413531E+03  0.25500000000E-02 0.  1.
         -2   -1    0    0    0  501 -0.00000000000E+00 -0.00000000000E+00 -0.15502483469E+03  0.15502483471E+03  0.25500000000E-02 0. -1.
    5000001    1    1    2    0    0 -0.59688271985E+02  0.17597753842E+03  0.68564183391E+02  0.25779222464E+03  0.16500000000E+03 0.  0.
   -5000001    1    1    2    0    0  0.59688271985E+02 -0.17597753842E+03  0.19515511723E+03  0.31597674538E+03  0.16500000000E+03 0.  0.
<mgrwt>
<rscale>  0 0.50957135E+03</rscale>
<asrwt>0</asrwt>
<pdfrwt beam="1">  1        2 0.64422174E-01 0.50957135E+03</pdfrwt>
<pdfrwt beam="2">  1       -2 0.23849975E-01 0.50957135E+03</pdfrwt>
<totfact> 0.11788900E+03</totfact>
</mgrwt>
</event>
<event>
 4    1  0.8641621E-005  0.5474217E+03  0.7818608E-02  0.1002092E+00
          2   -1    0    0  501    0  0.00000000000E+00  0.00000000000E+00  0.50653651352E+04  0.50653651352E+04  0.25500000000E-02 0.  1.
         -2   -1    0    0    0  501 -0.00000000000E+00 -0.00000000000E+00 -0.14790171937E+02  0.14790172157E+02  0.25500000000E-02 0. -1.
    5000001    1    1    2    0    0 -0.20758058465E+03 -0.67452316854E+02  0.25929165791E+04  0.26073129655E+04  0.16500000000E+03 0.  0.
   -5000001    1    1    2    0    0  0.20758058465E+03  0.67452316854E+02  0.24576583842E+04  0.24728423419E+04  0.16500000000E+03 0.  0.
<mgrwt>
<rscale>  0 0.54742167E+03</rscale>
<asrwt>0</asrwt>
<pdfrwt beam="1">  1        2 0.77928715E+00 0.54742167E+03</pdfrwt>
<pdfrwt beam="2">  1       -2 0.22754105E-02 0.54742167E+03</pdfrwt>
<totfact> 0.24128259E+01</totfact>
</mgrwt>
</event>
<event>
 4    1  0.8641621E-005  0.4898398E+03  0.7818608E-02  0.1016465E+00
         -2   -1    0    0    0  501 -0.00000000000E+00  0.00000000000E+00  0.42756400947E+02  0.42756401023E+02  0.25500000000E-02 0. -1.
          2   -1    0    0  501    0  0.00000000000E+00 -0.00000000000E+00 -0.14029653262E+04  0.14029653262E+04  0.25500000000E-02 0.  1.
    5000001    1    1    2    0    0 -0.15675429155E+03 -0.80831718876E+02 -0.80017578595E+03  0.83583010422E+03  0.16500000000E+03 0.  0.
   -5000001    1    1    2    0    0  0.15675429155E+03  0.80831718876E+02 -0.56003313927E+03  0.60989162297E+03  0.16500000000E+03 0.  0.
<mgrwt>
<rscale>  0 0.48983976E+03</rscale>
<asrwt>0</asrwt>
<pdfrwt beam="1">  1        2 0.21584078E+00 0.48983976E+03</pdfrwt>
<pdfrwt beam="2">  1       -2 0.65779089E-02 0.48983976E+03</pdfrwt>
<totfact> 0.19676718E+03</totfact>
</mgrwt>
</event>
<event>
 4    1  0.8641621E-005  0.5195598E+03  0.7818608E-02  0.1008796E+00
          2   -1    0    0  501    0  0.00000000000E+00  0.00000000000E+00  0.42823440084E+04  0.42823440084E+04  0.25500000000E-02 0.  1.
         -2   -1    0    0    0  501 -0.00000000000E+00 -0.00000000000E+00 -0.15759034374E+02  0.15759034580E+02  0.25500000000E-02 0. -1.
    5000001    1    1    2    0    0 -0.19411785940E+03  0.21195009829E+02  0.25150554968E+04  0.25280150561E+04  0.16500000000E+03 0.  0.
   -5000001    1    1    2    0    0  0.19411785940E+03 -0.21195009829E+02  0.17515294772E+04  0.17700879869E+04  0.16500000000E+03 0.  0.
<mgrwt>
<rscale>  0 0.51955984E+03</rscale>
<asrwt>0</asrwt>
<pdfrwt beam="1">  1        2 0.65882286E+00 0.51955984E+03</pdfrwt>
<pdfrwt beam="2">  1       -2 0.24244642E-02 0.51955984E+03</pdfrwt>
<totfact> 0.14352195E+02</totfact>
</mgrwt>
</event>
<event>
 4    1  0.8641621E-005  0.4281181E+03  0.7818608E-02  0.1034456E+00
          2   -1    0    0  501    0  0.00000000000E+00  0.00000000000E+00  0.14438610851E+04  0.14438610851E+04  0.25500000000E-02 0.  1.
         -2   -1    0    0    0  501 -0.00000000000E+00 -0.00000000000E+00 -0.31735243346E+02  0.31735243448E+02  0.25500000000E-02 0. -1.
    5000001    1    1    2    0    0 -0.10725705216E+03  0.46073176450E+02  0.94903646616E+03  0.97032057946E+03  0.16500000000E+03 0.  0.
   -5000001    1    1    2    0    0  0.10725705216E+03 -0.46073176450E+02  0.46308937555E+03  0.50527574904E+03  0.16500000000E+03 0.  0.
<mgrwt>
<rscale>  0 0.42811813E+03</rscale>
<asrwt>0</asrwt>
<pdfrwt beam="1">  1        2 0.22213251E+00 0.42811813E+03</pdfrwt>
<pdfrwt beam="2">  1       -2 0.48823444E-02 0.42811813E+03</pdfrwt>
<totfact> 0.29702780E+03</totfact>
</mgrwt>
</event>
<event>
 4    1  0.8641621E-005  0.5374103E+03  0.7818608E-02  0.1004451E+00
          2   -1    0    0  501    0  0.00000000000E+00  0.00000000000E+00  0.12502758898E+04  0.12502758898E+04  0.25500000000E-02 0.  1.
         -2   -1    0    0    0  501 -0.00000000000E+00 -0.00000000000E+00 -0.57749213755E+02  0.57749213812E+02  0.25500000000E-02 0. -1.
    5000001    1    1    2    0    0  0.33164113640E+02 -0.20194839364E+03  0.73165782363E+03  0.77745172391E+03  0.16500000000E+03 0.  0.
   -5000001    1    1    2    0    0 -0.33164113640E+02  0.20194839364E+03  0.46086885242E+03  0.53057337971E+03  0.16500000000E+03 0.  0.
<mgrwt>
<rscale>  0 0.53741027E+03</rscale>
<asrwt>0</asrwt>
<pdfrwt beam="1">  1        2 0.19235013E+00 0.53741027E+03</pdfrwt>
<pdfrwt beam="2">  1       -2 0.88844947E-02 0.53741027E+03</pdfrwt>
<totfact> 0.14891269E+03</totfact>
</mgrwt>
</event>
<event>
 4    1  0.8641621E-005  0.7573909E+03  0.7818608E-02  0.9623826E-01
         -2   -1    0    0    0  501 -0.00000000000E+00  0.00000000000E+00  0.46180714056E+03  0.46180714057E+03  0.25500000000E-02 0. -1.
          2   -1    0    0  501    0  0.00000000000E+00 -0.00000000000E+00 -0.31054140037E+03  0.31054140038E+03  0.25500000000E-02 0.  1.
    5000001    1    1    2    0    0  0.14059734477E+03  0.30669764609E+03  0.26154796211E+02  0.37648390781E+03  0.16500000000E+03 0.  0.
   -5000001    1    1    2    0    0 -0.14059734477E+03 -0.30669764609E+03  0.12511094398E+03  0.39586463315E+03  0.16500000000E+03 0.  0.
<mgrwt>
<rscale>  0 0.75739088E+03</rscale>
<asrwt>0</asrwt>
<pdfrwt beam="1">  1        2 0.47775600E-01 0.75739088E+03</pdfrwt>
<pdfrwt beam="2">  1       -2 0.71047252E-01 0.75739088E+03</pdfrwt>
<totfact> 0.19177322E+02</totfact>
</mgrwt>
</event>
<event>
 4    1  0.8641621E-005  0.5006797E+03  0.7818608E-02  0.1013602E+00
          2   -1    0    0  501    0  0.00000000000E+00  0.00000000000E+00  0.10422520789E+04  0.10422520789E+04  0.25500000000E-02 0.  1.
         -2   -1    0    0    0  501 -0.00000000000E+00 -0.00000000000E+00 -0.60129455682E+02  0.60129455737E+02  0.25500000000E-02 0. -1.
    5000001    1    1    2    0    0  0.45227045316E+02  0.25550521690E+02  0.92627745488E+02  0.19622235862E+03  0.16500000000E+03 0.  0.
   -5000001    1    1    2    0    0 -0.45227045316E+02 -0.25550521690E+02  0.88949487776E+03  0.90615917606E+03  0.16500000000E+03 0.  0.
<mgrwt>
<rscale>  0 0.50067974E+03</rscale>
<asrwt>0</asrwt>
<pdfrwt beam="1">  1        2 0.16034645E+00 0.50067974E+03</pdfrwt>
<pdfrwt beam="2">  1       -2 0.92506870E-02 0.50067974E+03</pdfrwt>
<totfact> 0.18572324E+03</totfact>
</mgrwt>
</event>
<event>
 4    1  0.8641621E-005  0.6275467E+03  0.7818608E-02  0.9849848E-01
         -2   -1    0    0    0  501 -0.00000000000E+00  0.00000000000E+00  0.50679560354E+02  0.50679560418E+02  0.25500000000E-02 0. -1.
          2   -1    0    0  501    0  0.00000000000E+00 -0.00000000000E+00 -0.19426708083E+04  0.19426708083E+04  0.25500000000E-02 0.  1.
    5000001    1    1    2    0    0 -0.22469144964E+03  0.86475655545E+02 -0.13118276189E+04  0.13439051262E+04  0.16500000000E+03 0.  0.
   -5000001    1    1    2    0    0  0.22469144964E+03 -0.86475655545E+02 -0.58016362901E+03  0.64944524247E+03  0.16500000000E+03 0.  0.
<mgrwt>
<rscale>  0 0.62754666E+03</rscale>
<asrwt>0</asrwt>
<pdfrwt beam="1">  1        2 0.29887237E+00 0.62754666E+03</pdfrwt>
<pdfrwt beam="2">  1       -2 0.77968570E-02 0.62754666E+03</pdfrwt>
<totfact> 0.75929239E+02</totfact>
</mgrwt>
</event>
<event>
 4    1  0.8641621E-005  0.4034757E+03  0.7818608E-02  0.1042583E+00
          2   -1    0    0  501    0  0.00000000000E+00  0.00000000000E+00  0.69444784960E+03  0.69444784960E+03  0.25500000000E-02 0.  1.
         -2   -1    0    0    0  501 -0.00000000000E+00 -0.00000000000E+00 -0.58605058404E+02  0.58605058459E+02  0.25500000000E-02 0. -1.
    5000001    1    1    2    0    0 -0.66079230255E+02  0.84425209433E+02  0.23489056618E+03  0.30641909004E+03  0.16500000000E+03 0.  0.
   -5000001    1    1    2    0    0  0.66079230255E+02 -0.84425209433E+02  0.40095222502E+03  0.44663381803E+03  0.16500000000E+03 0.  0.
<mgrwt>
<rscale>  0 0.40347568E+03</rscale>
<asrwt>0</asrwt>
<pdfrwt beam="1">  1        2 0.10683813E+00 0.40347568E+03</pdfrwt>
<pdfrwt beam="2">  1       -2 0.90161628E-02 0.40347568E+03</pdfrwt>
<totfact> 0.33333669E+03</totfact>
</mgrwt>
</event>
<event>
 4    1  0.8641621E-005  0.6909199E+03  0.7818608E-02  0.9732888E-01
          2   -1    0    0  501    0  0.00000000000E+00  0.00000000000E+00  0.39003047330E+03  0.39003047331E+03  0.25500000000E-02 0.  1.
         -2   -1    0    0    0  501 -0.00000000000E+00 -0.00000000000E+00 -0.30598271139E+03  0.30598271140E+03  0.25500000000E-02 0. -1.
    5000001    1    1    2    0    0  0.29224037492E+03 -0.10511013452E+02 -0.39831897400E+02  0.33812201672E+03  0.16500000000E+03 0.  0.
   -5000001    1    1    2    0    0 -0.29224037492E+03  0.10511013452E+02  0.12387965931E+03  0.35789116799E+03  0.16500000000E+03 0.  0.
<mgrwt>
<rscale>  0 0.69091991E+03</rscale>
<asrwt>0</asrwt>
<pdfrwt beam="1">  1        2 0.60004689E-01 0.69091991E+03</pdfrwt>
<pdfrwt beam="2">  1       -2 0.47074263E-01 0.69091991E+03</pdfrwt>
<totfact> 0.35311111E+02</totfact>
</mgrwt>
</event>
<event>
 4    1  0.8641621E-005  0.5438126E+03  0.7818608E-02  0.1002936E+00
          2   -1    0    0  501    0  0.00000000000E+00  0.00000000000E+00  0.14478669023E+04  0.14478669023E+04  0.25500000000E-02 0.  1.
         -2   -1    0    0    0  501 -0.00000000000E+00 -0.00000000000E+00 -0.51063419933E+02  0.51063419996E+02  0.25500000000E-02 0. -1.
    5000001    1    1    2    0    0  0.12403527626E+03 -0.16904785623E+03  0.84284291378E+03  0.88406510211E+03  0.16500000000E+03 0.  0.
   -5000001    1    1    2    0    0 -0.12403527626E+03  0.16904785623E+03  0.55396056861E+03  0.61486522021E+03  0.16500000000E+03 0.  0.
<mgrwt>
<rscale>  0 0.54381260E+03</rscale>
<asrwt>0</asrwt>
<pdfrwt beam="1">  1        2 0.22274874E+00 0.54381260E+03</pdfrwt>
<pdfrwt beam="2">  1       -2 0.78559113E-02 0.54381260E+03</pdfrwt>
<totfact> 0.14014291E+03</totfact>
</mgrwt>
</event>
<event>
 4    1  0.8641621E-005  0.4179897E+03  0.7818608E-02  0.1037723E+00
          2   -1    0    0  501    0  0.00000000000E+00  0.00000000000E+00  0.18254155153E+04  0.18254155153E+04  0.25500000000E-02 0.  1.
         -2   -1    0    0    0  501 -0.00000000000E+00 -0.00000000000E+00 -0.23928172462E+02  0.23928172598E+02  0.25500000000E-02 0. -1.
    5000001    1    1    2    0    0 -0.69110944200E+01 -0.12735761195E+03  0.84038168734E+03  0.86587187561E+03  0.16500000000E+03 0.  0.
   -5000001    1    1    2    0    0  0.69110944200E+01  0.12735761195E+03  0.96110565553E+03  0.98347181232E+03  0.16500000000E+03 0.  0.
<mgrwt>
<rscale>  0 0.41798975E+03</rscale>
<asrwt>0</asrwt>
<pdfrwt beam="1">  1        2 0.28083321E+00 0.41798975E+03</pdfrwt>
<pdfrwt beam="2">  1       -2 0.36812566E-02 0.41798975E+03</pdfrwt>
<totfact> 0.28471714E+03</totfact>
</mgrwt>
</event>
<event>
 4    1  0.8641621E-005  0.4352863E+03  0.7818608E-02  0.1032203E+00
          2   -1    0    0  501    0  0.00000000000E+00  0.00000000000E+00  0.15830358038E+04  0.15830358038E+04  0.25500000000E-02 0.  1.
         -2   -1    0    0    0  501 -0.00000000000E+00 -0.00000000000E+00 -0.29922594721E+02  0.29922594830E+02  0.25500000000E-02 0. -1.
    5000001    1    1    2    0    0 -0.10576716181E+03  0.44487776802E+02  0.46702583511E+03  0.50843287213E+03  0.16500000000E+03 0.  0.
   -5000001    1    1    2    0    0  0.10576716181E+03 -0.44487776802E+02  0.10860873740E+04  0.11045255265E+04  0.16500000000E+03 0.  0.
<mgrwt>
<rscale>  0 0.43528629E+03</rscale>
<asrwt>0</asrwt>
<pdfrwt beam="1">  1        2 0.24354398E+00 0.43528629E+03</pdfrwt>
<pdfrwt beam="2">  1       -2 0.46034759E-02 0.43528629E+03</pdfrwt>
<totfact> 0.27297639E+03</totfact>
</mgrwt>
</event>
<event>
 4    1  0.8641621E-005  0.6254495E+03  0.7818608E-02  0.9853969E-01
          2   -1    0    0  501    0  0.00000000000E+00  0.00000000000E+00  0.55110928563E+03  0.55110928563E+03  0.25500000000E-02 0.  1.
         -2   -1    0    0    0  501 -0.00000000000E+00 -0.00000000000E+00 -0.17745441172E+03  0.17745441174E+03  0.25500000000E-02 0. -1.
    5000001    1    1    2    0    0  0.12231352376E+03  0.21202020878E+03  0.30708862587E+03  0.42595961213E+03  0.16500000000E+03 0.  0.
   -5000001    1    1    2    0    0 -0.12231352376E+03 -0.21202020878E+03  0.66566248037E+02  0.30260408524E+03  0.16500000000E+03 0.  0.
<mgrwt>
<rscale>  0 0.62544952E+03</rscale>
<asrwt>0</asrwt>
<pdfrwt beam="1">  1        2 0.84786044E-01 0.62544952E+03</pdfrwt>
<pdfrwt beam="2">  1       -2 0.27300679E-01 0.62544952E+03</pdfrwt>
<totfact> 0.67416957E+02</totfact>
</mgrwt>
</event>
<event>
 4    1  0.8641621E-005  0.1032144E+04  0.7818608E-02  0.9273976E-01
         -2   -1    0    0    0  501 -0.00000000000E+00  0.00000000000E+00  0.38101800618E+03  0.38101800619E+03  0.25500000000E-02 0. -1.
          2   -1    0    0  501    0  0.00000000000E+00 -0.00000000000E+00 -0.69899616744E+03  0.69899616744E+03  0.25500000000E-02 0.  1.
    5000001    1    1    2    0    0  0.22512215225E+03 -0.43091247670E+03 -0.21375763897E+03  0.55613206545E+03  0.16500000000E+03 0.  0.
   -5000001    1    1    2    0    0 -0.22512215225E+03  0.43091247670E+03 -0.10422052228E+03  0.52388210818E+03  0.16500000000E+03 0.  0.
<mgrwt>
<rscale>  0 0.10321436E+04</rscale>
<asrwt>0</asrwt>
<pdfrwt beam="1">  1        2 0.10753787E+00 0.10321436E+04</pdfrwt>
<pdfrwt beam="2">  1       -2 0.58618155E-01 0.10321436E+04</pdfrwt>
<totfact> 0.11135532E+02</totfact>
</mgrwt>
</event>
<event>
 4    1  0.8641621E-005  0.7608052E+03  0.7818608E-02  0.9618550E-01
         -2   -1    0    0    0  501 -0.00000000000E+00  0.00000000000E+00  0.29152631521E+03  0.29152631522E+03  0.25500000000E-02 0. -1.
          2   -1    0    0  501    0  0.00000000000E+00 -0.00000000000E+00 -0.49637420055E+03  0.49637420056E+03  0.25500000000E-02 0.  1.
    5000001    1    1    2    0    0 -0.88207101386E+02  0.30347209316E+03 -0.23983449516E+03  0.42967591174E+03  0.16500000000E+03 0.  0.
   -5000001    1    1    2    0    0  0.88207101386E+02 -0.30347209316E+03  0.34986609819E+02  0.35822460403E+03  0.16500000000E+03 0.  0.
<mgrwt>
<rscale>  0 0.76080521E+03</rscale>
<asrwt>0</asrwt>
<pdfrwt beam="1">  1        2 0.76365262E-01 0.76080521E+03</pdfrwt>
<pdfrwt beam="2">  1       -2 0.44850202E-01 0.76080521E+03</pdfrwt>
<totfact> 0.29502219E+02</totfact>
</mgrwt>
</event>
<event>
 4    1  0.8641621E-005  0.1017374E+04  0.7818608E-02  0.9289692E-01
         -2   -1    0    0    0  501 -0.00000000000E+00  0.00000000000E+00  0.82500186165E+03  0.82500186166E+03  0.25500000000E-02 0. -1.
          2   -1    0    0  501    0  0.00000000000E+00 -0.00000000000E+00 -0.31365077722E+03  0.31365077723E+03  0.25500000000E-02 0.  1.
    5000001    1    1    2    0    0  0.46316737838E+03 -0.60124104367E+02  0.12612493237E+03  0.51114716755E+03  0.16500000000E+03 0.  0.
   -5000001    1    1    2    0    0 -0.46316737838E+03  0.60124104367E+02  0.38522615207E+03  0.62750547134E+03  0.16500000000E+03 0.  0.
<mgrwt>
<rscale>  0 0.10173740E+04</rscale>
<asrwt>0</asrwt>
<pdfrwt beam="1">  1        2 0.48253965E-01 0.10173740E+04</pdfrwt>
<pdfrwt beam="2">  1       -2 0.12692336E+00 0.10173740E+04</pdfrwt>
<totfact> 0.48052338E+01</totfact>
</mgrwt>
</event>
<event>
 4    1  0.8641621E-005  0.5292432E+03  0.7818608E-02  0.1006416E+00
         -2   -1    0    0    0  501 -0.00000000000E+00  0.00000000000E+00  0.11981430303E+03  0.11981430306E+03  0.25500000000E-02 0. -1.
          2   -1    0    0  501    0  0.00000000000E+00 -0.00000000000E+00 -0.58444276998E+03  0.58444276998E+03  0.25500000000E-02 0.  1.
    5000001    1    1    2    0    0 -0.19612207852E+03  0.64106344129E+02 -0.21230474930E+03  0.33892742529E+03  0.16500000000E+03 0.  0.
   -5000001    1    1    2    0    0  0.19612207852E+03 -0.64106344129E+02 -0.25232371765E+03  0.36532964775E+03  0.16500000000E+03 0.  0.
<mgrwt>
<rscale>  0 0.52924325E+03</rscale>
<asrwt>0</asrwt>
<pdfrwt beam="1">  1        2 0.89914270E-01 0.52924325E+03</pdfrwt>
<pdfrwt beam="2">  1       -2 0.18432970E-01 0.52924325E+03</pdfrwt>
<totfact> 0.12617368E+03</totfact>
</mgrwt>
</event>
<event>
 4    1  0.8641621E-005  0.5163411E+03  0.7818608E-02  0.1009600E+00
         -2   -1    0    0    0  501 -0.00000000000E+00  0.00000000000E+00  0.26899676249E+02  0.26899676370E+02  0.25500000000E-02 0.  1.
          2   -1    0    0  501    0  0.00000000000E+00 -0.00000000000E+00 -0.24778005240E+04  0.24778005240E+04  0.25500000000E-02 0. -1.
    5000001    1    1    2    0    0 -0.58110674073E+01 -0.15754447417E+03 -0.18110403177E+04  0.18253618990E+04  0.16500000000E+03 0.  0.
   -5000001    1    1    2    0    0  0.58110674073E+01  0.15754447417E+03 -0.63986053008E+03  0.67933830144E+03  0.16500000000E+03 0.  0.
<mgrwt>
<rscale>  0 0.51634110E+03</rscale>
<asrwt>0</asrwt>
<pdfrwt beam="1">  1        2 0.38119990E+00 0.51634110E+03</pdfrwt>
<pdfrwt beam="2">  1       -2 0.41384137E-02 0.51634110E+03</pdfrwt>
<totfact> 0.10477377E+03</totfact>
</mgrwt>
</event>
<event>
 4    1  0.8641621E-005  0.5864858E+03  0.7818608E-02  0.9933847E-01
          2   -1    0    0  501    0  0.00000000000E+00  0.00000000000E+00  0.19579982423E+03  0.19579982424E+03  0.25500000000E-02 0.  1.
         -2   -1    0    0    0  501 -0.00000000000E+00 -0.00000000000E+00 -0.43918012862E+03  0.43918012863E+03  0.25500000000E-02 0. -1.
    5000001    1    1    2    0    0 -0.14733369403E+03 -0.75498317997E+02  0.70037550326E+02  0.24400301612E+03  0.16500000000E+03 0.  0.
   -5000001    1    1    2    0    0  0.14733369403E+03  0.75498317997E+02 -0.31341785472E+03  0.39097693676E+03  0.16500000000E+03 0.  0.
<mgrwt>
<rscale>  0 0.58648578E+03</rscale>
<asrwt>0</asrwt>
<pdfrwt beam="1">  1        2 0.30123050E-01 0.58648578E+03</pdfrwt>
<pdfrwt beam="2">  1       -2 0.67566173E-01 0.58648578E+03</pdfrwt>
<totfact> 0.35930646E+02</totfact>
</mgrwt>
</event>
<event>
 4    1  0.8641621E-005  0.7315373E+03  0.7818608E-02  0.9664769E-01
         -2   -1    0    0    0  501 -0.00000000000E+00  0.00000000000E+00  0.54823339949E+03  0.54823339950E+03  0.25500000000E-02 0. -1.
          2   -1    0    0  501    0  0.00000000000E+00 -0.00000000000E+00 -0.24403238187E+03  0.24403238188E+03  0.25500000000E-02 0.  1.
    5000001    1    1    2    0    0 -0.29042166952E+03 -0.15160648845E+02 -0.84894963790E+01  0.33447221552E+03  0.16500000000E+03 0.  0.
   -5000001    1    1    2    0    0  0.29042166952E+03  0.15160648845E+02  0.31269051400E+03  0.45779356586E+03  0.16500000000E+03 0.  0.
<mgrwt>
<rscale>  0 0.73153729E+03</rscale>
<asrwt>0</asrwt>
<pdfrwt beam="1">  1        2 0.37543444E-01 0.73153729E+03</pdfrwt>
<pdfrwt beam="2">  1       -2 0.84343599E-01 0.73153729E+03</pdfrwt>
<totfact> 0.17114680E+02</totfact>
</mgrwt>
</event>
<event>
 4    1  0.8641621E-005  0.4178628E+03  0.7818608E-02  0.1037764E+00
          2   -1    0    0  501    0  0.00000000000E+00  0.00000000000E+00  0.10848837998E+04  0.10848837998E+04  0.25500000000E-02 0. -1.
         -2   -1    0    0    0  501 -0.00000000000E+00 -0.00000000000E+00 -0.40236867185E+02  0.40236867266E+02  0.25500000000E-02 0.  1.
    5000001    1    1    2    0    0  0.44971394774E+02 -0.92099478261E+02  0.31510852277E+03  0.37016634284E+03  0.16500000000E+03 0.  0.
   -5000001    1    1    2    0    0 -0.44971394774E+02  0.92099478261E+02  0.72953840983E+03  0.75495432422E+03  0.16500000000E+03 0.  0.
<mgrwt>
<rscale>  0 0.41786278E+03</rscale>
<asrwt>0</asrwt>
<pdfrwt beam="1">  1        2 0.16690518E+00 0.41786278E+03</pdfrwt>
<pdfrwt beam="2">  1       -2 0.61902879E-02 0.41786278E+03</pdfrwt>
<totfact> 0.33000398E+03</totfact>
</mgrwt>
</event>
<event>
 4    1  0.8641621E-005  0.5347135E+03  0.7818608E-02  0.1005095E+00
         -2   -1    0    0    0  501 -0.00000000000E+00  0.00000000000E+00  0.19671266297E+02  0.19671266462E+02  0.25500000000E-02 0. -1.
          2   -1    0    0  501    0  0.00000000000E+00 -0.00000000000E+00 -0.36337072137E+04  0.36337072137E+04  0.25500000000E-02 0.  1.
    5000001    1    1    2    0    0  0.19570335720E+03  0.10308284182E+02 -0.23295319828E+04  0.23435763960E+04  0.16500000000E+03 0.  0.
   -5000001    1    1    2    0    0 -0.19570335720E+03 -0.10308284182E+02 -0.12845039646E+04  0.13098020842E+04  0.16500000000E+03 0.  0.
<mgrwt>
<rscale>  0 0.53471347E+03</rscale>
<asrwt>0</asrwt>
<pdfrwt beam="1">  1        2 0.55903135E+00 0.53471347E+03</pdfrwt>
<pdfrwt beam="2">  1       -2 0.30263516E-02 0.53471347E+03</pdfrwt>
<totfact> 0.32547315E+02</totfact>
</mgrwt>
</event>
<event>
 4    1  0.8641621E-005  0.7147021E+03  0.7818608E-02  0.9692415E-01
         -2   -1    0    0    0  501 -0.00000000000E+00  0.00000000000E+00  0.42971300426E+02  0.42971300502E+02  0.25500000000E-02 0.  1.
          2   -1    0    0  501    0  0.00000000000E+00 -0.00000000000E+00 -0.29717453803E+04  0.29717453803E+04  0.25500000000E-02 0. -1.
    5000001    1    1    2    0    0 -0.25360944054E+03  0.18990035755E+03 -0.15054721830E+04  0.15472722411E+04  0.16500000000E+03 0.  0.
   -5000001    1    1    2    0    0  0.25360944054E+03 -0.18990035755E+03 -0.14233018969E+04  0.14674444398E+04  0.16500000000E+03 0.  0.
<mgrwt>
<rscale>  0 0.71470207E+03</rscale>
<asrwt>0</asrwt>
<pdfrwt beam="1">  1        2 0.45719144E+00 0.71470207E+03</pdfrwt>
<pdfrwt beam="2">  1       -2 0.66109716E-02 0.71470207E+03</pdfrwt>
<totfact> 0.25576285E+02</totfact>
</mgrwt>
</event>
<event>
 4    1  0.8641621E-005  0.5106537E+03  0.7818608E-02  0.1011035E+00
          2   -1    0    0  501    0  0.00000000000E+00  0.00000000000E+00  0.11213997115E+04  0.11213997115E+04  0.25500000000E-02 0.  1.
         -2   -1    0    0    0  501 -0.00000000000E+00 -0.00000000000E+00 -0.58134310968E+02  0.58134311024E+02  0.25500000000E-02 0. -1.
    5000001    1    1    2    0    0 -0.10699574663E+03 -0.14243186700E+03  0.71397746146E+03  0.75413774736E+03  0.16500000000E+03 0.  0.
   -5000001    1    1    2    0    0  0.10699574663E+03  0.14243186700E+03  0.34928793903E+03  0.42539627512E+03  0.16500000000E+03 0.  0.
<mgrwt>
<rscale>  0 0.51065370E+03</rscale>
<asrwt>0</asrwt>
<pdfrwt beam="1">  1        2 0.17252302E+00 0.51065370E+03</pdfrwt>
<pdfrwt beam="2">  1       -2 0.89437406E-02 0.51065370E+03</pdfrwt>
<totfact> 0.17547793E+03</totfact>
</mgrwt>
</event>
<event>
 4    1  0.8641621E-005  0.4083716E+03  0.7818608E-02  0.1040919E+00
          2   -1    0    0  501    0  0.00000000000E+00  0.00000000000E+00  0.49696837199E+03  0.49696837200E+03  0.25500000000E-02 0.  1.
         -2   -1    0    0    0  501 -0.00000000000E+00 -0.00000000000E+00 -0.83892328077E+02  0.83892328115E+02  0.25500000000E-02 0. -1.
    5000001    1    1    2    0    0  0.22200314233E+02  0.83481319278E+02  0.32558431919E+03  0.37508950068E+03  0.16500000000E+03 0.  0.
   -5000001    1    1    2    0    0 -0.22200314233E+02 -0.83481319278E+02  0.87491724729E+02  0.20577119943E+03  0.16500000000E+03 0.  0.
<mgrwt>
<rscale>  0 0.40837156E+03</rscale>
<asrwt>0</asrwt>
<pdfrwt beam="1">  1        2 0.76456672E-01 0.40837156E+03</pdfrwt>
<pdfrwt beam="2">  1       -2 0.12906512E-01 0.40837156E+03</pdfrwt>
<totfact> 0.27679308E+03</totfact>
</mgrwt>
</event>
<event>
 4    1  0.8641621E-005  0.9428159E+03  0.7818608E-02  0.9373587E-01
          2   -1    0    0  501    0  0.00000000000E+00  0.00000000000E+00  0.82598421815E+03  0.82598421815E+03  0.25500000000E-02 0.  1.
         -2   -1    0    0    0  501 -0.00000000000E+00 -0.00000000000E+00 -0.26904319593E+03  0.26904319594E+03  0.25500000000E-02 0. -1.
    5000001    1    1    2    0    0  0.39201885286E+03 -0.18463766223E+03  0.37723137469E+03  0.59774439133E+03  0.16500000000E+03 0.  0.
   -5000001    1    1    2    0    0 -0.39201885286E+03  0.18463766223E+03  0.17970964754E+03  0.49728302277E+03  0.16500000000E+03 0.  0.
<mgrwt>
<rscale>  0 0.94281585E+03</rscale>
<asrwt>0</asrwt>
<pdfrwt beam="1">  1        2 0.12707449E+00 0.94281585E+03</pdfrwt>
<pdfrwt beam="2">  1       -2 0.41391261E-01 0.94281585E+03</pdfrwt>
<totfact> 0.18256956E+02</totfact>
</mgrwt>
</event>
<event>
 4    1  0.8641621E-005  0.5769526E+03  0.7818608E-02  0.9954410E-01
         -2   -1    0    0    0  501 -0.00000000000E+00  0.00000000000E+00  0.54046482208E+02  0.54046482268E+02  0.25500000000E-02 0. -1.
          2   -1    0    0  501    0  0.00000000000E+00 -0.00000000000E+00 -0.15397595370E+04  0.15397595370E+04  0.25500000000E-02 0.  1.
    5000001    1    1    2    0    0 -0.17578547034E+03 -0.79045411248E+02 -0.11220771640E+04  0.11504046552E+04  0.16500000000E+03 0.  0.
   -5000001    1    1    2    0    0  0.17578547034E+03  0.79045411248E+02 -0.36363589073E+03  0.44340136406E+03  0.16500000000E+03 0.  0.
<mgrwt>
<rscale>  0 0.57695264E+03</rscale>
<asrwt>0</asrwt>
<pdfrwt beam="1">  1        2 0.23688605E+00 0.57695264E+03</pdfrwt>
<pdfrwt beam="2">  1       -2 0.83148446E-02 0.57695264E+03</pdfrwt>
<totfact> 0.11376085E+03</totfact>
</mgrwt>
</event>
<event>
 4    1  0.8641621E-005  0.4694748E+03  0.7818608E-02  0.1022069E+00
          2   -1    0    0  501    0  0.00000000000E+00  0.00000000000E+00  0.16441189920E+04  0.16441189920E+04  0.25500000000E-02 0.  1.
         -2   -1    0    0    0  501 -0.00000000000E+00 -0.00000000000E+00 -0.33514394302E+02  0.33514394399E+02  0.25500000000E-02 0. -1.
    5000001    1    1    2    0    0 -0.63912893347E+02 -0.14576012882E+03  0.62500255137E+03  0.66572070894E+03  0.16500000000E+03 0.  0.
   -5000001    1    1    2    0    0  0.63912893347E+02  0.14576012882E+03  0.98560204637E+03  0.10119126775E+04  0.16500000000E+03 0.  0.
<mgrwt>
<rscale>  0 0.46947482E+03</rscale>
<asrwt>0</asrwt>
<pdfrwt beam="1">  1        2 0.25294135E+00 0.46947482E+03</pdfrwt>
<pdfrwt beam="2">  1       -2 0.51560613E-02 0.46947482E+03</pdfrwt>
<totfact> 0.21227110E+03</totfact>
</mgrwt>
</event>
<event>
 4    1  0.8641621E-005  0.5439732E+03  0.7818608E-02  0.1002899E+00
         -2   -1    0    0    0  501 -0.00000000000E+00  0.00000000000E+00  0.56831780140E+02  0.56831780198E+02  0.25500000000E-02 0. -1.
          2   -1    0    0  501    0  0.00000000000E+00 -0.00000000000E+00 -0.13016785851E+04  0.13016785851E+04  0.25500000000E-02 0.  1.
    5000001    1    1    2    0    0  0.13382210448E+03 -0.16758764277E+03 -0.69116899421E+03  0.74224898263E+03  0.16500000000E+03 0.  0.
   -5000001    1    1    2    0    0 -0.13382210448E+03  0.16758764277E+03 -0.55367781078E+03  0.61626138270E+03  0.16500000000E+03 0.  0.
<mgrwt>
<rscale>  0 0.54397320E+03</rscale>
<asrwt>0</asrwt>
<pdfrwt beam="1">  1        2 0.20025822E+00 0.54397320E+03</pdfrwt>
<pdfrwt beam="2">  1       -2 0.87433518E-02 0.54397320E+03</pdfrwt>
<totfact> 0.14273400E+03</totfact>
</mgrwt>
</event>
<event>
 4    1  0.8641621E-005  0.1026910E+04  0.7818608E-02  0.9279513E-01
          2   -1    0    0  501    0  0.00000000000E+00  0.00000000000E+00  0.13343048142E+04  0.13343048142E+04  0.25500000000E-02 0.  1.
         -2   -1    0    0    0  501 -0.00000000000E+00 -0.00000000000E+00 -0.19758307984E+03  0.19758307985E+03  0.25500000000E-02 0. -1.
    5000001    1    1    2    0    0  0.32931106188E+03 -0.16829757192E+03  0.10392450204E+04  0.11153587139E+04  0.16500000000E+03 0.  0.
   -5000001    1    1    2    0    0 -0.32931106188E+03  0.16829757192E+03  0.97476713972E+02  0.41652918019E+03  0.16500000000E+03 0.  0.
<mgrwt>
<rscale>  0 0.10269100E+04</rscale>
<asrwt>0</asrwt>
<pdfrwt beam="1">  1        2 0.20527766E+00 0.10269100E+04</pdfrwt>
<pdfrwt beam="2">  1       -2 0.30397398E-01 0.10269100E+04</pdfrwt>
<totfact> 0.15729444E+02</totfact>
</mgrwt>
</event>
<event>
 4    1  0.8641621E-005  0.5998609E+03  0.7818608E-02  0.9905695E-01
         -2   -1    0    0    0  501 -0.00000000000E+00  0.00000000000E+00  0.65666187195E+02  0.65666187244E+02  0.25500000000E-02 0. -1.
          2   -1    0    0  501    0  0.00000000000E+00 -0.00000000000E+00 -0.13699330680E+04  0.13699330680E+04  0.25500000000E-02 0.  1.
    5000001    1    1    2    0    0 -0.21323972321E+03  0.12457945189E+03 -0.55224518002E+03  0.62704940654E+03  0.16500000000E+03 0.  0.
   -5000001    1    1    2    0    0  0.21323972321E+03 -0.12457945189E+03 -0.75202170077E+03  0.80854984869E+03  0.16500000000E+03 0.  0.
<mgrwt>
<rscale>  0 0.59986092E+03</rscale>
<asrwt>0</asrwt>
<pdfrwt beam="1">  1        2 0.21075891E+00 0.59986092E+03</pdfrwt>
<pdfrwt beam="2">  1       -2 0.10102491E-01 0.59986092E+03</pdfrwt>
<totfact> 0.10323097E+03</totfact>
</mgrwt>
</event>
<event>
 4    1  0.8641621E-005  0.4178143E+03  0.7818608E-02  0.1037780E+00
          2   -1    0    0  501    0  0.00000000000E+00  0.00000000000E+00  0.32144355816E+04  0.32144355816E+04  0.25500000000E-02 0.  1.
         -2   -1    0    0    0  501 -0.00000000000E+00 -0.00000000000E+00 -0.13576936250E+02  0.13576936490E+02  0.25500000000E-02 0. -1.
    5000001    1    1    2    0    0 -0.75528891802E+02 -0.10342586357E+03  0.16310075085E+04  0.16443272228E+04  0.16500000000E+03 0.  0.
   -5000001    1    1    2    0    0  0.75528891802E+02  0.10342586357E+03  0.15698511368E+04  0.15836852953E+04  0.16500000000E+03 0.  0.
<mgrwt>
<rscale>  0 0.41781425E+03</rscale>
<asrwt>0</asrwt>
<pdfrwt beam="1">  1        2 0.49452885E+00 0.41781425E+03</pdfrwt>
<pdfrwt beam="2">  1       -2 0.20887582E-02 0.41781425E+03</pdfrwt>
<totfact> 0.10950423E+03</totfact>
</mgrwt>
</event>
<event>
 4    1  0.8641621E-005  0.8481433E+03  0.7818608E-02  0.9492832E-01
          2   -1    0    0  501    0  0.00000000000E+00  0.00000000000E+00  0.33319686613E+03  0.33319686614E+03  0.25500000000E-02 0.  1.
         -2   -1    0    0    0  501 -0.00000000000E+00 -0.00000000000E+00 -0.53973127270E+03  0.53973127271E+03  0.25500000000E-02 0. -1.
    5000001    1    1    2    0    0  0.20985704586E+03  0.14686142103E+03 -0.40685034012E+03  0.50829170359E+03  0.16500000000E+03 0.  0.
   -5000001    1    1    2    0    0 -0.20985704586E+03 -0.14686142103E+03  0.20031593354E+03  0.36463643525E+03  0.16500000000E+03 0.  0.
<mgrwt>
<rscale>  0 0.84814331E+03</rscale>
<asrwt>0</asrwt>
<pdfrwt beam="1">  1        2 0.51261056E-01 0.84814331E+03</pdfrwt>
<pdfrwt beam="2">  1       -2 0.83035580E-01 0.84814331E+03</pdfrwt>
<totfact> 0.12481239E+02</totfact>
</mgrwt>
</event>
<event>
 4    1  0.8641621E-005  0.4493021E+03  0.7818608E-02  0.1027930E+00
          2   -1    0    0  501    0  0.00000000000E+00  0.00000000000E+00  0.29848093178E+04  0.29848093178E+04  0.25500000000E-02 0.  1.
         -2   -1    0    0    0  501 -0.00000000000E+00 -0.00000000000E+00 -0.16908310581E+02  0.16908310773E+02  0.25500000000E-02 0. -1.
    5000001    1    1    2    0    0  0.10813471422E+02  0.15176031475E+03  0.15490532651E+04  0.15652281439E+04  0.16500000000E+03 0.  0.
   -5000001    1    1    2    0    0 -0.10813471422E+02 -0.15176031475E+03  0.14188477421E+04  0.14364894847E+04  0.16500000000E+03 0.  0.
<mgrwt>
<rscale>  0 0.44930205E+03</rscale>
<asrwt>0</asrwt>
<pdfrwt beam="1">  1        2 0.45920122E+00 0.44930205E+03</pdfrwt>
<pdfrwt beam="2">  1       -2 0.26012798E-02 0.44930205E+03</pdfrwt>
<totfact> 0.10866656E+03</totfact>
</mgrwt>
</event>
<event>
 4    1  0.8641621E-005  0.4608923E+03  0.7818608E-02  0.1024523E+00
         -2   -1    0    0    0  501 -0.00000000000E+00  0.00000000000E+00  0.17842813799E+03  0.17842813801E+03  0.25500000000E-02 0. -1.
          2   -1    0    0  501    0  0.00000000000E+00 -0.00000000000E+00 -0.29762919070E+03  0.29762919071E+03  0.25500000000E-02 0.  1.
    5000001    1    1    2    0    0  0.13185022821E+03 -0.84552462475E+02 -0.21693936041E+02  0.22853714895E+03  0.16500000000E+03 0.  0.
   -5000001    1    1    2    0    0 -0.13185022821E+03  0.84552462475E+02 -0.97507116663E+02  0.24752017976E+03  0.16500000000E+03 0.  0.
<mgrwt>
<rscale>  0 0.46089228E+03</rscale>
<asrwt>0</asrwt>
<pdfrwt beam="1">  1        2 0.45789106E-01 0.46089228E+03</pdfrwt>
<pdfrwt beam="2">  1       -2 0.27450483E-01 0.46089228E+03</pdfrwt>
<totfact> 0.13348277E+03</totfact>
</mgrwt>
</event>
<event>
 4    1  0.8641621E-005  0.5281224E+03  0.7818608E-02  0.1006688E+00
         -2   -1    0    0    0  501 -0.00000000000E+00  0.00000000000E+00  0.24985450265E+03  0.24985450266E+03  0.25500000000E-02 0. -1.
          2   -1    0    0  501    0  0.00000000000E+00 -0.00000000000E+00 -0.27907573027E+03  0.27907573029E+03  0.25500000000E-02 0.  1.
    5000001    1    1    2    0    0  0.26891174409E+02 -0.20167996820E+03  0.18687539865E+02  0.26262552995E+03  0.16500000000E+03 0.  0.
   -5000001    1    1    2    0    0 -0.26891174409E+02  0.20167996820E+03 -0.47908767493E+02  0.26630470300E+03  0.16500000000E+03 0.  0.
<mgrwt>
<rscale>  0 0.52812244E+03</rscale>
<asrwt>0</asrwt>
<pdfrwt beam="1">  1        2 0.42934727E-01 0.52812244E+03</pdfrwt>
<pdfrwt beam="2">  1       -2 0.38439155E-01 0.52812244E+03</pdfrwt>
<totfact> 0.76435496E+02</totfact>
</mgrwt>
</event>
<event>
 4    1  0.8641621E-005  0.4704242E+03  0.7818608E-02  0.1021801E+00
          2   -1    0    0  501    0  0.00000000000E+00  0.00000000000E+00  0.25933620014E+04  0.25933620014E+04  0.25500000000E-02 0.  1.
         -2   -1    0    0    0  501 -0.00000000000E+00 -0.00000000000E+00 -0.21333210413E+02  0.21333210565E+02  0.25500000000E-02 0. -1.
    5000001    1    1    2    0    0 -0.97481745561E+02 -0.13635331751E+03  0.12982164858E+04  0.13193505834E+04  0.16500000000E+03 0.  0.
   -5000001    1    1    2    0    0  0.97481745561E+02  0.13635331751E+03  0.12738123052E+04  0.12953446286E+04  0.16500000000E+03 0.  0.
<mgrwt>
<rscale>  0 0.47042422E+03</rscale>
<asrwt>0</asrwt>
<pdfrwt beam="1">  1        2 0.39897854E+00 0.47042422E+03</pdfrwt>
<pdfrwt beam="2">  1       -2 0.32820343E-02 0.47042422E+03</pdfrwt>
<totfact> 0.12898637E+03</totfact>
</mgrwt>
</event>
<event>
 4    1  0.8641621E-005  0.6639604E+03  0.7818608E-02  0.9780930E-01
         -2   -1    0    0    0  501 -0.00000000000E+00  0.00000000000E+00  0.14554122094E+03  0.14554122097E+03  0.25500000000E-02 0. -1.
          2   -1    0    0  501    0  0.00000000000E+00 -0.00000000000E+00 -0.75724832721E+03  0.75724832721E+03  0.25500000000E-02 0.  1.
    5000001    1    1    2    0    0 -0.27630604253E+03  0.62866794305E+02 -0.23535079707E+03  0.40362390990E+03  0.16500000000E+03 0.  0.
   -5000001    1    1    2    0    0  0.27630604253E+03 -0.62866794305E+02 -0.37635630919E+03  0.49916563827E+03  0.16500000000E+03 0.  0.
<mgrwt>
<rscale>  0 0.66396038E+03</rscale>
<asrwt>0</asrwt>
<pdfrwt beam="1">  1        2 0.11649974E+00 0.66396038E+03</pdfrwt>
<pdfrwt beam="2">  1       -2 0.22390958E-01 0.66396038E+03</pdfrwt>
<totfact> 0.65090686E+02</totfact>
</mgrwt>
</event>
<event>
 4    1  0.8641621E-005  0.6974741E+03  0.7818608E-02  0.9721562E-01
         -2   -1    0    0    0  501 -0.00000000000E+00  0.00000000000E+00  0.33086292202E+03  0.33086292203E+03  0.25500000000E-02 0. -1.
          2   -1    0    0  501    0  0.00000000000E+00 -0.00000000000E+00 -0.36757679838E+03  0.36757679839E+03  0.25500000000E-02 0.  1.
    5000001    1    1    2    0    0 -0.21819243929E+03 -0.21380370510E+03 -0.51152373432E+02  0.35094377069E+03  0.16500000000E+03 0.  0.
   -5000001    1    1    2    0    0  0.21819243929E+03  0.21380370510E+03  0.14438497072E+02  0.34749594972E+03  0.16500000000E+03 0.  0.
<mgrwt>
<rscale>  0 0.69747411E+03</rscale>
<asrwt>0</asrwt>
<pdfrwt beam="1">  1        2 0.56550276E-01 0.69747411E+03</pdfrwt>
<pdfrwt beam="2">  1       -2 0.50901988E-01 0.69747411E+03</pdfrwt>
<totfact> 0.32205343E+02</totfact>
</mgrwt>
</event>
<event>
 4    1  0.8641621E-005  0.4606256E+03  0.7818608E-02  0.1024600E+00
          2   -1    0    0  501    0  0.00000000000E+00  0.00000000000E+00  0.18594087221E+04  0.18594087221E+04  0.25500000000E-02 0.  1.
         -2   -1    0    0    0  501 -0.00000000000E+00 -0.00000000000E+00 -0.28527344432E+02  0.28527344546E+02  0.25500000000E-02 0. -1.
    5000001    1    1    2    0    0  0.12352635550E+03 -0.37789693904E+02  0.52376536028E+03  0.56412939482E+03  0.16500000000E+03 0.  0.
   -5000001    1    1    2    0    0 -0.12352635550E+03  0.37789693904E+02  0.13071160174E+04  0.13238066718E+04  0.16500000000E+03 0.  0.
<mgrwt>
<rscale>  0 0.46062563E+03</rscale>
<asrwt>0</asrwt>
<pdfrwt beam="1">  1        2 0.28606289E+00 0.46062563E+03</pdfrwt>
<pdfrwt beam="2">  1       -2 0.43888220E-02 0.46062563E+03</pdfrwt>
<totfact> 0.20848433E+03</totfact>
</mgrwt>
</event>
<event>
 4    1  0.8641621E-005  0.4254453E+03  0.7818608E-02  0.1035309E+00
         -2   -1    0    0    0  501 -0.00000000000E+00  0.00000000000E+00  0.30716612534E+02  0.30716612640E+02  0.25500000000E-02 0. -1.
          2   -1    0    0  501    0  0.00000000000E+00 -0.00000000000E+00 -0.14731740692E+04  0.14731740692E+04  0.25500000000E-02 0.  1.
    5000001    1    1    2    0    0 -0.10554455381E+03 -0.62944222840E+02 -0.53007501680E+03  0.56860016837E+03  0.16500000000E+03 0.  0.
   -5000001    1    1    2    0    0  0.10554455381E+03  0.62944222840E+02 -0.91238243991E+03  0.93529051352E+03  0.16500000000E+03 0.  0.
<mgrwt>
<rscale>  0 0.42544526E+03</rscale>
<asrwt>0</asrwt>
<pdfrwt beam="1">  1        2 0.22664211E+00 0.42544526E+03</pdfrwt>
<pdfrwt beam="2">  1       -2 0.47256339E-02 0.42544526E+03</pdfrwt>
<totfact> 0.30095575E+03</totfact>
</mgrwt>
</event>
<event>
 4    1  0.8641621E-005  0.4169378E+03  0.7818608E-02  0.1038068E+00
         -2   -1    0    0    0  501 -0.00000000000E+00  0.00000000000E+00  0.69442465318E+02  0.69442465365E+02  0.25500000000E-02 0. -1.
          2   -1    0    0  501    0  0.00000000000E+00 -0.00000000000E+00 -0.62583153477E+03  0.62583153478E+03  0.25500000000E-02 0.  1.
    5000001    1    1    2    0    0 -0.11170197646E+03  0.58552157104E+02 -0.30842307516E+03  0.37182721785E+03  0.16500000000E+03 0.  0.
   -5000001    1    1    2    0    0  0.11170197646E+03 -0.58552157104E+02 -0.24796599429E+03  0.32344678229E+03  0.16500000000E+03 0.  0.
<mgrwt>
<rscale>  0 0.41693781E+03</rscale>
<asrwt>0</asrwt>
<pdfrwt beam="1">  1        2 0.96281771E-01 0.41693781E+03</pdfrwt>
<pdfrwt beam="2">  1       -2 0.10683457E-01 0.41693781E+03</pdfrwt>
<totfact> 0.28812538E+03</totfact>
</mgrwt>
</event>
<event>
 4    1  0.8641621E-005  0.1331716E+04  0.7818608E-02  0.9004786E-01
         -2   -1    0    0    0  501 -0.00000000000E+00  0.00000000000E+00  0.10401142585E+04  0.10401142585E+04  0.25500000000E-02 0. -1.
          2   -1    0    0  501    0  0.00000000000E+00 -0.00000000000E+00 -0.42626737666E+03  0.42626737667E+03  0.25500000000E-02 0.  1.
    5000001    1    1    2    0    0  0.39107776994E+02  0.64058802048E+03  0.23506018088E+03  0.70310789986E+03  0.16500000000E+03 0.  0.
   -5000001    1    1    2    0    0 -0.39107776994E+02 -0.64058802048E+03  0.37878670097E+03  0.76327373533E+03  0.16500000000E+03 0.  0.
<mgrwt>
<rscale>  0 0.13317159E+04</rscale>
<asrwt>0</asrwt>
<pdfrwt beam="1">  1        2 0.65579597E-01 0.13317159E+04</pdfrwt>
<pdfrwt beam="2">  1       -2 0.16001758E+00 0.13317159E+04</pdfrwt>
<totfact> 0.18201263E+01</totfact>
</mgrwt>
</event>
<event>
 4    1  0.8641621E-005  0.5717212E+03  0.7818608E-02  0.9965877E-01
         -2   -1    0    0    0  501 -0.00000000000E+00  0.00000000000E+00  0.32253455077E+03  0.32253455078E+03  0.25500000000E-02 0. -1.
          2   -1    0    0  501    0  0.00000000000E+00 -0.00000000000E+00 -0.25335671304E+03  0.25335671306E+03  0.25500000000E-02 0.  1.
    5000001    1    1    2    0    0  0.30124974949E+02  0.20872446056E+03 -0.66230469234E+02  0.27583489555E+03  0.16500000000E+03 0.  0.
   -5000001    1    1    2    0    0 -0.30124974949E+02 -0.20872446056E+03  0.13540830696E+03  0.30005636828E+03  0.16500000000E+03 0.  0.
<mgrwt>
<rscale>  0 0.57172124E+03</rscale>
<asrwt>0</asrwt>
<pdfrwt beam="1">  1        2 0.38977956E-01 0.57172124E+03</pdfrwt>
<pdfrwt beam="2">  1       -2 0.49620700E-01 0.57172124E+03</pdfrwt>
<totfact> 0.51375301E+02</totfact>
</mgrwt>
</event>
<event>
 4    1  0.8641621E-005  0.5244022E+03  0.7818608E-02  0.1007599E+00
         -2   -1    0    0    0  501 -0.00000000000E+00  0.00000000000E+00  0.31955729186E+02  0.31955729288E+02  0.25500000000E-02 0. -1.
          2   -1    0    0  501    0  0.00000000000E+00 -0.00000000000E+00 -0.21513958303E+04  0.21513958303E+04  0.25500000000E-02 0.  1.
    5000001    1    1    2    0    0  0.11184826523E+03 -0.10553654379E+03 -0.16163922036E+04  0.16320529257E+04  0.16500000000E+03 0.  0.
   -5000001    1    1    2    0    0 -0.11184826523E+03  0.10553654379E+03 -0.50304789752E+03  0.55129863387E+03  0.16500000000E+03 0.  0.
<mgrwt>
<rscale>  0 0.52440222E+03</rscale>
<asrwt>0</asrwt>
<pdfrwt beam="1">  1        2 0.33098386E+00 0.52440222E+03</pdfrwt>
<pdfrwt beam="2">  1       -2 0.49162677E-02 0.52440222E+03</pdfrwt>
<totfact> 0.12144661E+03</totfact>
</mgrwt>
</event>
<event>
 4    1  0.8641621E-005  0.4366847E+03  0.7818608E-02  0.1031769E+00
          2   -1    0    0  501    0  0.00000000000E+00  0.00000000000E+00  0.79769203192E+03  0.79769203192E+03  0.25500000000E-02 0.  1.
         -2   -1    0    0    0  501 -0.00000000000E+00 -0.00000000000E+00 -0.59764153834E+02  0.59764153889E+02  0.25500000000E-02 0. -1.
    5000001    1    1    2    0    0 -0.73688823325E+02  0.11977858801E+03  0.41984385698E+03  0.47251541464E+03  0.16500000000E+03 0.  0.
   -5000001    1    1    2    0    0  0.73688823325E+02 -0.11977858801E+03  0.31808402110E+03  0.38494077117E+03  0.16500000000E+03 0.  0.
<mgrwt>
<rscale>  0 0.43668473E+03</rscale>
<asrwt>0</asrwt>
<pdfrwt beam="1">  1        2 0.12272185E+00 0.43668473E+03</pdfrwt>
<pdfrwt beam="2">  1       -2 0.91944852E-02 0.43668473E+03</pdfrwt>
<totfact> 0.27139520E+03</totfact>
</mgrwt>
</event>
<event>
 4    1  0.8641621E-005  0.6910535E+03  0.7818608E-02  0.9732655E-01
          2   -1    0    0  501    0  0.00000000000E+00  0.00000000000E+00  0.45855906893E+03  0.45855906894E+03  0.25500000000E-02 0.  1.
         -2   -1    0    0    0  501 -0.00000000000E+00 -0.00000000000E+00 -0.26035630782E+03  0.26035630783E+03  0.25500000000E-02 0. -1.
    5000001    1    1    2    0    0 -0.22678935862E+03  0.19957716450E+03  0.13029857662E+03  0.36805865951E+03  0.16500000000E+03 0.  0.
   -5000001    1    1    2    0    0  0.22678935862E+03 -0.19957716450E+03  0.67904184493E+02  0.35085671726E+03  0.16500000000E+03 0.  0.
<mgrwt>
<rscale>  0 0.69105353E+03</rscale>
<asrwt>0</asrwt>
<pdfrwt beam="1">  1        2 0.70547549E-01 0.69105353E+03</pdfrwt>
<pdfrwt beam="2">  1       -2 0.40054817E-01 0.69105353E+03</pdfrwt>
<totfact> 0.40468381E+02</totfact>
</mgrwt>
</event>
<event>
 4    1  0.8641621E-005  0.4993341E+03  0.7818608E-02  0.1013953E+00
         -2   -1    0    0    0  501 -0.00000000000E+00  0.00000000000E+00  0.31235050671E+02  0.31235050775E+02  0.25500000000E-02 0. -1.
          2   -1    0    0  501    0  0.00000000000E+00 -0.00000000000E+00 -0.19956308412E+04  0.19956308412E+04  0.25500000000E-02 0.  1.
    5000001    1    1    2    0    0 -0.52929298964E+02  0.17720905389E+03 -0.11042471400E+04  0.11317205069E+04  0.16500000000E+03 0.  0.
   -5000001    1    1    2    0    0  0.52929298964E+02 -0.17720905389E+03 -0.86014865048E+03  0.89514538506E+03  0.16500000000E+03 0.  0.
<mgrwt>
<rscale>  0 0.49933408E+03</rscale>
<asrwt>0</asrwt>
<pdfrwt beam="1">  1        2 0.30702003E+00 0.49933408E+03</pdfrwt>
<pdfrwt beam="2">  1       -2 0.48053940E-02 0.49933408E+03</pdfrwt>
<totfact> 0.15294536E+03</totfact>
</mgrwt>
</event>
<event>
 4    1  0.8641621E-005  0.4079891E+03  0.7818608E-02  0.1041048E+00
          2   -1    0    0  501    0  0.00000000000E+00  0.00000000000E+00  0.27151136523E+03  0.27151136524E+03  0.25500000000E-02 0.  1.
         -2   -1    0    0    0  501 -0.00000000000E+00 -0.00000000000E+00 -0.15326717491E+03  0.15326717493E+03  0.25500000000E-02 0. -1.
    5000001    1    1    2    0    0 -0.13289459781E+02  0.11825200652E+03  0.43379237684E+02  0.20800698317E+03  0.16500000000E+03 0.  0.
   -5000001    1    1    2    0    0  0.13289459781E+02 -0.11825200652E+03  0.74864952635E+02  0.21677155699E+03  0.16500000000E+03 0.  0.
<mgrwt>
<rscale>  0 0.40798912E+03</rscale>
<asrwt>0</asrwt>
<pdfrwt beam="1">  1        2 0.41770979E-01 0.40798912E+03</pdfrwt>
<pdfrwt beam="2">  1       -2 0.23579566E-01 0.40798912E+03</pdfrwt>
<totfact> 0.19350791E+03</totfact>
</mgrwt>
</event>
<event>
 4    1  0.8641621E-005  0.4775611E+03  0.7818608E-02  0.1019808E+00
         -2   -1    0    0    0  501 -0.00000000000E+00  0.00000000000E+00  0.76039559973E+02  0.76039560016E+02  0.25500000000E-02 0. -1.
          2   -1    0    0  501    0  0.00000000000E+00 -0.00000000000E+00 -0.74982205971E+03  0.74982205971E+03  0.25500000000E-02 0.  1.
    5000001    1    1    2    0    0 -0.69540101527E+02  0.15627445448E+03 -0.29694373051E+03  0.38033946670E+03  0.16500000000E+03 0.  0.
   -5000001    1    1    2    0    0  0.69540101527E+02 -0.15627445448E+03 -0.37683876923E+03  0.44552215303E+03  0.16500000000E+03 0.  0.
<mgrwt>
<rscale>  0 0.47756105E+03</rscale>
<asrwt>0</asrwt>
<pdfrwt beam="1">  1        2 0.11535724E+00 0.47756105E+03</pdfrwt>
<pdfrwt beam="2">  1       -2 0.11698394E-01 0.47756105E+03</pdfrwt>
<totfact> 0.19915613E+03</totfact>
</mgrwt>
</event>
<event>
 4    1  0.8641621E-005  0.7694928E+03  0.7818608E-02  0.9605256E-01
         -2   -1    0    0    0  501 -0.00000000000E+00  0.00000000000E+00  0.86854923453E+02  0.86854923490E+02  0.25500000000E-02 0. -1.
          2   -1    0    0  501    0  0.00000000000E+00 -0.00000000000E+00 -0.17043338112E+04  0.17043338112E+04  0.25500000000E-02 0.  1.
    5000001    1    1    2    0    0 -0.27335536279E+02  0.25627883834E+03 -0.26592518679E+03  0.40542234706E+03  0.16500000000E+03 0.  0.
   -5000001    1    1    2    0    0  0.27335536279E+02 -0.25627883834E+03 -0.13515537010E+04  0.13857663876E+04  0.16500000000E+03 0.  0.
<mgrwt>
<rscale>  0 0.76949278E+03</rscale>
<asrwt>0</asrwt>
<pdfrwt beam="1">  1        2 0.26220518E+00 0.76949278E+03</pdfrwt>
<pdfrwt beam="2">  1       -2 0.13362297E-01 0.76949278E+03</pdfrwt>
<totfact> 0.42142916E+02</totfact>
</mgrwt>
</event>
<event>
 4    1  0.8641621E-005  0.4487913E+03  0.7818608E-02  0.1028083E+00
         -2   -1    0    0    0  501 -0.00000000000E+00  0.00000000000E+00  0.86785017404E+02  0.86785017441E+02  0.25500000000E-02 0. -1.
          2   -1    0    0  501    0  0.00000000000E+00 -0.00000000000E+00 -0.58020866038E+03  0.58020866039E+03  0.25500000000E-02 0.  1.
    5000001    1    1    2    0    0  0.48174153348E+02  0.13784830237E+03 -0.18356117313E+03  0.28677971999E+03  0.16500000000E+03 0.  0.
   -5000001    1    1    2    0    0 -0.48174153348E+02 -0.13784830237E+03 -0.30986246985E+03  0.38021395784E+03  0.16500000000E+03 0.  0.
<mgrwt>
<rscale>  0 0.44879135E+03</rscale>
<asrwt>0</asrwt>
<pdfrwt beam="1">  1        2 0.89262868E-01 0.44879135E+03</pdfrwt>
<pdfrwt beam="2">  1       -2 0.13351542E-01 0.44879135E+03</pdfrwt>
<totfact> 0.21908110E+03</totfact>
</mgrwt>
</event>
<event>
 4    1  0.8641621E-005  0.5979975E+03  0.7818608E-02  0.9909569E-01
         -2   -1    0    0    0  501 -0.00000000000E+00  0.00000000000E+00  0.30905229602E+02  0.30905229708E+02  0.25500000000E-02 0. -1.
          2   -1    0    0  501    0  0.00000000000E+00 -0.00000000000E+00 -0.28927224234E+04  0.28927224234E+04  0.25500000000E-02 0.  1.
    5000001    1    1    2    0    0 -0.17015750957E+03 -0.16912551168E+03 -0.10986619041E+04  0.11365913937E+04  0.16500000000E+03 0.  0.
   -5000001    1    1    2    0    0  0.17015750957E+03  0.16912551168E+03 -0.17631552897E+04  0.17870362594E+04  0.16500000000E+03 0.  0.
<mgrwt>
<rscale>  0 0.59799749E+03</rscale>
<asrwt>0</asrwt>
<pdfrwt beam="1">  1        2 0.44503401E+00 0.59799749E+03</pdfrwt>
<pdfrwt beam="2">  1       -2 0.47546530E-02 0.59799749E+03</pdfrwt>
<totfact> 0.48392772E+02</totfact>
</mgrwt>
</event>
<event>
 4    1  0.8641621E-005  0.3537135E+03  0.7818608E-02  0.1061101E+00
          2   -1    0    0  501    0  0.00000000000E+00  0.00000000000E+00  0.49179509073E+03  0.49179509073E+03  0.25500000000E-02 0.  1.
         -2   -1    0    0    0  501 -0.00000000000E+00 -0.00000000000E+00 -0.63600294831E+02  0.63600294882E+02  0.25500000000E-02 0. -1.
    5000001    1    1    2    0    0 -0.49041957982E+02 -0.39742631445E+02  0.22711406290E+03  0.28773318885E+03  0.16500000000E+03 0.  0.
   -5000001    1    1    2    0    0  0.49041957982E+02  0.39742631445E+02  0.20108073299E+03  0.26766219677E+03  0.16500000000E+03 0.  0.
<mgrwt>
<rscale>  0 0.35371352E+03</rscale>
<asrwt>0</asrwt>
<pdfrwt beam="1">  1        2 0.75660779E-01 0.35371352E+03</pdfrwt>
<pdfrwt beam="2">  1       -2 0.97846612E-02 0.35371352E+03</pdfrwt>
<totfact> 0.43752820E+03</totfact>
</mgrwt>
</event>
<event>
 4    1  0.8641621E-005  0.3889961E+03  0.7818608E-02  0.1047658E+00
          2   -1    0    0  501    0  0.00000000000E+00  0.00000000000E+00  0.45552692684E+03  0.45552692685E+03  0.25500000000E-02 0.  1.
         -2   -1    0    0    0  501 -0.00000000000E+00 -0.00000000000E+00 -0.83045558354E+02  0.83045558394E+02  0.25500000000E-02 0. -1.
    5000001    1    1    2    0    0  0.67855616781E+02 -0.29981719839E+02  0.87354618265E+02  0.20089578787E+03  0.16500000000E+03 0.  0.
   -5000001    1    1    2    0    0 -0.67855616781E+02  0.29981719839E+02  0.28512675022E+03  0.33767669737E+03  0.16500000000E+03 0.  0.
<mgrwt>
<rscale>  0 0.38899608E+03</rscale>
<asrwt>0</asrwt>
<pdfrwt beam="1">  1        2 0.70081066E-01 0.38899608E+03</pdfrwt>
<pdfrwt beam="2">  1       -2 0.12776240E-01 0.38899608E+03</pdfrwt>
<totfact> 0.31022716E+03</totfact>
</mgrwt>
</event>
<event>
 4    1  0.8641621E-005  0.5560413E+03  0.7818608E-02  0.1000105E+00
          2   -1    0    0  501    0  0.00000000000E+00  0.00000000000E+00  0.96204523646E+03  0.96204523646E+03  0.25500000000E-02 0.  1.
         -2   -1    0    0    0  501 -0.00000000000E+00 -0.00000000000E+00 -0.80344951070E+02  0.80344951111E+02  0.25500000000E-02 0. -1.
    5000001    1    1    2    0    0  0.19059624799E+03 -0.11454895005E+03  0.48760733336E+03  0.56074441883E+03  0.16500000000E+03 0.  0.
   -5000001    1    1    2    0    0 -0.19059624799E+03  0.11454895005E+03  0.39409295203E+03  0.48164576874E+03  0.16500000000E+03 0.  0.
<mgrwt>
<rscale>  0 0.55604128E+03</rscale>
<asrwt>0</asrwt>
<pdfrwt beam="1">  1        2 0.14800695E+00 0.55604128E+03</pdfrwt>
<pdfrwt beam="2">  1       -2 0.12360762E-01 0.55604128E+03</pdfrwt>
<totfact> 0.13009061E+03</totfact>
</mgrwt>
</event>
<event>
 4    1  0.8641621E-005  0.5602788E+03  0.7818608E-02  0.9991424E-01
          2   -1    0    0  501    0  0.00000000000E+00  0.00000000000E+00  0.69565842850E+03  0.69565842850E+03  0.25500000000E-02 0.  1.
         -2   -1    0    0    0  501 -0.00000000000E+00 -0.00000000000E+00 -0.11281122046E+03  0.11281122049E+03  0.25500000000E-02 0. -1.
    5000001    1    1    2    0    0  0.18803528219E+03 -0.12440641833E+03  0.26189180587E+03  0.38294456812E+03  0.16500000000E+03 0.  0.
   -5000001    1    1    2    0    0 -0.18803528219E+03  0.12440641833E+03  0.32095540217E+03  0.42552508087E+03  0.16500000000E+03 0.  0.
<mgrwt>
<rscale>  0 0.56027877E+03</rscale>
<asrwt>0</asrwt>
<pdfrwt beam="1">  1        2 0.10702437E+00 0.56027877E+03</pdfrwt>
<pdfrwt beam="2">  1       -2 0.17355573E-01 0.56027877E+03</pdfrwt>
<totfact> 0.11318399E+03</totfact>
</mgrwt>
</event>
<event>
 4    1  0.8641621E-005  0.6836816E+03  0.7818608E-02  0.9745553E-01
         -2   -1    0    0    0  501 -0.00000000000E+00  0.00000000000E+00  0.49120839190E+02  0.49120839256E+02  0.25500000000E-02 0. -1.
          2   -1    0    0  501    0  0.00000000000E+00 -0.00000000000E+00 -0.23789318100E+04  0.23789318100E+04  0.25500000000E-02 0.  1.
    5000001    1    1    2    0    0  0.24958809410E+03  0.16115716896E+03 -0.10337291423E+04  0.10881575205E+04  0.16500000000E+03 0.  0.
   -5000001    1    1    2    0    0 -0.24958809410E+03 -0.16115716896E+03 -0.12960818286E+04  0.13398951288E+04  0.16500000000E+03 0.  0.
<mgrwt>
<rscale>  0 0.68368158E+03</rscale>
<asrwt>0</asrwt>
<pdfrwt beam="1">  1        2 0.36598942E+00 0.68368158E+03</pdfrwt>
<pdfrwt beam="2">  1       -2 0.75570540E-02 0.68368158E+03</pdfrwt>
<totfact> 0.45811352E+02</totfact>
</mgrwt>
</event>
<event>
 4    1  0.8641621E-005  0.5204955E+03  0.7818608E-02  0.1008564E+00
          2   -1    0    0  501    0  0.00000000000E+00  0.00000000000E+00  0.12245195613E+04  0.12245195613E+04  0.25500000000E-02 0.  1.
         -2   -1    0    0    0  501 -0.00000000000E+00 -0.00000000000E+00 -0.55310578155E+02  0.55310578214E+02  0.25500000000E-02 0. -1.
    5000001    1    1    2    0    0 -0.69756574821E+02  0.18545121384E+03  0.49781817485E+03  0.56063006310E+03  0.16500000000E+03 0.  0.
   -5000001    1    1    2    0    0  0.69756574821E+02 -0.18545121384E+03  0.67139080832E+03  0.71920007643E+03  0.16500000000E+03 0.  0.
<mgrwt>
<rscale>  0 0.52049548E+03</rscale>
<asrwt>0</asrwt>
<pdfrwt beam="1">  1        2 0.18838761E+00 0.52049548E+03</pdfrwt>
<pdfrwt beam="2">  1       -2 0.85093205E-02 0.52049548E+03</pdfrwt>
<totfact> 0.16519148E+03</totfact>
</mgrwt>
</event>
<event>
 4    1  0.8641621E-005  0.4535112E+03  0.7818608E-02  0.1026680E+00
         -2   -1    0    0    0  501 -0.00000000000E+00  0.00000000000E+00  0.14130832731E+03  0.14130832733E+03  0.25500000000E-02 0. -1.
          2   -1    0    0  501    0  0.00000000000E+00 -0.00000000000E+00 -0.36387173715E+03  0.36387173716E+03  0.25500000000E-02 0.  1.
    5000001    1    1    2    0    0  0.11372069275E+03 -0.19813584627E+02  0.48459429464E+01  0.20142854132E+03  0.16500000000E+03 0.  0.
   -5000001    1    1    2    0    0 -0.11372069275E+03  0.19813584627E+02 -0.22740935278E+03  0.30375152317E+03  0.16500000000E+03 0.  0.
<mgrwt>
<rscale>  0 0.45351122E+03</rscale>
<asrwt>0</asrwt>
<pdfrwt beam="1">  1        2 0.55980267E-01 0.45351122E+03</pdfrwt>
<pdfrwt beam="2">  1       -2 0.21739743E-01 0.45351122E+03</pdfrwt>
<totfact> 0.16215663E+03</totfact>
</mgrwt>
</event>
<event>
 4    1  0.8641621E-005  0.7002704E+03  0.7818608E-02  0.9716770E-01
          2   -1    0    0  501    0  0.00000000000E+00  0.00000000000E+00  0.93799556744E+03  0.93799556745E+03  0.25500000000E-02 0.  1.
         -2   -1    0    0    0  501 -0.00000000000E+00 -0.00000000000E+00 -0.13069855611E+03  0.13069855613E+03  0.25500000000E-02 0. -1.
    5000001    1    1    2    0    0  0.47449477602E+02 -0.24520738770E+03  0.68084580861E+03  0.74374332334E+03  0.16500000000E+03 0.  0.
   -5000001    1    1    2    0    0 -0.47449477602E+02  0.24520738770E+03  0.12645120273E+03  0.32495080024E+03  0.16500000000E+03 0.  0.
<mgrwt>
<rscale>  0 0.70027042E+03</rscale>
<asrwt>0</asrwt>
<pdfrwt beam="1">  1        2 0.14430701E+00 0.70027042E+03</pdfrwt>
<pdfrwt beam="2">  1       -2 0.20107470E-01 0.70027042E+03</pdfrwt>
<totfact> 0.58833761E+02</totfact>
</mgrwt>
</event>
<event>
 4    1  0.8641621E-005  0.4517375E+03  0.7818608E-02  0.1027205E+00
         -2   -1    0    0    0  501 -0.00000000000E+00  0.00000000000E+00  0.26500785895E+02  0.26500786018E+02  0.25500000000E-02 0. -1.
          2   -1    0    0  501    0  0.00000000000E+00 -0.00000000000E+00 -0.19251015165E+04  0.19251015165E+04  0.25500000000E-02 0.  1.
    5000001    1    1    2    0    0  0.12323682939E+03 -0.79713646490E+02 -0.74436914165E+03  0.77643544522E+03  0.16500000000E+03 0.  0.
   -5000001    1    1    2    0    0 -0.12323682939E+03  0.79713646490E+02 -0.11542315890E+04  0.11751668573E+04  0.16500000000E+03 0.  0.
<mgrwt>
<rscale>  0 0.45173755E+03</rscale>
<asrwt>0</asrwt>
<pdfrwt beam="1">  1        2 0.29616935E+00 0.45173755E+03</pdfrwt>
<pdfrwt beam="2">  1       -2 0.40770455E-02 0.45173755E+03</pdfrwt>
<totfact> 0.21529624E+03</totfact>
</mgrwt>
</event>
<event>
 4    1  0.8641621E-005  0.7501959E+03  0.7818608E-02  0.9635043E-01
         -2   -1    0    0    0  501 -0.00000000000E+00  0.00000000000E+00  0.13707168074E+03  0.13707168077E+03  0.25500000000E-02 0. -1.
          2   -1    0    0  501    0  0.00000000000E+00 -0.00000000000E+00 -0.10264590042E+04  0.10264590042E+04  0.25500000000E-02 0.  1.
    5000001    1    1    2    0    0 -0.31873794658E+03 -0.48066206597E+02 -0.29297413131E+03  0.46579295876E+03  0.16500000000E+03 0.  0.
   -5000001    1    1    2    0    0  0.31873794658E+03  0.48066206597E+02 -0.59641319212E+03  0.69773772619E+03  0.16500000000E+03 0.  0.
<mgrwt>
<rscale>  0 0.75019587E+03</rscale>
<asrwt>0</asrwt>
<pdfrwt beam="1">  1        2 0.15791676E+00 0.75019587E+03</pdfrwt>
<pdfrwt beam="2">  1       -2 0.21087952E-01 0.75019587E+03</pdfrwt>
<totfact> 0.47379507E+02</totfact>
</mgrwt>
</event>
<event>
 4    1  0.8641621E-005  0.4225659E+03  0.7818608E-02  0.1036234E+00
          2   -1    0    0  501    0  0.00000000000E+00  0.00000000000E+00  0.24155142711E+03  0.24155142712E+03  0.25500000000E-02 0.  1.
         -2   -1    0    0    0  501 -0.00000000000E+00 -0.00000000000E+00 -0.18480737476E+03  0.18480737478E+03  0.25500000000E-02 0. -1.
    5000001    1    1    2    0    0 -0.84795008084E+02  0.51997695493E+02  0.11587723807E+03  0.22482546127E+03  0.16500000000E+03 0.  0.
   -5000001    1    1    2    0    0  0.84795008084E+02 -0.51997695493E+02 -0.59133185728E+02  0.20153334063E+03  0.16500000000E+03 0.  0.
<mgrwt>
<rscale>  0 0.42256590E+03</rscale>
<asrwt>0</asrwt>
<pdfrwt beam="1">  1        2 0.37161758E-01 0.42256590E+03</pdfrwt>
<pdfrwt beam="2">  1       -2 0.28431904E-01 0.42256590E+03</pdfrwt>
<totfact> 0.15733645E+03</totfact>
</mgrwt>
</event>
<event>
 4    1  0.8641621E-005  0.1114325E+04  0.7818608E-02  0.9191341E-01
         -2   -1    0    0    0  501 -0.00000000000E+00  0.00000000000E+00  0.12482093116E+03  0.12482093119E+03  0.25500000000E-02 0. -1.
          2   -1    0    0  501    0  0.00000000000E+00 -0.00000000000E+00 -0.24870041616E+04  0.24870041616E+04  0.25500000000E-02 0.  1.
    5000001    1    1    2    0    0 -0.40235417652E+03 -0.33165746571E+03 -0.93171943487E+03  0.10803757047E+04  0.16500000000E+03 0.  0.
   -5000001    1    1    2    0    0  0.40235417652E+03  0.33165746571E+03 -0.14304637955E+04  0.15314493881E+04  0.16500000000E+03 0.  0.
<mgrwt>
<rscale>  0 0.11143252E+04</rscale>
<asrwt>0</asrwt>
<pdfrwt beam="1">  1        2 0.38261599E+00 0.11143252E+04</pdfrwt>
<pdfrwt beam="2">  1       -2 0.19203222E-01 0.11143252E+04</pdfrwt>
<totfact> 0.81322155E+01</totfact>
</mgrwt>
</event>
<event>
 4    1  0.8641621E-005  0.3834664E+03  0.7818608E-02  0.1049660E+00
          2   -1    0    0  501    0  0.00000000000E+00  0.00000000000E+00  0.11628122795E+04  0.11628122795E+04  0.25500000000E-02 0.  1.
         -2   -1    0    0    0  501 -0.00000000000E+00 -0.00000000000E+00 -0.31614408600E+02  0.31614408703E+02  0.25500000000E-02 0. -1.
    5000001    1    1    2    0    0  0.15243835793E+02 -0.83928709395E+02  0.41751515101E+03  0.45696860298E+03  0.16500000000E+03 0.  0.
   -5000001    1    1    2    0    0 -0.15243835793E+02  0.83928709395E+02  0.71368271994E+03  0.73745808527E+03  0.16500000000E+03 0.  0.
<mgrwt>
<rscale>  0 0.38346641E+03</rscale>
<asrwt>0</asrwt>
<pdfrwt beam="1">  1        2 0.17889418E+00 0.38346641E+03</pdfrwt>
<pdfrwt beam="2">  1       -2 0.48637557E-02 0.38346641E+03</pdfrwt>
<totfact> 0.43036960E+03</totfact>
</mgrwt>
</event>
<event>
 4    1  0.8641621E-005  0.5939278E+03  0.7818608E-02  0.9918085E-01
          2   -1    0    0  501    0  0.00000000000E+00  0.00000000000E+00  0.25290415745E+03  0.25290415746E+03  0.25500000000E-02 0.  1.
         -2   -1    0    0    0  501 -0.00000000000E+00 -0.00000000000E+00 -0.34869957440E+03  0.34869957441E+03  0.25500000000E-02 0. -1.
    5000001    1    1    2    0    0 -0.87027850563E+02 -0.14520089268E+03 -0.22995772152E+03  0.32979190362E+03  0.16500000000E+03 0.  0.
   -5000001    1    1    2    0    0  0.87027850563E+02  0.14520089268E+03  0.13416230457E+03  0.27181182825E+03  0.16500000000E+03 0.  0.
<mgrwt>
<rscale>  0 0.59392785E+03</rscale>
<asrwt>0</asrwt>
<pdfrwt beam="1">  1        2 0.38908332E-01 0.59392785E+03</pdfrwt>
<pdfrwt beam="2">  1       -2 0.53646088E-01 0.59392785E+03</pdfrwt>
<totfact> 0.43891685E+02</totfact>
</mgrwt>
</event>
<event>
 4    1  0.8641621E-005  0.7531658E+03  0.7818608E-02  0.9630397E-01
          2   -1    0    0  501    0  0.00000000000E+00  0.00000000000E+00  0.22563992152E+04  0.22563992152E+04  0.25500000000E-02 0.  1.
         -2   -1    0    0    0  501 -0.00000000000E+00 -0.00000000000E+00 -0.62849988657E+02  0.62849988708E+02  0.25500000000E-02 0. -1.
    5000001    1    1    2    0    0 -0.14685353913E+03  0.29843632690E+03  0.90300978990E+03  0.97636155385E+03  0.16500000000E+03 0.  0.
   -5000001    1    1    2    0    0  0.14685353913E+03 -0.29843632690E+03  0.12905394366E+04  0.13428876500E+04  0.16500000000E+03 0.  0.
<mgrwt>
<rscale>  0 0.75316576E+03</rscale>
<asrwt>0</asrwt>
<pdfrwt beam="1">  1        2 0.34713833E+00 0.75316576E+03</pdfrwt>
<pdfrwt beam="2">  1       -2 0.96692294E-02 0.75316576E+03</pdfrwt>
<totfact> 0.35845339E+02</totfact>
</mgrwt>
</event>
<event>
 4    1  0.8641621E-005  0.8821286E+03  0.7818608E-02  0.9448201E-01
          2   -1    0    0  501    0  0.00000000000E+00  0.00000000000E+00  0.67609969054E+03  0.67609969055E+03  0.25500000000E-02 0.  1.
         -2   -1    0    0    0  501 -0.00000000000E+00 -0.00000000000E+00 -0.28773526170E+03  0.28773526171E+03  0.25500000000E-02 0. -1.
    5000001    1    1    2    0    0  0.30434644622E+03 -0.23278082644E+03  0.35061854458E+03  0.54495140727E+03  0.16500000000E+03 0.  0.
   -5000001    1    1    2    0    0 -0.30434644622E+03  0.23278082644E+03  0.37745884259E+02  0.41888354499E+03  0.16500000000E+03 0.  0.
<mgrwt>
<rscale>  0 0.88212861E+03</rscale>
<asrwt>0</asrwt>
<pdfrwt beam="1">  1        2 0.10401534E+00 0.88212861E+03</pdfrwt>
<pdfrwt beam="2">  1       -2 0.44266964E-01 0.88212861E+03</pdfrwt>
<totfact> 0.20790792E+02</totfact>
</mgrwt>
</event>
<event>
 4    1  0.8641621E-005  0.9201235E+03  0.7818608E-02  0.9400770E-01
         -2   -1    0    0    0  501 -0.00000000000E+00  0.00000000000E+00  0.17676939682E+03  0.17676939684E+03  0.25500000000E-02 0. -1.
          2   -1    0    0  501    0  0.00000000000E+00 -0.00000000000E+00 -0.11973611164E+04  0.11973611164E+04  0.25500000000E-02 0.  1.
    5000001    1    1    2    0    0  0.42019529254E+03 -0.85296656673E+01 -0.64214852377E+03  0.78499462778E+03  0.16500000000E+03 0.  0.
   -5000001    1    1    2    0    0 -0.42019529254E+03  0.85296656673E+01 -0.37844319581E+03  0.58913588545E+03  0.16500000000E+03 0.  0.
<mgrwt>
<rscale>  0 0.92012348E+03</rscale>
<asrwt>0</asrwt>
<pdfrwt beam="1">  1        2 0.18420940E+00 0.92012348E+03</pdfrwt>
<pdfrwt beam="2">  1       -2 0.27195293E-01 0.92012348E+03</pdfrwt>
<totfact> 0.23391621E+02</totfact>
</mgrwt>
</event>
<event>
 4    1  0.8641621E-005  0.4859703E+03  0.7818608E-02  0.1017507E+00
          2   -1    0    0  501    0  0.00000000000E+00  0.00000000000E+00  0.13734684993E+04  0.13734684993E+04  0.25500000000E-02 0.  1.
         -2   -1    0    0    0  501 -0.00000000000E+00 -0.00000000000E+00 -0.42987351783E+02  0.42987351859E+02  0.25500000000E-02 0. -1.
    5000001    1    1    2    0    0  0.14664894761E+03 -0.10152803085E+03  0.66026103461E+03  0.70355062981E+03  0.16500000000E+03 0.  0.
   -5000001    1    1    2    0    0 -0.14664894761E+03  0.10152803085E+03  0.67022011296E+03  0.71290522140E+03  0.16500000000E+03 0.  0.
<mgrwt>
<rscale>  0 0.48597026E+03</rscale>
<asrwt>0</asrwt>
<pdfrwt beam="1">  1        2 0.21130287E+00 0.48597026E+03</pdfrwt>
<pdfrwt beam="2">  1       -2 0.66134380E-02 0.48597026E+03</pdfrwt>
<totfact> 0.20266261E+03</totfact>
</mgrwt>
</event>
<event>
 4    1  0.8641621E-005  0.4587203E+03  0.7818608E-02  0.1025153E+00
         -2   -1    0    0    0  501 -0.00000000000E+00  0.00000000000E+00  0.24702667286E+02  0.24702667417E+02  0.25500000000E-02 0. -1.
          2   -1    0    0  501    0  0.00000000000E+00 -0.00000000000E+00 -0.21295712207E+04  0.21295712207E+04  0.25500000000E-02 0.  1.
    5000001    1    1    2    0    0 -0.13248843131E+03  0.73614112101E+02 -0.82194041099E+03  0.85192914092E+03  0.16500000000E+03 0.  0.
   -5000001    1    1    2    0    0  0.13248843131E+03 -0.73614112101E+02 -0.12829281424E+04  0.13023447472E+04  0.16500000000E+03 0.  0.
<mgrwt>
<rscale>  0 0.45872035E+03</rscale>
<asrwt>0</asrwt>
<pdfrwt beam="1">  1        2 0.32762620E+00 0.45872035E+03</pdfrwt>
<pdfrwt beam="2">  1       -2 0.38004120E-02 0.45872035E+03</pdfrwt>
<totfact> 0.18603055E+03</totfact>
</mgrwt>
</event>
<event>
 4    1  0.8641621E-005  0.3852616E+03  0.7818608E-02  0.1049006E+00
          2   -1    0    0  501    0  0.00000000000E+00  0.00000000000E+00  0.12227820348E+04  0.12227820348E+04  0.25500000000E-02 0. -1.
         -2   -1    0    0    0  501 -0.00000000000E+00 -0.00000000000E+00 -0.30346071755E+02  0.30346071862E+02  0.25500000000E-02 0.  1.
    5000001    1    1    2    0    0 -0.67410124668E+02 -0.72892145921E+02  0.61223273606E+03  0.64180317306E+03  0.16500000000E+03 0.  0.
   -5000001    1    1    2    0    0  0.67410124668E+02  0.72892145921E+02  0.58020322700E+03  0.61132493362E+03  0.16500000000E+03 0.  0.
<mgrwt>
<rscale>  0 0.38526163E+03</rscale>
<asrwt>0</asrwt>
<pdfrwt beam="1">  1        2 0.18812029E+00 0.38526163E+03</pdfrwt>
<pdfrwt beam="2">  1       -2 0.46686269E-02 0.38526163E+03</pdfrwt>
<totfact> 0.42307436E+03</totfact>
</mgrwt>
</event>
<event>
 4    1  0.8641621E-005  0.5428719E+03  0.7818608E-02  0.1003157E+00
          2   -1    0    0  501    0  0.00000000000E+00  0.00000000000E+00  0.25462144076E+04  0.25462144076E+04  0.25500000000E-02 0.  1.
         -2   -1    0    0    0  501 -0.00000000000E+00 -0.00000000000E+00 -0.28936085047E+02  0.28936085160E+02  0.25500000000E-02 0. -1.
    5000001    1    1    2    0    0  0.12730076982E+03 -0.11391137266E+03  0.63523976515E+03  0.67818570174E+03  0.16500000000E+03 0.  0.
   -5000001    1    1    2    0    0 -0.12730076982E+03  0.11391137266E+03  0.18820385574E+04  0.18969647910E+04  0.16500000000E+03 0.  0.
<mgrwt>
<rscale>  0 0.54287191E+03</rscale>
<asrwt>0</asrwt>
<pdfrwt beam="1">  1        2 0.39172550E+00 0.54287191E+03</pdfrwt>
<pdfrwt beam="2">  1       -2 0.44517030E-02 0.54287191E+03</pdfrwt>
<totfact> 0.85531519E+02</totfact>
</mgrwt>
</event>
<event>
 4    1  0.8641621E-005  0.5627233E+03  0.7818608E-02  0.9985911E-01
         -2   -1    0    0    0  501 -0.00000000000E+00  0.00000000000E+00  0.11259400141E+03  0.11259400144E+03  0.25500000000E-02 0. -1.
          2   -1    0    0  501    0  0.00000000000E+00 -0.00000000000E+00 -0.70309587283E+03  0.70309587283E+03  0.25500000000E-02 0.  1.
    5000001    1    1    2    0    0  0.11248798295E+03 -0.19820045727E+03 -0.29750129273E+03  0.40947403672E+03  0.16500000000E+03 0.  0.
   -5000001    1    1    2    0    0 -0.11248798295E+03  0.19820045727E+03 -0.29300057869E+03  0.40621583755E+03  0.16500000000E+03 0.  0.
<mgrwt>
<rscale>  0 0.56272330E+03</rscale>
<asrwt>0</asrwt>
<pdfrwt beam="1">  1        2 0.10816859E+00 0.56272330E+03</pdfrwt>
<pdfrwt beam="2">  1       -2 0.17322154E-01 0.56272330E+03</pdfrwt>
<totfact> 0.11205473E+03</totfact>
</mgrwt>
</event>
<event>
 4    1  0.8641621E-005  0.7146104E+03  0.7818608E-02  0.9692568E-01
         -2   -1    0    0    0  501 -0.00000000000E+00  0.00000000000E+00  0.38873645983E+03  0.38873645984E+03  0.25500000000E-02 0. -1.
          2   -1    0    0  501    0  0.00000000000E+00 -0.00000000000E+00 -0.32841530084E+03  0.32841530085E+03  0.25500000000E-02 0.  1.
    5000001    1    1    2    0    0 -0.16931915031E+03  0.25735427906E+03 -0.44547442652E+02  0.35229202980E+03  0.16500000000E+03 0.  0.
   -5000001    1    1    2    0    0  0.16931915031E+03 -0.25735427906E+03  0.10486860165E+03  0.36485973089E+03  0.16500000000E+03 0.  0.
<mgrwt>
<rscale>  0 0.71461039E+03</rscale>
<asrwt>0</asrwt>
<pdfrwt beam="1">  1        2 0.50525431E-01 0.71461039E+03</pdfrwt>
<pdfrwt beam="2">  1       -2 0.59805609E-01 0.71461039E+03</pdfrwt>
<totfact> 0.26125712E+02</totfact>
</mgrwt>
</event>
<event>
 4    1  0.8641621E-005  0.3747279E+03  0.7818608E-02  0.1052900E+00
         -2   -1    0    0    0  501 -0.00000000000E+00  0.00000000000E+00  0.64646515538E+03  0.64646515539E+03  0.25500000000E-02 0. -1.
          2   -1    0    0  501    0  0.00000000000E+00 -0.00000000000E+00 -0.54303401667E+02  0.54303401727E+02  0.25500000000E-02 0.  1.
    5000001    1    1    2    0    0 -0.87352536680E+02 -0.24521034017E+01  0.32527908984E+03  0.37505728197E+03  0.16500000000E+03 0.  0.
   -5000001    1    1    2    0    0  0.87352536680E+02  0.24521034017E+01  0.26688266388E+03  0.32571127514E+03  0.16500000000E+03 0.  0.
<mgrwt>
<rscale>  0 0.37472794E+03</rscale>
<asrwt>0</asrwt>
<pdfrwt beam="1">  1        2 0.83543689E-02 0.37472794E+03</pdfrwt>
<pdfrwt beam="2">  1       -2 0.99456185E-01 0.37472794E+03</pdfrwt>
<totfact> 0.70295382E+02</totfact>
</mgrwt>
</event>
<event>
 4    1  0.8641621E-005  0.5218428E+03  0.7818608E-02  0.1008230E+00
         -2   -1    0    0    0  501 -0.00000000000E+00  0.00000000000E+00  0.69527835621E+03  0.69527835622E+03  0.25500000000E-02 0. -1.
          2   -1    0    0  501    0  0.00000000000E+00 -0.00000000000E+00 -0.97917583102E+02  0.97917583135E+02  0.25500000000E-02 0.  1.
    5000001    1    1    2    0    0 -0.12033663344E+03 -0.15640972722E+03  0.36511053409E+03  0.44662692509E+03  0.16500000000E+03 0.  0.
   -5000001    1    1    2    0    0  0.12033663344E+03  0.15640972722E+03  0.23225023902E+03  0.34656901426E+03  0.16500000000E+03 0.  0.
<mgrwt>
<rscale>  0 0.52184280E+03</rscale>
<asrwt>0</asrwt>
<pdfrwt beam="1">  1        2 0.15064243E-01 0.52184280E+03</pdfrwt>
<pdfrwt beam="2">  1       -2 0.10696590E+00 0.52184280E+03</pdfrwt>
<totfact> 0.28397542E+02</totfact>
</mgrwt>
</event>
<event>
 4    1  0.8641621E-005  0.5421649E+03  0.7818608E-02  0.1003324E+00
         -2   -1    0    0    0  501 -0.00000000000E+00  0.00000000000E+00  0.11944138757E+03  0.11944138759E+03  0.25500000000E-02 0. -1.
          2   -1    0    0  501    0  0.00000000000E+00 -0.00000000000E+00 -0.61524476401E+03  0.61524476401E+03  0.25500000000E-02 0.  1.
    5000001    1    1    2    0    0  0.26688930022E+02 -0.20405606498E+03 -0.16317275622E+03  0.31016370679E+03  0.16500000000E+03 0.  0.
   -5000001    1    1    2    0    0 -0.26688930022E+02  0.20405606498E+03 -0.33263062022E+03  0.42452244481E+03  0.16500000000E+03 0.  0.
<mgrwt>
<rscale>  0 0.54216488E+03</rscale>
<asrwt>0</asrwt>
<pdfrwt beam="1">  1        2 0.94653039E-01 0.54216488E+03</pdfrwt>
<pdfrwt beam="2">  1       -2 0.18375598E-01 0.54216488E+03</pdfrwt>
<totfact> 0.11929801E+03</totfact>
</mgrwt>
</event>
<event>
 4    1  0.8641621E-005  0.4456312E+03  0.7818608E-02  0.1029033E+00
         -2   -1    0    0    0  501 -0.00000000000E+00  0.00000000000E+00  0.21211117844E+02  0.21211117997E+02  0.25500000000E-02 0. -1.
          2   -1    0    0  501    0  0.00000000000E+00 -0.00000000000E+00 -0.23406023469E+04  0.23406023469E+04  0.25500000000E-02 0.  1.
    5000001    1    1    2    0    0 -0.53324743354E+02 -0.10896641211E+03 -0.16249008904E+04  0.16377561207E+04  0.16500000000E+03 0.  0.
   -5000001    1    1    2    0    0  0.53324743354E+02  0.10896641211E+03 -0.69449033864E+03  0.72405734420E+03  0.16500000000E+03 0.  0.
<mgrwt>
<rscale>  0 0.44563120E+03</rscale>
<asrwt>0</asrwt>
<pdfrwt beam="1">  1        2 0.36009246E+00 0.44563120E+03</pdfrwt>
<pdfrwt beam="2">  1       -2 0.32632508E-02 0.44563120E+03</pdfrwt>
<totfact> 0.18019928E+03</totfact>
</mgrwt>
</event>
<event>
 4    1  0.8641621E-005  0.4133080E+03  0.7818608E-02  0.1039267E+00
         -2   -1    0    0    0  501 -0.00000000000E+00  0.00000000000E+00  0.59456972109E+02  0.59456972164E+02  0.25500000000E-02 0. -1.
          2   -1    0    0  501    0  0.00000000000E+00 -0.00000000000E+00 -0.71826518461E+03  0.71826518462E+03  0.25500000000E-02 0.  1.
    5000001    1    1    2    0    0 -0.41168745613E+02  0.11650579936E+03 -0.30197988906E+03  0.36563003199E+03  0.16500000000E+03 0.  0.
   -5000001    1    1    2    0    0  0.41168745613E+02 -0.11650579936E+03 -0.35682832344E+03  0.41209212479E+03  0.16500000000E+03 0.  0.
<mgrwt>
<rscale>  0 0.41330799E+03</rscale>
<asrwt>0</asrwt>
<pdfrwt beam="1">  1        2 0.11050233E+00 0.41330799E+03</pdfrwt>
<pdfrwt beam="2">  1       -2 0.91472270E-02 0.41330799E+03</pdfrwt>
<totfact> 0.31251702E+03</totfact>
</mgrwt>
</event>
<event>
 4    1  0.8641621E-005  0.4789542E+03  0.7818608E-02  0.1019423E+00
         -2   -1    0    0    0  501 -0.00000000000E+00  0.00000000000E+00  0.31874958044E+02  0.31874958146E+02  0.25500000000E-02 0. -1.
          2   -1    0    0  501    0  0.00000000000E+00 -0.00000000000E+00 -0.17991952304E+04  0.17991952305E+04  0.25500000000E-02 0.  1.
    5000001    1    1    2    0    0 -0.93170091815E+02 -0.81969518280E+02 -0.13475692033E+04  0.13632928613E+04  0.16500000000E+03 0.  0.
   -5000001    1    1    2    0    0  0.93170091815E+02  0.81969518280E+02 -0.41975106909E+03  0.46777732730E+03  0.16500000000E+03 0.  0.
<mgrwt>
<rscale>  0 0.47895416E+03</rscale>
<asrwt>0</asrwt>
<pdfrwt beam="1">  1        2 0.27679919E+00 0.47895416E+03</pdfrwt>
<pdfrwt beam="2">  1       -2 0.49038411E-02 0.47895416E+03</pdfrwt>
<totfact> 0.18919601E+03</totfact>
</mgrwt>
</event>
<event>
 4    1  0.8641621E-005  0.7330085E+03  0.7818608E-02  0.9662391E-01
         -2   -1    0    0    0  501 -0.00000000000E+00  0.00000000000E+00  0.61933852694E+02  0.61933852747E+02  0.25500000000E-02 0. -1.
          2   -1    0    0  501    0  0.00000000000E+00 -0.00000000000E+00 -0.21688523692E+04  0.21688523692E+04  0.25500000000E-02 0.  1.
    5000001    1    1    2    0    0  0.82802605763E+02 -0.24649109068E+03 -0.44871482319E+03  0.54422800540E+03  0.16500000000E+03 0.  0.
   -5000001    1    1    2    0    0 -0.82802605763E+02  0.24649109068E+03 -0.16582036933E+04  0.16865582166E+04  0.16500000000E+03 0.  0.
<mgrwt>
<rscale>  0 0.73300855E+03</rscale>
<asrwt>0</asrwt>
<pdfrwt beam="1">  1        2 0.33366954E+00 0.73300855E+03</pdfrwt>
<pdfrwt beam="2">  1       -2 0.95282867E-02 0.73300855E+03</pdfrwt>
<totfact> 0.41092532E+02</totfact>
</mgrwt>
</event>
<event>
 4    1  0.8641621E-005  0.4963761E+03  0.7818608E-02  0.1014729E+00
         -2   -1    0    0    0  501 -0.00000000000E+00  0.00000000000E+00  0.15694325572E+03  0.15694325574E+03  0.25500000000E-02 0. -1.
          2   -1    0    0  501    0  0.00000000000E+00 -0.00000000000E+00 -0.39248142140E+03  0.39248142141E+03  0.25500000000E-02 0.  1.
    5000001    1    1    2    0    0 -0.17374877696E+03  0.53547965139E+02 -0.77610989885E+02  0.25749657826E+03  0.16500000000E+03 0.  0.
   -5000001    1    1    2    0    0  0.17374877696E+03 -0.53547965139E+02 -0.15792717580E+03  0.29192809889E+03  0.16500000000E+03 0.  0.
<mgrwt>
<rscale>  0 0.49637612E+03</rscale>
<asrwt>0</asrwt>
<pdfrwt beam="1">  1        2 0.60381757E-01 0.49637612E+03</pdfrwt>
<pdfrwt beam="2">  1       -2 0.24145116E-01 0.49637612E+03</pdfrwt>
<totfact> 0.12396547E+03</totfact>
</mgrwt>
</event>
<event>
 4    1  0.8641621E-005  0.4524502E+03  0.7818608E-02  0.1026994E+00
          2   -1    0    0  501    0  0.00000000000E+00  0.00000000000E+00  0.47259549981E+03  0.47259549982E+03  0.25500000000E-02 0.  1.
         -2   -1    0    0    0  501 -0.00000000000E+00 -0.00000000000E+00 -0.10829091597E+03  0.10829091600E+03  0.25500000000E-02 0. -1.
    5000001    1    1    2    0    0 -0.87720815188E+02  0.71109799685E+02  0.31803173353E+03  0.37566038993E+03  0.16500000000E+03 0.  0.
   -5000001    1    1    2    0    0  0.87720815188E+02 -0.71109799685E+02  0.46272850314E+02  0.20522602590E+03  0.16500000000E+03 0.  0.
<mgrwt>
<rscale>  0 0.45245022E+03</rscale>
<asrwt>0</asrwt>
<pdfrwt beam="1">  1        2 0.72707000E-01 0.45245022E+03</pdfrwt>
<pdfrwt beam="2">  1       -2 0.16660141E-01 0.45245022E+03</pdfrwt>
<totfact> 0.19161189E+03</totfact>
</mgrwt>
</event>
<event>
 4    1  0.8641621E-005  0.4321137E+03  0.7818608E-02  0.1033194E+00
         -2   -1    0    0    0  501 -0.00000000000E+00  0.00000000000E+00  0.71005624400E+02  0.71005624445E+02  0.25500000000E-02 0. -1.
          2   -1    0    0  501    0  0.00000000000E+00 -0.00000000000E+00 -0.65742057342E+03  0.65742057342E+03  0.25500000000E-02 0.  1.
    5000001    1    1    2    0    0  0.10307826363E+03 -0.93190534430E+02 -0.27284193977E+03  0.34781795273E+03  0.16500000000E+03 0.  0.
   -5000001    1    1    2    0    0 -0.10307826363E+03  0.93190534430E+02 -0.31357300925E+03  0.38060824514E+03  0.16500000000E+03 0.  0.
<mgrwt>
<rscale>  0 0.43211368E+03</rscale>
<asrwt>0</asrwt>
<pdfrwt beam="1">  1        2 0.10114162E+00 0.43211368E+03</pdfrwt>
<pdfrwt beam="2">  1       -2 0.10923943E-01 0.43211368E+03</pdfrwt>
<totfact> 0.26200955E+03</totfact>
</mgrwt>
</event>
<event>
 4    1  0.8641621E-005  0.6610065E+03  0.7818608E-02  0.9786343E-01
          2   -1    0    0  501    0  0.00000000000E+00  0.00000000000E+00  0.33603709345E+04  0.33603709345E+04  0.25500000000E-02 0.  1.
         -2   -1    0    0    0  501 -0.00000000000E+00 -0.00000000000E+00 -0.32506048822E+02  0.32506048922E+02  0.25500000000E-02 0. -1.
    5000001    1    1    2    0    0  0.18392357613E+03 -0.39147454163E+02  0.27725306381E+04  0.27837944508E+04  0.16500000000E+03 0.  0.
   -5000001    1    1    2    0    0 -0.18392357613E+03  0.39147454163E+02  0.55533424753E+03  0.60908253259E+03  0.16500000000E+03 0.  0.
<mgrwt>
<rscale>  0 0.66100645E+03</rscale>
<asrwt>0</asrwt>
<pdfrwt beam="1">  1        2 0.51697969E+00 0.66100645E+03</pdfrwt>
<pdfrwt beam="2">  1       -2 0.50009350E-02 0.66100645E+03</pdfrwt>
<totfact> 0.22662593E+02</totfact>
</mgrwt>
</event>
<event>
 4    1  0.8641621E-005  0.4623583E+03  0.7818608E-02  0.1024099E+00
          2   -1    0    0  501    0  0.00000000000E+00  0.00000000000E+00  0.18132295192E+03  0.18132295193E+03  0.25500000000E-02 0.  1.
         -2   -1    0    0    0  501 -0.00000000000E+00 -0.00000000000E+00 -0.29474365426E+03  0.29474365427E+03  0.25500000000E-02 0. -1.
    5000001    1    1    2    0    0  0.68133406197E+02 -0.26089352974E+02  0.92129905887E+02  0.20257278923E+03  0.16500000000E+03 0.  0.
   -5000001    1    1    2    0    0 -0.68133406197E+02  0.26089352974E+02 -0.20555060823E+03  0.27349381697E+03  0.16500000000E+03 0.  0.
<mgrwt>
<rscale>  0 0.46235826E+03</rscale>
<asrwt>0</asrwt>
<pdfrwt beam="1">  1        2 0.27895839E-01 0.46235826E+03</pdfrwt>
<pdfrwt beam="2">  1       -2 0.45345178E-01 0.46235826E+03</pdfrwt>
<totfact> 0.89356815E+02</totfact>
</mgrwt>
</event>
<event>
 4    1  0.8641621E-005  0.7436667E+03  0.7818608E-02  0.9645339E-01
         -2   -1    0    0    0  501 -0.00000000000E+00  0.00000000000E+00  0.12983505590E+03  0.12983505593E+03  0.25500000000E-02 0. -1.
          2   -1    0    0  501    0  0.00000000000E+00 -0.00000000000E+00 -0.10648899492E+04  0.10648899493E+04  0.25500000000E-02 0.  1.
    5000001    1    1    2    0    0  0.14349177261E+03 -0.16053667502E+03 -0.58971477484E+02  0.27760502155E+03  0.16500000000E+03 0.  0.
   -5000001    1    1    2    0    0 -0.14349177261E+03  0.16053667502E+03 -0.87608341586E+03  0.91711998363E+03  0.16500000000E+03 0.  0.
<mgrwt>
<rscale>  0 0.74366672E+03</rscale>
<asrwt>0</asrwt>
<pdfrwt beam="1">  1        2 0.16382922E+00 0.74366672E+03</pdfrwt>
<pdfrwt beam="2">  1       -2 0.19974625E-01 0.74366672E+03</pdfrwt>
<totfact> 0.49322640E+02</totfact>
</mgrwt>
</event>
<event>
 4    1  0.8641621E-005  0.5661562E+03  0.7818608E-02  0.9978221E-01
          2   -1    0    0  501    0  0.00000000000E+00  0.00000000000E+00  0.23733307978E+04  0.23733307979E+04  0.25500000000E-02 0.  1.
         -2   -1    0    0    0  501 -0.00000000000E+00 -0.00000000000E+00 -0.33764026166E+02  0.33764026263E+02  0.25500000000E-02 0. -1.
    5000001    1    1    2    0    0 -0.20409784431E+03  0.68615813153E+02  0.82584285630E+03  0.86925570643E+03  0.16500000000E+03 0.  0.
   -5000001    1    1    2    0    0  0.20409784431E+03 -0.68615813153E+02  0.15137239154E+04  0.15378391177E+04  0.16500000000E+03 0.  0.
<mgrwt>
<rscale>  0 0.56615617E+03</rscale>
<asrwt>0</asrwt>
<pdfrwt beam="1">  1        2 0.36512779E+00 0.56615617E+03</pdfrwt>
<pdfrwt beam="2">  1       -2 0.51944659E-02 0.56615617E+03</pdfrwt>
<totfact> 0.84004091E+02</totfact>
</mgrwt>
</event>
<event>
 4    1  0.8641621E-005  0.1016100E+04  0.7818608E-02  0.9291061E-01
         -2   -1    0    0    0  501 -0.00000000000E+00  0.00000000000E+00  0.89678053911E+02  0.89678053947E+02  0.25500000000E-02 0. -1.
          2   -1    0    0  501    0  0.00000000000E+00 -0.00000000000E+00 -0.28782364398E+04  0.28782364398E+04  0.25500000000E-02 0.  1.
    5000001    1    1    2    0    0 -0.32117533184E+02 -0.33374647980E+03 -0.23996396904E+04  0.24285621039E+04  0.16500000000E+03 0.  0.
   -5000001    1    1    2    0    0  0.32117533184E+02  0.33374647980E+03 -0.38891869541E+03  0.53935238977E+03  0.16500000000E+03 0.  0.
<mgrwt>
<rscale>  0 0.10160997E+04</rscale>
<asrwt>0</asrwt>
<pdfrwt beam="1">  1        2 0.44280554E+00 0.10160997E+04</pdfrwt>
<pdfrwt beam="2">  1       -2 0.13796626E-01 0.10160997E+04</pdfrwt>
<totfact> 0.85277669E+01</totfact>
</mgrwt>
</event>
<event>
 4    1  0.8641621E-005  0.5993170E+03  0.7818608E-02  0.9906824E-01
         -2   -1    0    0    0  501 -0.00000000000E+00  0.00000000000E+00  0.50138882091E+03  0.50138882092E+03  0.25500000000E-02 0. -1.
          2   -1    0    0  501    0  0.00000000000E+00 -0.00000000000E+00 -0.17909295669E+03  0.17909295671E+03  0.25500000000E-02 0.  1.
    5000001    1    1    2    0    0  0.40346848762E+02  0.21084452374E+03  0.15357253029E+02  0.27119020376E+03  0.16500000000E+03 0.  0.
   -5000001    1    1    2    0    0 -0.40346848762E+02 -0.21084452374E+03  0.30693861120E+03  0.40929157387E+03  0.16500000000E+03 0.  0.
<mgrwt>
<rscale>  0 0.59931697E+03</rscale>
<asrwt>0</asrwt>
<pdfrwt beam="1">  1        2 0.27552763E-01 0.59931697E+03</pdfrwt>
<pdfrwt beam="2">  1       -2 0.77136741E-01 0.59931697E+03</pdfrwt>
<totfact> 0.29724818E+02</totfact>
</mgrwt>
</event>
<event>
 4    1  0.8641621E-005  0.5593521E+03  0.7818608E-02  0.9993522E-01
         -2   -1    0    0    0  501 -0.00000000000E+00  0.00000000000E+00  0.57587514327E+02  0.57587514384E+02  0.25500000000E-02 0. -1.
          2   -1    0    0  501    0  0.00000000000E+00 -0.00000000000E+00 -0.13582579662E+04  0.13582579662E+04  0.25500000000E-02 0.  1.
    5000001    1    1    2    0    0 -0.17711043590E+03  0.12086303940E+03 -0.82963665403E+03  0.87263850391E+03  0.16500000000E+03 0.  0.
   -5000001    1    1    2    0    0  0.17711043590E+03 -0.12086303940E+03 -0.47103379785E+03  0.54320697668E+03  0.16500000000E+03 0.  0.
<mgrwt>
<rscale>  0 0.55935213E+03</rscale>
<asrwt>0</asrwt>
<pdfrwt beam="1">  1        2 0.20896274E+00 0.55935213E+03</pdfrwt>
<pdfrwt beam="2">  1       -2 0.88596186E-02 0.55935213E+03</pdfrwt>
<totfact> 0.12973348E+03</totfact>
</mgrwt>
</event>
<event>
 4    1  0.8641621E-005  0.6604622E+03  0.7818608E-02  0.9787343E-01
          2   -1    0    0  501    0  0.00000000000E+00  0.00000000000E+00  0.23097334174E+04  0.23097334174E+04  0.25500000000E-02 0.  1.
         -2   -1    0    0    0  501 -0.00000000000E+00 -0.00000000000E+00 -0.47214353124E+02  0.47214353193E+02  0.25500000000E-02 0. -1.
    5000001    1    1    2    0    0  0.23886476518E+03  0.12008920765E+03  0.76820866740E+03  0.82996828283E+03  0.16500000000E+03 0.  0.
   -5000001    1    1    2    0    0 -0.23886476518E+03 -0.12008920765E+03  0.14943103968E+04  0.15269794877E+04  0.16500000000E+03 0.  0.
<mgrwt>
<rscale>  0 0.66046217E+03</rscale>
<asrwt>0</asrwt>
<pdfrwt beam="1">  1        2 0.35534359E+00 0.66046217E+03</pdfrwt>
<pdfrwt beam="2">  1       -2 0.72637470E-02 0.66046217E+03</pdfrwt>
<totfact> 0.53409921E+02</totfact>
</mgrwt>
</event>
<event>
 4    1  0.8641621E-005  0.1084435E+04  0.7818608E-02  0.9220497E-01
         -2   -1    0    0    0  501 -0.00000000000E+00  0.00000000000E+00  0.34233034709E+03  0.34233034710E+03  0.25500000000E-02 0. -1.
          2   -1    0    0  501    0  0.00000000000E+00 -0.00000000000E+00 -0.85881868985E+03  0.85881868985E+03  0.25500000000E-02 0.  1.
    5000001    1    1    2    0    0  0.23364069105E+03  0.24799515338E+03  0.17171642720E+03  0.41569351689E+03  0.16500000000E+03 0.  0.
   -5000001    1    1    2    0    0 -0.23364069105E+03 -0.24799515338E+03 -0.68820476995E+03  0.78545552006E+03  0.16500000000E+03 0.  0.
<mgrwt>
<rscale>  0 0.10844348E+04</rscale>
<asrwt>0</asrwt>
<pdfrwt beam="1">  1        2 0.13212595E+00 0.10844348E+04</pdfrwt>
<pdfrwt beam="2">  1       -2 0.52666208E-01 0.10844348E+04</pdfrwt>
<totfact> 0.10577855E+02</totfact>
</mgrwt>
</event>
<event>
 4    1  0.8641621E-005  0.7661529E+03  0.7818608E-02  0.9610344E-01
          2   -1    0    0  501    0  0.00000000000E+00  0.00000000000E+00  0.14795372201E+04  0.14795372201E+04  0.25500000000E-02 0.  1.
         -2   -1    0    0    0  501 -0.00000000000E+00 -0.00000000000E+00 -0.99184773869E+02  0.99184773901E+02  0.25500000000E-02 0. -1.
    5000001    1    1    2    0    0  0.31617163903E+03 -0.11063778004E+03  0.51391090961E+03  0.63524376952E+03  0.16500000000E+03 0.  0.
   -5000001    1    1    2    0    0 -0.31617163903E+03  0.11063778004E+03  0.86644153667E+03  0.94347822453E+03  0.16500000000E+03 0.  0.
<mgrwt>
<rscale>  0 0.76615290E+03</rscale>
<asrwt>0</asrwt>
<pdfrwt beam="1">  1        2 0.22762110E+00 0.76615290E+03</pdfrwt>
<pdfrwt beam="2">  1       -2 0.15259197E-01 0.76615290E+03</pdfrwt>
<totfact> 0.44865335E+02</totfact>
</mgrwt>
</event>
<event>
 4    1  0.8641621E-005  0.4105306E+03  0.7818608E-02  0.1040193E+00
          2   -1    0    0  501    0  0.00000000000E+00  0.00000000000E+00  0.24036128949E+03  0.24036128950E+03  0.25500000000E-02 0.  1.
         -2   -1    0    0    0  501 -0.00000000000E+00 -0.00000000000E+00 -0.17529380510E+03  0.17529380512E+03  0.25500000000E-02 0. -1.
    5000001    1    1    2    0    0  0.11876111828E+02  0.10072233126E+03 -0.36306251522E+02  0.19705119626E+03  0.16500000000E+03 0.  0.
   -5000001    1    1    2    0    0 -0.11876111828E+02 -0.10072233126E+03  0.10137373591E+03  0.21860389836E+03  0.16500000000E+03 0.  0.
<mgrwt>
<rscale>  0 0.41053061E+03</rscale>
<asrwt>0</asrwt>
<pdfrwt beam="1">  1        2 0.36978660E-01 0.41053061E+03</pdfrwt>
<pdfrwt beam="2">  1       -2 0.26968278E-01 0.41053061E+03</pdfrwt>
<totfact> 0.17403357E+03</totfact>
</mgrwt>
</event>
<event>
 4    1  0.8641621E-005  0.1571638E+04  0.7818608E-02  0.8838164E-01
         -2   -1    0    0    0  501 -0.00000000000E+00  0.00000000000E+00  0.54477333070E+03  0.54477333070E+03  0.25500000000E-02 0. -1.
          2   -1    0    0  501    0  0.00000000000E+00 -0.00000000000E+00 -0.11335199153E+04  0.11335199153E+04  0.25500000000E-02 0.  1.
    5000001    1    1    2    0    0  0.41041192827E+03  0.64943362630E+03 -0.28456093023E+03  0.83570443869E+03  0.16500000000E+03 0.  0.
   -5000001    1    1    2    0    0 -0.41041192827E+03 -0.64943362630E+03 -0.30418565433E+03  0.84258880727E+03  0.16500000000E+03 0.  0.
<mgrwt>
<rscale>  0 0.15716379E+04</rscale>
<asrwt>0</asrwt>
<pdfrwt beam="1">  1        2 0.17438768E+00 0.15716379E+04</pdfrwt>
<pdfrwt beam="2">  1       -2 0.83811282E-01 0.15716379E+04</pdfrwt>
<totfact> 0.24846381E+01</totfact>
</mgrwt>
</event>
<event>
 4    1  0.8641621E-005  0.5256828E+03  0.7818608E-02  0.1007285E+00
          2   -1    0    0  501    0  0.00000000000E+00  0.00000000000E+00  0.19019373859E+04  0.19019373859E+04  0.25500000000E-02 0.  1.
         -2   -1    0    0    0  501 -0.00000000000E+00 -0.00000000000E+00 -0.36323810977E+02  0.36323811067E+02  0.25500000000E-02 0. -1.
    5000001    1    1    2    0    0 -0.16995330809E+03 -0.71642913165E+02  0.12593579267E+04  0.12834423328E+04  0.16500000000E+03 0.  0.
   -5000001    1    1    2    0    0  0.16995330809E+03  0.71642913165E+02  0.60625564819E+03  0.65481886420E+03  0.16500000000E+03 0.  0.
<mgrwt>
<rscale>  0 0.52568285E+03</rscale>
<asrwt>0</asrwt>
<pdfrwt beam="1">  1        2 0.29260588E+00 0.52568285E+03</pdfrwt>
<pdfrwt beam="2">  1       -2 0.55882763E-02 0.52568285E+03</pdfrwt>
<totfact> 0.13576492E+03</totfact>
</mgrwt>
</event>
<event>
 4    1  0.8641621E-005  0.4637486E+03  0.7818608E-02  0.1023700E+00
         -2   -1    0    0    0  501 -0.00000000000E+00  0.00000000000E+00  0.17335576447E+03  0.17335576449E+03  0.25500000000E-02 0. -1.
          2   -1    0    0  501    0  0.00000000000E+00 -0.00000000000E+00 -0.31014649983E+03  0.31014649984E+03  0.25500000000E-02 0.  1.
    5000001    1    1    2    0    0  0.29784251405E+02 -0.15933879698E+03 -0.85358938993E+02  0.24655040523E+03  0.16500000000E+03 0.  0.
   -5000001    1    1    2    0    0 -0.29784251405E+02  0.15933879698E+03 -0.51431796365E+02  0.23695185910E+03  0.16500000000E+03 0.  0.
<mgrwt>
<rscale>  0 0.46374857E+03</rscale>
<asrwt>0</asrwt>
<pdfrwt beam="1">  1        2 0.47714846E-01 0.46374857E+03</pdfrwt>
<pdfrwt beam="2">  1       -2 0.26670118E-01 0.46374857E+03</pdfrwt>
<totfact> 0.13442444E+03</totfact>
</mgrwt>
</event>
<event>
 4    1  0.8641621E-005  0.4607014E+03  0.7818608E-02  0.1024578E+00
          2   -1    0    0  501    0  0.00000000000E+00  0.00000000000E+00  0.84205158796E+03  0.84205158797E+03  0.25500000000E-02 0.  1.
         -2   -1    0    0    0  501 -0.00000000000E+00 -0.00000000000E+00 -0.63014474038E+02  0.63014474089E+02  0.25500000000E-02 0. -1.
    5000001    1    1    2    0    0 -0.71736193654E+02 -0.10039166219E+03  0.59189350510E+03  0.62672760327E+03  0.16500000000E+03 0.  0.
   -5000001    1    1    2    0    0  0.71736193654E+02  0.10039166219E+03  0.18714360882E+03  0.27833845878E+03  0.16500000000E+03 0.  0.
<mgrwt>
<rscale>  0 0.46070137E+03</rscale>
<asrwt>0</asrwt>
<pdfrwt beam="1">  1        2 0.12954639E+00 0.46070137E+03</pdfrwt>
<pdfrwt beam="2">  1       -2 0.96945348E-02 0.46070137E+03</pdfrwt>
<totfact> 0.23224883E+03</totfact>
</mgrwt>
</event>
<event>
 4    1  0.8641621E-005  0.7339254E+03  0.7818608E-02  0.9660912E-01
          2   -1    0    0  501    0  0.00000000000E+00  0.00000000000E+00  0.79596725927E+03  0.79596725927E+03  0.25500000000E-02 0.  1.
         -2   -1    0    0    0  501 -0.00000000000E+00 -0.00000000000E+00 -0.16917986264E+03  0.16917986266E+03  0.25500000000E-02 0. -1.
    5000001    1    1    2    0    0  0.29355964759E+03 -0.11455767762E+03  0.43201002755E+03  0.55960556833E+03  0.16500000000E+03 0.  0.
   -5000001    1    1    2    0    0 -0.29355964759E+03  0.11455767762E+03  0.19477736908E+03  0.40554155360E+03  0.16500000000E+03 0.  0.
<mgrwt>
<rscale>  0 0.73392542E+03</rscale>
<asrwt>0</asrwt>
<pdfrwt beam="1">  1        2 0.12245650E+00 0.73392542E+03</pdfrwt>
<pdfrwt beam="2">  1       -2 0.26027671E-01 0.73392542E+03</pdfrwt>
<totfact> 0.46458502E+02</totfact>
</mgrwt>
</event>
<event>
 4    1  0.8641621E-005  0.4785954E+03  0.7818608E-02  0.1019522E+00
          2   -1    0    0  501    0  0.00000000000E+00  0.00000000000E+00  0.56641770172E+03  0.56641770172E+03  0.25500000000E-02 0.  1.
         -2   -1    0    0    0  501 -0.00000000000E+00 -0.00000000000E+00 -0.10109745398E+03  0.10109745402E+03  0.25500000000E-02 0. -1.
    5000001    1    1    2    0    0 -0.11745726937E+03 -0.52777020615E+02  0.70865932019E+02  0.22097195377E+03  0.16500000000E+03 0.  0.
   -5000001    1    1    2    0    0  0.11745726937E+03  0.52777020615E+02  0.39445431571E+03  0.44654320196E+03  0.16500000000E+03 0.  0.
<mgrwt>
<rscale>  0 0.47859539E+03</rscale>
<asrwt>0</asrwt>
<pdfrwt beam="1">  1        2 0.87141185E-01 0.47859539E+03</pdfrwt>
<pdfrwt beam="2">  1       -2 0.15553454E-01 0.47859539E+03</pdfrwt>
<totfact> 0.17476737E+03</totfact>
</mgrwt>
</event>
<event>
 4    1  0.8641621E-005  0.4409649E+03  0.7818608E-02  0.1030451E+00
         -2   -1    0    0    0  501 -0.00000000000E+00  0.00000000000E+00  0.47690592399E+02  0.47690592467E+02  0.25500000000E-02 0. -1.
          2   -1    0    0  501    0  0.00000000000E+00 -0.00000000000E+00 -0.10193310857E+04  0.10193310857E+04  0.25500000000E-02 0.  1.
    5000001    1    1    2    0    0  0.98949389461E+02  0.10753897856E+03 -0.47215570615E+03  0.52106777335E+03  0.16500000000E+03 0.  0.
   -5000001    1    1    2    0    0 -0.98949389461E+02 -0.10753897856E+03 -0.49948478716E+03  0.54595390482E+03  0.16500000000E+03 0.  0.
<mgrwt>
<rscale>  0 0.44096487E+03</rscale>
<asrwt>0</asrwt>
<pdfrwt beam="1">  1        2 0.15682015E+00 0.44096487E+03</pdfrwt>
<pdfrwt beam="2">  1       -2 0.73370150E-02 0.44096487E+03</pdfrwt>
<totfact> 0.27740192E+03</totfact>
</mgrwt>
</event>
<event>
 4    1  0.8641621E-005  0.3461883E+03  0.7818608E-02  0.1064190E+00
         -2   -1    0    0    0  501 -0.00000000000E+00  0.00000000000E+00  0.30066149643E+02  0.30066149751E+02  0.25500000000E-02 0. -1.
          2   -1    0    0  501    0  0.00000000000E+00 -0.00000000000E+00 -0.99652206540E+03  0.99652206541E+03  0.25500000000E-02 0.  1.
    5000001    1    1    2    0    0  0.18160185766E+02  0.43838671382E+02 -0.54853152950E+03  0.57477252919E+03  0.16500000000E+03 0.  0.
   -5000001    1    1    2    0    0 -0.18160185766E+02 -0.43838671382E+02 -0.41792438626E+03  0.45181568597E+03  0.16500000000E+03 0.  0.
<mgrwt>
<rscale>  0 0.34618828E+03</rscale>
<asrwt>0</asrwt>
<pdfrwt beam="1">  1        2 0.15331106E+00 0.34618828E+03</pdfrwt>
<pdfrwt beam="2">  1       -2 0.46255623E-02 0.34618828E+03</pdfrwt>
<totfact> 0.58407213E+03</totfact>
</mgrwt>
</event>
<event>
 4    1  0.8641621E-005  0.4148650E+03  0.7818608E-02  0.1038751E+00
          2   -1    0    0  501    0  0.00000000000E+00  0.00000000000E+00  0.18045659854E+02  0.18045660034E+02  0.25500000000E-02 0.  1.
         -2   -1    0    0    0  501 -0.00000000000E+00 -0.00000000000E+00 -0.23844099270E+04  0.23844099270E+04  0.25500000000E-02 0. -1.
    5000001    1    1    2    0    0  0.48426711807E+02  0.84771158465E+02 -0.72456529798E+03  0.74950061158E+03  0.16500000000E+03 0.  0.
   -5000001    1    1    2    0    0 -0.48426711807E+02 -0.84771158465E+02 -0.16417989692E+04  0.16529549755E+04  0.16500000000E+03 0.  0.
<mgrwt>
<rscale>  0 0.41486504E+03</rscale>
<asrwt>0</asrwt>
<pdfrwt beam="1">  1        2 0.27762573E-02 0.41486504E+03</pdfrwt>
<pdfrwt beam="2">  1       -2 0.36683205E+00 0.41486504E+03</pdfrwt>
<totfact> 0.49686269E+01</totfact>
</mgrwt>
</event>
<event>
 4    1  0.8641621E-005  0.4067792E+03  0.7818608E-02  0.1041457E+00
          2   -1    0    0  501    0  0.00000000000E+00  0.00000000000E+00  0.39556593404E+02  0.39556593486E+02  0.25500000000E-02 0.  1.
         -2   -1    0    0    0  501 -0.00000000000E+00 -0.00000000000E+00 -0.10457759028E+04  0.10457759028E+04  0.25500000000E-02 0. -1.
    5000001    1    1    2    0    0  0.91037711431E+02 -0.50822056141E+02 -0.65571973461E+03  0.68415211514E+03  0.16500000000E+03 0.  0.
   -5000001    1    1    2    0    0 -0.91037711431E+02  0.50822056141E+02 -0.35049957477E+03  0.40118038114E+03  0.16500000000E+03 0.  0.
<mgrwt>
<rscale>  0 0.40677921E+03</rscale>
<asrwt>0</asrwt>
<pdfrwt beam="1">  1        2 0.60856305E-02 0.40677921E+03</pdfrwt>
<pdfrwt beam="2">  1       -2 0.16088858E+00 0.40677921E+03</pdfrwt>
<totfact> 0.32065128E+02</totfact>
</mgrwt>
</event>
<event>
 4    1  0.8641621E-005  0.8070673E+03  0.7818608E-02  0.9549843E-01
          2   -1    0    0  501    0  0.00000000000E+00  0.00000000000E+00  0.35200484958E+03  0.35200484959E+03  0.25500000000E-02 0.  1.
         -2   -1    0    0    0  501 -0.00000000000E+00 -0.00000000000E+00 -0.46260561361E+03  0.46260561362E+03  0.25500000000E-02 0. -1.
    5000001    1    1    2    0    0 -0.21126899142E+03 -0.29642767719E+03  0.99242023878E+00  0.39966228173E+03  0.16500000000E+03 0.  0.
   -5000001    1    1    2    0    0  0.21126899142E+03  0.29642767719E+03 -0.11159318427E+03  0.41494818148E+03  0.16500000000E+03 0.  0.
<mgrwt>
<rscale>  0 0.80706733E+03</rscale>
<asrwt>0</asrwt>
<pdfrwt beam="1">  1        2 0.54154592E-01 0.80706733E+03</pdfrwt>
<pdfrwt beam="2">  1       -2 0.71170094E-01 0.80706733E+03</pdfrwt>
<totfact> 0.16583638E+02</totfact>
</mgrwt>
</event>
<event>
 4    1  0.8641621E-005  0.5967097E+03  0.7818608E-02  0.9912256E-01
          2   -1    0    0  501    0  0.00000000000E+00  0.00000000000E+00  0.21495260110E+04  0.21495260110E+04  0.25500000000E-02 0. -1.
         -2   -1    0    0    0  501 -0.00000000000E+00 -0.00000000000E+00 -0.41411745754E+02  0.41411745832E+02  0.25500000000E-02 0.  1.
    5000001    1    1    2    0    0 -0.21931938903E+03 -0.10390341352E+03  0.85654467195E+03  0.90542293365E+03  0.16500000000E+03 0.  0.
   -5000001    1    1    2    0    0  0.21931938903E+03  0.10390341352E+03  0.12515695933E+04  0.12855148231E+04  0.16500000000E+03 0.  0.
<mgrwt>
<rscale>  0 0.59670973E+03</rscale>
<asrwt>0</asrwt>
<pdfrwt beam="1">  1        2 0.33069639E+00 0.59670973E+03</pdfrwt>
<pdfrwt beam="2">  1       -2 0.63710363E-02 0.59670973E+03</pdfrwt>
<totfact> 0.80860690E+02</totfact>
</mgrwt>
</event>
<event>
 4    1  0.8641621E-005  0.4940008E+03  0.7818608E-02  0.1015357E+00
         -2   -1    0    0    0  501 -0.00000000000E+00  0.00000000000E+00  0.23826346224E+02  0.23826346360E+02  0.25500000000E-02 0. -1.
          2   -1    0    0  501    0  0.00000000000E+00 -0.00000000000E+00 -0.25605766341E+04  0.25605766341E+04  0.25500000000E-02 0.  1.
    5000001    1    1    2    0    0  0.98177729614E+02 -0.15530531916E+03 -0.12948330879E+04  0.13181715875E+04  0.16500000000E+03 0.  0.
   -5000001    1    1    2    0    0 -0.98177729614E+02  0.15530531916E+03 -0.12419172001E+04  0.12662313930E+04  0.16500000000E+03 0.  0.
<mgrwt>
<rscale>  0 0.49400075E+03</rscale>
<asrwt>0</asrwt>
<pdfrwt beam="1">  1        2 0.39393465E+00 0.49400075E+03</pdfrwt>
<pdfrwt beam="2">  1       -2 0.36655938E-02 0.49400075E+03</pdfrwt>
<totfact> 0.11354167E+03</totfact>
</mgrwt>
</event>
<event>
 4    1  0.8641621E-005  0.4497111E+03  0.7818608E-02  0.1027808E+00
          2   -1    0    0  501    0  0.00000000000E+00  0.00000000000E+00  0.46672302171E+03  0.46672302171E+03  0.25500000000E-02 0.  1.
         -2   -1    0    0    0  501 -0.00000000000E+00 -0.00000000000E+00 -0.10832979757E+03  0.10832979760E+03  0.25500000000E-02 0. -1.
    5000001    1    1    2    0    0 -0.22948190101E+02  0.11997662448E+03  0.29649051392E+03  0.36062811135E+03  0.16500000000E+03 0.  0.
   -5000001    1    1    2    0    0  0.22948190101E+02 -0.11997662448E+03  0.61902710214E+02  0.21442470796E+03  0.16500000000E+03 0.  0.
<mgrwt>
<rscale>  0 0.44971106E+03</rscale>
<asrwt>0</asrwt>
<pdfrwt beam="1">  1        2 0.71803542E-01 0.44971106E+03</pdfrwt>
<pdfrwt beam="2">  1       -2 0.16666123E-01 0.44971106E+03</pdfrwt>
<totfact> 0.19421155E+03</totfact>
</mgrwt>
</event>
<event>
 4    1  0.8641621E-005  0.6437479E+03  0.7818608E-02  0.9818582E-01
          2   -1    0    0  501    0  0.00000000000E+00  0.00000000000E+00  0.17595725258E+04  0.17595725258E+04  0.25500000000E-02 0.  1.
         -2   -1    0    0    0  501 -0.00000000000E+00 -0.00000000000E+00 -0.58879558810E+02  0.58879558865E+02  0.25500000000E-02 0. -1.
    5000001    1    1    2    0    0 -0.27018645987E+03  0.13283870152E+02  0.10101573992E+04  0.10586879405E+04  0.16500000000E+03 0.  0.
   -5000001    1    1    2    0    0  0.27018645987E+03 -0.13283870152E+02  0.69053556782E+03  0.75976414414E+03  0.16500000000E+03 0.  0.
<mgrwt>
<rscale>  0 0.64374794E+03</rscale>
<asrwt>0</asrwt>
<pdfrwt beam="1">  1        2 0.27070338E+00 0.64374794E+03</pdfrwt>
<pdfrwt beam="2">  1       -2 0.90583964E-02 0.64374794E+03</pdfrwt>
<totfact> 0.74970909E+02</totfact>
</mgrwt>
</event>
<event>
 4    1  0.8641621E-005  0.3973058E+03  0.7818608E-02  0.1044717E+00
         -2   -1    0    0    0  501 -0.00000000000E+00  0.00000000000E+00  0.14475675125E+04  0.14475675125E+04  0.25500000000E-02 0. -1.
          2   -1    0    0  501    0  0.00000000000E+00 -0.00000000000E+00 -0.27261574795E+02  0.27261574914E+02  0.25500000000E-02 0.  1.
    5000001    1    1    2    0    0  0.10535488783E+03 -0.17200532534E+02  0.81789652437E+03  0.84117491361E+03  0.16500000000E+03 0.  0.
   -5000001    1    1    2    0    0 -0.10535488783E+03  0.17200532534E+02  0.60240941335E+03  0.63365417382E+03  0.16500000000E+03 0.  0.
<mgrwt>
<rscale>  0 0.39730578E+03</rscale>
<asrwt>0</asrwt>
<pdfrwt beam="1">  1        2 0.41940871E-02 0.39730578E+03</pdfrwt>
<pdfrwt beam="2">  1       -2 0.22270277E+00 0.39730578E+03</pdfrwt>
<totfact> 0.20685330E+02</totfact>
</mgrwt>
</event>
<event>
 4    1  0.8641621E-005  0.4913014E+03  0.7818608E-02  0.1016075E+00
         -2   -1    0    0    0  501 -0.00000000000E+00  0.00000000000E+00  0.16974131170E+02  0.16974131362E+02  0.25500000000E-02 0. -1.
          2   -1    0    0  501    0  0.00000000000E+00 -0.00000000000E+00 -0.35550723239E+04  0.35550723239E+04  0.25500000000E-02 0.  1.
    5000001    1    1    2    0    0 -0.48697409001E+02  0.29299580241E+02 -0.51207183536E+03  0.54099211419E+03  0.16500000000E+03 0.  0.
   -5000001    1    1    2    0    0  0.48697409001E+02 -0.29299580241E+02 -0.30260263574E+04  0.30310543411E+04  0.16500000000E+03 0.  0.
<mgrwt>
<rscale>  0 0.49130139E+03</rscale>
<asrwt>0</asrwt>
<pdfrwt beam="1">  1        2 0.54693361E+00 0.49130139E+03</pdfrwt>
<pdfrwt beam="2">  1       -2 0.26114076E-02 0.49130139E+03</pdfrwt>
<totfact> 0.46405211E+02</totfact>
</mgrwt>
</event>
<event>
 4    1  0.8641621E-005  0.5741008E+03  0.7818608E-02  0.9960645E-01
          2   -1    0    0  501    0  0.00000000000E+00  0.00000000000E+00  0.22513930976E+04  0.22513930976E+04  0.25500000000E-02 0.  1.
         -2   -1    0    0    0  501 -0.00000000000E+00 -0.00000000000E+00 -0.36598644468E+02  0.36598644557E+02  0.25500000000E-02 0. -1.
    5000001    1    1    2    0    0  0.11810936100E+03  0.19847236454E+03  0.12779699044E+04  0.13091115985E+04  0.16500000000E+03 0.  0.
   -5000001    1    1    2    0    0 -0.11810936100E+03 -0.19847236454E+03  0.93682454875E+03  0.97888014373E+03  0.16500000000E+03 0.  0.
<mgrwt>
<rscale>  0 0.57410081E+03</rscale>
<asrwt>0</asrwt>
<pdfrwt beam="1">  1        2 0.34636827E+00 0.57410081E+03</pdfrwt>
<pdfrwt beam="2">  1       -2 0.56305590E-02 0.57410081E+03</pdfrwt>
<totfact> 0.86451578E+02</totfact>
</mgrwt>
</event>
<event>
 4    1  0.8641621E-005  0.4284909E+03  0.7818608E-02  0.1034338E+00
         -2   -1    0    0    0  501 -0.00000000000E+00  0.00000000000E+00  0.32885307205E+02  0.32885307304E+02  0.25500000000E-02 0. -1.
          2   -1    0    0  501    0  0.00000000000E+00 -0.00000000000E+00 -0.13957939888E+04  0.13957939888E+04  0.25500000000E-02 0.  1.
    5000001    1    1    2    0    0  0.40167534917E+02 -0.12952993890E+03 -0.73771052733E+03  0.76800602737E+03  0.16500000000E+03 0.  0.
   -5000001    1    1    2    0    0 -0.40167534917E+02  0.12952993890E+03 -0.62519815427E+03  0.66067326875E+03  0.16500000000E+03 0.  0.
<mgrwt>
<rscale>  0 0.42849091E+03</rscale>
<asrwt>0</asrwt>
<pdfrwt beam="1">  1        2 0.21473749E+00 0.42849091E+03</pdfrwt>
<pdfrwt beam="2">  1       -2 0.50592791E-02 0.42849091E+03</pdfrwt>
<totfact> 0.29889974E+03</totfact>
</mgrwt>
</event>
<event>
 4    1  0.8641621E-005  0.5301281E+03  0.7818608E-02  0.1006201E+00
          2   -1    0    0  501    0  0.00000000000E+00  0.00000000000E+00  0.19024091564E+04  0.19024091564E+04  0.25500000000E-02 0.  1.
         -2   -1    0    0    0  501 -0.00000000000E+00 -0.00000000000E+00 -0.36931564526E+02  0.36931564614E+02  0.25500000000E-02 0. -1.
    5000001    1    1    2    0    0 -0.78456448689E+02  0.17917680486E+03  0.11855078069E+04  0.12128122287E+04  0.16500000000E+03 0.  0.
   -5000001    1    1    2    0    0  0.78456448689E+02 -0.17917680486E+03  0.67996978495E+03  0.72652849235E+03  0.16500000000E+03 0.  0.
<mgrwt>
<rscale>  0 0.53012808E+03</rscale>
<asrwt>0</asrwt>
<pdfrwt beam="1">  1        2 0.29267845E+00 0.53012808E+03</pdfrwt>
<pdfrwt beam="2">  1       -2 0.56817769E-02 0.53012808E+03</pdfrwt>
<totfact> 0.13219310E+03</totfact>
</mgrwt>
</event>
<event>
 4    1  0.8641621E-005  0.5089959E+03  0.7818608E-02  0.1011457E+00
         -2   -1    0    0    0  501 -0.00000000000E+00  0.00000000000E+00  0.40280586791E+02  0.40280586871E+02  0.25500000000E-02 0. -1.
          2   -1    0    0  501    0  0.00000000000E+00 -0.00000000000E+00 -0.16079509252E+04  0.16079509252E+04  0.25500000000E-02 0.  1.
    5000001    1    1    2    0    0 -0.11377851238E+03 -0.14287135242E+03 -0.57431490459E+03  0.62483628484E+03  0.16500000000E+03 0.  0.
   -5000001    1    1    2    0    0  0.11377851238E+03  0.14287135242E+03 -0.99335543384E+03  0.10233952272E+04  0.16500000000E+03 0.  0.
<mgrwt>
<rscale>  0 0.50899590E+03</rscale>
<asrwt>0</asrwt>
<pdfrwt beam="1">  1        2 0.24737702E+00 0.50899590E+03</pdfrwt>
<pdfrwt beam="2">  1       -2 0.61970146E-02 0.50899590E+03</pdfrwt>
<totfact> 0.16662107E+03</totfact>
</mgrwt>
</event>
<event>
 4    1  0.8641621E-005  0.7231569E+03  0.7818608E-02  0.9678430E-01
         -2   -1    0    0    0  501 -0.00000000000E+00  0.00000000000E+00  0.56888199462E+02  0.56888199519E+02  0.25500000000E-02 0. -1.
          2   -1    0    0  501    0  0.00000000000E+00 -0.00000000000E+00 -0.22981740810E+04  0.22981740810E+04  0.25500000000E-02 0.  1.
    5000001    1    1    2    0    0  0.12265628080E+03 -0.28243722704E+03 -0.81690754650E+03  0.88846963367E+03  0.16500000000E+03 0.  0.
   -5000001    1    1    2    0    0 -0.12265628080E+03  0.28243722704E+03 -0.14243783350E+04  0.14665926468E+04  0.16500000000E+03 0.  0.
<mgrwt>
<rscale>  0 0.72315693E+03</rscale>
<asrwt>0</asrwt>
<pdfrwt beam="1">  1        2 0.35356517E+00 0.72315693E+03</pdfrwt>
<pdfrwt beam="2">  1       -2 0.87520325E-02 0.72315693E+03</pdfrwt>
<totfact> 0.40026685E+02</totfact>
</mgrwt>
</event>
<event>
 4    1  0.8641621E-005  0.9757062E+03  0.7818608E-02  0.9335599E-01
          2   -1    0    0  501    0  0.00000000000E+00  0.00000000000E+00  0.31791560790E+04  0.31791560790E+04  0.25500000000E-02 0.  1.
         -2   -1    0    0    0  501 -0.00000000000E+00 -0.00000000000E+00 -0.74862831622E+02  0.74862831666E+02  0.25500000000E-02 0. -1.
    5000001    1    1    2    0    0 -0.43576014730E+03 -0.99237359999E+01  0.10712731994E+04  0.11682622369E+04  0.16500000000E+03 0.  0.
   -5000001    1    1    2    0    0  0.43576014730E+03  0.99237359999E+01  0.20330200480E+04  0.20857566738E+04  0.16500000000E+03 0.  0.
<mgrwt>
<rscale>  0 0.97570616E+03</rscale>
<asrwt>0</asrwt>
<pdfrwt beam="1">  1        2 0.48910087E+00 0.97570616E+03</pdfrwt>
<pdfrwt beam="2">  1       -2 0.11517360E-01 0.97570616E+03</pdfrwt>
<totfact> 0.75317907E+01</totfact>
</mgrwt>
</event>
<event>
 4    1  0.8641621E-005  0.4751693E+03  0.7818608E-02  0.1020471E+00
          2   -1    0    0  501    0  0.00000000000E+00  0.00000000000E+00  0.11053716324E+04  0.11053716324E+04  0.25500000000E-02 0.  1.
         -2   -1    0    0    0  501 -0.00000000000E+00 -0.00000000000E+00 -0.51065595914E+02  0.51065595977E+02  0.25500000000E-02 0. -1.
    5000001    1    1    2    0    0  0.71581385710E+02  0.12463511394E+03  0.30193492168E+03  0.37289073914E+03  0.16500000000E+03 0.  0.
   -5000001    1    1    2    0    0 -0.71581385710E+02 -0.12463511394E+03  0.75237111484E+03  0.78354648927E+03  0.16500000000E+03 0.  0.
<mgrwt>
<rscale>  0 0.47516928E+03</rscale>
<asrwt>0</asrwt>
<pdfrwt beam="1">  1        2 0.17005716E+00 0.47516928E+03</pdfrwt>
<pdfrwt beam="2">  1       -2 0.78562463E-02 0.47516928E+03</pdfrwt>
<totfact> 0.22065562E+03</totfact>
</mgrwt>
</event>
<event>
 4    1  0.8641621E-005  0.6292171E+03  0.7818608E-02  0.9846578E-01
         -2   -1    0    0    0  501 -0.00000000000E+00  0.00000000000E+00  0.75821417890E+02  0.75821417933E+02  0.25500000000E-02 0. -1.
          2   -1    0    0  501    0  0.00000000000E+00 -0.00000000000E+00 -0.13054165442E+04  0.13054165442E+04  0.25500000000E-02 0.  1.
    5000001    1    1    2    0    0  0.19076925481E+03  0.20531769404E+01 -0.20203330955E+03  0.32317113467E+03  0.16500000000E+03 0.  0.
   -5000001    1    1    2    0    0 -0.19076925481E+03 -0.20531769404E+01 -0.10275618167E+04  0.10580668274E+04  0.16500000000E+03 0.  0.
<mgrwt>
<rscale>  0 0.62921708E+03</rscale>
<asrwt>0</asrwt>
<pdfrwt beam="1">  1        2 0.20083330E+00 0.62921708E+03</pdfrwt>
<pdfrwt beam="2">  1       -2 0.11664834E-01 0.62921708E+03</pdfrwt>
<totfact> 0.88699148E+02</totfact>
</mgrwt>
</event>
<event>
 4    1  0.8641621E-005  0.6124397E+03  0.7818608E-02  0.9879929E-01
          2   -1    0    0  501    0  0.00000000000E+00  0.00000000000E+00  0.23118888879E+04  0.23118888879E+04  0.25500000000E-02 0.  1.
         -2   -1    0    0    0  501 -0.00000000000E+00 -0.00000000000E+00 -0.40560163094E+02  0.40560163175E+02  0.25500000000E-02 0. -1.
    5000001    1    1    2    0    0  0.42689351452E+02 -0.25395371105E+03  0.11940091081E+04  0.12325573489E+04  0.16500000000E+03 0.  0.
   -5000001    1    1    2    0    0 -0.42689351452E+02  0.25395371105E+03  0.10773196167E+04  0.11198917022E+04  0.16500000000E+03 0.  0.
<mgrwt>
<rscale>  0 0.61243968E+03</rscale>
<asrwt>0</asrwt>
<pdfrwt beam="1">  1        2 0.35567532E+00 0.61243968E+03</pdfrwt>
<pdfrwt beam="2">  1       -2 0.62400232E-02 0.61243968E+03</pdfrwt>
<totfact> 0.67967482E+02</totfact>
</mgrwt>
</event>
<event>
 4    1  0.8641621E-005  0.5044083E+03  0.7818608E-02  0.1012635E+00
          2   -1    0    0  501    0  0.00000000000E+00  0.00000000000E+00  0.93149925065E+03  0.93149925066E+03  0.25500000000E-02 0.  1.
         -2   -1    0    0    0  501 -0.00000000000E+00 -0.00000000000E+00 -0.68284477835E+02  0.68284477883E+02  0.25500000000E-02 0. -1.
    5000001    1    1    2    0    0  0.18006305413E+03 -0.62920034901E+02  0.43270330083E+03  0.50083807843E+03  0.16500000000E+03 0.  0.
   -5000001    1    1    2    0    0 -0.18006305413E+03  0.62920034901E+02  0.43051147199E+03  0.49894565011E+03  0.16500000000E+03 0.  0.
<mgrwt>
<rscale>  0 0.50440833E+03</rscale>
<asrwt>0</asrwt>
<pdfrwt beam="1">  1        2 0.14330757E+00 0.50440833E+03</pdfrwt>
<pdfrwt beam="2">  1       -2 0.10505305E-01 0.50440833E+03</pdfrwt>
<totfact> 0.17776958E+03</totfact>
</mgrwt>
</event>
<event>
 4    1  0.8641621E-005  0.3489837E+03  0.7818608E-02  0.1063033E+00
          2   -1    0    0  501    0  0.00000000000E+00  0.00000000000E+00  0.10755204711E+04  0.10755204711E+04  0.25500000000E-02 0.  1.
         -2   -1    0    0    0  501 -0.00000000000E+00 -0.00000000000E+00 -0.28309466562E+02  0.28309466677E+02  0.25500000000E-02 0. -1.
    5000001    1    1    2    0    0 -0.37619729145E+02 -0.41570359967E+02  0.49547947231E+03  0.52523161209E+03  0.16500000000E+03 0.  0.
   -5000001    1    1    2    0    0  0.37619729145E+02  0.41570359967E+02  0.55173153224E+03  0.57859832571E+03  0.16500000000E+03 0.  0.
<mgrwt>
<rscale>  0 0.34898373E+03</rscale>
<asrwt>0</asrwt>
<pdfrwt beam="1">  1        2 0.16546467E+00 0.34898373E+03</pdfrwt>
<pdfrwt beam="2">  1       -2 0.43553030E-02 0.34898373E+03</pdfrwt>
<totfact> 0.57305703E+03</totfact>
</mgrwt>
</event>
<event>
 4    1  0.8641621E-005  0.1004136E+04  0.7818608E-02  0.9304020E-01
         -2   -1    0    0    0  501 -0.00000000000E+00  0.00000000000E+00  0.20415338888E+03  0.20415338890E+03  0.25500000000E-02 0. -1.
          2   -1    0    0  501    0  0.00000000000E+00 -0.00000000000E+00 -0.12347196823E+04  0.12347196823E+04  0.25500000000E-02 0.  1.
    5000001    1    1    2    0    0 -0.40943109741E+01 -0.28780436688E+03 -0.10552570712E+04  0.11061828978E+04  0.16500000000E+03 0.  0.
   -5000001    1    1    2    0    0  0.40943109741E+01  0.28780436688E+03  0.24690777817E+02  0.33269017341E+03  0.16500000000E+03 0.  0.
<mgrwt>
<rscale>  0 0.10041359E+04</rscale>
<asrwt>0</asrwt>
<pdfrwt beam="1">  1        2 0.18995687E+00 0.10041359E+04</pdfrwt>
<pdfrwt beam="2">  1       -2 0.31408214E-01 0.10041359E+04</pdfrwt>
<totfact> 0.16938277E+02</totfact>
</mgrwt>
</event>
<event>
 4    1  0.8641621E-005  0.6684051E+03  0.7818608E-02  0.9772843E-01
         -2   -1    0    0    0  501 -0.00000000000E+00  0.00000000000E+00  0.13818373935E+03  0.13818373938E+03  0.25500000000E-02 0. -1.
          2   -1    0    0  501    0  0.00000000000E+00 -0.00000000000E+00 -0.80828143233E+03  0.80828143233E+03  0.25500000000E-02 0.  1.
    5000001    1    1    2    0    0 -0.39415600587E+02  0.28194932734E+03 -0.25227200715E+03  0.41462655287E+03  0.16500000000E+03 0.  0.
   -5000001    1    1    2    0    0  0.39415600587E+02 -0.28194932734E+03 -0.41782568582E+03  0.53183861884E+03  0.16500000000E+03 0.  0.
<mgrwt>
<rscale>  0 0.66840512E+03</rscale>
<asrwt>0</asrwt>
<pdfrwt beam="1">  1        2 0.12435099E+00 0.66840512E+03</pdfrwt>
<pdfrwt beam="2">  1       -2 0.21259037E-01 0.66840512E+03</pdfrwt>
<totfact> 0.65493370E+02</totfact>
</mgrwt>
</event>
<event>
 4    1  0.8641621E-005  0.3843456E+03  0.7818608E-02  0.1049339E+00
          2   -1    0    0  501    0  0.00000000000E+00  0.00000000000E+00  0.45917950401E+03  0.45917950402E+03  0.25500000000E-02 0.  1.
         -2   -1    0    0    0  501 -0.00000000000E+00 -0.00000000000E+00 -0.80426907449E+02  0.80426907490E+02  0.25500000000E-02 0. -1.
    5000001    1    1    2    0    0 -0.58162673145E+02  0.79512965939E+02  0.18878199859E+03  0.26938606366E+03  0.16500000000E+03 0.  0.
   -5000001    1    1    2    0    0  0.58162673145E+02 -0.79512965939E+02  0.18997059797E+03  0.27022034785E+03  0.16500000000E+03 0.  0.
<mgrwt>
<rscale>  0 0.38434561E+03</rscale>
<asrwt>0</asrwt>
<pdfrwt beam="1">  1        2 0.70642999E-01 0.38434561E+03</pdfrwt>
<pdfrwt beam="2">  1       -2 0.12373371E-01 0.38434561E+03</pdfrwt>
<totfact> 0.32395730E+03</totfact>
</mgrwt>
</event>
<event>
 4    1  0.8641621E-005  0.4483980E+03  0.7818608E-02  0.1028201E+00
         -2   -1    0    0    0  501 -0.00000000000E+00  0.00000000000E+00  0.12513810542E+03  0.12513810545E+03  0.25500000000E-02 0. -1.
          2   -1    0    0  501    0  0.00000000000E+00 -0.00000000000E+00 -0.40167769118E+03  0.40167769119E+03  0.25500000000E-02 0.  1.
    5000001    1    1    2    0    0  0.97797257694E+02  0.11122828633E+03 -0.17730973673E+03  0.28390100040E+03  0.16500000000E+03 0.  0.
   -5000001    1    1    2    0    0 -0.97797257694E+02 -0.11122828633E+03 -0.99229849033E+02  0.24291479624E+03  0.16500000000E+03 0.  0.
<mgrwt>
<rscale>  0 0.44839797E+03</rscale>
<asrwt>0</asrwt>
<pdfrwt beam="1">  1        2 0.61796567E-01 0.44839797E+03</pdfrwt>
<pdfrwt beam="2">  1       -2 0.19252016E-01 0.44839797E+03</pdfrwt>
<totfact> 0.17953994E+03</totfact>
</mgrwt>
</event>
<event>
 4    1  0.8641621E-005  0.5259452E+03  0.7818608E-02  0.1007220E+00
          2   -1    0    0  501    0  0.00000000000E+00  0.00000000000E+00  0.33402210676E+03  0.33402210677E+03  0.25500000000E-02 0.  1.
         -2   -1    0    0    0  501 -0.00000000000E+00 -0.00000000000E+00 -0.20703592799E+03  0.20703592800E+03  0.25500000000E-02 0. -1.
    5000001    1    1    2    0    0  0.21782853512E+02  0.18922565589E+03  0.14081080297E+03  0.28867546447E+03  0.16500000000E+03 0.  0.
   -5000001    1    1    2    0    0 -0.21782853512E+02 -0.18922565589E+03 -0.13824624201E+02  0.25238257030E+03  0.16500000000E+03 0.  0.
<mgrwt>
<rscale>  0 0.52594516E+03</rscale>
<asrwt>0</asrwt>
<pdfrwt beam="1">  1        2 0.51388016E-01 0.52594516E+03</pdfrwt>
<pdfrwt beam="2">  1       -2 0.31851682E-01 0.52594516E+03</pdfrwt>
<totfact> 0.89498502E+02</totfact>
</mgrwt>
</event>
<event>
 4    1  0.8641621E-005  0.4585457E+03  0.7818608E-02  0.1025204E+00
          2   -1    0    0  501    0  0.00000000000E+00  0.00000000000E+00  0.28036113346E+04  0.28036113346E+04  0.25500000000E-02 0.  1.
         -2   -1    0    0    0  501 -0.00000000000E+00 -0.00000000000E+00 -0.18749402925E+02  0.18749403099E+02  0.25500000000E-02 0. -1.
    5000001    1    1    2    0    0  0.12098746546E+03 -0.53395659282E+02  0.84702564482E+03  0.87302148096E+03  0.16500000000E+03 0.  0.
   -5000001    1    1    2    0    0 -0.12098746546E+03  0.53395659282E+02  0.19378362868E+04  0.19493392567E+04  0.16500000000E+03 0.  0.
<mgrwt>
<rscale>  0 0.45854570E+03</rscale>
<asrwt>0</asrwt>
<pdfrwt beam="1">  1        2 0.43132494E+00 0.45854570E+03</pdfrwt>
<pdfrwt beam="2">  1       -2 0.28845227E-02 0.45854570E+03</pdfrwt>
<totfact> 0.11891723E+03</totfact>
</mgrwt>
</event>
<event>
 4    1  0.8641621E-005  0.3883237E+03  0.7818608E-02  0.1047899E+00
         -2   -1    0    0    0  501 -0.00000000000E+00  0.00000000000E+00  0.80613168839E+03  0.80613168840E+03  0.25500000000E-02 0. -1.
          2   -1    0    0  501    0  0.00000000000E+00 -0.00000000000E+00 -0.46765090274E+02  0.46765090343E+02  0.25500000000E-02 0.  1.
    5000001    1    1    2    0    0 -0.95934902278E+02  0.24446915804E+01  0.45778030747E+03  0.49598114067E+03  0.16500000000E+03 0.  0.
   -5000001    1    1    2    0    0  0.95934902278E+02 -0.24446915804E+01  0.30158629065E+03  0.35691563807E+03  0.16500000000E+03 0.  0.
<mgrwt>
<rscale>  0 0.38832369E+03</rscale>
<asrwt>0</asrwt>
<pdfrwt beam="1">  1        2 0.71946294E-02 0.38832369E+03</pdfrwt>
<pdfrwt beam="2">  1       -2 0.12402026E+00 0.38832369E+03</pdfrwt>
<totfact> 0.50196286E+02</totfact>
</mgrwt>
</event>
<event>
 4    1  0.8641621E-005  0.3983038E+03  0.7818608E-02  0.1044369E+00
          2   -1    0    0  501    0  0.00000000000E+00  0.00000000000E+00  0.42537261395E+03  0.42537261396E+03  0.25500000000E-02 0.  1.
         -2   -1    0    0    0  501 -0.00000000000E+00 -0.00000000000E+00 -0.93239400057E+02  0.93239400091E+02  0.25500000000E-02 0. -1.
    5000001    1    1    2    0    0  0.23240023715E+02 -0.10039244219E+03  0.22157960725E+03  0.29485803958E+03  0.16500000000E+03 0.  0.
   -5000001    1    1    2    0    0 -0.23240023715E+02  0.10039244219E+03  0.11055360664E+03  0.22375397447E+03  0.16500000000E+03 0.  0.
<mgrwt>
<rscale>  0 0.39830384E+03</rscale>
<asrwt>0</asrwt>
<pdfrwt beam="1">  1        2 0.65441941E-01 0.39830384E+03</pdfrwt>
<pdfrwt beam="2">  1       -2 0.14344523E-01 0.39830384E+03</pdfrwt>
<totfact> 0.27669809E+03</totfact>
</mgrwt>
</event>
<event>
 4    1  0.8641621E-005  0.4624468E+03  0.7818608E-02  0.1024074E+00
          2   -1    0    0  501    0  0.00000000000E+00  0.00000000000E+00  0.76433835970E+02  0.76433836012E+02  0.25500000000E-02 0.  1.
         -2   -1    0    0    0  501 -0.00000000000E+00 -0.00000000000E+00 -0.69948415049E+03  0.69948415050E+03  0.25500000000E-02 0. -1.
    5000001    1    1    2    0    0  0.14367658497E+03  0.73926027668E+02 -0.29230379361E+03  0.37252453126E+03  0.16500000000E+03 0.  0.
   -5000001    1    1    2    0    0 -0.14367658497E+03 -0.73926027668E+02 -0.33074652091E+03  0.40339345524E+03  0.16500000000E+03 0.  0.
<mgrwt>
<rscale>  0 0.46244678E+03</rscale>
<asrwt>0</asrwt>
<pdfrwt beam="1">  1        2 0.11759052E-01 0.46244678E+03</pdfrwt>
<pdfrwt beam="2">  1       -2 0.10761294E+00 0.46244678E+03</pdfrwt>
<totfact> 0.37939055E+02</totfact>
</mgrwt>
</event>
<event>
 4    1  0.8641621E-005  0.5143734E+03  0.7818608E-02  0.1010094E+00
          2   -1    0    0  501    0  0.00000000000E+00  0.00000000000E+00  0.14133973803E+04  0.14133973803E+04  0.25500000000E-02 0.  1.
         -2   -1    0    0    0  501 -0.00000000000E+00 -0.00000000000E+00 -0.46798584006E+02  0.46798584075E+02  0.25500000000E-02 0. -1.
    5000001    1    1    2    0    0 -0.12515668039E+03 -0.14764898633E+03  0.57499391756E+03  0.62873477957E+03  0.16500000000E+03 0.  0.
   -5000001    1    1    2    0    0  0.12515668039E+03  0.14764898633E+03  0.79160487877E+03  0.83146118484E+03  0.16500000000E+03 0.  0.
<mgrwt>
<rscale>  0 0.51437339E+03</rscale>
<asrwt>0</asrwt>
<pdfrwt beam="1">  1        2 0.21744576E+00 0.51437339E+03</pdfrwt>
<pdfrwt beam="2">  1       -2 0.71997819E-02 0.51437339E+03</pdfrwt>
<totfact> 0.16832019E+03</totfact>
</mgrwt>
</event>
<event>
 4    1  0.8641621E-005  0.3953812E+03  0.7818608E-02  0.1045391E+00
          2   -1    0    0  501    0  0.00000000000E+00  0.00000000000E+00  0.57433515167E+03  0.57433515167E+03  0.25500000000E-02 0.  1.
         -2   -1    0    0    0  501 -0.00000000000E+00 -0.00000000000E+00 -0.68046621748E+02  0.68046621796E+02  0.25500000000E-02 0. -1.
    5000001    1    1    2    0    0  0.71094316615E+02  0.51493077639E+02  0.35781713529E+03  0.40368804937E+03  0.16500000000E+03 0.  0.
   -5000001    1    1    2    0    0 -0.71094316615E+02 -0.51493077639E+02  0.14847139463E+03  0.23869372410E+03  0.16500000000E+03 0.  0.
<mgrwt>
<rscale>  0 0.39538117E+03</rscale>
<asrwt>0</asrwt>
<pdfrwt beam="1">  1        2 0.88359254E-01 0.39538117E+03</pdfrwt>
<pdfrwt beam="2">  1       -2 0.10468711E-01 0.39538117E+03</pdfrwt>
<totfact> 0.32927195E+03</totfact>
</mgrwt>
</event>
<event>
 4    1  0.8641621E-005  0.5322892E+03  0.7818608E-02  0.1005678E+00
          2   -1    0    0  501    0  0.00000000000E+00  0.00000000000E+00  0.26143155294E+03  0.26143155296E+03  0.25500000000E-02 0.  1.
         -2   -1    0    0    0  501 -0.00000000000E+00 -0.00000000000E+00 -0.27094265053E+03  0.27094265054E+03  0.25500000000E-02 0. -1.
    5000001    1    1    2    0    0  0.29710202370E+02  0.51215579909E+02 -0.20504291687E+03  0.26976532303E+03  0.16500000000E+03 0.  0.
   -5000001    1    1    2    0    0 -0.29710202370E+02 -0.51215579909E+02  0.19553181928E+03  0.26260888047E+03  0.16500000000E+03 0.  0.
<mgrwt>
<rscale>  0 0.53228924E+03</rscale>
<asrwt>0</asrwt>
<pdfrwt beam="1">  1        2 0.40220239E-01 0.53228924E+03</pdfrwt>
<pdfrwt beam="2">  1       -2 0.41683485E-01 0.53228924E+03</pdfrwt>
<totfact> 0.70197478E+02</totfact>
</mgrwt>
</event>
<event>
 4    1  0.8641621E-005  0.1163208E+04  0.7818608E-02  0.9145684E-01
         -2   -1    0    0    0  501 -0.00000000000E+00  0.00000000000E+00  0.49272824512E+03  0.49272824513E+03  0.25500000000E-02 0. -1.
          2   -1    0    0  501    0  0.00000000000E+00 -0.00000000000E+00 -0.68651107187E+03  0.68651107187E+03  0.25500000000E-02 0.  1.
    5000001    1    1    2    0    0  0.27762932107E+03  0.45238728171E+03 -0.27044096244E+03  0.61813882481E+03  0.16500000000E+03 0.  0.
   -5000001    1    1    2    0    0 -0.27762932107E+03 -0.45238728171E+03  0.76658135693E+02  0.56110049219E+03  0.16500000000E+03 0.  0.
<mgrwt>
<rscale>  0 0.11632083E+04</rscale>
<asrwt>0</asrwt>
<pdfrwt beam="1">  1        2 0.10561709E+00 0.11632083E+04</pdfrwt>
<pdfrwt beam="2">  1       -2 0.75804346E-01 0.11632083E+04</pdfrwt>
<totfact> 0.64804649E+01</totfact>
</mgrwt>
</event>
<event>
 4    1  0.8641621E-005  0.5610718E+03  0.7818608E-02  0.9989632E-01
         -2   -1    0    0    0  501 -0.00000000000E+00  0.00000000000E+00  0.10383166746E+03  0.10383166749E+03  0.25500000000E-02 0. -1.
          2   -1    0    0  501    0  0.00000000000E+00 -0.00000000000E+00 -0.75796131416E+03  0.75796131417E+03  0.25500000000E-02 0.  1.
    5000001    1    1    2    0    0  0.12320608301E+02  0.20200409364E+03 -0.48458993014E+03  0.55046330634E+03  0.16500000000E+03 0.  0.
   -5000001    1    1    2    0    0 -0.12320608301E+02 -0.20200409364E+03 -0.16953971657E+03  0.31132967531E+03  0.16500000000E+03 0.  0.
<mgrwt>
<rscale>  0 0.56107179E+03</rscale>
<asrwt>0</asrwt>
<pdfrwt beam="1">  1        2 0.11660943E+00 0.56107179E+03</pdfrwt>
<pdfrwt beam="2">  1       -2 0.15974103E-01 0.56107179E+03</pdfrwt>
<totfact> 0.11693008E+03</totfact>
</mgrwt>
</event>
<event>
 4    1  0.8641621E-005  0.4240538E+03  0.7818608E-02  0.1035755E+00
          2   -1    0    0  501    0  0.00000000000E+00  0.00000000000E+00  0.62007534348E+03  0.62007534349E+03  0.25500000000E-02 0.  1.
         -2   -1    0    0    0  501 -0.00000000000E+00 -0.00000000000E+00 -0.72499894029E+02  0.72499894074E+02  0.25500000000E-02 0. -1.
    5000001    1    1    2    0    0 -0.96331590574E+02 -0.72748866019E+02  0.36557183490E+03  0.41885551127E+03  0.16500000000E+03 0.  0.
   -5000001    1    1    2    0    0  0.96331590574E+02  0.72748866019E+02  0.18200361455E+03  0.27371972629E+03  0.16500000000E+03 0.  0.
<mgrwt>
<rscale>  0 0.42405375E+03</rscale>
<asrwt>0</asrwt>
<pdfrwt beam="1">  1        2 0.95396205E-01 0.42405375E+03</pdfrwt>
<pdfrwt beam="2">  1       -2 0.11153830E-01 0.42405375E+03</pdfrwt>
<totfact> 0.27172973E+03</totfact>
</mgrwt>
</event>
<event>
 4    1  0.8641621E-005  0.7373609E+03  0.7818608E-02  0.9655390E-01
          2   -1    0    0  501    0  0.00000000000E+00  0.00000000000E+00  0.74123017532E+03  0.74123017532E+03  0.25500000000E-02 0.  1.
         -2   -1    0    0    0  501 -0.00000000000E+00 -0.00000000000E+00 -0.18337797178E+03  0.18337797180E+03  0.25500000000E-02 0. -1.
    5000001    1    1    2    0    0  0.30993090230E+03 -0.50510673410E+02  0.40489454943E+03  0.53830575744E+03  0.16500000000E+03 0.  0.
   -5000001    1    1    2    0    0 -0.30993090230E+03  0.50510673410E+02  0.15295765410E+03  0.38630238968E+03  0.16500000000E+03 0.  0.
<mgrwt>
<rscale>  0 0.73736093E+03</rscale>
<asrwt>0</asrwt>
<pdfrwt beam="1">  1        2 0.11403541E+00 0.73736093E+03</pdfrwt>
<pdfrwt beam="2">  1       -2 0.28211996E-01 0.73736093E+03</pdfrwt>
<totfact> 0.44000274E+02</totfact>
</mgrwt>
</event>
<event>
 4    1  0.8641621E-005  0.8006124E+03  0.7818608E-02  0.9559131E-01
          2   -1    0    0  501    0  0.00000000000E+00  0.00000000000E+00  0.26974084133E+04  0.26974084133E+04  0.25500000000E-02 0.  1.
         -2   -1    0    0    0  501 -0.00000000000E+00 -0.00000000000E+00 -0.59407040230E+02  0.59407040285E+02  0.25500000000E-02 0. -1.
    5000001    1    1    2    0    0 -0.26372477881E+03 -0.11314405555E+03  0.20940887383E+04  0.21200907953E+04  0.16500000000E+03 0.  0.
   -5000001    1    1    2    0    0  0.26372477881E+03  0.11314405555E+03  0.54391263478E+03  0.63672465834E+03  0.16500000000E+03 0.  0.
<mgrwt>
<rscale>  0 0.80061239E+03</rscale>
<asrwt>0</asrwt>
<pdfrwt beam="1">  1        2 0.41498575E+00 0.80061239E+03</pdfrwt>
<pdfrwt beam="2">  1       -2 0.91395482E-02 0.80061239E+03</pdfrwt>
<totfact> 0.21994460E+02</totfact>
</mgrwt>
</event>
<event>
 4    1  0.8641621E-005  0.4884539E+03  0.7818608E-02  0.1016837E+00
          2   -1    0    0  501    0  0.00000000000E+00  0.00000000000E+00  0.23403069541E+04  0.23403069541E+04  0.25500000000E-02 0.  1.
         -2   -1    0    0    0  501 -0.00000000000E+00 -0.00000000000E+00 -0.25486748486E+02  0.25486748614E+02  0.25500000000E-02 0. -1.
    5000001    1    1    2    0    0 -0.94996385773E+02 -0.12970082632E+03  0.76466783926E+03  0.79861663021E+03  0.16500000000E+03 0.  0.
   -5000001    1    1    2    0    0  0.94996385773E+02  0.12970082632E+03  0.15501523663E+04  0.15671770725E+04  0.16500000000E+03 0.  0.
<mgrwt>
<rscale>  0 0.48845395E+03</rscale>
<asrwt>0</asrwt>
<pdfrwt beam="1">  1        2 0.36004730E+00 0.48845395E+03</pdfrwt>
<pdfrwt beam="2">  1       -2 0.39210374E-02 0.48845395E+03</pdfrwt>
<totfact> 0.13591663E+03</totfact>
</mgrwt>
</event>
<event>
 4    1  0.8641621E-005  0.6997571E+03  0.7818608E-02  0.9717648E-01
         -2   -1    0    0    0  501 -0.00000000000E+00  0.00000000000E+00  0.81524245519E+03  0.81524245519E+03  0.25500000000E-02 0. -1.
          2   -1    0    0  501    0  0.00000000000E+00 -0.00000000000E+00 -0.15015776231E+03  0.15015776233E+03  0.25500000000E-02 0.  1.
    5000001    1    1    2    0    0 -0.21654798755E+03  0.21228183893E+03  0.41099145213E+03  0.53674536213E+03  0.16500000000E+03 0.  0.
   -5000001    1    1    2    0    0  0.21654798755E+03 -0.21228183893E+03  0.25409324075E+03  0.42865485539E+03  0.16500000000E+03 0.  0.
<mgrwt>
<rscale>  0 0.69975705E+03</rscale>
<asrwt>0</asrwt>
<pdfrwt beam="1">  1        2 0.23101194E-01 0.69975705E+03</pdfrwt>
<pdfrwt beam="2">  1       -2 0.12542192E+00 0.69975705E+03</pdfrwt>
<totfact> 0.11544120E+02</totfact>
</mgrwt>
</event>
<event>
 4    1  0.8641621E-005  0.3703944E+03  0.7818608E-02  0.1054542E+00
          2   -1    0    0  501    0  0.00000000000E+00  0.00000000000E+00  0.14853116371E+04  0.14853116371E+04  0.25500000000E-02 0.  1.
         -2   -1    0    0    0  501 -0.00000000000E+00 -0.00000000000E+00 -0.23091453900E+02  0.23091454041E+02  0.25500000000E-02 0. -1.
    5000001    1    1    2    0    0  0.83733734634E+02  0.76418911659E+01  0.73847260877E+03  0.76133864392E+03  0.16500000000E+03 0.  0.
   -5000001    1    1    2    0    0 -0.83733734634E+02 -0.76418911659E+01  0.72374757442E+03  0.74706444722E+03  0.16500000000E+03 0.  0.
<mgrwt>
<rscale>  0 0.37039441E+03</rscale>
<asrwt>0</asrwt>
<pdfrwt beam="1">  1        2 0.22850948E+00 0.37039441E+03</pdfrwt>
<pdfrwt beam="2">  1       -2 0.35525313E-02 0.37039441E+03</pdfrwt>
<totfact> 0.45779219E+03</totfact>
</mgrwt>
</event>
<event>
 4    1  0.8641621E-005  0.4596372E+03  0.7818608E-02  0.1024887E+00
         -2   -1    0    0    0  501 -0.00000000000E+00  0.00000000000E+00  0.46727046545E+02  0.46727046615E+02  0.25500000000E-02 0. -1.
          2   -1    0    0  501    0  0.00000000000E+00 -0.00000000000E+00 -0.11303214127E+04  0.11303214127E+04  0.25500000000E-02 0.  1.
    5000001    1    1    2    0    0 -0.68420474390E+01  0.15918734967E+03 -0.50520741696E+03  0.55483958048E+03  0.16500000000E+03 0.  0.
   -5000001    1    1    2    0    0  0.68420474390E+01 -0.15918734967E+03 -0.57838694914E+03  0.62220887879E+03  0.16500000000E+03 0.  0.
<mgrwt>
<rscale>  0 0.45963717E+03</rscale>
<asrwt>0</asrwt>
<pdfrwt beam="1">  1        2 0.17389558E+00 0.45963717E+03</pdfrwt>
<pdfrwt beam="2">  1       -2 0.71887773E-02 0.45963717E+03</pdfrwt>
<totfact> 0.24532653E+03</totfact>
</mgrwt>
</event>
<event>
 4    1  0.8641621E-005  0.6573037E+03  0.7818608E-02  0.9793170E-01
         -2   -1    0    0    0  501 -0.00000000000E+00  0.00000000000E+00  0.42937503051E+03  0.42937503052E+03  0.25500000000E-02 0. -1.
          2   -1    0    0  501    0  0.00000000000E+00 -0.00000000000E+00 -0.25155637130E+03  0.25155637131E+03  0.25500000000E-02 0.  1.
    5000001    1    1    2    0    0  0.66843518082E+01  0.25114095748E+03  0.22661838946E+03  0.37642709192E+03  0.16500000000E+03 0.  0.
   -5000001    1    1    2    0    0 -0.66843518082E+01 -0.25114095748E+03 -0.48799730253E+02  0.30450430992E+03  0.16500000000E+03 0.  0.
<mgrwt>
<rscale>  0 0.65730366E+03</rscale>
<asrwt>0</asrwt>
<pdfrwt beam="1">  1        2 0.38700980E-01 0.65730366E+03</pdfrwt>
<pdfrwt beam="2">  1       -2 0.66057697E-01 0.65730366E+03</pdfrwt>
<totfact> 0.28464717E+02</totfact>
</mgrwt>
</event>
<event>
 4    1  0.8641621E-005  0.4449732E+03  0.7818608E-02  0.1029232E+00
         -2   -1    0    0    0  501 -0.00000000000E+00  0.00000000000E+00  0.13720590648E+03  0.13720590650E+03  0.25500000000E-02 0. -1.
          2   -1    0    0  501    0  0.00000000000E+00 -0.00000000000E+00 -0.36077367688E+03  0.36077367689E+03  0.25500000000E-02 0.  1.
    5000001    1    1    2    0    0  0.11154723853E+03 -0.95532377764E+02 -0.14152093156E+03  0.26234022889E+03  0.16500000000E+03 0.  0.
   -5000001    1    1    2    0    0 -0.11154723853E+03  0.95532377764E+02 -0.82046838842E+02  0.23563935450E+03  0.16500000000E+03 0.  0.
<mgrwt>
<rscale>  0 0.44497316E+03</rscale>
<asrwt>0</asrwt>
<pdfrwt beam="1">  1        2 0.55503642E-01 0.44497316E+03</pdfrwt>
<pdfrwt beam="2">  1       -2 0.21108601E-01 0.44497316E+03</pdfrwt>
<totfact> 0.17231477E+03</totfact>
</mgrwt>
</event>
<event>
 4    1  0.8641621E-005  0.4167321E+03  0.7818608E-02  0.1038135E+00
          2   -1    0    0  501    0  0.00000000000E+00  0.00000000000E+00  0.12072537999E+04  0.12072537999E+04  0.25500000000E-02 0.  1.
         -2   -1    0    0    0  501 -0.00000000000E+00 -0.00000000000E+00 -0.35962958049E+02  0.35962958139E+02  0.25500000000E-02 0. -1.
    5000001    1    1    2    0    0 -0.55081931678E+02 -0.11170382034E+03  0.66341937306E+03  0.69488274351E+03  0.16500000000E+03 0.  0.
   -5000001    1    1    2    0    0  0.55081931678E+02  0.11170382034E+03  0.50787146875E+03  0.54833401449E+03  0.16500000000E+03 0.  0.
<mgrwt>
<rscale>  0 0.41673213E+03</rscale>
<asrwt>0</asrwt>
<pdfrwt beam="1">  1        2 0.18573139E+00 0.41673213E+03</pdfrwt>
<pdfrwt beam="2">  1       -2 0.55327616E-02 0.41673213E+03</pdfrwt>
<totfact> 0.33270502E+03</totfact>
</mgrwt>
</event>
<event>
 4    1  0.8641621E-005  0.5407254E+03  0.7818608E-02  0.1003664E+00
         -2   -1    0    0    0  501 -0.00000000000E+00  0.00000000000E+00  0.92575098243E+02  0.92575098278E+02  0.25500000000E-02 0. -1.
          2   -1    0    0  501    0  0.00000000000E+00 -0.00000000000E+00 -0.78958573926E+03  0.78958573926E+03  0.25500000000E-02 0.  1.
    5000001    1    1    2    0    0  0.33512952956E+02  0.16340305600E+03 -0.12933730948E+03  0.26791195634E+03  0.16500000000E+03 0.  0.
   -5000001    1    1    2    0    0 -0.33512952956E+02 -0.16340305600E+03 -0.56767333153E+03  0.61424888120E+03  0.16500000000E+03 0.  0.
<mgrwt>
<rscale>  0 0.54072536E+03</rscale>
<asrwt>0</asrwt>
<pdfrwt beam="1">  1        2 0.12147472E+00 0.54072536E+03</pdfrwt>
<pdfrwt beam="2">  1       -2 0.14242323E-01 0.54072536E+03</pdfrwt>
<totfact> 0.13456127E+03</totfact>
</mgrwt>
</event>
<event>
 4    1  0.8641621E-005  0.6680442E+03  0.7818608E-02  0.9773498E-01
         -2   -1    0    0    0  501 -0.00000000000E+00  0.00000000000E+00  0.17884725019E+03  0.17884725021E+03  0.25500000000E-02 0. -1.
          2   -1    0    0  501    0  0.00000000000E+00 -0.00000000000E+00 -0.62383264154E+03  0.62383264154E+03  0.25500000000E-02 0.  1.
    5000001    1    1    2    0    0  0.14619229494E+03  0.15335422522E+03  0.16175193934E+02  0.26902851594E+03  0.16500000000E+03 0.  0.
   -5000001    1    1    2    0    0 -0.14619229494E+03 -0.15335422522E+03 -0.46116058528E+03  0.53365137581E+03  0.16500000000E+03 0.  0.
<mgrwt>
<rscale>  0 0.66804417E+03</rscale>
<asrwt>0</asrwt>
<pdfrwt beam="1">  1        2 0.95974251E-01 0.66804417E+03</pdfrwt>
<pdfrwt beam="2">  1       -2 0.27514962E-01 0.66804417E+03</pdfrwt>
<totfact> 0.57254326E+02</totfact>
</mgrwt>
</event>
<event>
 4    1  0.8641621E-005  0.5013307E+03  0.7818608E-02  0.1013432E+00
          2   -1    0    0  501    0  0.00000000000E+00  0.00000000000E+00  0.16065668329E+04  0.16065668329E+04  0.25500000000E-02 0.  1.
         -2   -1    0    0    0  501 -0.00000000000E+00 -0.00000000000E+00 -0.39110177490E+02  0.39110177573E+02  0.25500000000E-02 0. -1.
    5000001    1    1    2    0    0  0.14285579654E+03 -0.99548395860E+02  0.54496549805E+03  0.59542426537E+03  0.16500000000E+03 0.  0.
   -5000001    1    1    2    0    0 -0.14285579654E+03  0.99548395860E+02  0.10224911573E+04  0.10502527451E+04  0.16500000000E+03 0.  0.
<mgrwt>
<rscale>  0 0.50133069E+03</rscale>
<asrwt>0</asrwt>
<pdfrwt beam="1">  1        2 0.24716414E+00 0.50133069E+03</pdfrwt>
<pdfrwt beam="2">  1       -2 0.60169501E-02 0.50133069E+03</pdfrwt>
<totfact> 0.17482785E+03</totfact>
</mgrwt>
</event>
<event>
 4    1  0.8641621E-005  0.3777415E+03  0.7818608E-02  0.1051772E+00
          2   -1    0    0  501    0  0.00000000000E+00  0.00000000000E+00  0.48885499999E+03  0.48885500000E+03  0.25500000000E-02 0.  1.
         -2   -1    0    0    0  501 -0.00000000000E+00 -0.00000000000E+00 -0.72970821857E+02  0.72970821901E+02  0.25500000000E-02 0. -1.
    5000001    1    1    2    0    0  0.63134976746E+02 -0.13090477782E+02  0.30535663558E+03  0.35302274826E+03  0.16500000000E+03 0.  0.
   -5000001    1    1    2    0    0 -0.63134976746E+02  0.13090477782E+02  0.11052754255E+03  0.20880307364E+03  0.16500000000E+03 0.  0.
<mgrwt>
<rscale>  0 0.37774145E+03</rscale>
<asrwt>0</asrwt>
<pdfrwt beam="1">  1        2 0.75208462E-01 0.37774145E+03</pdfrwt>
<pdfrwt beam="2">  1       -2 0.11226280E-01 0.37774145E+03</pdfrwt>
<totfact> 0.35359343E+03</totfact>
</mgrwt>
</event>
<event>
 4    1  0.8641621E-005  0.4078351E+03  0.7818608E-02  0.1041100E+00
          2   -1    0    0  501    0  0.00000000000E+00  0.00000000000E+00  0.21322956147E+04  0.21322956147E+04  0.25500000000E-02 0.  1.
         -2   -1    0    0    0  501 -0.00000000000E+00 -0.00000000000E+00 -0.19501224652E+02  0.19501224819E+02  0.25500000000E-02 0. -1.
    5000001    1    1    2    0    0 -0.10196535231E+03  0.14675241959E+02  0.73351270804E+03  0.75886638393E+03  0.16500000000E+03 0.  0.
   -5000001    1    1    2    0    0  0.10196535231E+03 -0.14675241959E+02  0.13792816821E+04  0.13929304556E+04  0.16500000000E+03 0.  0.
<mgrwt>
<rscale>  0 0.40783514E+03</rscale>
<asrwt>0</asrwt>
<pdfrwt beam="1">  1        2 0.32804529E+00 0.40783514E+03</pdfrwt>
<pdfrwt beam="2">  1       -2 0.30001901E-02 0.40783514E+03</pdfrwt>
<totfact> 0.26596892E+03</totfact>
</mgrwt>
</event>
<event>
 4    1  0.8641621E-005  0.4956972E+03  0.7818608E-02  0.1014908E+00
          2   -1    0    0  501    0  0.00000000000E+00  0.00000000000E+00  0.72467367861E+03  0.72467367862E+03  0.25500000000E-02 0.  1.
         -2   -1    0    0    0  501 -0.00000000000E+00 -0.00000000000E+00 -0.84767719970E+02  0.84767720008E+02  0.25500000000E-02 0. -1.
    5000001    1    1    2    0    0 -0.17403881294E+03 -0.53412407458E+02  0.37315614457E+03  0.44678059706E+03  0.16500000000E+03 0.  0.
   -5000001    1    1    2    0    0  0.17403881294E+03  0.53412407458E+02  0.26674981407E+03  0.36266080156E+03  0.16500000000E+03 0.  0.
<mgrwt>
<rscale>  0 0.49569723E+03</rscale>
<asrwt>0</asrwt>
<pdfrwt beam="1">  1        2 0.11148826E+00 0.49569723E+03</pdfrwt>
<pdfrwt beam="2">  1       -2 0.13041188E-01 0.49569723E+03</pdfrwt>
<totfact> 0.17393250E+03</totfact>
</mgrwt>
</event>
<event>
 4    1  0.8641621E-005  0.1036506E+04  0.7818608E-02  0.9269388E-01
         -2   -1    0    0    0  501 -0.00000000000E+00  0.00000000000E+00  0.11810918294E+03  0.11810918297E+03  0.25500000000E-02 0. -1.
          2   -1    0    0  501    0  0.00000000000E+00 -0.00000000000E+00 -0.22740485735E+04  0.22740485735E+04  0.25500000000E-02 0.  1.
    5000001    1    1    2    0    0  0.43380811201E+03 -0.23045367479E+03 -0.10962364118E+04  0.12125418116E+04  0.16500000000E+03 0.  0.
   -5000001    1    1    2    0    0 -0.43380811201E+03  0.23045367479E+03 -0.10597029788E+04  0.11796159449E+04  0.16500000000E+03 0.  0.
<mgrwt>
<rscale>  0 0.10365057E+04</rscale>
<asrwt>0</asrwt>
<pdfrwt beam="1">  1        2 0.34985359E+00 0.10365057E+04</pdfrwt>
<pdfrwt beam="2">  1       -2 0.18170645E-01 0.10365057E+04</pdfrwt>
<totfact> 0.11893104E+02</totfact>
</mgrwt>
</event>
<event>
 4    1  0.8641621E-005  0.7508649E+03  0.7818608E-02  0.9633994E-01
         -2   -1    0    0    0  501 -0.00000000000E+00  0.00000000000E+00  0.39362231565E+03  0.39362231565E+03  0.25500000000E-02 0. -1.
          2   -1    0    0  501    0  0.00000000000E+00 -0.00000000000E+00 -0.35808318014E+03  0.35808318015E+03  0.25500000000E-02 0.  1.
    5000001    1    1    2    0    0 -0.11312549774E+03 -0.24448921162E+03  0.22085666124E+03  0.38545430034E+03  0.16500000000E+03 0.  0.
   -5000001    1    1    2    0    0  0.11312549774E+03  0.24448921162E+03 -0.18531752574E+03  0.36625119547E+03  0.16500000000E+03 0.  0.
<mgrwt>
<rscale>  0 0.75086492E+03</rscale>
<asrwt>0</asrwt>
<pdfrwt beam="1">  1        2 0.55089720E-01 0.75086492E+03</pdfrwt>
<pdfrwt beam="2">  1       -2 0.60557280E-01 0.75086492E+03</pdfrwt>
<totfact> 0.23079769E+02</totfact>
</mgrwt>
</event>
<event>
 4    1  0.8641621E-005  0.1406915E+04  0.7818608E-02  0.8948828E-01
          2   -1    0    0  501    0  0.00000000000E+00  0.00000000000E+00  0.73926771619E+03  0.73926771620E+03  0.25500000000E-02 0.  1.
         -2   -1    0    0    0  501 -0.00000000000E+00 -0.00000000000E+00 -0.66938169986E+03  0.66938169986E+03  0.25500000000E-02 0. -1.
    5000001    1    1    2    0    0 -0.52141743060E+03 -0.39672917250E+03 -0.16114817163E+03  0.69459621829E+03  0.16500000000E+03 0.  0.
   -5000001    1    1    2    0    0  0.52141743060E+03  0.39672917250E+03  0.23103418797E+03  0.71405319777E+03  0.16500000000E+03 0.  0.
<mgrwt>
<rscale>  0 0.14069148E+04</rscale>
<asrwt>0</asrwt>
<pdfrwt beam="1">  1        2 0.11373350E+00 0.14069148E+04</pdfrwt>
<pdfrwt beam="2">  1       -2 0.10298180E+00 0.14069148E+04</pdfrwt>
<totfact> 0.28629119E+01</totfact>
</mgrwt>
</event>
<event>
 4    1  0.8641621E-005  0.4926871E+03  0.7818608E-02  0.1015706E+00
          2   -1    0    0  501    0  0.00000000000E+00  0.00000000000E+00  0.26467806857E+04  0.26467806858E+04  0.25500000000E-02 0.  1.
         -2   -1    0    0    0  501 -0.00000000000E+00 -0.00000000000E+00 -0.22927909396E+02  0.22927909537E+02  0.25500000000E-02 0. -1.
    5000001    1    1    2    0    0  0.16138643570E+03 -0.63649502996E+02  0.16261768450E+04  0.16437070822E+04  0.16500000000E+03 0.  0.
   -5000001    1    1    2    0    0 -0.16138643570E+03  0.63649502996E+02  0.99767593140E+03  0.10260015131E+04  0.16500000000E+03 0.  0.
<mgrwt>
<rscale>  0 0.49268711E+03</rscale>
<asrwt>0</asrwt>
<pdfrwt beam="1">  1        2 0.40719730E+00 0.49268711E+03</pdfrwt>
<pdfrwt beam="2">  1       -2 0.35273683E-02 0.49268711E+03</pdfrwt>
<totfact> 0.10758656E+03</totfact>
</mgrwt>
</event>
<event>
 4    1  0.8641621E-005  0.8320510E+03  0.7818608E-02  0.9514749E-01
         -2   -1    0    0    0  501 -0.00000000000E+00  0.00000000000E+00  0.41244378985E+03  0.41244378986E+03  0.25500000000E-02 0. -1.
          2   -1    0    0  501    0  0.00000000000E+00 -0.00000000000E+00 -0.41963828831E+03  0.41963828832E+03  0.25500000000E-02 0.  1.
    5000001    1    1    2    0    0  0.33962751861E+03 -0.15662194486E+03  0.73703253433E+02  0.41537266951E+03  0.16500000000E+03 0.  0.
   -5000001    1    1    2    0    0 -0.33962751861E+03  0.15662194486E+03 -0.80897751893E+02  0.41670940866E+03  0.16500000000E+03 0.  0.
<mgrwt>
<rscale>  0 0.83205097E+03</rscale>
<asrwt>0</asrwt>
<pdfrwt beam="1">  1        2 0.64559737E-01 0.83205097E+03</pdfrwt>
<pdfrwt beam="2">  1       -2 0.63452891E-01 0.83205097E+03</pdfrwt>
<totfact> 0.17430981E+02</totfact>
</mgrwt>
</event>
<event>
 4    1  0.8641621E-005  0.8814513E+03  0.7818608E-02  0.9449070E-01
         -2   -1    0    0    0  501 -0.00000000000E+00  0.00000000000E+00  0.55787202630E+03  0.55787202631E+03  0.25500000000E-02 0. -1.
          2   -1    0    0  501    0  0.00000000000E+00 -0.00000000000E+00 -0.34817861372E+03  0.34817861373E+03  0.25500000000E-02 0.  1.
    5000001    1    1    2    0    0 -0.19146889829E+03  0.35520622882E+03  0.17132226180E+03  0.46841020633E+03  0.16500000000E+03 0.  0.
   -5000001    1    1    2    0    0  0.19146889829E+03 -0.35520622882E+03  0.38371150776E+02  0.43764043371E+03  0.16500000000E+03 0.  0.
<mgrwt>
<rscale>  0 0.88145132E+03</rscale>
<asrwt>0</asrwt>
<pdfrwt beam="1">  1        2 0.53565941E-01 0.88145132E+03</pdfrwt>
<pdfrwt beam="2">  1       -2 0.85826465E-01 0.88145132E+03</pdfrwt>
<totfact> 0.11005460E+02</totfact>
</mgrwt>
</event>
<event>
 4    1  0.8641621E-005  0.7703489E+03  0.7818608E-02  0.9603956E-01
          2   -1    0    0  501    0  0.00000000000E+00  0.00000000000E+00  0.47287177612E+03  0.47287177613E+03  0.25500000000E-02 0.  1.
         -2   -1    0    0    0  501 -0.00000000000E+00 -0.00000000000E+00 -0.31374118752E+03  0.31374118753E+03  0.25500000000E-02 0. -1.
    5000001    1    1    2    0    0  0.14374975433E+02 -0.32851822173E+03 -0.36875085716E+02  0.36975077265E+03  0.16500000000E+03 0.  0.
   -5000001    1    1    2    0    0 -0.14374975433E+02  0.32851822173E+03  0.19600567432E+03  0.41686219101E+03  0.16500000000E+03 0.  0.
<mgrwt>
<rscale>  0 0.77034889E+03</rscale>
<asrwt>0</asrwt>
<pdfrwt beam="1">  1        2 0.72749504E-01 0.77034889E+03</pdfrwt>
<pdfrwt beam="2">  1       -2 0.48267875E-01 0.77034889E+03</pdfrwt>
<totfact> 0.26917957E+02</totfact>
</mgrwt>
</event>
<event>
 4    1  0.8641621E-005  0.6214112E+03  0.7818608E-02  0.9861954E-01
          2   -1    0    0  501    0  0.00000000000E+00  0.00000000000E+00  0.11868467681E+04  0.11868467681E+04  0.25500000000E-02 0.  1.
         -2   -1    0    0    0  501 -0.00000000000E+00 -0.00000000000E+00 -0.81339889234E+02  0.81339889274E+02  0.25500000000E-02 0. -1.
    5000001    1    1    2    0    0  0.23816767943E+03  0.94091189019E+02  0.42801311129E+03  0.52535437451E+03  0.16500000000E+03 0.  0.
   -5000001    1    1    2    0    0 -0.23816767943E+03 -0.94091189019E+02  0.67749376756E+03  0.74283228286E+03  0.16500000000E+03 0.  0.
<mgrwt>
<rscale>  0 0.62141125E+03</rscale>
<asrwt>0</asrwt>
<pdfrwt beam="1">  1        2 0.18259182E+00 0.62141125E+03</pdfrwt>
<pdfrwt beam="2">  1       -2 0.12513829E-01 0.62141125E+03</pdfrwt>
<totfact> 0.92595853E+02</totfact>
</mgrwt>
</event>
<event>
 4    1  0.8641621E-005  0.1938677E+04  0.7818608E-02  0.8635840E-01
         -2   -1    0    0    0  501 -0.00000000000E+00  0.00000000000E+00  0.16736532944E+04  0.16736532944E+04  0.25500000000E-02 0. -1.
          2   -1    0    0  501    0  0.00000000000E+00 -0.00000000000E+00 -0.56141702135E+03  0.56141702136E+03  0.25500000000E-02 0.  1.
    5000001    1    1    2    0    0 -0.14918594570E+03 -0.75334448053E+03  0.12109401771E+04  0.14433937319E+04  0.16500000000E+03 0.  0.
   -5000001    1    1    2    0    0  0.14918594570E+03  0.75334448053E+03 -0.98703904076E+02  0.79167658385E+03  0.16500000000E+03 0.  0.
<mgrwt>
<rscale>  0 0.19386773E+04</rscale>
<asrwt>0</asrwt>
<pdfrwt beam="1">  1        2 0.86371851E-01 0.19386773E+04</pdfrwt>
<pdfrwt beam="2">  1       -2 0.25748512E+00 0.19386773E+04</pdfrwt>
<totfact> 0.28995040E+00</totfact>
</mgrwt>
</event>
<event>
 4    1  0.8641621E-005  0.5555005E+03  0.7818608E-02  0.1000229E+00
         -2   -1    0    0    0  501 -0.00000000000E+00  0.00000000000E+00  0.90608519699E+02  0.90608519735E+02  0.25500000000E-02 0. -1.
          2   -1    0    0  501    0  0.00000000000E+00 -0.00000000000E+00 -0.85141227397E+03  0.85141227397E+03  0.25500000000E-02 0.  1.
    5000001    1    1    2    0    0  0.19873141031E+03 -0.88763467564E+02 -0.29481695748E+03  0.40188949356E+03  0.16500000000E+03 0.  0.
   -5000001    1    1    2    0    0 -0.19873141031E+03  0.88763467564E+02 -0.46598679679E+03  0.54013130015E+03  0.16500000000E+03 0.  0.
<mgrwt>
<rscale>  0 0.55550052E+03</rscale>
<asrwt>0</asrwt>
<pdfrwt beam="1">  1        2 0.13098650E+00 0.55550052E+03</pdfrwt>
<pdfrwt beam="2">  1       -2 0.13939773E-01 0.55550052E+03</pdfrwt>
<totfact> 0.12619945E+03</totfact>
</mgrwt>
</event>
<event>
 4    1  0.8641621E-005  0.5359899E+03  0.7818608E-02  0.1004790E+00
         -2   -1    0    0    0  501 -0.00000000000E+00  0.00000000000E+00  0.36980119645E+02  0.36980119733E+02  0.25500000000E-02 0. -1.
          2   -1    0    0  501    0  0.00000000000E+00 -0.00000000000E+00 -0.19421597291E+04  0.19421597291E+04  0.25500000000E-02 0.  1.
    5000001    1    1    2    0    0  0.22961846089E+02  0.20980544677E+03 -0.97888891338E+03  0.10148862383E+04  0.16500000000E+03 0.  0.
   -5000001    1    1    2    0    0 -0.22961846089E+02 -0.20980544677E+03 -0.92629069604E+03  0.96425361054E+03  0.16500000000E+03 0.  0.
<mgrwt>
<rscale>  0 0.53598992E+03</rscale>
<asrwt>0</asrwt>
<pdfrwt beam="1">  1        2 0.29879372E+00 0.53598992E+03</pdfrwt>
<pdfrwt beam="2">  1       -2 0.56892507E-02 0.53598992E+03</pdfrwt>
<totfact> 0.12553366E+03</totfact>
</mgrwt>
</event>
<event>
 4    1  0.8641621E-005  0.3887468E+03  0.7818608E-02  0.1047747E+00
         -2   -1    0    0    0  501 -0.00000000000E+00  0.00000000000E+00  0.72282346688E+03  0.72282346689E+03  0.25500000000E-02 0. -1.
          2   -1    0    0  501    0  0.00000000000E+00 -0.00000000000E+00 -0.52268657237E+02  0.52268657299E+02  0.25500000000E-02 0.  1.
    5000001    1    1    2    0    0  0.22810834273E+02 -0.36081351032E+02  0.14894495062E+03  0.22634441978E+03  0.16500000000E+03 0.  0.
   -5000001    1    1    2    0    0 -0.22810834273E+02  0.36081351032E+02  0.52160985903E+03  0.54874770440E+03  0.16500000000E+03 0.  0.
<mgrwt>
<rscale>  0 0.38874677E+03</rscale>
<asrwt>0</asrwt>
<pdfrwt beam="1">  1        2 0.80413321E-02 0.38874677E+03</pdfrwt>
<pdfrwt beam="2">  1       -2 0.11120361E+00 0.38874677E+03</pdfrwt>
<totfact> 0.56676302E+02</totfact>
</mgrwt>
</event>
<event>
 4    1  0.8641621E-005  0.9781669E+03  0.7818608E-02  0.9332820E-01
         -2   -1    0    0    0  501 -0.00000000000E+00  0.00000000000E+00  0.45745581792E+03  0.45745581792E+03  0.25500000000E-02 0. -1.
          2   -1    0    0  501    0  0.00000000000E+00 -0.00000000000E+00 -0.52289778303E+03  0.52289778303E+03  0.25500000000E-02 0.  1.
    5000001    1    1    2    0    0  0.36583568461E+03 -0.97022819883E+02  0.23002620298E+03  0.47263752472E+03  0.16500000000E+03 0.  0.
   -5000001    1    1    2    0    0 -0.36583568461E+03  0.97022819883E+02 -0.29546816809E+03  0.50771607624E+03  0.16500000000E+03 0.  0.
<mgrwt>
<rscale>  0 0.97816692E+03</rscale>
<asrwt>0</asrwt>
<pdfrwt beam="1">  1        2 0.80445812E-01 0.97816692E+03</pdfrwt>
<pdfrwt beam="2">  1       -2 0.70377819E-01 0.97816692E+03</pdfrwt>
<totfact> 0.10739133E+02</totfact>
</mgrwt>
</event>
<event>
 4    1  0.8641621E-005  0.4501744E+03  0.7818608E-02  0.1027670E+00
          2   -1    0    0  501    0  0.00000000000E+00  0.00000000000E+00  0.21873887346E+04  0.21873887346E+04  0.25500000000E-02 0.  1.
         -2   -1    0    0    0  501 -0.00000000000E+00 -0.00000000000E+00 -0.23161974641E+02  0.23161974782E+02  0.25500000000E-02 0. -1.
    5000001    1    1    2    0    0  0.10293186167E+03  0.10324707439E+03  0.13116106093E+04  0.13299632766E+04  0.16500000000E+03 0.  0.
   -5000001    1    1    2    0    0 -0.10293186167E+03 -0.10324707439E+03  0.85261615065E+03  0.88058743283E+03  0.16500000000E+03 0.  0.
<mgrwt>
<rscale>  0 0.45017438E+03</rscale>
<asrwt>0</asrwt>
<pdfrwt beam="1">  1        2 0.33652131E+00 0.45017438E+03</pdfrwt>
<pdfrwt beam="2">  1       -2 0.35633811E-02 0.45017438E+03</pdfrwt>
<totfact> 0.19103048E+03</totfact>
</mgrwt>
</event>
<event>
 4    1  0.8641621E-005  0.3623481E+03  0.7818608E-02  0.1057658E+00
          2   -1    0    0  501    0  0.00000000000E+00  0.00000000000E+00  0.70969104483E+02  0.70969104528E+02  0.25500000000E-02 0.  1.
         -2   -1    0    0    0  501 -0.00000000000E+00 -0.00000000000E+00 -0.46251157375E+03  0.46251157376E+03  0.25500000000E-02 0. -1.
    5000001    1    1    2    0    0  0.25240486305E+02  0.68314878031E+02 -0.17048268114E+03  0.24818007429E+03  0.16500000000E+03 0.  0.
   -5000001    1    1    2    0    0 -0.25240486305E+02 -0.68314878031E+02 -0.22105978813E+03  0.28530060399E+03  0.16500000000E+03 0.  0.
<mgrwt>
<rscale>  0 0.36234808E+03</rscale>
<asrwt>0</asrwt>
<pdfrwt beam="1">  1        2 0.10918324E-01 0.36234808E+03</pdfrwt>
<pdfrwt beam="2">  1       -2 0.71155625E-01 0.36234808E+03</pdfrwt>
<totfact> 0.10635149E+03</totfact>
</mgrwt>
</event>
<event>
 4    1  0.8641621E-005  0.5506229E+03  0.7818608E-02  0.1001350E+00
          2   -1    0    0  501    0  0.00000000000E+00  0.00000000000E+00  0.20845120211E+04  0.20845120211E+04  0.25500000000E-02 0.  1.
         -2   -1    0    0    0  501 -0.00000000000E+00 -0.00000000000E+00 -0.36361696372E+02  0.36361696461E+02  0.25500000000E-02 0. -1.
    5000001    1    1    2    0    0 -0.18269100937E+03  0.95054125885E+02  0.72176379354E+03  0.76849155195E+03  0.16500000000E+03 0.  0.
   -5000001    1    1    2    0    0  0.18269100937E+03 -0.95054125885E+02  0.13263865312E+04  0.13523821656E+04  0.16500000000E+03 0.  0.
<mgrwt>
<rscale>  0 0.55062290E+03</rscale>
<asrwt>0</asrwt>
<pdfrwt beam="1">  1        2 0.32069421E+00 0.55062290E+03</pdfrwt>
<pdfrwt beam="2">  1       -2 0.55941062E-02 0.55062290E+03</pdfrwt>
<totfact> 0.10786018E+03</totfact>
</mgrwt>
</event>
<event>
 4    1  0.8641621E-005  0.8306419E+03  0.7818608E-02  0.9516693E-01
         -2   -1    0    0    0  501 -0.00000000000E+00  0.00000000000E+00  0.46830249398E+03  0.46830249398E+03  0.25500000000E-02 0. -1.
          2   -1    0    0  501    0  0.00000000000E+00 -0.00000000000E+00 -0.36833349142E+03  0.36833349143E+03  0.25500000000E-02 0.  1.
    5000001    1    1    2    0    0  0.33186275291E+03  0.13523114834E+03  0.18071380211E+03  0.43393873821E+03  0.16500000000E+03 0.  0.
   -5000001    1    1    2    0    0 -0.33186275291E+03 -0.13523114834E+03 -0.80744799551E+02  0.40269724720E+03  0.16500000000E+03 0.  0.
<mgrwt>
<rscale>  0 0.83064190E+03</rscale>
<asrwt>0</asrwt>
<pdfrwt beam="1">  1        2 0.56666691E-01 0.83064190E+03</pdfrwt>
<pdfrwt beam="2">  1       -2 0.72046538E-01 0.83064190E+03</pdfrwt>
<totfact> 0.15330391E+02</totfact>
</mgrwt>
</event>
<event>
 4    1  0.8641621E-005  0.3612374E+03  0.7818608E-02  0.1058095E+00
         -2   -1    0    0    0  501 -0.00000000000E+00  0.00000000000E+00  0.28512176049E+02  0.28512176163E+02  0.25500000000E-02 0. -1.
          2   -1    0    0  501    0  0.00000000000E+00 -0.00000000000E+00 -0.11441817776E+04  0.11441817776E+04  0.25500000000E-02 0.  1.
    5000001    1    1    2    0    0 -0.61044520238E+02  0.22681113563E+02 -0.44740028404E+03  0.48128253711E+03  0.16500000000E+03 0.  0.
   -5000001    1    1    2    0    0  0.61044520238E+02 -0.22681113563E+02 -0.66826931752E+03  0.69141141667E+03  0.16500000000E+03 0.  0.
<mgrwt>
<rscale>  0 0.36123739E+03</rscale>
<asrwt>0</asrwt>
<pdfrwt beam="1">  1        2 0.17602793E+00 0.36123739E+03</pdfrwt>
<pdfrwt beam="2">  1       -2 0.43864895E-02 0.36123739E+03</pdfrwt>
<totfact> 0.51643283E+03</totfact>
</mgrwt>
</event>
<event>
 4    1  0.8641621E-005  0.5331305E+03  0.7818608E-02  0.1005476E+00
          2   -1    0    0  501    0  0.00000000000E+00  0.00000000000E+00  0.63471500551E+03  0.63471500551E+03  0.25500000000E-02 0.  1.
         -2   -1    0    0    0  501 -0.00000000000E+00 -0.00000000000E+00 -0.11195109899E+03  0.11195109901E+03  0.25500000000E-02 0. -1.
    5000001    1    1    2    0    0  0.16877199222E+02 -0.20685381412E+03  0.29995896075E+03  0.40034200180E+03  0.16500000000E+03 0.  0.
   -5000001    1    1    2    0    0 -0.16877199222E+02  0.20685381412E+03  0.22280494577E+03  0.34632410273E+03  0.16500000000E+03 0.  0.
<mgrwt>
<rscale>  0 0.53313054E+03</rscale>
<asrwt>0</asrwt>
<pdfrwt beam="1">  1        2 0.97648463E-01 0.53313054E+03</pdfrwt>
<pdfrwt beam="2">  1       -2 0.17223246E-01 0.53313054E+03</pdfrwt>
<totfact> 0.12838543E+03</totfact>
</mgrwt>
</event>
<event>
 4    1  0.8641621E-005  0.4581661E+03  0.7818608E-02  0.1025314E+00
         -2   -1    0    0    0  501 -0.00000000000E+00  0.00000000000E+00  0.50387506244E+02  0.50387506308E+02  0.25500000000E-02 0. -1.
          2   -1    0    0  501    0  0.00000000000E+00 -0.00000000000E+00 -0.10415089686E+04  0.10415089686E+04  0.25500000000E-02 0.  1.
    5000001    1    1    2    0    0  0.63756837669E+02  0.58564405419E+01 -0.14893318963E+03  0.23131218562E+03  0.16500000000E+03 0.  0.
   -5000001    1    1    2    0    0 -0.63756837669E+02 -0.58564405419E+01 -0.84218827273E+03  0.86058428928E+03  0.16500000000E+03 0.  0.
<mgrwt>
<rscale>  0 0.45816608E+03</rscale>
<asrwt>0</asrwt>
<pdfrwt beam="1">  1        2 0.16023213E+00 0.45816608E+03</pdfrwt>
<pdfrwt beam="2">  1       -2 0.77519248E-02 0.45816608E+03</pdfrwt>
<totfact> 0.24645287E+03</totfact>
</mgrwt>
</event>
<event>
 4    1  0.8641621E-005  0.3857927E+03  0.7818608E-02  0.1048813E+00
          2   -1    0    0  501    0  0.00000000000E+00  0.00000000000E+00  0.33155676597E+04  0.33155676597E+04  0.25500000000E-02 0.  1.
         -2   -1    0    0    0  501 -0.00000000000E+00 -0.00000000000E+00 -0.11222514133E+02  0.11222514422E+02  0.25500000000E-02 0. -1.
    5000001    1    1    2    0    0 -0.38189334384E+02 -0.86565911717E+02  0.13751628296E+04  0.13882542600E+04  0.16500000000E+03 0.  0.
   -5000001    1    1    2    0    0  0.38189334384E+02  0.86565911717E+02  0.19291823159E+04  0.19385359141E+04  0.16500000000E+03 0.  0.
<mgrwt>
<rscale>  0 0.38579272E+03</rscale>
<asrwt>0</asrwt>
<pdfrwt beam="1">  1        2 0.51008652E+00 0.38579272E+03</pdfrwt>
<pdfrwt beam="2">  1       -2 0.17265434E-02 0.38579272E+03</pdfrwt>
<totfact> 0.12592184E+03</totfact>
</mgrwt>
</event>
<event>
 4    1  0.8641621E-005  0.4943224E+03  0.7818608E-02  0.1015272E+00
          2   -1    0    0  501    0  0.00000000000E+00  0.00000000000E+00  0.16269542930E+04  0.16269542930E+04  0.25500000000E-02 0.  1.
         -2   -1    0    0    0  501 -0.00000000000E+00 -0.00000000000E+00 -0.37547866652E+02  0.37547866739E+02  0.25500000000E-02 0. -1.
    5000001    1    1    2    0    0  0.16818909636E+03 -0.67797720207E+02  0.90009082443E+03  0.93288402024E+03  0.16500000000E+03 0.  0.
   -5000001    1    1    2    0    0 -0.16818909636E+03  0.67797720207E+02  0.68931560193E+03  0.73161813951E+03  0.16500000000E+03 0.  0.
<mgrwt>
<rscale>  0 0.49432242E+03</rscale>
<asrwt>0</asrwt>
<pdfrwt beam="1">  1        2 0.25030065E+00 0.49432242E+03</pdfrwt>
<pdfrwt beam="2">  1       -2 0.57765952E-02 0.49432242E+03</pdfrwt>
<totfact> 0.18165828E+03</totfact>
</mgrwt>
</event>
<event>
 4    1  0.8641621E-005  0.4413488E+03  0.7818608E-02  0.1030334E+00
         -2   -1    0    0    0  501 -0.00000000000E+00  0.00000000000E+00  0.21378664343E+02  0.21378664495E+02  0.25500000000E-02 0. -1.
          2   -1    0    0  501    0  0.00000000000E+00 -0.00000000000E+00 -0.22778401549E+04  0.22778401549E+04  0.25500000000E-02 0.  1.
    5000001    1    1    2    0    0  0.14534085427E+02 -0.14523014730E+03 -0.11959836507E+04  0.12161023510E+04  0.16500000000E+03 0.  0.
   -5000001    1    1    2    0    0 -0.14534085427E+02  0.14523014730E+03 -0.10604778398E+04  0.10831164684E+04  0.16500000000E+03 0.  0.
<mgrwt>
<rscale>  0 0.44134875E+03</rscale>
<asrwt>0</asrwt>
<pdfrwt beam="1">  1        2 0.35043676E+00 0.44134875E+03</pdfrwt>
<pdfrwt beam="2">  1       -2 0.32890271E-02 0.44134875E+03</pdfrwt>
<totfact> 0.19275090E+03</totfact>
</mgrwt>
</event>
<event>
 4    1  0.8641621E-005  0.1068372E+04  0.7818608E-02  0.9236579E-01
          2   -1    0    0  501    0  0.00000000000E+00  0.00000000000E+00  0.98500051901E+03  0.98500051902E+03  0.25500000000E-02 0.  1.
         -2   -1    0    0    0  501 -0.00000000000E+00 -0.00000000000E+00 -0.28969987343E+03  0.28969987344E+03  0.25500000000E-02 0. -1.
    5000001    1    1    2    0    0 -0.10823309859E+03 -0.49626911593E+03  0.33393786888E+03  0.62987057348E+03  0.16500000000E+03 0.  0.
   -5000001    1    1    2    0    0  0.10823309859E+03  0.49626911593E+03  0.36136277670E+03  0.64482981898E+03  0.16500000000E+03 0.  0.
<mgrwt>
<rscale>  0 0.10683717E+04</rscale>
<asrwt>0</asrwt>
<pdfrwt beam="1">  1        2 0.15153854E+00 0.10683717E+04</pdfrwt>
<pdfrwt beam="2">  1       -2 0.44569212E-01 0.10683717E+04</pdfrwt>
<totfact> 0.12225340E+02</totfact>
</mgrwt>
</event>
<event>
 4    1  0.8641621E-005  0.1017185E+04  0.7818608E-02  0.9289895E-01
         -2   -1    0    0    0  501 -0.00000000000E+00  0.00000000000E+00  0.38920259855E+03  0.38920259855E+03  0.25500000000E-02 0. -1.
          2   -1    0    0  501    0  0.00000000000E+00 -0.00000000000E+00 -0.66460547822E+03  0.66460547822E+03  0.25500000000E-02 0.  1.
    5000001    1    1    2    0    0  0.47646501308E+03  0.42630762887E+02 -0.84825722416E+02  0.51308546443E+03  0.16500000000E+03 0.  0.
   -5000001    1    1    2    0    0 -0.47646501308E+03 -0.42630762887E+02 -0.19057715725E+03  0.54072261234E+03  0.16500000000E+03 0.  0.
<mgrwt>
<rscale>  0 0.10171847E+04</rscale>
<asrwt>0</asrwt>
<pdfrwt beam="1">  1        2 0.10224700E+00 0.10171847E+04</pdfrwt>
<pdfrwt beam="2">  1       -2 0.59877323E-01 0.10171847E+04</pdfrwt>
<totfact> 0.11354347E+02</totfact>
</mgrwt>
</event>
<event>
 4    1  0.8641621E-005  0.3807715E+03  0.7818608E-02  0.1050649E+00
          2   -1    0    0  501    0  0.00000000000E+00  0.00000000000E+00  0.43045877788E+03  0.43045877789E+03  0.25500000000E-02 0.  1.
         -2   -1    0    0    0  501 -0.00000000000E+00 -0.00000000000E+00 -0.84204906321E+02  0.84204906359E+02  0.25500000000E-02 0. -1.
    5000001    1    1    2    0    0  0.86665165377E+02  0.33558111207E+02  0.19963906534E+03  0.27516859219E+03  0.16500000000E+03 0.  0.
   -5000001    1    1    2    0    0 -0.86665165377E+02 -0.33558111207E+02  0.14661480622E+03  0.23949509206E+03  0.16500000000E+03 0.  0.
<mgrwt>
<rscale>  0 0.38077154E+03</rscale>
<asrwt>0</asrwt>
<pdfrwt beam="1">  1        2 0.66224428E-01 0.38077154E+03</pdfrwt>
<pdfrwt beam="2">  1       -2 0.12954601E-01 0.38077154E+03</pdfrwt>
<totfact> 0.32287082E+03</totfact>
</mgrwt>
</event>
<event>
 4    1  0.8641621E-005  0.4708889E+03  0.7818608E-02  0.1021670E+00
         -2   -1    0    0    0  501 -0.00000000000E+00  0.00000000000E+00  0.11344538250E+03  0.11344538253E+03  0.25500000000E-02 0. -1.
          2   -1    0    0  501    0  0.00000000000E+00 -0.00000000000E+00 -0.48864120468E+03  0.48864120469E+03  0.25500000000E-02 0.  1.
    5000001    1    1    2    0    0 -0.29396368891E+02  0.16075060714E+03 -0.23718755738E+03  0.33194554007E+03  0.16500000000E+03 0.  0.
   -5000001    1    1    2    0    0  0.29396368891E+02 -0.16075060714E+03 -0.13800826480E+03  0.27014104715E+03  0.16500000000E+03 0.  0.
<mgrwt>
<rscale>  0 0.47088890E+03</rscale>
<asrwt>0</asrwt>
<pdfrwt beam="1">  1        2 0.75175569E-01 0.47088890E+03</pdfrwt>
<pdfrwt beam="2">  1       -2 0.17453136E-01 0.47088890E+03</pdfrwt>
<totfact> 0.17051874E+03</totfact>
</mgrwt>
</event>
<event>
 4    1  0.8641621E-005  0.5290590E+03  0.7818608E-02  0.1006461E+00
         -2   -1    0    0    0  501 -0.00000000000E+00  0.00000000000E+00  0.25834032436E+03  0.25834032437E+03  0.25500000000E-02 0. -1.
          2   -1    0    0  501    0  0.00000000000E+00 -0.00000000000E+00 -0.27086694078E+03  0.27086694079E+03  0.25500000000E-02 0.  1.
    5000001    1    1    2    0    0  0.11861750845E+03  0.16899191497E+03 -0.17333148695E+02  0.26486566157E+03  0.16500000000E+03 0.  0.
   -5000001    1    1    2    0    0 -0.11861750845E+03 -0.16899191497E+03  0.48065322707E+01  0.26434160359E+03  0.16500000000E+03 0.  0.
<mgrwt>
<rscale>  0 0.52905899E+03</rscale>
<asrwt>0</asrwt>
<pdfrwt beam="1">  1        2 0.41671837E-01 0.52905899E+03</pdfrwt>
<pdfrwt beam="2">  1       -2 0.39744665E-01 0.52905899E+03</pdfrwt>
<totfact> 0.74059691E+02</totfact>
</mgrwt>
</event>
<event>
 4    1  0.8641621E-005  0.5199689E+03  0.7818608E-02  0.1008694E+00
          2   -1    0    0  501    0  0.00000000000E+00  0.00000000000E+00  0.29858577770E+03  0.29858577771E+03  0.25500000000E-02 0.  1.
         -2   -1    0    0    0  501 -0.00000000000E+00 -0.00000000000E+00 -0.22637349349E+03  0.22637349350E+03  0.25500000000E-02 0. -1.
    5000001    1    1    2    0    0 -0.25254971586E+02  0.16456725599E+03  0.14964304779E+03  0.27809753161E+03  0.16500000000E+03 0.  0.
   -5000001    1    1    2    0    0  0.25254971586E+02 -0.16456725599E+03 -0.77430763575E+02  0.24686173961E+03  0.16500000000E+03 0.  0.
<mgrwt>
<rscale>  0 0.51996887E+03</rscale>
<asrwt>0</asrwt>
<pdfrwt beam="1">  1        2 0.45936274E-01 0.51996887E+03</pdfrwt>
<pdfrwt beam="2">  1       -2 0.34826691E-01 0.51996887E+03</pdfrwt>
<totfact> 0.85651353E+02</totfact>
</mgrwt>
</event>
<event>
 4    1  0.8641621E-005  0.5610837E+03  0.7818608E-02  0.9989606E-01
          2   -1    0    0  501    0  0.00000000000E+00  0.00000000000E+00  0.12774298074E+03  0.12774298077E+03  0.25500000000E-02 0.  1.
         -2   -1    0    0    0  501 -0.00000000000E+00 -0.00000000000E+00 -0.61610993013E+03  0.61610993013E+03  0.25500000000E-02 0. -1.
    5000001    1    1    2    0    0 -0.20519879148E+03  0.25967388774E+01 -0.11588445189E+03  0.28769340150E+03  0.16500000000E+03 0.  0.
   -5000001    1    1    2    0    0  0.20519879148E+03 -0.25967388774E+01 -0.37248249750E+03  0.45615950940E+03  0.16500000000E+03 0.  0.
<mgrwt>
<rscale>  0 0.56108366E+03</rscale>
<asrwt>0</asrwt>
<pdfrwt beam="1">  1        2 0.19652767E-01 0.56108366E+03</pdfrwt>
<pdfrwt beam="2">  1       -2 0.94786141E-01 0.56108366E+03</pdfrwt>
<totfact> 0.27501225E+02</totfact>
</mgrwt>
</event>
<event>
 4    1  0.8641621E-005  0.5222202E+03  0.7818608E-02  0.1008137E+00
          2   -1    0    0  501    0  0.00000000000E+00  0.00000000000E+00  0.38653771991E+04  0.38653771991E+04  0.25500000000E-02 0.  1.
         -2   -1    0    0    0  501 -0.00000000000E+00 -0.00000000000E+00 -0.17638247269E+02  0.17638247453E+02  0.25500000000E-02 0. -1.
    5000001    1    1    2    0    0  0.63013701396E+02  0.97832633343E+02  0.31549376219E+04  0.31613918373E+04  0.16500000000E+03 0.  0.
   -5000001    1    1    2    0    0 -0.63013701396E+02 -0.97832633343E+02  0.69280132986E+03  0.72162360921E+03  0.16500000000E+03 0.  0.
<mgrwt>
<rscale>  0 0.52222018E+03</rscale>
<asrwt>0</asrwt>
<pdfrwt beam="1">  1        2 0.59467414E+00 0.52222018E+03</pdfrwt>
<pdfrwt beam="2">  1       -2 0.27135732E-02 0.52222018E+03</pdfrwt>
<totfact> 0.26152446E+02</totfact>
</mgrwt>
</event>
<event>
 4    1  0.8641621E-005  0.4504732E+03  0.7818608E-02  0.1027581E+00
          2   -1    0    0  501    0  0.00000000000E+00  0.00000000000E+00  0.43409982646E+03  0.43409982647E+03  0.25500000000E-02 0.  1.
         -2   -1    0    0    0  501 -0.00000000000E+00 -0.00000000000E+00 -0.11686604250E+03  0.11686604253E+03  0.25500000000E-02 0. -1.
    5000001    1    1    2    0    0  0.13569265414E+03  0.37937639784E+02  0.84675839962E+02  0.23290933595E+03  0.16500000000E+03 0.  0.
   -5000001    1    1    2    0    0 -0.13569265414E+03 -0.37937639784E+02  0.23255794400E+03  0.31805653305E+03  0.16500000000E+03 0.  0.
<mgrwt>
<rscale>  0 0.45047321E+03</rscale>
<asrwt>0</asrwt>
<pdfrwt beam="1">  1        2 0.66784589E-01 0.45047321E+03</pdfrwt>
<pdfrwt beam="2">  1       -2 0.17979391E-01 0.45047321E+03</pdfrwt>
<totfact> 0.18518723E+03</totfact>
</mgrwt>
</event>
<event>
 4    1  0.8641621E-005  0.4174468E+03  0.7818608E-02  0.1037900E+00
         -2   -1    0    0    0  501 -0.00000000000E+00  0.00000000000E+00  0.13386101219E+03  0.13386101221E+03  0.25500000000E-02 0. -1.
          2   -1    0    0  501    0  0.00000000000E+00 -0.00000000000E+00 -0.32545293418E+03  0.32545293419E+03  0.25500000000E-02 0.  1.
    5000001    1    1    2    0    0  0.84563856067E+02  0.67922485451E+02 -0.17022614559E+03  0.26070375990E+03  0.16500000000E+03 0.  0.
   -5000001    1    1    2    0    0 -0.84563856067E+02 -0.67922485451E+02 -0.21365776399E+02  0.19861018651E+03  0.16500000000E+03 0.  0.
<mgrwt>
<rscale>  0 0.41744681E+03</rscale>
<asrwt>0</asrwt>
<pdfrwt beam="1">  1        2 0.50069682E-01 0.41744681E+03</pdfrwt>
<pdfrwt beam="2">  1       -2 0.20594002E-01 0.41744681E+03</pdfrwt>
<totfact> 0.20127960E+03</totfact>
</mgrwt>
</event>
<event>
 4    1  0.8641621E-005  0.4695616E+03  0.7818608E-02  0.1022044E+00
         -2   -1    0    0    0  501 -0.00000000000E+00  0.00000000000E+00  0.10322419822E+03  0.10322419825E+03  0.25500000000E-02 0. -1.
          2   -1    0    0  501    0  0.00000000000E+00 -0.00000000000E+00 -0.53400292902E+03  0.53400292902E+03  0.25500000000E-02 0.  1.
    5000001    1    1    2    0    0  0.16672228917E+03 -0.32419749557E+01 -0.22827737733E+03  0.32732612653E+03  0.16500000000E+03 0.  0.
   -5000001    1    1    2    0    0 -0.16672228917E+03  0.32419749557E+01 -0.20250135347E+03  0.30990100075E+03  0.16500000000E+03 0.  0.
<mgrwt>
<rscale>  0 0.46956160E+03</rscale>
<asrwt>0</asrwt>
<pdfrwt beam="1">  1        2 0.82154295E-01 0.46956160E+03</pdfrwt>
<pdfrwt beam="2">  1       -2 0.15880646E-01 0.46956160E+03</pdfrwt>
<totfact> 0.18071836E+03</totfact>
</mgrwt>
</event>
<event>
 4    1  0.8641621E-005  0.4772953E+03  0.7818608E-02  0.1019881E+00
         -2   -1    0    0    0  501 -0.00000000000E+00  0.00000000000E+00  0.51584455488E+02  0.51584455551E+02  0.25500000000E-02 0. -1.
          2   -1    0    0  501    0  0.00000000000E+00 -0.00000000000E+00 -0.11040669218E+04  0.11040669218E+04  0.25500000000E-02 0.  1.
    5000001    1    1    2    0    0 -0.14909292486E+03  0.37292660711E+02 -0.71547474974E+03  0.75016568857E+03  0.16500000000E+03 0.  0.
   -5000001    1    1    2    0    0  0.14909292486E+03 -0.37292660711E+02 -0.33700771659E+03  0.40548568881E+03  0.16500000000E+03 0.  0.
<mgrwt>
<rscale>  0 0.47729526E+03</rscale>
<asrwt>0</asrwt>
<pdfrwt beam="1">  1        2 0.16985643E+00 0.47729526E+03</pdfrwt>
<pdfrwt beam="2">  1       -2 0.79360709E-02 0.47729526E+03</pdfrwt>
<totfact> 0.21753672E+03</totfact>
</mgrwt>
</event>
<event>
 4    1  0.8641621E-005  0.3812083E+03  0.7818608E-02  0.1050488E+00
         -2   -1    0    0    0  501 -0.00000000000E+00  0.00000000000E+00  0.16415109030E+03  0.16415109032E+03  0.25500000000E-02 0. -1.
          2   -1    0    0  501    0  0.00000000000E+00 -0.00000000000E+00 -0.22132014594E+03  0.22132014596E+03  0.25500000000E-02 0.  1.
    5000001    1    1    2    0    0  0.61729292022E+02 -0.39041411395E+01 -0.10205511183E+03  0.20363200550E+03  0.16500000000E+03 0.  0.
   -5000001    1    1    2    0    0 -0.61729292022E+02  0.39041411395E+01  0.44886056195E+02  0.18183923078E+03  0.16500000000E+03 0.  0.
<mgrwt>
<rscale>  0 0.38120831E+03</rscale>
<asrwt>0</asrwt>
<pdfrwt beam="1">  1        2 0.34049253E-01 0.38120831E+03</pdfrwt>
<pdfrwt beam="2">  1       -2 0.25254014E-01 0.38120831E+03</pdfrwt>
<totfact> 0.21413538E+03</totfact>
</mgrwt>
</event>
<event>
 4    1  0.8641621E-005  0.7540649E+03  0.7818608E-02  0.9628995E-01
          2   -1    0    0  501    0  0.00000000000E+00  0.00000000000E+00  0.45226823983E+04  0.45226823983E+04  0.25500000000E-02 0.  1.
         -2   -1    0    0    0  501 -0.00000000000E+00 -0.00000000000E+00 -0.31431228892E+02  0.31431228995E+02  0.25500000000E-02 0. -1.
    5000001    1    1    2    0    0  0.42877314437E+02  0.29063376528E+03  0.32673770105E+04  0.32847045497E+04  0.16500000000E+03 0.  0.
   -5000001    1    1    2    0    0 -0.42877314437E+02 -0.29063376528E+03  0.12238741589E+04  0.12694090777E+04  0.16500000000E+03 0.  0.
<mgrwt>
<rscale>  0 0.75406489E+03</rscale>
<asrwt>0</asrwt>
<pdfrwt beam="1">  1        2 0.69579709E+00 0.75406489E+03</pdfrwt>
<pdfrwt beam="2">  1       -2 0.48355751E-02 0.75406489E+03</pdfrwt>
<totfact> 0.28814215E+01</totfact>
</mgrwt>
</event>
<event>
 4    1  0.8641621E-005  0.4956212E+03  0.7818608E-02  0.1014928E+00
         -2   -1    0    0    0  501 -0.00000000000E+00  0.00000000000E+00  0.32788274912E+02  0.32788275011E+02  0.25500000000E-02 0. -1.
          2   -1    0    0  501    0  0.00000000000E+00 -0.00000000000E+00 -0.18729284482E+04  0.18729284482E+04  0.25500000000E-02 0.  1.
    5000001    1    1    2    0    0 -0.49234444708E+02 -0.12278986799E+03 -0.14167250701E+04  0.14324232288E+04  0.16500000000E+03 0.  0.
   -5000001    1    1    2    0    0  0.49234444708E+02  0.12278986799E+03 -0.42341510323E+03  0.47329349443E+03  0.16500000000E+03 0.  0.
<mgrwt>
<rscale>  0 0.49562120E+03</rscale>
<asrwt>0</asrwt>
<pdfrwt beam="1">  1        2 0.28814275E+00 0.49562120E+03</pdfrwt>
<pdfrwt beam="2">  1       -2 0.50443515E-02 0.49562120E+03</pdfrwt>
<totfact> 0.16520964E+03</totfact>
</mgrwt>
</event>
<event>
 4    1  0.8641621E-005  0.3801380E+03  0.7818608E-02  0.1050883E+00
         -2   -1    0    0    0  501 -0.00000000000E+00  0.00000000000E+00  0.51582391841E+03  0.51582391841E+03  0.25500000000E-02 0. -1.
          2   -1    0    0  501    0  0.00000000000E+00 -0.00000000000E+00 -0.70035955062E+02  0.70035955108E+02  0.25500000000E-02 0.  1.
    5000001    1    1    2    0    0  0.28770492406E+02 -0.89599799871E+02  0.21251470561E+03  0.28503221830E+03  0.16500000000E+03 0.  0.
   -5000001    1    1    2    0    0 -0.28770492406E+02  0.89599799871E+02  0.23327325773E+03  0.30082765522E+03  0.16500000000E+03 0.  0.
<mgrwt>
<rscale>  0 0.38013798E+03</rscale>
<asrwt>0</asrwt>
<pdfrwt beam="1">  1        2 0.10774762E-01 0.38013798E+03</pdfrwt>
<pdfrwt beam="2">  1       -2 0.79357526E-01 0.38013798E+03</pdfrwt>
<totfact> 0.85186780E+02</totfact>
</mgrwt>
</event>
<event>
 4    1  0.8641621E-005  0.5337800E+03  0.7818608E-02  0.1005320E+00
         -2   -1    0    0    0  501 -0.00000000000E+00  0.00000000000E+00  0.84133345598E+02  0.84133345637E+02  0.25500000000E-02 0. -1.
          2   -1    0    0  501    0  0.00000000000E+00 -0.00000000000E+00 -0.84663553362E+03  0.84663553363E+03  0.25500000000E-02 0.  1.
    5000001    1    1    2    0    0 -0.56085942391E+02  0.57169468745E+02 -0.71933398907E+03  0.74234787594E+03  0.16500000000E+03 0.  0.
   -5000001    1    1    2    0    0  0.56085942391E+02 -0.57169468745E+02 -0.43168198957E+02  0.18842100332E+03  0.16500000000E+03 0.  0.
<mgrwt>
<rscale>  0 0.53378003E+03</rscale>
<asrwt>0</asrwt>
<pdfrwt beam="1">  1        2 0.13025161E+00 0.53378003E+03</pdfrwt>
<pdfrwt beam="2">  1       -2 0.12943592E-01 0.53378003E+03</pdfrwt>
<totfact> 0.14387875E+03</totfact>
</mgrwt>
</event>
<event>
 4    1  0.8641621E-005  0.4178975E+03  0.7818608E-02  0.1037753E+00
         -2   -1    0    0    0  501 -0.00000000000E+00  0.00000000000E+00  0.21947913154E+02  0.21947913302E+02  0.25500000000E-02 0. -1.
          2   -1    0    0  501    0  0.00000000000E+00 -0.00000000000E+00 -0.19892361353E+04  0.19892361353E+04  0.25500000000E-02 0.  1.
    5000001    1    1    2    0    0  0.14807427918E+02 -0.12692829977E+03 -0.93444013528E+03  0.95746196772E+03  0.16500000000E+03 0.  0.
   -5000001    1    1    2    0    0 -0.14807427918E+02  0.12692829977E+03 -0.10328480869E+04  0.10537220809E+04  0.16500000000E+03 0.  0.
<mgrwt>
<rscale>  0 0.41789751E+03</rscale>
<asrwt>0</asrwt>
<pdfrwt beam="1">  1        2 0.30603619E+00 0.41789751E+03</pdfrwt>
<pdfrwt beam="2">  1       -2 0.33766036E-02 0.41789751E+03</pdfrwt>
<totfact> 0.26534256E+03</totfact>
</mgrwt>
</event>
<event>
 4    1  0.8641621E-005  0.4961064E+03  0.7818608E-02  0.1014800E+00
          2   -1    0    0  501    0  0.00000000000E+00  0.00000000000E+00  0.32543071637E+03  0.32543071638E+03  0.25500000000E-02 0.  1.
         -2   -1    0    0    0  501 -0.00000000000E+00 -0.00000000000E+00 -0.18907367463E+03  0.18907367464E+03  0.25500000000E-02 0. -1.
    5000001    1    1    2    0    0 -0.15549626835E+03  0.97591269002E+02  0.42727940541E+02  0.25050712996E+03  0.16500000000E+03 0.  0.
   -5000001    1    1    2    0    0  0.15549626835E+03 -0.97591269002E+02  0.93629101198E+02  0.26399726106E+03  0.16500000000E+03 0.  0.
<mgrwt>
<rscale>  0 0.49610637E+03</rscale>
<asrwt>0</asrwt>
<pdfrwt beam="1">  1        2 0.50066264E-01 0.49610637E+03</pdfrwt>
<pdfrwt beam="2">  1       -2 0.29088258E-01 0.49610637E+03</pdfrwt>
<totfact> 0.10891898E+03</totfact>
</mgrwt>
</event>
<event>
 4    1  0.8641621E-005  0.4240003E+03  0.7818608E-02  0.1035772E+00
          2   -1    0    0  501    0  0.00000000000E+00  0.00000000000E+00  0.40789578168E+03  0.40789578169E+03  0.25500000000E-02 0.  1.
         -2   -1    0    0    0  501 -0.00000000000E+00 -0.00000000000E+00 -0.11018515897E+03  0.11018515900E+03  0.25500000000E-02 0. -1.
    5000001    1    1    2    0    0  0.10242473527E+03 -0.84054249502E+02  0.16446099526E+03  0.26800813834E+03  0.16500000000E+03 0.  0.
   -5000001    1    1    2    0    0 -0.10242473527E+03  0.84054249502E+02  0.13324962745E+03  0.25007280234E+03  0.16500000000E+03 0.  0.
<mgrwt>
<rscale>  0 0.42400029E+03</rscale>
<asrwt>0</asrwt>
<pdfrwt beam="1">  1        2 0.62753198E-01 0.42400029E+03</pdfrwt>
<pdfrwt beam="2">  1       -2 0.16951563E-01 0.42400029E+03</pdfrwt>
<totfact> 0.21925357E+03</totfact>
</mgrwt>
</event>
<event>
 4    1  0.8641621E-005  0.4447426E+03  0.7818608E-02  0.1029302E+00
         -2   -1    0    0    0  501 -0.00000000000E+00  0.00000000000E+00  0.46782738669E+02  0.46782738739E+02  0.25500000000E-02 0. -1.
          2   -1    0    0  501    0  0.00000000000E+00 -0.00000000000E+00 -0.10569923054E+04  0.10569923054E+04  0.25500000000E-02 0.  1.
    5000001    1    1    2    0    0 -0.11683827431E+03 -0.19390277457E+02 -0.72980050095E+03  0.75753609577E+03  0.16500000000E+03 0.  0.
   -5000001    1    1    2    0    0  0.11683827431E+03  0.19390277457E+02 -0.28040906582E+03  0.34623894841E+03  0.16500000000E+03 0.  0.
<mgrwt>
<rscale>  0 0.44474260E+03</rscale>
<asrwt>0</asrwt>
<pdfrwt beam="1">  1        2 0.16261418E+00 0.44474260E+03</pdfrwt>
<pdfrwt beam="2">  1       -2 0.71973452E-02 0.44474260E+03</pdfrwt>
<totfact> 0.27107273E+03</totfact>
</mgrwt>
</event>
<event>
 4    1  0.8641621E-005  0.3508399E+03  0.7818608E-02  0.1062271E+00
         -2   -1    0    0    0  501 -0.00000000000E+00  0.00000000000E+00  0.20295338658E+03  0.20295338659E+03  0.25500000000E-02 0. -1.
          2   -1    0    0  501    0  0.00000000000E+00 -0.00000000000E+00 -0.15162182476E+03  0.15162182478E+03  0.25500000000E-02 0.  1.
    5000001    1    1    2    0    0  0.12465322591E+02  0.57489716755E+02  0.35076796961E+02  0.17865003074E+03  0.16500000000E+03 0.  0.
   -5000001    1    1    2    0    0 -0.12465322591E+02 -0.57489716755E+02  0.16254764854E+02  0.17592518063E+03  0.16500000000E+03 0.  0.
<mgrwt>
<rscale>  0 0.35083992E+03</rscale>
<asrwt>0</asrwt>
<pdfrwt beam="1">  1        2 0.23326435E-01 0.35083992E+03</pdfrwt>
<pdfrwt beam="2">  1       -2 0.31223598E-01 0.35083992E+03</pdfrwt>
<totfact> 0.22212811E+03</totfact>
</mgrwt>
</event>
<event>
 4    1  0.8641621E-005  0.4131364E+03  0.7818608E-02  0.1039324E+00
          2   -1    0    0  501    0  0.00000000000E+00  0.00000000000E+00  0.13848381204E+04  0.13848381204E+04  0.25500000000E-02 0.  1.
         -2   -1    0    0    0  501 -0.00000000000E+00 -0.00000000000E+00 -0.30812576477E+02  0.30812576583E+02  0.25500000000E-02 0. -1.
    5000001    1    1    2    0    0 -0.11218639737E+03 -0.10137805950E+02  0.85692909296E+03  0.87990967334E+03  0.16500000000E+03 0.  0.
   -5000001    1    1    2    0    0  0.11218639737E+03  0.10137805950E+02  0.49709645095E+03  0.53574102364E+03  0.16500000000E+03 0.  0.
<mgrwt>
<rscale>  0 0.41313645E+03</rscale>
<asrwt>0</asrwt>
<pdfrwt beam="1">  1        2 0.21305203E+00 0.41313645E+03</pdfrwt>
<pdfrwt beam="2">  1       -2 0.47403962E-02 0.41313645E+03</pdfrwt>
<totfact> 0.33504903E+03</totfact>
</mgrwt>
</event>
<event>
 4    1  0.8641621E-005  0.5371196E+03  0.7818608E-02  0.1004520E+00
         -2   -1    0    0    0  501 -0.00000000000E+00  0.00000000000E+00  0.19583131831E+03  0.19583131833E+03  0.25500000000E-02 0.  1.
          2   -1    0    0  501    0  0.00000000000E+00 -0.00000000000E+00 -0.36829836944E+03  0.36829836945E+03  0.25500000000E-02 0. -1.
    5000001    1    1    2    0    0 -0.18478601181E+03  0.10242067823E+03 -0.10328216947E+03  0.28727699529E+03  0.16500000000E+03 0.  0.
   -5000001    1    1    2    0    0  0.18478601181E+03 -0.10242067823E+03 -0.69184881653E+02  0.27685269249E+03  0.16500000000E+03 0.  0.
<mgrwt>
<rscale>  0 0.53711956E+03</rscale>
<asrwt>0</asrwt>
<pdfrwt beam="1">  1        2 0.56661288E-01 0.53711956E+03</pdfrwt>
<pdfrwt beam="2">  1       -2 0.30127895E-01 0.53711956E+03</pdfrwt>
<totfact> 0.89054736E+02</totfact>
</mgrwt>
</event>
<event>
 4    1  0.8641621E-005  0.6961290E+03  0.7818608E-02  0.9723875E-01
          2   -1    0    0  501    0  0.00000000000E+00  0.00000000000E+00  0.61854567216E+03  0.61854567216E+03  0.25500000000E-02 0.  1.
         -2   -1    0    0    0  501 -0.00000000000E+00 -0.00000000000E+00 -0.19586087488E+03  0.19586087490E+03  0.25500000000E-02 0. -1.
    5000001    1    1    2    0    0 -0.24284703902E+03 -0.11067672219E+03  0.35078543223E+02  0.31572064454E+03  0.16500000000E+03 0.  0.
   -5000001    1    1    2    0    0  0.24284703902E+03  0.11067672219E+03  0.38760625405E+03  0.49868590252E+03  0.16500000000E+03 0.  0.
<mgrwt>
<rscale>  0 0.69612900E+03</rscale>
<asrwt>0</asrwt>
<pdfrwt beam="1">  1        2 0.95160873E-01 0.69612900E+03</pdfrwt>
<pdfrwt beam="2">  1       -2 0.30132442E-01 0.69612900E+03</pdfrwt>
<totfact> 0.48900309E+02</totfact>
</mgrwt>
</event>
<event>
 4    1  0.8641621E-005  0.3480761E+03  0.7818608E-02  0.1063407E+00
          2   -1    0    0  501    0  0.00000000000E+00  0.00000000000E+00  0.16517081894E+03  0.16517081896E+03  0.25500000000E-02 0.  1.
         -2   -1    0    0    0  501 -0.00000000000E+00 -0.00000000000E+00 -0.18338135631E+03  0.18338135633E+03  0.25500000000E-02 0. -1.
    5000001    1    1    2    0    0  0.51942370084E+02 -0.15016602183E+02 -0.20984910250E+02  0.17489675414E+03  0.16500000000E+03 0.  0.
   -5000001    1    1    2    0    0 -0.51942370084E+02  0.15016602183E+02  0.27743728825E+01  0.17365542115E+03  0.16500000000E+03 0.  0.
<mgrwt>
<rscale>  0 0.34807613E+03</rscale>
<asrwt>0</asrwt>
<pdfrwt beam="1">  1        2 0.25410895E-01 0.34807613E+03</pdfrwt>
<pdfrwt beam="2">  1       -2 0.28212516E-01 0.34807613E+03</pdfrwt>
<totfact> 0.24258788E+03</totfact>
</mgrwt>
</event>
<event>
 4    1  0.8641621E-005  0.4587692E+03  0.7818608E-02  0.1025139E+00
         -2   -1    0    0    0  501 -0.00000000000E+00  0.00000000000E+00  0.40723667336E+02  0.40723667416E+02  0.25500000000E-02 0. -1.
          2   -1    0    0  501    0  0.00000000000E+00 -0.00000000000E+00 -0.12920569952E+04  0.12920569952E+04  0.25500000000E-02 0.  1.
    5000001    1    1    2    0    0  0.61569817183E+02 -0.14237725032E+03 -0.51971229135E+03  0.56691091856E+03  0.16500000000E+03 0.  0.
   -5000001    1    1    2    0    0 -0.61569817183E+02  0.14237725032E+03 -0.73162103646E+03  0.76586974401E+03  0.16500000000E+03 0.  0.
<mgrwt>
<rscale>  0 0.45876922E+03</rscale>
<asrwt>0</asrwt>
<pdfrwt beam="1">  1        2 0.19877797E+00 0.45876922E+03</pdfrwt>
<pdfrwt beam="2">  1       -2 0.62651806E-02 0.45876922E+03</pdfrwt>
<totfact> 0.24523183E+03</totfact>
</mgrwt>
</event>
<event>
 4    1  0.8641621E-005  0.5751036E+03  0.7818608E-02  0.9958448E-01
          2   -1    0    0  501    0  0.00000000000E+00  0.00000000000E+00  0.51770797768E+03  0.51770797768E+03  0.25500000000E-02 0.  1.
         -2   -1    0    0    0  501 -0.00000000000E+00 -0.00000000000E+00 -0.15971562143E+03  0.15971562145E+03  0.25500000000E-02 0. -1.
    5000001    1    1    2    0    0  0.18406516424E+03  0.85760942777E+02  0.38502252855E+02  0.26446615562E+03  0.16500000000E+03 0.  0.
   -5000001    1    1    2    0    0 -0.18406516424E+03 -0.85760942777E+02  0.31949010339E+03  0.41295744352E+03  0.16500000000E+03 0.  0.
<mgrwt>
<rscale>  0 0.57510365E+03</rscale>
<asrwt>0</asrwt>
<pdfrwt beam="1">  1        2 0.79647382E-01 0.57510365E+03</pdfrwt>
<pdfrwt beam="2">  1       -2 0.24571634E-01 0.57510365E+03</pdfrwt>
<totfact> 0.87790747E+02</totfact>
</mgrwt>
</event>
<event>
 4    1  0.8641621E-005  0.5194043E+03  0.7818608E-02  0.1008835E+00
         -2   -1    0    0    0  501 -0.00000000000E+00  0.00000000000E+00  0.34598331470E+02  0.34598331564E+02  0.25500000000E-02 0. -1.
          2   -1    0    0  501    0  0.00000000000E+00 -0.00000000000E+00 -0.19493773621E+04  0.19493773621E+04  0.25500000000E-02 0.  1.
    5000001    1    1    2    0    0 -0.33654317361E+02  0.52311811754E+02 -0.22912460160E+03  0.28912319482E+03  0.16500000000E+03 0.  0.
   -5000001    1    1    2    0    0  0.33654317361E+02 -0.52311811754E+02 -0.16856544290E+04  0.16948524988E+04  0.16500000000E+03 0.  0.
<mgrwt>
<rscale>  0 0.51940429E+03</rscale>
<asrwt>0</asrwt>
<pdfrwt beam="1">  1        2 0.29990412E+00 0.51940429E+03</pdfrwt>
<pdfrwt beam="2">  1       -2 0.53228217E-02 0.51940429E+03</pdfrwt>
<totfact> 0.13811435E+03</totfact>
</mgrwt>
</event>
<event>
 4    1  0.8641621E-005  0.4151618E+03  0.7818608E-02  0.1038653E+00
         -2   -1    0    0    0  501 -0.00000000000E+00  0.00000000000E+00  0.17087916618E+03  0.17087916620E+03  0.25500000000E-02 0. -1.
          2   -1    0    0  501    0  0.00000000000E+00 -0.00000000000E+00 -0.25216546476E+03  0.25216546477E+03  0.25500000000E-02 0.  1.
    5000001    1    1    2    0    0  0.17040880514E+02  0.12445033384E+03 -0.31163434960E+02  0.20970082708E+03  0.16500000000E+03 0.  0.
   -5000001    1    1    2    0    0 -0.17040880514E+02 -0.12445033384E+03 -0.50122863617E+02  0.21334380389E+03  0.16500000000E+03 0.  0.
<mgrwt>
<rscale>  0 0.41516177E+03</rscale>
<asrwt>0</asrwt>
<pdfrwt beam="1">  1        2 0.38794687E-01 0.41516177E+03</pdfrwt>
<pdfrwt beam="2">  1       -2 0.26289102E-01 0.41516177E+03</pdfrwt>
<totfact> 0.17288606E+03</totfact>
</mgrwt>
</event>
<event>
 4    1  0.8641621E-005  0.4758803E+03  0.7818608E-02  0.1020274E+00
          2   -1    0    0  501    0  0.00000000000E+00  0.00000000000E+00  0.69670343626E+03  0.69670343627E+03  0.25500000000E-02 0.  1.
         -2   -1    0    0    0  501 -0.00000000000E+00 -0.00000000000E+00 -0.81261997053E+02  0.81261997093E+02  0.25500000000E-02 0. -1.
    5000001    1    1    2    0    0 -0.46278547577E+02 -0.14561086293E+03  0.43483867496E+03  0.48954458490E+03  0.16500000000E+03 0.  0.
   -5000001    1    1    2    0    0  0.46278547577E+02  0.14561086293E+03  0.18060276425E+03  0.28842084846E+03  0.16500000000E+03 0.  0.
<mgrwt>
<rscale>  0 0.47588029E+03</rscale>
<asrwt>0</asrwt>
<pdfrwt beam="1">  1        2 0.10718514E+00 0.47588029E+03</pdfrwt>
<pdfrwt beam="2">  1       -2 0.12501846E-01 0.47588029E+03</pdfrwt>
<totfact> 0.19586605E+03</totfact>
</mgrwt>
</event>
<event>
 4    1  0.8641621E-005  0.5767620E+03  0.7818608E-02  0.9954826E-01
          2   -1    0    0  501    0  0.00000000000E+00  0.00000000000E+00  0.10953672669E+04  0.10953672669E+04  0.25500000000E-02 0.  1.
         -2   -1    0    0    0  501 -0.00000000000E+00 -0.00000000000E+00 -0.75923029073E+02  0.75923029115E+02  0.25500000000E-02 0. -1.
    5000001    1    1    2    0    0  0.17728247419E+03 -0.15432554750E+03  0.45625562415E+03  0.53911004891E+03  0.16500000000E+03 0.  0.
   -5000001    1    1    2    0    0 -0.17728247419E+03  0.15432554750E+03  0.56318861372E+03  0.63218024715E+03  0.16500000000E+03 0.  0.
<mgrwt>
<rscale>  0 0.57676200E+03</rscale>
<asrwt>0</asrwt>
<pdfrwt beam="1">  1        2 0.16851802E+00 0.57676200E+03</pdfrwt>
<pdfrwt beam="2">  1       -2 0.11680467E-01 0.57676200E+03</pdfrwt>
<totfact> 0.11783656E+03</totfact>
</mgrwt>
</event>
<event>
 4    1  0.8641621E-005  0.4962917E+03  0.7818608E-02  0.1014751E+00
         -2   -1    0    0    0  501 -0.00000000000E+00  0.00000000000E+00  0.56442441543E+02  0.56442441600E+02  0.25500000000E-02 0. -1.
          2   -1    0    0  501    0  0.00000000000E+00 -0.00000000000E+00 -0.10909585778E+04  0.10909585778E+04  0.25500000000E-02 0.  1.
    5000001    1    1    2    0    0 -0.17052235558E+03  0.47602150463E+02 -0.64404748333E+03  0.68801598765E+03  0.16500000000E+03 0.  0.
   -5000001    1    1    2    0    0  0.17052235558E+03 -0.47602150463E+02 -0.39046865296E+03  0.45938503179E+03  0.16500000000E+03 0.  0.
<mgrwt>
<rscale>  0 0.49629171E+03</rscale>
<asrwt>0</asrwt>
<pdfrwt beam="1">  1        2 0.16783977E+00 0.49629171E+03</pdfrwt>
<pdfrwt beam="2">  1       -2 0.86834533E-02 0.49629171E+03</pdfrwt>
<totfact> 0.19193372E+03</totfact>
</mgrwt>
</event>
<event>
 4    1  0.8641621E-005  0.4500150E+03  0.7818608E-02  0.1027718E+00
         -2   -1    0    0    0  501 -0.00000000000E+00  0.00000000000E+00  0.48419457421E+02  0.48419457488E+02  0.25500000000E-02 0. -1.
          2   -1    0    0  501    0  0.00000000000E+00 -0.00000000000E+00 -0.10456205478E+04  0.10456205478E+04  0.25500000000E-02 0.  1.
    5000001    1    1    2    0    0  0.11488225195E+03 -0.99483613972E+02 -0.54129824417E+03  0.58593831621E+03  0.16500000000E+03 0.  0.
   -5000001    1    1    2    0    0 -0.11488225195E+03  0.99483613972E+02 -0.45590284621E+03  0.50810168908E+03  0.16500000000E+03 0.  0.
<mgrwt>
<rscale>  0 0.45001502E+03</rscale>
<asrwt>0</asrwt>
<pdfrwt beam="1">  1        2 0.16086468E+00 0.45001502E+03</pdfrwt>
<pdfrwt beam="2">  1       -2 0.74491481E-02 0.45001502E+03</pdfrwt>
<totfact> 0.26093386E+03</totfact>
</mgrwt>
</event>
<event>
 4    1  0.8641621E-005  0.4718091E+03  0.7818608E-02  0.1021411E+00
         -2   -1    0    0    0  501 -0.00000000000E+00  0.00000000000E+00  0.43450113156E+02  0.43450113230E+02  0.25500000000E-02 0. -1.
          2   -1    0    0  501    0  0.00000000000E+00 -0.00000000000E+00 -0.12808013647E+04  0.12808013647E+04  0.25500000000E-02 0.  1.
    5000001    1    1    2    0    0 -0.90865955367E+02 -0.12628357601E+03 -0.43630579467E+03  0.49172340790E+03  0.16500000000E+03 0.  0.
   -5000001    1    1    2    0    0  0.90865955367E+02  0.12628357601E+03 -0.80104545692E+03  0.83252807008E+03  0.16500000000E+03 0.  0.
<mgrwt>
<rscale>  0 0.47180913E+03</rscale>
<asrwt>0</asrwt>
<pdfrwt beam="1">  1        2 0.19704634E+00 0.47180913E+03</pdfrwt>
<pdfrwt beam="2">  1       -2 0.66846338E-02 0.47180913E+03</pdfrwt>
<totfact> 0.22483609E+03</totfact>
</mgrwt>
</event>
<event>
 4    1  0.8641621E-005  0.6065602E+03  0.7818608E-02  0.9891889E-01
          2   -1    0    0  501    0  0.00000000000E+00  0.00000000000E+00  0.35026963516E+03  0.35026963517E+03  0.25500000000E-02 0.  1.
         -2   -1    0    0    0  501 -0.00000000000E+00 -0.00000000000E+00 -0.26259429340E+03  0.26259429341E+03  0.25500000000E-02 0. -1.
    5000001    1    1    2    0    0  0.10685829508E+03 -0.17239488706E+03  0.19910683353E+03  0.32864452448E+03  0.16500000000E+03 0.  0.
   -5000001    1    1    2    0    0 -0.10685829508E+03  0.17239488706E+03 -0.11143149177E+03  0.28421940410E+03  0.16500000000E+03 0.  0.
<mgrwt>
<rscale>  0 0.60656016E+03</rscale>
<asrwt>0</asrwt>
<pdfrwt beam="1">  1        2 0.53887636E-01 0.60656016E+03</pdfrwt>
<pdfrwt beam="2">  1       -2 0.40399122E-01 0.60656016E+03</pdfrwt>
<totfact> 0.53967059E+02</totfact>
</mgrwt>
</event>
<event>
 4    1  0.8641621E-005  0.1033715E+04  0.7818608E-02  0.9272320E-01
         -2   -1    0    0    0  501 -0.00000000000E+00  0.00000000000E+00  0.15408846499E+03  0.15408846501E+03  0.25500000000E-02 0. -1.
          2   -1    0    0  501    0  0.00000000000E+00 -0.00000000000E+00 -0.17336918045E+04  0.17336918045E+04  0.25500000000E-02 0.  1.
    5000001    1    1    2    0    0 -0.14678395975E+03  0.41528993789E+03 -0.11810779168E+04  0.12712911975E+04  0.16500000000E+03 0.  0.
   -5000001    1    1    2    0    0  0.14678395975E+03 -0.41528993789E+03 -0.39852542278E+03  0.61648907205E+03  0.16500000000E+03 0.  0.
<mgrwt>
<rscale>  0 0.10337155E+04</rscale>
<asrwt>0</asrwt>
<pdfrwt beam="1">  1        2 0.26672180E+00 0.10337155E+04</pdfrwt>
<pdfrwt beam="2">  1       -2 0.23705919E-01 0.10337155E+04</pdfrwt>
<totfact> 0.14790869E+02</totfact>
</mgrwt>
</event>
<event>
 4    1  0.8641621E-005  0.7474654E+03  0.7818608E-02  0.9639335E-01
          2   -1    0    0  501    0  0.00000000000E+00  0.00000000000E+00  0.58797741180E+03  0.58797741180E+03  0.25500000000E-02 0.  1.
         -2   -1    0    0    0  501 -0.00000000000E+00 -0.00000000000E+00 -0.23755354840E+03  0.23755354841E+03  0.25500000000E-02 0. -1.
    5000001    1    1    2    0    0 -0.15235440880E+03 -0.22667848427E+03  0.39009902645E+03  0.50398140000E+03  0.16500000000E+03 0.  0.
   -5000001    1    1    2    0    0  0.15235440880E+03  0.22667848427E+03 -0.39675163056E+02  0.32154956021E+03  0.16500000000E+03 0.  0.
<mgrwt>
<rscale>  0 0.74746537E+03</rscale>
<asrwt>0</asrwt>
<pdfrwt beam="1">  1        2 0.90458062E-01 0.74746537E+03</pdfrwt>
<pdfrwt beam="2">  1       -2 0.36546700E-01 0.74746537E+03</pdfrwt>
<totfact> 0.36068483E+02</totfact>
</mgrwt>
</event>
<event>
 4    1  0.8641621E-005  0.4915759E+03  0.7818608E-02  0.1016001E+00
         -2   -1    0    0    0  501 -0.00000000000E+00  0.00000000000E+00  0.50429554120E+02  0.50429554185E+02  0.25500000000E-02 0. -1.
          2   -1    0    0  501    0  0.00000000000E+00 -0.00000000000E+00 -0.11979425639E+04  0.11979425639E+04  0.25500000000E-02 0.  1.
    5000001    1    1    2    0    0  0.17996979944E+03  0.13617532618E+02 -0.51092461518E+03  0.56643051498E+03  0.16500000000E+03 0.  0.
   -5000001    1    1    2    0    0 -0.17996979944E+03 -0.13617532618E+02 -0.63658839460E+03  0.68194160310E+03  0.16500000000E+03 0.  0.
<mgrwt>
<rscale>  0 0.49157587E+03</rscale>
<asrwt>0</asrwt>
<pdfrwt beam="1">  1        2 0.18429883E+00 0.49157587E+03</pdfrwt>
<pdfrwt beam="2">  1       -2 0.77583938E-02 0.49157587E+03</pdfrwt>
<totfact> 0.19838417E+03</totfact>
</mgrwt>
</event>
<event>
 4    1  0.8641621E-005  0.3574798E+03  0.7818608E-02  0.1059586E+00
         -2   -1    0    0    0  501 -0.00000000000E+00  0.00000000000E+00  0.84341717232E+02  0.84341717270E+02  0.25500000000E-02 0. -1.
          2   -1    0    0  501    0  0.00000000000E+00 -0.00000000000E+00 -0.37879183780E+03  0.37879183781E+03  0.25500000000E-02 0.  1.
    5000001    1    1    2    0    0  0.68585106658E+02  0.65998325890E+00 -0.14163739380E+03  0.22801426217E+03  0.16500000000E+03 0.  0.
   -5000001    1    1    2    0    0 -0.68585106658E+02 -0.65998325890E+00 -0.15281272677E+03  0.23511929291E+03  0.16500000000E+03 0.  0.
<mgrwt>
<rscale>  0 0.35747981E+03</rscale>
<asrwt>0</asrwt>
<pdfrwt beam="1">  1        2 0.58275666E-01 0.35747981E+03</pdfrwt>
<pdfrwt beam="2">  1       -2 0.12975649E-01 0.35747981E+03</pdfrwt>
<totfact> 0.37024791E+03</totfact>
</mgrwt>
</event>
<event>
 4    1  0.8641621E-005  0.5781559E+03  0.7818608E-02  0.9951791E-01
         -2   -1    0    0    0  501 -0.00000000000E+00  0.00000000000E+00  0.11185713837E+03  0.11185713839E+03  0.25500000000E-02 0.  1.
          2   -1    0    0  501    0  0.00000000000E+00 -0.00000000000E+00 -0.74707851346E+03  0.74707851346E+03  0.25500000000E-02 0. -1.
    5000001    1    1    2    0    0  0.12715565062E+03 -0.18023339469E+03 -0.44787769956E+03  0.52580611428E+03  0.16500000000E+03 0.  0.
   -5000001    1    1    2    0    0 -0.12715565062E+03  0.18023339469E+03 -0.18734367553E+03  0.33312953758E+03  0.16500000000E+03 0.  0.
<mgrwt>
<rscale>  0 0.57815591E+03</rscale>
<asrwt>0</asrwt>
<pdfrwt beam="1">  1        2 0.11493515E+00 0.57815591E+03</pdfrwt>
<pdfrwt beam="2">  1       -2 0.17208791E-01 0.57815591E+03</pdfrwt>
<totfact> 0.10491971E+03</totfact>
</mgrwt>
</event>
<event>
 4    1  0.8641621E-005  0.3669916E+03  0.7818608E-02  0.1055849E+00
          2   -1    0    0  501    0  0.00000000000E+00  0.00000000000E+00  0.27456867371E+04  0.27456867371E+04  0.25500000000E-02 0.  1.
         -2   -1    0    0    0  501 -0.00000000000E+00 -0.00000000000E+00 -0.12263125377E+02  0.12263125642E+02  0.25500000000E-02 0. -1.
    5000001    1    1    2    0    0  0.52751666865E+02  0.51947498311E+02  0.11333319189E+04  0.11476704750E+04  0.16500000000E+03 0.  0.
   -5000001    1    1    2    0    0 -0.52751666865E+02 -0.51947498311E+02  0.16000916928E+04  0.16102793877E+04  0.16500000000E+03 0.  0.
<mgrwt>
<rscale>  0 0.36699156E+03</rscale>
<asrwt>0</asrwt>
<pdfrwt beam="1">  1        2 0.42241329E+00 0.36699156E+03</pdfrwt>
<pdfrwt beam="2">  1       -2 0.18866349E-02 0.36699156E+03</pdfrwt>
<totfact> 0.24440437E+03</totfact>
</mgrwt>
</event>
<event>
 4    1  0.8641621E-005  0.3585221E+03  0.7818608E-02  0.1059171E+00
         -2   -1    0    0    0  501 -0.00000000000E+00  0.00000000000E+00  0.44346079116E+02  0.44346079190E+02  0.25500000000E-02 0. -1.
          2   -1    0    0  501    0  0.00000000000E+00 -0.00000000000E+00 -0.72463068527E+03  0.72463068527E+03  0.25500000000E-02 0.  1.
    5000001    1    1    2    0    0  0.55658918704E+02  0.13827302775E+02 -0.25380249659E+03  0.30810682694E+03  0.16500000000E+03 0.  0.
   -5000001    1    1    2    0    0 -0.55658918704E+02 -0.13827302775E+02 -0.42648210956E+03  0.46086993752E+03  0.16500000000E+03 0.  0.
<mgrwt>
<rscale>  0 0.35852213E+03</rscale>
<asrwt>0</asrwt>
<pdfrwt beam="1">  1        2 0.11148164E+00 0.35852213E+03</pdfrwt>
<pdfrwt beam="2">  1       -2 0.68224742E-02 0.35852213E+03</pdfrwt>
<totfact> 0.48969890E+03</totfact>
</mgrwt>
</event>
<event>
 4    1  0.8641621E-005  0.7170985E+03  0.7818608E-02  0.9688430E-01
          2   -1    0    0  501    0  0.00000000000E+00  0.00000000000E+00  0.56965427270E+03  0.56965427271E+03  0.25500000000E-02 0.  1.
         -2   -1    0    0    0  501 -0.00000000000E+00 -0.00000000000E+00 -0.22567644433E+03  0.22567644435E+03  0.25500000000E-02 0. -1.
    5000001    1    1    2    0    0  0.18234304693E+03 -0.24729575609E+03  0.26430653354E+03  0.43759241471E+03  0.16500000000E+03 0.  0.
   -5000001    1    1    2    0    0 -0.18234304693E+03  0.24729575609E+03  0.79671294830E+02  0.35773830234E+03  0.16500000000E+03 0.  0.
<mgrwt>
<rscale>  0 0.71709846E+03</rscale>
<asrwt>0</asrwt>
<pdfrwt beam="1">  1        2 0.87639117E-01 0.71709846E+03</pdfrwt>
<pdfrwt beam="2">  1       -2 0.34719454E-01 0.71709846E+03</pdfrwt>
<totfact> 0.41353462E+02</totfact>
</mgrwt>
</event>
<event>
 4    1  0.8641621E-005  0.4090951E+03  0.7818608E-02  0.1040675E+00
         -2   -1    0    0    0  501 -0.00000000000E+00  0.00000000000E+00  0.10801757147E+04  0.10801757147E+04  0.25500000000E-02 0. -1.
          2   -1    0    0  501    0  0.00000000000E+00 -0.00000000000E+00 -0.38734163038E+02  0.38734163122E+02  0.25500000000E-02 0.  1.
    5000001    1    1    2    0    0 -0.57047519758E+02  0.81739357158E+02  0.70780858886E+03  0.73358962676E+03  0.16500000000E+03 0.  0.
   -5000001    1    1    2    0    0  0.57047519758E+02 -0.81739357158E+02  0.33363296282E+03  0.38532025109E+03  0.16500000000E+03 0.  0.
<mgrwt>
<rscale>  0 0.40909511E+03</rscale>
<asrwt>0</asrwt>
<pdfrwt beam="1">  1        2 0.59591029E-02 0.40909511E+03</pdfrwt>
<pdfrwt beam="2">  1       -2 0.16618085E+00 0.40909511E+03</pdfrwt>
<totfact> 0.30213815E+02</totfact>
</mgrwt>
</event>
<event>
 4    1  0.8641621E-005  0.5294783E+03  0.7818608E-02  0.1006359E+00
         -2   -1    0    0    0  501 -0.00000000000E+00  0.00000000000E+00  0.10086391229E+03  0.10086391233E+03  0.25500000000E-02 0. -1.
          2   -1    0    0  501    0  0.00000000000E+00 -0.00000000000E+00 -0.69486520555E+03  0.69486520555E+03  0.25500000000E-02 0.  1.
    5000001    1    1    2    0    0 -0.15640054716E+03 -0.42417939355E+02 -0.10336310492E+03  0.25331668754E+03  0.16500000000E+03 0.  0.
   -5000001    1    1    2    0    0  0.15640054716E+03  0.42417939355E+02 -0.49063818834E+03  0.54241243034E+03  0.16500000000E+03 0.  0.
<mgrwt>
<rscale>  0 0.52947832E+03</rscale>
<asrwt>0</asrwt>
<pdfrwt beam="1">  1        2 0.10690234E+00 0.52947832E+03</pdfrwt>
<pdfrwt beam="2">  1       -2 0.15517525E-01 0.52947832E+03</pdfrwt>
<totfact> 0.13711144E+03</totfact>
</mgrwt>
</event>
<event>
 4    1  0.8641621E-005  0.4491673E+03  0.7818608E-02  0.1027971E+00
          2   -1    0    0  501    0  0.00000000000E+00  0.00000000000E+00  0.36694353270E+03  0.36694353270E+03  0.25500000000E-02 0.  1.
         -2   -1    0    0    0  501 -0.00000000000E+00 -0.00000000000E+00 -0.13745390140E+03  0.13745390143E+03  0.25500000000E-02 0. -1.
    5000001    1    1    2    0    0  0.10905086164E+03  0.96445995899E+02  0.64287739359E+02  0.22924186786E+03  0.16500000000E+03 0.  0.
   -5000001    1    1    2    0    0 -0.10905086164E+03 -0.96445995899E+02  0.16520189193E+03  0.27515556627E+03  0.16500000000E+03 0.  0.
<mgrwt>
<rscale>  0 0.44916732E+03</rscale>
<asrwt>0</asrwt>
<pdfrwt beam="1">  1        2 0.56452852E-01 0.44916732E+03</pdfrwt>
<pdfrwt beam="2">  1       -2 0.21146754E-01 0.44916732E+03</pdfrwt>
<totfact> 0.16860573E+03</totfact>
</mgrwt>
</event>
<event>
 4    1  0.8641621E-005  0.4611842E+03  0.7818608E-02  0.1024438E+00
         -2   -1    0    0    0  501 -0.00000000000E+00  0.00000000000E+00  0.27957792086E+02  0.27957792202E+02  0.25500000000E-02 0. -1.
          2   -1    0    0  501    0  0.00000000000E+00 -0.00000000000E+00 -0.19018927801E+04  0.19018927801E+04  0.25500000000E-02 0.  1.
    5000001    1    1    2    0    0 -0.14515993050E+03  0.33146634424E+02 -0.67977501201E+03  0.71518471163E+03  0.16500000000E+03 0.  0.
   -5000001    1    1    2    0    0  0.14515993050E+03 -0.33146634424E+02 -0.11941599760E+04  0.12146658607E+04  0.16500000000E+03 0.  0.
<mgrwt>
<rscale>  0 0.46118423E+03</rscale>
<asrwt>0</asrwt>
<pdfrwt beam="1">  1        2 0.29259879E+00 0.46118423E+03</pdfrwt>
<pdfrwt beam="2">  1       -2 0.43012003E-02 0.46118423E+03</pdfrwt>
<totfact> 0.20404573E+03</totfact>
</mgrwt>
</event>
<event>
 4    1  0.8641621E-005  0.5482430E+03  0.7818608E-02  0.1001901E+00
          2   -1    0    0  501    0  0.00000000000E+00  0.00000000000E+00  0.91984488976E+03  0.91984488977E+03  0.25500000000E-02 0.  1.
         -2   -1    0    0    0  501 -0.00000000000E+00 -0.00000000000E+00 -0.81690497019E+02  0.81690497059E+02  0.25500000000E-02 0. -1.
    5000001    1    1    2    0    0 -0.18214001225E+03  0.11972595435E+03  0.45599041211E+03  0.53165923687E+03  0.16500000000E+03 0.  0.
   -5000001    1    1    2    0    0  0.18214001225E+03 -0.11972595435E+03  0.38216398063E+03  0.46987614996E+03  0.16500000000E+03 0.  0.
<mgrwt>
<rscale>  0 0.54824296E+03</rscale>
<asrwt>0</asrwt>
<pdfrwt beam="1">  1        2 0.14151461E+00 0.54824296E+03</pdfrwt>
<pdfrwt beam="2">  1       -2 0.12567768E-01 0.54824296E+03</pdfrwt>
<totfact> 0.13485014E+03</totfact>
</mgrwt>
</event>
<event>
 4    1  0.8641621E-005  0.4789972E+03  0.7818608E-02  0.1019411E+00
          2   -1    0    0  501    0  0.00000000000E+00  0.00000000000E+00  0.14322313610E+04  0.14322313610E+04  0.25500000000E-02 0.  1.
         -2   -1    0    0    0  501 -0.00000000000E+00 -0.00000000000E+00 -0.40049095154E+02  0.40049095235E+02  0.25500000000E-02 0. -1.
    5000001    1    1    2    0    0 -0.15865898445E+03 -0.67530978581E+01  0.48057664941E+03  0.53235063035E+03  0.16500000000E+03 0.  0.
   -5000001    1    1    2    0    0  0.15865898445E+03  0.67530978581E+01  0.91160561648E+03  0.93992982593E+03  0.16500000000E+03 0.  0.
<mgrwt>
<rscale>  0 0.47899716E+03</rscale>
<asrwt>0</asrwt>
<pdfrwt beam="1">  1        2 0.22034330E+00 0.47899716E+03</pdfrwt>
<pdfrwt beam="2">  1       -2 0.61613989E-02 0.47899716E+03</pdfrwt>
<totfact> 0.21002876E+03</totfact>
</mgrwt>
</event>
<event>
 4    1  0.8641621E-005  0.6929322E+03  0.7818608E-02  0.9729396E-01
          2   -1    0    0  501    0  0.00000000000E+00  0.00000000000E+00  0.15331901312E+04  0.15331901312E+04  0.25500000000E-02 0. -1.
         -2   -1    0    0    0  501 -0.00000000000E+00 -0.00000000000E+00 -0.78293449025E+02  0.78293449067E+02  0.25500000000E-02 0.  1.
    5000001    1    1    2    0    0  0.11704234470E+03 -0.23659984833E+03  0.37371731289E+03  0.48638259492E+03  0.16500000000E+03 0.  0.
   -5000001    1    1    2    0    0 -0.11704234470E+03  0.23659984833E+03  0.10811793693E+04  0.11251009854E+04  0.16500000000E+03 0.  0.
<mgrwt>
<rscale>  0 0.69293216E+03</rscale>
<asrwt>0</asrwt>
<pdfrwt beam="1">  1        2 0.23587538E+00 0.69293216E+03</pdfrwt>
<pdfrwt beam="2">  1       -2 0.12045147E-01 0.69293216E+03</pdfrwt>
<totfact> 0.62475559E+02</totfact>
</mgrwt>
</event>
<event>
 4    1  0.8641621E-005  0.6479906E+03  0.7818608E-02  0.9810557E-01
          2   -1    0    0  501    0  0.00000000000E+00  0.00000000000E+00  0.82518246554E+03  0.82518246555E+03  0.25500000000E-02 0.  1.
         -2   -1    0    0    0  501 -0.00000000000E+00 -0.00000000000E+00 -0.12721179191E+03  0.12721179194E+03  0.25500000000E-02 0. -1.
    5000001    1    1    2    0    0  0.16867615290E+03  0.21728154188E+03  0.41609791843E+03  0.52538118611E+03  0.16500000000E+03 0.  0.
   -5000001    1    1    2    0    0 -0.16867615290E+03 -0.21728154188E+03  0.28187275520E+03  0.42701307137E+03  0.16500000000E+03 0.  0.
<mgrwt>
<rscale>  0 0.64799056E+03</rscale>
<asrwt>0</asrwt>
<pdfrwt beam="1">  1        2 0.12695116E+00 0.64799056E+03</pdfrwt>
<pdfrwt beam="2">  1       -2 0.19571044E-01 0.64799056E+03</pdfrwt>
<totfact> 0.73687347E+02</totfact>
</mgrwt>
</event>
<event>
 4    1  0.8641621E-005  0.3711360E+03  0.7818608E-02  0.1054259E+00
          2   -1    0    0  501    0  0.00000000000E+00  0.00000000000E+00  0.17915966184E+04  0.17915966184E+04  0.25500000000E-02 0.  1.
         -2   -1    0    0    0  501 -0.00000000000E+00 -0.00000000000E+00 -0.19220555564E+02  0.19220555733E+02  0.25500000000E-02 0. -1.
    5000001    1    1    2    0    0 -0.74762217889E+02  0.32518785135E+02  0.77035419209E+03  0.79203373784E+03  0.16500000000E+03 0.  0.
   -5000001    1    1    2    0    0  0.74762217889E+02 -0.32518785135E+02  0.10020218707E+04  0.10187834363E+04  0.16500000000E+03 0.  0.
<mgrwt>
<rscale>  0 0.37113600E+03</rscale>
<asrwt>0</asrwt>
<pdfrwt beam="1">  1        2 0.27563026E+00 0.37113600E+03</pdfrwt>
<pdfrwt beam="2">  1       -2 0.29570084E-02 0.37113600E+03</pdfrwt>
<totfact> 0.41356328E+03</totfact>
</mgrwt>
</event>
<event>
 4    1  0.8641621E-005  0.5403164E+03  0.7818608E-02  0.1003760E+00
          2   -1    0    0  501    0  0.00000000000E+00  0.00000000000E+00  0.80390160180E+03  0.80390160181E+03  0.25500000000E-02 0.  1.
         -2   -1    0    0    0  501 -0.00000000000E+00 -0.00000000000E+00 -0.90789035123E+02  0.90789035159E+02  0.25500000000E-02 0. -1.
    5000001    1    1    2    0    0  0.11756726869E+03  0.17855096413E+03  0.36916058969E+03  0.45739157233E+03  0.16500000000E+03 0.  0.
   -5000001    1    1    2    0    0 -0.11756726869E+03 -0.17855096413E+03  0.34395197699E+03  0.43729906463E+03  0.16500000000E+03 0.  0.
<mgrwt>
<rscale>  0 0.54031639E+03</rscale>
<asrwt>0</asrwt>
<pdfrwt beam="1">  1        2 0.12367717E+00 0.54031639E+03</pdfrwt>
<pdfrwt beam="2">  1       -2 0.13967544E-01 0.54031639E+03</pdfrwt>
<totfact> 0.13578300E+03</totfact>
</mgrwt>
</event>
<event>
 4    1  0.8641621E-005  0.1041679E+04  0.7818608E-02  0.9263978E-01
         -2   -1    0    0    0  501 -0.00000000000E+00  0.00000000000E+00  0.25239245877E+03  0.25239245878E+03  0.25500000000E-02 0. -1.
          2   -1    0    0  501    0  0.00000000000E+00 -0.00000000000E+00 -0.10748084515E+04  0.10748084515E+04  0.25500000000E-02 0.  1.
    5000001    1    1    2    0    0 -0.70836859065E+02 -0.43324040100E+03 -0.69987898845E+03  0.84247890427E+03  0.16500000000E+03 0.  0.
   -5000001    1    1    2    0    0  0.70836859065E+02  0.43324040100E+03 -0.12253700424E+03  0.48472200597E+03  0.16500000000E+03 0.  0.
<mgrwt>
<rscale>  0 0.10416785E+04</rscale>
<asrwt>0</asrwt>
<pdfrwt beam="1">  1        2 0.16535514E+00 0.10416785E+04</pdfrwt>
<pdfrwt beam="2">  1       -2 0.38829610E-01 0.10416785E+04</pdfrwt>
<totfact> 0.14088541E+02</totfact>
</mgrwt>
</event>
<event>
 4    1  0.8641621E-005  0.5566257E+03  0.7818608E-02  0.9999719E-01
          2   -1    0    0  501    0  0.00000000000E+00  0.00000000000E+00  0.47757502373E+03  0.47757502374E+03  0.25500000000E-02 0.  1.
         -2   -1    0    0    0  501 -0.00000000000E+00 -0.00000000000E+00 -0.16219032860E+03  0.16219032862E+03  0.25500000000E-02 0. -1.
    5000001    1    1    2    0    0 -0.73857740080E+02 -0.53599511282E+02  0.39297574292E+03  0.43587017322E+03  0.16500000000E+03 0.  0.
   -5000001    1    1    2    0    0  0.73857740080E+02  0.53599511282E+02 -0.77591047781E+02  0.20389517914E+03  0.16500000000E+03 0.  0.
<mgrwt>
<rscale>  0 0.55662573E+03</rscale>
<asrwt>0</asrwt>
<pdfrwt beam="1">  1        2 0.73473080E-01 0.55662573E+03</pdfrwt>
<pdfrwt beam="2">  1       -2 0.24952358E-01 0.55662573E+03</pdfrwt>
<totfact> 0.93725970E+02</totfact>
</mgrwt>
</event>
<event>
 4    1  0.8641621E-005  0.9652253E+03  0.7818608E-02  0.9347530E-01
         -2   -1    0    0    0  501 -0.00000000000E+00  0.00000000000E+00  0.13745551810E+03  0.13745551812E+03  0.25500000000E-02 0. -1.
          2   -1    0    0  501    0  0.00000000000E+00 -0.00000000000E+00 -0.16944750831E+04  0.16944750831E+04  0.25500000000E-02 0.  1.
    5000001    1    1    2    0    0 -0.13443564944E+03 -0.43305957497E+03 -0.79510025474E+03  0.93006610217E+03  0.16500000000E+03 0.  0.
   -5000001    1    1    2    0    0  0.13443564944E+03  0.43305957497E+03 -0.76191931028E+03  0.90186449907E+03  0.16500000000E+03 0.  0.
<mgrwt>
<rscale>  0 0.96522526E+03</rscale>
<asrwt>0</asrwt>
<pdfrwt beam="1">  1        2 0.26068846E+00 0.96522526E+03</pdfrwt>
<pdfrwt beam="2">  1       -2 0.21147004E-01 0.96522526E+03</pdfrwt>
<totfact> 0.19147448E+02</totfact>
</mgrwt>
</event>
<event>
 4    1  0.8641621E-005  0.6710193E+03  0.7818608E-02  0.9768118E-01
          2   -1    0    0  501    0  0.00000000000E+00  0.00000000000E+00  0.18846905959E+03  0.18846905961E+03  0.25500000000E-02 0.  1.
         -2   -1    0    0    0  501 -0.00000000000E+00 -0.00000000000E+00 -0.59726905089E+03  0.59726905089E+03  0.25500000000E-02 0. -1.
    5000001    1    1    2    0    0  0.27303646654E+03  0.10122137324E+03 -0.23178793943E+03  0.40711832104E+03  0.16500000000E+03 0.  0.
   -5000001    1    1    2    0    0 -0.27303646654E+03 -0.10122137324E+03 -0.17701205187E+03  0.37861978946E+03  0.16500000000E+03 0.  0.
<mgrwt>
<rscale>  0 0.67101933E+03</rscale>
<asrwt>0</asrwt>
<pdfrwt beam="1">  1        2 0.28995240E-01 0.67101933E+03</pdfrwt>
<pdfrwt beam="2">  1       -2 0.91887545E-01 0.67101933E+03</pdfrwt>
<totfact> 0.18832088E+02</totfact>
</mgrwt>
</event>
<event>
 4    1  0.8641621E-005  0.8898870E+03  0.7818608E-02  0.9438312E-01
          2   -1    0    0  501    0  0.00000000000E+00  0.00000000000E+00  0.22183137574E+03  0.22183137576E+03  0.25500000000E-02 0.  1.
         -2   -1    0    0    0  501 -0.00000000000E+00 -0.00000000000E+00 -0.89245581305E+03  0.89245581306E+03  0.25500000000E-02 0. -1.
    5000001    1    1    2    0    0  0.30154763685E+03 -0.88468837146E+02 -0.67128521948E+03  0.75934613868E+03  0.16500000000E+03 0.  0.
   -5000001    1    1    2    0    0 -0.30154763685E+03  0.88468837146E+02  0.66078216623E+00  0.35494105013E+03  0.16500000000E+03 0.  0.
<mgrwt>
<rscale>  0 0.88988696E+03</rscale>
<asrwt>0</asrwt>
<pdfrwt beam="1">  1        2 0.34127904E-01 0.88988696E+03</pdfrwt>
<pdfrwt beam="2">  1       -2 0.13730089E+00 0.88988696E+03</pdfrwt>
<totfact> 0.58323412E+01</totfact>
</mgrwt>
</event>
<event>
 4    1  0.8641621E-005  0.4411763E+03  0.7818608E-02  0.1030387E+00
          2   -1    0    0  501    0  0.00000000000E+00  0.00000000000E+00  0.19096517474E+03  0.19096517476E+03  0.25500000000E-02 0.  1.
         -2   -1    0    0    0  501 -0.00000000000E+00 -0.00000000000E+00 -0.25480630693E+03  0.25480630694E+03  0.25500000000E-02 0. -1.
    5000001    1    1    2    0    0  0.12115709040E+03  0.63851184840E+02 -0.84210109539E+02  0.23037438423E+03  0.16500000000E+03 0.  0.
   -5000001    1    1    2    0    0 -0.12115709040E+03 -0.63851184840E+02  0.20368977352E+02  0.21539709747E+03  0.16500000000E+03 0.  0.
<mgrwt>
<rscale>  0 0.44117630E+03</rscale>
<asrwt>0</asrwt>
<pdfrwt beam="1">  1        2 0.29379258E-01 0.44117630E+03</pdfrwt>
<pdfrwt beam="2">  1       -2 0.39200970E-01 0.44117630E+03</pdfrwt>
<totfact> 0.11199357E+03</totfact>
</mgrwt>
</event>
<event>
 4    1  0.8641621E-005  0.3481811E+03  0.7818608E-02  0.1063364E+00
          2   -1    0    0  501    0  0.00000000000E+00  0.00000000000E+00  0.57401524011E+03  0.57401524012E+03  0.25500000000E-02 0.  1.
         -2   -1    0    0    0  501 -0.00000000000E+00 -0.00000000000E+00 -0.52799141742E+02  0.52799141803E+02  0.25500000000E-02 0. -1.
    5000001    1    1    2    0    0  0.45571315520E+02 -0.30425975341E+02  0.24450334247E+03  0.30001561502E+03  0.16500000000E+03 0.  0.
   -5000001    1    1    2    0    0 -0.45571315520E+02  0.30425975341E+02  0.27671275590E+03  0.32679876691E+03  0.16500000000E+03 0.  0.
<mgrwt>
<rscale>  0 0.34818106E+03</rscale>
<asrwt>0</asrwt>
<pdfrwt beam="1">  1        2 0.88310037E-01 0.34818106E+03</pdfrwt>
<pdfrwt beam="2">  1       -2 0.81229449E-02 0.34818106E+03</pdfrwt>
<totfact> 0.49237031E+03</totfact>
</mgrwt>
</event>
<event>
 4    1  0.8641621E-005  0.8337553E+03  0.7818608E-02  0.9512403E-01
          2   -1    0    0  501    0  0.00000000000E+00  0.00000000000E+00  0.33337659939E+04  0.33337659939E+04  0.25500000000E-02 0.  1.
         -2   -1    0    0    0  501 -0.00000000000E+00 -0.00000000000E+00 -0.52129325038E+02  0.52129325100E+02  0.25500000000E-02 0. -1.
    5000001    1    1    2    0    0  0.15538236471E+03 -0.32832791816E+03  0.21318333783E+04  0.21688433447E+04  0.16500000000E+03 0.  0.
   -5000001    1    1    2    0    0 -0.15538236471E+03  0.32832791816E+03  0.11498032905E+04  0.12170519742E+04  0.16500000000E+03 0.  0.
<mgrwt>
<rscale>  0 0.83375529E+03</rscale>
<asrwt>0</asrwt>
<pdfrwt beam="1">  1        2 0.51288726E+00 0.83375529E+03</pdfrwt>
<pdfrwt beam="2">  1       -2 0.80198932E-02 0.83375529E+03</pdfrwt>
<totfact> 0.10957543E+02</totfact>
</mgrwt>
</event>
<event>
 4    1  0.8641621E-005  0.8019211E+03  0.7818608E-02  0.9557241E-01
         -2   -1    0    0    0  501 -0.00000000000E+00  0.00000000000E+00  0.13139866071E+03  0.13139866074E+03  0.25500000000E-02 0. -1.
          2   -1    0    0  501    0  0.00000000000E+00 -0.00000000000E+00 -0.12235234900E+04  0.12235234900E+04  0.25500000000E-02 0.  1.
    5000001    1    1    2    0    0  0.38236889865E+02 -0.36303152814E+03 -0.57485491454E+03  0.70066905379E+03  0.16500000000E+03 0.  0.
   -5000001    1    1    2    0    0 -0.38236889865E+02  0.36303152814E+03 -0.51726991477E+03  0.65425309697E+03  0.16500000000E+03 0.  0.
<mgrwt>
<rscale>  0 0.80192106E+03</rscale>
<asrwt>0</asrwt>
<pdfrwt beam="1">  1        2 0.18823438E+00 0.80192106E+03</pdfrwt>
<pdfrwt beam="2">  1       -2 0.20215179E-01 0.80192106E+03</pdfrwt>
<totfact> 0.38640285E+02</totfact>
</mgrwt>
</event>
<event>
 4    1  0.8641621E-005  0.5067883E+03  0.7818608E-02  0.1012022E+00
         -2   -1    0    0    0  501 -0.00000000000E+00  0.00000000000E+00  0.42192893605E+02  0.42192893682E+02  0.25500000000E-02 0. -1.
          2   -1    0    0  501    0  0.00000000000E+00 -0.00000000000E+00 -0.15217869754E+04  0.15217869754E+04  0.25500000000E-02 0.  1.
    5000001    1    1    2    0    0  0.11543190769E+03 -0.14033830878E+03 -0.54549203653E+03  0.59816881242E+03  0.16500000000E+03 0.  0.
   -5000001    1    1    2    0    0 -0.11543190769E+03  0.14033830878E+03 -0.93410204529E+03  0.96581105670E+03  0.16500000000E+03 0.  0.
<mgrwt>
<rscale>  0 0.50678830E+03</rscale>
<asrwt>0</asrwt>
<pdfrwt beam="1">  1        2 0.23412103E+00 0.50678830E+03</pdfrwt>
<pdfrwt beam="2">  1       -2 0.64912156E-02 0.50678830E+03</pdfrwt>
<totfact> 0.17266757E+03</totfact>
</mgrwt>
</event>
<event>
 4    1  0.8641621E-005  0.8212152E+03  0.7818608E-02  0.9529807E-01
         -2   -1    0    0    0  501 -0.00000000000E+00  0.00000000000E+00  0.60758590894E+03  0.60758590894E+03  0.25500000000E-02 0. -1.
          2   -1    0    0  501    0  0.00000000000E+00 -0.00000000000E+00 -0.27748934001E+03  0.27748934003E+03  0.25500000000E-02 0.  1.
    5000001    1    1    2    0    0  0.31392650290E+03  0.16132828551E+03  0.25366945368E+02  0.39044224521E+03  0.16500000000E+03 0.  0.
   -5000001    1    1    2    0    0 -0.31392650290E+03 -0.16132828551E+03  0.30472962356E+03  0.49463300375E+03  0.16500000000E+03 0.  0.
<mgrwt>
<rscale>  0 0.82121523E+03</rscale>
<asrwt>0</asrwt>
<pdfrwt beam="1">  1        2 0.42690667E-01 0.82121523E+03</pdfrwt>
<pdfrwt beam="2">  1       -2 0.93474756E-01 0.82121523E+03</pdfrwt>
<totfact> 0.11669560E+02</totfact>
</mgrwt>
</event>
<event>
 4    1  0.8641621E-005  0.5324377E+03  0.7818608E-02  0.1005643E+00
         -2   -1    0    0    0  501 -0.00000000000E+00  0.00000000000E+00  0.50641068687E+02  0.50641068751E+02  0.25500000000E-02 0. -1.
          2   -1    0    0  501    0  0.00000000000E+00 -0.00000000000E+00 -0.13995061872E+04  0.13995061872E+04  0.25500000000E-02 0.  1.
    5000001    1    1    2    0    0 -0.35715318218E+02 -0.14088629517E+03 -0.26568424973E+03  0.34487338645E+03  0.16500000000E+03 0.  0.
   -5000001    1    1    2    0    0  0.35715318218E+02  0.14088629517E+03 -0.10831808688E+04  0.11052738695E+04  0.16500000000E+03 0.  0.
<mgrwt>
<rscale>  0 0.53243775E+03</rscale>
<asrwt>0</asrwt>
<pdfrwt beam="1">  1        2 0.21530861E+00 0.53243775E+03</pdfrwt>
<pdfrwt beam="2">  1       -2 0.77909347E-02 0.53243775E+03</pdfrwt>
<totfact> 0.15114089E+03</totfact>
</mgrwt>
</event>
<event>
 4    1  0.8641621E-005  0.3962939E+03  0.7818608E-02  0.1045071E+00
          2   -1    0    0  501    0  0.00000000000E+00  0.00000000000E+00  0.58619394546E+03  0.58619394547E+03  0.25500000000E-02 0.  1.
         -2   -1    0    0    0  501 -0.00000000000E+00 -0.00000000000E+00 -0.66978197417E+02  0.66978197466E+02  0.25500000000E-02 0. -1.
    5000001    1    1    2    0    0 -0.57636976384E+02  0.57605635796E+02  0.13852638178E+03  0.23033668568E+03  0.16500000000E+03 0.  0.
   -5000001    1    1    2    0    0  0.57636976384E+02 -0.57605635796E+02  0.38068936626E+03  0.42283545725E+03  0.16500000000E+03 0.  0.
<mgrwt>
<rscale>  0 0.39629390E+03</rscale>
<asrwt>0</asrwt>
<pdfrwt beam="1">  1        2 0.90183691E-01 0.39629390E+03</pdfrwt>
<pdfrwt beam="2">  1       -2 0.10304337E-01 0.39629390E+03</pdfrwt>
<totfact> 0.32980107E+03</totfact>
</mgrwt>
</event>
<event>
 4    1  0.8641621E-005  0.4826696E+03  0.7818608E-02  0.1018404E+00
          2   -1    0    0  501    0  0.00000000000E+00  0.00000000000E+00  0.14593189242E+04  0.14593189242E+04  0.25500000000E-02 0.  1.
         -2   -1    0    0    0  501 -0.00000000000E+00 -0.00000000000E+00 -0.39910733431E+02  0.39910733512E+02  0.25500000000E-02 0. -1.
    5000001    1    1    2    0    0 -0.10862630374E+03  0.11133017120E+03  0.45312641786E+03  0.50669777131E+03  0.16500000000E+03 0.  0.
   -5000001    1    1    2    0    0  0.10862630374E+03 -0.11133017120E+03  0.96628177291E+03  0.99253188641E+03  0.16500000000E+03 0.  0.
<mgrwt>
<rscale>  0 0.48266961E+03</rscale>
<asrwt>0</asrwt>
<pdfrwt beam="1">  1        2 0.22451062E+00 0.48266961E+03</pdfrwt>
<pdfrwt beam="2">  1       -2 0.61401124E-02 0.48266961E+03</pdfrwt>
<totfact> 0.20399916E+03</totfact>
</mgrwt>
</event>
<event>
 4    1  0.8641621E-005  0.3921399E+03  0.7818608E-02  0.1046536E+00
          2   -1    0    0  501    0  0.00000000000E+00  0.00000000000E+00  0.68898613355E+03  0.68898613356E+03  0.25500000000E-02 0. -1.
         -2   -1    0    0    0  501 -0.00000000000E+00 -0.00000000000E+00 -0.55797088444E+02  0.55797088502E+02  0.25500000000E-02 0.  1.
    5000001    1    1    2    0    0  0.21510643686E+02  0.79618846342E+02  0.19037383486E+03  0.26508312938E+03  0.16500000000E+03 0.  0.
   -5000001    1    1    2    0    0 -0.21510643686E+02 -0.79618846342E+02  0.44281521025E+03  0.47970009268E+03  0.16500000000E+03 0.  0.
<mgrwt>
<rscale>  0 0.39213987E+03</rscale>
<asrwt>0</asrwt>
<pdfrwt beam="1">  1        2 0.10599787E+00 0.39213987E+03</pdfrwt>
<pdfrwt beam="2">  1       -2 0.85841672E-02 0.39213987E+03</pdfrwt>
<totfact> 0.36376496E+03</totfact>
</mgrwt>
</event>
<event>
 4    1  0.8641621E-005  0.4242197E+03  0.7818608E-02  0.1035702E+00
         -2   -1    0    0    0  501 -0.00000000000E+00  0.00000000000E+00  0.11456837654E+03  0.11456837657E+03  0.25500000000E-02 0. -1.
          2   -1    0    0  501    0  0.00000000000E+00 -0.00000000000E+00 -0.39269648229E+03  0.39269648230E+03  0.25500000000E-02 0.  1.
    5000001    1    1    2    0    0  0.95549671844E+02 -0.60256722243E+02 -0.22365917742E+03  0.30001506630E+03  0.16500000000E+03 0.  0.
   -5000001    1    1    2    0    0 -0.95549671844E+02  0.60256722243E+02 -0.54468928325E+02  0.20724979256E+03  0.16500000000E+03 0.  0.
<mgrwt>
<rscale>  0 0.42421975E+03</rscale>
<asrwt>0</asrwt>
<pdfrwt beam="1">  1        2 0.60414843E-01 0.42421975E+03</pdfrwt>
<pdfrwt beam="2">  1       -2 0.17625904E-01 0.42421975E+03</pdfrwt>
<totfact> 0.21400525E+03</totfact>
</mgrwt>
</event>
<event>
 4    1  0.8641621E-005  0.7654955E+03  0.7818608E-02  0.9611349E-01
         -2   -1    0    0    0  501 -0.00000000000E+00  0.00000000000E+00  0.12047479036E+03  0.12047479039E+03  0.25500000000E-02 0. -1.
          2   -1    0    0  501    0  0.00000000000E+00 -0.00000000000E+00 -0.12159876134E+04  0.12159876134E+04  0.25500000000E-02 0.  1.
    5000001    1    1    2    0    0  0.10058520183E+03 -0.32383492366E+03 -0.43347918031E+03  0.57455690786E+03  0.16500000000E+03 0.  0.
   -5000001    1    1    2    0    0 -0.10058520183E+03  0.32383492366E+03 -0.66203364270E+03  0.76190549589E+03  0.16500000000E+03 0.  0.
<mgrwt>
<rscale>  0 0.76549553E+03</rscale>
<asrwt>0</asrwt>
<pdfrwt beam="1">  1        2 0.18707501E+00 0.76549553E+03</pdfrwt>
<pdfrwt beam="2">  1       -2 0.18534584E-01 0.76549553E+03</pdfrwt>
<totfact> 0.45498235E+02</totfact>
</mgrwt>
</event>
<event>
 4    1  0.8641621E-005  0.3806324E+03  0.7818608E-02  0.1050700E+00
          2   -1    0    0  501    0  0.00000000000E+00  0.00000000000E+00  0.42295921206E+03  0.42295921207E+03  0.25500000000E-02 0.  1.
         -2   -1    0    0    0  501 -0.00000000000E+00 -0.00000000000E+00 -0.85635334640E+02  0.85635334678E+02  0.25500000000E-02 0. -1.
    5000001    1    1    2    0    0  0.94237754538E+02  0.77525310099E+01  0.17851691679E+03  0.26083355938E+03  0.16500000000E+03 0.  0.
   -5000001    1    1    2    0    0 -0.94237754538E+02 -0.77525310099E+01  0.15880696063E+03  0.24776098737E+03  0.16500000000E+03 0.  0.
<mgrwt>
<rscale>  0 0.38063239E+03</rscale>
<asrwt>0</asrwt>
<pdfrwt beam="1">  1        2 0.65070647E-01 0.38063239E+03</pdfrwt>
<pdfrwt beam="2">  1       -2 0.13174667E-01 0.38063239E+03</pdfrwt>
<totfact> 0.32023429E+03</totfact>
</mgrwt>
</event>
<event>
 4    1  0.8641621E-005  0.4039109E+03  0.7818608E-02  0.1042434E+00
          2   -1    0    0  501    0  0.00000000000E+00  0.00000000000E+00  0.16137907439E+04  0.16137907439E+04  0.25500000000E-02 0.  1.
         -2   -1    0    0    0  501 -0.00000000000E+00 -0.00000000000E+00 -0.25273419055E+02  0.25273419184E+02  0.25500000000E-02 0. -1.
    5000001    1    1    2    0    0  0.79794155321E+02 -0.84806195662E+02  0.78879648836E+03  0.81423835460E+03  0.16500000000E+03 0.  0.
   -5000001    1    1    2    0    0 -0.79794155321E+02  0.84806195662E+02  0.79972083652E+03  0.82482580853E+03  0.16500000000E+03 0.  0.
<mgrwt>
<rscale>  0 0.40391093E+03</rscale>
<asrwt>0</asrwt>
<pdfrwt beam="1">  1        2 0.24827546E+00 0.40391093E+03</pdfrwt>
<pdfrwt beam="2">  1       -2 0.38882189E-02 0.40391093E+03</pdfrwt>
<totfact> 0.34021880E+03</totfact>
</mgrwt>
</event>
<event>
 4    1  0.8641621E-005  0.6514961E+03  0.7818608E-02  0.9803976E-01
         -2   -1    0    0    0  501 -0.00000000000E+00  0.00000000000E+00  0.95732809582E+02  0.95732809616E+02  0.25500000000E-02 0. -1.
          2   -1    0    0  501    0  0.00000000000E+00 -0.00000000000E+00 -0.11084161890E+04  0.11084161890E+04  0.25500000000E-02 0.  1.
    5000001    1    1    2    0    0 -0.17839493434E+03  0.20887335781E+03 -0.61465111606E+03  0.69316219362E+03  0.16500000000E+03 0.  0.
   -5000001    1    1    2    0    0  0.17839493434E+03 -0.20887335781E+03 -0.39803226335E+03  0.51098680498E+03  0.16500000000E+03 0.  0.
<mgrwt>
<rscale>  0 0.65149611E+03</rscale>
<asrwt>0</asrwt>
<pdfrwt beam="1">  1        2 0.17052556E+00 0.65149611E+03</pdfrwt>
<pdfrwt beam="2">  1       -2 0.14728125E-01 0.65149611E+03</pdfrwt>
<totfact> 0.78510084E+02</totfact>
</mgrwt>
</event>
<event>
 4    1  0.8641621E-005  0.8163589E+03  0.7818608E-02  0.9536636E-01
         -2   -1    0    0    0  501 -0.00000000000E+00  0.00000000000E+00  0.98075812646E+02  0.98075812679E+02  0.25500000000E-02 0. -1.
          2   -1    0    0  501    0  0.00000000000E+00 -0.00000000000E+00 -0.16987923907E+04  0.16987923907E+04  0.25500000000E-02 0.  1.
    5000001    1    1    2    0    0  0.35579491058E+03  0.11193123860E+03 -0.76440428072E+03  0.86640494283E+03  0.16500000000E+03 0.  0.
   -5000001    1    1    2    0    0 -0.35579491058E+03 -0.11193123860E+03 -0.83631229735E+03  0.93046326057E+03  0.16500000000E+03 0.  0.
<mgrwt>
<rscale>  0 0.81635885E+03</rscale>
<asrwt>0</asrwt>
<pdfrwt beam="1">  1        2 0.26135265E+00 0.81635885E+03</pdfrwt>
<pdfrwt beam="2">  1       -2 0.15088588E-01 0.81635885E+03</pdfrwt>
<totfact> 0.34485437E+02</totfact>
</mgrwt>
</event>
<event>
 4    1  0.8641621E-005  0.3669560E+03  0.7818608E-02  0.1055863E+00
          2   -1    0    0  501    0  0.00000000000E+00  0.00000000000E+00  0.61933406623E+03  0.61933406623E+03  0.25500000000E-02 0.  1.
         -2   -1    0    0    0  501 -0.00000000000E+00 -0.00000000000E+00 -0.54355432802E+02  0.54355432862E+02  0.25500000000E-02 0. -1.
    5000001    1    1    2    0    0 -0.59172985310E+02  0.39447450603E+02  0.21424895296E+03  0.27961608929E+03  0.16500000000E+03 0.  0.
   -5000001    1    1    2    0    0  0.59172985310E+02 -0.39447450603E+02  0.35072968047E+03  0.39407340980E+03  0.16500000000E+03 0.  0.
<mgrwt>
<rscale>  0 0.36695597E+03</rscale>
<asrwt>0</asrwt>
<pdfrwt beam="1">  1        2 0.95282157E-01 0.36695597E+03</pdfrwt>
<pdfrwt beam="2">  1       -2 0.83623749E-02 0.36695597E+03</pdfrwt>
<totfact> 0.43065998E+03</totfact>
</mgrwt>
</event>
<event>
 4    1  0.8641621E-005  0.1066330E+04  0.7818608E-02  0.9238645E-01
         -2   -1    0    0    0  501 -0.00000000000E+00  0.00000000000E+00  0.22794531164E+03  0.22794531165E+03  0.25500000000E-02 0. -1.
          2   -1    0    0  501    0  0.00000000000E+00 -0.00000000000E+00 -0.12470751680E+04  0.12470751680E+04  0.25500000000E-02 0.  1.
    5000001    1    1    2    0    0  0.39744433665E+03 -0.30361140781E+03 -0.39467827461E+03  0.65813207500E+03  0.16500000000E+03 0.  0.
   -5000001    1    1    2    0    0 -0.39744433665E+03  0.30361140781E+03 -0.62445158172E+03  0.81688840462E+03  0.16500000000E+03 0.  0.
<mgrwt>
<rscale>  0 0.10663300E+04</rscale>
<asrwt>0</asrwt>
<pdfrwt beam="1">  1        2 0.19185771E+00 0.10663300E+04</pdfrwt>
<pdfrwt beam="2">  1       -2 0.35068510E-01 0.10663300E+04</pdfrwt>
<totfact> 0.13468308E+02</totfact>
</mgrwt>
</event>
<event>
 4    1  0.8641621E-005  0.8959577E+03  0.7818608E-02  0.9430649E-01
          2   -1    0    0  501    0  0.00000000000E+00  0.00000000000E+00  0.86561343860E+03  0.86561343860E+03  0.25500000000E-02 0.  1.
         -2   -1    0    0    0  501 -0.00000000000E+00 -0.00000000000E+00 -0.23184141559E+03  0.23184141561E+03  0.25500000000E-02 0. -1.
    5000001    1    1    2    0    0  0.19757517679E+03  0.35840807262E+03  0.22226133673E+03  0.49408238059E+03  0.16500000000E+03 0.  0.
   -5000001    1    1    2    0    0 -0.19757517679E+03 -0.35840807262E+03  0.41151068627E+03  0.60337247362E+03  0.16500000000E+03 0.  0.
<mgrwt>
<rscale>  0 0.89595769E+03</rscale>
<asrwt>0</asrwt>
<pdfrwt beam="1">  1        2 0.13317130E+00 0.89595769E+03</pdfrwt>
<pdfrwt beam="2">  1       -2 0.35667911E-01 0.89595769E+03</pdfrwt>
<totfact> 0.22912394E+02</totfact>
</mgrwt>
</event>
<event>
 4    1  0.8641621E-005  0.3896262E+03  0.7818608E-02  0.1047432E+00
          2   -1    0    0  501    0  0.00000000000E+00  0.00000000000E+00  0.16428470718E+04  0.16428470718E+04  0.25500000000E-02 0.  1.
         -2   -1    0    0    0  501 -0.00000000000E+00 -0.00000000000E+00 -0.23101448761E+02  0.23101448902E+02  0.25500000000E-02 0. -1.
    5000001    1    1    2    0    0 -0.30038458701E+02  0.98632026386E+02  0.85188897535E+03  0.87382516098E+03  0.16500000000E+03 0.  0.
   -5000001    1    1    2    0    0  0.30038458701E+02 -0.98632026386E+02  0.76785664771E+03  0.79212335975E+03  0.16500000000E+03 0.  0.
<mgrwt>
<rscale>  0 0.38962622E+03</rscale>
<asrwt>0</asrwt>
<pdfrwt beam="1">  1        2 0.25274563E+00 0.38962622E+03</pdfrwt>
<pdfrwt beam="2">  1       -2 0.35540701E-02 0.38962622E+03</pdfrwt>
<totfact> 0.37619672E+03</totfact>
</mgrwt>
</event>
<event>
 4    1  0.8641621E-005  0.4783936E+03  0.7818608E-02  0.1019578E+00
          2   -1    0    0  501    0  0.00000000000E+00  0.00000000000E+00  0.12200716039E+04  0.12200716039E+04  0.25500000000E-02 0.  1.
         -2   -1    0    0    0  501 -0.00000000000E+00 -0.00000000000E+00 -0.46894883199E+02  0.46894883269E+02  0.25500000000E-02 0. -1.
    5000001    1    1    2    0    0 -0.17075655082E+03 -0.24241508424E+02  0.62801366296E+03  0.67184195407E+03  0.16500000000E+03 0.  0.
   -5000001    1    1    2    0    0  0.17075655082E+03  0.24241508424E+02  0.54516305773E+03  0.59512453310E+03  0.16500000000E+03 0.  0.
<mgrwt>
<rscale>  0 0.47839363E+03</rscale>
<asrwt>0</asrwt>
<pdfrwt beam="1">  1        2 0.18770334E+00 0.47839363E+03</pdfrwt>
<pdfrwt beam="2">  1       -2 0.72145969E-02 0.47839363E+03</pdfrwt>
<totfact> 0.21607313E+03</totfact>
</mgrwt>
</event>
<event>
 4    1  0.8641621E-005  0.6308110E+03  0.7818608E-02  0.9843467E-01
         -2   -1    0    0    0  501 -0.00000000000E+00  0.00000000000E+00  0.43096410319E+02  0.43096410395E+02  0.25500000000E-02 0. -1.
          2   -1    0    0  501    0  0.00000000000E+00 -0.00000000000E+00 -0.23083274010E+04  0.23083274010E+04  0.25500000000E-02 0.  1.
    5000001    1    1    2    0    0 -0.21782884458E+03 -0.15492174608E+03 -0.10268225081E+04  0.10737968225E+04  0.16500000000E+03 0.  0.
   -5000001    1    1    2    0    0  0.21782884458E+03  0.15492174608E+03 -0.12384084826E+04  0.12776269889E+04  0.16500000000E+03 0.  0.
<mgrwt>
<rscale>  0 0.63081099E+03</rscale>
<asrwt>0</asrwt>
<pdfrwt beam="1">  1        2 0.35512720E+00 0.63081099E+03</pdfrwt>
<pdfrwt beam="2">  1       -2 0.66302188E-02 0.63081099E+03</pdfrwt>
<totfact> 0.61967787E+02</totfact>
</mgrwt>
</event>
<event>
 4    1  0.8641621E-005  0.5529521E+03  0.7818608E-02  0.1000813E+00
          2   -1    0    0  501    0  0.00000000000E+00  0.00000000000E+00  0.18266185181E+03  0.18266185183E+03  0.25500000000E-02 0.  1.
         -2   -1    0    0    0  501 -0.00000000000E+00 -0.00000000000E+00 -0.41847274907E+03  0.41847274908E+03  0.25500000000E-02 0. -1.
    5000001    1    1    2    0    0  0.20719306545E+03 -0.55472725029E+02 -0.56332627757E+02  0.27641373798E+03  0.16500000000E+03 0.  0.
   -5000001    1    1    2    0    0 -0.20719306545E+03  0.55472725029E+02 -0.17947826951E+03  0.32472086293E+03  0.16500000000E+03 0.  0.
<mgrwt>
<rscale>  0 0.55295210E+03</rscale>
<asrwt>0</asrwt>
<pdfrwt beam="1">  1        2 0.28101823E-01 0.55295210E+03</pdfrwt>
<pdfrwt beam="2">  1       -2 0.64380423E-01 0.55295210E+03</pdfrwt>
<totfact> 0.43119585E+02</totfact>
</mgrwt>
</event>
<event>
 4    1  0.8641621E-005  0.5656184E+03  0.7818608E-02  0.9979422E-01
         -2   -1    0    0    0  501 -0.00000000000E+00  0.00000000000E+00  0.68785133542E+02  0.68785133589E+02  0.25500000000E-02 0. -1.
          2   -1    0    0  501    0  0.00000000000E+00 -0.00000000000E+00 -0.11627664984E+04  0.11627664984E+04  0.25500000000E-02 0.  1.
    5000001    1    1    2    0    0  0.22547791323E+03  0.27411624903E+02 -0.47269336034E+03  0.54977786373E+03  0.16500000000E+03 0.  0.
   -5000001    1    1    2    0    0 -0.22547791323E+03 -0.27411624903E+02 -0.62128800455E+03  0.68177376829E+03  0.16500000000E+03 0.  0.
<mgrwt>
<rscale>  0 0.56561842E+03</rscale>
<asrwt>0</asrwt>
<pdfrwt beam="1">  1        2 0.17888714E+00 0.56561842E+03</pdfrwt>
<pdfrwt beam="2">  1       -2 0.10582329E-01 0.56561842E+03</pdfrwt>
<totfact> 0.12620463E+03</totfact>
</mgrwt>
</event>
<event>
 4    1  0.8641621E-005  0.4634100E+03  0.7818608E-02  0.1023797E+00
          2   -1    0    0  501    0  0.00000000000E+00  0.00000000000E+00  0.43955555272E+03  0.43955555272E+03  0.25500000000E-02 0.  1.
         -2   -1    0    0    0  501 -0.00000000000E+00 -0.00000000000E+00 -0.12213975670E+03  0.12213975673E+03  0.25500000000E-02 0. -1.
    5000001    1    1    2    0    0  0.11236660783E+03  0.11751301573E+03  0.16496455079E+03  0.28438330900E+03  0.16500000000E+03 0.  0.
   -5000001    1    1    2    0    0 -0.11236660783E+03 -0.11751301573E+03  0.15245124523E+03  0.27731200045E+03  0.16500000000E+03 0.  0.
<mgrwt>
<rscale>  0 0.46341001E+03</rscale>
<asrwt>0</asrwt>
<pdfrwt beam="1">  1        2 0.67623932E-01 0.46341001E+03</pdfrwt>
<pdfrwt beam="2">  1       -2 0.18790732E-01 0.46341001E+03</pdfrwt>
<totfact> 0.16934845E+03</totfact>
</mgrwt>
</event>
<event>
 4    1  0.8641621E-005  0.5844295E+03  0.7818608E-02  0.9938247E-01
         -2   -1    0    0    0  501 -0.00000000000E+00  0.00000000000E+00  0.17498504218E+03  0.17498504219E+03  0.25500000000E-02 0. -1.
          2   -1    0    0  501    0  0.00000000000E+00 -0.00000000000E+00 -0.48798154930E+03  0.48798154931E+03  0.25500000000E-02 0.  1.
    5000001    1    1    2    0    0 -0.58891690457E+00 -0.14518676436E+03  0.61954844325E+02  0.22834829998E+03  0.16500000000E+03 0.  0.
   -5000001    1    1    2    0    0  0.58891690457E+00  0.14518676436E+03 -0.37495135145E+03  0.43461829152E+03  0.16500000000E+03 0.  0.
<mgrwt>
<rscale>  0 0.58442954E+03</rscale>
<asrwt>0</asrwt>
<pdfrwt beam="1">  1        2 0.75074084E-01 0.58442954E+03</pdfrwt>
<pdfrwt beam="2">  1       -2 0.26920776E-01 0.58442954E+03</pdfrwt>
<totfact> 0.79709517E+02</totfact>
</mgrwt>
</event>
<event>
 4    1  0.8641621E-005  0.3502520E+03  0.7818608E-02  0.1062512E+00
         -2   -1    0    0    0  501 -0.00000000000E+00  0.00000000000E+00  0.11314687800E+03  0.11314687803E+03  0.25500000000E-02 0. -1.
          2   -1    0    0  501    0  0.00000000000E+00 -0.00000000000E+00 -0.27105574792E+03  0.27105574793E+03  0.25500000000E-02 0.  1.
    5000001    1    1    2    0    0  0.49661980112E+02 -0.30621361778E+02 -0.72005425894E+02  0.18924524148E+03  0.16500000000E+03 0.  0.
   -5000001    1    1    2    0    0 -0.49661980112E+02  0.30621361778E+02 -0.85903444031E+02  0.19495738448E+03  0.16500000000E+03 0.  0.
<mgrwt>
<rscale>  0 0.35025198E+03</rscale>
<asrwt>0</asrwt>
<pdfrwt beam="1">  1        2 0.41700884E-01 0.35025198E+03</pdfrwt>
<pdfrwt beam="2">  1       -2 0.17407212E-01 0.35025198E+03</pdfrwt>
<totfact> 0.32666320E+03</totfact>
</mgrwt>
</event>
<event>
 4    1  0.8641621E-005  0.1063523E+04  0.7818608E-02  0.9241492E-01
         -2   -1    0    0    0  501 -0.00000000000E+00  0.00000000000E+00  0.13150600867E+03  0.13150600869E+03  0.25500000000E-02 0. -1.
          2   -1    0    0  501    0  0.00000000000E+00 -0.00000000000E+00 -0.21502477889E+04  0.21502477889E+04  0.25500000000E-02 0.  1.
    5000001    1    1    2    0    0  0.36611330809E+03  0.28779637981E+03 -0.14313236270E+04  0.15141922057E+04  0.16500000000E+03 0.  0.
   -5000001    1    1    2    0    0 -0.36611330809E+03 -0.28779637981E+03 -0.58741815320E+03  0.76756159186E+03  0.16500000000E+03 0.  0.
<mgrwt>
<rscale>  0 0.10635234E+04</rscale>
<asrwt>0</asrwt>
<pdfrwt beam="1">  1        2 0.33080733E+00 0.10635234E+04</pdfrwt>
<pdfrwt beam="2">  1       -2 0.20231695E-01 0.10635234E+04</pdfrwt>
<totfact> 0.11527909E+02</totfact>
</mgrwt>
</event>
<event>
 4    1  0.8641621E-005  0.3855127E+03  0.7818608E-02  0.1048915E+00
          2   -1    0    0  501    0  0.00000000000E+00  0.00000000000E+00  0.26404208451E+04  0.26404208451E+04  0.25500000000E-02 0.  1.
         -2   -1    0    0    0  501 -0.00000000000E+00 -0.00000000000E+00 -0.14071624555E+02  0.14071624786E+02  0.25500000000E-02 0. -1.
    5000001    1    1    2    0    0 -0.67382493806E+02 -0.49526413743E+02  0.16863181454E+04  0.16964336573E+04  0.16500000000E+03 0.  0.
   -5000001    1    1    2    0    0  0.67382493806E+02  0.49526413743E+02  0.94003107513E+03  0.95805881257E+03  0.16500000000E+03 0.  0.
<mgrwt>
<rscale>  0 0.38551270E+03</rscale>
<asrwt>0</asrwt>
<pdfrwt beam="1">  1        2 0.40621830E+00 0.38551270E+03</pdfrwt>
<pdfrwt beam="2">  1       -2 0.21648669E-02 0.38551270E+03</pdfrwt>
<totfact> 0.22833341E+03</totfact>
</mgrwt>
</event>
<event>
 4    1  0.8641621E-005  0.6206873E+03  0.7818608E-02  0.9863392E-01
         -2   -1    0    0    0  501 -0.00000000000E+00  0.00000000000E+00  0.73292214446E+02  0.73292214490E+02  0.25500000000E-02 0. -1.
          2   -1    0    0  501    0  0.00000000000E+00 -0.00000000000E+00 -0.13140983475E+04  0.13140983475E+04  0.25500000000E-02 0.  1.
    5000001    1    1    2    0    0 -0.24146926060E+02  0.24724800018E+03 -0.81234223901E+03  0.86535516460E+03  0.16500000000E+03 0.  0.
   -5000001    1    1    2    0    0  0.24146926060E+02 -0.24724800018E+03 -0.42846389408E+03  0.52203539742E+03  0.16500000000E+03 0.  0.
<mgrwt>
<rscale>  0 0.62068729E+03</rscale>
<asrwt>0</asrwt>
<pdfrwt beam="1">  1        2 0.20216896E+00 0.62068729E+03</pdfrwt>
<pdfrwt beam="2">  1       -2 0.11275726E-01 0.62068729E+03</pdfrwt>
<totfact> 0.92746606E+02</totfact>
</mgrwt>
</event>
<event>
 4    1  0.8641621E-005  0.6590610E+03  0.7818608E-02  0.9789924E-01
          2   -1    0    0  501    0  0.00000000000E+00  0.00000000000E+00  0.35237800273E+03  0.35237800274E+03  0.25500000000E-02 0.  1.
         -2   -1    0    0    0  501 -0.00000000000E+00 -0.00000000000E+00 -0.30816437796E+03  0.30816437797E+03  0.25500000000E-02 0. -1.
    5000001    1    1    2    0    0 -0.20552419500E+03 -0.69280451776E+02 -0.16358070396E+03  0.31784213445E+03  0.16500000000E+03 0.  0.
   -5000001    1    1    2    0    0  0.20552419500E+03  0.69280451776E+02  0.20779432873E+03  0.34270024625E+03  0.16500000000E+03 0.  0.
<mgrwt>
<rscale>  0 0.65906099E+03</rscale>
<asrwt>0</asrwt>
<pdfrwt beam="1">  1        2 0.54212000E-01 0.65906099E+03</pdfrwt>
<pdfrwt beam="2">  1       -2 0.47409904E-01 0.65906099E+03</pdfrwt>
<totfact> 0.39022048E+02</totfact>
</mgrwt>
</event>
<event>
 4    1  0.8641621E-005  0.4073726E+03  0.7818608E-02  0.1041256E+00
          2   -1    0    0  501    0  0.00000000000E+00  0.00000000000E+00  0.81869152841E+03  0.81869152841E+03  0.25500000000E-02 0.  1.
         -2   -1    0    0    0  501 -0.00000000000E+00 -0.00000000000E+00 -0.50676108423E+02  0.50676108488E+02  0.25500000000E-02 0. -1.
    5000001    1    1    2    0    0 -0.43083270373E+02 -0.71828237525E+02  0.20232654445E+03  0.27418332277E+03  0.16500000000E+03 0.  0.
   -5000001    1    1    2    0    0  0.43083270373E+02  0.71828237525E+02  0.56568887553E+03  0.59518431413E+03  0.16500000000E+03 0.  0.
<mgrwt>
<rscale>  0 0.40737256E+03</rscale>
<asrwt>0</asrwt>
<pdfrwt beam="1">  1        2 0.12595253E+00 0.40737256E+03</pdfrwt>
<pdfrwt beam="2">  1       -2 0.77963252E-02 0.40737256E+03</pdfrwt>
<totfact> 0.34073020E+03</totfact>
</mgrwt>
</event>
<event>
 4    1  0.8641621E-005  0.7874557E+03  0.7818608E-02  0.9578354E-01
         -2   -1    0    0    0  501 -0.00000000000E+00  0.00000000000E+00  0.17853388712E+03  0.17853388714E+03  0.25500000000E-02 0. -1.
          2   -1    0    0  501    0  0.00000000000E+00 -0.00000000000E+00 -0.86830369556E+03  0.86830369556E+03  0.25500000000E-02 0.  1.
    5000001    1    1    2    0    0 -0.27803446286E+03  0.22385030447E+03 -0.37095294922E+03  0.54059523849E+03  0.16500000000E+03 0.  0.
   -5000001    1    1    2    0    0  0.27803446286E+03 -0.22385030447E+03 -0.31881685922E+03  0.50624234421E+03  0.16500000000E+03 0.  0.
<mgrwt>
<rscale>  0 0.78745574E+03</rscale>
<asrwt>0</asrwt>
<pdfrwt beam="1">  1        2 0.13358518E+00 0.78745574E+03</pdfrwt>
<pdfrwt beam="2">  1       -2 0.27466752E-01 0.78745574E+03</pdfrwt>
<totfact> 0.37385475E+02</totfact>
</mgrwt>
</event>
<event>
 4    1  0.8641621E-005  0.5195481E+03  0.7818608E-02  0.1008799E+00
          2   -1    0    0  501    0  0.00000000000E+00  0.00000000000E+00  0.18028048631E+04  0.18028048631E+04  0.25500000000E-02 0.  1.
         -2   -1    0    0    0  501 -0.00000000000E+00 -0.00000000000E+00 -0.37431985144E+02  0.37431985231E+02  0.25500000000E-02 0. -1.
    5000001    1    1    2    0    0 -0.81391674029E+02  0.18072333829E+03  0.77225595843E+03  0.81418044372E+03  0.16500000000E+03 0.  0.
   -5000001    1    1    2    0    0  0.81391674029E+02 -0.18072333829E+03  0.99311691956E+03  0.10260564047E+04  0.16500000000E+03 0.  0.
<mgrwt>
<rscale>  0 0.51954813E+03</rscale>
<asrwt>0</asrwt>
<pdfrwt beam="1">  1        2 0.27735469E+00 0.51954813E+03</pdfrwt>
<pdfrwt beam="2">  1       -2 0.57587649E-02 0.51954813E+03</pdfrwt>
<totfact> 0.14654385E+03</totfact>
</mgrwt>
</event>
<event>
 4    1  0.8641621E-005  0.3685583E+03  0.7818608E-02  0.1055246E+00
          2   -1    0    0  501    0  0.00000000000E+00  0.00000000000E+00  0.38843468721E+02  0.38843468805E+02  0.25500000000E-02 0.  1.
         -2   -1    0    0    0  501 -0.00000000000E+00 -0.00000000000E+00 -0.87424766180E+03  0.87424766181E+03  0.25500000000E-02 0. -1.
    5000001    1    1    2    0    0  0.22359310737E+02  0.76366543546E+02 -0.36802755428E+03  0.41109739535E+03  0.16500000000E+03 0.  0.
   -5000001    1    1    2    0    0 -0.22359310737E+02 -0.76366543546E+02 -0.46737663880E+03  0.50199373527E+03  0.16500000000E+03 0.  0.
<mgrwt>
<rscale>  0 0.36855834E+03</rscale>
<asrwt>0</asrwt>
<pdfrwt beam="1">  1        2 0.59759189E-02 0.36855834E+03</pdfrwt>
<pdfrwt beam="2">  1       -2 0.13449963E+00 0.36855834E+03</pdfrwt>
<totfact> 0.52267327E+02</totfact>
</mgrwt>
</event>
<event>
 4    1  0.8641621E-005  0.4881129E+03  0.7818608E-02  0.1016929E+00
         -2   -1    0    0    0  501 -0.00000000000E+00  0.00000000000E+00  0.38474936616E+02  0.38474936700E+02  0.25500000000E-02 0. -1.
          2   -1    0    0  501    0  0.00000000000E+00 -0.00000000000E+00 -0.15481128735E+04  0.15481128735E+04  0.25500000000E-02 0.  1.
    5000001    1    1    2    0    0  0.76499204685E+02 -0.12478095323E+03 -0.10944271952E+04  0.11164310548E+04  0.16500000000E+03 0.  0.
   -5000001    1    1    2    0    0 -0.76499204685E+02  0.12478095323E+03 -0.41521074166E+03  0.47015675535E+03  0.16500000000E+03 0.  0.
<mgrwt>
<rscale>  0 0.48811288E+03</rscale>
<asrwt>0</asrwt>
<pdfrwt beam="1">  1        2 0.23817116E+00 0.48811288E+03</pdfrwt>
<pdfrwt beam="2">  1       -2 0.59192222E-02 0.48811288E+03</pdfrwt>
<totfact> 0.19306517E+03</totfact>
</mgrwt>
</event>
<event>
 4    1  0.8641621E-005  0.4874818E+03  0.7818608E-02  0.1017099E+00
          2   -1    0    0  501    0  0.00000000000E+00  0.00000000000E+00  0.24827329224E+04  0.24827329224E+04  0.25500000000E-02 0.  1.
         -2   -1    0    0    0  501 -0.00000000000E+00 -0.00000000000E+00 -0.23929123242E+02  0.23929123378E+02  0.25500000000E-02 0. -1.
    5000001    1    1    2    0    0 -0.11839864817E+03  0.78216938434E+02  0.17938236708E+04  0.18069766161E+04  0.16500000000E+03 0.  0.
   -5000001    1    1    2    0    0  0.11839864817E+03 -0.78216938434E+02  0.66498012843E+03  0.69968542971E+03  0.16500000000E+03 0.  0.
<mgrwt>
<rscale>  0 0.48748178E+03</rscale>
<asrwt>0</asrwt>
<pdfrwt beam="1">  1        2 0.38195879E+00 0.48748178E+03</pdfrwt>
<pdfrwt beam="2">  1       -2 0.36814047E-02 0.48748178E+03</pdfrwt>
<totfact> 0.12480114E+03</totfact>
</mgrwt>
</event>
<event>
 4    1  0.8641621E-005  0.5394454E+03  0.7818608E-02  0.1003967E+00
         -2   -1    0    0    0  501 -0.00000000000E+00  0.00000000000E+00  0.42940594145E+02  0.42940594221E+02  0.25500000000E-02 0.  1.
          2   -1    0    0  501    0  0.00000000000E+00 -0.00000000000E+00 -0.16942088130E+04  0.16942088130E+04  0.25500000000E-02 0. -1.
    5000001    1    1    2    0    0 -0.52438627684E+02  0.20671988114E+03 -0.84660636701E+03  0.88851013477E+03  0.16500000000E+03 0.  0.
   -5000001    1    1    2    0    0  0.52438627684E+02 -0.20671988114E+03 -0.80466185181E+03  0.84863927242E+03  0.16500000000E+03 0.  0.
<mgrwt>
<rscale>  0 0.53944539E+03</rscale>
<asrwt>0</asrwt>
<pdfrwt beam="1">  1        2 0.26064746E+00 0.53944539E+03</pdfrwt>
<pdfrwt beam="2">  1       -2 0.66062466E-02 0.53944539E+03</pdfrwt>
<totfact> 0.13516358E+03</totfact>
</mgrwt>
</event>
<event>
 4    1  0.8641621E-005  0.5208502E+03  0.7818608E-02  0.1008476E+00
          2   -1    0    0  501    0  0.00000000000E+00  0.00000000000E+00  0.32524342010E+03  0.32524342011E+03  0.25500000000E-02 0.  1.
         -2   -1    0    0    0  501 -0.00000000000E+00 -0.00000000000E+00 -0.20852451820E+03  0.20852451821E+03  0.25500000000E-02 0. -1.
    5000001    1    1    2    0    0 -0.15742789757E+02  0.16906154539E+03  0.16952363902E+03  0.29119221443E+03  0.16500000000E+03 0.  0.
   -5000001    1    1    2    0    0  0.15742789757E+02 -0.16906154539E+03 -0.52804737117E+02  0.24257572389E+03  0.16500000000E+03 0.  0.
<mgrwt>
<rscale>  0 0.52085018E+03</rscale>
<asrwt>0</asrwt>
<pdfrwt beam="1">  1        2 0.50037449E-01 0.52085018E+03</pdfrwt>
<pdfrwt beam="2">  1       -2 0.32080695E-01 0.52085018E+03</pdfrwt>
<totfact> 0.90945684E+02</totfact>
</mgrwt>
</event>
<event>
 4    1  0.8641621E-005  0.5495897E+03  0.7818608E-02  0.1001589E+00
         -2   -1    0    0    0  501 -0.00000000000E+00  0.00000000000E+00  0.47152680483E+02  0.47152680552E+02  0.25500000000E-02 0. -1.
          2   -1    0    0  501    0  0.00000000000E+00 -0.00000000000E+00 -0.16014403391E+04  0.16014403391E+04  0.25500000000E-02 0.  1.
    5000001    1    1    2    0    0 -0.80152889104E+02  0.79392974677E+02 -0.13428000320E+04  0.13575951738E+04  0.16500000000E+03 0.  0.
   -5000001    1    1    2    0    0  0.80152889104E+02 -0.79392974677E+02 -0.21148762659E+03  0.29099784580E+03  0.16500000000E+03 0.  0.
<mgrwt>
<rscale>  0 0.54958968E+03</rscale>
<asrwt>0</asrwt>
<pdfrwt beam="1">  1        2 0.24637540E+00 0.54958968E+03</pdfrwt>
<pdfrwt beam="2">  1       -2 0.72542598E-02 0.54958968E+03</pdfrwt>
<totfact> 0.13090713E+03</totfact>
</mgrwt>
</event>
<event>
 4    1  0.8641621E-005  0.8276479E+03  0.7818608E-02  0.9520838E-01
         -2   -1    0    0    0  501 -0.00000000000E+00  0.00000000000E+00  0.70789686620E+03  0.70789686620E+03  0.25500000000E-02 0. -1.
          2   -1    0    0  501    0  0.00000000000E+00 -0.00000000000E+00 -0.24191411230E+03  0.24191411231E+03  0.25500000000E-02 0.  1.
    5000001    1    1    2    0    0 -0.76836156939E+02  0.32904529891E+03  0.43126657995E+03  0.57218044945E+03  0.16500000000E+03 0.  0.
   -5000001    1    1    2    0    0  0.76836156939E+02 -0.32904529891E+03  0.34716173941E+02  0.37763052906E+03  0.16500000000E+03 0.  0.
<mgrwt>
<rscale>  0 0.82764785E+03</rscale>
<asrwt>0</asrwt>
<pdfrwt beam="1">  1        2 0.37217557E-01 0.82764785E+03</pdfrwt>
<pdfrwt beam="2">  1       -2 0.10890721E+00 0.82764785E+03</pdfrwt>
<totfact> 0.94554520E+01</totfact>
</mgrwt>
</event>
<event>
 4    1  0.8641621E-005  0.6078086E+03  0.7818608E-02  0.9889337E-01
         -2   -1    0    0    0  501 -0.00000000000E+00  0.00000000000E+00  0.65755352383E+02  0.65755352433E+02  0.25500000000E-02 0. -1.
          2   -1    0    0  501    0  0.00000000000E+00 -0.00000000000E+00 -0.14045675454E+04  0.14045675454E+04  0.25500000000E-02 0.  1.
    5000001    1    1    2    0    0 -0.29877599546E+02 -0.23334082118E+03 -0.43002683182E+03  0.51719308374E+03  0.16500000000E+03 0.  0.
   -5000001    1    1    2    0    0  0.29877599546E+02  0.23334082118E+03 -0.90878536116E+03  0.95312981405E+03  0.16500000000E+03 0.  0.
<mgrwt>
<rscale>  0 0.60780863E+03</rscale>
<asrwt>0</asrwt>
<pdfrwt beam="1">  1        2 0.21608729E+00 0.60780863E+03</pdfrwt>
<pdfrwt beam="2">  1       -2 0.10116209E-01 0.60780863E+03</pdfrwt>
<totfact> 0.98454644E+02</totfact>
</mgrwt>
</event>
<event>
 4    1  0.8641621E-005  0.5478038E+03  0.7818608E-02  0.1002004E+00
         -2   -1    0    0    0  501 -0.00000000000E+00  0.00000000000E+00  0.32498806637E+02  0.32498806737E+02  0.25500000000E-02 0. -1.
          2   -1    0    0  501    0  0.00000000000E+00 -0.00000000000E+00 -0.23084613478E+04  0.23084613478E+04  0.25500000000E-02 0.  1.
    5000001    1    1    2    0    0  0.13576083632E+03  0.15963320646E+03 -0.87167634129E+03  0.91156920157E+03  0.16500000000E+03 0.  0.
   -5000001    1    1    2    0    0 -0.13576083632E+03 -0.15963320646E+03 -0.14042861999E+04  0.14293909530E+04  0.16500000000E+03 0.  0.
<mgrwt>
<rscale>  0 0.54780376E+03</rscale>
<asrwt>0</asrwt>
<pdfrwt beam="1">  1        2 0.35514777E+00 0.54780376E+03</pdfrwt>
<pdfrwt beam="2">  1       -2 0.49998182E-02 0.54780376E+03</pdfrwt>
<totfact> 0.96936685E+02</totfact>
</mgrwt>
</event>
<event>
 4    1  0.8641621E-005  0.4034439E+03  0.7818608E-02  0.1042594E+00
         -2   -1    0    0    0  501 -0.00000000000E+00  0.00000000000E+00  0.47723498317E+02  0.47723498385E+02  0.25500000000E-02 0. -1.
          2   -1    0    0  501    0  0.00000000000E+00 -0.00000000000E+00 -0.85265627886E+03  0.85265627887E+03  0.25500000000E-02 0.  1.
    5000001    1    1    2    0    0  0.10303378028E+03  0.70048338314E+01 -0.28433796307E+03  0.34458395902E+03  0.16500000000E+03 0.  0.
   -5000001    1    1    2    0    0 -0.10303378028E+03 -0.70048338314E+01 -0.52059481748E+03  0.55579581823E+03  0.16500000000E+03 0.  0.
<mgrwt>
<rscale>  0 0.40344388E+03</rscale>
<asrwt>0</asrwt>
<pdfrwt beam="1">  1        2 0.13117788E+00 0.40344388E+03</pdfrwt>
<pdfrwt beam="2">  1       -2 0.73420773E-02 0.40344388E+03</pdfrwt>
<totfact> 0.35491314E+03</totfact>
</mgrwt>
</event>
<event>
 4    1  0.8641621E-005  0.1103822E+04  0.7818608E-02  0.9201475E-01
         -2   -1    0    0    0  501 -0.00000000000E+00  0.00000000000E+00  0.79721400107E+03  0.79721400107E+03  0.25500000000E-02 0. -1.
          2   -1    0    0  501    0  0.00000000000E+00 -0.00000000000E+00 -0.38208792356E+03  0.38208792357E+03  0.25500000000E-02 0.  1.
    5000001    1    1    2    0    0  0.23584111279E+03  0.46601527865E+03  0.27994193994E+03  0.61512905976E+03  0.16500000000E+03 0.  0.
   -5000001    1    1    2    0    0 -0.23584111279E+03 -0.46601527865E+03  0.13518413757E+03  0.56417286488E+03  0.16500000000E+03 0.  0.
<mgrwt>
<rscale>  0 0.11038222E+04</rscale>
<asrwt>0</asrwt>
<pdfrwt beam="1">  1        2 0.58782758E-01 0.11038222E+04</pdfrwt>
<pdfrwt beam="2">  1       -2 0.12264831E+00 0.11038222E+04</pdfrwt>
<totfact> 0.41778010E+01</totfact>
</mgrwt>
</event>
<event>
 4    1  0.8641621E-005  0.4963015E+03  0.7818608E-02  0.1014749E+00
          2   -1    0    0  501    0  0.00000000000E+00  0.00000000000E+00  0.49531630101E+02  0.49531630166E+02  0.25500000000E-02 0.  1.
         -2   -1    0    0    0  501 -0.00000000000E+00 -0.00000000000E+00 -0.12432217086E+04  0.12432217086E+04  0.25500000000E-02 0. -1.
    5000001    1    1    2    0    0 -0.16866408049E+03  0.40450505277E+02 -0.42663580695E+03  0.48921051419E+03  0.16500000000E+03 0.  0.
   -5000001    1    1    2    0    0  0.16866408049E+03 -0.40450505277E+02 -0.76705427152E+03  0.80354282455E+03  0.16500000000E+03 0.  0.
<mgrwt>
<rscale>  0 0.49630151E+03</rscale>
<asrwt>0</asrwt>
<pdfrwt beam="1">  1        2 0.76202518E-02 0.49630151E+03</pdfrwt>
<pdfrwt beam="2">  1       -2 0.19126485E+00 0.49630151E+03</pdfrwt>
<totfact> 0.14732911E+02</totfact>
</mgrwt>
</event>
<event>
 4    1  0.8641621E-005  0.6332044E+03  0.7818608E-02  0.9838816E-01
          2   -1    0    0  501    0  0.00000000000E+00  0.00000000000E+00  0.10233608319E+04  0.10233608319E+04  0.25500000000E-02 0.  1.
         -2   -1    0    0    0  501 -0.00000000000E+00 -0.00000000000E+00 -0.97948787899E+02  0.97948787933E+02  0.25500000000E-02 0. -1.
    5000001    1    1    2    0    0  0.15347814261E+03 -0.22233050453E+03  0.47165881570E+03  0.56804351235E+03  0.16500000000E+03 0.  0.
   -5000001    1    1    2    0    0 -0.15347814261E+03  0.22233050453E+03  0.45375322835E+03  0.55326610753E+03  0.16500000000E+03 0.  0.
<mgrwt>
<rscale>  0 0.63320440E+03</rscale>
<asrwt>0</asrwt>
<pdfrwt beam="1">  1        2 0.15744013E+00 0.63320440E+03</pdfrwt>
<pdfrwt beam="2">  1       -2 0.15069044E-01 0.63320440E+03</pdfrwt>
<totfact> 0.85293124E+02</totfact>
</mgrwt>
</event>
<event>
 4    1  0.8641621E-005  0.4600849E+03  0.7818608E-02  0.1024757E+00
         -2   -1    0    0    0  501 -0.00000000000E+00  0.00000000000E+00  0.63242406968E+02  0.63242407020E+02  0.25500000000E-02 0. -1.
          2   -1    0    0  501    0  0.00000000000E+00 -0.00000000000E+00 -0.83677279539E+03  0.83677279539E+03  0.25500000000E-02 0.  1.
    5000001    1    1    2    0    0 -0.41863647707E+02  0.12783542912E+03 -0.55730293125E+03  0.59657859425E+03  0.16500000000E+03 0.  0.
   -5000001    1    1    2    0    0  0.41863647707E+02 -0.12783542912E+03 -0.21622745717E+03  0.30343660816E+03  0.16500000000E+03 0.  0.
<mgrwt>
<rscale>  0 0.46008489E+03</rscale>
<asrwt>0</asrwt>
<pdfrwt beam="1">  1        2 0.12873427E+00 0.46008489E+03</pdfrwt>
<pdfrwt beam="2">  1       -2 0.97296017E-02 0.46008489E+03</pdfrwt>
<totfact> 0.23283943E+03</totfact>
</mgrwt>
</event>
<event>
 4    1  0.8641621E-005  0.4595933E+03  0.7818608E-02  0.1024899E+00
         -2   -1    0    0    0  501 -0.00000000000E+00  0.00000000000E+00  0.18295563173E+03  0.18295563175E+03  0.25500000000E-02 0. -1.
          2   -1    0    0  501    0  0.00000000000E+00 -0.00000000000E+00 -0.28863014264E+03  0.28863014265E+03  0.25500000000E-02 0.  1.
    5000001    1    1    2    0    0 -0.15977651410E+03  0.71588940028E+01 -0.54185258326E+02  0.23609495217E+03  0.16500000000E+03 0.  0.
   -5000001    1    1    2    0    0  0.15977651410E+03 -0.71588940028E+01 -0.51489252582E+02  0.23549082223E+03  0.16500000000E+03 0.  0.
<mgrwt>
<rscale>  0 0.45959334E+03</rscale>
<asrwt>0</asrwt>
<pdfrwt beam="1">  1        2 0.44404637E-01 0.45959334E+03</pdfrwt>
<pdfrwt beam="2">  1       -2 0.28147020E-01 0.45959334E+03</pdfrwt>
<totfact> 0.13190543E+03</totfact>
</mgrwt>
</event>
<event>
 4    1  0.8641621E-005  0.1009807E+04  0.7818608E-02  0.9297854E-01
         -2   -1    0    0    0  501 -0.00000000000E+00  0.00000000000E+00  0.14213236132E+03  0.14213236134E+03  0.25500000000E-02 0. -1.
          2   -1    0    0  501    0  0.00000000000E+00 -0.00000000000E+00 -0.17935915134E+04  0.17935915134E+04  0.25500000000E-02 0.  1.
    5000001    1    1    2    0    0 -0.43030991282E+03  0.46346024161E+02 -0.44049046498E+03  0.63919592049E+03  0.16500000000E+03 0.  0.
   -5000001    1    1    2    0    0  0.43030991282E+03 -0.46346024161E+02 -0.12109686871E+04  0.12965279543E+04  0.16500000000E+03 0.  0.
<mgrwt>
<rscale>  0 0.10098067E+04</rscale>
<asrwt>0</asrwt>
<pdfrwt beam="1">  1        2 0.27593714E+00 0.10098067E+04</pdfrwt>
<pdfrwt beam="2">  1       -2 0.21866518E-01 0.10098067E+04</pdfrwt>
<totfact> 0.15864172E+02</totfact>
</mgrwt>
</event>
<event>
 4    1  0.8641621E-005  0.5019647E+03  0.7818608E-02  0.1013267E+00
         -2   -1    0    0    0  501 -0.00000000000E+00  0.00000000000E+00  0.93547645620E+02  0.93547645655E+02  0.25500000000E-02 0. -1.
          2   -1    0    0  501    0  0.00000000000E+00 -0.00000000000E+00 -0.67336970584E+03  0.67336970584E+03  0.25500000000E-02 0.  1.
    5000001    1    1    2    0    0  0.17755621209E+03  0.46200324495E+02 -0.36003285587E+03  0.43647375149E+03  0.16500000000E+03 0.  0.
   -5000001    1    1    2    0    0 -0.17755621209E+03 -0.46200324495E+02 -0.21978920435E+03  0.33044360000E+03  0.16500000000E+03 0.  0.
<mgrwt>
<rscale>  0 0.50196474E+03</rscale>
<asrwt>0</asrwt>
<pdfrwt beam="1">  1        2 0.10359534E+00 0.50196474E+03</pdfrwt>
<pdfrwt beam="2">  1       -2 0.14391946E-01 0.50196474E+03</pdfrwt>
<totfact> 0.16177100E+03</totfact>
</mgrwt>
</event>
<event>
 4    1  0.8641621E-005  0.6644229E+03  0.7818608E-02  0.9780086E-01
         -2   -1    0    0    0  501 -0.00000000000E+00  0.00000000000E+00  0.39672237242E+02  0.39672237324E+02  0.25500000000E-02 0. -1.
          2   -1    0    0  501    0  0.00000000000E+00 -0.00000000000E+00 -0.27819060801E+04  0.27819060801E+04  0.25500000000E-02 0.  1.
    5000001    1    1    2    0    0 -0.24696951938E+03 -0.63484508824E+02 -0.79954716239E+03  0.85529228410E+03  0.16500000000E+03 0.  0.
   -5000001    1    1    2    0    0  0.24696951938E+03  0.63484508824E+02 -0.19426866805E+04  0.19662860334E+04  0.16500000000E+03 0.  0.
<mgrwt>
<rscale>  0 0.66442287E+03</rscale>
<asrwt>0</asrwt>
<pdfrwt beam="1">  1        2 0.42798540E+00 0.66442287E+03</pdfrwt>
<pdfrwt beam="2">  1       -2 0.61034233E-02 0.66442287E+03</pdfrwt>
<totfact> 0.37865969E+02</totfact>
</mgrwt>
</event>
<event>
 4    1  0.8641621E-005  0.6796590E+03  0.7818608E-02  0.9752664E-01
          2   -1    0    0  501    0  0.00000000000E+00  0.00000000000E+00  0.19112889652E+04  0.19112889652E+04  0.25500000000E-02 0.  1.
         -2   -1    0    0    0  501 -0.00000000000E+00 -0.00000000000E+00 -0.60422104219E+02  0.60422104273E+02  0.25500000000E-02 0. -1.
    5000001    1    1    2    0    0  0.25121943862E+03  0.14412397305E+03  0.11173442800E+04  0.11660043594E+04  0.16500000000E+03 0.  0.
   -5000001    1    1    2    0    0 -0.25121943862E+03 -0.14412397305E+03  0.73352258096E+03  0.80570671012E+03  0.16500000000E+03 0.  0.
<mgrwt>
<rscale>  0 0.67965904E+03</rscale>
<asrwt>0</asrwt>
<pdfrwt beam="1">  1        2 0.29404439E+00 0.67965904E+03</pdfrwt>
<pdfrwt beam="2">  1       -2 0.92957104E-02 0.67965904E+03</pdfrwt>
<totfact> 0.59348668E+02</totfact>
</mgrwt>
</event>
<event>
 4    1  0.8641621E-005  0.5091621E+03  0.7818608E-02  0.1011415E+00
         -2   -1    0    0    0  501 -0.00000000000E+00  0.00000000000E+00  0.71143957313E+02  0.71143957358E+02  0.25500000000E-02 0. -1.
          2   -1    0    0  501    0  0.00000000000E+00 -0.00000000000E+00 -0.91099118762E+03  0.91099118762E+03  0.25500000000E-02 0.  1.
    5000001    1    1    2    0    0 -0.11567838953E+01  0.19365179109E+03 -0.43761973101E+03  0.50619994400E+03  0.16500000000E+03 0.  0.
   -5000001    1    1    2    0    0  0.11567838953E+01 -0.19365179109E+03 -0.40222749930E+03  0.47593520098E+03  0.16500000000E+03 0.  0.
<mgrwt>
<rscale>  0 0.50916213E+03</rscale>
<asrwt>0</asrwt>
<pdfrwt beam="1">  1        2 0.14015248E+00 0.50916213E+03</pdfrwt>
<pdfrwt beam="2">  1       -2 0.10945225E-01 0.50916213E+03</pdfrwt>
<totfact> 0.17152395E+03</totfact>
</mgrwt>
</event>
<event>
 4    1  0.8641621E-005  0.4038912E+03  0.7818608E-02  0.1042441E+00
          2   -1    0    0  501    0  0.00000000000E+00  0.00000000000E+00  0.22155280412E+03  0.22155280414E+03  0.25500000000E-02 0.  1.
         -2   -1    0    0    0  501 -0.00000000000E+00 -0.00000000000E+00 -0.18407363001E+03  0.18407363003E+03  0.25500000000E-02 0. -1.
    5000001    1    1    2    0    0  0.58847396509E+02  0.82425360583E+02 -0.38953476024E+02  0.19748247881E+03  0.16500000000E+03 0.  0.
   -5000001    1    1    2    0    0 -0.58847396509E+02 -0.82425360583E+02  0.76432650139E+02  0.20814395535E+03  0.16500000000E+03 0.  0.
<mgrwt>
<rscale>  0 0.40389122E+03</rscale>
<asrwt>0</asrwt>
<pdfrwt beam="1">  1        2 0.34085046E-01 0.40389122E+03</pdfrwt>
<pdfrwt beam="2">  1       -2 0.28319020E-01 0.40389122E+03</pdfrwt>
<totfact> 0.17421098E+03</totfact>
</mgrwt>
</event>
<event>
 4    1  0.8641621E-005  0.3991614E+03  0.7818608E-02  0.1044070E+00
         -2   -1    0    0    0  501 -0.00000000000E+00  0.00000000000E+00  0.66736754826E+02  0.66736754875E+02  0.25500000000E-02 0. -1.
          2   -1    0    0  501    0  0.00000000000E+00 -0.00000000000E+00 -0.59685949206E+03  0.59685949206E+03  0.25500000000E-02 0.  1.
    5000001    1    1    2    0    0 -0.89955060311E+02  0.65272167993E+02 -0.29161401727E+03  0.35301006198E+03  0.16500000000E+03 0.  0.
   -5000001    1    1    2    0    0  0.89955060311E+02 -0.65272167993E+02 -0.23850871996E+03  0.31058618496E+03  0.16500000000E+03 0.  0.
<mgrwt>
<rscale>  0 0.39916145E+03</rscale>
<asrwt>0</asrwt>
<pdfrwt beam="1">  1        2 0.91824534E-01 0.39916145E+03</pdfrwt>
<pdfrwt beam="2">  1       -2 0.10267193E-01 0.39916145E+03</pdfrwt>
<totfact> 0.32479884E+03</totfact>
</mgrwt>
</event>
<event>
 4    1  0.8641621E-005  0.8958612E+03  0.7818608E-02  0.9430770E-01
         -2   -1    0    0    0  501 -0.00000000000E+00  0.00000000000E+00  0.12550900680E+03  0.12550900682E+03  0.25500000000E-02 0. -1.
          2   -1    0    0  501    0  0.00000000000E+00 -0.00000000000E+00 -0.15986250610E+04  0.15986250610E+04  0.25500000000E-02 0.  1.
    5000001    1    1    2    0    0 -0.11845930183E+03  0.38607111789E+03 -0.93219476825E+03  0.10292208705E+04  0.16500000000E+03 0.  0.
   -5000001    1    1    2    0    0  0.11845930183E+03 -0.38607111789E+03 -0.54092128596E+03  0.69491319736E+03  0.16500000000E+03 0.  0.
<mgrwt>
<rscale>  0 0.89586125E+03</rscale>
<asrwt>0</asrwt>
<pdfrwt beam="1">  1        2 0.24594230E+00 0.89586125E+03</pdfrwt>
<pdfrwt beam="2">  1       -2 0.19309079E-01 0.89586125E+03</pdfrwt>
<totfact> 0.25495560E+02</totfact>
</mgrwt>
</event>
<event>
 4    1  0.8641621E-005  0.9818016E+03  0.7818608E-02  0.9328733E-01
         -2   -1    0    0    0  501 -0.00000000000E+00  0.00000000000E+00  0.19944534589E+03  0.19944534591E+03  0.25500000000E-02 0.  1.
          2   -1    0    0  501    0  0.00000000000E+00 -0.00000000000E+00 -0.12082688695E+04  0.12082688695E+04  0.25500000000E-02 0. -1.
    5000001    1    1    2    0    0 -0.71371404868E+02  0.43157537031E+03 -0.28978358849E+03  0.55004609429E+03  0.16500000000E+03 0.  0.
   -5000001    1    1    2    0    0  0.71371404868E+02 -0.43157537031E+03 -0.71903993510E+03  0.85766812111E+03  0.16500000000E+03 0.  0.
<mgrwt>
<rscale>  0 0.98180161E+03</rscale>
<asrwt>0</asrwt>
<pdfrwt beam="1">  1        2 0.18588751E+00 0.98180161E+03</pdfrwt>
<pdfrwt beam="2">  1       -2 0.30683900E-01 0.98180161E+03</pdfrwt>
<totfact> 0.18368956E+02</totfact>
</mgrwt>
</event>
<event>
 4    1  0.8641621E-005  0.3795739E+03  0.7818608E-02  0.1051091E+00
         -2   -1    0    0    0  501 -0.00000000000E+00  0.00000000000E+00  0.32960718823E+02  0.32960718921E+02  0.25500000000E-02 0. -1.
          2   -1    0    0  501    0  0.00000000000E+00 -0.00000000000E+00 -0.10927880474E+04  0.10927880474E+04  0.25500000000E-02 0.  1.
    5000001    1    1    2    0    0  0.84891454673E+02  0.26180642883E+02 -0.61899181487E+03  0.64673630795E+03  0.16500000000E+03 0.  0.
   -5000001    1    1    2    0    0 -0.84891454673E+02 -0.26180642883E+02 -0.44083551372E+03  0.47901245839E+03  0.16500000000E+03 0.  0.
<mgrwt>
<rscale>  0 0.37957386E+03</rscale>
<asrwt>0</asrwt>
<pdfrwt beam="1">  1        2 0.16812121E+00 0.37957386E+03</pdfrwt>
<pdfrwt beam="2">  1       -2 0.50708807E-02 0.37957386E+03</pdfrwt>
<totfact> 0.44396837E+03</totfact>
</mgrwt>
</event>
<event>
 4    1  0.8641621E-005  0.6059154E+03  0.7818608E-02  0.9893209E-01
          2   -1    0    0  501    0  0.00000000000E+00  0.00000000000E+00  0.28007119322E+03  0.28007119323E+03  0.25500000000E-02 0.  1.
         -2   -1    0    0    0  501 -0.00000000000E+00 -0.00000000000E+00 -0.32771444197E+03  0.32771444198E+03  0.25500000000E-02 0. -1.
    5000001    1    1    2    0    0 -0.54186430257E+02  0.24813944316E+03 -0.16798418525E+02  0.30334228083E+03  0.16500000000E+03 0.  0.
   -5000001    1    1    2    0    0  0.54186430257E+02 -0.24813944316E+03 -0.30844830224E+02  0.30444335438E+03  0.16500000000E+03 0.  0.
<mgrwt>
<rscale>  0 0.60591542E+03</rscale>
<asrwt>0</asrwt>
<pdfrwt beam="1">  1        2 0.43087876E-01 0.60591542E+03</pdfrwt>
<pdfrwt beam="2">  1       -2 0.50417607E-01 0.60591542E+03</pdfrwt>
<totfact> 0.44499696E+02</totfact>
</mgrwt>
</event>
<event>
 4    1  0.8641621E-005  0.4473653E+03  0.7818608E-02  0.1028511E+00
          2   -1    0    0  501    0  0.00000000000E+00  0.00000000000E+00  0.20113507894E+04  0.20113507894E+04  0.25500000000E-02 0.  1.
         -2   -1    0    0    0  501 -0.00000000000E+00 -0.00000000000E+00 -0.24875782527E+02  0.24875782658E+02  0.25500000000E-02 0. -1.
    5000001    1    1    2    0    0  0.90132457249E+02 -0.11487938723E+03  0.81767375107E+03  0.84683912088E+03  0.16500000000E+03 0.  0.
   -5000001    1    1    2    0    0 -0.90132457249E+02  0.11487938723E+03  0.11688012558E+04  0.11893874511E+04  0.16500000000E+03 0.  0.
<mgrwt>
<rscale>  0 0.44736529E+03</rscale>
<asrwt>0</asrwt>
<pdfrwt beam="1">  1        2 0.30943854E+00 0.44736529E+03</pdfrwt>
<pdfrwt beam="2">  1       -2 0.38270440E-02 0.44736529E+03</pdfrwt>
<totfact> 0.21321880E+03</totfact>
</mgrwt>
</event>
<event>
 4    1  0.8641621E-005  0.4113938E+03  0.7818608E-02  0.1039904E+00
          2   -1    0    0  501    0  0.00000000000E+00  0.00000000000E+00  0.20426933362E+04  0.20426933362E+04  0.25500000000E-02 0.  1.
         -2   -1    0    0    0  501 -0.00000000000E+00 -0.00000000000E+00 -0.20713443638E+02  0.20713443795E+02  0.25500000000E-02 0. -1.
    5000001    1    1    2    0    0  0.80537112929E+02 -0.88482916550E+02  0.11502372537E+04  0.11681550380E+04  0.16500000000E+03 0.  0.
   -5000001    1    1    2    0    0 -0.80537112929E+02  0.88482916550E+02  0.87174263888E+03  0.89525174198E+03  0.16500000000E+03 0.  0.
<mgrwt>
<rscale>  0 0.41139379E+03</rscale>
<asrwt>0</asrwt>
<pdfrwt beam="1">  1        2 0.31426063E+00 0.41139379E+03</pdfrwt>
<pdfrwt beam="2">  1       -2 0.31866825E-02 0.41139379E+03</pdfrwt>
<totfact> 0.27122259E+03</totfact>
</mgrwt>
</event>
<event>
 4    1  0.8641621E-005  0.5823056E+03  0.7818608E-02  0.9942812E-01
          2   -1    0    0  501    0  0.00000000000E+00  0.00000000000E+00  0.17649566858E+04  0.17649566858E+04  0.25500000000E-02 0.  1.
         -2   -1    0    0    0  501 -0.00000000000E+00 -0.00000000000E+00 -0.48029476286E+02  0.48029476354E+02  0.25500000000E-02 0. -1.
    5000001    1    1    2    0    0  0.17970824668E+02 -0.23883695112E+03  0.81681931138E+03  0.86705526191E+03  0.16500000000E+03 0.  0.
   -5000001    1    1    2    0    0 -0.17970824668E+02  0.23883695112E+03  0.90010789809E+03  0.94593090020E+03  0.16500000000E+03 0.  0.
<mgrwt>
<rscale>  0 0.58230557E+03</rscale>
<asrwt>0</asrwt>
<pdfrwt beam="1">  1        2 0.27153183E+00 0.58230557E+03</pdfrwt>
<pdfrwt beam="2">  1       -2 0.73891495E-02 0.58230557E+03</pdfrwt>
<totfact> 0.10347678E+03</totfact>
</mgrwt>
</event>
<event>
 4    1  0.8641621E-005  0.5372680E+03  0.7818608E-02  0.1004485E+00
         -2   -1    0    0    0  501 -0.00000000000E+00  0.00000000000E+00  0.85837545008E+02  0.85837545045E+02  0.25500000000E-02 0. -1.
          2   -1    0    0  501    0  0.00000000000E+00 -0.00000000000E+00 -0.84070710985E+03  0.84070710986E+03  0.25500000000E-02 0.  1.
    5000001    1    1    2    0    0  0.20651230411E+03 -0.25545158912E+02 -0.30760979480E+03  0.40638488253E+03  0.16500000000E+03 0.  0.
   -5000001    1    1    2    0    0 -0.20651230411E+03  0.25545158912E+02 -0.44725977004E+03  0.52015977237E+03  0.16500000000E+03 0.  0.
<mgrwt>
<rscale>  0 0.53726803E+03</rscale>
<asrwt>0</asrwt>
<pdfrwt beam="1">  1        2 0.12933955E+00 0.53726803E+03</pdfrwt>
<pdfrwt beam="2">  1       -2 0.13205777E-01 0.53726803E+03</pdfrwt>
<totfact> 0.14048513E+03</totfact>
</mgrwt>
</event>
<event>
 4    1  0.8641621E-005  0.5569989E+03  0.7818608E-02  0.9998868E-01
          2   -1    0    0  501    0  0.00000000000E+00  0.00000000000E+00  0.82959905867E+03  0.82959905868E+03  0.25500000000E-02 0.  1.
         -2   -1    0    0    0  501 -0.00000000000E+00 -0.00000000000E+00 -0.93493285013E+02  0.93493285047E+02  0.25500000000E-02 0. -1.
    5000001    1    1    2    0    0 -0.17710748978E+03 -0.78365562348E+02  0.55576073443E+03  0.61123090418E+03  0.16500000000E+03 0.  0.
   -5000001    1    1    2    0    0  0.17710748978E+03  0.78365562348E+02  0.18034503923E+03  0.31186143954E+03  0.16500000000E+03 0.  0.
<mgrwt>
<rscale>  0 0.55699889E+03</rscale>
<asrwt>0</asrwt>
<pdfrwt beam="1">  1        2 0.12763062E+00 0.55699889E+03</pdfrwt>
<pdfrwt beam="2">  1       -2 0.14383583E-01 0.55699889E+03</pdfrwt>
<totfact> 0.12398713E+03</totfact>
</mgrwt>
</event>
<event>
 4    1  0.8641621E-005  0.7237262E+03  0.7818608E-02  0.9677496E-01
          2   -1    0    0  501    0  0.00000000000E+00  0.00000000000E+00  0.18144617838E+04  0.18144617838E+04  0.25500000000E-02 0.  1.
         -2   -1    0    0    0  501 -0.00000000000E+00 -0.00000000000E+00 -0.72167348613E+02  0.72167348658E+02  0.25500000000E-02 0. -1.
    5000001    1    1    2    0    0 -0.16744747289E+03  0.25430289650E+03  0.11446936738E+04  0.11959336211E+04  0.16500000000E+03 0.  0.
   -5000001    1    1    2    0    0  0.16744747289E+03 -0.25430289650E+03  0.59760076140E+03  0.69069551133E+03  0.16500000000E+03 0.  0.
<mgrwt>
<rscale>  0 0.72372618E+03</rscale>
<asrwt>0</asrwt>
<pdfrwt beam="1">  1        2 0.27914796E+00 0.72372618E+03</pdfrwt>
<pdfrwt beam="2">  1       -2 0.11102669E-01 0.72372618E+03</pdfrwt>
<totfact> 0.50018863E+02</totfact>
</mgrwt>
</event>
<event>
 4    1  0.8641621E-005  0.5714646E+03  0.7818608E-02  0.9966443E-01
         -2   -1    0    0    0  501 -0.00000000000E+00  0.00000000000E+00  0.46123131553E+03  0.46123131554E+03  0.25500000000E-02 0. -1.
          2   -1    0    0  501    0  0.00000000000E+00 -0.00000000000E+00 -0.17701084361E+03  0.17701084363E+03  0.25500000000E-02 0.  1.
    5000001    1    1    2    0    0  0.22158012205E+03 -0.66196019940E+01  0.22323696690E+03  0.35524824139E+03  0.16500000000E+03 0.  0.
   -5000001    1    1    2    0    0 -0.22158012205E+03  0.66196019940E+01  0.60983505018E+02  0.28299391778E+03  0.16500000000E+03 0.  0.
<mgrwt>
<rscale>  0 0.57146459E+03</rscale>
<asrwt>0</asrwt>
<pdfrwt beam="1">  1        2 0.27232438E-01 0.57146459E+03</pdfrwt>
<pdfrwt beam="2">  1       -2 0.70958662E-01 0.57146459E+03</pdfrwt>
<totfact> 0.36215651E+02</totfact>
</mgrwt>
</event>
<event>
 4    1  0.8641621E-005  0.6887833E+03  0.7818608E-02  0.9736609E-01
         -2   -1    0    0    0  501 -0.00000000000E+00  0.00000000000E+00  0.60422390693E+03  0.60422390694E+03  0.25500000000E-02 0. -1.
          2   -1    0    0  501    0  0.00000000000E+00 -0.00000000000E+00 -0.19629414454E+03  0.19629414456E+03  0.25500000000E-02 0.  1.
    5000001    1    1    2    0    0 -0.21038293815E+03  0.20497732423E+03  0.28699600167E+03  0.44257020809E+03  0.16500000000E+03 0.  0.
   -5000001    1    1    2    0    0  0.21038293815E+03 -0.20497732423E+03  0.12093376073E+03  0.35794784340E+03  0.16500000000E+03 0.  0.
<mgrwt>
<rscale>  0 0.68878332E+03</rscale>
<asrwt>0</asrwt>
<pdfrwt beam="1">  1        2 0.30199100E-01 0.68878332E+03</pdfrwt>
<pdfrwt beam="2">  1       -2 0.92957522E-01 0.68878332E+03</pdfrwt>
<totfact> 0.17500038E+02</totfact>
</mgrwt>
</event>
<event>
 4    1  0.8641621E-005  0.8220400E+03  0.7818608E-02  0.9528652E-01
          2   -1    0    0  501    0  0.00000000000E+00  0.00000000000E+00  0.94221035800E+03  0.94221035800E+03  0.25500000000E-02 0.  1.
         -2   -1    0    0    0  501 -0.00000000000E+00 -0.00000000000E+00 -0.17929908032E+03  0.17929908034E+03  0.25500000000E-02 0. -1.
    5000001    1    1    2    0    0 -0.14776636153E+01 -0.36877713754E+03  0.48458167053E+03  0.63090661439E+03  0.16500000000E+03 0.  0.
   -5000001    1    1    2    0    0  0.14776636153E+01  0.36877713754E+03  0.27832960714E+03  0.49060282396E+03  0.16500000000E+03 0.  0.
<mgrwt>
<rscale>  0 0.82204002E+03</rscale>
<asrwt>0</asrwt>
<pdfrwt beam="1">  1        2 0.14495544E+00 0.82204002E+03</pdfrwt>
<pdfrwt beam="2">  1       -2 0.27584474E-01 0.82204002E+03</pdfrwt>
<totfact> 0.33034781E+02</totfact>
</mgrwt>
</event>
<event>
 4    1  0.8641621E-005  0.1249089E+04  0.7818608E-02  0.9070942E-01
          2   -1    0    0  501    0  0.00000000000E+00  0.00000000000E+00  0.43975823070E+03  0.43975823071E+03  0.25500000000E-02 0.  1.
         -2   -1    0    0    0  501 -0.00000000000E+00 -0.00000000000E+00 -0.88697727765E+03  0.88697727765E+03  0.25500000000E-02 0. -1.
    5000001    1    1    2    0    0  0.58187374306E+03 -0.15527224613E+03 -0.23635702791E+03  0.66766471220E+03  0.16500000000E+03 0.  0.
   -5000001    1    1    2    0    0 -0.58187374306E+03  0.15527224613E+03 -0.21086201904E+03  0.65907079616E+03  0.16500000000E+03 0.  0.
<mgrwt>
<rscale>  0 0.12490886E+04</rscale>
<asrwt>0</asrwt>
<pdfrwt beam="1">  1        2 0.67655112E-01 0.12490886E+04</pdfrwt>
<pdfrwt beam="2">  1       -2 0.13645804E+00 0.12490886E+04</pdfrwt>
<totfact> 0.26934442E+01</totfact>
</mgrwt>
</event>
<event>
 4    1  0.8641621E-005  0.7661956E+03  0.7818608E-02  0.9610279E-01
         -2   -1    0    0    0  501 -0.00000000000E+00  0.00000000000E+00  0.10733310489E+03  0.10733310492E+03  0.25500000000E-02 0. -1.
          2   -1    0    0  501    0  0.00000000000E+00 -0.00000000000E+00 -0.13673686476E+04  0.13673686476E+04  0.25500000000E-02 0.  1.
    5000001    1    1    2    0    0  0.20685483906E+02  0.30911031130E+03 -0.33457781743E+03  0.48491688949E+03  0.16500000000E+03 0.  0.
   -5000001    1    1    2    0    0 -0.20685483906E+02 -0.30911031130E+03 -0.92545772524E+03  0.98978486299E+03  0.16500000000E+03 0.  0.
<mgrwt>
<rscale>  0 0.76619560E+03</rscale>
<asrwt>0</asrwt>
<pdfrwt beam="1">  1        2 0.21036440E+00 0.76619560E+03</pdfrwt>
<pdfrwt beam="2">  1       -2 0.16512786E-01 0.76619560E+03</pdfrwt>
<totfact> 0.45368128E+02</totfact>
</mgrwt>
</event>
<event>
 4    1  0.8641621E-005  0.5366426E+03  0.7818608E-02  0.1004634E+00
         -2   -1    0    0    0  501 -0.00000000000E+00  0.00000000000E+00  0.41050028715E+03  0.41050028716E+03  0.25500000000E-02 0. -1.
          2   -1    0    0  501    0  0.00000000000E+00 -0.00000000000E+00 -0.17538679902E+03  0.17538679903E+03  0.25500000000E-02 0.  1.
    5000001    1    1    2    0    0  0.16235764361E+03  0.28038165171E+02 -0.27385715992E+02  0.23477887593E+03  0.16500000000E+03 0.  0.
   -5000001    1    1    2    0    0 -0.16235764361E+03 -0.28038165171E+02  0.26249920413E+03  0.35110821026E+03  0.16500000000E+03 0.  0.
<mgrwt>
<rscale>  0 0.53664264E+03</rscale>
<asrwt>0</asrwt>
<pdfrwt beam="1">  1        2 0.26982585E-01 0.53664264E+03</pdfrwt>
<pdfrwt beam="2">  1       -2 0.63153890E-01 0.53664264E+03</pdfrwt>
<totfact> 0.47043601E+02</totfact>
</mgrwt>
</event>
<event>
 4    1  0.8641621E-005  0.4025954E+03  0.7818608E-02  0.1042885E+00
         -2   -1    0    0    0  501 -0.00000000000E+00  0.00000000000E+00  0.69017656053E+02  0.69017656100E+02  0.25500000000E-02 0. -1.
          2   -1    0    0  501    0  0.00000000000E+00 -0.00000000000E+00 -0.58710720962E+03  0.58710720963E+03  0.25500000000E-02 0.  1.
    5000001    1    1    2    0    0  0.77874473100E+02  0.19756414621E+01 -0.12049381622E+03  0.21865977332E+03  0.16500000000E+03 0.  0.
   -5000001    1    1    2    0    0 -0.77874473100E+02 -0.19756414621E+01 -0.39759573735E+03  0.43746509241E+03  0.16500000000E+03 0.  0.
<mgrwt>
<rscale>  0 0.40259540E+03</rscale>
<asrwt>0</asrwt>
<pdfrwt beam="1">  1        2 0.90324183E-01 0.40259540E+03</pdfrwt>
<pdfrwt beam="2">  1       -2 0.10618101E-01 0.40259540E+03</pdfrwt>
<totfact> 0.31373444E+03</totfact>
</mgrwt>
</event>
<event>
 4    1  0.8641621E-005  0.3922238E+03  0.7818608E-02  0.1046506E+00
          2   -1    0    0  501    0  0.00000000000E+00  0.00000000000E+00  0.11838883004E+04  0.11838883004E+04  0.25500000000E-02 0.  1.
         -2   -1    0    0    0  501 -0.00000000000E+00 -0.00000000000E+00 -0.32486073272E+02  0.32486073372E+02  0.25500000000E-02 0. -1.
    5000001    1    1    2    0    0 -0.49993131029E+02  0.44956709068E+02  0.82982117048E+03  0.84873352344E+03  0.16500000000E+03 0.  0.
   -5000001    1    1    2    0    0  0.49993131029E+02 -0.44956709068E+02  0.32158105668E+03  0.36764085036E+03  0.16500000000E+03 0.  0.
<mgrwt>
<rscale>  0 0.39222382E+03</rscale>
<asrwt>0</asrwt>
<pdfrwt beam="1">  1        2 0.18213666E+00 0.39222382E+03</pdfrwt>
<pdfrwt beam="2">  1       -2 0.49978574E-02 0.39222382E+03</pdfrwt>
<totfact> 0.40135165E+03</totfact>
</mgrwt>
</event>
<event>
 4    1  0.8641621E-005  0.7075476E+03  0.7818608E-02  0.9704411E-01
         -2   -1    0    0    0  501 -0.00000000000E+00  0.00000000000E+00  0.76027226118E+02  0.76027226161E+02  0.25500000000E-02 0. -1.
          2   -1    0    0  501    0  0.00000000000E+00 -0.00000000000E+00 -0.16461982852E+04  0.16461982852E+04  0.25500000000E-02 0.  1.
    5000001    1    1    2    0    0  0.24601429445E+03  0.18736438989E+03 -0.66828933527E+03  0.75462844056E+03  0.16500000000E+03 0.  0.
   -5000001    1    1    2    0    0 -0.24601429445E+03 -0.18736438989E+03 -0.90188172380E+03  0.96759707079E+03  0.16500000000E+03 0.  0.
<mgrwt>
<rscale>  0 0.70754757E+03</rscale>
<asrwt>0</asrwt>
<pdfrwt beam="1">  1        2 0.25326125E+00 0.70754757E+03</pdfrwt>
<pdfrwt beam="2">  1       -2 0.11696498E-01 0.70754757E+03</pdfrwt>
<totfact> 0.56780828E+02</totfact>
</mgrwt>
</event>
<event>
 4    1  0.8641621E-005  0.5153869E+03  0.7818608E-02  0.1009839E+00
          2   -1    0    0  501    0  0.00000000000E+00  0.00000000000E+00  0.45335605286E+03  0.45335605286E+03  0.25500000000E-02 0.  1.
         -2   -1    0    0    0  501 -0.00000000000E+00 -0.00000000000E+00 -0.14647629448E+03  0.14647629450E+03  0.25500000000E-02 0. -1.
    5000001    1    1    2    0    0 -0.15596403089E+03 -0.33207922579E+02  0.16949807127E+02  0.23008659460E+03  0.16500000000E+03 0.  0.
   -5000001    1    1    2    0    0  0.15596403089E+03  0.33207922579E+02  0.28992995125E+03  0.36974575276E+03  0.16500000000E+03 0.  0.
<mgrwt>
<rscale>  0 0.51538690E+03</rscale>
<asrwt>0</asrwt>
<pdfrwt beam="1">  1        2 0.69747084E-01 0.51538690E+03</pdfrwt>
<pdfrwt beam="2">  1       -2 0.22534815E-01 0.51538690E+03</pdfrwt>
<totfact> 0.11922255E+03</totfact>
</mgrwt>
</event>
<event>
 4    1  0.8641621E-005  0.1105235E+04  0.7818608E-02  0.9200105E-01
          2   -1    0    0  501    0  0.00000000000E+00  0.00000000000E+00  0.19391901553E+04  0.19391901553E+04  0.25500000000E-02 0.  1.
         -2   -1    0    0    0  501 -0.00000000000E+00 -0.00000000000E+00 -0.15748112224E+03  0.15748112226E+03  0.25500000000E-02 0. -1.
    5000001    1    1    2    0    0  0.29798256351E+03  0.33505694362E+03  0.14176166837E+04  0.14959675215E+04  0.16500000000E+03 0.  0.
   -5000001    1    1    2    0    0 -0.29798256351E+03 -0.33505694362E+03  0.36409234936E+03  0.60070375601E+03  0.16500000000E+03 0.  0.
<mgrwt>
<rscale>  0 0.11052345E+04</rscale>
<asrwt>0</asrwt>
<pdfrwt beam="1">  1        2 0.29833694E+00 0.11052345E+04</pdfrwt>
<pdfrwt beam="2">  1       -2 0.24227866E-01 0.11052345E+04</pdfrwt>
<totfact> 0.10902628E+02</totfact>
</mgrwt>
</event>
<event>
 4    1  0.8641621E-005  0.3823429E+03  0.7818608E-02  0.1050071E+00
          2   -1    0    0  501    0  0.00000000000E+00  0.00000000000E+00  0.29815843705E+04  0.29815843705E+04  0.25500000000E-02 0.  1.
         -2   -1    0    0    0  501 -0.00000000000E+00 -0.00000000000E+00 -0.12257417683E+02  0.12257417948E+02  0.25500000000E-02 0. -1.
    5000001    1    1    2    0    0 -0.29356345694E+02 -0.32032895900E+02  0.80955105774E+03  0.82733657996E+03  0.16500000000E+03 0.  0.
   -5000001    1    1    2    0    0  0.29356345694E+02  0.32032895900E+02  0.21597758951E+04  0.21665052085E+04  0.16500000000E+03 0.  0.
<mgrwt>
<rscale>  0 0.38234291E+03</rscale>
<asrwt>0</asrwt>
<pdfrwt beam="1">  1        2 0.45870511E+00 0.38234291E+03</pdfrwt>
<pdfrwt beam="2">  1       -2 0.18857573E-02 0.38234291E+03</pdfrwt>
<totfact> 0.17776137E+03</totfact>
</mgrwt>
</event>
<event>
 4    1  0.8641621E-005  0.4112872E+03  0.7818608E-02  0.1039940E+00
         -2   -1    0    0    0  501 -0.00000000000E+00  0.00000000000E+00  0.52371252886E+02  0.52371252948E+02  0.25500000000E-02 0. -1.
          2   -1    0    0  501    0  0.00000000000E+00 -0.00000000000E+00 -0.80749034406E+03  0.80749034407E+03  0.25500000000E-02 0.  1.
    5000001    1    1    2    0    0  0.36127612933E+02 -0.11364811398E+03 -0.43826731545E+03  0.48324355973E+03  0.16500000000E+03 0.  0.
   -5000001    1    1    2    0    0 -0.36127612933E+02  0.11364811398E+03 -0.31685177572E+03  0.37661803728E+03  0.16500000000E+03 0.  0.
<mgrwt>
<rscale>  0 0.41128716E+03</rscale>
<asrwt>0</asrwt>
<pdfrwt beam="1">  1        2 0.12422927E+00 0.41128716E+03</pdfrwt>
<pdfrwt beam="2">  1       -2 0.80571164E-02 0.41128716E+03</pdfrwt>
<totfact> 0.32937483E+03</totfact>
</mgrwt>
</event>
<event>
 4    1  0.8641621E-005  0.9628520E+03  0.7818608E-02  0.9350253E-01
         -2   -1    0    0    0  501 -0.00000000000E+00  0.00000000000E+00  0.10493406485E+03  0.10493406488E+03  0.25500000000E-02 0. -1.
          2   -1    0    0  501    0  0.00000000000E+00 -0.00000000000E+00 -0.22087298907E+04  0.22087298907E+04  0.25500000000E-02 0.  1.
    5000001    1    1    2    0    0  0.58173233229E+02  0.44463074633E+03 -0.91044360971E+03  0.10282087298E+04  0.16500000000E+03 0.  0.
   -5000001    1    1    2    0    0 -0.58173233229E+02 -0.44463074633E+03 -0.11933522161E+04  0.12854552257E+04  0.16500000000E+03 0.  0.
<mgrwt>
<rscale>  0 0.96285203E+03</rscale>
<asrwt>0</asrwt>
<pdfrwt beam="1">  1        2 0.33980457E+00 0.96285203E+03</pdfrwt>
<pdfrwt beam="2">  1       -2 0.16143704E-01 0.96285203E+03</pdfrwt>
<totfact> 0.15952703E+02</totfact>
</mgrwt>
</event>
<event>
 4    1  0.8641621E-005  0.6954551E+03  0.7818608E-02  0.9725036E-01
         -2   -1    0    0    0  501 -0.00000000000E+00  0.00000000000E+00  0.12546133891E+03  0.12546133894E+03  0.25500000000E-02 0. -1.
          2   -1    0    0  501    0  0.00000000000E+00 -0.00000000000E+00 -0.96375851251E+03  0.96375851251E+03  0.25500000000E-02 0.  1.
    5000001    1    1    2    0    0 -0.14206362825E+03  0.14537623994E+03 -0.60721640349E+02  0.26875349899E+03  0.16500000000E+03 0.  0.
   -5000001    1    1    2    0    0  0.14206362825E+03 -0.14537623994E+03 -0.77757553325E+03  0.82046635246E+03  0.16500000000E+03 0.  0.
<mgrwt>
<rscale>  0 0.69545506E+03</rscale>
<asrwt>0</asrwt>
<pdfrwt beam="1">  1        2 0.14827054E+00 0.69545506E+03</pdfrwt>
<pdfrwt beam="2">  1       -2 0.19301745E-01 0.69545506E+03</pdfrwt>
<totfact> 0.60796856E+02</totfact>
</mgrwt>
</event>
<event>
 4    1  0.8641621E-005  0.5967697E+03  0.7818608E-02  0.9912131E-01
         -2   -1    0    0    0  501 -0.00000000000E+00  0.00000000000E+00  0.27594426161E+03  0.27594426162E+03  0.25500000000E-02 0.  1.
          2   -1    0    0  501    0  0.00000000000E+00 -0.00000000000E+00 -0.32265039457E+03  0.32265039458E+03  0.25500000000E-02 0. -1.
    5000001    1    1    2    0    0  0.21116807781E+03 -0.83105516177E+02  0.78495812206E+02  0.29135043579E+03  0.16500000000E+03 0.  0.
   -5000001    1    1    2    0    0 -0.21116807781E+03  0.83105516177E+02 -0.12520194516E+03  0.30724422041E+03  0.16500000000E+03 0.  0.
<mgrwt>
<rscale>  0 0.59676972E+03</rscale>
<asrwt>0</asrwt>
<pdfrwt beam="1">  1        2 0.49638522E-01 0.59676972E+03</pdfrwt>
<pdfrwt beam="2">  1       -2 0.42452963E-01 0.59676972E+03</pdfrwt>
<totfact> 0.53657157E+02</totfact>
</mgrwt>
</event>
<event>
 4    1  0.8641621E-005  0.5093090E+03  0.7818608E-02  0.1011377E+00
         -2   -1    0    0    0  501 -0.00000000000E+00  0.00000000000E+00  0.34543437253E+02  0.34543437348E+02  0.25500000000E-02 0. -1.
          2   -1    0    0  501    0  0.00000000000E+00 -0.00000000000E+00 -0.18773150638E+04  0.18773150638E+04  0.25500000000E-02 0.  1.
    5000001    1    1    2    0    0  0.17209990327E+03  0.76135490372E+02 -0.10978127680E+04  0.11259808449E+04  0.16500000000E+03 0.  0.
   -5000001    1    1    2    0    0 -0.17209990327E+03 -0.76135490372E+02 -0.74495885861E+03  0.78587765627E+03  0.16500000000E+03 0.  0.
<mgrwt>
<rscale>  0 0.50930900E+03</rscale>
<asrwt>0</asrwt>
<pdfrwt beam="1">  1        2 0.28881762E+00 0.50930900E+03</pdfrwt>
<pdfrwt beam="2">  1       -2 0.53143764E-02 0.50930900E+03</pdfrwt>
<totfact> 0.15146611E+03</totfact>
</mgrwt>
</event>
<event>
 4    1  0.8641621E-005  0.4130897E+03  0.7818608E-02  0.1039339E+00
         -2   -1    0    0    0  501 -0.00000000000E+00  0.00000000000E+00  0.25781135134E+02  0.25781135260E+02  0.25500000000E-02 0. -1.
          2   -1    0    0  501    0  0.00000000000E+00 -0.00000000000E+00 -0.16547281270E+04  0.16547281270E+04  0.25500000000E-02 0.  1.
    5000001    1    1    2    0    0  0.10363603429E+03  0.64323052465E+02 -0.71838538721E+03  0.74711474837E+03  0.16500000000E+03 0.  0.
   -5000001    1    1    2    0    0 -0.10363603429E+03 -0.64323052465E+02 -0.91056160468E+03  0.93339451392E+03  0.16500000000E+03 0.  0.
<mgrwt>
<rscale>  0 0.41308967E+03</rscale>
<asrwt>0</asrwt>
<pdfrwt beam="1">  1        2 0.25457348E+00 0.41308967E+03</pdfrwt>
<pdfrwt beam="2">  1       -2 0.39663298E-02 0.41308967E+03</pdfrwt>
<totfact> 0.31372518E+03</totfact>
</mgrwt>
</event>
<event>
 4    1  0.8641621E-005  0.4620382E+03  0.7818608E-02  0.1024192E+00
         -2   -1    0    0    0  501 -0.00000000000E+00  0.00000000000E+00  0.31342264026E+02  0.31342264130E+02  0.25500000000E-02 0. -1.
          2   -1    0    0  501    0  0.00000000000E+00 -0.00000000000E+00 -0.17028070368E+04  0.17028070368E+04  0.25500000000E-02 0.  1.
    5000001    1    1    2    0    0 -0.14593815268E+03  0.69607436144E+02 -0.83085567318E+03  0.86237421647E+03  0.16500000000E+03 0.  0.
   -5000001    1    1    2    0    0  0.14593815268E+03 -0.69607436144E+02 -0.84060909959E+03  0.87177508446E+03  0.16500000000E+03 0.  0.
<mgrwt>
<rscale>  0 0.46203821E+03</rscale>
<asrwt>0</asrwt>
<pdfrwt beam="1">  1        2 0.26197024E+00 0.46203821E+03</pdfrwt>
<pdfrwt beam="2">  1       -2 0.48218881E-02 0.46203821E+03</pdfrwt>
<totfact> 0.21890954E+03</totfact>
</mgrwt>
</event>
<event>
 4    1  0.8641621E-005  0.5297123E+03  0.7818608E-02  0.1006302E+00
         -2   -1    0    0    0  501 -0.00000000000E+00  0.00000000000E+00  0.82932766533E+02  0.82932766572E+02  0.25500000000E-02 0. -1.
          2   -1    0    0  501    0  0.00000000000E+00 -0.00000000000E+00 -0.84585121106E+03  0.84585121106E+03  0.25500000000E-02 0.  1.
    5000001    1    1    2    0    0 -0.13424330635E+03  0.79362460286E+02 -0.14230438485E+03  0.26794626952E+03  0.16500000000E+03 0.  0.
   -5000001    1    1    2    0    0  0.13424330635E+03 -0.79362460286E+02 -0.62061405967E+03  0.66083770811E+03  0.16500000000E+03 0.  0.
<mgrwt>
<rscale>  0 0.52971230E+03</rscale>
<asrwt>0</asrwt>
<pdfrwt beam="1">  1        2 0.13013095E+00 0.52971230E+03</pdfrwt>
<pdfrwt beam="2">  1       -2 0.12758888E-01 0.52971230E+03</pdfrwt>
<totfact> 0.14752928E+03</totfact>
</mgrwt>
</event>
<event>
 4    1  0.8641621E-005  0.5897636E+03  0.7818608E-02  0.9926874E-01
         -2   -1    0    0    0  501 -0.00000000000E+00  0.00000000000E+00  0.41223746235E+02  0.41223746314E+02  0.25500000000E-02 0. -1.
          2   -1    0    0  501    0  0.00000000000E+00 -0.00000000000E+00 -0.21093489865E+04  0.21093489865E+04  0.25500000000E-02 0.  1.
    5000001    1    1    2    0    0 -0.38896103300E+01 -0.20020473224E+03 -0.52312041682E+03  0.58393238853E+03  0.16500000000E+03 0.  0.
   -5000001    1    1    2    0    0  0.38896103300E+01  0.20020473224E+03 -0.15450048235E+04  0.15666403443E+04  0.16500000000E+03 0.  0.
<mgrwt>
<rscale>  0 0.58976357E+03</rscale>
<asrwt>0</asrwt>
<pdfrwt beam="1">  1        2 0.32451514E+00 0.58976357E+03</pdfrwt>
<pdfrwt beam="2">  1       -2 0.63421165E-02 0.58976357E+03</pdfrwt>
<totfact> 0.85693070E+02</totfact>
</mgrwt>
</event>
<event>
 4    1  0.8641621E-005  0.4427513E+03  0.7818608E-02  0.1029906E+00
          2   -1    0    0  501    0  0.00000000000E+00  0.00000000000E+00  0.65847737942E+03  0.65847737942E+03  0.25500000000E-02 0.  1.
         -2   -1    0    0    0  501 -0.00000000000E+00 -0.00000000000E+00 -0.74425014140E+02  0.74425014184E+02  0.25500000000E-02 0. -1.
    5000001    1    1    2    0    0 -0.11040591940E+03 -0.80245293149E+02  0.38498203970E+03  0.44052802976E+03  0.16500000000E+03 0.  0.
   -5000001    1    1    2    0    0  0.11040591940E+03  0.80245293149E+02  0.19907032558E+03  0.29237436385E+03  0.16500000000E+03 0.  0.
<mgrwt>
<rscale>  0 0.44275134E+03</rscale>
<asrwt>0</asrwt>
<pdfrwt beam="1">  1        2 0.10130421E+00 0.44275134E+03</pdfrwt>
<pdfrwt beam="2">  1       -2 0.11450002E-01 0.44275134E+03</pdfrwt>
<totfact> 0.24230433E+03</totfact>
</mgrwt>
</event>
<event>
 4    1  0.8641621E-005  0.6623400E+03  0.7818608E-02  0.9783896E-01
         -2   -1    0    0    0  501 -0.00000000000E+00  0.00000000000E+00  0.28319506126E+03  0.28319506127E+03  0.25500000000E-02 0. -1.
          2   -1    0    0  501    0  0.00000000000E+00 -0.00000000000E+00 -0.38727212883E+03  0.38727212884E+03  0.25500000000E-02 0.  1.
    5000001    1    1    2    0    0  0.26540029247E+03  0.54235924687E+02 -0.14844210443E+03  0.35019838540E+03  0.16500000000E+03 0.  0.
   -5000001    1    1    2    0    0 -0.26540029247E+03 -0.54235924687E+02  0.44365036868E+02  0.32026880470E+03  0.16500000000E+03 0.  0.
<mgrwt>
<rscale>  0 0.66233996E+03</rscale>
<asrwt>0</asrwt>
<pdfrwt beam="1">  1        2 0.59580327E-01 0.66233996E+03</pdfrwt>
<pdfrwt beam="2">  1       -2 0.43568471E-01 0.66233996E+03</pdfrwt>
<totfact> 0.41557959E+02</totfact>
</mgrwt>
</event>
<event>
 4    1  0.8641621E-005  0.6457949E+03  0.7818608E-02  0.9814702E-01
         -2   -1    0    0    0  501 -0.00000000000E+00  0.00000000000E+00  0.41696023729E+02  0.41696023807E+02  0.25500000000E-02 0. -1.
          2   -1    0    0  501    0  0.00000000000E+00 -0.00000000000E+00 -0.25005443373E+04  0.25005443373E+04  0.25500000000E-02 0.  1.
    5000001    1    1    2    0    0  0.15382549869E+03 -0.23087083852E+03 -0.12633174016E+04  0.13039016395E+04  0.16500000000E+03 0.  0.
   -5000001    1    1    2    0    0 -0.15382549869E+03  0.23087083852E+03 -0.11955309120E+04  0.12383387217E+04  0.16500000000E+03 0.  0.
<mgrwt>
<rscale>  0 0.64579488E+03</rscale>
<asrwt>0</asrwt>
<pdfrwt beam="1">  1        2 0.38469901E+00 0.64579488E+03</pdfrwt>
<pdfrwt beam="2">  1       -2 0.64147749E-02 0.64579488E+03</pdfrwt>
<totfact> 0.50920773E+02</totfact>
</mgrwt>
</event>
<event>
 4    1  0.8641621E-005  0.3968043E+03  0.7818608E-02  0.1044892E+00
         -2   -1    0    0    0  501 -0.00000000000E+00  0.00000000000E+00  0.60891574169E+03  0.60891574170E+03  0.25500000000E-02 0. -1.
          2   -1    0    0  501    0  0.00000000000E+00 -0.00000000000E+00 -0.64645078234E+02  0.64645078285E+02  0.25500000000E-02 0.  1.
    5000001    1    1    2    0    0  0.86718640142E+02 -0.31200565712E+02  0.37461502370E+03  0.41958910118E+03  0.16500000000E+03 0.  0.
   -5000001    1    1    2    0    0 -0.86718640142E+02  0.31200565712E+02  0.16965563976E+03  0.25397171880E+03  0.16500000000E+03 0.  0.
<mgrwt>
<rscale>  0 0.39680426E+03</rscale>
<asrwt>0</asrwt>
<pdfrwt beam="1">  1        2 0.99453970E-02 0.39680426E+03</pdfrwt>
<pdfrwt beam="2">  1       -2 0.93679342E-01 0.39680426E+03</pdfrwt>
<totfact> 0.64760255E+02</totfact>
</mgrwt>
</event>
<event>
 4    1  0.8641621E-005  0.7386540E+03  0.7818608E-02  0.9653320E-01
          2   -1    0    0  501    0  0.00000000000E+00  0.00000000000E+00  0.17497512208E+04  0.17497512208E+04  0.25500000000E-02 0.  1.
         -2   -1    0    0    0  501 -0.00000000000E+00 -0.00000000000E+00 -0.77955336436E+02  0.77955336477E+02  0.25500000000E-02 0. -1.
    5000001    1    1    2    0    0  0.79897804706E+02 -0.29679900119E+03  0.53585377141E+03  0.63940407462E+03  0.16500000000E+03 0.  0.
   -5000001    1    1    2    0    0 -0.79897804706E+02  0.29679900119E+03  0.11359421129E+04  0.11883024826E+04  0.16500000000E+03 0.  0.
<mgrwt>
<rscale>  0 0.73865403E+03</rscale>
<asrwt>0</asrwt>
<pdfrwt beam="1">  1        2 0.26919251E+00 0.73865403E+03</pdfrwt>
<pdfrwt beam="2">  1       -2 0.11993128E-01 0.73865403E+03</pdfrwt>
<totfact> 0.47730563E+02</totfact>
</mgrwt>
</event>
<event>
 4    1  0.8641621E-005  0.4159141E+03  0.7818608E-02  0.1038404E+00
         -2   -1    0    0    0  501 -0.00000000000E+00  0.00000000000E+00  0.46251123080E+02  0.46251123151E+02  0.25500000000E-02 0. -1.
          2   -1    0    0  501    0  0.00000000000E+00 -0.00000000000E+00 -0.93502870063E+03  0.93502870063E+03  0.25500000000E-02 0.  1.
    5000001    1    1    2    0    0 -0.83947437560E+02 -0.92976020067E+02 -0.48721019530E+03  0.52942467546E+03  0.16500000000E+03 0.  0.
   -5000001    1    1    2    0    0  0.83947437560E+02  0.92976020067E+02 -0.40156738224E+03  0.45185514832E+03  0.16500000000E+03 0.  0.
<mgrwt>
<rscale>  0 0.41591407E+03</rscale>
<asrwt>0</asrwt>
<pdfrwt beam="1">  1        2 0.14385055E+00 0.41591407E+03</pdfrwt>
<pdfrwt beam="2">  1       -2 0.71155581E-02 0.41591407E+03</pdfrwt>
<totfact> 0.32900168E+03</totfact>
</mgrwt>
</event>
<event>
 4    1  0.8641621E-005  0.4244532E+03  0.7818608E-02  0.1035627E+00
         -2   -1    0    0    0  501 -0.00000000000E+00  0.00000000000E+00  0.25980738168E+02  0.25980738293E+02  0.25500000000E-02 0. -1.
          2   -1    0    0  501    0  0.00000000000E+00 -0.00000000000E+00 -0.17335967788E+04  0.17335967788E+04  0.25500000000E-02 0.  1.
    5000001    1    1    2    0    0  0.66489753387E+02  0.52381259520E+02 -0.12816293208E+04  0.12949762158E+04  0.16500000000E+03 0.  0.
   -5000001    1    1    2    0    0 -0.66489753387E+02 -0.52381259520E+02 -0.42598671982E+03  0.46460130125E+03  0.16500000000E+03 0.  0.
<mgrwt>
<rscale>  0 0.42445317E+03</rscale>
<asrwt>0</asrwt>
<pdfrwt beam="1">  1        2 0.26670711E+00 0.42445317E+03</pdfrwt>
<pdfrwt beam="2">  1       -2 0.39970380E-02 0.42445317E+03</pdfrwt>
<totfact> 0.28122354E+03</totfact>
</mgrwt>
</event>
<event>
 4    1  0.8641621E-005  0.4597147E+03  0.7818608E-02  0.1024864E+00
          2   -1    0    0  501    0  0.00000000000E+00  0.00000000000E+00  0.22079441585E+03  0.22079441587E+03  0.25500000000E-02 0.  1.
         -2   -1    0    0    0  501 -0.00000000000E+00 -0.00000000000E+00 -0.23929228296E+03  0.23929228297E+03  0.25500000000E-02 0. -1.
    5000001    1    1    2    0    0 -0.11967279018E+03  0.42319403864E+02  0.88281919774E+02  0.22612210421E+03  0.16500000000E+03 0.  0.
   -5000001    1    1    2    0    0  0.11967279018E+03 -0.42319403864E+02 -0.10677978688E+03  0.23396459463E+03  0.16500000000E+03 0.  0.
<mgrwt>
<rscale>  0 0.45971469E+03</rscale>
<asrwt>0</asrwt>
<pdfrwt beam="1">  1        2 0.33968372E-01 0.45971469E+03</pdfrwt>
<pdfrwt beam="2">  1       -2 0.36814198E-01 0.45971469E+03</pdfrwt>
<totfact> 0.10749513E+03</totfact>
</mgrwt>
</event>
<event>
 4    1  0.8641621E-005  0.5771778E+03  0.7818608E-02  0.9953920E-01
          2   -1    0    0  501    0  0.00000000000E+00  0.00000000000E+00  0.15233006940E+04  0.15233006940E+04  0.25500000000E-02 0.  1.
         -2   -1    0    0    0  501 -0.00000000000E+00 -0.00000000000E+00 -0.54673089129E+02  0.54673089188E+02  0.25500000000E-02 0. -1.
    5000001    1    1    2    0    0 -0.10460128473E+02 -0.20505483615E+03  0.10566606351E+04  0.10889966015E+04  0.16500000000E+03 0.  0.
   -5000001    1    1    2    0    0  0.10460128473E+02  0.20505483615E+03  0.41196696974E+03  0.48897718175E+03  0.16500000000E+03 0.  0.
<mgrwt>
<rscale>  0 0.57717781E+03</rscale>
<asrwt>0</asrwt>
<pdfrwt beam="1">  1        2 0.23435391E+00 0.57717781E+03</pdfrwt>
<pdfrwt beam="2">  1       -2 0.84112461E-02 0.57717781E+03</pdfrwt>
<totfact> 0.11403454E+03</totfact>
</mgrwt>
</event>
<event>
 4    1  0.8641621E-005  0.4091354E+03  0.7818608E-02  0.1040662E+00
         -2   -1    0    0    0  501 -0.00000000000E+00  0.00000000000E+00  0.60252032947E+02  0.60252033001E+02  0.25500000000E-02 0. -1.
          2   -1    0    0  501    0  0.00000000000E+00 -0.00000000000E+00 -0.69454826545E+03  0.69454826545E+03  0.25500000000E-02 0.  1.
    5000001    1    1    2    0    0  0.32584081924E+02 -0.11373547388E+03 -0.27100930929E+03  0.33862741492E+03  0.16500000000E+03 0.  0.
   -5000001    1    1    2    0    0 -0.32584081924E+02  0.11373547388E+03 -0.36328692321E+03  0.41617288354E+03  0.16500000000E+03 0.  0.
<mgrwt>
<rscale>  0 0.40913541E+03</rscale>
<asrwt>0</asrwt>
<pdfrwt beam="1">  1        2 0.10685357E+00 0.40913541E+03</pdfrwt>
<pdfrwt beam="2">  1       -2 0.92695440E-02 0.40913541E+03</pdfrwt>
<totfact> 0.31891772E+03</totfact>
</mgrwt>
</event>
<event>
 4    1  0.8641621E-005  0.6402665E+03  0.7818608E-02  0.9825217E-01
          2   -1    0    0  501    0  0.00000000000E+00  0.00000000000E+00  0.98166249250E+03  0.98166249251E+03  0.25500000000E-02 0.  1.
         -2   -1    0    0    0  501 -0.00000000000E+00 -0.00000000000E+00 -0.10439974324E+03  0.10439974327E+03  0.25500000000E-02 0. -1.
    5000001    1    1    2    0    0  0.22025415003E+03 -0.16146023784E+03  0.39443028222E+03  0.50732784917E+03  0.16500000000E+03 0.  0.
   -5000001    1    1    2    0    0 -0.22025415003E+03  0.16146023784E+03  0.48283246704E+03  0.57873438661E+03  0.16500000000E+03 0.  0.
<mgrwt>
<rscale>  0 0.64026655E+03</rscale>
<asrwt>0</asrwt>
<pdfrwt beam="1">  1        2 0.15102500E+00 0.64026655E+03</pdfrwt>
<pdfrwt beam="2">  1       -2 0.16061499E-01 0.64026655E+03</pdfrwt>
<totfact> 0.81347225E+02</totfact>
</mgrwt>
</event>
<event>
 4    1  0.8641621E-005  0.4096480E+03  0.7818608E-02  0.1040489E+00
          2   -1    0    0  501    0  0.00000000000E+00  0.00000000000E+00  0.33087509129E+03  0.33087509130E+03  0.25500000000E-02 0.  1.
         -2   -1    0    0    0  501 -0.00000000000E+00 -0.00000000000E+00 -0.12679366888E+03  0.12679366890E+03  0.25500000000E-02 0. -1.
    5000001    1    1    2    0    0  0.69258370214E+02  0.79619927505E+02  0.35083515704E+02  0.19897715390E+03  0.16500000000E+03 0.  0.
   -5000001    1    1    2    0    0 -0.69258370214E+02 -0.79619927505E+02  0.16899790671E+03  0.25869160631E+03  0.16500000000E+03 0.  0.
<mgrwt>
<rscale>  0 0.40964798E+03</rscale>
<asrwt>0</asrwt>
<pdfrwt beam="1">  1        2 0.50903858E-01 0.40964798E+03</pdfrwt>
<pdfrwt beam="2">  1       -2 0.19506719E-01 0.40964798E+03</pdfrwt>
<totfact> 0.21706294E+03</totfact>
</mgrwt>
</event>
<event>
 4    1  0.8641621E-005  0.4622235E+03  0.7818608E-02  0.1024138E+00
          2   -1    0    0  501    0  0.00000000000E+00  0.00000000000E+00  0.36138721556E+04  0.36138721556E+04  0.25500000000E-02 0.  1.
         -2   -1    0    0    0  501 -0.00000000000E+00 -0.00000000000E+00 -0.14779893466E+02  0.14779893686E+02  0.25500000000E-02 0. -1.
    5000001    1    1    2    0    0  0.91588030228E+02  0.92408327944E+01  0.75470514140E+03  0.77799653644E+03  0.16500000000E+03 0.  0.
   -5000001    1    1    2    0    0 -0.91588030228E+02 -0.92408327944E+01  0.28443871207E+04  0.28506555128E+04  0.16500000000E+03 0.  0.
<mgrwt>
<rscale>  0 0.46222352E+03</rscale>
<asrwt>0</asrwt>
<pdfrwt beam="1">  1        2 0.55598023E+00 0.46222352E+03</pdfrwt>
<pdfrwt beam="2">  1       -2 0.22738302E-02 0.46222352E+03</pdfrwt>
<totfact> 0.52287433E+02</totfact>
</mgrwt>
</event>
<event>
 4    1  0.8641621E-005  0.8440783E+03  0.7818608E-02  0.9498319E-01
         -2   -1    0    0    0  501 -0.00000000000E+00  0.00000000000E+00  0.15565124069E+03  0.15565124071E+03  0.25500000000E-02 0. -1.
          2   -1    0    0  501    0  0.00000000000E+00 -0.00000000000E+00 -0.11443343679E+04  0.11443343679E+04  0.25500000000E-02 0.  1.
    5000001    1    1    2    0    0  0.78246964795E+02 -0.30682188353E+03 -0.84088599678E+03  0.91355159422E+03  0.16500000000E+03 0.  0.
   -5000001    1    1    2    0    0 -0.78246964795E+02  0.30682188353E+03 -0.14779713042E+03  0.38643401439E+03  0.16500000000E+03 0.  0.
<mgrwt>
<rscale>  0 0.84407835E+03</rscale>
<asrwt>0</asrwt>
<pdfrwt beam="1">  1        2 0.17605144E+00 0.84407835E+03</pdfrwt>
<pdfrwt beam="2">  1       -2 0.23946345E-01 0.84407835E+03</pdfrwt>
<totfact> 0.31828203E+02</totfact>
</mgrwt>
</event>
<event>
 4    1  0.8641621E-005  0.5151657E+03  0.7818608E-02  0.1009895E+00
          2   -1    0    0  501    0  0.00000000000E+00  0.00000000000E+00  0.57094230056E+03  0.57094230056E+03  0.25500000000E-02 0.  1.
         -2   -1    0    0    0  501 -0.00000000000E+00 -0.00000000000E+00 -0.11620948954E+03  0.11620948957E+03  0.25500000000E-02 0. -1.
    5000001    1    1    2    0    0  0.14393905200E+03  0.80904784218E+02  0.37262635864E+03  0.43970380707E+03  0.16500000000E+03 0.  0.
   -5000001    1    1    2    0    0 -0.14393905200E+03 -0.80904784218E+02  0.82106452374E+02  0.24744798306E+03  0.16500000000E+03 0.  0.
<mgrwt>
<rscale>  0 0.51516566E+03</rscale>
<asrwt>0</asrwt>
<pdfrwt beam="1">  1        2 0.87837278E-01 0.51516566E+03</pdfrwt>
<pdfrwt beam="2">  1       -2 0.17878383E-01 0.51516566E+03</pdfrwt>
<totfact> 0.13669538E+03</totfact>
</mgrwt>
</event>
<event>
 4    1  0.8641621E-005  0.7299716E+03  0.7818608E-02  0.9667307E-01
          2   -1    0    0  501    0  0.00000000000E+00  0.00000000000E+00  0.19837035779E+04  0.19837035779E+04  0.25500000000E-02 0.  1.
         -2   -1    0    0    0  501 -0.00000000000E+00 -0.00000000000E+00 -0.67154501657E+02  0.67154501705E+02  0.25500000000E-02 0. -1.
    5000001    1    1    2    0    0  0.16198508797E+03  0.13803381854E+03  0.26610304930E+03  0.37858729063E+03  0.16500000000E+03 0.  0.
   -5000001    1    1    2    0    0 -0.16198508797E+03 -0.13803381854E+03  0.16504460270E+04  0.16722707890E+04  0.16500000000E+03 0.  0.
<mgrwt>
<rscale>  0 0.72997158E+03</rscale>
<asrwt>0</asrwt>
<pdfrwt beam="1">  1        2 0.30518515E+00 0.72997158E+03</pdfrwt>
<pdfrwt beam="2">  1       -2 0.10331462E-01 0.72997158E+03</pdfrwt>
<totfact> 0.45495894E+02</totfact>
</mgrwt>
</event>
<event>
 4    1  0.8641621E-005  0.4502435E+03  0.7818608E-02  0.1027649E+00
         -2   -1    0    0    0  501 -0.00000000000E+00  0.00000000000E+00  0.18415234687E+03  0.18415234689E+03  0.25500000000E-02 0. -1.
          2   -1    0    0  501    0  0.00000000000E+00 -0.00000000000E+00 -0.27520580920E+03  0.27520580921E+03  0.25500000000E-02 0.  1.
    5000001    1    1    2    0    0  0.52142084093E+02 -0.12007076321E+03 -0.12662816797E+03  0.24575491457E+03  0.16500000000E+03 0.  0.
   -5000001    1    1    2    0    0 -0.52142084093E+02  0.12007076321E+03  0.35574705636E+02  0.21360324153E+03  0.16500000000E+03 0.  0.
<mgrwt>
<rscale>  0 0.45024347E+03</rscale>
<asrwt>0</asrwt>
<pdfrwt beam="1">  1        2 0.42339355E-01 0.45024347E+03</pdfrwt>
<pdfrwt beam="2">  1       -2 0.28331130E-01 0.45024347E+03</pdfrwt>
<totfact> 0.13731353E+03</totfact>
</mgrwt>
</event>
<event>
 4    1  0.8641621E-005  0.5214405E+03  0.7818608E-02  0.1008329E+00
          2   -1    0    0  501    0  0.00000000000E+00  0.00000000000E+00  0.66577709508E+03  0.66577709508E+03  0.25500000000E-02 0.  1.
         -2   -1    0    0    0  501 -0.00000000000E+00 -0.00000000000E+00 -0.10209879242E+03  0.10209879245E+03  0.25500000000E-02 0. -1.
    5000001    1    1    2    0    0 -0.18683668634E+03  0.68515644205E+02  0.33172758294E+03  0.42055978189E+03  0.16500000000E+03 0.  0.
   -5000001    1    1    2    0    0  0.18683668634E+03 -0.68515644205E+02  0.23195071972E+03  0.34731610564E+03  0.16500000000E+03 0.  0.
<mgrwt>
<rscale>  0 0.52144046E+03</rscale>
<asrwt>0</asrwt>
<pdfrwt beam="1">  1        2 0.10242725E+00 0.52144046E+03</pdfrwt>
<pdfrwt beam="2">  1       -2 0.15707506E-01 0.52144046E+03</pdfrwt>
<totfact> 0.14162277E+03</totfact>
</mgrwt>
</event>
<event>
 4    1  0.8641621E-005  0.3918680E+03  0.7818608E-02  0.1046632E+00
          2   -1    0    0  501    0  0.00000000000E+00  0.00000000000E+00  0.16447834734E+03  0.16447834736E+03  0.25500000000E-02 0.  1.
         -2   -1    0    0    0  501 -0.00000000000E+00 -0.00000000000E+00 -0.23340539588E+03  0.23340539590E+03  0.25500000000E-02 0. -1.
    5000001    1    1    2    0    0 -0.10024367314E+03  0.31514238033E+02 -0.23193920181E+02  0.19698959144E+03  0.16500000000E+03 0.  0.
   -5000001    1    1    2    0    0  0.10024367314E+03 -0.31514238033E+02 -0.45733128356E+02  0.20089415181E+03  0.16500000000E+03 0.  0.
<mgrwt>
<rscale>  0 0.39186801E+03</rscale>
<asrwt>0</asrwt>
<pdfrwt beam="1">  1        2 0.25304361E-01 0.39186801E+03</pdfrwt>
<pdfrwt beam="2">  1       -2 0.35908522E-01 0.39186801E+03</pdfrwt>
<totfact> 0.15637724E+03</totfact>
</mgrwt>
</event>
<event>
 4    1  0.8641621E-005  0.7651708E+03  0.7818608E-02  0.9611846E-01
         -2   -1    0    0    0  501 -0.00000000000E+00  0.00000000000E+00  0.29557649090E+03  0.29557649091E+03  0.25500000000E-02 0. -1.
          2   -1    0    0  501    0  0.00000000000E+00 -0.00000000000E+00 -0.49520719244E+03  0.49520719245E+03  0.25500000000E-02 0.  1.
    5000001    1    1    2    0    0  0.27215687954E+03 -0.21185639060E+03 -0.11421393442E+03  0.39902671607E+03  0.16500000000E+03 0.  0.
   -5000001    1    1    2    0    0 -0.27215687954E+03  0.21185639060E+03 -0.85416767113E+02  0.39175696729E+03  0.16500000000E+03 0.  0.
<mgrwt>
<rscale>  0 0.76517084E+03</rscale>
<asrwt>0</asrwt>
<pdfrwt beam="1">  1        2 0.76185722E-01 0.76517084E+03</pdfrwt>
<pdfrwt beam="2">  1       -2 0.45473306E-01 0.76517084E+03</pdfrwt>
<totfact> 0.28775357E+02</totfact>
</mgrwt>
</event>
<event>
 4    1  0.8641621E-005  0.8513155E+03  0.7818608E-02  0.9488573E-01
          2   -1    0    0  501    0  0.00000000000E+00  0.00000000000E+00  0.17022446307E+04  0.17022446307E+04  0.25500000000E-02 0.  1.
         -2   -1    0    0    0  501 -0.00000000000E+00 -0.00000000000E+00 -0.10643859782E+03  0.10643859785E+03  0.25500000000E-02 0. -1.
    5000001    1    1    2    0    0  0.28490367882E+02  0.37386332901E+03  0.55220406938E+03  0.68756077846E+03  0.16500000000E+03 0.  0.
   -5000001    1    1    2    0    0 -0.28490367882E+02 -0.37386332901E+03  0.10436019635E+04  0.11211224501E+04  0.16500000000E+03 0.  0.
<mgrwt>
<rscale>  0 0.85131553E+03</rscale>
<asrwt>0</asrwt>
<pdfrwt beam="1">  1        2 0.26188376E+00 0.85131553E+03</pdfrwt>
<pdfrwt beam="2">  1       -2 0.16375171E-01 0.85131553E+03</pdfrwt>
<totfact> 0.29801607E+02</totfact>
</mgrwt>
</event>
<event>
 4    1  0.8641621E-005  0.5418156E+03  0.7818608E-02  0.1003406E+00
          2   -1    0    0  501    0  0.00000000000E+00  0.00000000000E+00  0.48002371740E+03  0.48002371740E+03  0.25500000000E-02 0.  1.
         -2   -1    0    0    0  501 -0.00000000000E+00 -0.00000000000E+00 -0.15289042796E+03  0.15289042798E+03  0.25500000000E-02 0. -1.
    5000001    1    1    2    0    0  0.83712021685E+02  0.17514968738E+03  0.55990818104E+02  0.26085453279E+03  0.16500000000E+03 0.  0.
   -5000001    1    1    2    0    0 -0.83712021685E+02 -0.17514968738E+03  0.27114247133E+03  0.37205961259E+03  0.16500000000E+03 0.  0.
<mgrwt>
<rscale>  0 0.54181558E+03</rscale>
<asrwt>0</asrwt>
<pdfrwt beam="1">  1        2 0.73849803E-01 0.54181558E+03</pdfrwt>
<pdfrwt beam="2">  1       -2 0.23521604E-01 0.54181558E+03</pdfrwt>
<totfact> 0.10355251E+03</totfact>
</mgrwt>
</event>
<event>
 4    1  0.8641621E-005  0.4849131E+03  0.7818608E-02  0.1017794E+00
          2   -1    0    0  501    0  0.00000000000E+00  0.00000000000E+00  0.10988287445E+03  0.10988287448E+03  0.25500000000E-02 0.  1.
         -2   -1    0    0    0  501 -0.00000000000E+00 -0.00000000000E+00 -0.53498024979E+03  0.53498024980E+03  0.25500000000E-02 0. -1.
    5000001    1    1    2    0    0 -0.86005133857E+02  0.15542067102E+03 -0.20885859050E+03  0.31999902946E+03  0.16500000000E+03 0.  0.
   -5000001    1    1    2    0    0  0.86005133857E+02 -0.15542067102E+03 -0.21623878484E+03  0.32486409481E+03  0.16500000000E+03 0.  0.
<mgrwt>
<rscale>  0 0.48491305E+03</rscale>
<asrwt>0</asrwt>
<pdfrwt beam="1">  1        2 0.16905058E-01 0.48491305E+03</pdfrwt>
<pdfrwt beam="2">  1       -2 0.82304652E-01 0.48491305E+03</pdfrwt>
<totfact> 0.45408342E+02</totfact>
</mgrwt>
</event>
<event>
 4    1  0.8641621E-005  0.5929734E+03  0.7818608E-02  0.9920092E-01
          2   -1    0    0  501    0  0.00000000000E+00  0.00000000000E+00  0.25546120365E+04  0.25546120365E+04  0.25500000000E-02 0.  1.
         -2   -1    0    0    0  501 -0.00000000000E+00 -0.00000000000E+00 -0.34410058664E+02  0.34410058758E+02  0.25500000000E-02 0. -1.
    5000001    1    1    2    0    0  0.20497139644E+03 -0.13661739763E+03  0.12543029035E+04  0.12888670841E+04  0.16500000000E+03 0.  0.
   -5000001    1    1    2    0    0 -0.20497139644E+03  0.13661739763E+03  0.12658990743E+04  0.13001550112E+04  0.16500000000E+03 0.  0.
<mgrwt>
<rscale>  0 0.59297336E+03</rscale>
<asrwt>0</asrwt>
<pdfrwt beam="1">  1        2 0.39301745E+00 0.59297336E+03</pdfrwt>
<pdfrwt beam="2">  1       -2 0.52938523E-02 0.59297336E+03</pdfrwt>
<totfact> 0.64404305E+02</totfact>
</mgrwt>
</event>
<event>
 4    1  0.8641621E-005  0.6573348E+03  0.7818608E-02  0.9793112E-01
          2   -1    0    0  501    0  0.00000000000E+00  0.00000000000E+00  0.24888112548E+04  0.24888112548E+04  0.25500000000E-02 0.  1.
         -2   -1    0    0    0  501 -0.00000000000E+00 -0.00000000000E+00 -0.43403157606E+02  0.43403157681E+02  0.25500000000E-02 0. -1.
    5000001    1    1    2    0    0  0.23384622733E+03  0.77936883145E+02  0.17680252925E+04  0.17927344061E+04  0.16500000000E+03 0.  0.
   -5000001    1    1    2    0    0 -0.23384622733E+03 -0.77936883145E+02  0.67738280470E+03  0.73948000642E+03  0.16500000000E+03 0.  0.
<mgrwt>
<rscale>  0 0.65733482E+03</rscale>
<asrwt>0</asrwt>
<pdfrwt beam="1">  1        2 0.38289405E+00 0.65733482E+03</pdfrwt>
<pdfrwt beam="2">  1       -2 0.66774087E-02 0.65733482E+03</pdfrwt>
<totfact> 0.48481996E+02</totfact>
</mgrwt>
</event>
<event>
 4    1  0.8641621E-005  0.8183874E+03  0.7818608E-02  0.9533777E-01
          2   -1    0    0  501    0  0.00000000000E+00  0.00000000000E+00  0.33698246179E+03  0.33698246180E+03  0.25500000000E-02 0.  1.
         -2   -1    0    0    0  501 -0.00000000000E+00 -0.00000000000E+00 -0.49687894916E+03  0.49687894916E+03  0.25500000000E-02 0. -1.
    5000001    1    1    2    0    0 -0.42910177264E+02 -0.34709833943E+03 -0.21625341183E+03  0.44306780370E+03  0.16500000000E+03 0.  0.
   -5000001    1    1    2    0    0  0.42910177264E+02  0.34709833943E+03  0.56356924471E+02  0.39079360727E+03  0.16500000000E+03 0.  0.
<mgrwt>
<rscale>  0 0.81838742E+03</rscale>
<asrwt>0</asrwt>
<pdfrwt beam="1">  1        2 0.51843456E-01 0.81838742E+03</pdfrwt>
<pdfrwt beam="2">  1       -2 0.76442915E-01 0.81838742E+03</pdfrwt>
<totfact> 0.14861889E+02</totfact>
</mgrwt>
</event>
<event>
 4    1  0.8641621E-005  0.4872989E+03  0.7818608E-02  0.1017148E+00
         -2   -1    0    0    0  501 -0.00000000000E+00  0.00000000000E+00  0.28435068512E+02  0.28435068626E+02  0.25500000000E-02 0. -1.
          2   -1    0    0  501    0  0.00000000000E+00 -0.00000000000E+00 -0.20877405464E+04  0.20877405464E+04  0.25500000000E-02 0.  1.
    5000001    1    1    2    0    0 -0.88942091059E+02  0.14735577111E+03 -0.81184193921E+03  0.84613045868E+03  0.16500000000E+03 0.  0.
   -5000001    1    1    2    0    0  0.88942091059E+02 -0.14735577111E+03 -0.12474635387E+04  0.12700451564E+04  0.16500000000E+03 0.  0.
<mgrwt>
<rscale>  0 0.48729886E+03</rscale>
<asrwt>0</asrwt>
<pdfrwt beam="1">  1        2 0.32119073E+00 0.48729886E+03</pdfrwt>
<pdfrwt beam="2">  1       -2 0.43746276E-02 0.48729886E+03</pdfrwt>
<totfact> 0.15774866E+03</totfact>
</mgrwt>
</event>
<event>
 4    1  0.8641621E-005  0.7197003E+03  0.7818608E-02  0.9684123E-01
         -2   -1    0    0    0  501 -0.00000000000E+00  0.00000000000E+00  0.55144254678E+02  0.55144254737E+02  0.25500000000E-02 0. -1.
          2   -1    0    0  501    0  0.00000000000E+00 -0.00000000000E+00 -0.23482433043E+04  0.23482433043E+04  0.25500000000E-02 0.  1.
    5000001    1    1    2    0    0 -0.16970909325E+03 -0.20909691494E+03 -0.17224865007E+04  0.17512017134E+04  0.16500000000E+03 0.  0.
   -5000001    1    1    2    0    0  0.16970909325E+03  0.20909691494E+03 -0.57061254893E+03  0.65218584557E+03  0.16500000000E+03 0.  0.
<mgrwt>
<rscale>  0 0.71970029E+03</rscale>
<asrwt>0</asrwt>
<pdfrwt beam="1">  1        2 0.36126812E+00 0.71970029E+03</pdfrwt>
<pdfrwt beam="2">  1       -2 0.84837333E-02 0.71970029E+03</pdfrwt>
<totfact> 0.39480725E+02</totfact>
</mgrwt>
</event>
<event>
 4    1  0.8641621E-005  0.9931438E+03  0.7818608E-02  0.9316097E-01
         -2   -1    0    0    0  501 -0.00000000000E+00  0.00000000000E+00  0.16593374621E+03  0.16593374622E+03  0.25500000000E-02 0. -1.
          2   -1    0    0  501    0  0.00000000000E+00 -0.00000000000E+00 -0.14860367774E+04  0.14860367774E+04  0.25500000000E-02 0.  1.
    5000001    1    1    2    0    0  0.43258720022E+03 -0.10595298126E+03 -0.41900024872E+03  0.63335924124E+03  0.16500000000E+03 0.  0.
   -5000001    1    1    2    0    0 -0.43258720022E+03  0.10595298126E+03 -0.90110278251E+03  0.10186112824E+04  0.16500000000E+03 0.  0.
<mgrwt>
<rscale>  0 0.99314380E+03</rscale>
<asrwt>0</asrwt>
<pdfrwt beam="1">  1        2 0.22862103E+00 0.99314380E+03</pdfrwt>
<pdfrwt beam="2">  1       -2 0.25528270E-01 0.99314380E+03</pdfrwt>
<totfact> 0.17814410E+02</totfact>
</mgrwt>
</event>
<event>
 4    1  0.8641621E-005  0.4760428E+03  0.7818608E-02  0.1020228E+00
          2   -1    0    0  501    0  0.00000000000E+00  0.00000000000E+00  0.73240354365E+03  0.73240354366E+03  0.25500000000E-02 0.  1.
         -2   -1    0    0    0  501 -0.00000000000E+00 -0.00000000000E+00 -0.77353773457E+02  0.77353773499E+02  0.25500000000E-02 0. -1.
    5000001    1    1    2    0    0  0.12393430403E+03  0.11518490869E+03  0.27935564347E+03  0.36591235350E+03  0.16500000000E+03 0.  0.
   -5000001    1    1    2    0    0 -0.12393430403E+03 -0.11518490869E+03  0.37569412673E+03  0.44384496366E+03  0.16500000000E+03 0.  0.
<mgrwt>
<rscale>  0 0.47604276E+03</rscale>
<asrwt>0</asrwt>
<pdfrwt beam="1">  1        2 0.11267747E+00 0.47604276E+03</pdfrwt>
<pdfrwt beam="2">  1       -2 0.11900580E-01 0.47604276E+03</pdfrwt>
<totfact> 0.19950034E+03</totfact>
</mgrwt>
</event>
<event>
 4    1  0.8641621E-005  0.4074337E+03  0.7818608E-02  0.1041236E+00
          2   -1    0    0  501    0  0.00000000000E+00  0.00000000000E+00  0.12649515281E+04  0.12649515281E+04  0.25500000000E-02 0.  1.
         -2   -1    0    0    0  501 -0.00000000000E+00 -0.00000000000E+00 -0.32808015048E+02  0.32808015147E+02  0.25500000000E-02 0. -1.
    5000001    1    1    2    0    0  0.31129351918E+02  0.11530114954E+03  0.60496584787E+03  0.63833538891E+03  0.16500000000E+03 0.  0.
   -5000001    1    1    2    0    0 -0.31129351918E+02 -0.11530114954E+03  0.62717766521E+03  0.65942415437E+03  0.16500000000E+03 0.  0.
<mgrwt>
<rscale>  0 0.40743367E+03</rscale>
<asrwt>0</asrwt>
<pdfrwt beam="1">  1        2 0.19460788E+00 0.40743367E+03</pdfrwt>
<pdfrwt beam="2">  1       -2 0.50473881E-02 0.40743367E+03</pdfrwt>
<totfact> 0.35520824E+03</totfact>
</mgrwt>
</event>
<event>
 4    1  0.8641621E-005  0.9320468E+03  0.7818608E-02  0.9386385E-01
          2   -1    0    0  501    0  0.00000000000E+00  0.00000000000E+00  0.45646069600E+03  0.45646069601E+03  0.25500000000E-02 0.  1.
         -2   -1    0    0    0  501 -0.00000000000E+00 -0.00000000000E+00 -0.47578645076E+03  0.47578645076E+03  0.25500000000E-02 0. -1.
    5000001    1    1    2    0    0  0.17919352649E+03  0.21774153744E+03  0.32272032770E+03  0.45923317278E+03  0.16500000000E+03 0.  0.
   -5000001    1    1    2    0    0 -0.17919352649E+03 -0.21774153744E+03 -0.34204608246E+03  0.47301397399E+03  0.16500000000E+03 0.  0.
<mgrwt>
<rscale>  0 0.93204681E+03</rscale>
<asrwt>0</asrwt>
<pdfrwt beam="1">  1        2 0.70224723E-01 0.93204681E+03</pdfrwt>
<pdfrwt beam="2">  1       -2 0.73197915E-01 0.93204681E+03</pdfrwt>
<totfact> 0.11559539E+02</totfact>
</mgrwt>
</event>
<event>
 4    1  0.8641621E-005  0.5601842E+03  0.7818608E-02  0.9991638E-01
         -2   -1    0    0    0  501 -0.00000000000E+00  0.00000000000E+00  0.78486496944E+02  0.78486496986E+02  0.25500000000E-02 0.  1.
          2   -1    0    0  501    0  0.00000000000E+00 -0.00000000000E+00 -0.99955502261E+03  0.99955502262E+03  0.25500000000E-02 0. -1.
    5000001    1    1    2    0    0 -0.42383077082E+02 -0.11287193056E+03 -0.82915482203E+03  0.85396669539E+03  0.16500000000E+03 0.  0.
   -5000001    1    1    2    0    0  0.42383077082E+02  0.11287193056E+03 -0.91913703640E+02  0.22407482422E+03  0.16500000000E+03 0.  0.
<mgrwt>
<rscale>  0 0.56018416E+03</rscale>
<asrwt>0</asrwt>
<pdfrwt beam="1">  1        2 0.15377769E+00 0.56018416E+03</pdfrwt>
<pdfrwt beam="2">  1       -2 0.12074846E-01 0.56018416E+03</pdfrwt>
<totfact> 0.12795157E+03</totfact>
</mgrwt>
</event>
<event>
 4    1  0.8641621E-005  0.4966544E+03  0.7818608E-02  0.1014656E+00
          2   -1    0    0  501    0  0.00000000000E+00  0.00000000000E+00  0.42776653310E+03  0.42776653310E+03  0.25500000000E-02 0.  1.
         -2   -1    0    0    0  501 -0.00000000000E+00 -0.00000000000E+00 -0.14415899350E+03  0.14415899352E+03  0.25500000000E-02 0. -1.
    5000001    1    1    2    0    0 -0.18140317924E+03  0.41337423743E+01  0.96949330949E+02  0.26372025716E+03  0.16500000000E+03 0.  0.
   -5000001    1    1    2    0    0  0.18140317924E+03 -0.41337423743E+01  0.18665820865E+03  0.30820526946E+03  0.16500000000E+03 0.  0.
<mgrwt>
<rscale>  0 0.49665438E+03</rscale>
<asrwt>0</asrwt>
<pdfrwt beam="1">  1        2 0.65810236E-01 0.49665438E+03</pdfrwt>
<pdfrwt beam="2">  1       -2 0.22178307E-01 0.49665438E+03</pdfrwt>
<totfact> 0.13090027E+03</totfact>
</mgrwt>
</event>
<event>
 4    1  0.8641621E-005  0.3791789E+03  0.7818608E-02  0.1051238E+00
         -2   -1    0    0    0  501 -0.00000000000E+00  0.00000000000E+00  0.44771725257E+02  0.44771725330E+02  0.25500000000E-02 0. -1.
          2   -1    0    0  501    0  0.00000000000E+00 -0.00000000000E+00 -0.80283151583E+03  0.80283151583E+03  0.25500000000E-02 0.  1.
    5000001    1    1    2    0    0 -0.19949678316E+02 -0.68731239252E+02 -0.24496053825E+03  0.30389576867E+03  0.16500000000E+03 0.  0.
   -5000001    1    1    2    0    0  0.19949678316E+02  0.68731239252E+02 -0.51309925232E+03  0.54370747249E+03  0.16500000000E+03 0.  0.
<mgrwt>
<rscale>  0 0.37917886E+03</rscale>
<asrwt>0</asrwt>
<pdfrwt beam="1">  1        2 0.12351253E+00 0.37917886E+03</pdfrwt>
<pdfrwt beam="2">  1       -2 0.68879583E-02 0.37917886E+03</pdfrwt>
<totfact> 0.42411427E+03</totfact>
</mgrwt>
</event>
<event>
 4    1  0.8641621E-005  0.3583788E+03  0.7818608E-02  0.1059228E+00
         -2   -1    0    0    0  501 -0.00000000000E+00  0.00000000000E+00  0.45740510789E+02  0.45740510860E+02  0.25500000000E-02 0. -1.
          2   -1    0    0  501    0  0.00000000000E+00 -0.00000000000E+00 -0.70197808847E+03  0.70197808848E+03  0.25500000000E-02 0.  1.
    5000001    1    1    2    0    0  0.56539095800E+02  0.26570849491E+02 -0.26276584589E+03  0.31650208398E+03  0.16500000000E+03 0.  0.
   -5000001    1    1    2    0    0 -0.56539095800E+02 -0.26570849491E+02 -0.39347173180E+03  0.43121651536E+03  0.16500000000E+03 0.  0.
<mgrwt>
<rscale>  0 0.35837877E+03</rscale>
<asrwt>0</asrwt>
<pdfrwt beam="1">  1        2 0.10799662E+00 0.35837877E+03</pdfrwt>
<pdfrwt beam="2">  1       -2 0.70370022E-02 0.35837877E+03</pdfrwt>
<totfact> 0.48528380E+03</totfact>
</mgrwt>
</event>
<event>
 4    1  0.8641621E-005  0.5015101E+03  0.7818608E-02  0.1013386E+00
         -2   -1    0    0    0  501 -0.00000000000E+00  0.00000000000E+00  0.42059760641E+02  0.42059760718E+02  0.25500000000E-02 0. -1.
          2   -1    0    0  501    0  0.00000000000E+00 -0.00000000000E+00 -0.14949702669E+04  0.14949702669E+04  0.25500000000E-02 0.  1.
    5000001    1    1    2    0    0  0.10180432435E+03 -0.76488645517E+02 -0.11537559379E+04  0.11724301248E+04  0.16500000000E+03 0.  0.
   -5000001    1    1    2    0    0 -0.10180432435E+03  0.76488645517E+02 -0.29915456835E+03  0.36459990279E+03  0.16500000000E+03 0.  0.
<mgrwt>
<rscale>  0 0.50151009E+03</rscale>
<asrwt>0</asrwt>
<pdfrwt beam="1">  1        2 0.22999539E+00 0.50151009E+03</pdfrwt>
<pdfrwt beam="2">  1       -2 0.64707336E-02 0.50151009E+03</pdfrwt>
<totfact> 0.17953394E+03</totfact>
</mgrwt>
</event>
<event>
 4    1  0.8641621E-005  0.6337156E+03  0.7818608E-02  0.9837825E-01
          2   -1    0    0  501    0  0.00000000000E+00  0.00000000000E+00  0.88370477829E+02  0.88370477866E+02  0.25500000000E-02 0.  1.
         -2   -1    0    0    0  501 -0.00000000000E+00 -0.00000000000E+00 -0.11361132488E+04  0.11361132488E+04  0.25500000000E-02 0. -1.
    5000001    1    1    2    0    0  0.11555633681E+03 -0.11041679048E+03 -0.10218154625E+03  0.25141838236E+03  0.16500000000E+03 0.  0.
   -5000001    1    1    2    0    0 -0.11555633681E+03  0.11041679048E+03 -0.94556122472E+03  0.97306534431E+03  0.16500000000E+03 0.  0.
<mgrwt>
<rscale>  0 0.63371562E+03</rscale>
<asrwt>0</asrwt>
<pdfrwt beam="1">  1        2 0.13595459E-01 0.63371562E+03</pdfrwt>
<pdfrwt beam="2">  1       -2 0.17478664E+00 0.63371562E+03</pdfrwt>
<totfact> 0.90888862E+01</totfact>
</mgrwt>
</event>
<event>
 4    1  0.8641621E-005  0.4105557E+03  0.7818608E-02  0.1040185E+00
         -2   -1    0    0    0  501 -0.00000000000E+00  0.00000000000E+00  0.12222289412E+03  0.12222289414E+03  0.25500000000E-02 0. -1.
          2   -1    0    0  501    0  0.00000000000E+00 -0.00000000000E+00 -0.34477176367E+03  0.34477176368E+03  0.25500000000E-02 0.  1.
    5000001    1    1    2    0    0 -0.70546081231E+02 -0.94787079324E+02 -0.14638270167E+03  0.25022836636E+03  0.16500000000E+03 0.  0.
   -5000001    1    1    2    0    0  0.70546081231E+02  0.94787079324E+02 -0.76166167887E+02  0.21676629146E+03  0.16500000000E+03 0.  0.
<mgrwt>
<rscale>  0 0.41055573E+03</rscale>
<asrwt>0</asrwt>
<pdfrwt beam="1">  1        2 0.53041809E-01 0.41055573E+03</pdfrwt>
<pdfrwt beam="2">  1       -2 0.18803522E-01 0.41055573E+03</pdfrwt>
<totfact> 0.22102604E+03</totfact>
</mgrwt>
</event>
<event>
 4    1  0.8641621E-005  0.3862724E+03  0.7818608E-02  0.1048640E+00
          2   -1    0    0  501    0  0.00000000000E+00  0.00000000000E+00  0.17745858524E+04  0.17745858524E+04  0.25500000000E-02 0.  1.
         -2   -1    0    0    0  501 -0.00000000000E+00 -0.00000000000E+00 -0.21019883884E+02  0.21019884039E+02  0.25500000000E-02 0. -1.
    5000001    1    1    2    0    0 -0.24221139506E+02 -0.32516709498E+02  0.13036550966E+04  0.13146808019E+04  0.16500000000E+03 0.  0.
   -5000001    1    1    2    0    0  0.24221139506E+02  0.32516709498E+02  0.44991087194E+03  0.48092493456E+03  0.16500000000E+03 0.  0.
<mgrwt>
<rscale>  0 0.38627238E+03</rscale>
<asrwt>0</asrwt>
<pdfrwt beam="1">  1        2 0.27301312E+00 0.38627238E+03</pdfrwt>
<pdfrwt beam="2">  1       -2 0.32338294E-02 0.38627238E+03</pdfrwt>
<totfact> 0.36898710E+03</totfact>
</mgrwt>
</event>
<event>
 4    1  0.8641621E-005  0.5136921E+03  0.7818608E-02  0.1010266E+00
          2   -1    0    0  501    0  0.00000000000E+00  0.00000000000E+00  0.97407054217E+03  0.97407054217E+03  0.25500000000E-02 0.  1.
         -2   -1    0    0    0  501 -0.00000000000E+00 -0.00000000000E+00 -0.67725980138E+02  0.67725980186E+02  0.25500000000E-02 0. -1.
    5000001    1    1    2    0    0 -0.16545490471E+03  0.10119476464E+03  0.52132150856E+03  0.58018688470E+03  0.16500000000E+03 0.  0.
   -5000001    1    1    2    0    0  0.16545490471E+03 -0.10119476464E+03  0.38502305346E+03  0.46160963766E+03  0.16500000000E+03 0.  0.
<mgrwt>
<rscale>  0 0.51369206E+03</rscale>
<asrwt>0</asrwt>
<pdfrwt beam="1">  1        2 0.14985701E+00 0.51369206E+03</pdfrwt>
<pdfrwt beam="2">  1       -2 0.10419381E-01 0.51369206E+03</pdfrwt>
<totfact> 0.16911038E+03</totfact>
</mgrwt>
</event>
<event>
 4    1  0.8641621E-005  0.6057870E+03  0.7818608E-02  0.9893472E-01
          2   -1    0    0  501    0  0.00000000000E+00  0.00000000000E+00  0.23756549572E+04  0.23756549572E+04  0.25500000000E-02 0.  1.
         -2   -1    0    0    0  501 -0.00000000000E+00 -0.00000000000E+00 -0.38618595456E+02  0.38618595540E+02  0.25500000000E-02 0. -1.
    5000001    1    1    2    0    0 -0.22110432718E+03  0.11100293996E+03  0.93920697741E+03  0.98516167333E+03  0.16500000000E+03 0.  0.
   -5000001    1    1    2    0    0  0.22110432718E+03 -0.11100293996E+03  0.13978293844E+04  0.14291118794E+04  0.16500000000E+03 0.  0.
<mgrwt>
<rscale>  0 0.60578695E+03</rscale>
<asrwt>0</asrwt>
<pdfrwt beam="1">  1        2 0.36548534E+00 0.60578695E+03</pdfrwt>
<pdfrwt beam="2">  1       -2 0.59413231E-02 0.60578695E+03</pdfrwt>
<totfact> 0.67703655E+02</totfact>
</mgrwt>
</event>
<event>
 4    1  0.8641621E-005  0.4448614E+03  0.7818608E-02  0.1029266E+00
          2   -1    0    0  501    0  0.00000000000E+00  0.00000000000E+00  0.15996532639E+03  0.15996532641E+03  0.25500000000E-02 0.  1.
         -2   -1    0    0    0  501 -0.00000000000E+00 -0.00000000000E+00 -0.30928842362E+03  0.30928842363E+03  0.25500000000E-02 0. -1.
    5000001    1    1    2    0    0  0.73924214004E+02 -0.10000127391E+03 -0.16155160215E+03  0.26227650363E+03  0.16500000000E+03 0.  0.
   -5000001    1    1    2    0    0 -0.73924214004E+02  0.10000127391E+03  0.12228504923E+02  0.20697724641E+03  0.16500000000E+03 0.  0.
<mgrwt>
<rscale>  0 0.44486143E+03</rscale>
<asrwt>0</asrwt>
<pdfrwt beam="1">  1        2 0.24610050E-01 0.44486143E+03</pdfrwt>
<pdfrwt beam="2">  1       -2 0.47582834E-01 0.44486143E+03</pdfrwt>
<totfact> 0.93546705E+02</totfact>
</mgrwt>
</event>
<event>
 4    1  0.8641621E-005  0.4902884E+03  0.7818608E-02  0.1016345E+00
         -2   -1    0    0    0  501 -0.00000000000E+00  0.00000000000E+00  0.73341134871E+02  0.73341134915E+02  0.25500000000E-02 0. -1.
          2   -1    0    0  501    0  0.00000000000E+00 -0.00000000000E+00 -0.81939951622E+03  0.81939951623E+03  0.25500000000E-02 0.  1.
    5000001    1    1    2    0    0  0.10510186246E+03  0.12293921044E+03 -0.22387252680E+03  0.32172093375E+03  0.16500000000E+03 0.  0.
   -5000001    1    1    2    0    0 -0.10510186246E+03 -0.12293921044E+03 -0.52218585456E+03  0.57101971740E+03  0.16500000000E+03 0.  0.
<mgrwt>
<rscale>  0 0.49028845E+03</rscale>
<asrwt>0</asrwt>
<pdfrwt beam="1">  1        2 0.12606146E+00 0.49028845E+03</pdfrwt>
<pdfrwt beam="2">  1       -2 0.11283252E-01 0.49028845E+03</pdfrwt>
<totfact> 0.18834096E+03</totfact>
</mgrwt>
</event>
<event>
 4    1  0.8641621E-005  0.4696002E+03  0.7818608E-02  0.1022033E+00
          2   -1    0    0  501    0  0.00000000000E+00  0.00000000000E+00  0.10419953297E+04  0.10419953297E+04  0.25500000000E-02 0.  1.
         -2   -1    0    0    0  501 -0.00000000000E+00 -0.00000000000E+00 -0.52909150400E+02  0.52909150461E+02  0.25500000000E-02 0. -1.
    5000001    1    1    2    0    0  0.81196804947E+02 -0.14528588311E+03  0.46114558040E+03  0.51728247146E+03  0.16500000000E+03 0.  0.
   -5000001    1    1    2    0    0 -0.81196804947E+02  0.14528588311E+03  0.52794059890E+03  0.57762200870E+03  0.16500000000E+03 0.  0.
<mgrwt>
<rscale>  0 0.46960020E+03</rscale>
<asrwt>0</asrwt>
<pdfrwt beam="1">  1        2 0.16030698E+00 0.46960020E+03</pdfrwt>
<pdfrwt beam="2">  1       -2 0.81398692E-02 0.46960020E+03</pdfrwt>
<totfact> 0.22793846E+03</totfact>
</mgrwt>
</event>
<event>
 4    1  0.8641621E-005  0.3754826E+03  0.7818608E-02  0.1052616E+00
         -2   -1    0    0    0  501 -0.00000000000E+00  0.00000000000E+00  0.99023910651E+02  0.99023910683E+02  0.25500000000E-02 0. -1.
          2   -1    0    0  501    0  0.00000000000E+00 -0.00000000000E+00 -0.35594222154E+03  0.35594222155E+03  0.25500000000E-02 0.  1.
    5000001    1    1    2    0    0 -0.50847561158E+02 -0.62411307620E+02 -0.17602673223E+03  0.25434436549E+03  0.16500000000E+03 0.  0.
   -5000001    1    1    2    0    0  0.50847561158E+02  0.62411307620E+02 -0.80891578657E+02  0.20062176675E+03  0.16500000000E+03 0.  0.
<mgrwt>
<rscale>  0 0.37548257E+03</rscale>
<asrwt>0</asrwt>
<pdfrwt beam="1">  1        2 0.54760341E-01 0.37548257E+03</pdfrwt>
<pdfrwt beam="2">  1       -2 0.15234448E-01 0.37548257E+03</pdfrwt>
<totfact> 0.30423545E+03</totfact>
</mgrwt>
</event>
<event>
 4    1  0.8641621E-005  0.5446900E+03  0.7818608E-02  0.1002731E+00
         -2   -1    0    0    0  501 -0.00000000000E+00  0.00000000000E+00  0.60052108206E+03  0.60052108206E+03  0.25500000000E-02 0. -1.
          2   -1    0    0  501    0  0.00000000000E+00 -0.00000000000E+00 -0.12351240429E+03  0.12351240432E+03  0.25500000000E-02 0.  1.
    5000001    1    1    2    0    0 -0.18008309885E+03 -0.56767771154E+02  0.97237929640E+02  0.26894742478E+03  0.16500000000E+03 0.  0.
   -5000001    1    1    2    0    0  0.18008309885E+03  0.56767771154E+02  0.37977074813E+03  0.45508606160E+03  0.16500000000E+03 0.  0.
<mgrwt>
<rscale>  0 0.54469001E+03</rscale>
<asrwt>0</asrwt>
<pdfrwt beam="1">  1        2 0.19001909E-01 0.54469001E+03</pdfrwt>
<pdfrwt beam="2">  1       -2 0.92387855E-01 0.54469001E+03</pdfrwt>
<totfact> 0.30370840E+02</totfact>
</mgrwt>
</event>
<event>
 4    1  0.8641621E-005  0.5609252E+03  0.7818608E-02  0.9989963E-01
          2   -1    0    0  501    0  0.00000000000E+00  0.00000000000E+00  0.36715439104E+04  0.36715439104E+04  0.25500000000E-02 0.  1.
         -2   -1    0    0    0  501 -0.00000000000E+00 -0.00000000000E+00 -0.21424033775E+02  0.21424033926E+02  0.25500000000E-02 0. -1.
    5000001    1    1    2    0    0  0.94074795561E+02 -0.19947077892E+03  0.21731645667E+04  0.21905496782E+04  0.16500000000E+03 0.  0.
   -5000001    1    1    2    0    0 -0.94074795561E+02  0.19947077892E+03  0.14769553099E+04  0.15024182661E+04  0.16500000000E+03 0.  0.
<mgrwt>
<rscale>  0 0.56092524E+03</rscale>
<asrwt>0</asrwt>
<pdfrwt beam="1">  1        2 0.56485210E+00 0.56092524E+03</pdfrwt>
<pdfrwt beam="2">  1       -2 0.32960099E-02 0.56092524E+03</pdfrwt>
<totfact> 0.26777887E+02</totfact>
</mgrwt>
</event>
<event>
 4    1  0.8641621E-005  0.4730940E+03  0.7818608E-02  0.1021051E+00
         -2   -1    0    0    0  501 -0.00000000000E+00  0.00000000000E+00  0.13036354736E+03  0.13036354739E+03  0.25500000000E-02 0. -1.
          2   -1    0    0  501    0  0.00000000000E+00 -0.00000000000E+00 -0.42921875873E+03  0.42921875874E+03  0.25500000000E-02 0.  1.
    5000001    1    1    2    0    0  0.25253220380E+02 -0.16759156578E+03 -0.14683027563E+03  0.27840400123E+03  0.16500000000E+03 0.  0.
   -5000001    1    1    2    0    0 -0.25253220380E+02  0.16759156578E+03 -0.15202493573E+03  0.28117830490E+03  0.16500000000E+03 0.  0.
<mgrwt>
<rscale>  0 0.47309399E+03</rscale>
<asrwt>0</asrwt>
<pdfrwt beam="1">  1        2 0.66033654E-01 0.47309399E+03</pdfrwt>
<pdfrwt beam="2">  1       -2 0.20055931E-01 0.47309399E+03</pdfrwt>
<totfact> 0.15542911E+03</totfact>
</mgrwt>
</event>
<event>
 4    1  0.8641621E-005  0.6212635E+03  0.7818608E-02  0.9862247E-01
          2   -1    0    0  501    0  0.00000000000E+00  0.00000000000E+00  0.14793836795E+04  0.14793836795E+04  0.25500000000E-02 0.  1.
         -2   -1    0    0    0  501 -0.00000000000E+00 -0.00000000000E+00 -0.65224511442E+02  0.65224511492E+02  0.25500000000E-02 0. -1.
    5000001    1    1    2    0    0 -0.23234881538E+03 -0.90529739745E+02  0.49779998172E+03  0.58069908523E+03  0.16500000000E+03 0.  0.
   -5000001    1    1    2    0    0  0.23234881538E+03  0.90529739745E+02  0.91635918632E+03  0.96390910574E+03  0.16500000000E+03 0.  0.
<mgrwt>
<rscale>  0 0.62126348E+03</rscale>
<asrwt>0</asrwt>
<pdfrwt beam="1">  1        2 0.22759746E+00 0.62126348E+03</pdfrwt>
<pdfrwt beam="2">  1       -2 0.10034542E-01 0.62126348E+03</pdfrwt>
<totfact> 0.90567185E+02</totfact>
</mgrwt>
</event>
<event>
 4    1  0.8641621E-005  0.7611944E+03  0.7818608E-02  0.9617950E-01
          2   -1    0    0  501    0  0.00000000000E+00  0.00000000000E+00  0.18812704512E+04  0.18812704512E+04  0.25500000000E-02 0.  1.
         -2   -1    0    0    0  501 -0.00000000000E+00 -0.00000000000E+00 -0.76998091478E+02  0.76998091520E+02  0.25500000000E-02 0. -1.
    5000001    1    1    2    0    0 -0.45886188025E+02 -0.23421700747E+03  0.26848588566E+03  0.39531357128E+03  0.16500000000E+03 0.  0.
   -5000001    1    1    2    0    0  0.45886188025E+02  0.23421700747E+03  0.15357864740E+04  0.15629549714E+04  0.16500000000E+03 0.  0.
<mgrwt>
<rscale>  0 0.76119441E+03</rscale>
<asrwt>0</asrwt>
<pdfrwt beam="1">  1        2 0.28942620E+00 0.76119441E+03</pdfrwt>
<pdfrwt beam="2">  1       -2 0.11845861E-01 0.76119441E+03</pdfrwt>
<totfact> 0.41239031E+02</totfact>
</mgrwt>
</event>
<event>
 4    1  0.8641621E-005  0.3772792E+03  0.7818608E-02  0.1051944E+00
         -2   -1    0    0    0  501 -0.00000000000E+00  0.00000000000E+00  0.71309499491E+03  0.71309499492E+03  0.25500000000E-02 0. -1.
          2   -1    0    0  501    0  0.00000000000E+00 -0.00000000000E+00 -0.49902046569E+02  0.49902046634E+02  0.25500000000E-02 0.  1.
    5000001    1    1    2    0    0 -0.22771554746E+02  0.84621766728E+02  0.27883972116E+03  0.33564263318E+03  0.16500000000E+03 0.  0.
   -5000001    1    1    2    0    0  0.22771554746E+02 -0.84621766728E+02  0.38435322719E+03  0.42735440838E+03  0.16500000000E+03 0.  0.
<mgrwt>
<rscale>  0 0.37727921E+03</rscale>
<asrwt>0</asrwt>
<pdfrwt beam="1">  1        2 0.76772385E-02 0.37727921E+03</pdfrwt>
<pdfrwt beam="2">  1       -2 0.10970691E+00 0.37727921E+03</pdfrwt>
<totfact> 0.62130312E+02</totfact>
</mgrwt>
</event>
<event>
 4    1  0.8641621E-005  0.4352798E+03  0.7818608E-02  0.1032205E+00
         -2   -1    0    0    0  501 -0.00000000000E+00  0.00000000000E+00  0.43380425377E+02  0.43380425452E+02  0.25500000000E-02 0. -1.
          2   -1    0    0  501    0  0.00000000000E+00 -0.00000000000E+00 -0.10919010493E+04  0.10919010493E+04  0.25500000000E-02 0.  1.
    5000001    1    1    2    0    0  0.99777414588E+02  0.10024227340E+03 -0.49361174739E+03  0.53933440739E+03  0.16500000000E+03 0.  0.
   -5000001    1    1    2    0    0 -0.99777414588E+02 -0.10024227340E+03 -0.55490887654E+03  0.59594706737E+03  0.16500000000E+03 0.  0.
<mgrwt>
<rscale>  0 0.43527983E+03</rscale>
<asrwt>0</asrwt>
<pdfrwt beam="1">  1        2 0.16798476E+00 0.43527983E+03</pdfrwt>
<pdfrwt beam="2">  1       -2 0.66739124E-02 0.43527983E+03</pdfrwt>
<totfact> 0.29064868E+03</totfact>
</mgrwt>
</event>
<event>
 4    1  0.8641621E-005  0.7096605E+03  0.7818608E-02  0.9700853E-01
          2   -1    0    0  501    0  0.00000000000E+00  0.00000000000E+00  0.13408867178E+04  0.13408867178E+04  0.25500000000E-02 0.  1.
         -2   -1    0    0    0  501 -0.00000000000E+00 -0.00000000000E+00 -0.93896462340E+02  0.93896462375E+02  0.25500000000E-02 0. -1.
    5000001    1    1    2    0    0  0.17236697983E+03 -0.13282628920E+03  0.16545272204E+03  0.31930048868E+03  0.16500000000E+03 0.  0.
   -5000001    1    1    2    0    0 -0.17236697983E+03  0.13282628920E+03  0.10815375334E+04  0.11154826915E+04  0.16500000000E+03 0.  0.
<mgrwt>
<rscale>  0 0.70966054E+03</rscale>
<asrwt>0</asrwt>
<pdfrwt beam="1">  1        2 0.20629026E+00 0.70966054E+03</pdfrwt>
<pdfrwt beam="2">  1       -2 0.14445610E-01 0.70966054E+03</pdfrwt>
<totfact> 0.59103561E+02</totfact>
</mgrwt>
</event>
<event>
 4    1  0.8641621E-005  0.7371125E+03  0.7818608E-02  0.9655789E-01
          2   -1    0    0  501    0  0.00000000000E+00  0.00000000000E+00  0.15759921166E+04  0.15759921166E+04  0.25500000000E-02 0.  1.
         -2   -1    0    0    0  501 -0.00000000000E+00 -0.00000000000E+00 -0.86189325021E+02  0.86189325059E+02  0.25500000000E-02 0. -1.
    5000001    1    1    2    0    0  0.15905288546E+03 -0.25105007112E+03  0.10660672583E+04  0.11189496673E+04  0.16500000000E+03 0.  0.
   -5000001    1    1    2    0    0 -0.15905288546E+03  0.25105007112E+03  0.42373553328E+03  0.54323177443E+03  0.16500000000E+03 0.  0.
<mgrwt>
<rscale>  0 0.73711247E+03</rscale>
<asrwt>0</asrwt>
<pdfrwt beam="1">  1        2 0.24246030E+00 0.73711247E+03</pdfrwt>
<pdfrwt beam="2">  1       -2 0.13259898E-01 0.73711247E+03</pdfrwt>
<totfact> 0.50313358E+02</totfact>
</mgrwt>
</event>
<event>
 4    1  0.8641621E-005  0.3917026E+03  0.7818608E-02  0.1046691E+00
         -2   -1    0    0    0  501 -0.00000000000E+00  0.00000000000E+00  0.86187565026E+02  0.86187565064E+02  0.25500000000E-02 0.  1.
          2   -1    0    0  501    0  0.00000000000E+00 -0.00000000000E+00 -0.44504949652E+03  0.44504949653E+03  0.25500000000E-02 0. -1.
    5000001    1    1    2    0    0 -0.43435844012E+02  0.72513232922E+02 -0.26507626751E+03  0.32347375332E+03  0.16500000000E+03 0.  0.
   -5000001    1    1    2    0    0  0.43435844012E+02 -0.72513232922E+02 -0.93785663992E+02  0.20776330827E+03  0.16500000000E+03 0.  0.
<mgrwt>
<rscale>  0 0.39170260E+03</rscale>
<asrwt>0</asrwt>
<pdfrwt beam="1">  1        2 0.68469152E-01 0.39170260E+03</pdfrwt>
<pdfrwt beam="2">  1       -2 0.13259626E-01 0.39170260E+03</pdfrwt>
<totfact> 0.29958125E+03</totfact>
</mgrwt>
</event>
<event>
 4    1  0.8641621E-005  0.7551954E+03  0.7818608E-02  0.9627235E-01
         -2   -1    0    0    0  501 -0.00000000000E+00  0.00000000000E+00  0.39047362380E+03  0.39047362381E+03  0.25500000000E-02 0. -1.
          2   -1    0    0  501    0  0.00000000000E+00 -0.00000000000E+00 -0.36514638900E+03  0.36514638900E+03  0.25500000000E-02 0.  1.
    5000001    1    1    2    0    0  0.71721254160E+02  0.17475523561E+03  0.29508407344E+03  0.38727631101E+03  0.16500000000E+03 0.  0.
   -5000001    1    1    2    0    0 -0.71721254160E+02 -0.17475523561E+03 -0.26975683863E+03  0.36834370181E+03  0.16500000000E+03 0.  0.
<mgrwt>
<rscale>  0 0.75519543E+03</rscale>
<asrwt>0</asrwt>
<pdfrwt beam="1">  1        2 0.56176368E-01 0.75519543E+03</pdfrwt>
<pdfrwt beam="2">  1       -2 0.60072865E-01 0.75519543E+03</pdfrwt>
<totfact> 0.22964091E+02</totfact>
</mgrwt>
</event>
<event>
 4    1  0.8641621E-005  0.5613157E+03  0.7818608E-02  0.9989082E-01
         -2   -1    0    0    0  501 -0.00000000000E+00  0.00000000000E+00  0.21848877650E+03  0.21848877652E+03  0.25500000000E-02 0. -1.
          2   -1    0    0  501    0  0.00000000000E+00 -0.00000000000E+00 -0.36051655702E+03  0.36051655703E+03  0.25500000000E-02 0.  1.
    5000001    1    1    2    0    0  0.76478677682E+02 -0.81807973692E+02 -0.27472768626E+03  0.33947287712E+03  0.16500000000E+03 0.  0.
   -5000001    1    1    2    0    0 -0.76478677682E+02  0.81807973692E+02  0.13269990574E+03  0.23953245643E+03  0.16500000000E+03 0.  0.
<mgrwt>
<rscale>  0 0.56131567E+03</rscale>
<asrwt>0</asrwt>
<pdfrwt beam="1">  1        2 0.55464086E-01 0.56131567E+03</pdfrwt>
<pdfrwt beam="2">  1       -2 0.33613658E-01 0.56131567E+03</pdfrwt>
<totfact> 0.74348432E+02</totfact>
</mgrwt>
</event>
<event>
 4    1  0.8641621E-005  0.6120938E+03  0.7818608E-02  0.9880628E-01
         -2   -1    0    0    0  501 -0.00000000000E+00  0.00000000000E+00  0.32393340619E+03  0.32393340620E+03  0.25500000000E-02 0. -1.
          2   -1    0    0  501    0  0.00000000000E+00 -0.00000000000E+00 -0.28914801969E+03  0.28914801970E+03  0.25500000000E-02 0.  1.
    5000001    1    1    2    0    0  0.12173509537E+03  0.17376762644E+03 -0.12921657437E+03  0.29822230724E+03  0.16500000000E+03 0.  0.
   -5000001    1    1    2    0    0 -0.12173509537E+03 -0.17376762644E+03  0.16400196087E+03  0.31485911867E+03  0.16500000000E+03 0.  0.
<mgrwt>
<rscale>  0 0.61209379E+03</rscale>
<asrwt>0</asrwt>
<pdfrwt beam="1">  1        2 0.44484311E-01 0.61209379E+03</pdfrwt>
<pdfrwt beam="2">  1       -2 0.49835909E-01 0.61209379E+03</pdfrwt>
<totfact> 0.43976385E+02</totfact>
</mgrwt>
</event>
<event>
 4    1  0.8641621E-005  0.5892581E+03  0.7818608E-02  0.9927946E-01
         -2   -1    0    0    0  501 -0.00000000000E+00  0.00000000000E+00  0.11637936244E+03  0.11637936246E+03  0.25500000000E-02 0. -1.
          2   -1    0    0  501    0  0.00000000000E+00 -0.00000000000E+00 -0.74589067757E+03  0.74589067758E+03  0.25500000000E-02 0.  1.
    5000001    1    1    2    0    0  0.22543859667E+03  0.89533607708E+02 -0.35462806178E+03  0.46024438072E+03  0.16500000000E+03 0.  0.
   -5000001    1    1    2    0    0 -0.22543859667E+03 -0.89533607708E+02 -0.27488325336E+03  0.40202565932E+03  0.16500000000E+03 0.  0.
<mgrwt>
<rscale>  0 0.58925811E+03</rscale>
<asrwt>0</asrwt>
<pdfrwt beam="1">  1        2 0.11475241E+00 0.58925811E+03</pdfrwt>
<pdfrwt beam="2">  1       -2 0.17904518E-01 0.58925811E+03</pdfrwt>
<totfact> 0.98212838E+02</totfact>
</mgrwt>
</event>
<event>
 4    1  0.8641621E-005  0.6379685E+03  0.7818608E-02  0.9829621E-01
         -2   -1    0    0    0  501 -0.00000000000E+00  0.00000000000E+00  0.46985331124E+02  0.46985331193E+02  0.25500000000E-02 0. -1.
          2   -1    0    0  501    0  0.00000000000E+00 -0.00000000000E+00 -0.21655899735E+04  0.21655899735E+04  0.25500000000E-02 0.  1.
    5000001    1    1    2    0    0 -0.14826458443E+03 -0.20546579768E+03 -0.70685525178E+03  0.76880942240E+03  0.16500000000E+03 0.  0.
   -5000001    1    1    2    0    0  0.14826458443E+03  0.20546579768E+03 -0.14117493906E+04  0.14437658823E+04  0.16500000000E+03 0.  0.
<mgrwt>
<rscale>  0 0.63796853E+03</rscale>
<asrwt>0</asrwt>
<pdfrwt beam="1">  1        2 0.33316761E+00 0.63796853E+03</pdfrwt>
<pdfrwt beam="2">  1       -2 0.72285142E-02 0.63796853E+03</pdfrwt>
<totfact> 0.64723490E+02</totfact>
</mgrwt>
</event>
<event>
 4    1  0.8641621E-005  0.4896441E+03  0.7818608E-02  0.1016518E+00
          2   -1    0    0  501    0  0.00000000000E+00  0.00000000000E+00  0.37242533580E+03  0.37242533581E+03  0.25500000000E-02 0.  1.
         -2   -1    0    0    0  501 -0.00000000000E+00 -0.00000000000E+00 -0.16093922495E+03  0.16093922497E+03  0.25500000000E-02 0. -1.
    5000001    1    1    2    0    0 -0.12574925955E+03 -0.12691887049E+03  0.75096055266E+02  0.25453033901E+03  0.16500000000E+03 0.  0.
   -5000001    1    1    2    0    0  0.12574925955E+03  0.12691887049E+03  0.13639005559E+03  0.27883422176E+03  0.16500000000E+03 0.  0.
<mgrwt>
<rscale>  0 0.48964414E+03</rscale>
<asrwt>0</asrwt>
<pdfrwt beam="1">  1        2 0.57296205E-01 0.48964414E+03</pdfrwt>
<pdfrwt beam="2">  1       -2 0.24759881E-01 0.48964414E+03</pdfrwt>
<totfact> 0.12561488E+03</totfact>
</mgrwt>
</event>
<event>
 4    1  0.8641621E-005  0.4288948E+03  0.7818608E-02  0.1034210E+00
          2   -1    0    0  501    0  0.00000000000E+00  0.00000000000E+00  0.43021599703E+02  0.43021599778E+02  0.25500000000E-02 0.  1.
         -2   -1    0    0    0  501 -0.00000000000E+00 -0.00000000000E+00 -0.10689442192E+04  0.10689442192E+04  0.25500000000E-02 0. -1.
    5000001    1    1    2    0    0  0.49925612418E+02  0.11874128744E+03 -0.39217059085E+03  0.44453889869E+03  0.16500000000E+03 0.  0.
   -5000001    1    1    2    0    0 -0.49925612418E+02 -0.11874128744E+03 -0.63375202867E+03  0.66742692031E+03  0.16500000000E+03 0.  0.
<mgrwt>
<rscale>  0 0.42889481E+03</rscale>
<asrwt>0</asrwt>
<pdfrwt beam="1">  1        2 0.66187085E-02 0.42889481E+03</pdfrwt>
<pdfrwt beam="2">  1       -2 0.16445294E+00 0.42889481E+03</pdfrwt>
<totfact> 0.27059289E+02</totfact>
</mgrwt>
</event>
<event>
 4    1  0.8641621E-005  0.5662651E+03  0.7818608E-02  0.9977978E-01
         -2   -1    0    0    0  501 -0.00000000000E+00  0.00000000000E+00  0.28286279694E+03  0.28286279695E+03  0.25500000000E-02 0. -1.
          2   -1    0    0  501    0  0.00000000000E+00 -0.00000000000E+00 -0.28340251754E+03  0.28340251756E+03  0.25500000000E-02 0.  1.
    5000001    1    1    2    0    0  0.17943427734E+03 -0.37068751139E+02  0.13890015867E+03  0.28300001108E+03  0.16500000000E+03 0.  0.
   -5000001    1    1    2    0    0 -0.17943427734E+03  0.37068751139E+02 -0.13943987927E+03  0.28326530343E+03  0.16500000000E+03 0.  0.
<mgrwt>
<rscale>  0 0.56626506E+03</rscale>
<asrwt>0</asrwt>
<pdfrwt beam="1">  1        2 0.43600387E-01 0.56626506E+03</pdfrwt>
<pdfrwt beam="2">  1       -2 0.43517353E-01 0.56626506E+03</pdfrwt>
<totfact> 0.58999526E+02</totfact>
</mgrwt>
</event>
<event>
 4    1  0.8641621E-005  0.4498605E+03  0.7818608E-02  0.1027764E+00
          2   -1    0    0  501    0  0.00000000000E+00  0.00000000000E+00  0.53854131804E+03  0.53854131805E+03  0.25500000000E-02 0.  1.
         -2   -1    0    0    0  501 -0.00000000000E+00 -0.00000000000E+00 -0.93945643113E+02  0.93945643148E+02  0.25500000000E-02 0. -1.
    5000001    1    1    2    0    0  0.12039334027E+03 -0.90015882446E+02  0.26134197633E+03  0.34368887685E+03  0.16500000000E+03 0.  0.
   -5000001    1    1    2    0    0 -0.12039334027E+03  0.90015882446E+02  0.18325369860E+03  0.28879808435E+03  0.16500000000E+03 0.  0.
<mgrwt>
<rscale>  0 0.44986047E+03</rscale>
<asrwt>0</asrwt>
<pdfrwt beam="1">  1        2 0.82852511E-01 0.44986047E+03</pdfrwt>
<pdfrwt beam="2">  1       -2 0.14453176E-01 0.44986047E+03</pdfrwt>
<totfact> 0.20950606E+03</totfact>
</mgrwt>
</event>
<event>
 4    1  0.8641621E-005  0.4192862E+03  0.7818608E-02  0.1037299E+00
         -2   -1    0    0    0  501 -0.00000000000E+00  0.00000000000E+00  0.28413139657E+03  0.28413139658E+03  0.25500000000E-02 0. -1.
          2   -1    0    0  501    0  0.00000000000E+00 -0.00000000000E+00 -0.15468275920E+03  0.15468275922E+03  0.25500000000E-02 0.  1.
    5000001    1    1    2    0    0 -0.72026585719E+02  0.88907767696E+02  0.12780426276E+03  0.23801544023E+03  0.16500000000E+03 0.  0.
   -5000001    1    1    2    0    0  0.72026585719E+02 -0.88907767696E+02  0.16443746062E+01  0.20079871557E+03  0.16500000000E+03 0.  0.
<mgrwt>
<rscale>  0 0.41928620E+03</rscale>
<asrwt>0</asrwt>
<pdfrwt beam="1">  1        2 0.23797348E-01 0.41928620E+03</pdfrwt>
<pdfrwt beam="2">  1       -2 0.43712522E-01 0.41928620E+03</pdfrwt>
<totfact> 0.11491715E+03</totfact>
</mgrwt>
</event>
<event>
 4    1  0.8641621E-005  0.4441329E+03  0.7818608E-02  0.1029486E+00
         -2   -1    0    0    0  501 -0.00000000000E+00  0.00000000000E+00  0.77787124420E+02  0.77787124462E+02  0.25500000000E-02 0. -1.
          2   -1    0    0  501    0  0.00000000000E+00 -0.00000000000E+00 -0.63395463783E+03  0.63395463784E+03  0.25500000000E-02 0.  1.
    5000001    1    1    2    0    0  0.55019288540E+01 -0.14490645796E+03 -0.33026750317E+03  0.39664817714E+03  0.16500000000E+03 0.  0.
   -5000001    1    1    2    0    0 -0.55019288540E+01  0.14490645796E+03 -0.22590001024E+03  0.31509358515E+03  0.16500000000E+03 0.  0.
<mgrwt>
<rscale>  0 0.44413290E+03</rscale>
<asrwt>0</asrwt>
<pdfrwt beam="1">  1        2 0.97531479E-01 0.44413290E+03</pdfrwt>
<pdfrwt beam="2">  1       -2 0.11967250E-01 0.44413290E+03</pdfrwt>
<totfact> 0.23603927E+03</totfact>
</mgrwt>
</event>
<event>
 4    1  0.8641621E-005  0.7583587E+03  0.7818608E-02  0.9622327E-01
         -2   -1    0    0    0  501 -0.00000000000E+00  0.00000000000E+00  0.11552282207E+03  0.11552282210E+03  0.25500000000E-02 0. -1.
          2   -1    0    0  501    0  0.00000000000E+00 -0.00000000000E+00 -0.12445763031E+04  0.12445763031E+04  0.25500000000E-02 0.  1.
    5000001    1    1    2    0    0 -0.99878416724E+02  0.30876089481E+03 -0.75469437227E+03  0.83791263496E+03  0.16500000000E+03 0.  0.
   -5000001    1    1    2    0    0  0.99878416724E+02 -0.30876089481E+03 -0.37435910878E+03  0.52218649027E+03  0.16500000000E+03 0.  0.
<mgrwt>
<rscale>  0 0.75835867E+03</rscale>
<asrwt>0</asrwt>
<pdfrwt beam="1">  1        2 0.19147327E+00 0.75835867E+03</pdfrwt>
<pdfrwt beam="2">  1       -2 0.17772743E-01 0.75835867E+03</pdfrwt>
<totfact> 0.47083574E+02</totfact>
</mgrwt>
</event>
<event>
 4    1  0.8641621E-005  0.7022718E+03  0.7818608E-02  0.9713355E-01
          2   -1    0    0  501    0  0.00000000000E+00  0.00000000000E+00  0.14713370419E+04  0.14713370419E+04  0.25500000000E-02 0.  1.
         -2   -1    0    0    0  501 -0.00000000000E+00 -0.00000000000E+00 -0.83798894794E+02  0.83798894833E+02  0.25500000000E-02 0. -1.
    5000001    1    1    2    0    0  0.28018397155E+03 -0.12626921103E+03  0.78302063667E+03  0.85720084520E+03  0.16500000000E+03 0.  0.
   -5000001    1    1    2    0    0 -0.28018397155E+03  0.12626921103E+03  0.60451751042E+03  0.69793509152E+03  0.16500000000E+03 0.  0.
<mgrwt>
<rscale>  0 0.70227179E+03</rscale>
<asrwt>0</asrwt>
<pdfrwt beam="1">  1        2 0.22635953E+00 0.70227179E+03</pdfrwt>
<pdfrwt beam="2">  1       -2 0.12892139E-01 0.70227179E+03</pdfrwt>
<totfact> 0.60384579E+02</totfact>
</mgrwt>
</event>
<event>
 4    1  0.8641621E-005  0.6485295E+03  0.7818608E-02  0.9809542E-01
         -2   -1    0    0    0  501 -0.00000000000E+00  0.00000000000E+00  0.35130842353E+03  0.35130842354E+03  0.25500000000E-02 0. -1.
          2   -1    0    0  501    0  0.00000000000E+00 -0.00000000000E+00 -0.29930293414E+03  0.29930293415E+03  0.25500000000E-02 0.  1.
    5000001    1    1    2    0    0 -0.19412649486E+03 -0.12140827885E+03  0.18619492837E+03  0.33811036295E+03  0.16500000000E+03 0.  0.
   -5000001    1    1    2    0    0  0.19412649486E+03  0.12140827885E+03 -0.13418943897E+03  0.31250099474E+03  0.16500000000E+03 0.  0.
<mgrwt>
<rscale>  0 0.64852954E+03</rscale>
<asrwt>0</asrwt>
<pdfrwt beam="1">  1        2 0.46046606E-01 0.64852954E+03</pdfrwt>
<pdfrwt beam="2">  1       -2 0.54047449E-01 0.64852954E+03</pdfrwt>
<totfact> 0.35830160E+02</totfact>
</mgrwt>
</event>
<event>
 4    1  0.8641621E-005  0.4805877E+03  0.7818608E-02  0.1018974E+00
         -2   -1    0    0    0  501 -0.00000000000E+00  0.00000000000E+00  0.20831556931E+03  0.20831556932E+03  0.25500000000E-02 0. -1.
          2   -1    0    0  501    0  0.00000000000E+00 -0.00000000000E+00 -0.27718105245E+03  0.27718105246E+03  0.25500000000E-02 0.  1.
    5000001    1    1    2    0    0 -0.14600673992E+03 -0.70260064896E+02  0.31515648848E+02  0.23339383227E+03  0.16500000000E+03 0.  0.
   -5000001    1    1    2    0    0  0.14600673992E+03  0.70260064896E+02 -0.10038113199E+03  0.25210278951E+03  0.16500000000E+03 0.  0.
<mgrwt>
<rscale>  0 0.48058768E+03</rscale>
<asrwt>0</asrwt>
<pdfrwt beam="1">  1        2 0.42643239E-01 0.48058768E+03</pdfrwt>
<pdfrwt beam="2">  1       -2 0.32048549E-01 0.48058768E+03</pdfrwt>
<totfact> 0.10861990E+03</totfact>
</mgrwt>
</event>
<event>
 4    1  0.8641621E-005  0.5233433E+03  0.7818608E-02  0.1007859E+00
         -2   -1    0    0    0  501 -0.00000000000E+00  0.00000000000E+00  0.24497002943E+03  0.24497002944E+03  0.25500000000E-02 0. -1.
          2   -1    0    0  501    0  0.00000000000E+00 -0.00000000000E+00 -0.27951199357E+03  0.27951199358E+03  0.25500000000E-02 0.  1.
    5000001    1    1    2    0    0  0.42913583216E+02 -0.14918334001E+03 -0.14851322748E+03  0.27088452022E+03  0.16500000000E+03 0.  0.
   -5000001    1    1    2    0    0 -0.42913583216E+02  0.14918334001E+03  0.11397126334E+03  0.25359750280E+03  0.16500000000E+03 0.  0.
<mgrwt>
<rscale>  0 0.52334333E+03</rscale>
<asrwt>0</asrwt>
<pdfrwt beam="1">  1        2 0.43001845E-01 0.52334333E+03</pdfrwt>
<pdfrwt beam="2">  1       -2 0.37687697E-01 0.52334333E+03</pdfrwt>
<totfact> 0.79254219E+02</totfact>
</mgrwt>
</event>
<event>
 4    1  0.8641621E-005  0.3423277E+03  0.7818608E-02  0.1065809E+00
          2   -1    0    0  501    0  0.00000000000E+00  0.00000000000E+00  0.10645454467E+03  0.10645454470E+03  0.25500000000E-02 0.  1.
         -2   -1    0    0    0  501 -0.00000000000E+00 -0.00000000000E+00 -0.27520722235E+03  0.27520722236E+03  0.25500000000E-02 0. -1.
    5000001    1    1    2    0    0  0.36836218522E+02  0.21834241816E+02 -0.67161357085E+02  0.18321923752E+03  0.16500000000E+03 0.  0.
   -5000001    1    1    2    0    0 -0.36836218522E+02 -0.21834241816E+02 -0.10159132060E+03  0.19844252954E+03  0.16500000000E+03 0.  0.
<mgrwt>
<rscale>  0 0.34232768E+03</rscale>
<asrwt>0</asrwt>
<pdfrwt beam="1">  1        2 0.16377622E-01 0.34232768E+03</pdfrwt>
<pdfrwt beam="2">  1       -2 0.42339572E-01 0.34232768E+03</pdfrwt>
<totfact> 0.18814242E+03</totfact>
</mgrwt>
</event>
<event>
 4    1  0.8641621E-005  0.1698826E+04  0.7818608E-02  0.8762034E-01
         -2   -1    0    0    0  501 -0.00000000000E+00  0.00000000000E+00  0.61677597644E+03  0.61677597645E+03  0.25500000000E-02 0. -1.
          2   -1    0    0  501    0  0.00000000000E+00 -0.00000000000E+00 -0.11697966390E+04  0.11697966390E+04  0.25500000000E-02 0.  1.
    5000001    1    1    2    0    0  0.46108149549E+03  0.35013851744E+03 -0.90669814244E+03  0.10883563977E+04  0.16500000000E+03 0.  0.
   -5000001    1    1    2    0    0 -0.46108149549E+03 -0.35013851744E+03  0.35367747993E+03  0.69821621772E+03  0.16500000000E+03 0.  0.
<mgrwt>
<rscale>  0 0.16988260E+04</rscale>
<asrwt>0</asrwt>
<pdfrwt beam="1">  1        2 0.17996871E+00 0.16988260E+04</pdfrwt>
<pdfrwt beam="2">  1       -2 0.94888612E-01 0.16988260E+04</pdfrwt>
<totfact> 0.17567721E+01</totfact>
</mgrwt>
</event>
<event>
 4    1  0.8641621E-005  0.3462225E+03  0.7818608E-02  0.1064176E+00
         -2   -1    0    0    0  501 -0.00000000000E+00  0.00000000000E+00  0.43468749950E+03  0.43468749951E+03  0.25500000000E-02 0. -1.
          2   -1    0    0  501    0  0.00000000000E+00 -0.00000000000E+00 -0.68940336641E+02  0.68940336688E+02  0.25500000000E-02 0.  1.
    5000001    1    1    2    0    0  0.10349982955E+02 -0.50971464538E+02  0.19175642305E+03  0.25826486042E+03  0.16500000000E+03 0.  0.
   -5000001    1    1    2    0    0 -0.10349982955E+02  0.50971464538E+02  0.17399073981E+03  0.24536297578E+03  0.16500000000E+03 0.  0.
<mgrwt>
<rscale>  0 0.34622249E+03</rscale>
<asrwt>0</asrwt>
<pdfrwt beam="1">  1        2 0.10606206E-01 0.34622249E+03</pdfrwt>
<pdfrwt beam="2">  1       -2 0.66875001E-01 0.34622249E+03</pdfrwt>
<totfact> 0.12588600E+03</totfact>
</mgrwt>
</event>
<event>
 4    1  0.8641621E-005  0.3848538E+03  0.7818608E-02  0.1049154E+00
          2   -1    0    0  501    0  0.00000000000E+00  0.00000000000E+00  0.18334538016E+03  0.18334538018E+03  0.25500000000E-02 0.  1.
         -2   -1    0    0    0  501 -0.00000000000E+00 -0.00000000000E+00 -0.20195825450E+03  0.20195825451E+03  0.25500000000E-02 0. -1.
    5000001    1    1    2    0    0 -0.48318112383E+01 -0.83643439408E+02  0.43514509235E+02  0.19010019429E+03  0.16500000000E+03 0.  0.
   -5000001    1    1    2    0    0  0.48318112383E+01  0.83643439408E+02 -0.62127383569E+02  0.19520344040E+03  0.16500000000E+03 0.  0.
<mgrwt>
<rscale>  0 0.38485381E+03</rscale>
<asrwt>0</asrwt>
<pdfrwt beam="1">  1        2 0.28206982E-01 0.38485381E+03</pdfrwt>
<pdfrwt beam="2">  1       -2 0.31070501E-01 0.38485381E+03</pdfrwt>
<totfact> 0.18125830E+03</totfact>
</mgrwt>
</event>
<event>
 4    1  0.8641621E-005  0.5766576E+03  0.7818608E-02  0.9955054E-01
         -2   -1    0    0    0  501 -0.00000000000E+00  0.00000000000E+00  0.85321455492E+03  0.85321455492E+03  0.25500000000E-02 0. -1.
          2   -1    0    0  501    0  0.00000000000E+00 -0.00000000000E+00 -0.97435623513E+02  0.97435623547E+02  0.25500000000E-02 0.  1.
    5000001    1    1    2    0    0 -0.18744855746E+03 -0.23214917255E+02  0.61238174798E+03  0.66174942338E+03  0.16500000000E+03 0.  0.
   -5000001    1    1    2    0    0  0.18744855746E+03  0.23214917255E+02  0.14339718342E+03  0.28890075509E+03  0.16500000000E+03 0.  0.
<mgrwt>
<rscale>  0 0.57665758E+03</rscale>
<asrwt>0</asrwt>
<pdfrwt beam="1">  1        2 0.14990097E-01 0.57665758E+03</pdfrwt>
<pdfrwt beam="2">  1       -2 0.13126377E+00 0.57665758E+03</pdfrwt>
<totfact> 0.17260721E+02</totfact>
</mgrwt>
</event>
<event>
 4    1  0.8641621E-005  0.4123606E+03  0.7818608E-02  0.1039582E+00
         -2   -1    0    0    0  501 -0.00000000000E+00  0.00000000000E+00  0.36751869451E+02  0.36751869540E+02  0.25500000000E-02 0. -1.
          2   -1    0    0  501    0  0.00000000000E+00 -0.00000000000E+00 -0.11566842896E+04  0.11566842896E+04  0.25500000000E-02 0.  1.
    5000001    1    1    2    0    0  0.61044784835E+02 -0.98952174954E+02 -0.43829758593E+03  0.48254302659E+03  0.16500000000E+03 0.  0.
   -5000001    1    1    2    0    0 -0.61044784835E+02  0.98952174954E+02 -0.68163483423E+03  0.71089313256E+03  0.16500000000E+03 0.  0.
<mgrwt>
<rscale>  0 0.41236057E+03</rscale>
<asrwt>0</asrwt>
<pdfrwt beam="1">  1        2 0.17795140E+00 0.41236057E+03</pdfrwt>
<pdfrwt beam="2">  1       -2 0.56541346E-02 0.41236057E+03</pdfrwt>
<totfact> 0.34427066E+03</totfact>
</mgrwt>
</event>
<event>
 4    1  0.8641621E-005  0.4146586E+03  0.7818608E-02  0.1038819E+00
         -2   -1    0    0    0  501 -0.00000000000E+00  0.00000000000E+00  0.43830548432E+02  0.43830548506E+02  0.25500000000E-02 0. -1.
          2   -1    0    0  501    0  0.00000000000E+00 -0.00000000000E+00 -0.98071857019E+03  0.98071857019E+03  0.25500000000E-02 0.  1.
    5000001    1    1    2    0    0  0.10519839335E+02 -0.75210464379E+02 -0.22144604318E+03  0.28640990034E+03  0.16500000000E+03 0.  0.
   -5000001    1    1    2    0    0 -0.10519839335E+02  0.75210464379E+02 -0.71544197857E+03  0.73813921836E+03  0.16500000000E+03 0.  0.
<mgrwt>
<rscale>  0 0.41465857E+03</rscale>
<asrwt>0</asrwt>
<pdfrwt beam="1">  1        2 0.15087976E+00 0.41465857E+03</pdfrwt>
<pdfrwt beam="2">  1       -2 0.67431620E-02 0.41465857E+03</pdfrwt>
<totfact> 0.33468407E+03</totfact>
</mgrwt>
</event>
<event>
 4    1  0.8641621E-005  0.4087587E+03  0.7818608E-02  0.1040788E+00
          2   -1    0    0  501    0  0.00000000000E+00  0.00000000000E+00  0.13124184866E+04  0.13124184866E+04  0.25500000000E-02 0.  1.
         -2   -1    0    0    0  501 -0.00000000000E+00 -0.00000000000E+00 -0.31827441089E+02  0.31827441191E+02  0.25500000000E-02 0. -1.
    5000001    1    1    2    0    0  0.10817742614E+03 -0.78616958669E+01  0.81374442625E+03  0.83735843761E+03  0.16500000000E+03 0.  0.
   -5000001    1    1    2    0    0 -0.10817742614E+03  0.78616958669E+01  0.46684661930E+03  0.50688749022E+03  0.16500000000E+03 0.  0.
<mgrwt>
<rscale>  0 0.40875872E+03</rscale>
<asrwt>0</asrwt>
<pdfrwt beam="1">  1        2 0.20191052E+00 0.40875872E+03</pdfrwt>
<pdfrwt beam="2">  1       -2 0.48965299E-02 0.40875872E+03</pdfrwt>
<totfact> 0.34987980E+03</totfact>
</mgrwt>
</event>
<event>
 4    1  0.8641621E-005  0.3907879E+03  0.7818608E-02  0.1047017E+00
          2   -1    0    0  501    0  0.00000000000E+00  0.00000000000E+00  0.42733793625E+03  0.42733793626E+03  0.25500000000E-02 0.  1.
         -2   -1    0    0    0  501 -0.00000000000E+00 -0.00000000000E+00 -0.89340989939E+02  0.89340989975E+02  0.25500000000E-02 0. -1.
    5000001    1    1    2    0    0 -0.99685507433E+01  0.10400619245E+03  0.17705534943E+03  0.26361004691E+03  0.16500000000E+03 0.  0.
   -5000001    1    1    2    0    0  0.99685507433E+01 -0.10400619245E+03  0.16094159689E+03  0.25306887932E+03  0.16500000000E+03 0.  0.
<mgrwt>
<rscale>  0 0.39078789E+03</rscale>
<asrwt>0</asrwt>
<pdfrwt beam="1">  1        2 0.65744298E-01 0.39078789E+03</pdfrwt>
<pdfrwt beam="2">  1       -2 0.13744768E-01 0.39078789E+03</pdfrwt>
<totfact> 0.29537759E+03</totfact>
</mgrwt>
</event>
<event>
 4    1  0.8641621E-005  0.5314746E+03  0.7818608E-02  0.1005875E+00
          2   -1    0    0  501    0  0.00000000000E+00  0.00000000000E+00  0.70659739032E+03  0.70659739032E+03  0.25500000000E-02 0.  1.
         -2   -1    0    0    0  501 -0.00000000000E+00 -0.00000000000E+00 -0.99938539635E+02  0.99938539668E+02  0.25500000000E-02 0. -1.
    5000001    1    1    2    0    0 -0.15734538623E+03  0.12490543755E+03  0.38689597638E+03  0.46612491398E+03  0.16500000000E+03 0.  0.
   -5000001    1    1    2    0    0  0.15734538623E+03 -0.12490543755E+03  0.21976287431E+03  0.34041101601E+03  0.16500000000E+03 0.  0.
<mgrwt>
<rscale>  0 0.53147460E+03</rscale>
<asrwt>0</asrwt>
<pdfrwt beam="1">  1        2 0.10870729E+00 0.53147460E+03</pdfrwt>
<pdfrwt beam="2">  1       -2 0.15375160E-01 0.53147460E+03</pdfrwt>
<totfact> 0.13637627E+03</totfact>
</mgrwt>
</event>
<event>
 4    1  0.8641621E-005  0.5184689E+03  0.7818608E-02  0.1009068E+00
         -2   -1    0    0    0  501 -0.00000000000E+00  0.00000000000E+00  0.37146924561E+02  0.37146924649E+02  0.25500000000E-02 0. -1.
          2   -1    0    0  501    0  0.00000000000E+00 -0.00000000000E+00 -0.18090996901E+04  0.18090996901E+04  0.25500000000E-02 0.  1.
    5000001    1    1    2    0    0 -0.15766291637E+03  0.11251901333E+03 -0.10625714781E+04  0.10926121314E+04  0.16500000000E+03 0.  0.
   -5000001    1    1    2    0    0  0.15766291637E+03 -0.11251901333E+03 -0.70938128744E+03  0.75363448338E+03  0.16500000000E+03 0.  0.
<mgrwt>
<rscale>  0 0.51846886E+03</rscale>
<asrwt>0</asrwt>
<pdfrwt beam="1">  1        2 0.27832296E+00 0.51846886E+03</pdfrwt>
<pdfrwt beam="2">  1       -2 0.57149129E-02 0.51846886E+03</pdfrwt>
<totfact> 0.14715428E+03</totfact>
</mgrwt>
</event>
<event>
 4    1  0.8641621E-005  0.3779689E+03  0.7818608E-02  0.1051687E+00
          2   -1    0    0  501    0  0.00000000000E+00  0.00000000000E+00  0.12774038274E+03  0.12774038277E+03  0.25500000000E-02 0.  1.
         -2   -1    0    0    0  501 -0.00000000000E+00 -0.00000000000E+00 -0.27959140535E+03  0.27959140537E+03  0.25500000000E-02 0. -1.
    5000001    1    1    2    0    0 -0.86459597538E+02  0.31827889413E+02 -0.74465022829E+02  0.20312143209E+03  0.16500000000E+03 0.  0.
   -5000001    1    1    2    0    0  0.86459597538E+02 -0.31827889413E+02 -0.77385999784E+02  0.20421035604E+03  0.16500000000E+03 0.  0.
<mgrwt>
<rscale>  0 0.37796885E+03</rscale>
<asrwt>0</asrwt>
<pdfrwt beam="1">  1        2 0.19652367E-01 0.37796885E+03</pdfrwt>
<pdfrwt beam="2">  1       -2 0.43014062E-01 0.37796885E+03</pdfrwt>
<totfact> 0.14760258E+03</totfact>
</mgrwt>
</event>
<event>
 4    1  0.8641621E-005  0.4188537E+03  0.7818608E-02  0.1037440E+00
          2   -1    0    0  501    0  0.00000000000E+00  0.00000000000E+00  0.47566913508E+02  0.47566913576E+02  0.25500000000E-02 0.  1.
         -2   -1    0    0    0  501 -0.00000000000E+00 -0.00000000000E+00 -0.92206136813E+03  0.92206136813E+03  0.25500000000E-02 0. -1.
    5000001    1    1    2    0    0 -0.95505282657E+02  0.52127011998E+02 -0.27692700503E+03  0.34022353021E+03  0.16500000000E+03 0.  0.
   -5000001    1    1    2    0    0  0.95505282657E+02 -0.52127011998E+02 -0.59756744959E+03  0.62940475149E+03  0.16500000000E+03 0.  0.
<mgrwt>
<rscale>  0 0.41885374E+03</rscale>
<asrwt>0</asrwt>
<pdfrwt beam="1">  1        2 0.73179874E-02 0.41885374E+03</pdfrwt>
<pdfrwt beam="2">  1       -2 0.14185558E+00 0.41885374E+03</pdfrwt>
<totfact> 0.35024117E+02</totfact>
</mgrwt>
</event>
<event>
 4    1  0.8641621E-005  0.5631327E+03  0.7818608E-02  0.9984991E-01
         -2   -1    0    0    0  501 -0.00000000000E+00  0.00000000000E+00  0.46760081526E+02  0.46760081595E+02  0.25500000000E-02 0. -1.
          2   -1    0    0  501    0  0.00000000000E+00 -0.00000000000E+00 -0.16954549474E+04  0.16954549474E+04  0.25500000000E-02 0.  1.
    5000001    1    1    2    0    0  0.28235125359E+02 -0.22612636172E+03 -0.85883423557E+03  0.90374310396E+03  0.16500000000E+03 0.  0.
   -5000001    1    1    2    0    0 -0.28235125359E+02  0.22612636172E+03 -0.78986063031E+03  0.83847192505E+03  0.16500000000E+03 0.  0.
<mgrwt>
<rscale>  0 0.56313271E+03</rscale>
<asrwt>0</asrwt>
<pdfrwt beam="1">  1        2 0.26083918E+00 0.56313271E+03</pdfrwt>
<pdfrwt beam="2">  1       -2 0.71938600E-02 0.56313271E+03</pdfrwt>
<totfact> 0.11785272E+03</totfact>
</mgrwt>
</event>
<event>
 4    1  0.8641621E-005  0.3714314E+03  0.7818608E-02  0.1054147E+00
         -2   -1    0    0    0  501 -0.00000000000E+00  0.00000000000E+00  0.16848134582E+02  0.16848134775E+02  0.25500000000E-02 0. -1.
          2   -1    0    0  501    0  0.00000000000E+00 -0.00000000000E+00 -0.20471302384E+04  0.20471302384E+04  0.25500000000E-02 0.  1.
    5000001    1    1    2    0    0  0.61743189570E+01  0.75889560379E+02 -0.80223582374E+03  0.82255982426E+03  0.16500000000E+03 0.  0.
   -5000001    1    1    2    0    0 -0.61743189570E+01 -0.75889560379E+02 -0.12280462800E+04  0.12414185489E+04  0.16500000000E+03 0.  0.
<mgrwt>
<rscale>  0 0.37143143E+03</rscale>
<asrwt>0</asrwt>
<pdfrwt beam="1">  1        2 0.31494292E+00 0.37143143E+03</pdfrwt>
<pdfrwt beam="2">  1       -2 0.25920223E-02 0.37143143E+03</pdfrwt>
<totfact> 0.36845139E+03</totfact>
</mgrwt>
</event>
<event>
 4    1  0.8641621E-005  0.4930790E+03  0.7818608E-02  0.1015601E+00
         -2   -1    0    0    0  501 -0.00000000000E+00  0.00000000000E+00  0.46388459187E+02  0.46388459257E+02  0.25500000000E-02 0. -1.
          2   -1    0    0  501    0  0.00000000000E+00 -0.00000000000E+00 -0.13102767843E+04  0.13102767843E+04  0.25500000000E-02 0.  1.
    5000001    1    1    2    0    0 -0.90027529874E+02 -0.29141368128E+02 -0.10635091763E+04  0.10803846276E+04  0.16500000000E+03 0.  0.
   -5000001    1    1    2    0    0  0.90027529874E+02  0.29141368128E+02 -0.20037914877E+03  0.27628061592E+03  0.16500000000E+03 0.  0.
<mgrwt>
<rscale>  0 0.49307898E+03</rscale>
<asrwt>0</asrwt>
<pdfrwt beam="1">  1        2 0.20158102E+00 0.49307898E+03</pdfrwt>
<pdfrwt beam="2">  1       -2 0.71366870E-02 0.49307898E+03</pdfrwt>
<totfact> 0.19511132E+03</totfact>
</mgrwt>
</event>
<event>
 4    1  0.8641621E-005  0.4660831E+03  0.7818608E-02  0.1023032E+00
          2   -1    0    0  501    0  0.00000000000E+00  0.00000000000E+00  0.47089931329E+03  0.47089931330E+03  0.25500000000E-02 0.  1.
         -2   -1    0    0    0  501 -0.00000000000E+00 -0.00000000000E+00 -0.11532904275E+03  0.11532904278E+03  0.25500000000E-02 0. -1.
    5000001    1    1    2    0    0  0.32864323175E+02  0.16090026568E+03  0.16433175906E+03  0.28495418276E+03  0.16500000000E+03 0.  0.
   -5000001    1    1    2    0    0 -0.32864323175E+02 -0.16090026568E+03  0.19123851148E+03  0.30127417332E+03  0.16500000000E+03 0.  0.
<mgrwt>
<rscale>  0 0.46608311E+03</rscale>
<asrwt>0</asrwt>
<pdfrwt beam="1">  1        2 0.72446048E-01 0.46608311E+03</pdfrwt>
<pdfrwt beam="2">  1       -2 0.17742930E-01 0.46608311E+03</pdfrwt>
<totfact> 0.17289643E+03</totfact>
</mgrwt>
</event>
<event>
 4    1  0.8641621E-005  0.4318081E+03  0.7818608E-02  0.1033290E+00
         -2   -1    0    0    0  501 -0.00000000000E+00  0.00000000000E+00  0.46940801950E+02  0.46940802019E+02  0.25500000000E-02 0. -1.
          2   -1    0    0  501    0  0.00000000000E+00 -0.00000000000E+00 -0.99304971030E+03  0.99304971030E+03  0.25500000000E-02 0.  1.
    5000001    1    1    2    0    0  0.48066435867E+02 -0.11282298564E+03 -0.31420331820E+03  0.37548386585E+03  0.16500000000E+03 0.  0.
   -5000001    1    1    2    0    0 -0.48066435867E+02  0.11282298564E+03 -0.63190559015E+03  0.66450664647E+03  0.16500000000E+03 0.  0.
<mgrwt>
<rscale>  0 0.43180806E+03</rscale>
<asrwt>0</asrwt>
<pdfrwt beam="1">  1        2 0.15277686E+00 0.43180806E+03</pdfrwt>
<pdfrwt beam="2">  1       -2 0.72216626E-02 0.43180806E+03</pdfrwt>
<totfact> 0.29532232E+03</totfact>
</mgrwt>
</event>
<event>
 4    1  0.8641621E-005  0.6095193E+03  0.7818608E-02  0.9885851E-01
         -2   -1    0    0    0  501 -0.00000000000E+00  0.00000000000E+00  0.71880729109E+02  0.71880729154E+02  0.25500000000E-02 0. -1.
          2   -1    0    0  501    0  0.00000000000E+00 -0.00000000000E+00 -0.12921187726E+04  0.12921187726E+04  0.25500000000E-02 0.  1.
    5000001    1    1    2    0    0 -0.12953698101E+02 -0.21321179272E+03 -0.29343371952E+03  0.39869213010E+03  0.16500000000E+03 0.  0.
   -5000001    1    1    2    0    0  0.12953698101E+02  0.21321179272E+03 -0.92680432401E+03  0.96530737169E+03  0.16500000000E+03 0.  0.
<mgrwt>
<rscale>  0 0.60951928E+03</rscale>
<asrwt>0</asrwt>
<pdfrwt beam="1">  1        2 0.19878749E+00 0.60951928E+03</pdfrwt>
<pdfrwt beam="2">  1       -2 0.11058575E-01 0.60951928E+03</pdfrwt>
<totfact> 0.98604811E+02</totfact>
</mgrwt>
</event>
<event>
 4    1  0.8641621E-005  0.4406177E+03  0.7818608E-02  0.1030557E+00
          2   -1    0    0  501    0  0.00000000000E+00  0.00000000000E+00  0.29940259290E+04  0.29940259290E+04  0.25500000000E-02 0.  1.
         -2   -1    0    0    0  501 -0.00000000000E+00 -0.00000000000E+00 -0.16210944219E+02  0.16210944419E+02  0.25500000000E-02 0. -1.
    5000001    1    1    2    0    0  0.81546047974E+02  0.11515468029E+03  0.12332253818E+04  0.12521901615E+04  0.16500000000E+03 0.  0.
   -5000001    1    1    2    0    0 -0.81546047974E+02 -0.11515468029E+03  0.17445896030E+04  0.17580467119E+04  0.16500000000E+03 0.  0.
<mgrwt>
<rscale>  0 0.44061769E+03</rscale>
<asrwt>0</asrwt>
<pdfrwt beam="1">  1        2 0.46061921E+00 0.44061769E+03</pdfrwt>
<pdfrwt beam="2">  1       -2 0.24939923E-02 0.44061769E+03</pdfrwt>
<totfact> 0.11440545E+03</totfact>
</mgrwt>
</event>
<event>
 4    1  0.8641621E-005  0.5979262E+03  0.7818608E-02  0.9909718E-01
          2   -1    0    0  501    0  0.00000000000E+00  0.00000000000E+00  0.63444543491E+03  0.63444543492E+03  0.25500000000E-02 0.  1.
         -2   -1    0    0    0  501 -0.00000000000E+00 -0.00000000000E+00 -0.14087726760E+03  0.14087726763E+03  0.25500000000E-02 0. -1.
    5000001    1    1    2    0    0 -0.13931937160E+03  0.20674370315E+03  0.24542829998E+03  0.38679826335E+03  0.16500000000E+03 0.  0.
   -5000001    1    1    2    0    0  0.13931937160E+03 -0.20674370315E+03  0.24813986733E+03  0.38852443920E+03  0.16500000000E+03 0.  0.
<mgrwt>
<rscale>  0 0.59792621E+03</rscale>
<asrwt>0</asrwt>
<pdfrwt beam="1">  1        2 0.97606989E-01 0.59792621E+03</pdfrwt>
<pdfrwt beam="2">  1       -2 0.21673426E-01 0.59792621E+03</pdfrwt>
<totfact> 0.86180876E+02</totfact>
</mgrwt>
</event>
<event>
 4    1  0.8641621E-005  0.1032056E+04  0.7818608E-02  0.9274069E-01
          2   -1    0    0  501    0  0.00000000000E+00  0.00000000000E+00  0.12995766187E+03  0.12995766190E+03  0.25500000000E-02 0.  1.
         -2   -1    0    0    0  501 -0.00000000000E+00 -0.00000000000E+00 -0.20490109978E+04  0.20490109978E+04  0.25500000000E-02 0. -1.
    5000001    1    1    2    0    0 -0.33310522164E+03 -0.85947577913E+02 -0.22598294302E+03  0.44344037409E+03  0.16500000000E+03 0.  0.
   -5000001    1    1    2    0    0  0.33310522164E+03  0.85947577913E+02 -0.16930703929E+04  0.17355282856E+04  0.16500000000E+03 0.  0.
<mgrwt>
<rscale>  0 0.10320556E+04</rscale>
<asrwt>0</asrwt>
<pdfrwt beam="1">  1        2 0.19993488E-01 0.10320556E+04</pdfrwt>
<pdfrwt beam="2">  1       -2 0.31523244E+00 0.10320556E+04</pdfrwt>
<totfact> 0.73889057E+00</totfact>
</mgrwt>
</event>
<event>
 4    1  0.8641621E-005  0.3837284E+03  0.7818608E-02  0.1049564E+00
         -2   -1    0    0    0  501 -0.00000000000E+00  0.00000000000E+00  0.44793966198E+02  0.44793966271E+02  0.25500000000E-02 0. -1.
          2   -1    0    0  501    0  0.00000000000E+00 -0.00000000000E+00 -0.82180412012E+03  0.82180412012E+03  0.25500000000E-02 0.  1.
    5000001    1    1    2    0    0 -0.78416200367E+02 -0.58631953171E+02 -0.38795374619E+03  0.43280470838E+03  0.16500000000E+03 0.  0.
   -5000001    1    1    2    0    0  0.78416200367E+02  0.58631953171E+02 -0.38905640774E+03  0.43379337802E+03  0.16500000000E+03 0.  0.
<mgrwt>
<rscale>  0 0.38372837E+03</rscale>
<asrwt>0</asrwt>
<pdfrwt beam="1">  1        2 0.12643139E+00 0.38372837E+03</pdfrwt>
<pdfrwt beam="2">  1       -2 0.68913801E-02 0.38372837E+03</pdfrwt>
<totfact> 0.41118458E+03</totfact>
</mgrwt>
</event>
<event>
 4    1  0.8641621E-005  0.5474293E+03  0.7818608E-02  0.1002091E+00
         -2   -1    0    0    0  501 -0.00000000000E+00  0.00000000000E+00  0.55074649747E+02  0.55074649806E+02  0.25500000000E-02 0. -1.
          2   -1    0    0  501    0  0.00000000000E+00 -0.00000000000E+00 -0.13603300089E+04  0.13603300089E+04  0.25500000000E-02 0.  1.
    5000001    1    1    2    0    0  0.20953106288E+03 -0.39651334053E+02 -0.53082656893E+03  0.59537999705E+03  0.16500000000E+03 0.  0.
   -5000001    1    1    2    0    0 -0.20953106288E+03  0.39651334053E+02 -0.77442879019E+03  0.82002466163E+03  0.16500000000E+03 0.  0.
<mgrwt>
<rscale>  0 0.54742926E+03</rscale>
<asrwt>0</asrwt>
<pdfrwt beam="1">  1        2 0.20928151E+00 0.54742926E+03</pdfrwt>
<pdfrwt beam="2">  1       -2 0.84730241E-02 0.54742926E+03</pdfrwt>
<totfact> 0.13902063E+03</totfact>
</mgrwt>
</event>
<event>
 4    1  0.8641621E-005  0.3999818E+03  0.7818608E-02  0.1043786E+00
         -2   -1    0    0    0  501 -0.00000000000E+00  0.00000000000E+00  0.76476587492E+02  0.76476587535E+02  0.25500000000E-02 0. -1.
          2   -1    0    0  501    0  0.00000000000E+00 -0.00000000000E+00 -0.52298834114E+03  0.52298834115E+03  0.25500000000E-02 0.  1.
    5000001    1    1    2    0    0  0.10099315269E+03 -0.43962928780E+02 -0.26114168513E+03  0.32795172771E+03  0.16500000000E+03 0.  0.
   -5000001    1    1    2    0    0 -0.10099315269E+03  0.43962928780E+02 -0.18537006852E+03  0.27151320097E+03  0.16500000000E+03 0.  0.
<mgrwt>
<rscale>  0 0.39998182E+03</rscale>
<asrwt>0</asrwt>
<pdfrwt beam="1">  1        2 0.80459743E-01 0.39998182E+03</pdfrwt>
<pdfrwt beam="2">  1       -2 0.11765629E-01 0.39998182E+03</pdfrwt>
<totfact> 0.30373129E+03</totfact>
</mgrwt>
</event>
<event>
 4    1  0.8641621E-005  0.6375925E+03  0.7818608E-02  0.9830343E-01
          2   -1    0    0  501    0  0.00000000000E+00  0.00000000000E+00  0.40396738465E+03  0.40396738466E+03  0.25500000000E-02 0. -1.
         -2   -1    0    0    0  501 -0.00000000000E+00 -0.00000000000E+00 -0.25158235194E+03  0.25158235195E+03  0.25500000000E-02 0.  1.
    5000001    1    1    2    0    0  0.10808866212E+03  0.16636116960E+03  0.26867313894E+03  0.37251772202E+03  0.16500000000E+03 0.  0.
   -5000001    1    1    2    0    0 -0.10808866212E+03 -0.16636116960E+03 -0.11628810623E+03  0.28303201459E+03  0.16500000000E+03 0.  0.
<mgrwt>
<rscale>  0 0.63759255E+03</rscale>
<asrwt>0</asrwt>
<pdfrwt beam="1">  1        2 0.62148828E-01 0.63759255E+03</pdfrwt>
<pdfrwt beam="2">  1       -2 0.38704977E-01 0.63759255E+03</pdfrwt>
<totfact> 0.49986149E+02</totfact>
</mgrwt>
</event>
<event>
 4    1  0.8641621E-005  0.5237457E+03  0.7818608E-02  0.1007760E+00
          2   -1    0    0  501    0  0.00000000000E+00  0.00000000000E+00  0.23802719985E+03  0.23802719987E+03  0.25500000000E-02 0.  1.
         -2   -1    0    0    0  501 -0.00000000000E+00 -0.00000000000E+00 -0.28810741170E+03  0.28810741171E+03  0.25500000000E-02 0. -1.
    5000001    1    1    2    0    0 -0.16523375308E+03  0.99308973450E+02  0.39969321264E+02  0.25687937249E+03  0.16500000000E+03 0.  0.
   -5000001    1    1    2    0    0  0.16523375308E+03 -0.99308973450E+02 -0.90049533109E+02  0.26925523909E+03  0.16500000000E+03 0.  0.
<mgrwt>
<rscale>  0 0.52374574E+03</rscale>
<asrwt>0</asrwt>
<pdfrwt beam="1">  1        2 0.36619569E-01 0.52374574E+03</pdfrwt>
<pdfrwt beam="2">  1       -2 0.44324217E-01 0.52374574E+03</pdfrwt>
<totfact> 0.69019152E+02</totfact>
</mgrwt>
</event>
<event>
 4    1  0.8641621E-005  0.3843510E+03  0.7818608E-02  0.1049337E+00
         -2   -1    0    0    0  501 -0.00000000000E+00  0.00000000000E+00  0.31490544410E+02  0.31490544514E+02  0.25500000000E-02 0. -1.
          2   -1    0    0  501    0  0.00000000000E+00 -0.00000000000E+00 -0.11727779608E+04  0.11727779608E+04  0.25500000000E-02 0.  1.
    5000001    1    1    2    0    0 -0.27416332496E+02  0.55101876891E+02 -0.32959611192E+03  0.37369301454E+03  0.16500000000E+03 0.  0.
   -5000001    1    1    2    0    0  0.27416332496E+02 -0.55101876891E+02 -0.81169130451E+03  0.83057549081E+03  0.16500000000E+03 0.  0.
<mgrwt>
<rscale>  0 0.38435097E+03</rscale>
<asrwt>0</asrwt>
<pdfrwt beam="1">  1        2 0.18042734E+00 0.38435097E+03</pdfrwt>
<pdfrwt beam="2">  1       -2 0.48447001E-02 0.38435097E+03</pdfrwt>
<totfact> 0.42722549E+03</totfact>
</mgrwt>
</event>
<event>
 4    1  0.8641621E-005  0.6135444E+03  0.7818608E-02  0.9877697E-01
         -2   -1    0    0    0  501 -0.00000000000E+00  0.00000000000E+00  0.25646080441E+03  0.25646080442E+03  0.25500000000E-02 0. -1.
          2   -1    0    0  501    0  0.00000000000E+00 -0.00000000000E+00 -0.36695349854E+03  0.36695349855E+03  0.25500000000E-02 0.  1.
    5000001    1    1    2    0    0  0.21897764219E+03 -0.12800366443E+03 -0.39561730965E+01  0.30261658446E+03  0.16500000000E+03 0.  0.
   -5000001    1    1    2    0    0 -0.21897764219E+03  0.12800366443E+03 -0.10653652103E+03  0.32079771851E+03  0.16500000000E+03 0.  0.
<mgrwt>
<rscale>  0 0.61354442E+03</rscale>
<asrwt>0</asrwt>
<pdfrwt beam="1">  1        2 0.56454384E-01 0.61354442E+03</pdfrwt>
<pdfrwt beam="2">  1       -2 0.39455508E-01 0.61354442E+03</pdfrwt>
<totfact> 0.53645929E+02</totfact>
</mgrwt>
</event>
<event>
 4    1  0.8641621E-005  0.9494136E+03  0.7818608E-02  0.9365836E-01
          2   -1    0    0  501    0  0.00000000000E+00  0.00000000000E+00  0.37109829027E+03  0.37109829028E+03  0.25500000000E-02 0.  1.
         -2   -1    0    0    0  501 -0.00000000000E+00 -0.00000000000E+00 -0.60724221117E+03  0.60724221118E+03  0.25500000000E-02 0. -1.
    5000001    1    1    2    0    0 -0.31468375308E+03  0.22201495584E+03  0.11189806654E+03  0.43366194479E+03  0.16500000000E+03 0.  0.
   -5000001    1    1    2    0    0  0.31468375308E+03 -0.22201495584E+03 -0.34804198745E+03  0.54467855667E+03  0.16500000000E+03 0.  0.
<mgrwt>
<rscale>  0 0.94941360E+03</rscale>
<asrwt>0</asrwt>
<pdfrwt beam="1">  1        2 0.57092045E-01 0.94941360E+03</pdfrwt>
<pdfrwt beam="2">  1       -2 0.93421878E-01 0.94941360E+03</pdfrwt>
<totfact> 0.83977572E+01</totfact>
</mgrwt>
</event>
<event>
 4    1  0.8641621E-005  0.4244733E+03  0.7818608E-02  0.1035620E+00
          2   -1    0    0  501    0  0.00000000000E+00  0.00000000000E+00  0.30174897308E+03  0.30174897309E+03  0.25500000000E-02 0.  1.
         -2   -1    0    0    0  501 -0.00000000000E+00 -0.00000000000E+00 -0.14927767682E+03  0.14927767684E+03  0.25500000000E-02 0. -1.
    5000001    1    1    2    0    0 -0.90985796122E+02  0.94109059514E+02  0.48436948101E+02  0.21611586735E+03  0.16500000000E+03 0.  0.
   -5000001    1    1    2    0    0  0.90985796122E+02 -0.94109059514E+02  0.10403434816E+03  0.23491078259E+03  0.16500000000E+03 0.  0.
<mgrwt>
<rscale>  0 0.42447325E+03</rscale>
<asrwt>0</asrwt>
<pdfrwt beam="1">  1        2 0.46422918E-01 0.42447325E+03</pdfrwt>
<pdfrwt beam="2">  1       -2 0.22965797E-01 0.42447325E+03</pdfrwt>
<totfact> 0.18071957E+03</totfact>
</mgrwt>
</event>
<event>
 4    1  0.8641621E-005  0.6593336E+03  0.7818608E-02  0.9789421E-01
         -2   -1    0    0    0  501 -0.00000000000E+00  0.00000000000E+00  0.27806546936E+03  0.27806546938E+03  0.25500000000E-02 0. -1.
          2   -1    0    0  501    0  0.00000000000E+00 -0.00000000000E+00 -0.39084389798E+03  0.39084389798E+03  0.25500000000E-02 0.  1.
    5000001    1    1    2    0    0 -0.75045554302E+02  0.20428292378E+03  0.13093215708E+03  0.30287221386E+03  0.16500000000E+03 0.  0.
   -5000001    1    1    2    0    0  0.75045554302E+02 -0.20428292378E+03 -0.24371058569E+03  0.36603715351E+03  0.16500000000E+03 0.  0.
<mgrwt>
<rscale>  0 0.65933358E+03</rscale>
<asrwt>0</asrwt>
<pdfrwt beam="1">  1        2 0.60129830E-01 0.65933358E+03</pdfrwt>
<pdfrwt beam="2">  1       -2 0.42779303E-01 0.65933358E+03</pdfrwt>
<totfact> 0.42647241E+02</totfact>
</mgrwt>
</event>
<event>
 4    1  0.8641621E-005  0.3672247E+03  0.7818608E-02  0.1055759E+00
          2   -1    0    0  501    0  0.00000000000E+00  0.00000000000E+00  0.36740312392E+02  0.36740312481E+02  0.25500000000E-02 0.  1.
         -2   -1    0    0    0  501 -0.00000000000E+00 -0.00000000000E+00 -0.91761582205E+03  0.91761582206E+03  0.25500000000E-02 0. -1.
    5000001    1    1    2    0    0  0.18002583567E+02 -0.77549229070E+02 -0.47232155083E+03  0.50660697126E+03  0.16500000000E+03 0.  0.
   -5000001    1    1    2    0    0 -0.18002583567E+02  0.77549229070E+02 -0.40855395883E+03  0.44774916328E+03  0.16500000000E+03 0.  0.
<mgrwt>
<rscale>  0 0.36722468E+03</rscale>
<asrwt>0</asrwt>
<pdfrwt beam="1">  1        2 0.56523565E-02 0.36722468E+03</pdfrwt>
<pdfrwt beam="2">  1       -2 0.14117165E+00 0.36722468E+03</pdfrwt>
<totfact> 0.49747012E+02</totfact>
</mgrwt>
</event>
<event>
 4    1  0.8641621E-005  0.4424934E+03  0.7818608E-02  0.1029985E+00
          2   -1    0    0  501    0  0.00000000000E+00  0.00000000000E+00  0.24564345225E+04  0.24564345225E+04  0.25500000000E-02 0.  1.
         -2   -1    0    0    0  501 -0.00000000000E+00 -0.00000000000E+00 -0.19927296261E+02  0.19927296425E+02  0.25500000000E-02 0. -1.
    5000001    1    1    2    0    0  0.14155592969E+03  0.24975737628E+02  0.14007359880E+04  0.14177264112E+04  0.16500000000E+03 0.  0.
   -5000001    1    1    2    0    0 -0.14155592969E+03 -0.24975737628E+02  0.10357712382E+04  0.10586354078E+04  0.16500000000E+03 0.  0.
<mgrwt>
<rscale>  0 0.44249338E+03</rscale>
<asrwt>0</asrwt>
<pdfrwt beam="1">  1        2 0.37791271E+00 0.44249338E+03</pdfrwt>
<pdfrwt beam="2">  1       -2 0.30657403E-02 0.44249338E+03</pdfrwt>
<totfact> 0.17100413E+03</totfact>
</mgrwt>
</event>
<event>
 4    1  0.8641621E-005  0.6156034E+03  0.7818608E-02  0.9873552E-01
          2   -1    0    0  501    0  0.00000000000E+00  0.00000000000E+00  0.58199700153E+03  0.58199700154E+03  0.25500000000E-02 0.  1.
         -2   -1    0    0    0  501 -0.00000000000E+00 -0.00000000000E+00 -0.16278758814E+03  0.16278758816E+03  0.25500000000E-02 0. -1.
    5000001    1    1    2    0    0  0.22464050478E+03 -0.13057984631E+03  0.21149282000E+03  0.37345503820E+03  0.16500000000E+03 0.  0.
   -5000001    1    1    2    0    0 -0.22464050478E+03  0.13057984631E+03  0.20771659339E+03  0.37132955150E+03  0.16500000000E+03 0.  0.
<mgrwt>
<rscale>  0 0.61560341E+03</rscale>
<asrwt>0</asrwt>
<pdfrwt beam="1">  1        2 0.89538000E-01 0.61560341E+03</pdfrwt>
<pdfrwt beam="2">  1       -2 0.25044244E-01 0.61560341E+03</pdfrwt>
<totfact> 0.73899077E+02</totfact>
</mgrwt>
</event>
<event>
 4    1  0.8641621E-005  0.4379699E+03  0.7818608E-02  0.1031372E+00
          2   -1    0    0  501    0  0.00000000000E+00  0.00000000000E+00  0.68580986267E+03  0.68580986267E+03  0.25500000000E-02 0.  1.
         -2   -1    0    0    0  501 -0.00000000000E+00 -0.00000000000E+00 -0.69923760032E+02  0.69923760078E+02  0.25500000000E-02 0. -1.
    5000001    1    1    2    0    0 -0.13825396287E+03 -0.99783592103E+01  0.37512119934E+03  0.43261373082E+03  0.16500000000E+03 0.  0.
   -5000001    1    1    2    0    0  0.13825396287E+03  0.99783592103E+01  0.24076490330E+03  0.32311989193E+03  0.16500000000E+03 0.  0.
<mgrwt>
<rscale>  0 0.43796988E+03</rscale>
<asrwt>0</asrwt>
<pdfrwt beam="1">  1        2 0.10550921E+00 0.43796988E+03</pdfrwt>
<pdfrwt beam="2">  1       -2 0.10757501E-01 0.43796988E+03</pdfrwt>
<totfact> 0.25511223E+03</totfact>
</mgrwt>
</event>
<event>
 4    1  0.8641621E-005  0.5715439E+03  0.7818608E-02  0.9966268E-01
          2   -1    0    0  501    0  0.00000000000E+00  0.00000000000E+00  0.65450393427E+03  0.65450393427E+03  0.25500000000E-02 0.  1.
         -2   -1    0    0    0  501 -0.00000000000E+00 -0.00000000000E+00 -0.12477483635E+03  0.12477483638E+03  0.25500000000E-02 0. -1.
    5000001    1    1    2    0    0  0.14892052706E+03  0.14383800476E+03  0.41154882803E+03  0.48935072581E+03  0.16500000000E+03 0.  0.
   -5000001    1    1    2    0    0 -0.14892052706E+03 -0.14383800476E+03  0.11818026989E+03  0.28992804484E+03  0.16500000000E+03 0.  0.
<mgrwt>
<rscale>  0 0.57154395E+03</rscale>
<asrwt>0</asrwt>
<pdfrwt beam="1">  1        2 0.10069292E+00 0.57154395E+03</pdfrwt>
<pdfrwt beam="2">  1       -2 0.19196128E-01 0.57154395E+03</pdfrwt>
<totfact> 0.10260020E+03</totfact>
</mgrwt>
</event>
<event>
 4    1  0.8641621E-005  0.7058703E+03  0.7818608E-02  0.9707246E-01
         -2   -1    0    0    0  501 -0.00000000000E+00  0.00000000000E+00  0.32521591896E+02  0.32521591996E+02  0.25500000000E-02 0. -1.
          2   -1    0    0  501    0  0.00000000000E+00 -0.00000000000E+00 -0.38301695558E+04  0.38301695558E+04  0.25500000000E-02 0.  1.
    5000001    1    1    2    0    0  0.86603869461E+02 -0.23803962032E+03 -0.90210817938E+03  0.95141329523E+03  0.16500000000E+03 0.  0.
   -5000001    1    1    2    0    0 -0.86603869461E+02  0.23803962032E+03 -0.28955397845E+04  0.29112778525E+04  0.16500000000E+03 0.  0.
<mgrwt>
<rscale>  0 0.70587028E+03</rscale>
<asrwt>0</asrwt>
<pdfrwt beam="1">  1        2 0.58925650E+00 0.70587028E+03</pdfrwt>
<pdfrwt beam="2">  1       -2 0.50033249E-02 0.70587028E+03</pdfrwt>
<totfact> 0.10564487E+02</totfact>
</mgrwt>
</event>
<event>
 4    1  0.8641621E-005  0.4907603E+03  0.7818608E-02  0.1016219E+00
          2   -1    0    0  501    0  0.00000000000E+00  0.00000000000E+00  0.81064586074E+03  0.81064586074E+03  0.25500000000E-02 0.  1.
         -2   -1    0    0    0  501 -0.00000000000E+00 -0.00000000000E+00 -0.74275861542E+02  0.74275861586E+02  0.25500000000E-02 0. -1.
    5000001    1    1    2    0    0  0.10627755021E+03  0.15689313810E+02  0.63224460521E+03  0.66219280656E+03  0.16500000000E+03 0.  0.
   -5000001    1    1    2    0    0 -0.10627755021E+03 -0.15689313810E+02  0.10412539399E+03  0.22272891577E+03  0.16500000000E+03 0.  0.
<mgrwt>
<rscale>  0 0.49076031E+03</rscale>
<asrwt>0</asrwt>
<pdfrwt beam="1">  1        2 0.12471476E+00 0.49076031E+03</pdfrwt>
<pdfrwt beam="2">  1       -2 0.11427055E-01 0.49076031E+03</pdfrwt>
<totfact> 0.18711307E+03</totfact>
</mgrwt>
</event>
<event>
 4    1  0.8641621E-005  0.5840623E+03  0.7818608E-02  0.9939035E-01
         -2   -1    0    0    0  501 -0.00000000000E+00  0.00000000000E+00  0.27404237085E+02  0.27404237203E+02  0.25500000000E-02 0. -1.
          2   -1    0    0  501    0  0.00000000000E+00 -0.00000000000E+00 -0.31120075593E+04  0.31120075593E+04  0.25500000000E-02 0.  1.
    5000001    1    1    2    0    0 -0.31871716639E+01 -0.71652392402E+02 -0.27787334962E+04  0.27845518610E+04  0.16500000000E+03 0.  0.
   -5000001    1    1    2    0    0  0.31871716639E+01  0.71652392402E+02 -0.30586982605E+03  0.35485993559E+03  0.16500000000E+03 0.  0.
<mgrwt>
<rscale>  0 0.58406230E+03</rscale>
<asrwt>0</asrwt>
<pdfrwt beam="1">  1        2 0.47877011E+00 0.58406230E+03</pdfrwt>
<pdfrwt beam="2">  1       -2 0.42160390E-02 0.58406230E+03</pdfrwt>
<totfact> 0.42926216E+02</totfact>
</mgrwt>
</event>
<event>
 4    1  0.8641621E-005  0.5015497E+03  0.7818608E-02  0.1013375E+00
          2   -1    0    0  501    0  0.00000000000E+00  0.00000000000E+00  0.16214167210E+04  0.16214167210E+04  0.25500000000E-02 0.  1.
         -2   -1    0    0    0  501 -0.00000000000E+00 -0.00000000000E+00 -0.38785845003E+02  0.38785845087E+02  0.25500000000E-02 0. -1.
    5000001    1    1    2    0    0  0.98186402842E+02  0.14298074873E+03  0.54407272371E+03  0.59441079473E+03  0.16500000000E+03 0.  0.
   -5000001    1    1    2    0    0 -0.98186402842E+02 -0.14298074873E+03  0.10385581523E+04  0.10657917714E+04  0.16500000000E+03 0.  0.
<mgrwt>
<rscale>  0 0.50154967E+03</rscale>
<asrwt>0</asrwt>
<pdfrwt beam="1">  1        2 0.24944871E+00 0.50154967E+03</pdfrwt>
<pdfrwt beam="2">  1       -2 0.59670535E-02 0.50154967E+03</pdfrwt>
<totfact> 0.17385649E+03</totfact>
</mgrwt>
</event>
<event>
 4    1  0.8641621E-005  0.3637140E+03  0.7818608E-02  0.1057123E+00
          2   -1    0    0  501    0  0.00000000000E+00  0.00000000000E+00  0.23176446870E+03  0.23176446872E+03  0.25500000000E-02 0.  1.
         -2   -1    0    0    0  501 -0.00000000000E+00 -0.00000000000E+00 -0.14269645309E+03  0.14269645311E+03  0.25500000000E-02 0. -1.
    5000001    1    1    2    0    0  0.17888089529E+02 -0.74220250634E+02  0.40125151753E+02  0.18618178524E+03  0.16500000000E+03 0.  0.
   -5000001    1    1    2    0    0 -0.17888089529E+02  0.74220250634E+02  0.48942863862E+02  0.18827913659E+03  0.16500000000E+03 0.  0.
<mgrwt>
<rscale>  0 0.36371400E+03</rscale>
<asrwt>0</asrwt>
<pdfrwt beam="1">  1        2 0.35656072E-01 0.36371400E+03</pdfrwt>
<pdfrwt beam="2">  1       -2 0.21953301E-01 0.36371400E+03</pdfrwt>
<totfact> 0.26035908E+03</totfact>
</mgrwt>
</event>
<event>
 4    1  0.8641621E-005  0.4706662E+03  0.7818608E-02  0.1021732E+00
         -2   -1    0    0    0  501 -0.00000000000E+00  0.00000000000E+00  0.73736657428E+02  0.73736657472E+02  0.25500000000E-02 0. -1.
          2   -1    0    0  501    0  0.00000000000E+00 -0.00000000000E+00 -0.75107385743E+03  0.75107385743E+03  0.25500000000E-02 0.  1.
    5000001    1    1    2    0    0  0.14733436021E+03  0.78957071870E+02 -0.31297034390E+03  0.39130176214E+03  0.16500000000E+03 0.  0.
   -5000001    1    1    2    0    0 -0.14733436021E+03 -0.78957071870E+02 -0.36436685610E+03  0.43350875276E+03  0.16500000000E+03 0.  0.
<mgrwt>
<rscale>  0 0.47066623E+03</rscale>
<asrwt>0</asrwt>
<pdfrwt beam="1">  1        2 0.11554982E+00 0.47066623E+03</pdfrwt>
<pdfrwt beam="2">  1       -2 0.11344102E-01 0.47066623E+03</pdfrwt>
<totfact> 0.20895807E+03</totfact>
</mgrwt>
</event>
<event>
 4    1  0.8641621E-005  0.7815752E+03  0.7818608E-02  0.9587076E-01
          2   -1    0    0  501    0  0.00000000000E+00  0.00000000000E+00  0.19272844712E+04  0.19272844712E+04  0.25500000000E-02 0.  1.
         -2   -1    0    0    0  501 -0.00000000000E+00 -0.00000000000E+00 -0.79238408392E+02  0.79238408433E+02  0.25500000000E-02 0. -1.
    5000001    1    1    2    0    0  0.65495375725E+02 -0.32641921873E+03  0.12347679666E+04  0.12894634861E+04  0.16500000000E+03 0.  0.
   -5000001    1    1    2    0    0 -0.65495375725E+02  0.32641921873E+03  0.61327809625E+03  0.71705939359E+03  0.16500000000E+03 0.  0.
<mgrwt>
<rscale>  0 0.78157521E+03</rscale>
<asrwt>0</asrwt>
<pdfrwt beam="1">  1        2 0.29650528E+00 0.78157521E+03</pdfrwt>
<pdfrwt beam="2">  1       -2 0.12190525E-01 0.78157521E+03</pdfrwt>
<totfact> 0.37066714E+02</totfact>
</mgrwt>
</event>
<event>
 4    1  0.8641621E-005  0.4572882E+03  0.7818608E-02  0.1025571E+00
          2   -1    0    0  501    0  0.00000000000E+00  0.00000000000E+00  0.41548739709E+03  0.41548739710E+03  0.25500000000E-02 0.  1.
         -2   -1    0    0    0  501 -0.00000000000E+00 -0.00000000000E+00 -0.12582361057E+03  0.12582361060E+03  0.25500000000E-02 0. -1.
    5000001    1    1    2    0    0  0.84338606409E+02  0.13353103128E+03  0.13244000189E+03  0.26402441354E+03  0.16500000000E+03 0.  0.
   -5000001    1    1    2    0    0 -0.84338606409E+02 -0.13353103128E+03  0.15722378462E+03  0.27728659415E+03  0.16500000000E+03 0.  0.
<mgrwt>
<rscale>  0 0.45728820E+03</rscale>
<asrwt>0</asrwt>
<pdfrwt beam="1">  1        2 0.63921137E-01 0.45728820E+03</pdfrwt>
<pdfrwt beam="2">  1       -2 0.19357479E-01 0.45728820E+03</pdfrwt>
<totfact> 0.17132775E+03</totfact>
</mgrwt>
</event>
<event>
 4    1  0.8641621E-005  0.8115794E+03  0.7818608E-02  0.9543406E-01
         -2   -1    0    0    0  501 -0.00000000000E+00  0.00000000000E+00  0.86322430753E+02  0.86322430791E+02  0.25500000000E-02 0. -1.
          2   -1    0    0  501    0  0.00000000000E+00 -0.00000000000E+00 -0.19075606494E+04  0.19075606494E+04  0.25500000000E-02 0.  1.
    5000001    1    1    2    0    0 -0.99125224026E+02 -0.25480490238E+03 -0.29549309900E+03  0.43507760213E+03  0.16500000000E+03 0.  0.
   -5000001    1    1    2    0    0  0.99125224026E+02  0.25480490238E+03 -0.15257451196E+04  0.15588054781E+04  0.16500000000E+03 0.  0.
<mgrwt>
<rscale>  0 0.81157938E+03</rscale>
<asrwt>0</asrwt>
<pdfrwt beam="1">  1        2 0.29347084E+00 0.81157938E+03</pdfrwt>
<pdfrwt beam="2">  1       -2 0.13280375E-01 0.81157938E+03</pdfrwt>
<totfact> 0.32879022E+02</totfact>
</mgrwt>
</event>
<event>
 4    1  0.8641621E-005  0.7614437E+03  0.7818608E-02  0.9617566E-01
         -2   -1    0    0    0  501 -0.00000000000E+00  0.00000000000E+00  0.32594422259E+03  0.32594422260E+03  0.25500000000E-02 0. -1.
          2   -1    0    0  501    0  0.00000000000E+00 -0.00000000000E+00 -0.44470530179E+03  0.44470530180E+03  0.25500000000E-02 0.  1.
    5000001    1    1    2    0    0  0.61739805649E+02 -0.33311770162E+03 -0.44573611886E+01  0.37686081622E+03  0.16500000000E+03 0.  0.
   -5000001    1    1    2    0    0 -0.61739805649E+02  0.33311770162E+03 -0.11430371802E+03  0.39378870818E+03  0.16500000000E+03 0.  0.
<mgrwt>
<rscale>  0 0.76144369E+03</rscale>
<asrwt>0</asrwt>
<pdfrwt beam="1">  1        2 0.68416200E-01 0.76144369E+03</pdfrwt>
<pdfrwt beam="2">  1       -2 0.50145265E-01 0.76144369E+03</pdfrwt>
<totfact> 0.26736020E+02</totfact>
</mgrwt>
</event>
<event>
 4    1  0.8641621E-005  0.5860543E+03  0.7818608E-02  0.9934769E-01
          2   -1    0    0  501    0  0.00000000000E+00  0.00000000000E+00  0.18697828022E+04  0.18697828022E+04  0.25500000000E-02 0.  1.
         -2   -1    0    0    0  501 -0.00000000000E+00 -0.00000000000E+00 -0.45922401797E+02  0.45922401868E+02  0.25500000000E-02 0. -1.
    5000001    1    1    2    0    0 -0.11174581879E+03  0.21253326771E+03  0.10143855934E+04  0.10553959684E+04  0.16500000000E+03 0.  0.
   -5000001    1    1    2    0    0  0.11174581879E+03 -0.21253326771E+03  0.80947480698E+03  0.86030923570E+03  0.16500000000E+03 0.  0.
<mgrwt>
<rscale>  0 0.58605432E+03</rscale>
<asrwt>0</asrwt>
<pdfrwt beam="1">  1        2 0.28765888E+00 0.58605432E+03</pdfrwt>
<pdfrwt beam="2">  1       -2 0.70649851E-02 0.58605432E+03</pdfrwt>
<totfact> 0.97480893E+02</totfact>
</mgrwt>
</event>
<event>
 4    1  0.8641621E-005  0.5408445E+03  0.7818608E-02  0.1003636E+00
          2   -1    0    0  501    0  0.00000000000E+00  0.00000000000E+00  0.86760006821E+03  0.86760006821E+03  0.25500000000E-02 0. -1.
         -2   -1    0    0    0  501 -0.00000000000E+00 -0.00000000000E+00 -0.84287891090E+02  0.84287891128E+02  0.25500000000E-02 0.  1.
    5000001    1    1    2    0    0  0.58558299318E+02  0.18985513550E+03  0.25053573161E+03  0.35981550788E+03  0.16500000000E+03 0.  0.
   -5000001    1    1    2    0    0 -0.58558299318E+02 -0.18985513550E+03  0.53277644551E+03  0.59207245146E+03  0.16500000000E+03 0.  0.
<mgrwt>
<rscale>  0 0.54084445E+03</rscale>
<asrwt>0</asrwt>
<pdfrwt beam="1">  1        2 0.13347693E+00 0.54084445E+03</pdfrwt>
<pdfrwt beam="2">  1       -2 0.12967369E-01 0.54084445E+03</pdfrwt>
<totfact> 0.13877723E+03</totfact>
</mgrwt>
</event>
<event>
 4    1  0.8641621E-005  0.5999171E+03  0.7818608E-02  0.9905578E-01
          2   -1    0    0  501    0  0.00000000000E+00  0.00000000000E+00  0.88901904494E+03  0.88901904494E+03  0.25500000000E-02 0.  1.
         -2   -1    0    0    0  501 -0.00000000000E+00 -0.00000000000E+00 -0.10120720278E+03  0.10120720281E+03  0.25500000000E-02 0. -1.
    5000001    1    1    2    0    0  0.40303336729E+02 -0.22164409791E+03  0.21309370530E+03  0.35126114548E+03  0.16500000000E+03 0.  0.
   -5000001    1    1    2    0    0 -0.40303336729E+02  0.22164409791E+03  0.57471813686E+03  0.63896510228E+03  0.16500000000E+03 0.  0.
<mgrwt>
<rscale>  0 0.59991710E+03</rscale>
<asrwt>0</asrwt>
<pdfrwt beam="1">  1        2 0.13677216E+00 0.59991710E+03</pdfrwt>
<pdfrwt beam="2">  1       -2 0.15570339E-01 0.59991710E+03</pdfrwt>
<totfact> 0.98724183E+02</totfact>
</mgrwt>
</event>
<event>
 4    1  0.8641621E-005  0.7197928E+03  0.7818608E-02  0.9683970E-01
         -2   -1    0    0    0  501 -0.00000000000E+00  0.00000000000E+00  0.16690915190E+03  0.16690915192E+03  0.25500000000E-02 0. -1.
          2   -1    0    0  501    0  0.00000000000E+00 -0.00000000000E+00 -0.77602352127E+03  0.77602352127E+03  0.25500000000E-02 0.  1.
    5000001    1    1    2    0    0 -0.13567574803E+03 -0.27799240750E+03 -0.41108521909E+03  0.54028117178E+03  0.16500000000E+03 0.  0.
   -5000001    1    1    2    0    0  0.13567574803E+03  0.27799240750E+03 -0.19802915027E+03  0.40265150141E+03  0.16500000000E+03 0.  0.
<mgrwt>
<rscale>  0 0.71979283E+03</rscale>
<asrwt>0</asrwt>
<pdfrwt beam="1">  1        2 0.11938823E+00 0.71979283E+03</pdfrwt>
<pdfrwt beam="2">  1       -2 0.25678331E-01 0.71979283E+03</pdfrwt>
<totfact> 0.49249267E+02</totfact>
</mgrwt>
</event>
<event>
 4    1  0.8641621E-005  0.1301788E+04  0.7818608E-02  0.9028148E-01
          2   -1    0    0  501    0  0.00000000000E+00  0.00000000000E+00  0.17434671890E+04  0.17434671890E+04  0.25500000000E-02 0.  1.
         -2   -1    0    0    0  501 -0.00000000000E+00 -0.00000000000E+00 -0.24300038497E+03  0.24300038499E+03  0.25500000000E-02 0. -1.
    5000001    1    1    2    0    0 -0.57419373860E+03 -0.14745639134E+03  0.10739237968E+04  0.12377314564E+04  0.16500000000E+03 0.  0.
   -5000001    1    1    2    0    0  0.57419373860E+03  0.14745639134E+03  0.42654300725E+03  0.74873611762E+03  0.16500000000E+03 0.  0.
<mgrwt>
<rscale>  0 0.13017883E+04</rscale>
<asrwt>0</asrwt>
<pdfrwt beam="1">  1        2 0.26822573E+00 0.13017883E+04</pdfrwt>
<pdfrwt beam="2">  1       -2 0.37384674E-01 0.13017883E+04</pdfrwt>
<totfact> 0.61334726E+01</totfact>
</mgrwt>
</event>
<event>
 4    1  0.8641621E-005  0.6490949E+03  0.7818608E-02  0.9808479E-01
         -2   -1    0    0    0  501 -0.00000000000E+00  0.00000000000E+00  0.53036694518E+02  0.53036694579E+02  0.25500000000E-02 0. -1.
          2   -1    0    0  501    0  0.00000000000E+00 -0.00000000000E+00 -0.19860034152E+04  0.19860034152E+04  0.25500000000E-02 0.  1.
    5000001    1    1    2    0    0  0.23348849160E+03 -0.10900999837E+03 -0.62660631632E+03  0.69732383518E+03  0.16500000000E+03 0.  0.
   -5000001    1    1    2    0    0 -0.23348849160E+03  0.10900999837E+03 -0.13063604044E+04  0.13417162746E+04  0.16500000000E+03 0.  0.
<mgrwt>
<rscale>  0 0.64909493E+03</rscale>
<asrwt>0</asrwt>
<pdfrwt beam="1">  1        2 0.30553893E+00 0.64909493E+03</pdfrwt>
<pdfrwt beam="2">  1       -2 0.81594930E-02 0.64909493E+03</pdfrwt>
<totfact> 0.66797471E+02</totfact>
</mgrwt>
</event>
<event>
 4    1  0.8641621E-005  0.8179130E+03  0.7818608E-02  0.9534445E-01
         -2   -1    0    0    0  501 -0.00000000000E+00  0.00000000000E+00  0.18944640469E+03  0.18944640471E+03  0.25500000000E-02 0. -1.
          2   -1    0    0  501    0  0.00000000000E+00 -0.00000000000E+00 -0.88281127070E+03  0.88281127070E+03  0.25500000000E-02 0.  1.
    5000001    1    1    2    0    0  0.32871392493E+03  0.15688471630E+03 -0.45911092344E+03  0.60882961383E+03  0.16500000000E+03 0.  0.
   -5000001    1    1    2    0    0 -0.32871392493E+03 -0.15688471630E+03 -0.23425394256E+03  0.46342806158E+03  0.16500000000E+03 0.  0.
<mgrwt>
<rscale>  0 0.81791301E+03</rscale>
<asrwt>0</asrwt>
<pdfrwt beam="1">  1        2 0.13581712E+00 0.81791301E+03</pdfrwt>
<pdfrwt beam="2">  1       -2 0.29145601E-01 0.81791301E+03</pdfrwt>
<totfact> 0.32719081E+02</totfact>
</mgrwt>
</event>
<event>
 4    1  0.8641621E-005  0.5224615E+03  0.7818608E-02  0.1008077E+00
          2   -1    0    0  501    0  0.00000000000E+00  0.00000000000E+00  0.16324646930E+04  0.16324646930E+04  0.25500000000E-02 0. -1.
         -2   -1    0    0    0  501 -0.00000000000E+00 -0.00000000000E+00 -0.41802744668E+02  0.41802744746E+02  0.25500000000E-02 0.  1.
    5000001    1    1    2    0    0 -0.13605825237E+03 -0.14997770244E+03  0.80612499149E+03  0.84738873085E+03  0.16500000000E+03 0.  0.
   -5000001    1    1    2    0    0  0.13605825237E+03  0.14997770244E+03  0.78453695680E+03  0.82687870686E+03  0.16500000000E+03 0.  0.
<mgrwt>
<rscale>  0 0.52246150E+03</rscale>
<asrwt>0</asrwt>
<pdfrwt beam="1">  1        2 0.25114837E+00 0.52246150E+03</pdfrwt>
<pdfrwt beam="2">  1       -2 0.64311926E-02 0.52246150E+03</pdfrwt>
<totfact> 0.15239083E+03</totfact>
</mgrwt>
</event>
<event>
 4    1  0.8641621E-005  0.4297816E+03  0.7818608E-02  0.1033929E+00
          2   -1    0    0  501    0  0.00000000000E+00  0.00000000000E+00  0.22495337455E+04  0.22495337455E+04  0.25500000000E-02 0.  1.
         -2   -1    0    0    0  501 -0.00000000000E+00 -0.00000000000E+00 -0.20527830190E+02  0.20527830348E+02  0.25500000000E-02 0. -1.
    5000001    1    1    2    0    0 -0.51317186663E+02 -0.12595586221E+03  0.10018716710E+04  0.10244365173E+04  0.16500000000E+03 0.  0.
   -5000001    1    1    2    0    0  0.51317186663E+02  0.12595586221E+03  0.12271342444E+04  0.12456250586E+04  0.16500000000E+03 0.  0.
<mgrwt>
<rscale>  0 0.42978156E+03</rscale>
<asrwt>0</asrwt>
<pdfrwt beam="1">  1        2 0.34608211E+00 0.42978156E+03</pdfrwt>
<pdfrwt beam="2">  1       -2 0.31581278E-02 0.42978156E+03</pdfrwt>
<totfact> 0.21251005E+03</totfact>
</mgrwt>
</event>
<event>
 4    1  0.8641621E-005  0.3414676E+03  0.7818608E-02  0.1066173E+00
         -2   -1    0    0    0  501 -0.00000000000E+00  0.00000000000E+00  0.17670421585E+03  0.17670421587E+03  0.25500000000E-02 0. -1.
          2   -1    0    0  501    0  0.00000000000E+00 -0.00000000000E+00 -0.16496512880E+03  0.16496512882E+03  0.25500000000E-02 0.  1.
    5000001    1    1    2    0    0 -0.40060013507E+02 -0.17840285852E+02  0.44711295369E+01  0.17078662559E+03  0.16500000000E+03 0.  0.
   -5000001    1    1    2    0    0  0.40060013507E+02  0.17840285852E+02  0.72679575164E+01  0.17088271910E+03  0.16500000000E+03 0.  0.
<mgrwt>
<rscale>  0 0.34146762E+03</rscale>
<asrwt>0</asrwt>
<pdfrwt beam="1">  1        2 0.25379250E-01 0.34146762E+03</pdfrwt>
<pdfrwt beam="2">  1       -2 0.27185264E-01 0.34146762E+03</pdfrwt>
<totfact> 0.25963675E+03</totfact>
</mgrwt>
</event>
<event>
 4    1  0.8641621E-005  0.6341427E+03  0.7818608E-02  0.9836998E-01
         -2   -1    0    0    0  501 -0.00000000000E+00  0.00000000000E+00  0.16492352513E+04  0.16492352513E+04  0.25500000000E-02 0. -1.
          2   -1    0    0  501    0  0.00000000000E+00 -0.00000000000E+00 -0.60958090882E+02  0.60958090935E+02  0.25500000000E-02 0.  1.
    5000001    1    1    2    0    0  0.13084721403E+03 -0.12192393997E+03  0.24592087132E+03  0.34596028025E+03  0.16500000000E+03 0.  0.
   -5000001    1    1    2    0    0 -0.13084721403E+03  0.12192393997E+03  0.13423562891E+04  0.13642330620E+04  0.16500000000E+03 0.  0.
<mgrwt>
<rscale>  0 0.63414267E+03</rscale>
<asrwt>0</asrwt>
<pdfrwt beam="1">  1        2 0.93781701E-02 0.63414267E+03</pdfrwt>
<pdfrwt beam="2">  1       -2 0.25372844E+00 0.63414267E+03</pdfrwt>
<totfact> 0.45653718E+01</totfact>
</mgrwt>
</event>
<event>
 4    1  0.8641621E-005  0.5495602E+03  0.7818608E-02  0.1001596E+00
         -2   -1    0    0    0  501 -0.00000000000E+00  0.00000000000E+00  0.12471366440E+03  0.12471366443E+03  0.25500000000E-02 0. -1.
          2   -1    0    0  501    0  0.00000000000E+00 -0.00000000000E+00 -0.60541966700E+03  0.60541966700E+03  0.25500000000E-02 0.  1.
    5000001    1    1    2    0    0  0.98208496169E+02  0.86674821688E+02 -0.59741854994E+01  0.21075607779E+03  0.16500000000E+03 0.  0.
   -5000001    1    1    2    0    0 -0.98208496169E+02 -0.86674821688E+02 -0.47473181710E+03  0.51937725364E+03  0.16500000000E+03 0.  0.
<mgrwt>
<rscale>  0 0.54956021E+03</rscale>
<asrwt>0</asrwt>
<pdfrwt beam="1">  1        2 0.93141486E-01 0.54956021E+03</pdfrwt>
<pdfrwt beam="2">  1       -2 0.19186718E-01 0.54956021E+03</pdfrwt>
<totfact> 0.11288300E+03</totfact>
</mgrwt>
</event>
<event>
 4    1  0.8641621E-005  0.5186049E+03  0.7818608E-02  0.1009034E+00
          2   -1    0    0  501    0  0.00000000000E+00  0.00000000000E+00  0.33229260793E+03  0.33229260794E+03  0.25500000000E-02 0.  1.
         -2   -1    0    0    0  501 -0.00000000000E+00 -0.00000000000E+00 -0.20234507327E+03  0.20234507329E+03  0.25500000000E-02 0. -1.
    5000001    1    1    2    0    0  0.44865852271E+02 -0.15829020211E+03 -0.52315378435E+02  0.23881086995E+03  0.16500000000E+03 0.  0.
   -5000001    1    1    2    0    0 -0.44865852271E+02  0.15829020211E+03  0.18226291310E+03  0.29582681128E+03  0.16500000000E+03 0.  0.
<mgrwt>
<rscale>  0 0.51860494E+03</rscale>
<asrwt>0</asrwt>
<pdfrwt beam="1">  1        2 0.51121939E-01 0.51860494E+03</pdfrwt>
<pdfrwt beam="2">  1       -2 0.31130012E-01 0.51860494E+03</pdfrwt>
<totfact> 0.93930689E+02</totfact>
</mgrwt>
</event>
<event>
 4    1  0.8641621E-005  0.4202346E+03  0.7818608E-02  0.1036990E+00
         -2   -1    0    0    0  501 -0.00000000000E+00  0.00000000000E+00  0.16939968402E+03  0.16939968404E+03  0.25500000000E-02 0. -1.
          2   -1    0    0  501    0  0.00000000000E+00 -0.00000000000E+00 -0.26062195981E+03  0.26062195983E+03  0.25500000000E-02 0.  1.
    5000001    1    1    2    0    0  0.11068545484E+03 -0.24855520121E+02 -0.11077476334E+03  0.22883425221E+03  0.16500000000E+03 0.  0.
   -5000001    1    1    2    0    0 -0.11068545484E+03  0.24855520121E+02  0.19552487545E+02  0.20118739166E+03  0.16500000000E+03 0.  0.
<mgrwt>
<rscale>  0 0.42023459E+03</rscale>
<asrwt>0</asrwt>
<pdfrwt beam="1">  1        2 0.40095686E-01 0.42023459E+03</pdfrwt>
<pdfrwt beam="2">  1       -2 0.26061490E-01 0.42023459E+03</pdfrwt>
<totfact> 0.16939380E+03</totfact>
</mgrwt>
</event>
<event>
 4    1  0.8641621E-005  0.6962905E+03  0.7818608E-02  0.9723597E-01
         -2   -1    0    0    0  501 -0.00000000000E+00  0.00000000000E+00  0.10350203564E+04  0.10350203564E+04  0.25500000000E-02 0. -1.
          2   -1    0    0  501    0  0.00000000000E+00 -0.00000000000E+00 -0.11710408136E+03  0.11710408139E+03  0.25500000000E-02 0.  1.
    5000001    1    1    2    0    0 -0.15651902115E+03  0.61421074003E+02  0.88311113057E+03  0.91399180590E+03  0.16500000000E+03 0.  0.
   -5000001    1    1    2    0    0  0.15651902115E+03 -0.61421074003E+02  0.34805144511E+02  0.23813263194E+03  0.16500000000E+03 0.  0.
<mgrwt>
<rscale>  0 0.69629048E+03</rscale>
<asrwt>0</asrwt>
<pdfrwt beam="1">  1        2 0.18016012E-01 0.69629048E+03</pdfrwt>
<pdfrwt beam="2">  1       -2 0.15923391E+00 0.69629048E+03</pdfrwt>
<totfact> 0.83243720E+01</totfact>
</mgrwt>
</event>
<event>
 4    1  0.8641621E-005  0.6499963E+03  0.7818608E-02  0.9806786E-01
          2   -1    0    0  501    0  0.00000000000E+00  0.00000000000E+00  0.10295541610E+04  0.10295541610E+04  0.25500000000E-02 0.  1.
         -2   -1    0    0    0  501 -0.00000000000E+00 -0.00000000000E+00 -0.10259177522E+03  0.10259177526E+03  0.25500000000E-02 0. -1.
    5000001    1    1    2    0    0 -0.15471343460E+03  0.93816086546E+02  0.91291232358E+02  0.26133655322E+03  0.16500000000E+03 0.  0.
   -5000001    1    1    2    0    0  0.15471343460E+03 -0.93816086546E+02  0.83567115340E+03  0.87080938303E+03  0.16500000000E+03 0.  0.
<mgrwt>
<rscale>  0 0.64999627E+03</rscale>
<asrwt>0</asrwt>
<pdfrwt beam="1">  1        2 0.15839294E+00 0.64999627E+03</pdfrwt>
<pdfrwt beam="2">  1       -2 0.15783351E-01 0.64999627E+03</pdfrwt>
<totfact> 0.78119897E+02</totfact>
</mgrwt>
</event>
<event>
 4    1  0.8641621E-005  0.5587478E+03  0.7818608E-02  0.9994892E-01
         -2   -1    0    0    0  501 -0.00000000000E+00  0.00000000000E+00  0.18344804765E+03  0.18344804767E+03  0.25500000000E-02 0. -1.
          2   -1    0    0  501    0  0.00000000000E+00 -0.00000000000E+00 -0.42545986758E+03  0.42545986758E+03  0.25500000000E-02 0.  1.
    5000001    1    1    2    0    0  0.31830648752E+02 -0.20729467440E+03 -0.30873701543E+02  0.26863070875E+03  0.16500000000E+03 0.  0.
   -5000001    1    1    2    0    0 -0.31830648752E+02  0.20729467440E+03 -0.21113811838E+03  0.34027720651E+03  0.16500000000E+03 0.  0.
<mgrwt>
<rscale>  0 0.55874782E+03</rscale>
<asrwt>0</asrwt>
<pdfrwt beam="1">  1        2 0.65455364E-01 0.55874782E+03</pdfrwt>
<pdfrwt beam="2">  1       -2 0.28222777E-01 0.55874782E+03</pdfrwt>
<totfact> 0.85472510E+02</totfact>
</mgrwt>
</event>
<event>
 4    1  0.8641621E-005  0.4287231E+03  0.7818608E-02  0.1034264E+00
          2   -1    0    0  501    0  0.00000000000E+00  0.00000000000E+00  0.74601093646E+03  0.74601093647E+03  0.25500000000E-02 0.  1.
         -2   -1    0    0    0  501 -0.00000000000E+00 -0.00000000000E+00 -0.61595442145E+02  0.61595442198E+02  0.25500000000E-02 0. -1.
    5000001    1    1    2    0    0  0.43972393559E+01  0.59322754164E+02  0.11006033853E+03  0.20706714610E+03  0.16500000000E+03 0.  0.
   -5000001    1    1    2    0    0 -0.43972393559E+01 -0.59322754164E+02  0.57435515578E+03  0.60053923256E+03  0.16500000000E+03 0.  0.
<mgrwt>
<rscale>  0 0.42872310E+03</rscale>
<asrwt>0</asrwt>
<pdfrwt beam="1">  1        2 0.11477091E+00 0.42872310E+03</pdfrwt>
<pdfrwt beam="2">  1       -2 0.94762222E-02 0.42872310E+03</pdfrwt>
<totfact> 0.28171950E+03</totfact>
</mgrwt>
</event>
<event>
 4    1  0.8641621E-005  0.5924446E+03  0.7818608E-02  0.9921206E-01
          2   -1    0    0  501    0  0.00000000000E+00  0.00000000000E+00  0.39176496123E+03  0.39176496123E+03  0.25500000000E-02 0.  1.
         -2   -1    0    0    0  501 -0.00000000000E+00 -0.00000000000E+00 -0.22398031560E+03  0.22398031561E+03  0.25500000000E-02 0. -1.
    5000001    1    1    2    0    0 -0.10711978948E+03 -0.14190931583E+03  0.26060814604E+03  0.35602599484E+03  0.16500000000E+03 0.  0.
   -5000001    1    1    2    0    0  0.10711978948E+03  0.14190931583E+03 -0.92823500414E+02  0.25971928201E+03  0.16500000000E+03 0.  0.
<mgrwt>
<rscale>  0 0.59244456E+03</rscale>
<asrwt>0</asrwt>
<pdfrwt beam="1">  1        2 0.60271532E-01 0.59244456E+03</pdfrwt>
<pdfrwt beam="2">  1       -2 0.34458510E-01 0.59244456E+03</pdfrwt>
<totfact> 0.64656467E+02</totfact>
</mgrwt>
</event>
<event>
 4    1  0.8641621E-005  0.5420138E+03  0.7818608E-02  0.1003360E+00
          2   -1    0    0  501    0  0.00000000000E+00  0.00000000000E+00  0.10855463427E+04  0.10855463427E+04  0.25500000000E-02 0.  1.
         -2   -1    0    0    0  501 -0.00000000000E+00 -0.00000000000E+00 -0.67656934589E+02  0.67656934637E+02  0.25500000000E-02 0. -1.
    5000001    1    1    2    0    0 -0.46011705916E+02 -0.19353839831E+03  0.68238937838E+03  0.72969476662E+03  0.16500000000E+03 0.  0.
   -5000001    1    1    2    0    0  0.46011705916E+02  0.19353839831E+03  0.33550002969E+03  0.42350851069E+03  0.16500000000E+03 0.  0.
<mgrwt>
<rscale>  0 0.54201379E+03</rscale>
<asrwt>0</asrwt>
<pdfrwt beam="1">  1        2 0.16700712E+00 0.54201379E+03</pdfrwt>
<pdfrwt beam="2">  1       -2 0.10408760E-01 0.54201379E+03</pdfrwt>
<totfact> 0.14432543E+03</totfact>
</mgrwt>
</event>
<event>
 4    1  0.8641621E-005  0.5511865E+03  0.7818608E-02  0.1001220E+00
         -2   -1    0    0    0  501 -0.00000000000E+00  0.00000000000E+00  0.10503272284E+04  0.10503272284E+04  0.25500000000E-02 0. -1.
          2   -1    0    0  501    0  0.00000000000E+00 -0.00000000000E+00 -0.72312359314E+02  0.72312359359E+02  0.25500000000E-02 0.  1.
    5000001    1    1    2    0    0 -0.15400567525E+02  0.21717798314E+03  0.41491868798E+03  0.49677557455E+03  0.16500000000E+03 0.  0.
   -5000001    1    1    2    0    0  0.15400567525E+02 -0.21717798314E+03  0.56309618109E+03  0.62586401318E+03  0.16500000000E+03 0.  0.
<mgrwt>
<rscale>  0 0.55118650E+03</rscale>
<asrwt>0</asrwt>
<pdfrwt beam="1">  1        2 0.11124977E-01 0.55118650E+03</pdfrwt>
<pdfrwt beam="2">  1       -2 0.16158883E+00 0.55118650E+03</pdfrwt>
<totfact> 0.14513876E+02</totfact>
</mgrwt>
</event>
<event>
 4    1  0.8641621E-005  0.8244531E+03  0.7818608E-02  0.9525281E-01
         -2   -1    0    0    0  501 -0.00000000000E+00  0.00000000000E+00  0.80412669152E+02  0.80412669192E+02  0.25500000000E-02 0. -1.
          2   -1    0    0  501    0  0.00000000000E+00 -0.00000000000E+00 -0.21132332342E+04  0.21132332342E+04  0.25500000000E-02 0.  1.
    5000001    1    1    2    0    0 -0.28474819804E+03  0.23340416377E+03 -0.12413431371E+04  0.13052650398E+04  0.16500000000E+03 0.  0.
   -5000001    1    1    2    0    0  0.28474819804E+03 -0.23340416377E+03 -0.79147742796E+03  0.88838086366E+03  0.16500000000E+03 0.  0.
<mgrwt>
<rscale>  0 0.82445309E+03</rscale>
<asrwt>0</asrwt>
<pdfrwt beam="1">  1        2 0.32511276E+00 0.82445309E+03</pdfrwt>
<pdfrwt beam="2">  1       -2 0.12371181E-01 0.82445309E+03</pdfrwt>
<totfact> 0.28523341E+02</totfact>
</mgrwt>
</event>
<event>
 4    1  0.8641621E-005  0.4983993E+03  0.7818608E-02  0.1014198E+00
          2   -1    0    0  501    0  0.00000000000E+00  0.00000000000E+00  0.58571584057E+03  0.58571584057E+03  0.25500000000E-02 0.  1.
         -2   -1    0    0    0  501 -0.00000000000E+00 -0.00000000000E+00 -0.10602489616E+03  0.10602489619E+03  0.25500000000E-02 0. -1.
    5000001    1    1    2    0    0 -0.12477152422E+03 -0.68739282385E+02  0.72242765586E+02  0.22964546453E+03  0.16500000000E+03 0.  0.
   -5000001    1    1    2    0    0  0.12477152422E+03  0.68739282385E+02  0.40744817882E+03  0.46209527224E+03  0.16500000000E+03 0.  0.
<mgrwt>
<rscale>  0 0.49839928E+03</rscale>
<asrwt>0</asrwt>
<pdfrwt beam="1">  1        2 0.90110131E-01 0.49839928E+03</pdfrwt>
<pdfrwt beam="2">  1       -2 0.16311522E-01 0.49839928E+03</pdfrwt>
<totfact> 0.15505422E+03</totfact>
</mgrwt>
</event>
<event>
 4    1  0.8641621E-005  0.4462530E+03  0.7818608E-02  0.1028845E+00
         -2   -1    0    0    0  501 -0.00000000000E+00  0.00000000000E+00  0.33990349866E+02  0.33990349962E+02  0.25500000000E-02 0. -1.
          2   -1    0    0  501    0  0.00000000000E+00 -0.00000000000E+00 -0.14646932284E+04  0.14646932284E+04  0.25500000000E-02 0.  1.
    5000001    1    1    2    0    0 -0.48872383475E+02  0.80716481964E+02 -0.32288468299E+03  0.37467743305E+03  0.16500000000E+03 0.  0.
   -5000001    1    1    2    0    0  0.48872383475E+02 -0.80716481964E+02 -0.11078181955E+04  0.11240061453E+04  0.16500000000E+03 0.  0.
<mgrwt>
<rscale>  0 0.44625300E+03</rscale>
<asrwt>0</asrwt>
<pdfrwt beam="1">  1        2 0.22533737E+00 0.44625300E+03</pdfrwt>
<pdfrwt beam="2">  1       -2 0.52292858E-02 0.44625300E+03</pdfrwt>
<totfact> 0.26018740E+03</totfact>
</mgrwt>
</event>
<event>
 4    1  0.8641621E-005  0.7207725E+03  0.7818608E-02  0.9682353E-01
          2   -1    0    0  501    0  0.00000000000E+00  0.00000000000E+00  0.10371822312E+04  0.10371822312E+04  0.25500000000E-02 0.  1.
         -2   -1    0    0    0  501 -0.00000000000E+00 -0.00000000000E+00 -0.12522221014E+03  0.12522221017E+03  0.25500000000E-02 0. -1.
    5000001    1    1    2    0    0  0.84676431513E+02 -0.21995384446E+03  0.80599403935E+03  0.85580440710E+03  0.16500000000E+03 0.  0.
   -5000001    1    1    2    0    0 -0.84676431513E+02  0.21995384446E+03  0.10596598174E+03  0.30660003430E+03  0.16500000000E+03 0.  0.
<mgrwt>
<rscale>  0 0.72077251E+03</rscale>
<asrwt>0</asrwt>
<pdfrwt beam="1">  1        2 0.15956650E+00 0.72077251E+03</pdfrwt>
<pdfrwt beam="2">  1       -2 0.19264955E-01 0.72077251E+03</pdfrwt>
<totfact> 0.54719854E+02</totfact>
</mgrwt>
</event>
<event>
 4    1  0.8641621E-005  0.3758771E+03  0.7818608E-02  0.1052468E+00
          2   -1    0    0  501    0  0.00000000000E+00  0.00000000000E+00  0.27177185613E+02  0.27177185733E+02  0.25500000000E-02 0.  1.
         -2   -1    0    0    0  501 -0.00000000000E+00 -0.00000000000E+00 -0.12996526557E+04  0.12996526557E+04  0.25500000000E-02 0. -1.
    5000001    1    1    2    0    0 -0.59208262779E+02 -0.72621629088E+01 -0.39845529651E+03  0.43537338080E+03  0.16500000000E+03 0.  0.
   -5000001    1    1    2    0    0  0.59208262779E+02  0.72621629088E+01 -0.87402017358E+03  0.89145646064E+03  0.16500000000E+03 0.  0.
<mgrwt>
<rscale>  0 0.37587712E+03</rscale>
<asrwt>0</asrwt>
<pdfrwt beam="1">  1        2 0.41811065E-02 0.37587712E+03</pdfrwt>
<pdfrwt beam="2">  1       -2 0.19994651E+00 0.37587712E+03</pdfrwt>
<totfact> 0.28830992E+02</totfact>
</mgrwt>
</event>
<event>
 4    1  0.8641621E-005  0.5452188E+03  0.7818608E-02  0.1002607E+00
          2   -1    0    0  501    0  0.00000000000E+00  0.00000000000E+00  0.86882013478E+02  0.86882013515E+02  0.25500000000E-02 0.  1.
         -2   -1    0    0    0  501 -0.00000000000E+00 -0.00000000000E+00 -0.85536574426E+03  0.85536574426E+03  0.25500000000E-02 0. -1.
    5000001    1    1    2    0    0 -0.49997366874E+02 -0.19399591175E+03 -0.52838613345E+03  0.58868587251E+03  0.16500000000E+03 0.  0.
   -5000001    1    1    2    0    0  0.49997366874E+02  0.19399591175E+03 -0.24009759733E+03  0.35356188527E+03  0.16500000000E+03 0.  0.
<mgrwt>
<rscale>  0 0.54521885E+03</rscale>
<asrwt>0</asrwt>
<pdfrwt beam="1">  1        2 0.13366464E-01 0.54521885E+03</pdfrwt>
<pdfrwt beam="2">  1       -2 0.13159472E+00 0.54521885E+03</pdfrwt>
<totfact> 0.19743608E+02</totfact>
</mgrwt>
</event>
<event>
 4    1  0.8641621E-005  0.3736448E+03  0.7818608E-02  0.1053308E+00
         -2   -1    0    0    0  501 -0.00000000000E+00  0.00000000000E+00  0.31105806527E+02  0.31105806631E+02  0.25500000000E-02 0. -1.
          2   -1    0    0  501    0  0.00000000000E+00 -0.00000000000E+00 -0.11220610084E+04  0.11220610085E+04  0.25500000000E-02 0.  1.
    5000001    1    1    2    0    0 -0.84828563338E+02 -0.74458238827E+01 -0.60919885931E+03  0.63686699996E+03  0.16500000000E+03 0.  0.
   -5000001    1    1    2    0    0  0.84828563338E+02  0.74458238827E+01 -0.48175634262E+03  0.51629981513E+03  0.16500000000E+03 0.  0.
<mgrwt>
<rscale>  0 0.37364482E+03</rscale>
<asrwt>0</asrwt>
<pdfrwt beam="1">  1        2 0.17262474E+00 0.37364482E+03</pdfrwt>
<pdfrwt beam="2">  1       -2 0.47855096E-02 0.37364482E+03</pdfrwt>
<totfact> 0.46607119E+03</totfact>
</mgrwt>
</event>
<event>
 4    1  0.8641621E-005  0.7491524E+03  0.7818608E-02  0.9636681E-01
          2   -1    0    0  501    0  0.00000000000E+00  0.00000000000E+00  0.91688353789E+03  0.91688353789E+03  0.25500000000E-02 0.  1.
         -2   -1    0    0    0  501 -0.00000000000E+00 -0.00000000000E+00 -0.15302634763E+03  0.15302634765E+03  0.25500000000E-02 0. -1.
    5000001    1    1    2    0    0  0.31150152132E+03  0.75445480894E+02  0.52727240098E+03  0.63872247746E+03  0.16500000000E+03 0.  0.
   -5000001    1    1    2    0    0 -0.31150152132E+03 -0.75445480894E+02  0.23658478927E+03  0.43118740808E+03  0.16500000000E+03 0.  0.
<mgrwt>
<rscale>  0 0.74915243E+03</rscale>
<asrwt>0</asrwt>
<pdfrwt beam="1">  1        2 0.14105901E+00 0.74915243E+03</pdfrwt>
<pdfrwt beam="2">  1       -2 0.23542515E-01 0.74915243E+03</pdfrwt>
<totfact> 0.45883258E+02</totfact>
</mgrwt>
</event>
<event>
 4    1  0.8641621E-005  0.4958502E+03  0.7818608E-02  0.1014868E+00
         -2   -1    0    0    0  501 -0.00000000000E+00  0.00000000000E+00  0.16170839855E+03  0.16170839857E+03  0.25500000000E-02 0. -1.
          2   -1    0    0  501    0  0.00000000000E+00 -0.00000000000E+00 -0.38010915693E+03  0.38010915694E+03  0.25500000000E-02 0.  1.
    5000001    1    1    2    0    0  0.12171747097E+03 -0.13936314114E+03 -0.11154783799E+03  0.27185501284E+03  0.16500000000E+03 0.  0.
   -5000001    1    1    2    0    0 -0.12171747097E+03  0.13936314114E+03 -0.10685292039E+03  0.26996254267E+03  0.16500000000E+03 0.  0.
<mgrwt>
<rscale>  0 0.49585015E+03</rscale>
<asrwt>0</asrwt>
<pdfrwt beam="1">  1        2 0.58478332E-01 0.49585015E+03</pdfrwt>
<pdfrwt beam="2">  1       -2 0.24878215E-01 0.49585015E+03</pdfrwt>
<totfact> 0.12177065E+03</totfact>
</mgrwt>
</event>
<event>
 4    1  0.8641621E-005  0.4806769E+03  0.7818608E-02  0.1018949E+00
          2   -1    0    0  501    0  0.00000000000E+00  0.00000000000E+00  0.90823516457E+03  0.90823516457E+03  0.25500000000E-02 0.  1.
         -2   -1    0    0    0  501 -0.00000000000E+00 -0.00000000000E+00 -0.63598699017E+02  0.63598699068E+02  0.25500000000E-02 0. -1.
    5000001    1    1    2    0    0 -0.15884692642E+03  0.47753222310E+02  0.53351477955E+03  0.58255964182E+03  0.16500000000E+03 0.  0.
   -5000001    1    1    2    0    0  0.15884692642E+03 -0.47753222310E+02  0.31112168600E+03  0.38927422182E+03  0.16500000000E+03 0.  0.
<mgrwt>
<rscale>  0 0.48067692E+03</rscale>
<asrwt>0</asrwt>
<pdfrwt beam="1">  1        2 0.13972848E+00 0.48067692E+03</pdfrwt>
<pdfrwt beam="2">  1       -2 0.97844154E-02 0.48067692E+03</pdfrwt>
<totfact> 0.20656576E+03</totfact>
</mgrwt>
</event>
<event>
 4    1  0.8641621E-005  0.8051044E+03  0.7818608E-02  0.9552658E-01
          2   -1    0    0  501    0  0.00000000000E+00  0.00000000000E+00  0.18641766323E+04  0.18641766323E+04  0.25500000000E-02 0.  1.
         -2   -1    0    0    0  501 -0.00000000000E+00 -0.00000000000E+00 -0.86927526626E+02  0.86927526664E+02  0.25500000000E-02 0. -1.
    5000001    1    1    2    0    0  0.34854124563E+03  0.11535830353E+03  0.90290540951E+03  0.98856042639E+03  0.16500000000E+03 0.  0.
   -5000001    1    1    2    0    0 -0.34854124563E+03 -0.11535830353E+03  0.87434369619E+03  0.96254373260E+03  0.16500000000E+03 0.  0.
<mgrwt>
<rscale>  0 0.80510438E+03</rscale>
<asrwt>0</asrwt>
<pdfrwt beam="1">  1        2 0.28679639E+00 0.80510438E+03</pdfrwt>
<pdfrwt beam="2">  1       -2 0.13373466E-01 0.80510438E+03</pdfrwt>
<totfact> 0.34334757E+02</totfact>
</mgrwt>
</event>
<event>
 4    1  0.8641621E-005  0.5794528E+03  0.7818608E-02  0.9948976E-01
          2   -1    0    0  501    0  0.00000000000E+00  0.00000000000E+00  0.95224880266E+03  0.95224880267E+03  0.25500000000E-02 0.  1.
         -2   -1    0    0    0  501 -0.00000000000E+00 -0.00000000000E+00 -0.88150697145E+02  0.88150697182E+02  0.25500000000E-02 0. -1.
    5000001    1    1    2    0    0  0.21972593152E+03  0.71858436206E+02  0.53477339250E+03  0.60551688759E+03  0.16500000000E+03 0.  0.
   -5000001    1    1    2    0    0 -0.21972593152E+03 -0.71858436206E+02  0.32932471302E+03  0.43488261226E+03  0.16500000000E+03 0.  0.
<mgrwt>
<rscale>  0 0.57945283E+03</rscale>
<asrwt>0</asrwt>
<pdfrwt beam="1">  1        2 0.14649981E+00 0.57945283E+03</pdfrwt>
<pdfrwt beam="2">  1       -2 0.13561646E-01 0.57945283E+03</pdfrwt>
<totfact> 0.11313981E+03</totfact>
</mgrwt>
</event>
<event>
 4    1  0.8641621E-005  0.5864621E+03  0.7818608E-02  0.9933898E-01
          2   -1    0    0  501    0  0.00000000000E+00  0.00000000000E+00  0.38627591685E+04  0.38627591685E+04  0.25500000000E-02 0.  1.
         -2   -1    0    0    0  501 -0.00000000000E+00 -0.00000000000E+00 -0.22259849972E+02  0.22259850119E+02  0.25500000000E-02 0. -1.
    5000001    1    1    2    0    0 -0.10711411005E+03 -0.17959748441E+03  0.27324133296E+04  0.27453663312E+04  0.16500000000E+03 0.  0.
   -5000001    1    1    2    0    0  0.10711411005E+03  0.17959748441E+03  0.11080859890E+04  0.11396526874E+04  0.16500000000E+03 0.  0.
<mgrwt>
<rscale>  0 0.58646207E+03</rscale>
<asrwt>0</asrwt>
<pdfrwt beam="1">  1        2 0.59427005E+00 0.58646207E+03</pdfrwt>
<pdfrwt beam="2">  1       -2 0.34245957E-02 0.58646207E+03</pdfrwt>
<totfact> 0.18252316E+02</totfact>
</mgrwt>
</event>
<event>
 4    1  0.8641621E-005  0.3353813E+03  0.7818608E-02  0.1068780E+00
          2   -1    0    0  501    0  0.00000000000E+00  0.00000000000E+00  0.25153038866E+04  0.25153038866E+04  0.25500000000E-02 0.  1.
         -2   -1    0    0    0  501 -0.00000000000E+00 -0.00000000000E+00 -0.11179627681E+02  0.11179627971E+02  0.25500000000E-02 0. -1.
    5000001    1    1    2    0    0 -0.17713321835E+02 -0.24015031324E+02  0.12357691869E+04  0.12470930064E+04  0.16500000000E+03 0.  0.
   -5000001    1    1    2    0    0  0.17713321835E+02  0.24015031324E+02  0.12683550720E+04  0.12793905081E+04  0.16500000000E+03 0.  0.
<mgrwt>
<rscale>  0 0.33538134E+03</rscale>
<asrwt>0</asrwt>
<pdfrwt beam="1">  1        2 0.38697029E+00 0.33538134E+03</pdfrwt>
<pdfrwt beam="2">  1       -2 0.17199407E-02 0.33538134E+03</pdfrwt>
<totfact> 0.37851090E+03</totfact>
</mgrwt>
</event>
<event>
 4    1  0.8641621E-005  0.8560968E+03  0.7818608E-02  0.9482190E-01
          2   -1    0    0  501    0  0.00000000000E+00  0.00000000000E+00  0.11395519210E+04  0.11395519210E+04  0.25500000000E-02 0. -1.
         -2   -1    0    0    0  501 -0.00000000000E+00 -0.00000000000E+00 -0.16078725633E+03  0.16078725635E+03  0.25500000000E-02 0.  1.
    5000001    1    1    2    0    0  0.37712994200E+03  0.34747093538E+02  0.31911412138E+03  0.52200878932E+03  0.16500000000E+03 0.  0.
   -5000001    1    1    2    0    0 -0.37712994200E+03 -0.34747093538E+02  0.65965054329E+03  0.77833038802E+03  0.16500000000E+03 0.  0.
<mgrwt>
<rscale>  0 0.85609679E+03</rscale>
<asrwt>0</asrwt>
<pdfrwt beam="1">  1        2 0.17531567E+00 0.85609679E+03</pdfrwt>
<pdfrwt beam="2">  1       -2 0.24736502E-01 0.85609679E+03</pdfrwt>
<totfact> 0.30203815E+02</totfact>
</mgrwt>
</event>
<event>
 4    1  0.8641621E-005  0.6459039E+03  0.7818608E-02  0.9814496E-01
         -2   -1    0    0    0  501 -0.00000000000E+00  0.00000000000E+00  0.12824124178E+03  0.12824124180E+03  0.25500000000E-02 0. -1.
          2   -1    0    0  501    0  0.00000000000E+00 -0.00000000000E+00 -0.81329490406E+03  0.81329490406E+03  0.25500000000E-02 0.  1.
    5000001    1    1    2    0    0  0.23756905972E+03 -0.11783695366E+02 -0.55121289569E+03  0.62260627204E+03  0.16500000000E+03 0.  0.
   -5000001    1    1    2    0    0 -0.23756905972E+03  0.11783695366E+02 -0.13384076659E+03  0.31892987382E+03  0.16500000000E+03 0.  0.
<mgrwt>
<rscale>  0 0.64590386E+03</rscale>
<asrwt>0</asrwt>
<pdfrwt beam="1">  1        2 0.12512229E+00 0.64590386E+03</pdfrwt>
<pdfrwt beam="2">  1       -2 0.19729422E-01 0.64590386E+03</pdfrwt>
<totfact> 0.74081849E+02</totfact>
</mgrwt>
</event>
<event>
 4    1  0.8641621E-005  0.5866011E+03  0.7818608E-02  0.9933601E-01
          2   -1    0    0  501    0  0.00000000000E+00  0.00000000000E+00  0.13428255403E+04  0.13428255403E+04  0.25500000000E-02 0.  1.
         -2   -1    0    0    0  501 -0.00000000000E+00 -0.00000000000E+00 -0.64062840996E+02  0.64062841047E+02  0.25500000000E-02 0. -1.
    5000001    1    1    2    0    0  0.19456269601E+03 -0.11752866822E+03  0.43682757509E+03  0.51933703978E+03  0.16500000000E+03 0.  0.
   -5000001    1    1    2    0    0 -0.19456269601E+03  0.11752866822E+03  0.84193512419E+03  0.88755134155E+03  0.16500000000E+03 0.  0.
<mgrwt>
<rscale>  0 0.58660112E+03</rscale>
<asrwt>0</asrwt>
<pdfrwt beam="1">  1        2 0.20658855E+00 0.58660112E+03</pdfrwt>
<pdfrwt beam="2">  1       -2 0.98558217E-02 0.58660112E+03</pdfrwt>
<totfact> 0.11136775E+03</totfact>
</mgrwt>
</event>
<event>
 4    1  0.8641621E-005  0.4765732E+03  0.7818608E-02  0.1020081E+00
          2   -1    0    0  501    0  0.00000000000E+00  0.00000000000E+00  0.26533702717E+04  0.26533702717E+04  0.25500000000E-02 0.  1.
         -2   -1    0    0    0  501 -0.00000000000E+00 -0.00000000000E+00 -0.21399387264E+02  0.21399387416E+02  0.25500000000E-02 0. -1.
    5000001    1    1    2    0    0 -0.13713194019E+02  0.13207674653E+03  0.19288335294E+04  0.19404267837E+04  0.16500000000E+03 0.  0.
   -5000001    1    1    2    0    0  0.13713194019E+02 -0.13207674653E+03  0.70313735502E+03  0.73434287542E+03  0.16500000000E+03 0.  0.
<mgrwt>
<rscale>  0 0.47657318E+03</rscale>
<asrwt>0</asrwt>
<pdfrwt beam="1">  1        2 0.40821074E+00 0.47657318E+03</pdfrwt>
<pdfrwt beam="2">  1       -2 0.32922140E-02 0.47657318E+03</pdfrwt>
<totfact> 0.11862953E+03</totfact>
</mgrwt>
</event>
<event>
 4    1  0.8641621E-005  0.8036990E+03  0.7818608E-02  0.9554678E-01
         -2   -1    0    0    0  501 -0.00000000000E+00  0.00000000000E+00  0.19259522450E+03  0.19259522451E+03  0.25500000000E-02 0. -1.
          2   -1    0    0  501    0  0.00000000000E+00 -0.00000000000E+00 -0.83845805366E+03  0.83845805367E+03  0.25500000000E-02 0.  1.
    5000001    1    1    2    0    0 -0.32021698178E+03  0.10789519676E+03 -0.14115188744E+03  0.40165799411E+03  0.16500000000E+03 0.  0.
   -5000001    1    1    2    0    0  0.32021698178E+03 -0.10789519676E+03 -0.50471094173E+03  0.62939528407E+03  0.16500000000E+03 0.  0.
<mgrwt>
<rscale>  0 0.80369899E+03</rscale>
<asrwt>0</asrwt>
<pdfrwt beam="1">  1        2 0.12899354E+00 0.80369899E+03</pdfrwt>
<pdfrwt beam="2">  1       -2 0.29630035E-01 0.80369899E+03</pdfrwt>
<totfact> 0.34076430E+02</totfact>
</mgrwt>
</event>
<event>
 4    1  0.8641621E-005  0.8920280E+03  0.7818608E-02  0.9435602E-01
          2   -1    0    0  501    0  0.00000000000E+00  0.00000000000E+00  0.21058638985E+04  0.21058638985E+04  0.25500000000E-02 0.  1.
         -2   -1    0    0    0  501 -0.00000000000E+00 -0.00000000000E+00 -0.94464073925E+02  0.94464073959E+02  0.25500000000E-02 0. -1.
    5000001    1    1    2    0    0  0.31000913711E+03 -0.24294225892E+03  0.68811468457E+03  0.80984777914E+03  0.16500000000E+03 0.  0.
   -5000001    1    1    2    0    0 -0.31000913711E+03  0.24294225892E+03  0.13232851400E+04  0.13904801933E+04  0.16500000000E+03 0.  0.
<mgrwt>
<rscale>  0 0.89202799E+03</rscale>
<asrwt>0</asrwt>
<pdfrwt beam="1">  1        2 0.32397902E+00 0.89202799E+03</pdfrwt>
<pdfrwt beam="2">  1       -2 0.14532936E-01 0.89202799E+03</pdfrwt>
<totfact> 0.21866859E+02</totfact>
</mgrwt>
</event>
<event>
 4    1  0.8641621E-005  0.4554796E+03  0.7818608E-02  0.1026100E+00
         -2   -1    0    0    0  501 -0.00000000000E+00  0.00000000000E+00  0.85023120449E+02  0.85023120487E+02  0.25500000000E-02 0. -1.
          2   -1    0    0  501    0  0.00000000000E+00 -0.00000000000E+00 -0.61001557650E+03  0.61001557650E+03  0.25500000000E-02 0.  1.
    5000001    1    1    2    0    0  0.33988506564E+02 -0.12492182605E+03 -0.39795156908E+03  0.44983456129E+03  0.16500000000E+03 0.  0.
   -5000001    1    1    2    0    0 -0.33988506564E+02  0.12492182605E+03 -0.12704088697E+03  0.24520413570E+03  0.16500000000E+03 0.  0.
<mgrwt>
<rscale>  0 0.45547965E+03</rscale>
<asrwt>0</asrwt>
<pdfrwt beam="1">  1        2 0.93848547E-01 0.45547965E+03</pdfrwt>
<pdfrwt beam="2">  1       -2 0.13080480E-01 0.45547965E+03</pdfrwt>
<totfact> 0.21360509E+03</totfact>
</mgrwt>
</event>
<event>
 4    1  0.8641621E-005  0.5696485E+03  0.7818608E-02  0.9970457E-01
         -2   -1    0    0    0  501 -0.00000000000E+00  0.00000000000E+00  0.62806101426E+02  0.62806101477E+02  0.25500000000E-02 0. -1.
          2   -1    0    0  501    0  0.00000000000E+00 -0.00000000000E+00 -0.12916715814E+04  0.12916715814E+04  0.25500000000E-02 0.  1.
    5000001    1    1    2    0    0  0.61934038853E+02 -0.17567448426E+03 -0.28494151619E+03  0.37830413325E+03  0.16500000000E+03 0.  0.
   -5000001    1    1    2    0    0 -0.61934038853E+02  0.17567448426E+03 -0.94392396382E+03  0.97617354966E+03  0.16500000000E+03 0.  0.
<mgrwt>
<rscale>  0 0.56964851E+03</rscale>
<asrwt>0</asrwt>
<pdfrwt beam="1">  1        2 0.19871868E+00 0.56964851E+03</pdfrwt>
<pdfrwt beam="2">  1       -2 0.96624781E-02 0.56964851E+03</pdfrwt>
<totfact> 0.12304301E+03</totfact>
</mgrwt>
</event>
<event>
 4    1  0.8641621E-005  0.1076298E+04  0.7818608E-02  0.9228606E-01
          2   -1    0    0  501    0  0.00000000000E+00  0.00000000000E+00  0.38740301658E+03  0.38740301659E+03  0.25500000000E-02 0.  1.
         -2   -1    0    0    0  501 -0.00000000000E+00 -0.00000000000E+00 -0.74755352161E+03  0.74755352161E+03  0.25500000000E-02 0. -1.
    5000001    1    1    2    0    0  0.44643210513E+03  0.18920496057E+03 -0.35424133423E+03  0.62274558567E+03  0.16500000000E+03 0.  0.
   -5000001    1    1    2    0    0 -0.44643210513E+03 -0.18920496057E+03 -0.59091708000E+01  0.51221095253E+03  0.16500000000E+03 0.  0.
<mgrwt>
<rscale>  0 0.10762983E+04</rscale>
<asrwt>0</asrwt>
<pdfrwt beam="1">  1        2 0.59600464E-01 0.10762983E+04</pdfrwt>
<pdfrwt beam="2">  1       -2 0.11500823E+00 0.10762983E+04</pdfrwt>
<totfact> 0.48312729E+01</totfact>
</mgrwt>
</event>
<event>
 4    1  0.8641621E-005  0.3685962E+03  0.7818608E-02  0.1055231E+00
          2   -1    0    0  501    0  0.00000000000E+00  0.00000000000E+00  0.72922972982E+03  0.72922972983E+03  0.25500000000E-02 0.  1.
         -2   -1    0    0    0  501 -0.00000000000E+00 -0.00000000000E+00 -0.46577637380E+02  0.46577637450E+02  0.25500000000E-02 0. -1.
    5000001    1    1    2    0    0 -0.32498957610E+02 -0.64915960358E+02  0.26061360226E+03  0.31688280773E+03  0.16500000000E+03 0.  0.
   -5000001    1    1    2    0    0  0.32498957610E+02  0.64915960358E+02  0.42203849018E+03  0.45892455954E+03  0.16500000000E+03 0.  0.
<mgrwt>
<rscale>  0 0.36859624E+03</rscale>
<asrwt>0</asrwt>
<pdfrwt beam="1">  1        2 0.11218919E+00 0.36859624E+03</pdfrwt>
<pdfrwt beam="2">  1       -2 0.71657904E-02 0.36859624E+03</pdfrwt>
<totfact> 0.45023495E+03</totfact>
</mgrwt>
</event>
<event>
 4    1  0.8641621E-005  0.9196274E+03  0.7818608E-02  0.9401373E-01
         -2   -1    0    0    0  501 -0.00000000000E+00  0.00000000000E+00  0.21233117303E+03  0.21233117304E+03  0.25500000000E-02 0. -1.
          2   -1    0    0  501    0  0.00000000000E+00 -0.00000000000E+00 -0.99574937359E+03  0.99574937360E+03  0.25500000000E-02 0.  1.
    5000001    1    1    2    0    0  0.41193969268E+03  0.46670155667E+01 -0.23359109184E+03  0.50150362873E+03  0.16500000000E+03 0.  0.
   -5000001    1    1    2    0    0 -0.41193969268E+03 -0.46670155667E+01 -0.54982710872E+03  0.70657691791E+03  0.16500000000E+03 0.  0.
<mgrwt>
<rscale>  0 0.91962739E+03</rscale>
<asrwt>0</asrwt>
<pdfrwt beam="1">  1        2 0.15319221E+00 0.91962739E+03</pdfrwt>
<pdfrwt beam="2">  1       -2 0.32666335E-01 0.91962739E+03</pdfrwt>
<totfact> 0.22158486E+02</totfact>
</mgrwt>
</event>
<event>
 4    1  0.8641621E-005  0.5290646E+03  0.7818608E-02  0.1006459E+00
         -2   -1    0    0    0  501 -0.00000000000E+00  0.00000000000E+00  0.58787333703E+02  0.58787333759E+02  0.25500000000E-02 0. -1.
          2   -1    0    0  501    0  0.00000000000E+00 -0.00000000000E+00 -0.11903470594E+04  0.11903470594E+04  0.25500000000E-02 0.  1.
    5000001    1    1    2    0    0 -0.15743902184E+02 -0.16516991084E+03 -0.85709009884E+03  0.88845788163E+03  0.16500000000E+03 0.  0.
   -5000001    1    1    2    0    0  0.15743902184E+02  0.16516991084E+03 -0.27446962686E+03  0.36067651153E+03  0.16500000000E+03 0.  0.
<mgrwt>
<rscale>  0 0.52906457E+03</rscale>
<asrwt>0</asrwt>
<pdfrwt beam="1">  1        2 0.18313030E+00 0.52906457E+03</pdfrwt>
<pdfrwt beam="2">  1       -2 0.90442061E-02 0.52906457E+03</pdfrwt>
<totfact> 0.15683736E+03</totfact>
</mgrwt>
</event>
<event>
 4    1  0.8641621E-005  0.5167114E+03  0.7818608E-02  0.1009507E+00
          2   -1    0    0  501    0  0.00000000000E+00  0.00000000000E+00  0.58977841967E+03  0.58977841968E+03  0.25500000000E-02 0.  1.
         -2   -1    0    0    0  501 -0.00000000000E+00 -0.00000000000E+00 -0.11317416135E+03  0.11317416137E+03  0.25500000000E-02 0. -1.
    5000001    1    1    2    0    0 -0.12538167663E+03 -0.19443535468E+02  0.30088545690E+02  0.21030676757E+03  0.16500000000E+03 0.  0.
   -5000001    1    1    2    0    0  0.12538167663E+03  0.19443535468E+02  0.44651571263E+03  0.49264581348E+03  0.16500000000E+03 0.  0.
<mgrwt>
<rscale>  0 0.51671144E+03</rscale>
<asrwt>0</asrwt>
<pdfrwt beam="1">  1        2 0.90735141E-01 0.51671144E+03</pdfrwt>
<pdfrwt beam="2">  1       -2 0.17411410E-01 0.51671144E+03</pdfrwt>
<totfact> 0.13763718E+03</totfact>
</mgrwt>
</event>
<event>
 4    1  0.8641621E-005  0.6671489E+03  0.7818608E-02  0.9775122E-01
          2   -1    0    0  501    0  0.00000000000E+00  0.00000000000E+00  0.12258975051E+04  0.12258975051E+04  0.25500000000E-02 0.  1.
         -2   -1    0    0    0  501 -0.00000000000E+00 -0.00000000000E+00 -0.90767713162E+02  0.90767713198E+02  0.25500000000E-02 0. -1.
    5000001    1    1    2    0    0 -0.44676017736E+02 -0.28196572509E+03  0.46797688188E+03  0.57247530834E+03  0.16500000000E+03 0.  0.
   -5000001    1    1    2    0    0  0.44676017736E+02  0.28196572509E+03  0.66715291002E+03  0.74418990992E+03  0.16500000000E+03 0.  0.
<mgrwt>
<rscale>  0 0.66714890E+03</rscale>
<asrwt>0</asrwt>
<pdfrwt beam="1">  1        2 0.18859962E+00 0.66714890E+03</pdfrwt>
<pdfrwt beam="2">  1       -2 0.13964263E-01 0.66714890E+03</pdfrwt>
<totfact> 0.73039701E+02</totfact>
</mgrwt>
</event>
<event>
 4    1  0.8641621E-005  0.4660421E+03  0.7818608E-02  0.1023043E+00
         -2   -1    0    0    0  501 -0.00000000000E+00  0.00000000000E+00  0.37133940263E+02  0.37133940350E+02  0.25500000000E-02 0.  1.
          2   -1    0    0  501    0  0.00000000000E+00 -0.00000000000E+00 -0.14622422482E+04  0.14622422482E+04  0.25500000000E-02 0. -1.
    5000001    1    1    2    0    0 -0.10616836693E+03 -0.47350546233E+02 -0.33791290073E+03  0.39360376630E+03  0.16500000000E+03 0.  0.
   -5000001    1    1    2    0    0  0.10616836693E+03  0.47350546233E+02 -0.10871954073E+04  0.11057724223E+04  0.16500000000E+03 0.  0.
<mgrwt>
<rscale>  0 0.46604213E+03</rscale>
<asrwt>0</asrwt>
<pdfrwt beam="1">  1        2 0.22496030E+00 0.46604213E+03</pdfrwt>
<pdfrwt beam="2">  1       -2 0.57129150E-02 0.46604213E+03</pdfrwt>
<totfact> 0.22748743E+03</totfact>
</mgrwt>
</event>
<event>
 4    1  0.8641621E-005  0.6451603E+03  0.7818608E-02  0.9815903E-01
          2   -1    0    0  501    0  0.00000000000E+00  0.00000000000E+00  0.87801295488E+03  0.87801295488E+03  0.25500000000E-02 0.  1.
         -2   -1    0    0    0  501 -0.00000000000E+00 -0.00000000000E+00 -0.11851529546E+03  0.11851529549E+03  0.25500000000E-02 0. -1.
    5000001    1    1    2    0    0 -0.14848437862E+03 -0.21772231490E+03  0.51246358265E+03  0.59941182892E+03  0.16500000000E+03 0.  0.
   -5000001    1    1    2    0    0  0.14848437862E+03  0.21772231490E+03  0.24703407677E+03  0.39711642145E+03  0.16500000000E+03 0.  0.
<mgrwt>
<rscale>  0 0.64516034E+03</rscale>
<asrwt>0</asrwt>
<pdfrwt beam="1">  1        2 0.13507891E+00 0.64516034E+03</pdfrwt>
<pdfrwt beam="2">  1       -2 0.18233123E-01 0.64516034E+03</pdfrwt>
<totfact> 0.76603153E+02</totfact>
</mgrwt>
</event>
<event>
 4    1  0.8641621E-005  0.3999730E+03  0.7818608E-02  0.1043789E+00
          2   -1    0    0  501    0  0.00000000000E+00  0.00000000000E+00  0.96962852370E+03  0.96962852370E+03  0.25500000000E-02 0.  1.
         -2   -1    0    0    0  501 -0.00000000000E+00 -0.00000000000E+00 -0.41247344552E+02  0.41247344631E+02  0.25500000000E-02 0. -1.
    5000001    1    1    2    0    0  0.93903011948E+02  0.62405922411E+02  0.48332640219E+03  0.52301212783E+03  0.16500000000E+03 0.  0.
   -5000001    1    1    2    0    0 -0.93903011948E+02 -0.62405922411E+02  0.44505477696E+03  0.48786374050E+03  0.16500000000E+03 0.  0.
<mgrwt>
<rscale>  0 0.39997301E+03</rscale>
<asrwt>0</asrwt>
<pdfrwt beam="1">  1        2 0.14917360E+00 0.39997301E+03</pdfrwt>
<pdfrwt beam="2">  1       -2 0.63457461E-02 0.39997301E+03</pdfrwt>
<totfact> 0.37382056E+03</totfact>
</mgrwt>
</event>
<event>
 4    1  0.8641621E-005  0.6037067E+03  0.7818608E-02  0.9897746E-01
         -2   -1    0    0    0  501 -0.00000000000E+00  0.00000000000E+00  0.63502231994E+02  0.63502232045E+02  0.25500000000E-02 0. -1.
          2   -1    0    0  501    0  0.00000000000E+00 -0.00000000000E+00 -0.14348383461E+04  0.14348383461E+04  0.25500000000E-02 0.  1.
    5000001    1    1    2    0    0 -0.23238145078E+03 -0.77586031365E+02 -0.84005962720E+03  0.89047510251E+03  0.16500000000E+03 0.  0.
   -5000001    1    1    2    0    0  0.23238145078E+03  0.77586031365E+02 -0.53127648686E+03  0.60786547560E+03  0.16500000000E+03 0.  0.
<mgrwt>
<rscale>  0 0.60370668E+03</rscale>
<asrwt>0</asrwt>
<pdfrwt beam="1">  1        2 0.22074434E+00 0.60370668E+03</pdfrwt>
<pdfrwt beam="2">  1       -2 0.97695753E-02 0.60370668E+03</pdfrwt>
<totfact> 0.10021544E+03</totfact>
</mgrwt>
</event>
<event>
 4    1  0.8641621E-005  0.7608187E+03  0.7818608E-02  0.9618529E-01
          2   -1    0    0  501    0  0.00000000000E+00  0.00000000000E+00  0.80272050187E+03  0.80272050187E+03  0.25500000000E-02 0.  1.
         -2   -1    0    0    0  501 -0.00000000000E+00 -0.00000000000E+00 -0.18027603801E+03  0.18027603802E+03  0.25500000000E-02 0. -1.
    5000001    1    1    2    0    0 -0.30804317983E+03 -0.15031628165E+03  0.31229277687E+03  0.49217615104E+03  0.16500000000E+03 0.  0.
   -5000001    1    1    2    0    0  0.30804317983E+03  0.15031628165E+03  0.31015168699E+03  0.49082038885E+03  0.16500000000E+03 0.  0.
<mgrwt>
<rscale>  0 0.76081870E+03</rscale>
<asrwt>0</asrwt>
<pdfrwt beam="1">  1        2 0.12349546E+00 0.76081870E+03</pdfrwt>
<pdfrwt beam="2">  1       -2 0.27734775E-01 0.76081870E+03</pdfrwt>
<totfact> 0.40876066E+02</totfact>
</mgrwt>
</event>
<event>
 4    1  0.8641621E-005  0.3607431E+03  0.7818608E-02  0.1058290E+00
          2   -1    0    0  501    0  0.00000000000E+00  0.00000000000E+00  0.73391489747E+02  0.73391489791E+02  0.25500000000E-02 0.  1.
         -2   -1    0    0    0  501 -0.00000000000E+00 -0.00000000000E+00 -0.44329251208E+03  0.44329251209E+03  0.25500000000E-02 0. -1.
    5000001    1    1    2    0    0  0.23427902098E+02  0.30083317954E+02 -0.96022089750E+02  0.19467694865E+03  0.16500000000E+03 0.  0.
   -5000001    1    1    2    0    0 -0.23427902098E+02 -0.30083317954E+02 -0.27387893259E+03  0.32200705323E+03  0.16500000000E+03 0.  0.
<mgrwt>
<rscale>  0 0.36074311E+03</rscale>
<asrwt>0</asrwt>
<pdfrwt beam="1">  1        2 0.11290999E-01 0.36074311E+03</pdfrwt>
<pdfrwt beam="2">  1       -2 0.68198846E-01 0.36074311E+03</pdfrwt>
<totfact> 0.11176894E+03</totfact>
</mgrwt>
</event>
<event>
 4    1  0.8641621E-005  0.4645976E+03  0.7818608E-02  0.1023456E+00
          2   -1    0    0  501    0  0.00000000000E+00  0.00000000000E+00  0.56628010874E+03  0.56628010874E+03  0.25500000000E-02 0.  1.
         -2   -1    0    0    0  501 -0.00000000000E+00 -0.00000000000E+00 -0.95293367557E+02  0.95293367592E+02  0.25500000000E-02 0. -1.
    5000001    1    1    2    0    0 -0.10790147507E+03  0.11984105586E+03  0.27404937823E+03  0.35823549336E+03  0.16500000000E+03 0.  0.
   -5000001    1    1    2    0    0  0.10790147507E+03 -0.11984105586E+03  0.19693736295E+03  0.30333798298E+03  0.16500000000E+03 0.  0.
<mgrwt>
<rscale>  0 0.46459763E+03</rscale>
<asrwt>0</asrwt>
<pdfrwt beam="1">  1        2 0.87120016E-01 0.46459763E+03</pdfrwt>
<pdfrwt beam="2">  1       -2 0.14660518E-01 0.46459763E+03</pdfrwt>
<totfact> 0.19300763E+03</totfact>
</mgrwt>
</event>
<event>
 4    1  0.8641621E-005  0.3757813E+03  0.7818608E-02  0.1052504E+00
          2   -1    0    0  501    0  0.00000000000E+00  0.00000000000E+00  0.10244148923E+04  0.10244148923E+04  0.25500000000E-02 0.  1.
         -2   -1    0    0    0  501 -0.00000000000E+00 -0.00000000000E+00 -0.34461516233E+02  0.34461516327E+02  0.25500000000E-02 0. -1.
    5000001    1    1    2    0    0 -0.15114586205E+02  0.80588755312E+02  0.39125668275E+03  0.43246940932E+03  0.16500000000E+03 0.  0.
   -5000001    1    1    2    0    0  0.15114586205E+02 -0.80588755312E+02  0.59869669330E+03  0.62640699929E+03  0.16500000000E+03 0.  0.
<mgrwt>
<rscale>  0 0.37578127E+03</rscale>
<asrwt>0</asrwt>
<pdfrwt beam="1">  1        2 0.15760229E+00 0.37578127E+03</pdfrwt>
<pdfrwt beam="2">  1       -2 0.53017717E-02 0.37578127E+03</pdfrwt>
<totfact> 0.45603980E+03</totfact>
</mgrwt>
</event>
<event>
 4    1  0.8641621E-005  0.7286946E+03  0.7818608E-02  0.9669381E-01
          2   -1    0    0  501    0  0.00000000000E+00  0.00000000000E+00  0.39204761112E+04  0.39204761112E+04  0.25500000000E-02 0.  1.
         -2   -1    0    0    0  501 -0.00000000000E+00 -0.00000000000E+00 -0.33860419408E+02  0.33860419504E+02  0.25500000000E-02 0. -1.
    5000001    1    1    2    0    0  0.30937371318E+03 -0.59886290343E+02  0.15151387713E+04  0.15563318921E+04  0.16500000000E+03 0.  0.
   -5000001    1    1    2    0    0 -0.30937371318E+03  0.59886290343E+02  0.23714769205E+04  0.23980046385E+04  0.16500000000E+03 0.  0.
<mgrwt>
<rscale>  0 0.72869463E+03</rscale>
<asrwt>0</asrwt>
<pdfrwt beam="1">  1        2 0.60314997E+00 0.72869463E+03</pdfrwt>
<pdfrwt beam="2">  1       -2 0.52092970E-02 0.72869463E+03</pdfrwt>
<totfact> 0.84464631E+01</totfact>
</mgrwt>
</event>
<event>
 4    1  0.8641621E-005  0.5809480E+03  0.7818608E-02  0.9945741E-01
          2   -1    0    0  501    0  0.00000000000E+00  0.00000000000E+00  0.12785210253E+04  0.12785210253E+04  0.25500000000E-02 0.  1.
         -2   -1    0    0    0  501 -0.00000000000E+00 -0.00000000000E+00 -0.65994329344E+02  0.65994329393E+02  0.25500000000E-02 0. -1.
    5000001    1    1    2    0    0 -0.17140965093E+02 -0.23714507346E+03  0.66382219730E+03  0.72416607776E+03  0.16500000000E+03 0.  0.
   -5000001    1    1    2    0    0  0.17140965093E+02  0.23714507346E+03  0.54870449866E+03  0.62034927694E+03  0.16500000000E+03 0.  0.
<mgrwt>
<rscale>  0 0.58094798E+03</rscale>
<asrwt>0</asrwt>
<pdfrwt beam="1">  1        2 0.19669556E+00 0.58094798E+03</pdfrwt>
<pdfrwt beam="2">  1       -2 0.10152973E-01 0.58094798E+03</pdfrwt>
<totfact> 0.11550734E+03</totfact>
</mgrwt>
</event>
<event>
 4    1  0.8641621E-005  0.5123070E+03  0.7818608E-02  0.1010616E+00
         -2   -1    0    0    0  501 -0.00000000000E+00  0.00000000000E+00  0.13086011888E+03  0.13086011890E+03  0.25500000000E-02 0. -1.
          2   -1    0    0  501    0  0.00000000000E+00 -0.00000000000E+00 -0.50141027792E+03  0.50141027792E+03  0.25500000000E-02 0.  1.
    5000001    1    1    2    0    0  0.16895430581E+03  0.19584393441E+02 -0.65234056554E+02  0.24578362039E+03  0.16500000000E+03 0.  0.
   -5000001    1    1    2    0    0 -0.16895430581E+03 -0.19584393441E+02 -0.30531610248E+03  0.38648677643E+03  0.16500000000E+03 0.  0.
<mgrwt>
<rscale>  0 0.51230697E+03</rscale>
<asrwt>0</asrwt>
<pdfrwt beam="1">  1        2 0.77140042E-01 0.51230697E+03</pdfrwt>
<pdfrwt beam="2">  1       -2 0.20132326E-01 0.51230697E+03</pdfrwt>
<totfact> 0.12951467E+03</totfact>
</mgrwt>
</event>
<event>
 4    1  0.8641621E-005  0.3558574E+03  0.7818608E-02  0.1060236E+00
          2   -1    0    0  501    0  0.00000000000E+00  0.00000000000E+00  0.28707644969E+03  0.28707644970E+03  0.25500000000E-02 0.  1.
         -2   -1    0    0    0  501 -0.00000000000E+00 -0.00000000000E+00 -0.11027939132E+03  0.11027939135E+03  0.25500000000E-02 0. -1.
    5000001    1    1    2    0    0 -0.85171762702E+01  0.25563027153E+02  0.20407690130E+02  0.16842649573E+03  0.16500000000E+03 0.  0.
   -5000001    1    1    2    0    0  0.85171762702E+01 -0.25563027153E+02  0.15638936824E+03  0.22892934532E+03  0.16500000000E+03 0.  0.
<mgrwt>
<rscale>  0 0.35585737E+03</rscale>
<asrwt>0</asrwt>
<pdfrwt beam="1">  1        2 0.44165607E-01 0.35585737E+03</pdfrwt>
<pdfrwt beam="2">  1       -2 0.16966060E-01 0.35585737E+03</pdfrwt>
<totfact> 0.32061538E+03</totfact>
</mgrwt>
</event>
<event>
 4    1  0.8641621E-005  0.8283754E+03  0.7818608E-02  0.9519829E-01
          2   -1    0    0  501    0  0.00000000000E+00  0.00000000000E+00  0.44930312791E+03  0.44930312792E+03  0.25500000000E-02 0.  1.
         -2   -1    0    0    0  501 -0.00000000000E+00 -0.00000000000E+00 -0.38181673961E+03  0.38181673962E+03  0.25500000000E-02 0. -1.
    5000001    1    1    2    0    0 -0.26617360178E+03 -0.22039978413E+03 -0.12458330780E+03  0.40270392562E+03  0.16500000000E+03 0.  0.
   -5000001    1    1    2    0    0  0.26617360178E+03  0.22039978413E+03  0.19206969610E+03  0.42841594192E+03  0.16500000000E+03 0.  0.
<mgrwt>
<rscale>  0 0.82837541E+03</rscale>
<asrwt>0</asrwt>
<pdfrwt beam="1">  1        2 0.69123558E-01 0.82837541E+03</pdfrwt>
<pdfrwt beam="2">  1       -2 0.58741037E-01 0.82837541E+03</pdfrwt>
<totfact> 0.18997254E+02</totfact>
</mgrwt>
</event>
<event>
 4    1  0.8641621E-005  0.4357132E+03  0.7818608E-02  0.1032070E+00
          2   -1    0    0  501    0  0.00000000000E+00  0.00000000000E+00  0.24306182720E+04  0.24306182720E+04  0.25500000000E-02 0.  1.
         -2   -1    0    0    0  501 -0.00000000000E+00 -0.00000000000E+00 -0.19526511081E+02  0.19526511247E+02  0.25500000000E-02 0. -1.
    5000001    1    1    2    0    0 -0.57638320597E+02  0.10870349305E+03  0.80404601870E+03  0.82997206314E+03  0.16500000000E+03 0.  0.
   -5000001    1    1    2    0    0  0.57638320597E+02 -0.10870349305E+03  0.16070457422E+04  0.16201727201E+04  0.16500000000E+03 0.  0.
<mgrwt>
<rscale>  0 0.43571318E+03</rscale>
<asrwt>0</asrwt>
<pdfrwt beam="1">  1        2 0.37394129E+00 0.43571318E+03</pdfrwt>
<pdfrwt beam="2">  1       -2 0.30040785E-02 0.43571318E+03</pdfrwt>
<totfact> 0.18232204E+03</totfact>
</mgrwt>
</event>
<event>
 4    1  0.8641621E-005  0.8287023E+03  0.7818608E-02  0.9519376E-01
         -2   -1    0    0    0  501 -0.00000000000E+00  0.00000000000E+00  0.31472702575E+03  0.31472702576E+03  0.25500000000E-02 0. -1.
          2   -1    0    0  501    0  0.00000000000E+00 -0.00000000000E+00 -0.54551038016E+03  0.54551038016E+03  0.25500000000E-02 0.  1.
    5000001    1    1    2    0    0  0.37722638022E+03  0.82243006680E+01 -0.67884662201E+02  0.41737358376E+03  0.16500000000E+03 0.  0.
   -5000001    1    1    2    0    0 -0.37722638022E+03 -0.82243006680E+01 -0.16289869221E+03  0.44286382216E+03  0.16500000000E+03 0.  0.
<mgrwt>
<rscale>  0 0.82870226E+03</rscale>
<asrwt>0</asrwt>
<pdfrwt beam="1">  1        2 0.83924674E-01 0.82870226E+03</pdfrwt>
<pdfrwt beam="2">  1       -2 0.48419543E-01 0.82870226E+03</pdfrwt>
<totfact> 0.22593555E+02</totfact>
</mgrwt>
</event>
<event>
 4    1  0.8641621E-005  0.4298202E+03  0.7818608E-02  0.1033917E+00
         -2   -1    0    0    0  501 -0.00000000000E+00  0.00000000000E+00  0.35031409878E+02  0.35031409971E+02  0.25500000000E-02 0. -1.
          2   -1    0    0  501    0  0.00000000000E+00 -0.00000000000E+00 -0.13184268883E+04  0.13184268883E+04  0.25500000000E-02 0.  1.
    5000001    1    1    2    0    0  0.11758985538E+03  0.60921892032E+00 -0.86731347232E+03  0.89066570861E+03  0.16500000000E+03 0.  0.
   -5000001    1    1    2    0    0 -0.11758985538E+03 -0.60921892032E+00 -0.41608200606E+03  0.46279258962E+03  0.16500000000E+03 0.  0.
<mgrwt>
<rscale>  0 0.42982021E+03</rscale>
<asrwt>0</asrwt>
<pdfrwt beam="1">  1        2 0.20283487E+00 0.42982021E+03</pdfrwt>
<pdfrwt beam="2">  1       -2 0.53894487E-02 0.42982021E+03</pdfrwt>
<totfact> 0.29946030E+03</totfact>
</mgrwt>
</event>
<event>
 4    1  0.8641621E-005  0.5774776E+03  0.7818608E-02  0.9953267E-01
         -2   -1    0    0    0  501 -0.00000000000E+00  0.00000000000E+00  0.12679750827E+03  0.12679750829E+03  0.25500000000E-02 0. -1.
          2   -1    0    0  501    0  0.00000000000E+00 -0.00000000000E+00 -0.65750581987E+03  0.65750581988E+03  0.25500000000E-02 0.  1.
    5000001    1    1    2    0    0 -0.16329600707E+03  0.66649173964E+02 -0.48025767497E+03  0.53756872368E+03  0.16500000000E+03 0.  0.
   -5000001    1    1    2    0    0  0.16329600707E+03 -0.66649173964E+02 -0.50450636633E+02  0.24673460449E+03  0.16500000000E+03 0.  0.
<mgrwt>
<rscale>  0 0.57747762E+03</rscale>
<asrwt>0</asrwt>
<pdfrwt beam="1">  1        2 0.10115474E+00 0.57747762E+03</pdfrwt>
<pdfrwt beam="2">  1       -2 0.19507309E-01 0.57747762E+03</pdfrwt>
<totfact> 0.99212080E+02</totfact>
</mgrwt>
</event>
<event>
 4    1  0.8641621E-005  0.3647774E+03  0.7818608E-02  0.1056708E+00
          2   -1    0    0  501    0  0.00000000000E+00  0.00000000000E+00  0.12916969589E+04  0.12916969589E+04  0.25500000000E-02 0.  1.
         -2   -1    0    0    0  501 -0.00000000000E+00 -0.00000000000E+00 -0.25753441054E+02  0.25753441181E+02  0.25500000000E-02 0. -1.
    5000001    1    1    2    0    0  0.13142550375E+02 -0.76032181731E+02  0.66666335397E+03  0.69109959254E+03  0.16500000000E+03 0.  0.
   -5000001    1    1    2    0    0 -0.13142550375E+02  0.76032181731E+02  0.59928016388E+03  0.62635080754E+03  0.16500000000E+03 0.  0.
<mgrwt>
<rscale>  0 0.36477742E+03</rscale>
<asrwt>0</asrwt>
<pdfrwt beam="1">  1        2 0.19872263E+00 0.36477742E+03</pdfrwt>
<pdfrwt beam="2">  1       -2 0.39620675E-02 0.36477742E+03</pdfrwt>
<totfact> 0.49626226E+03</totfact>
</mgrwt>
</event>
<event>
 4    1  0.8641621E-005  0.6571571E+03  0.7818608E-02  0.9793441E-01
          2   -1    0    0  501    0  0.00000000000E+00  0.00000000000E+00  0.90706778219E+03  0.90706778219E+03  0.25500000000E-02 0.  1.
         -2   -1    0    0    0  501 -0.00000000000E+00 -0.00000000000E+00 -0.11902513245E+03  0.11902513248E+03  0.25500000000E-02 0. -1.
    5000001    1    1    2    0    0  0.27690215008E+03 -0.26944509647E+02  0.48423331618E+03  0.58232955602E+03  0.16500000000E+03 0.  0.
   -5000001    1    1    2    0    0 -0.27690215008E+03  0.26944509647E+02  0.30380933356E+03  0.44376335864E+03  0.16500000000E+03 0.  0.
<mgrwt>
<rscale>  0 0.65715710E+03</rscale>
<asrwt>0</asrwt>
<pdfrwt beam="1">  1        2 0.13954889E+00 0.65715710E+03</pdfrwt>
<pdfrwt beam="2">  1       -2 0.18311559E-01 0.65715710E+03</pdfrwt>
<totfact> 0.72665948E+02</totfact>
</mgrwt>
</event>
<event>
 4    1  0.8641621E-005  0.4371244E+03  0.7818608E-02  0.1031633E+00
         -2   -1    0    0    0  501 -0.00000000000E+00  0.00000000000E+00  0.28005023422E+03  0.28005023423E+03  0.25500000000E-02 0. -1.
          2   -1    0    0  501    0  0.00000000000E+00 -0.00000000000E+00 -0.17057456071E+03  0.17057456073E+03  0.25500000000E-02 0.  1.
    5000001    1    1    2    0    0 -0.12980090246E+03  0.60502324545E+02  0.60892150299E+02  0.22680753851E+03  0.16500000000E+03 0.  0.
   -5000001    1    1    2    0    0  0.12980090246E+03 -0.60502324545E+02  0.48583523212E+02  0.22381725645E+03  0.16500000000E+03 0.  0.
<mgrwt>
<rscale>  0 0.43712445E+03</rscale>
<asrwt>0</asrwt>
<pdfrwt beam="1">  1        2 0.26242240E-01 0.43712445E+03</pdfrwt>
<pdfrwt beam="2">  1       -2 0.43084651E-01 0.43712445E+03</pdfrwt>
<totfact> 0.10583681E+03</totfact>
</mgrwt>
</event>
<event>
 4    1  0.8641621E-005  0.6271889E+03  0.7818608E-02  0.9850550E-01
          2   -1    0    0  501    0  0.00000000000E+00  0.00000000000E+00  0.83397779447E+03  0.83397779448E+03  0.25500000000E-02 0.  1.
         -2   -1    0    0    0  501 -0.00000000000E+00 -0.00000000000E+00 -0.11791857370E+03  0.11791857373E+03  0.25500000000E-02 0. -1.
    5000001    1    1    2    0    0 -0.23933344412E+03  0.86441266292E+02  0.47910402628E+03  0.56702580011E+03  0.16500000000E+03 0.  0.
   -5000001    1    1    2    0    0  0.23933344412E+03 -0.86441266292E+02  0.23695519449E+03  0.38487056810E+03  0.16500000000E+03 0.  0.
<mgrwt>
<rscale>  0 0.62718888E+03</rscale>
<asrwt>0</asrwt>
<pdfrwt beam="1">  1        2 0.12830428E+00 0.62718888E+03</pdfrwt>
<pdfrwt beam="2">  1       -2 0.18141319E-01 0.62718888E+03</pdfrwt>
<totfact> 0.82895077E+02</totfact>
</mgrwt>
</event>
<event>
 4    1  0.8641621E-005  0.9686065E+03  0.7818608E-02  0.9343663E-01
         -2   -1    0    0    0  501 -0.00000000000E+00  0.00000000000E+00  0.12823427025E+03  0.12823427028E+03  0.25500000000E-02 0. -1.
          2   -1    0    0  501    0  0.00000000000E+00 -0.00000000000E+00 -0.18290712687E+04  0.18290712687E+04  0.25500000000E-02 0.  1.
    5000001    1    1    2    0    0 -0.33610534773E+03 -0.23731528336E+03 -0.12445374840E+04  0.13211297807E+04  0.16500000000E+03 0.  0.
   -5000001    1    1    2    0    0  0.33610534773E+03  0.23731528336E+03 -0.45629951446E+03  0.63617575825E+03  0.16500000000E+03 0.  0.
<mgrwt>
<rscale>  0 0.96860646E+03</rscale>
<asrwt>0</asrwt>
<pdfrwt beam="1">  1        2 0.28139556E+00 0.96860646E+03</pdfrwt>
<pdfrwt beam="2">  1       -2 0.19728351E-01 0.96860646E+03</pdfrwt>
<totfact> 0.18241285E+02</totfact>
</mgrwt>
</event>
<event>
 4    1  0.8641621E-005  0.4956436E+03  0.7818608E-02  0.1014922E+00
          2   -1    0    0  501    0  0.00000000000E+00  0.00000000000E+00  0.22668823165E+04  0.22668823165E+04  0.25500000000E-02 0.  1.
         -2   -1    0    0    0  501 -0.00000000000E+00 -0.00000000000E+00 -0.27092559728E+02  0.27092559848E+02  0.25500000000E-02 0. -1.
    5000001    1    1    2    0    0  0.17952367982E+03  0.25522355892E+02  0.95234733318E+03  0.98339747065E+03  0.16500000000E+03 0.  0.
   -5000001    1    1    2    0    0 -0.17952367982E+03 -0.25522355892E+02  0.12874424236E+04  0.13105774057E+04  0.16500000000E+03 0.  0.
<mgrwt>
<rscale>  0 0.49564360E+03</rscale>
<asrwt>0</asrwt>
<pdfrwt beam="1">  1        2 0.34875124E+00 0.49564360E+03</pdfrwt>
<pdfrwt beam="2">  1       -2 0.41680848E-02 0.49564360E+03</pdfrwt>
<totfact> 0.13573412E+03</totfact>
</mgrwt>
</event>
<event>
 4    1  0.8641621E-005  0.3733397E+03  0.7818608E-02  0.1053423E+00
         -2   -1    0    0    0  501 -0.00000000000E+00  0.00000000000E+00  0.14865112048E+02  0.14865112267E+02  0.25500000000E-02 0. -1.
          2   -1    0    0  501    0  0.00000000000E+00 -0.00000000000E+00 -0.23441221136E+04  0.23441221136E+04  0.25500000000E-02 0.  1.
    5000001    1    1    2    0    0  0.21271653426E+02 -0.77154310005E+02 -0.13849085493E+04  0.13969974805E+04  0.16500000000E+03 0.  0.
   -5000001    1    1    2    0    0 -0.21271653426E+02  0.77154310005E+02 -0.94434845229E+03  0.96198974534E+03  0.16500000000E+03 0.  0.
<mgrwt>
<rscale>  0 0.37333973E+03</rscale>
<asrwt>0</asrwt>
<pdfrwt beam="1">  1        2 0.36063388E+00 0.37333973E+03</pdfrwt>
<pdfrwt beam="2">  1       -2 0.22869422E-02 0.37333973E+03</pdfrwt>
<totfact> 0.30736742E+03</totfact>
</mgrwt>
</event>
<event>
 4    1  0.8641621E-005  0.5294699E+03  0.7818608E-02  0.1006361E+00
         -2   -1    0    0    0  501 -0.00000000000E+00  0.00000000000E+00  0.71625309553E+03  0.71625309553E+03  0.25500000000E-02 0.  1.
          2   -1    0    0  501    0  0.00000000000E+00 -0.00000000000E+00 -0.97848917886E+02  0.97848917920E+02  0.25500000000E-02 0. -1.
    5000001    1    1    2    0    0  0.16407761203E+03  0.73700425679E+02  0.46680491787E+03  0.52676849456E+03  0.16500000000E+03 0.  0.
   -5000001    1    1    2    0    0 -0.16407761203E+03 -0.73700425679E+02  0.15159925977E+03  0.28733351889E+03  0.16500000000E+03 0.  0.
<mgrwt>
<rscale>  0 0.52946989E+03</rscale>
<asrwt>0</asrwt>
<pdfrwt beam="1">  1        2 0.15053679E-01 0.52946989E+03</pdfrwt>
<pdfrwt beam="2">  1       -2 0.11019279E+00 0.52946989E+03</pdfrwt>
<totfact> 0.26460817E+02</totfact>
</mgrwt>
</event>
<event>
 4    1  0.8641621E-005  0.4322311E+03  0.7818608E-02  0.1033157E+00
          2   -1    0    0  501    0  0.00000000000E+00  0.00000000000E+00  0.53332749287E+03  0.53332749288E+03  0.25500000000E-02 0.  1.
         -2   -1    0    0    0  501 -0.00000000000E+00 -0.00000000000E+00 -0.87574592047E+02  0.87574592084E+02  0.25500000000E-02 0. -1.
    5000001    1    1    2    0    0  0.11061155728E+03  0.56332825657E+02  0.13120275159E+03  0.24463741716E+03  0.16500000000E+03 0.  0.
   -5000001    1    1    2    0    0 -0.11061155728E+03 -0.56332825657E+02  0.31455014923E+03  0.37626466780E+03  0.16500000000E+03 0.  0.
<mgrwt>
<rscale>  0 0.43223113E+03</rscale>
<asrwt>0</asrwt>
<pdfrwt beam="1">  1        2 0.82050381E-01 0.43223113E+03</pdfrwt>
<pdfrwt beam="2">  1       -2 0.13473015E-01 0.43223113E+03</pdfrwt>
<totfact> 0.23799455E+03</totfact>
</mgrwt>
</event>
<event>
 4    1  0.8641621E-005  0.5067649E+03  0.7818608E-02  0.1012028E+00
          2   -1    0    0  501    0  0.00000000000E+00  0.00000000000E+00  0.98035420747E+03  0.98035420747E+03  0.25500000000E-02 0. -1.
         -2   -1    0    0    0  501 -0.00000000000E+00 -0.00000000000E+00 -0.65489266304E+02  0.65489266354E+02  0.25500000000E-02 0.  1.
    5000001    1    1    2    0    0 -0.10371905780E+03 -0.86899707638E+02  0.73941003359E+03  0.76958521290E+03  0.16500000000E+03 0.  0.
   -5000001    1    1    2    0    0  0.10371905780E+03  0.86899707638E+02  0.17545490757E+03  0.27625826092E+03  0.16500000000E+03 0.  0.
<mgrwt>
<rscale>  0 0.50676495E+03</rscale>
<asrwt>0</asrwt>
<pdfrwt beam="1">  1        2 0.15082372E+00 0.50676495E+03</pdfrwt>
<pdfrwt beam="2">  1       -2 0.10075272E-01 0.50676495E+03</pdfrwt>
<totfact> 0.17693962E+03</totfact>
</mgrwt>
</event>
<event>
 4    1  0.8641621E-005  0.5683481E+03  0.7818608E-02  0.9973341E-01
         -2   -1    0    0    0  501 -0.00000000000E+00  0.00000000000E+00  0.11882977713E+03  0.11882977716E+03  0.25500000000E-02 0. -1.
          2   -1    0    0  501    0  0.00000000000E+00 -0.00000000000E+00 -0.67958474846E+03  0.67958474846E+03  0.25500000000E-02 0.  1.
    5000001    1    1    2    0    0 -0.12404181856E+03 -0.19309271955E+03 -0.23921106691E+03  0.37029462004E+03  0.16500000000E+03 0.  0.
   -5000001    1    1    2    0    0  0.12404181856E+03  0.19309271955E+03 -0.32154390441E+03  0.42811990559E+03  0.16500000000E+03 0.  0.
<mgrwt>
<rscale>  0 0.56834815E+03</rscale>
<asrwt>0</asrwt>
<pdfrwt beam="1">  1        2 0.10455150E+00 0.56834815E+03</pdfrwt>
<pdfrwt beam="2">  1       -2 0.18281505E-01 0.56834815E+03</pdfrwt>
<totfact> 0.10657289E+03</totfact>
</mgrwt>
</event>
<event>
 4    1  0.8641621E-005  0.6235711E+03  0.7818608E-02  0.9857675E-01
          2   -1    0    0  501    0  0.00000000000E+00  0.00000000000E+00  0.11714403742E+04  0.11714403742E+04  0.25500000000E-02 0.  1.
         -2   -1    0    0    0  501 -0.00000000000E+00 -0.00000000000E+00 -0.82983502161E+02  0.82983502201E+02  0.25500000000E-02 0. -1.
    5000001    1    1    2    0    0 -0.16493053313E+03  0.91663251582E+02  0.17122095133E+03  0.30355534359E+03  0.16500000000E+03 0.  0.
   -5000001    1    1    2    0    0  0.16493053313E+03 -0.91663251582E+02  0.91723592075E+03  0.95086853285E+03  0.16500000000E+03 0.  0.
<mgrwt>
<rscale>  0 0.62357109E+03</rscale>
<asrwt>0</asrwt>
<pdfrwt beam="1">  1        2 0.18022159E+00 0.62357109E+03</pdfrwt>
<pdfrwt beam="2">  1       -2 0.12766693E-01 0.62357109E+03</pdfrwt>
<totfact> 0.91470958E+02</totfact>
</mgrwt>
</event>
<event>
 4    1  0.8641621E-005  0.5381632E+03  0.7818608E-02  0.1004271E+00
         -2   -1    0    0    0  501 -0.00000000000E+00  0.00000000000E+00  0.42399184317E+02  0.42399184393E+02  0.25500000000E-02 0. -1.
          2   -1    0    0  501    0  0.00000000000E+00 -0.00000000000E+00 -0.17076958216E+04  0.17076958216E+04  0.25500000000E-02 0.  1.
    5000001    1    1    2    0    0 -0.12367630427E+03  0.12368778503E+03 -0.12253899998E+04  0.12487594436E+04  0.16500000000E+03 0.  0.
   -5000001    1    1    2    0    0  0.12367630427E+03 -0.12368778503E+03 -0.43990663745E+03  0.50133556235E+03  0.16500000000E+03 0.  0.
<mgrwt>
<rscale>  0 0.53816321E+03</rscale>
<asrwt>0</asrwt>
<pdfrwt beam="1">  1        2 0.26272238E+00 0.53816321E+03</pdfrwt>
<pdfrwt beam="2">  1       -2 0.65229527E-02 0.53816321E+03</pdfrwt>
<totfact> 0.13559595E+03</totfact>
</mgrwt>
</event>
<event>
 4    1  0.8641621E-005  0.4832687E+03  0.7818608E-02  0.1018241E+00
         -2   -1    0    0    0  501 -0.00000000000E+00  0.00000000000E+00  0.67926886887E+02  0.67926886935E+02  0.25500000000E-02 0. -1.
          2   -1    0    0  501    0  0.00000000000E+00 -0.00000000000E+00 -0.85955880366E+03  0.85955880367E+03  0.25500000000E-02 0.  1.
    5000001    1    1    2    0    0 -0.88301778650E+02  0.26387203553E+02 -0.68477184262E+03  0.71037382065E+03  0.16500000000E+03 0.  0.
   -5000001    1    1    2    0    0  0.88301778650E+02 -0.26387203553E+02 -0.10686007416E+03  0.21711186995E+03  0.16500000000E+03 0.  0.
<mgrwt>
<rscale>  0 0.48326868E+03</rscale>
<asrwt>0</asrwt>
<pdfrwt beam="1">  1        2 0.13223981E+00 0.48326868E+03</pdfrwt>
<pdfrwt beam="2">  1       -2 0.10450291E-01 0.48326868E+03</pdfrwt>
<totfact> 0.20018025E+03</totfact>
</mgrwt>
</event>
<event>
 4    1  0.8641621E-005  0.3801821E+03  0.7818608E-02  0.1050866E+00
          2   -1    0    0  501    0  0.00000000000E+00  0.00000000000E+00  0.23863590826E+03  0.23863590827E+03  0.25500000000E-02 0.  1.
         -2   -1    0    0    0  501 -0.00000000000E+00 -0.00000000000E+00 -0.15142150091E+03  0.15142150093E+03  0.25500000000E-02 0. -1.
    5000001    1    1    2    0    0 -0.61453522298E+02 -0.57252069373E+02  0.87798905445E+02  0.20490969388E+03  0.16500000000E+03 0.  0.
   -5000001    1    1    2    0    0  0.61453522298E+02  0.57252069373E+02 -0.58449809566E+00  0.18514771532E+03  0.16500000000E+03 0.  0.
<mgrwt>
<rscale>  0 0.38018210E+03</rscale>
<asrwt>0</asrwt>
<pdfrwt beam="1">  1        2 0.36713217E-01 0.38018210E+03</pdfrwt>
<pdfrwt beam="2">  1       -2 0.23295616E-01 0.38018210E+03</pdfrwt>
<totfact> 0.22742075E+03</totfact>
</mgrwt>
</event>
<event>
 4    1  0.8641621E-005  0.5025174E+03  0.7818608E-02  0.1013124E+00
          2   -1    0    0  501    0  0.00000000000E+00  0.00000000000E+00  0.38304777800E+03  0.38304777800E+03  0.25500000000E-02 0.  1.
         -2   -1    0    0    0  501 -0.00000000000E+00 -0.00000000000E+00 -0.16481217439E+03  0.16481217441E+03  0.25500000000E-02 0. -1.
    5000001    1    1    2    0    0 -0.11120497051E+03 -0.47488369540E+02  0.26817289532E+03  0.33728829285E+03  0.16500000000E+03 0.  0.
   -5000001    1    1    2    0    0  0.11120497051E+03  0.47488369540E+02 -0.49937291721E+02  0.21057165957E+03  0.16500000000E+03 0.  0.
<mgrwt>
<rscale>  0 0.50251741E+03</rscale>
<asrwt>0</asrwt>
<pdfrwt beam="1">  1        2 0.58930427E-01 0.50251741E+03</pdfrwt>
<pdfrwt beam="2">  1       -2 0.25355719E-01 0.50251741E+03</pdfrwt>
<totfact> 0.11669515E+03</totfact>
</mgrwt>
</event>
<event>
 4    1  0.8641621E-005  0.4504078E+03  0.7818608E-02  0.1027601E+00
          2   -1    0    0  501    0  0.00000000000E+00  0.00000000000E+00  0.21850949668E+03  0.21850949669E+03  0.25500000000E-02 0.  1.
         -2   -1    0    0    0  501 -0.00000000000E+00 -0.00000000000E+00 -0.23210340627E+03  0.23210340629E+03  0.25500000000E-02 0. -1.
    5000001    1    1    2    0    0 -0.11262922631E+03  0.96800628640E+02  0.31116134262E+02  0.22416270460E+03  0.16500000000E+03 0.  0.
   -5000001    1    1    2    0    0  0.11262922631E+03 -0.96800628640E+02 -0.44710043855E+02  0.22645019838E+03  0.16500000000E+03 0.  0.
<mgrwt>
<rscale>  0 0.45040781E+03</rscale>
<asrwt>0</asrwt>
<pdfrwt beam="1">  1        2 0.33616845E-01 0.45040781E+03</pdfrwt>
<pdfrwt beam="2">  1       -2 0.35708217E-01 0.45040781E+03</pdfrwt>
<totfact> 0.11520939E+03</totfact>
</mgrwt>
</event>
<event>
 4    1  0.8641621E-005  0.3589036E+03  0.7818608E-02  0.1059019E+00
         -2   -1    0    0    0  501 -0.00000000000E+00  0.00000000000E+00  0.86489015147E+03  0.86489015147E+03  0.25500000000E-02 0. -1.
          2   -1    0    0  501    0  0.00000000000E+00 -0.00000000000E+00 -0.37233568579E+02  0.37233568666E+02  0.25500000000E-02 0.  1.
    5000001    1    1    2    0    0 -0.27157517159E+02 -0.45916214270E+02  0.29776527594E+03  0.34457943790E+03  0.16500000000E+03 0.  0.
   -5000001    1    1    2    0    0  0.27157517159E+02  0.45916214270E+02  0.52989130695E+03  0.55754428223E+03  0.16500000000E+03 0.  0.
<mgrwt>
<rscale>  0 0.35890359E+03</rscale>
<asrwt>0</asrwt>
<pdfrwt beam="1">  1        2 0.57282418E-02 0.35890359E+03</pdfrwt>
<pdfrwt beam="2">  1       -2 0.13306001E+00 0.35890359E+03</pdfrwt>
<totfact> 0.56770788E+02</totfact>
</mgrwt>
</event>
<event>
 4    1  0.8641621E-005  0.6308201E+03  0.7818608E-02  0.9843450E-01
          2   -1    0    0  501    0  0.00000000000E+00  0.00000000000E+00  0.19967023831E+03  0.19967023832E+03  0.25500000000E-02 0.  1.
         -2   -1    0    0    0  501 -0.00000000000E+00 -0.00000000000E+00 -0.49823899359E+03  0.49823899359E+03  0.25500000000E-02 0. -1.
    5000001    1    1    2    0    0  0.26744452889E+03 -0.24012700499E+02 -0.16307224209E+03  0.35485312731E+03  0.16500000000E+03 0.  0.
   -5000001    1    1    2    0    0 -0.26744452889E+03  0.24012700499E+02 -0.13549651319E+03  0.34305610461E+03  0.16500000000E+03 0.  0.
<mgrwt>
<rscale>  0 0.63082010E+03</rscale>
<asrwt>0</asrwt>
<pdfrwt beam="1">  1        2 0.30718498E-01 0.63082010E+03</pdfrwt>
<pdfrwt beam="2">  1       -2 0.76652153E-01 0.63082010E+03</pdfrwt>
<totfact> 0.26640348E+02</totfact>
</mgrwt>
</event>
<event>
 4    1  0.8641621E-005  0.8885827E+03  0.7818608E-02  0.9439967E-01
         -2   -1    0    0    0  501 -0.00000000000E+00  0.00000000000E+00  0.19472508026E+03  0.19472508028E+03  0.25500000000E-02 0. -1.
          2   -1    0    0  501    0  0.00000000000E+00 -0.00000000000E+00 -0.10137102303E+04  0.10137102303E+04  0.25500000000E-02 0.  1.
    5000001    1    1    2    0    0 -0.53157158150E+02  0.27793890135E+03 -0.12919161389E+01  0.32757042815E+03  0.16500000000E+03 0.  0.
   -5000001    1    1    2    0    0  0.53157158150E+02 -0.27793890135E+03 -0.81769323393E+03  0.88086488247E+03  0.16500000000E+03 0.  0.
<mgrwt>
<rscale>  0 0.88858271E+03</rscale>
<asrwt>0</asrwt>
<pdfrwt beam="1">  1        2 0.15595542E+00 0.88858271E+03</pdfrwt>
<pdfrwt beam="2">  1       -2 0.29957705E-01 0.88858271E+03</pdfrwt>
<totfact> 0.25417067E+02</totfact>
</mgrwt>
</event>
<event>
 4    1  0.8641621E-005  0.1281228E+04  0.7818608E-02  0.9044586E-01
          2   -1    0    0  501    0  0.00000000000E+00  0.00000000000E+00  0.67239874340E+03  0.67239874340E+03  0.25500000000E-02 0.  1.
         -2   -1    0    0    0  501 -0.00000000000E+00 -0.00000000000E+00 -0.61033134585E+03  0.61033134585E+03  0.25500000000E-02 0. -1.
    5000001    1    1    2    0    0  0.33960831162E+03  0.15699926769E+03 -0.46267587555E+03  0.61747594381E+03  0.16500000000E+03 0.  0.
   -5000001    1    1    2    0    0 -0.33960831162E+03 -0.15699926769E+03  0.52474327309E+03  0.66525414544E+03  0.16500000000E+03 0.  0.
<mgrwt>
<rscale>  0 0.12812276E+04</rscale>
<asrwt>0</asrwt>
<pdfrwt beam="1">  1        2 0.10344596E+00 0.12812276E+04</pdfrwt>
<pdfrwt beam="2">  1       -2 0.93897130E-01 0.12812276E+04</pdfrwt>
<totfact> 0.40531763E+01</totfact>
</mgrwt>
</event>
<event>
 4    1  0.8641621E-005  0.4610239E+03  0.7818608E-02  0.1024485E+00
         -2   -1    0    0    0  501 -0.00000000000E+00  0.00000000000E+00  0.42160887404E+02  0.42160887482E+02  0.25500000000E-02 0. -1.
          2   -1    0    0  501    0  0.00000000000E+00 -0.00000000000E+00 -0.12603093038E+04  0.12603093038E+04  0.25500000000E-02 0.  1.
    5000001    1    1    2    0    0  0.12484111464E+03  0.43306249108E+02 -0.34937339198E+03  0.40834728129E+03  0.16500000000E+03 0.  0.
   -5000001    1    1    2    0    0 -0.12484111464E+03 -0.43306249108E+02 -0.86877502437E+03  0.89412290995E+03  0.16500000000E+03 0.  0.
<mgrwt>
<rscale>  0 0.46102390E+03</rscale>
<asrwt>0</asrwt>
<pdfrwt beam="1">  1        2 0.19389371E+00 0.46102390E+03</pdfrwt>
<pdfrwt beam="2">  1       -2 0.64862913E-02 0.46102390E+03</pdfrwt>
<totfact> 0.24216332E+03</totfact>
</mgrwt>
</event>
<event>
 4    1  0.8641621E-005  0.4892098E+03  0.7818608E-02  0.1016634E+00
         -2   -1    0    0    0  501 -0.00000000000E+00  0.00000000000E+00  0.25058725431E+02  0.25058725561E+02  0.25500000000E-02 0. -1.
          2   -1    0    0  501    0  0.00000000000E+00 -0.00000000000E+00 -0.23876537587E+04  0.23876537587E+04  0.25500000000E-02 0.  1.
    5000001    1    1    2    0    0 -0.16694857036E+03  0.40355726282E+01 -0.15200715000E+04  0.15380931299E+04  0.16500000000E+03 0.  0.
   -5000001    1    1    2    0    0  0.16694857036E+03 -0.40355726282E+01 -0.84252353326E+03  0.87461935440E+03  0.16500000000E+03 0.  0.
<mgrwt>
<rscale>  0 0.48920981E+03</rscale>
<asrwt>0</asrwt>
<pdfrwt beam="1">  1        2 0.36733117E+00 0.48920981E+03</pdfrwt>
<pdfrwt beam="2">  1       -2 0.38551904E-02 0.48920981E+03</pdfrwt>
<totfact> 0.13133764E+03</totfact>
</mgrwt>
</event>
<event>
 4    1  0.8641621E-005  0.4857064E+03  0.7818608E-02  0.1017579E+00
         -2   -1    0    0    0  501 -0.00000000000E+00  0.00000000000E+00  0.71595073214E+02  0.71595073259E+02  0.25500000000E-02 0. -1.
          2   -1    0    0  501    0  0.00000000000E+00 -0.00000000000E+00 -0.82376735150E+03  0.82376735150E+03  0.25500000000E-02 0.  1.
    5000001    1    1    2    0    0  0.10448325605E+03 -0.13301301667E+03 -0.27273156441E+03  0.36085553844E+03  0.16500000000E+03 0.  0.
   -5000001    1    1    2    0    0 -0.10448325605E+03  0.13301301667E+03 -0.47944071387E+03  0.53450688632E+03  0.16500000000E+03 0.  0.
<mgrwt>
<rscale>  0 0.48570643E+03</rscale>
<asrwt>0</asrwt>
<pdfrwt beam="1">  1        2 0.12673343E+00 0.48570643E+03</pdfrwt>
<pdfrwt beam="2">  1       -2 0.11014627E-01 0.48570643E+03</pdfrwt>
<totfact> 0.19451147E+03</totfact>
</mgrwt>
</event>
<event>
 4    1  0.8641621E-005  0.3969974E+03  0.7818608E-02  0.1044824E+00
          2   -1    0    0  501    0  0.00000000000E+00  0.00000000000E+00  0.84410914344E+03  0.84410914344E+03  0.25500000000E-02 0.  1.
         -2   -1    0    0    0  501 -0.00000000000E+00 -0.00000000000E+00 -0.46678471418E+02  0.46678471487E+02  0.25500000000E-02 0. -1.
    5000001    1    1    2    0    0  0.10706805759E+03 -0.64505220417E+01  0.45686196763E+03  0.49744651537E+03  0.16500000000E+03 0.  0.
   -5000001    1    1    2    0    0 -0.10706805759E+03  0.64505220417E+01  0.34056870439E+03  0.39334109956E+03  0.16500000000E+03 0.  0.
<mgrwt>
<rscale>  0 0.39699735E+03</rscale>
<asrwt>0</asrwt>
<pdfrwt beam="1">  1        2 0.12986294E+00 0.39699735E+03</pdfrwt>
<pdfrwt beam="2">  1       -2 0.71813035E-02 0.39699735E+03</pdfrwt>
<totfact> 0.37233407E+03</totfact>
</mgrwt>
</event>
<event>
 4    1  0.8641621E-005  0.6097443E+03  0.7818608E-02  0.9885393E-01
         -2   -1    0    0    0  501 -0.00000000000E+00  0.00000000000E+00  0.17766206849E+03  0.17766206851E+03  0.25500000000E-02 0. -1.
          2   -1    0    0  501    0  0.00000000000E+00 -0.00000000000E+00 -0.52316752645E+03  0.52316752646E+03  0.25500000000E-02 0.  1.
    5000001    1    1    2    0    0 -0.22299906740E+03  0.10402387292E+03 -0.25541624610E+03  0.39116749478E+03  0.16500000000E+03 0.  0.
   -5000001    1    1    2    0    0  0.22299906740E+03 -0.10402387292E+03 -0.90089211860E+02  0.30966210019E+03  0.16500000000E+03 0.  0.
<mgrwt>
<rscale>  0 0.60974429E+03</rscale>
<asrwt>0</asrwt>
<pdfrwt beam="1">  1        2 0.80487311E-01 0.60974429E+03</pdfrwt>
<pdfrwt beam="2">  1       -2 0.27332626E-01 0.60974429E+03</pdfrwt>
<totfact> 0.71517592E+02</totfact>
</mgrwt>
</event>
<event>
 4    1  0.8641621E-005  0.3515608E+03  0.7818608E-02  0.1061976E+00
          2   -1    0    0  501    0  0.00000000000E+00  0.00000000000E+00  0.45521694634E+03  0.45521694635E+03  0.25500000000E-02 0.  1.
         -2   -1    0    0    0  501 -0.00000000000E+00 -0.00000000000E+00 -0.67876982827E+02  0.67876982875E+02  0.25500000000E-02 0. -1.
    5000001    1    1    2    0    0 -0.59296444005E+02 -0.12934363241E+01  0.17508519105E+03  0.24778532114E+03  0.16500000000E+03 0.  0.
   -5000001    1    1    2    0    0  0.59296444005E+02  0.12934363241E+01  0.21225477247E+03  0.27530860808E+03  0.16500000000E+03 0.  0.
<mgrwt>
<rscale>  0 0.35156082E+03</rscale>
<asrwt>0</asrwt>
<pdfrwt beam="1">  1        2 0.70033378E-01 0.35156082E+03</pdfrwt>
<pdfrwt beam="2">  1       -2 0.10442613E-01 0.35156082E+03</pdfrwt>
<totfact> 0.42982063E+03</totfact>
</mgrwt>
</event>
<event>
 4    1  0.8641621E-005  0.7804349E+03  0.7818608E-02  0.9588777E-01
          2   -1    0    0  501    0  0.00000000000E+00  0.00000000000E+00  0.13446271848E+04  0.13446271848E+04  0.25500000000E-02 0.  1.
         -2   -1    0    0    0  501 -0.00000000000E+00 -0.00000000000E+00 -0.11324303930E+03  0.11324303933E+03  0.25500000000E-02 0. -1.
    5000001    1    1    2    0    0 -0.12676878969E+03 -0.24938590237E+03  0.10197252116E+04  0.10702000568E+04  0.16500000000E+03 0.  0.
   -5000001    1    1    2    0    0  0.12676878969E+03  0.24938590237E+03  0.21165893386E+03  0.38767016731E+03  0.16500000000E+03 0.  0.
<mgrwt>
<rscale>  0 0.78043493E+03</rscale>
<asrwt>0</asrwt>
<pdfrwt beam="1">  1        2 0.20686573E+00 0.78043493E+03</pdfrwt>
<pdfrwt beam="2">  1       -2 0.17422006E-01 0.78043493E+03</pdfrwt>
<totfact> 0.42605882E+02</totfact>
</mgrwt>
</event>
<event>
 4    1  0.8641621E-005  0.4301930E+03  0.7818608E-02  0.1033799E+00
          2   -1    0    0  501    0  0.00000000000E+00  0.00000000000E+00  0.74101447941E+03  0.74101447941E+03  0.25500000000E-02 0.  1.
         -2   -1    0    0    0  501 -0.00000000000E+00 -0.00000000000E+00 -0.62436703403E+02  0.62436703456E+02  0.25500000000E-02 0. -1.
    5000001    1    1    2    0    0  0.11501826205E+03  0.75149438818E+02  0.31530844778E+03  0.38147222180E+03  0.16500000000E+03 0.  0.
   -5000001    1    1    2    0    0 -0.11501826205E+03 -0.75149438818E+02  0.36326932822E+03  0.42197896107E+03  0.16500000000E+03 0.  0.
<mgrwt>
<rscale>  0 0.43019299E+03</rscale>
<asrwt>0</asrwt>
<pdfrwt beam="1">  1        2 0.11400223E+00 0.43019299E+03</pdfrwt>
<pdfrwt beam="2">  1       -2 0.96056463E-02 0.43019299E+03</pdfrwt>
<totfact> 0.27801564E+03</totfact>
</mgrwt>
</event>
<event>
 4    1  0.8641621E-005  0.4930766E+03  0.7818608E-02  0.1015602E+00
          2   -1    0    0  501    0  0.00000000000E+00  0.00000000000E+00  0.12023482787E+04  0.12023482787E+04  0.25500000000E-02 0. -1.
         -2   -1    0    0    0  501 -0.00000000000E+00 -0.00000000000E+00 -0.50552020365E+02  0.50552020429E+02  0.25500000000E-02 0.  1.
    5000001    1    1    2    0    0 -0.31548750283E+02  0.15567088379E+03  0.34402176087E+03  0.41328527636E+03  0.16500000000E+03 0.  0.
   -5000001    1    1    2    0    0  0.31548750283E+02 -0.15567088379E+03  0.80777449745E+03  0.83961502275E+03  0.16500000000E+03 0.  0.
<mgrwt>
<rscale>  0 0.49307661E+03</rscale>
<asrwt>0</asrwt>
<pdfrwt beam="1">  1        2 0.18497664E+00 0.49307661E+03</pdfrwt>
<pdfrwt beam="2">  1       -2 0.77772349E-02 0.49307661E+03</pdfrwt>
<totfact> 0.19645356E+03</totfact>
</mgrwt>
</event>
<event>
 4    1  0.8641621E-005  0.5088951E+03  0.7818608E-02  0.1011483E+00
          2   -1    0    0  501    0  0.00000000000E+00  0.00000000000E+00  0.69653044794E+03  0.69653044795E+03  0.25500000000E-02 0.  1.
         -2   -1    0    0    0  501 -0.00000000000E+00 -0.00000000000E+00 -0.92951511925E+02  0.92951511960E+02  0.25500000000E-02 0. -1.
    5000001    1    1    2    0    0  0.50029364340E+02 -0.15160659708E+03  0.13162617110E+03  0.26464683352E+03  0.16500000000E+03 0.  0.
   -5000001    1    1    2    0    0 -0.50029364340E+02  0.15160659708E+03  0.47195276491E+03  0.52483512638E+03  0.16500000000E+03 0.  0.
<mgrwt>
<rscale>  0 0.50889511E+03</rscale>
<asrwt>0</asrwt>
<pdfrwt beam="1">  1        2 0.10715853E+00 0.50889511E+03</pdfrwt>
<pdfrwt beam="2">  1       -2 0.14300233E-01 0.50889511E+03</pdfrwt>
<totfact> 0.15680778E+03</totfact>
</mgrwt>
</event>
<event>
 4    1  0.8641621E-005  0.6562013E+03  0.7818608E-02  0.9795212E-01
         -2   -1    0    0    0  501 -0.00000000000E+00  0.00000000000E+00  0.15357925496E+03  0.15357925498E+03  0.25500000000E-02 0. -1.
          2   -1    0    0  501    0  0.00000000000E+00 -0.00000000000E+00 -0.70094131081E+03  0.70094131082E+03  0.25500000000E-02 0.  1.
    5000001    1    1    2    0    0  0.28325394127E+03  0.13219371484E+02 -0.26823386295E+03  0.42377110834E+03  0.16500000000E+03 0.  0.
   -5000001    1    1    2    0    0 -0.28325394127E+03 -0.13219371484E+02 -0.27912819291E+03  0.43074945746E+03  0.16500000000E+03 0.  0.
<mgrwt>
<rscale>  0 0.65620132E+03</rscale>
<asrwt>0</asrwt>
<pdfrwt beam="1">  1        2 0.10783712E+00 0.65620132E+03</pdfrwt>
<pdfrwt beam="2">  1       -2 0.23627578E-01 0.65620132E+03</pdfrwt>
<totfact> 0.65288974E+02</totfact>
</mgrwt>
</event>
<event>
 4    1  0.8641621E-005  0.4741545E+03  0.7818608E-02  0.1020754E+00
         -2   -1    0    0    0  501 -0.00000000000E+00  0.00000000000E+00  0.27043242331E+02  0.27043242451E+02  0.25500000000E-02 0. -1.
          2   -1    0    0  501    0  0.00000000000E+00 -0.00000000000E+00 -0.20783610025E+04  0.20783610025E+04  0.25500000000E-02 0.  1.
    5000001    1    1    2    0    0 -0.60695881140E+02  0.13272372557E+03 -0.14148166673E+04  0.14318626958E+04  0.16500000000E+03 0.  0.
   -5000001    1    1    2    0    0  0.60695881140E+02 -0.13272372557E+03 -0.63650109278E+03  0.67354154915E+03  0.16500000000E+03 0.  0.
<mgrwt>
<rscale>  0 0.47415449E+03</rscale>
<asrwt>0</asrwt>
<pdfrwt beam="1">  1        2 0.31974772E+00 0.47415449E+03</pdfrwt>
<pdfrwt beam="2">  1       -2 0.41605005E-02 0.47415449E+03</pdfrwt>
<totfact> 0.17249491E+03</totfact>
</mgrwt>
</event>
<event>
 4    1  0.8641621E-005  0.3821131E+03  0.7818608E-02  0.1050155E+00
         -2   -1    0    0    0  501 -0.00000000000E+00  0.00000000000E+00  0.41637024673E+02  0.41637024751E+02  0.25500000000E-02 0. -1.
          2   -1    0    0  501    0  0.00000000000E+00 -0.00000000000E+00 -0.87668632075E+03  0.87668632075E+03  0.25500000000E-02 0.  1.
    5000001    1    1    2    0    0  0.62134236804E+02 -0.37861356450E+02 -0.26584261698E+03  0.32123424895E+03  0.16500000000E+03 0.  0.
   -5000001    1    1    2    0    0 -0.62134236804E+02  0.37861356450E+02 -0.56920667910E+03  0.59708909655E+03  0.16500000000E+03 0.  0.
<mgrwt>
<rscale>  0 0.38211312E+03</rscale>
<asrwt>0</asrwt>
<pdfrwt beam="1">  1        2 0.13487480E+00 0.38211312E+03</pdfrwt>
<pdfrwt beam="2">  1       -2 0.64056968E-02 0.38211312E+03</pdfrwt>
<totfact> 0.42297043E+03</totfact>
</mgrwt>
</event>
<event>
 4    1  0.8641621E-005  0.4310813E+03  0.7818608E-02  0.1033519E+00
          2   -1    0    0  501    0  0.00000000000E+00  0.00000000000E+00  0.43705514125E+03  0.43705514126E+03  0.25500000000E-02 0.  1.
         -2   -1    0    0    0  501 -0.00000000000E+00 -0.00000000000E+00 -0.10629730052E+03  0.10629730055E+03  0.25500000000E-02 0. -1.
    5000001    1    1    2    0    0 -0.87681225583E+02 -0.10269473749E+03  0.12554869191E+03  0.24743015270E+03  0.16500000000E+03 0.  0.
   -5000001    1    1    2    0    0  0.87681225583E+02  0.10269473749E+03  0.20520914882E+03  0.29592228911E+03  0.16500000000E+03 0.  0.
<mgrwt>
<rscale>  0 0.43108135E+03</rscale>
<asrwt>0</asrwt>
<pdfrwt beam="1">  1        2 0.67239253E-01 0.43108135E+03</pdfrwt>
<pdfrwt beam="2">  1       -2 0.16353431E-01 0.43108135E+03</pdfrwt>
<totfact> 0.21579608E+03</totfact>
</mgrwt>
</event>
<event>
 4    1  0.8641621E-005  0.7086527E+03  0.7818608E-02  0.9702548E-01
          2   -1    0    0  501    0  0.00000000000E+00  0.00000000000E+00  0.25228041271E+03  0.25228041273E+03  0.25500000000E-02 0.  1.
         -2   -1    0    0    0  501 -0.00000000000E+00 -0.00000000000E+00 -0.49764920398E+03  0.49764920399E+03  0.25500000000E-02 0. -1.
    5000001    1    1    2    0    0  0.13360459771E+03 -0.20800070938E+03 -0.32681272565E+03  0.44175337156E+03  0.16500000000E+03 0.  0.
   -5000001    1    1    2    0    0 -0.13360459771E+03  0.20800070938E+03  0.81443934381E+02  0.30817624516E+03  0.16500000000E+03 0.  0.
<mgrwt>
<rscale>  0 0.70865266E+03</rscale>
<asrwt>0</asrwt>
<pdfrwt beam="1">  1        2 0.38812371E-01 0.70865266E+03</pdfrwt>
<pdfrwt beam="2">  1       -2 0.76561416E-01 0.70865266E+03</pdfrwt>
<totfact> 0.20517602E+02</totfact>
</mgrwt>
</event>
<event>
 4    1  0.8641621E-005  0.5135861E+03  0.7818608E-02  0.1010292E+00
          2   -1    0    0  501    0  0.00000000000E+00  0.00000000000E+00  0.78026809895E+03  0.78026809895E+03  0.25500000000E-02 0.  1.
         -2   -1    0    0    0  501 -0.00000000000E+00 -0.00000000000E+00 -0.84512834929E+02  0.84512834967E+02  0.25500000000E-02 0. -1.
    5000001    1    1    2    0    0  0.19645487554E+03 -0.15673580408E+01  0.32937914173E+03  0.41750759723E+03  0.16500000000E+03 0.  0.
   -5000001    1    1    2    0    0 -0.19645487554E+03  0.15673580408E+01  0.36637612229E+03  0.44727333669E+03  0.16500000000E+03 0.  0.
<mgrwt>
<rscale>  0 0.51358609E+03</rscale>
<asrwt>0</asrwt>
<pdfrwt beam="1">  1        2 0.12004124E+00 0.51358609E+03</pdfrwt>
<pdfrwt beam="2">  1       -2 0.13001975E-01 0.51358609E+03</pdfrwt>
<totfact> 0.15905250E+03</totfact>
</mgrwt>
</event>
<event>
 4    1  0.8641621E-005  0.5807445E+03  0.7818608E-02  0.9946180E-01
          2   -1    0    0  501    0  0.00000000000E+00  0.00000000000E+00  0.13566248733E+04  0.13566248733E+04  0.25500000000E-02 0.  1.
         -2   -1    0    0    0  501 -0.00000000000E+00 -0.00000000000E+00 -0.62151340638E+02  0.62151340691E+02  0.25500000000E-02 0. -1.
    5000001    1    1    2    0    0  0.12345053808E+03  0.13325515680E+03  0.10264504161E+04  0.10553778607E+04  0.16500000000E+03 0.  0.
   -5000001    1    1    2    0    0 -0.12345053808E+03 -0.13325515680E+03  0.26802311661E+03  0.36339835333E+03  0.16500000000E+03 0.  0.
<mgrwt>
<rscale>  0 0.58074454E+03</rscale>
<asrwt>0</asrwt>
<pdfrwt beam="1">  1        2 0.20871153E+00 0.58074454E+03</pdfrwt>
<pdfrwt beam="2">  1       -2 0.95617440E-02 0.58074454E+03</pdfrwt>
<totfact> 0.11490102E+03</totfact>
</mgrwt>
</event>
<event>
 4    1  0.8641621E-005  0.5580866E+03  0.7818608E-02  0.9996393E-01
          2   -1    0    0  501    0  0.00000000000E+00  0.00000000000E+00  0.16093992103E+04  0.16093992103E+04  0.25500000000E-02 0.  1.
         -2   -1    0    0    0  501 -0.00000000000E+00 -0.00000000000E+00 -0.48381509741E+02  0.48381509809E+02  0.25500000000E-02 0. -1.
    5000001    1    1    2    0    0  0.21324829014E+03 -0.59056359682E+02  0.65883993588E+03  0.71432313975E+03  0.16500000000E+03 0.  0.
   -5000001    1    1    2    0    0 -0.21324829014E+03  0.59056359682E+02  0.90217776470E+03  0.94345758039E+03  0.16500000000E+03 0.  0.
<mgrwt>
<rscale>  0 0.55808660E+03</rscale>
<asrwt>0</asrwt>
<pdfrwt beam="1">  1        2 0.24759989E+00 0.55808660E+03</pdfrwt>
<pdfrwt beam="2">  1       -2 0.74433088E-02 0.55808660E+03</pdfrwt>
<totfact> 0.12438635E+03</totfact>
</mgrwt>
</event>
<event>
 4    1  0.8641621E-005  0.4181342E+03  0.7818608E-02  0.1037675E+00
          2   -1    0    0  501    0  0.00000000000E+00  0.00000000000E+00  0.39731485342E+03  0.39731485342E+03  0.25500000000E-02 0.  1.
         -2   -1    0    0    0  501 -0.00000000000E+00 -0.00000000000E+00 -0.11001110794E+03  0.11001110797E+03  0.25500000000E-02 0. -1.
    5000001    1    1    2    0    0 -0.61867090130E+02 -0.11234862974E+03  0.15075732648E+03  0.25768686993E+03  0.16500000000E+03 0.  0.
   -5000001    1    1    2    0    0  0.61867090130E+02  0.11234862974E+03  0.13654641900E+03  0.24963909146E+03  0.16500000000E+03 0.  0.
<mgrwt>
<rscale>  0 0.41813418E+03</rscale>
<asrwt>0</asrwt>
<pdfrwt beam="1">  1        2 0.61125361E-01 0.41813418E+03</pdfrwt>
<pdfrwt beam="2">  1       -2 0.16924786E-01 0.41813418E+03</pdfrwt>
<totfact> 0.22629225E+03</totfact>
</mgrwt>
</event>
<event>
 4    1  0.8641621E-005  0.4616335E+03  0.7818608E-02  0.1024309E+00
          2   -1    0    0  501    0  0.00000000000E+00  0.00000000000E+00  0.16612389664E+03  0.16612389665E+03  0.25500000000E-02 0.  1.
         -2   -1    0    0    0  501 -0.00000000000E+00 -0.00000000000E+00 -0.32070264610E+03  0.32070264611E+03  0.25500000000E-02 0. -1.
    5000001    1    1    2    0    0  0.14016726445E+03  0.79355724314E+02 -0.88207153187E+02  0.24687991996E+03  0.16500000000E+03 0.  0.
   -5000001    1    1    2    0    0 -0.14016726445E+03 -0.79355724314E+02 -0.66371596281E+02  0.23994662281E+03  0.16500000000E+03 0.  0.
<mgrwt>
<rscale>  0 0.46163351E+03</rscale>
<asrwt>0</asrwt>
<pdfrwt beam="1">  1        2 0.25557523E-01 0.46163351E+03</pdfrwt>
<pdfrwt beam="2">  1       -2 0.49338869E-01 0.46163351E+03</pdfrwt>
<totfact> 0.83350085E+02</totfact>
</mgrwt>
</event>
<event>
 4    1  0.8641621E-005  0.7201824E+03  0.7818608E-02  0.9683327E-01
          2   -1    0    0  501    0  0.00000000000E+00  0.00000000000E+00  0.84655506090E+03  0.84655506090E+03  0.25500000000E-02 0.  1.
         -2   -1    0    0    0  501 -0.00000000000E+00 -0.00000000000E+00 -0.15316860885E+03  0.15316860887E+03  0.25500000000E-02 0. -1.
    5000001    1    1    2    0    0  0.81328568994E+02 -0.28777064674E+03  0.18833186440E+03  0.39002586120E+03  0.16500000000E+03 0.  0.
   -5000001    1    1    2    0    0 -0.81328568994E+02  0.28777064674E+03  0.50505458765E+03  0.60969780857E+03  0.16500000000E+03 0.  0.
<mgrwt>
<rscale>  0 0.72018237E+03</rscale>
<asrwt>0</asrwt>
<pdfrwt beam="1">  1        2 0.13023924E+00 0.72018237E+03</pdfrwt>
<pdfrwt beam="2">  1       -2 0.23564401E-01 0.72018237E+03</pdfrwt>
<totfact> 0.51195339E+02</totfact>
</mgrwt>
</event>
<event>
 4    1  0.8641621E-005  0.4502718E+03  0.7818608E-02  0.1027641E+00
          2   -1    0    0  501    0  0.00000000000E+00  0.00000000000E+00  0.42076907745E+03  0.42076907746E+03  0.25500000000E-02 0.  1.
         -2   -1    0    0    0  501 -0.00000000000E+00 -0.00000000000E+00 -0.12046077804E+03  0.12046077807E+03  0.25500000000E-02 0. -1.
    5000001    1    1    2    0    0  0.51085357990E+00  0.60260898869E+02  0.31941762713E+03  0.36453293051E+03  0.16500000000E+03 0.  0.
   -5000001    1    1    2    0    0 -0.51085357990E+00 -0.60260898869E+02 -0.19109327719E+02  0.17669692501E+03  0.16500000000E+03 0.  0.
<mgrwt>
<rscale>  0 0.45027179E+03</rscale>
<asrwt>0</asrwt>
<pdfrwt beam="1">  1        2 0.64733705E-01 0.45027179E+03</pdfrwt>
<pdfrwt beam="2">  1       -2 0.18532427E-01 0.45027179E+03</pdfrwt>
<totfact> 0.18205758E+03</totfact>
</mgrwt>
</event>
<event>
 4    1  0.8641621E-005  0.5215138E+03  0.7818608E-02  0.1008311E+00
          2   -1    0    0  501    0  0.00000000000E+00  0.00000000000E+00  0.70240409322E+03  0.70240409323E+03  0.25500000000E-02 0.  1.
         -2   -1    0    0    0  501 -0.00000000000E+00 -0.00000000000E+00 -0.96802049904E+02  0.96802049937E+02  0.25500000000E-02 0. -1.
    5000001    1    1    2    0    0  0.29663731235E+01 -0.20167657773E+03  0.31708797748E+03  0.41042907650E+03  0.16500000000E+03 0.  0.
   -5000001    1    1    2    0    0 -0.29663731235E+01  0.20167657773E+03  0.28851406584E+03  0.38877706666E+03  0.16500000000E+03 0.  0.
<mgrwt>
<rscale>  0 0.52151378E+03</rscale>
<asrwt>0</asrwt>
<pdfrwt beam="1">  1        2 0.10806217E+00 0.52151378E+03</pdfrwt>
<pdfrwt beam="2">  1       -2 0.14892623E-01 0.52151378E+03</pdfrwt>
<totfact> 0.14497225E+03</totfact>
</mgrwt>
</event>
<event>
 4    1  0.8641621E-005  0.5533666E+03  0.7818608E-02  0.1000718E+00
         -2   -1    0    0    0  501 -0.00000000000E+00  0.00000000000E+00  0.17743577295E+03  0.17743577297E+03  0.25500000000E-02 0. -1.
          2   -1    0    0  501    0  0.00000000000E+00 -0.00000000000E+00 -0.43144420181E+03  0.43144420182E+03  0.25500000000E-02 0.  1.
    5000001    1    1    2    0    0 -0.20679281924E+03  0.76608341274E+02 -0.15604363108E+03  0.31655445478E+03  0.16500000000E+03 0.  0.
   -5000001    1    1    2    0    0  0.20679281924E+03 -0.76608341274E+02 -0.97964797776E+02  0.29232552000E+03  0.16500000000E+03 0.  0.
<mgrwt>
<rscale>  0 0.55336655E+03</rscale>
<asrwt>0</asrwt>
<pdfrwt beam="1">  1        2 0.66376031E-01 0.55336655E+03</pdfrwt>
<pdfrwt beam="2">  1       -2 0.27297811E-01 0.55336655E+03</pdfrwt>
<totfact> 0.89415412E+02</totfact>
</mgrwt>
</event>
<event>
 4    1  0.8641621E-005  0.7449512E+03  0.7818608E-02  0.9643304E-01
         -2   -1    0    0    0  501 -0.00000000000E+00  0.00000000000E+00  0.67208102730E+02  0.67208102778E+02  0.25500000000E-02 0. -1.
          2   -1    0    0  501    0  0.00000000000E+00 -0.00000000000E+00 -0.20643059820E+04  0.20643059820E+04  0.25500000000E-02 0.  1.
    5000001    1    1    2    0    0 -0.31954587014E+03  0.54920597378E+02 -0.12272232782E+04  0.12800108631E+04  0.16500000000E+03 0.  0.
   -5000001    1    1    2    0    0  0.31954587014E+03 -0.54920597378E+02 -0.76987460115E+03  0.85150322174E+03  0.16500000000E+03 0.  0.
<mgrwt>
<rscale>  0 0.74495124E+03</rscale>
<asrwt>0</asrwt>
<pdfrwt beam="1">  1        2 0.31758549E+00 0.74495124E+03</pdfrwt>
<pdfrwt beam="2">  1       -2 0.10339710E-01 0.74495124E+03</pdfrwt>
<totfact> 0.41013823E+02</totfact>
</mgrwt>
</event>
<event>
 4    1  0.8641621E-005  0.9850878E+03  0.7818608E-02  0.9325053E-01
          2   -1    0    0  501    0  0.00000000000E+00  0.00000000000E+00  0.12788327809E+04  0.12788327809E+04  0.25500000000E-02 0.  1.
         -2   -1    0    0    0  501 -0.00000000000E+00 -0.00000000000E+00 -0.18970385274E+03  0.18970385276E+03  0.25500000000E-02 0. -1.
    5000001    1    1    2    0    0  0.16700773985E+03  0.41593643932E+03  0.72395151813E+03  0.86730934926E+03  0.16500000000E+03 0.  0.
   -5000001    1    1    2    0    0 -0.16700773985E+03 -0.41593643932E+03  0.36517741006E+03  0.60122728443E+03  0.16500000000E+03 0.  0.
<mgrwt>
<rscale>  0 0.98508782E+03</rscale>
<asrwt>0</asrwt>
<pdfrwt beam="1">  1        2 0.19674349E+00 0.98508782E+03</pdfrwt>
<pdfrwt beam="2">  1       -2 0.29185210E-01 0.98508782E+03</pdfrwt>
<totfact> 0.18318477E+02</totfact>
</mgrwt>
</event>
<event>
 4    1  0.8641621E-005  0.6902613E+03  0.7818608E-02  0.9734033E-01
         -2   -1    0    0    0  501 -0.00000000000E+00  0.00000000000E+00  0.69785205083E+02  0.69785205130E+02  0.25500000000E-02 0. -1.
          2   -1    0    0  501    0  0.00000000000E+00 -0.00000000000E+00 -0.17068828180E+04  0.17068828180E+04  0.25500000000E-02 0.  1.
    5000001    1    1    2    0    0 -0.32829813374E+02  0.28377212107E+03 -0.55750654197E+03  0.64779854715E+03  0.16500000000E+03 0.  0.
   -5000001    1    1    2    0    0  0.32829813374E+02 -0.28377212107E+03 -0.10795910709E+04  0.11288694759E+04  0.16500000000E+03 0.  0.
<mgrwt>
<rscale>  0 0.69026131E+03</rscale>
<asrwt>0</asrwt>
<pdfrwt beam="1">  1        2 0.26259733E+00 0.69026131E+03</pdfrwt>
<pdfrwt beam="2">  1       -2 0.10736187E-01 0.69026131E+03</pdfrwt>
<totfact> 0.60612239E+02</totfact>
</mgrwt>
</event>
<event>
 4    1  0.8641621E-005  0.3905846E+03  0.7818608E-02  0.1047090E+00
          2   -1    0    0  501    0  0.00000000000E+00  0.00000000000E+00  0.15558438670E+04  0.15558438670E+04  0.25500000000E-02 0.  1.
         -2   -1    0    0    0  501 -0.00000000000E+00 -0.00000000000E+00 -0.24513439002E+02  0.24513439135E+02  0.25500000000E-02 0. -1.
    5000001    1    1    2    0    0 -0.12673819580E+02 -0.10125030994E+03  0.67502525159E+03  0.70235058286E+03  0.16500000000E+03 0.  0.
   -5000001    1    1    2    0    0  0.12673819580E+02  0.10125030994E+03  0.85630517636E+03  0.87800672323E+03  0.16500000000E+03 0.  0.
<mgrwt>
<rscale>  0 0.39058461E+03</rscale>
<asrwt>0</asrwt>
<pdfrwt beam="1">  1        2 0.23936061E+00 0.39058461E+03</pdfrwt>
<pdfrwt beam="2">  1       -2 0.37712981E-02 0.39058461E+03</pdfrwt>
<totfact> 0.38298739E+03</totfact>
</mgrwt>
</event>
<event>
 4    1  0.8641621E-005  0.4810941E+03  0.7818608E-02  0.1018835E+00
         -2   -1    0    0    0  501 -0.00000000000E+00  0.00000000000E+00  0.12252727351E+03  0.12252727354E+03  0.25500000000E-02 0.  1.
          2   -1    0    0  501    0  0.00000000000E+00 -0.00000000000E+00 -0.47224501862E+03  0.47224501863E+03  0.25500000000E-02 0. -1.
    5000001    1    1    2    0    0 -0.18576304742E+02 -0.12689399969E+03 -0.27585918583E+02  0.21079171986E+03  0.16500000000E+03 0.  0.
   -5000001    1    1    2    0    0  0.18576304742E+02  0.12689399969E+03 -0.32213182652E+03  0.38398057232E+03  0.16500000000E+03 0.  0.
<mgrwt>
<rscale>  0 0.48109415E+03</rscale>
<asrwt>0</asrwt>
<pdfrwt beam="1">  1        2 0.72653079E-01 0.48109415E+03</pdfrwt>
<pdfrwt beam="2">  1       -2 0.18850350E-01 0.48109415E+03</pdfrwt>
<totfact> 0.15537769E+03</totfact>
</mgrwt>
</event>
<event>
 4    1  0.8641621E-005  0.4623914E+03  0.7818608E-02  0.1024090E+00
          2   -1    0    0  501    0  0.00000000000E+00  0.00000000000E+00  0.62467478909E+03  0.62467478910E+03  0.25500000000E-02 0.  1.
         -2   -1    0    0    0  501 -0.00000000000E+00 -0.00000000000E+00 -0.85566854879E+02  0.85566854917E+02  0.25500000000E-02 0. -1.
    5000001    1    1    2    0    0  0.80056977211E+02  0.27639634949E+02  0.48157672003E+03  0.51605639837E+03  0.16500000000E+03 0.  0.
   -5000001    1    1    2    0    0 -0.80056977211E+02 -0.27639634949E+02  0.57531214178E+02  0.19418524564E+03  0.16500000000E+03 0.  0.
<mgrwt>
<rscale>  0 0.46239142E+03</rscale>
<asrwt>0</asrwt>
<pdfrwt beam="1">  1        2 0.96103819E-01 0.46239142E+03</pdfrwt>
<pdfrwt beam="2">  1       -2 0.13164131E-01 0.46239142E+03</pdfrwt>
<totfact> 0.20546883E+03</totfact>
</mgrwt>
</event>
<event>
 4    1  0.8641621E-005  0.6611910E+03  0.7818608E-02  0.9786004E-01
         -2   -1    0    0    0  501 -0.00000000000E+00  0.00000000000E+00  0.14021041560E+03  0.14021041563E+03  0.25500000000E-02 0.  1.
          2   -1    0    0  501    0  0.00000000000E+00 -0.00000000000E+00 -0.77949548953E+03  0.77949548953E+03  0.25500000000E-02 0. -1.
    5000001    1    1    2    0    0 -0.13098438778E+03 -0.25361575674E+03 -0.35344443231E+03  0.48334855813E+03  0.16500000000E+03 0.  0.
   -5000001    1    1    2    0    0  0.13098438778E+03  0.25361575674E+03 -0.28584064162E+03  0.43635734703E+03  0.16500000000E+03 0.  0.
<mgrwt>
<rscale>  0 0.66119101E+03</rscale>
<asrwt>0</asrwt>
<pdfrwt beam="1">  1        2 0.11992238E+00 0.66119101E+03</pdfrwt>
<pdfrwt beam="2">  1       -2 0.21570834E-01 0.66119101E+03</pdfrwt>
<totfact> 0.66968268E+02</totfact>
</mgrwt>
</event>
<event>
 4    1  0.8641621E-005  0.5273991E+03  0.7818608E-02  0.1006865E+00
          2   -1    0    0  501    0  0.00000000000E+00  0.00000000000E+00  0.72212545021E+03  0.72212545021E+03  0.25500000000E-02 0.  1.
         -2   -1    0    0    0  501 -0.00000000000E+00 -0.00000000000E+00 -0.96295524631E+02  0.96295524665E+02  0.25500000000E-02 0. -1.
    5000001    1    1    2    0    0 -0.41616792980E+02 -0.11581335007E+03  0.56869361267E+03  0.60479923496E+03  0.16500000000E+03 0.  0.
   -5000001    1    1    2    0    0  0.41616792980E+02  0.11581335007E+03  0.57136312903E+02  0.21362173992E+03  0.16500000000E+03 0.  0.
<mgrwt>
<rscale>  0 0.52739909E+03</rscale>
<asrwt>0</asrwt>
<pdfrwt beam="1">  1        2 0.11109622E+00 0.52739909E+03</pdfrwt>
<pdfrwt beam="2">  1       -2 0.14814696E-01 0.52739909E+03</pdfrwt>
<totfact> 0.14125664E+03</totfact>
</mgrwt>
</event>
<event>
 4    1  0.8641621E-005  0.6537206E+03  0.7818608E-02  0.9799823E-01
          2   -1    0    0  501    0  0.00000000000E+00  0.00000000000E+00  0.79164739944E+03  0.79164739944E+03  0.25500000000E-02 0.  1.
         -2   -1    0    0    0  501 -0.00000000000E+00 -0.00000000000E+00 -0.13495613027E+03  0.13495613029E+03  0.25500000000E-02 0. -1.
    5000001    1    1    2    0    0 -0.77955704789E+02  0.26734233837E+03  0.26395540698E+03  0.41766789997E+03  0.16500000000E+03 0.  0.
   -5000001    1    1    2    0    0  0.77955704789E+02 -0.26734233837E+03  0.39273586219E+03  0.50893562977E+03  0.16500000000E+03 0.  0.
<mgrwt>
<rscale>  0 0.65372064E+03</rscale>
<asrwt>0</asrwt>
<pdfrwt beam="1">  1        2 0.12179191E+00 0.65372064E+03</pdfrwt>
<pdfrwt beam="2">  1       -2 0.20762482E-01 0.65372064E+03</pdfrwt>
<totfact> 0.70199817E+02</totfact>
</mgrwt>
</event>
<event>
 4    1  0.8641621E-005  0.5447511E+03  0.7818608E-02  0.1002716E+00
          2   -1    0    0  501    0  0.00000000000E+00  0.00000000000E+00  0.98038806302E+03  0.98038806302E+03  0.25500000000E-02 0.  1.
         -2   -1    0    0    0  501 -0.00000000000E+00 -0.00000000000E+00 -0.75672531253E+02  0.75672531296E+02  0.25500000000E-02 0. -1.
    5000001    1    1    2    0    0 -0.20179623224E+03 -0.17925611363E+02  0.30319301416E+03  0.40024248991E+03  0.16500000000E+03 0.  0.
   -5000001    1    1    2    0    0  0.20179623224E+03  0.17925611363E+02  0.60152251760E+03  0.65581810441E+03  0.16500000000E+03 0.  0.
<mgrwt>
<rscale>  0 0.54475112E+03</rscale>
<asrwt>0</asrwt>
<pdfrwt beam="1">  1        2 0.15082893E+00 0.54475112E+03</pdfrwt>
<pdfrwt beam="2">  1       -2 0.11641928E-01 0.54475112E+03</pdfrwt>
<totfact> 0.13975871E+03</totfact>
</mgrwt>
</event>
<event>
 4    1  0.8641621E-005  0.3357676E+03  0.7818608E-02  0.1068613E+00
          2   -1    0    0  501    0  0.00000000000E+00  0.00000000000E+00  0.37876652970E+04  0.37876652970E+04  0.25500000000E-02 0.  1.
         -2   -1    0    0    0  501 -0.00000000000E+00 -0.00000000000E+00 -0.74412515474E+01  0.74412519843E+01  0.25500000000E-02 0. -1.
    5000001    1    1    2    0    0 -0.27076162064E+02 -0.83951027402E+01  0.17487708995E+04  0.17567664203E+04  0.16500000000E+03 0.  0.
   -5000001    1    1    2    0    0  0.27076162064E+02  0.83951027402E+01  0.20314531459E+04  0.20383401287E+04  0.16500000000E+03 0.  0.
<mgrwt>
<rscale>  0 0.33576760E+03</rscale>
<asrwt>0</asrwt>
<pdfrwt beam="1">  1        2 0.58271890E+00 0.33576760E+03</pdfrwt>
<pdfrwt beam="2">  1       -2 0.11448057E-02 0.33576760E+03</pdfrwt>
<totfact> 0.11116172E+03</totfact>
</mgrwt>
</event>
<event>
 4    1  0.8641621E-005  0.5157091E+03  0.7818608E-02  0.1009758E+00
         -2   -1    0    0    0  501 -0.00000000000E+00  0.00000000000E+00  0.32093593070E+03  0.32093593071E+03  0.25500000000E-02 0. -1.
          2   -1    0    0  501    0  0.00000000000E+00 -0.00000000000E+00 -0.20717213259E+03  0.20717213261E+03  0.25500000000E-02 0.  1.
    5000001    1    1    2    0    0  0.96464651695E+02 -0.16583386192E+03  0.10764882237E+03  0.27499012299E+03  0.16500000000E+03 0.  0.
   -5000001    1    1    2    0    0 -0.96464651695E+02  0.16583386192E+03  0.61149757365E+01  0.25311794032E+03  0.16500000000E+03 0.  0.
<mgrwt>
<rscale>  0 0.51570915E+03</rscale>
<asrwt>0</asrwt>
<pdfrwt beam="1">  1        2 0.31872636E-01 0.51570915E+03</pdfrwt>
<pdfrwt beam="2">  1       -2 0.49374759E-01 0.51570915E+03</pdfrwt>
<totfact> 0.64932296E+02</totfact>
</mgrwt>
</event>
<event>
 4    1  0.8641621E-005  0.7656032E+03  0.7818608E-02  0.9611184E-01
          2   -1    0    0  501    0  0.00000000000E+00  0.00000000000E+00  0.52681860775E+03  0.52681860776E+03  0.25500000000E-02 0.  1.
         -2   -1    0    0    0  501 -0.00000000000E+00 -0.00000000000E+00 -0.27815471929E+03  0.27815471931E+03  0.25500000000E-02 0. -1.
    5000001    1    1    2    0    0  0.11765605674E+03  0.26989622353E+03  0.31424467071E+03  0.46115250431E+03  0.16500000000E+03 0.  0.
   -5000001    1    1    2    0    0 -0.11765605674E+03 -0.26989622353E+03 -0.65580782246E+02  0.34382082276E+03  0.16500000000E+03 0.  0.
<mgrwt>
<rscale>  0 0.76560324E+03</rscale>
<asrwt>0</asrwt>
<pdfrwt beam="1">  1        2 0.81049015E-01 0.76560324E+03</pdfrwt>
<pdfrwt beam="2">  1       -2 0.42793034E-01 0.76560324E+03</pdfrwt>
<totfact> 0.30205539E+02</totfact>
</mgrwt>
</event>
<event>
 4    1  0.8641621E-005  0.7223273E+03  0.7818608E-02  0.9679793E-01
          2   -1    0    0  501    0  0.00000000000E+00  0.00000000000E+00  0.65337988251E+03  0.65337988252E+03  0.25500000000E-02 0.  1.
         -2   -1    0    0    0  501 -0.00000000000E+00 -0.00000000000E+00 -0.19963760170E+03  0.19963760171E+03  0.25500000000E-02 0. -1.
    5000001    1    1    2    0    0 -0.50488720859E+02 -0.22959182198E+03 -0.31729928127E+02  0.28895207906E+03  0.16500000000E+03 0.  0.
   -5000001    1    1    2    0    0  0.50488720859E+02  0.22959182198E+03  0.48547220894E+03  0.56406540517E+03  0.16500000000E+03 0.  0.
<mgrwt>
<rscale>  0 0.72232733E+03</rscale>
<asrwt>0</asrwt>
<pdfrwt beam="1">  1        2 0.10051998E+00 0.72232733E+03</pdfrwt>
<pdfrwt beam="2">  1       -2 0.30713477E-01 0.72232733E+03</pdfrwt>
<totfact> 0.44099522E+02</totfact>
</mgrwt>
</event>
<event>
 4    1  0.8641621E-005  0.7778195E+03  0.7818608E-02  0.9592689E-01
          2   -1    0    0  501    0  0.00000000000E+00  0.00000000000E+00  0.32716550432E+03  0.32716550433E+03  0.25500000000E-02 0.  1.
         -2   -1    0    0    0  501 -0.00000000000E+00 -0.00000000000E+00 -0.46230661838E+03  0.46230661839E+03  0.25500000000E-02 0. -1.
    5000001    1    1    2    0    0  0.17784768373E+03  0.30048120468E+03 -0.20980543334E+02  0.38676082554E+03  0.16500000000E+03 0.  0.
   -5000001    1    1    2    0    0 -0.17784768373E+03 -0.30048120468E+03 -0.11416057072E+03  0.40271129718E+03  0.16500000000E+03 0.  0.
<mgrwt>
<rscale>  0 0.77781946E+03</rscale>
<asrwt>0</asrwt>
<pdfrwt beam="1">  1        2 0.50333154E-01 0.77781946E+03</pdfrwt>
<pdfrwt beam="2">  1       -2 0.71124095E-01 0.77781946E+03</pdfrwt>
<totfact> 0.18040085E+02</totfact>
</mgrwt>
</event>
<event>
 4    1  0.8641621E-005  0.5052168E+03  0.7818608E-02  0.1012426E+00
         -2   -1    0    0    0  501 -0.00000000000E+00  0.00000000000E+00  0.16568771553E+03  0.16568771555E+03  0.25500000000E-02 0. -1.
          2   -1    0    0  501    0  0.00000000000E+00 -0.00000000000E+00 -0.38512820461E+03  0.38512820462E+03  0.25500000000E-02 0.  1.
    5000001    1    1    2    0    0  0.17235520281E+03 -0.77525479639E+02 -0.77571605925E+02  0.26260020940E+03  0.16500000000E+03 0.  0.
   -5000001    1    1    2    0    0 -0.17235520281E+03  0.77525479639E+02 -0.14186888315E+03  0.28821571077E+03  0.16500000000E+03 0.  0.
<mgrwt>
<rscale>  0 0.50521683E+03</rscale>
<asrwt>0</asrwt>
<pdfrwt beam="1">  1        2 0.59250493E-01 0.50521683E+03</pdfrwt>
<pdfrwt beam="2">  1       -2 0.25490418E-01 0.50521683E+03</pdfrwt>
<totfact> 0.11489883E+03</totfact>
</mgrwt>
</event>
<event>
 4    1  0.8641621E-005  0.5202556E+03  0.7818608E-02  0.1008623E+00
          2   -1    0    0  501    0  0.00000000000E+00  0.00000000000E+00  0.73923298151E+02  0.73923298195E+02  0.25500000000E-02 0.  1.
         -2   -1    0    0    0  501 -0.00000000000E+00 -0.00000000000E+00 -0.91536057939E+03  0.91536057940E+03  0.25500000000E-02 0. -1.
    5000001    1    1    2    0    0  0.18152426045E+03 -0.84403684034E+02 -0.45711869810E+03  0.52560207682E+03  0.16500000000E+03 0.  0.
   -5000001    1    1    2    0    0 -0.18152426045E+03  0.84403684034E+02 -0.38431858315E+03  0.46368180077E+03  0.16500000000E+03 0.  0.
<mgrwt>
<rscale>  0 0.52025560E+03</rscale>
<asrwt>0</asrwt>
<pdfrwt beam="1">  1        2 0.11372816E-01 0.52025560E+03</pdfrwt>
<pdfrwt beam="2">  1       -2 0.14082470E+00 0.52025560E+03</pdfrwt>
<totfact> 0.20304575E+02</totfact>
</mgrwt>
</event>
<event>
 4    1  0.8641621E-005  0.6529401E+03  0.7818608E-02  0.9801278E-01
         -2   -1    0    0    0  501 -0.00000000000E+00  0.00000000000E+00  0.70677522054E+02  0.70677522100E+02  0.25500000000E-02 0. -1.
          2   -1    0    0  501    0  0.00000000000E+00 -0.00000000000E+00 -0.15080141990E+04  0.15080141990E+04  0.25500000000E-02 0.  1.
    5000001    1    1    2    0    0  0.27379400467E+03  0.66289199647E+02 -0.71736213200E+03  0.78815661097E+03  0.16500000000E+03 0.  0.
   -5000001    1    1    2    0    0 -0.27379400467E+03 -0.66289199647E+02 -0.71997454497E+03  0.79053511016E+03  0.16500000000E+03 0.  0.
<mgrwt>
<rscale>  0 0.65294014E+03</rscale>
<asrwt>0</asrwt>
<pdfrwt beam="1">  1        2 0.23200216E+00 0.65294014E+03</pdfrwt>
<pdfrwt beam="2">  1       -2 0.10873466E-01 0.65294014E+03</pdfrwt>
<totfact> 0.76491607E+02</totfact>
</mgrwt>
</event>
<event>
 4    1  0.8641621E-005  0.6432118E+03  0.7818608E-02  0.9819601E-01
          2   -1    0    0  501    0  0.00000000000E+00  0.00000000000E+00  0.14344895868E+03  0.14344895870E+03  0.25500000000E-02 0.  1.
         -2   -1    0    0    0  501 -0.00000000000E+00 -0.00000000000E+00 -0.72102539657E+03  0.72102539658E+03  0.25500000000E-02 0. -1.
    5000001    1    1    2    0    0  0.50104286504E+01 -0.26574518797E+03 -0.18857497844E+03  0.36528226321E+03  0.16500000000E+03 0.  0.
   -5000001    1    1    2    0    0 -0.50104286504E+01  0.26574518797E+03 -0.38900145945E+03  0.49919209207E+03  0.16500000000E+03 0.  0.
<mgrwt>
<rscale>  0 0.64321176E+03</rscale>
<asrwt>0</asrwt>
<pdfrwt beam="1">  1        2 0.22069071E-01 0.64321176E+03</pdfrwt>
<pdfrwt beam="2">  1       -2 0.11092698E+00 0.64321176E+03</pdfrwt>
<totfact> 0.16498157E+02</totfact>
</mgrwt>
</event>
<event>
 4    1  0.8641621E-005  0.7294694E+03  0.7818608E-02  0.9668122E-01
         -2   -1    0    0    0  501 -0.00000000000E+00  0.00000000000E+00  0.13413968193E+03  0.13413968195E+03  0.25500000000E-02 0. -1.
          2   -1    0    0  501    0  0.00000000000E+00 -0.00000000000E+00 -0.99173791620E+03  0.99173791620E+03  0.25500000000E-02 0.  1.
    5000001    1    1    2    0    0  0.26782193415E+03  0.18448745894E+03 -0.43882513946E+03  0.57057577406E+03  0.16500000000E+03 0.  0.
   -5000001    1    1    2    0    0 -0.26782193415E+03 -0.18448745894E+03 -0.41877309481E+03  0.55530182410E+03  0.16500000000E+03 0.  0.
<mgrwt>
<rscale>  0 0.72946942E+03</rscale>
<asrwt>0</asrwt>
<pdfrwt beam="1">  1        2 0.15257506E+00 0.72946942E+03</pdfrwt>
<pdfrwt beam="2">  1       -2 0.20636875E-01 0.72946942E+03</pdfrwt>
<totfact> 0.51823864E+02</totfact>
</mgrwt>
</event>
<event>
 4    1  0.8641621E-005  0.5959756E+03  0.7818608E-02  0.9913791E-01
         -2   -1    0    0    0  501 -0.00000000000E+00  0.00000000000E+00  0.98595307168E+02  0.98595307201E+02  0.25500000000E-02 0. -1.
          2   -1    0    0  501    0  0.00000000000E+00 -0.00000000000E+00 -0.90061820531E+03  0.90061820531E+03  0.25500000000E-02 0.  1.
    5000001    1    1    2    0    0 -0.18694911738E+03  0.55422955144E+02 -0.65830313722E+03  0.70612300410E+03  0.16500000000E+03 0.  0.
   -5000001    1    1    2    0    0  0.18694911738E+03 -0.55422955144E+02 -0.14371976092E+03  0.29309050842E+03  0.16500000000E+03 0.  0.
<mgrwt>
<rscale>  0 0.59597560E+03</rscale>
<asrwt>0</asrwt>
<pdfrwt beam="1">  1        2 0.13855664E+00 0.59597560E+03</pdfrwt>
<pdfrwt beam="2">  1       -2 0.15168509E-01 0.59597560E+03</pdfrwt>
<totfact> 0.10136189E+03</totfact>
</mgrwt>
</event>
<event>
 4    1  0.8641621E-005  0.4781057E+03  0.7818608E-02  0.1019657E+00
         -2   -1    0    0    0  501 -0.00000000000E+00  0.00000000000E+00  0.30428261872E+02  0.30428261979E+02  0.25500000000E-02 0. -1.
          2   -1    0    0  501    0  0.00000000000E+00 -0.00000000000E+00 -0.18780651454E+04  0.18780651454E+04  0.25500000000E-02 0.  1.
    5000001    1    1    2    0    0  0.14539342085E+03 -0.73632007985E+01 -0.55089556330E+03  0.59321529415E+03  0.16500000000E+03 0.  0.
   -5000001    1    1    2    0    0 -0.14539342085E+03  0.73632007985E+01 -0.12967413202E+04  0.13152781132E+04  0.16500000000E+03 0.  0.
<mgrwt>
<rscale>  0 0.47810567E+03</rscale>
<asrwt>0</asrwt>
<pdfrwt beam="1">  1        2 0.28893301E+00 0.47810567E+03</pdfrwt>
<pdfrwt beam="2">  1       -2 0.46812725E-02 0.47810567E+03</pdfrwt>
<totfact> 0.18437004E+03</totfact>
</mgrwt>
</event>
<event>
 4    1  0.8641621E-005  0.5036002E+03  0.7818608E-02  0.1012843E+00
         -2   -1    0    0    0  501 -0.00000000000E+00  0.00000000000E+00  0.15241248994E+03  0.15241248996E+03  0.25500000000E-02 0. -1.
          2   -1    0    0  501    0  0.00000000000E+00 -0.00000000000E+00 -0.41599793763E+03  0.41599793764E+03  0.25500000000E-02 0.  1.
    5000001    1    1    2    0    0 -0.18352796182E+03  0.21000408350E+02 -0.80629743664E+02  0.26047972183E+03  0.16500000000E+03 0.  0.
   -5000001    1    1    2    0    0  0.18352796182E+03 -0.21000408350E+02 -0.18295570403E+03  0.30793070577E+03  0.16500000000E+03 0.  0.
<mgrwt>
<rscale>  0 0.50360016E+03</rscale>
<asrwt>0</asrwt>
<pdfrwt beam="1">  1        2 0.63999682E-01 0.50360016E+03</pdfrwt>
<pdfrwt beam="2">  1       -2 0.23448076E-01 0.50360016E+03</pdfrwt>
<totfact> 0.12239861E+03</totfact>
</mgrwt>
</event>
<event>
 4    1  0.8641621E-005  0.6127747E+03  0.7818608E-02  0.9879251E-01
         -2   -1    0    0    0  501 -0.00000000000E+00  0.00000000000E+00  0.66557474043E+02  0.66557474092E+02  0.25500000000E-02 0. -1.
          2   -1    0    0  501    0  0.00000000000E+00 -0.00000000000E+00 -0.14104083124E+04  0.14104083124E+04  0.25500000000E-02 0.  1.
    5000001    1    1    2    0    0  0.22584349211E+03  0.66638435472E+02 -0.92703233805E+03  0.97059771265E+03  0.16500000000E+03 0.  0.
   -5000001    1    1    2    0    0 -0.22584349211E+03 -0.66638435472E+02 -0.41681850029E+03  0.50636807383E+03  0.16500000000E+03 0.  0.
<mgrwt>
<rscale>  0 0.61277472E+03</rscale>
<asrwt>0</asrwt>
<pdfrwt beam="1">  1        2 0.21698587E+00 0.61277472E+03</pdfrwt>
<pdfrwt beam="2">  1       -2 0.10239612E-01 0.61277472E+03</pdfrwt>
<totfact> 0.95788856E+02</totfact>
</mgrwt>
</event>
<event>
 4    1  0.8641621E-005  0.4759903E+03  0.7818608E-02  0.1020243E+00
          2   -1    0    0  501    0  0.00000000000E+00  0.00000000000E+00  0.28200095891E+04  0.28200095891E+04  0.25500000000E-02 0.  1.
         -2   -1    0    0    0  501 -0.00000000000E+00 -0.00000000000E+00 -0.20085633731E+02  0.20085633893E+02  0.25500000000E-02 0. -1.
    5000001    1    1    2    0    0 -0.38003464053E+02  0.16716847617E+03  0.14310331534E+04  0.14506793060E+04  0.16500000000E+03 0.  0.
   -5000001    1    1    2    0    0  0.38003464053E+02 -0.16716847617E+03  0.13688908020E+04  0.13894159170E+04  0.16500000000E+03 0.  0.
<mgrwt>
<rscale>  0 0.47599025E+03</rscale>
<asrwt>0</asrwt>
<pdfrwt beam="1">  1        2 0.43384767E+00 0.47599025E+03</pdfrwt>
<pdfrwt beam="2">  1       -2 0.30900972E-02 0.47599025E+03</pdfrwt>
<totfact> 0.10464327E+03</totfact>
</mgrwt>
</event>
<event>
 4    1  0.8641621E-005  0.4414922E+03  0.7818608E-02  0.1030290E+00
          2   -1    0    0  501    0  0.00000000000E+00  0.00000000000E+00  0.65516096717E+03  0.65516096717E+03  0.25500000000E-02 0.  1.
         -2   -1    0    0    0  501 -0.00000000000E+00 -0.00000000000E+00 -0.74376905885E+02  0.74376905928E+02  0.25500000000E-02 0. -1.
    5000001    1    1    2    0    0 -0.83704208780E+02  0.52966311529E+02  0.46906941111E+03  0.50701374455E+03  0.16500000000E+03 0.  0.
   -5000001    1    1    2    0    0  0.83704208780E+02 -0.52966311529E+02  0.11171465018E+03  0.22252412855E+03  0.16500000000E+03 0.  0.
<mgrwt>
<rscale>  0 0.44149222E+03</rscale>
<asrwt>0</asrwt>
<pdfrwt beam="1">  1        2 0.10079399E+00 0.44149222E+03</pdfrwt>
<pdfrwt beam="2">  1       -2 0.11442601E-01 0.44149222E+03</pdfrwt>
<totfact> 0.24404693E+03</totfact>
</mgrwt>
</event>
<event>
 4    1  0.8641621E-005  0.4911261E+03  0.7818608E-02  0.1016121E+00
          2   -1    0    0  501    0  0.00000000000E+00  0.00000000000E+00  0.97029755014E+02  0.97029755048E+02  0.25500000000E-02 0.  1.
         -2   -1    0    0    0  501 -0.00000000000E+00 -0.00000000000E+00 -0.62147125435E+03  0.62147125436E+03  0.25500000000E-02 0. -1.
    5000001    1    1    2    0    0  0.14343899821E+03  0.69071913015E+02 -0.13359172368E+03  0.26536281580E+03  0.16500000000E+03 0.  0.
   -5000001    1    1    2    0    0 -0.14343899821E+03 -0.69071913015E+02 -0.39084977565E+03  0.45313819360E+03  0.16500000000E+03 0.  0.
<mgrwt>
<rscale>  0 0.49112607E+03</rscale>
<asrwt>0</asrwt>
<pdfrwt beam="1">  1        2 0.14927655E-01 0.49112607E+03</pdfrwt>
<pdfrwt beam="2">  1       -2 0.95610960E-01 0.49112607E+03</pdfrwt>
<totfact> 0.37436915E+02</totfact>
</mgrwt>
</event>
<event>
 4    1  0.8641621E-005  0.4284348E+03  0.7818608E-02  0.1034356E+00
          2   -1    0    0  501    0  0.00000000000E+00  0.00000000000E+00  0.12287221360E+03  0.12287221363E+03  0.25500000000E-02 0.  1.
         -2   -1    0    0    0  501 -0.00000000000E+00 -0.00000000000E+00 -0.37347002421E+03  0.37347002422E+03  0.25500000000E-02 0. -1.
    5000001    1    1    2    0    0 -0.12562241962E+03  0.11098674644E+02 -0.18616065473E+03  0.27889955586E+03  0.16500000000E+03 0.  0.
   -5000001    1    1    2    0    0  0.12562241962E+03 -0.11098674644E+02 -0.64437155879E+02  0.21744268198E+03  0.16500000000E+03 0.  0.
<mgrwt>
<rscale>  0 0.42843477E+03</rscale>
<asrwt>0</asrwt>
<pdfrwt beam="1">  1        2 0.18903418E-01 0.42843477E+03</pdfrwt>
<pdfrwt beam="2">  1       -2 0.57456926E-01 0.42843477E+03</pdfrwt>
<totfact> 0.86390015E+02</totfact>
</mgrwt>
</event>
<event>
 4    1  0.8641621E-005  0.3919648E+03  0.7818608E-02  0.1046598E+00
          2   -1    0    0  501    0  0.00000000000E+00  0.00000000000E+00  0.16894712462E+04  0.16894712462E+04  0.25500000000E-02 0.  1.
         -2   -1    0    0    0  501 -0.00000000000E+00 -0.00000000000E+00 -0.22734388881E+02  0.22734389024E+02  0.25500000000E-02 0. -1.
    5000001    1    1    2    0    0 -0.88354388806E+02 -0.51105376590E+02  0.71248198745E+03  0.73842659756E+03  0.16500000000E+03 0.  0.
   -5000001    1    1    2    0    0  0.88354388806E+02  0.51105376590E+02  0.95425486990E+03  0.97377903770E+03  0.16500000000E+03 0.  0.
<mgrwt>
<rscale>  0 0.39196478E+03</rscale>
<asrwt>0</asrwt>
<pdfrwt beam="1">  1        2 0.25991863E+00 0.39196478E+03</pdfrwt>
<pdfrwt beam="2">  1       -2 0.34975986E-02 0.39196478E+03</pdfrwt>
<totfact> 0.36388372E+03</totfact>
</mgrwt>
</event>
<event>
 4    1  0.8641621E-005  0.3905331E+03  0.7818608E-02  0.1047108E+00
         -2   -1    0    0    0  501 -0.00000000000E+00  0.00000000000E+00  0.30041378561E+02  0.30041378669E+02  0.25500000000E-02 0. -1.
          2   -1    0    0  501    0  0.00000000000E+00 -0.00000000000E+00 -0.12692171405E+04  0.12692171405E+04  0.25500000000E-02 0.  1.
    5000001    1    1    2    0    0 -0.24789988098E+01  0.95163816734E+02 -0.76236258878E+03  0.78580151070E+03  0.16500000000E+03 0.  0.
   -5000001    1    1    2    0    0  0.24789988098E+01 -0.95163816734E+02 -0.47681317318E+03  0.51345700849E+03  0.16500000000E+03 0.  0.
<mgrwt>
<rscale>  0 0.39053314E+03</rscale>
<asrwt>0</asrwt>
<pdfrwt beam="1">  1        2 0.19526413E+00 0.39053314E+03</pdfrwt>
<pdfrwt beam="2">  1       -2 0.46217516E-02 0.39053314E+03</pdfrwt>
<totfact> 0.40429089E+03</totfact>
</mgrwt>
</event>
<event>
 4    1  0.8641621E-005  0.4216730E+03  0.7818608E-02  0.1036523E+00
          2   -1    0    0  501    0  0.00000000000E+00  0.00000000000E+00  0.86757043295E+03  0.86757043296E+03  0.25500000000E-02 0.  1.
         -2   -1    0    0    0  501 -0.00000000000E+00 -0.00000000000E+00 -0.51237381205E+02  0.51237381268E+02  0.25500000000E-02 0. -1.
    5000001    1    1    2    0    0 -0.52329708097E+02 -0.10226236894E+03  0.54650970730E+03  0.58231765440E+03  0.16500000000E+03 0.  0.
   -5000001    1    1    2    0    0  0.52329708097E+02  0.10226236894E+03  0.26982334445E+03  0.33649015983E+03  0.16500000000E+03 0.  0.
<mgrwt>
<rscale>  0 0.42167303E+03</rscale>
<asrwt>0</asrwt>
<pdfrwt beam="1">  1        2 0.13347238E+00 0.42167303E+03</pdfrwt>
<pdfrwt beam="2">  1       -2 0.78826740E-02 0.42167303E+03</pdfrwt>
<totfact> 0.31019120E+03</totfact>
</mgrwt>
</event>
<event>
 4    1  0.8641621E-005  0.6542034E+03  0.7818608E-02  0.9798924E-01
         -2   -1    0    0    0  501 -0.00000000000E+00  0.00000000000E+00  0.30260467602E+02  0.30260467710E+02  0.25500000000E-02 0. -1.
          2   -1    0    0  501    0  0.00000000000E+00 -0.00000000000E+00 -0.35358188424E+04  0.35358188424E+04  0.25500000000E-02 0.  1.
    5000001    1    1    2    0    0  0.73687387708E+02 -0.19013239326E+03 -0.28180379986E+04  0.28302196592E+04  0.16500000000E+03 0.  0.
   -5000001    1    1    2    0    0 -0.73687387708E+02  0.19013239326E+03 -0.68752037619E+03  0.73585965085E+03  0.16500000000E+03 0.  0.
<mgrwt>
<rscale>  0 0.65420343E+03</rscale>
<asrwt>0</asrwt>
<pdfrwt beam="1">  1        2 0.54397180E+00 0.65420343E+03</pdfrwt>
<pdfrwt beam="2">  1       -2 0.46554594E-02 0.65420343E+03</pdfrwt>
<totfact> 0.19327176E+02</totfact>
</mgrwt>
</event>
<event>
 4    1  0.8641621E-005  0.4747539E+03  0.7818608E-02  0.1020587E+00
         -2   -1    0    0    0  501 -0.00000000000E+00  0.00000000000E+00  0.12496817308E+03  0.12496817311E+03  0.25500000000E-02 0. -1.
          2   -1    0    0  501    0  0.00000000000E+00 -0.00000000000E+00 -0.45089738788E+03  0.45089738789E+03  0.25500000000E-02 0.  1.
    5000001    1    1    2    0    0 -0.10628470649E+03 -0.91541519680E+02 -0.45071397980E+02  0.22120741302E+03  0.16500000000E+03 0.  0.
   -5000001    1    1    2    0    0  0.10628470649E+03  0.91541519680E+02 -0.28085781682E+03  0.35465814798E+03  0.16500000000E+03 0.  0.
<mgrwt>
<rscale>  0 0.47475393E+03</rscale>
<asrwt>0</asrwt>
<pdfrwt beam="1">  1        2 0.69368828E-01 0.47475393E+03</pdfrwt>
<pdfrwt beam="2">  1       -2 0.19225873E-01 0.47475393E+03</pdfrwt>
<totfact> 0.15822999E+03</totfact>
</mgrwt>
</event>
<event>
 4    1  0.8641621E-005  0.5519792E+03  0.7818608E-02  0.1001037E+00
          2   -1    0    0  501    0  0.00000000000E+00  0.00000000000E+00  0.65043487767E+03  0.65043487767E+03  0.25500000000E-02 0.  1.
         -2   -1    0    0    0  501 -0.00000000000E+00 -0.00000000000E+00 -0.11710665222E+03  0.11710665225E+03  0.25500000000E-02 0. -1.
    5000001    1    1    2    0    0 -0.18425659897E+03  0.47704226183E+02  0.42348603148E+03  0.49273888249E+03  0.16500000000E+03 0.  0.
   -5000001    1    1    2    0    0  0.18425659897E+03 -0.47704226183E+02  0.10984219397E+03  0.27480264743E+03  0.16500000000E+03 0.  0.
<mgrwt>
<rscale>  0 0.55197917E+03</rscale>
<asrwt>0</asrwt>
<pdfrwt beam="1">  1        2 0.10006690E+00 0.55197917E+03</pdfrwt>
<pdfrwt beam="2">  1       -2 0.18016408E-01 0.55197917E+03</pdfrwt>
<totfact> 0.11536046E+03</totfact>
</mgrwt>
</event>
<event>
 4    1  0.8641621E-005  0.5735543E+03  0.7818608E-02  0.9961844E-01
         -2   -1    0    0    0  501 -0.00000000000E+00  0.00000000000E+00  0.91271205852E+02  0.91271205888E+02  0.25500000000E-02 0. -1.
          2   -1    0    0  501    0  0.00000000000E+00 -0.00000000000E+00 -0.90106322350E+03  0.90106322350E+03  0.25500000000E-02 0.  1.
    5000001    1    1    2    0    0  0.11543296530E+03 -0.15450853988E+03 -0.17394560522E+03  0.30770071815E+03  0.16500000000E+03 0.  0.
   -5000001    1    1    2    0    0 -0.11543296530E+03  0.15450853988E+03 -0.63584641242E+03  0.68463371124E+03  0.16500000000E+03 0.  0.
<mgrwt>
<rscale>  0 0.57355428E+03</rscale>
<asrwt>0</asrwt>
<pdfrwt beam="1">  1        2 0.13862511E+00 0.57355428E+03</pdfrwt>
<pdfrwt beam="2">  1       -2 0.14041725E-01 0.57355428E+03</pdfrwt>
<totfact> 0.11536307E+03</totfact>
</mgrwt>
</event>
<event>
 4    1  0.8641621E-005  0.4780203E+03  0.7818608E-02  0.1019681E+00
         -2   -1    0    0    0  501 -0.00000000000E+00  0.00000000000E+00  0.15534296859E+03  0.15534296861E+03  0.25500000000E-02 0. -1.
          2   -1    0    0  501    0  0.00000000000E+00 -0.00000000000E+00 -0.36774011349E+03  0.36774011350E+03  0.25500000000E-02 0.  1.
    5000001    1    1    2    0    0 -0.14534124445E+03  0.82016254421E+02 -0.56652225277E+02  0.24142331693E+03  0.16500000000E+03 0.  0.
   -5000001    1    1    2    0    0  0.14534124445E+03 -0.82016254421E+02 -0.15574491962E+03  0.28165976517E+03  0.16500000000E+03 0.  0.
<mgrwt>
<rscale>  0 0.47802025E+03</rscale>
<asrwt>0</asrwt>
<pdfrwt beam="1">  1        2 0.56575402E-01 0.47802025E+03</pdfrwt>
<pdfrwt beam="2">  1       -2 0.23898918E-01 0.47802025E+03</pdfrwt>
<totfact> 0.13566361E+03</totfact>
</mgrwt>
</event>
<event>
 4    1  0.8641621E-005  0.4558778E+03  0.7818608E-02  0.1025984E+00
          2   -1    0    0  501    0  0.00000000000E+00  0.00000000000E+00  0.43839214694E+03  0.43839214695E+03  0.25500000000E-02 0.  1.
         -2   -1    0    0    0  501 -0.00000000000E+00 -0.00000000000E+00 -0.11851522723E+03  0.11851522726E+03  0.25500000000E-02 0. -1.
    5000001    1    1    2    0    0 -0.61107255157E+02  0.14222460393E+03  0.19381952584E+03  0.29791432190E+03  0.16500000000E+03 0.  0.
   -5000001    1    1    2    0    0  0.61107255157E+02 -0.14222460393E+03  0.12605739387E+03  0.25899305231E+03  0.16500000000E+03 0.  0.
<mgrwt>
<rscale>  0 0.45587781E+03</rscale>
<asrwt>0</asrwt>
<pdfrwt beam="1">  1        2 0.67444945E-01 0.45587781E+03</pdfrwt>
<pdfrwt beam="2">  1       -2 0.18233112E-01 0.45587781E+03</pdfrwt>
<totfact> 0.17883897E+03</totfact>
</mgrwt>
</event>
<event>
 4    1  0.8641621E-005  0.7980805E+03  0.7818608E-02  0.9562800E-01
         -2   -1    0    0    0  501 -0.00000000000E+00  0.00000000000E+00  0.43022218064E+03  0.43022218065E+03  0.25500000000E-02 0. -1.
          2   -1    0    0  501    0  0.00000000000E+00 -0.00000000000E+00 -0.37011835121E+03  0.37011835122E+03  0.25500000000E-02 0.  1.
    5000001    1    1    2    0    0 -0.33112795367E+03 -0.44988804953E+02 -0.11296473683E+03  0.38943002714E+03  0.16500000000E+03 0.  0.
   -5000001    1    1    2    0    0  0.33112795367E+03  0.44988804953E+02  0.17306856626E+03  0.41091050473E+03  0.16500000000E+03 0.  0.
<mgrwt>
<rscale>  0 0.79808051E+03</rscale>
<asrwt>0</asrwt>
<pdfrwt beam="1">  1        2 0.56941285E-01 0.79808051E+03</pdfrwt>
<pdfrwt beam="2">  1       -2 0.66188027E-01 0.79808051E+03</pdfrwt>
<totfact> 0.18363380E+02</totfact>
</mgrwt>
</event>
<event>
 4    1  0.8641621E-005  0.1000076E+04  0.7818608E-02  0.9308462E-01
         -2   -1    0    0    0  501 -0.00000000000E+00  0.00000000000E+00  0.26074298000E+03  0.26074298001E+03  0.25500000000E-02 0. -1.
          2   -1    0    0  501    0  0.00000000000E+00 -0.00000000000E+00 -0.95894376818E+03  0.95894376819E+03  0.25500000000E-02 0.  1.
    5000001    1    1    2    0    0 -0.21571881946E+03  0.39612640616E+03 -0.17939648465E+03  0.51269760818E+03  0.16500000000E+03 0.  0.
   -5000001    1    1    2    0    0  0.21571881946E+03 -0.39612640616E+03 -0.51880430354E+03  0.70698914002E+03  0.16500000000E+03 0.  0.
<mgrwt>
<rscale>  0 0.10000757E+04</rscale>
<asrwt>0</asrwt>
<pdfrwt beam="1">  1        2 0.14752981E+00 0.10000757E+04</pdfrwt>
<pdfrwt beam="2">  1       -2 0.40114305E-01 0.10000757E+04</pdfrwt>
<totfact> 0.15713857E+02</totfact>
</mgrwt>
</event>
<event>
 4    1  0.8641621E-005  0.4433617E+03  0.7818608E-02  0.1029720E+00
         -2   -1    0    0    0  501 -0.00000000000E+00  0.00000000000E+00  0.15616931530E+03  0.15616931532E+03  0.25500000000E-02 0. -1.
          2   -1    0    0  501    0  0.00000000000E+00 -0.00000000000E+00 -0.31467382402E+03  0.31467382403E+03  0.25500000000E-02 0.  1.
    5000001    1    1    2    0    0  0.13608753270E+03 -0.58177828126E+02 -0.75435103229E+02  0.23413656494E+03  0.16500000000E+03 0.  0.
   -5000001    1    1    2    0    0 -0.13608753270E+03  0.58177828126E+02 -0.83069405497E+02  0.23670657441E+03  0.16500000000E+03 0.  0.
<mgrwt>
<rscale>  0 0.44336168E+03</rscale>
<asrwt>0</asrwt>
<pdfrwt beam="1">  1        2 0.48411357E-01 0.44336168E+03</pdfrwt>
<pdfrwt beam="2">  1       -2 0.24026049E-01 0.44336168E+03</pdfrwt>
<totfact> 0.15943527E+03</totfact>
</mgrwt>
</event>
<event>
 4    1  0.8641621E-005  0.4377541E+03  0.7818608E-02  0.1031438E+00
          2   -1    0    0  501    0  0.00000000000E+00  0.00000000000E+00  0.85281422693E+02  0.85281422731E+02  0.25500000000E-02 0.  1.
         -2   -1    0    0    0  501 -0.00000000000E+00 -0.00000000000E+00 -0.56175377147E+03  0.56175377148E+03  0.25500000000E-02 0. -1.
    5000001    1    1    2    0    0 -0.11254654185E+03  0.28171621856E+02 -0.36384504602E+03  0.41601512217E+03  0.16500000000E+03 0.  0.
   -5000001    1    1    2    0    0  0.11254654185E+03 -0.28171621856E+02 -0.11262730276E+03  0.23102007204E+03  0.16500000000E+03 0.  0.
<mgrwt>
<rscale>  0 0.43775409E+03</rscale>
<asrwt>0</asrwt>
<pdfrwt beam="1">  1        2 0.13120219E-01 0.43775409E+03</pdfrwt>
<pdfrwt beam="2">  1       -2 0.86423655E-01 0.43775409E+03</pdfrwt>
<totfact> 0.55223768E+02</totfact>
</mgrwt>
</event>
<event>
 4    1  0.8641621E-005  0.6778064E+03  0.7818608E-02  0.9755958E-01
         -2   -1    0    0    0  501 -0.00000000000E+00  0.00000000000E+00  0.28708532279E+02  0.28708532392E+02  0.25500000000E-02 0. -1.
          2   -1    0    0  501    0  0.00000000000E+00 -0.00000000000E+00 -0.40007397342E+04  0.40007397342E+04  0.25500000000E-02 0.  1.
    5000001    1    1    2    0    0 -0.92921773408E+02  0.27709032120E+03 -0.17061113694E+04  0.17388083583E+04  0.16500000000E+03 0.  0.
   -5000001    1    1    2    0    0  0.92921773408E+02 -0.27709032120E+03 -0.22659198325E+04  0.22906399083E+04  0.16500000000E+03 0.  0.
<mgrwt>
<rscale>  0 0.67780636E+03</rscale>
<asrwt>0</asrwt>
<pdfrwt beam="1">  1        2 0.61549798E+00 0.67780636E+03</pdfrwt>
<pdfrwt beam="2">  1       -2 0.44167004E-02 0.67780636E+03</pdfrwt>
<totfact> 0.95320662E+01</totfact>
</mgrwt>
</event>
<event>
 4    1  0.8641621E-005  0.7493550E+03  0.7818608E-02  0.9636363E-01
         -2   -1    0    0    0  501 -0.00000000000E+00  0.00000000000E+00  0.19185686249E+03  0.19185686250E+03  0.25500000000E-02 0. -1.
          2   -1    0    0  501    0  0.00000000000E+00 -0.00000000000E+00 -0.73170814281E+03  0.73170814282E+03  0.25500000000E-02 0.  1.
    5000001    1    1    2    0    0 -0.14223935028E+03  0.28623612007E+03 -0.39916031187E+03  0.53732402122E+03  0.16500000000E+03 0.  0.
   -5000001    1    1    2    0    0  0.14223935028E+03 -0.28623612007E+03 -0.14069096845E+03  0.38624098411E+03  0.16500000000E+03 0.  0.
<mgrwt>
<rscale>  0 0.74935500E+03</rscale>
<asrwt>0</asrwt>
<pdfrwt beam="1">  1        2 0.11257048E+00 0.74935500E+03</pdfrwt>
<pdfrwt beam="2">  1       -2 0.29516441E-01 0.74935500E+03</pdfrwt>
<totfact> 0.41141413E+02</totfact>
</mgrwt>
</event>
<event>
 4    1  0.8641621E-005  0.9997959E+03  0.7818608E-02  0.9308769E-01
          2   -1    0    0  501    0  0.00000000000E+00  0.00000000000E+00  0.34514441426E+04  0.34514441427E+04  0.25500000000E-02 0.  1.
         -2   -1    0    0    0  501 -0.00000000000E+00 -0.00000000000E+00 -0.72403887891E+02  0.72403887936E+02  0.25500000000E-02 0. -1.
    5000001    1    1    2    0    0  0.39418104843E+03  0.21646454782E+03  0.11856502820E+04  0.12787600207E+04  0.16500000000E+03 0.  0.
   -5000001    1    1    2    0    0 -0.39418104843E+03 -0.21646454782E+03  0.21933899728E+04  0.22450880099E+04  0.16500000000E+03 0.  0.
<mgrwt>
<rscale>  0 0.99979593E+03</rscale>
<asrwt>0</asrwt>
<pdfrwt beam="1">  1        2 0.53099138E+00 0.99979593E+03</pdfrwt>
<pdfrwt beam="2">  1       -2 0.11139060E-01 0.99979593E+03</pdfrwt>
<totfact> 0.52547002E+01</totfact>
</mgrwt>
</event>
<event>
 4    1  0.8641621E-005  0.5606082E+03  0.7818608E-02  0.9990680E-01
         -2   -1    0    0    0  501 -0.00000000000E+00  0.00000000000E+00  0.57081997733E+03  0.57081997734E+03  0.25500000000E-02 0. -1.
          2   -1    0    0  501    0  0.00000000000E+00 -0.00000000000E+00 -0.13764475328E+03  0.13764475331E+03  0.25500000000E-02 0.  1.
    5000001    1    1    2    0    0 -0.21235483342E+03 -0.79047595107E+02  0.21849472950E+03  0.35539843048E+03  0.16500000000E+03 0.  0.
   -5000001    1    1    2    0    0  0.21235483342E+03  0.79047595107E+02  0.21468049455E+03  0.35306630016E+03  0.16500000000E+03 0.  0.
<mgrwt>
<rscale>  0 0.56060815E+03</rscale>
<asrwt>0</asrwt>
<pdfrwt beam="1">  1        2 0.21176116E-01 0.56060815E+03</pdfrwt>
<pdfrwt beam="2">  1       -2 0.87818458E-01 0.56060815E+03</pdfrwt>
<totfact> 0.30051350E+02</totfact>
</mgrwt>
</event>
<event>
 4    1  0.8641621E-005  0.4512470E+03  0.7818608E-02  0.1027351E+00
         -2   -1    0    0    0  501 -0.00000000000E+00  0.00000000000E+00  0.40051315439E+02  0.40051315520E+02  0.25500000000E-02 0. -1.
          2   -1    0    0  501    0  0.00000000000E+00 -0.00000000000E+00 -0.12710185704E+04  0.12710185704E+04  0.25500000000E-02 0.  1.
    5000001    1    1    2    0    0  0.12584578808E+03  0.84090425995E+02 -0.53472482385E+03  0.57971027191E+03  0.16500000000E+03 0.  0.
   -5000001    1    1    2    0    0 -0.12584578808E+03 -0.84090425995E+02 -0.69624243109E+03  0.73135961398E+03  0.16500000000E+03 0.  0.
<mgrwt>
<rscale>  0 0.45124701E+03</rscale>
<asrwt>0</asrwt>
<pdfrwt beam="1">  1        2 0.19554129E+00 0.45124701E+03</pdfrwt>
<pdfrwt beam="2">  1       -2 0.61617418E-02 0.45124701E+03</pdfrwt>
<totfact> 0.25873322E+03</totfact>
</mgrwt>
</event>
<event>
 4    1  0.8641621E-005  0.7119024E+03  0.7818608E-02  0.9697091E-01
          2   -1    0    0  501    0  0.00000000000E+00  0.00000000000E+00  0.16264152479E+04  0.16264152479E+04  0.25500000000E-02 0.  1.
         -2   -1    0    0    0  501 -0.00000000000E+00 -0.00000000000E+00 -0.77902163772E+02  0.77902163814E+02  0.25500000000E-02 0. -1.
    5000001    1    1    2    0    0  0.22861247163E+03  0.72605240776E+02  0.12645429246E+04  0.12976243645E+04  0.16500000000E+03 0.  0.
   -5000001    1    1    2    0    0 -0.22861247163E+03 -0.72605240776E+02  0.28397015960E+03  0.40669304729E+03  0.16500000000E+03 0.  0.
<mgrwt>
<rscale>  0 0.71190243E+03</rscale>
<asrwt>0</asrwt>
<pdfrwt beam="1">  1        2 0.25021772E+00 0.71190243E+03</pdfrwt>
<pdfrwt beam="2">  1       -2 0.11984949E-01 0.71190243E+03</pdfrwt>
<totfact> 0.55908664E+02</totfact>
</mgrwt>
</event>
<event>
 4    1  0.8641621E-005  0.4557783E+03  0.7818608E-02  0.1026013E+00
          2   -1    0    0  501    0  0.00000000000E+00  0.00000000000E+00  0.23010459890E+03  0.23010459891E+03  0.25500000000E-02 0.  1.
         -2   -1    0    0    0  501 -0.00000000000E+00 -0.00000000000E+00 -0.22569505615E+03  0.22569505616E+03  0.25500000000E-02 0. -1.
    5000001    1    1    2    0    0 -0.11751333963E+03 -0.59692882127E+02  0.87858328506E+02  0.22872846577E+03  0.16500000000E+03 0.  0.
   -5000001    1    1    2    0    0  0.11751333963E+03  0.59692882127E+02 -0.83448785753E+02  0.22707118930E+03  0.16500000000E+03 0.  0.
<mgrwt>
<rscale>  0 0.45577832E+03</rscale>
<asrwt>0</asrwt>
<pdfrwt beam="1">  1        2 0.35400707E-01 0.45577832E+03</pdfrwt>
<pdfrwt beam="2">  1       -2 0.34722316E-01 0.45577832E+03</pdfrwt>
<totfact> 0.11472008E+03</totfact>
</mgrwt>
</event>
<event>
 4    1  0.8641621E-005  0.5904035E+03  0.7818608E-02  0.9925518E-01
         -2   -1    0    0    0  501 -0.00000000000E+00  0.00000000000E+00  0.19748144208E+02  0.19748144373E+02  0.25500000000E-02 0. -1.
          2   -1    0    0  501    0  0.00000000000E+00 -0.00000000000E+00 -0.44127732774E+04  0.44127732774E+04  0.25500000000E-02 0.  1.
    5000001    1    1    2    0    0 -0.20410565141E+03 -0.11038126437E+03 -0.27817185230E+04  0.27962521492E+04  0.16500000000E+03 0.  0.
   -5000001    1    1    2    0    0  0.20410565141E+03  0.11038126437E+03 -0.16113066101E+04  0.16362692726E+04  0.16500000000E+03 0.  0.
<mgrwt>
<rscale>  0 0.59040353E+03</rscale>
<asrwt>0</asrwt>
<pdfrwt beam="1">  1        2 0.67888741E+00 0.59040353E+03</pdfrwt>
<pdfrwt beam="2">  1       -2 0.30381796E-02 0.59040353E+03</pdfrwt>
<totfact> 0.77018189E+01</totfact>
</mgrwt>
</event>
<event>
 4    1  0.8641621E-005  0.4421045E+03  0.7818608E-02  0.1030103E+00
         -2   -1    0    0    0  501 -0.00000000000E+00  0.00000000000E+00  0.62693792024E+02  0.62693792076E+02  0.25500000000E-02 0. -1.
          2   -1    0    0  501    0  0.00000000000E+00 -0.00000000000E+00 -0.77940885078E+03  0.77940885079E+03  0.25500000000E-02 0.  1.
    5000001    1    1    2    0    0  0.85136961338E+02  0.88532439569E+02 -0.20416845527E+03  0.28982072591E+03  0.16500000000E+03 0.  0.
   -5000001    1    1    2    0    0 -0.85136961338E+02 -0.88532439569E+02 -0.51254660349E+03  0.55228191695E+03  0.16500000000E+03 0.  0.
<mgrwt>
<rscale>  0 0.44210450E+03</rscale>
<asrwt>0</asrwt>
<pdfrwt beam="1">  1        2 0.11990905E+00 0.44210450E+03</pdfrwt>
<pdfrwt beam="2">  1       -2 0.96451993E-02 0.44210450E+03</pdfrwt>
<totfact> 0.25902454E+03</totfact>
</mgrwt>
</event>
<event>
 4    1  0.8641621E-005  0.5517718E+03  0.7818608E-02  0.1001085E+00
          2   -1    0    0  501    0  0.00000000000E+00  0.00000000000E+00  0.39413612100E+04  0.39413612100E+04  0.25500000000E-02 0.  1.
         -2   -1    0    0    0  501 -0.00000000000E+00 -0.00000000000E+00 -0.19311353238E+02  0.19311353406E+02  0.25500000000E-02 0. -1.
    5000001    1    1    2    0    0  0.19041295192E+03  0.10835159426E+03  0.17467783602E+04  0.17681789502E+04  0.16500000000E+03 0.  0.
   -5000001    1    1    2    0    0 -0.19041295192E+03 -0.10835159426E+03  0.21752714965E+04  0.21924936131E+04  0.16500000000E+03 0.  0.
<mgrwt>
<rscale>  0 0.55177176E+03</rscale>
<asrwt>0</asrwt>
<pdfrwt beam="1">  1        2 0.60636204E+00 0.55177176E+03</pdfrwt>
<pdfrwt beam="2">  1       -2 0.29709834E-02 0.55177176E+03</pdfrwt>
<totfact> 0.19869105E+02</totfact>
</mgrwt>
</event>
<event>
 4    1  0.8641621E-005  0.5781091E+03  0.7818608E-02  0.9951893E-01
         -2   -1    0    0    0  501 -0.00000000000E+00  0.00000000000E+00  0.12382507203E+03  0.12382507206E+03  0.25500000000E-02 0.  1.
          2   -1    0    0  501    0  0.00000000000E+00 -0.00000000000E+00 -0.67476274617E+03  0.67476274617E+03  0.25500000000E-02 0. -1.
    5000001    1    1    2    0    0  0.30871167444E+02 -0.23174172808E+03 -0.33192463393E+03  0.43824219345E+03  0.16500000000E+03 0.  0.
   -5000001    1    1    2    0    0 -0.30871167444E+02  0.23174172808E+03 -0.21901304021E+03  0.36034562477E+03  0.16500000000E+03 0.  0.
<mgrwt>
<rscale>  0 0.57810914E+03</rscale>
<asrwt>0</asrwt>
<pdfrwt beam="1">  1        2 0.10380965E+00 0.57810914E+03</pdfrwt>
<pdfrwt beam="2">  1       -2 0.19050011E-01 0.57810914E+03</pdfrwt>
<totfact> 0.10012781E+03</totfact>
</mgrwt>
</event>
<event>
 4    1  0.8641621E-005  0.6041269E+03  0.7818608E-02  0.9896881E-01
         -2   -1    0    0    0  501 -0.00000000000E+00  0.00000000000E+00  0.91910695368E+02  0.91910695403E+02  0.25500000000E-02 0. -1.
          2   -1    0    0  501    0  0.00000000000E+00 -0.00000000000E+00 -0.99272797088E+03  0.99272797088E+03  0.25500000000E-02 0.  1.
    5000001    1    1    2    0    0  0.13227752394E+03 -0.18549728803E+03 -0.25282903441E+03  0.37822494345E+03  0.16500000000E+03 0.  0.
   -5000001    1    1    2    0    0 -0.13227752394E+03  0.18549728803E+03 -0.64798824110E+03  0.70641372284E+03  0.16500000000E+03 0.  0.
<mgrwt>
<rscale>  0 0.60412687E+03</rscale>
<asrwt>0</asrwt>
<pdfrwt beam="1">  1        2 0.15272737E+00 0.60412687E+03</pdfrwt>
<pdfrwt beam="2">  1       -2 0.14140108E-01 0.60412687E+03</pdfrwt>
<totfact> 0.99330891E+02</totfact>
</mgrwt>
</event>
<event>
 4    1  0.8641621E-005  0.6156250E+03  0.7818608E-02  0.9873509E-01
          2   -1    0    0  501    0  0.00000000000E+00  0.00000000000E+00  0.26817465390E+04  0.26817465390E+04  0.25500000000E-02 0.  1.
         -2   -1    0    0    0  501 -0.00000000000E+00 -0.00000000000E+00 -0.35330908078E+02  0.35330908170E+02  0.25500000000E-02 0. -1.
    5000001    1    1    2    0    0 -0.24402402993E+03 -0.56966219992E+02  0.16267693721E+04  0.16542056908E+04  0.16500000000E+03 0.  0.
   -5000001    1    1    2    0    0  0.24402402993E+03  0.56966219992E+02  0.10196462588E+04  0.10628717564E+04  0.16500000000E+03 0.  0.
<mgrwt>
<rscale>  0 0.61562502E+03</rscale>
<asrwt>0</asrwt>
<pdfrwt beam="1">  1        2 0.41257668E+00 0.61562502E+03</pdfrwt>
<pdfrwt beam="2">  1       -2 0.54355206E-02 0.61562502E+03</pdfrwt>
<totfact> 0.52171608E+02</totfact>
</mgrwt>
</event>
<event>
 4    1  0.8641621E-005  0.4515252E+03  0.7818608E-02  0.1027268E+00
          2   -1    0    0  501    0  0.00000000000E+00  0.00000000000E+00  0.72994232435E+02  0.72994232479E+02  0.25500000000E-02 0.  1.
         -2   -1    0    0    0  501 -0.00000000000E+00 -0.00000000000E+00 -0.69825713829E+03  0.69825713830E+03  0.25500000000E-02 0. -1.
    5000001    1    1    2    0    0 -0.34820714169E+02 -0.81561030883E+02 -0.52787313760E+03  0.56012474798E+03  0.16500000000E+03 0.  0.
   -5000001    1    1    2    0    0  0.34820714169E+02  0.81561030883E+02 -0.97389768255E+02  0.21112662280E+03  0.16500000000E+03 0.  0.
<mgrwt>
<rscale>  0 0.45152517E+03</rscale>
<asrwt>0</asrwt>
<pdfrwt beam="1">  1        2 0.11229882E-01 0.45152517E+03</pdfrwt>
<pdfrwt beam="2">  1       -2 0.10742417E+00 0.45152517E+03</pdfrwt>
<totfact> 0.40345732E+02</totfact>
</mgrwt>
</event>
<event>
 4    1  0.8641621E-005  0.7072023E+03  0.7818608E-02  0.9704994E-01
          2   -1    0    0  501    0  0.00000000000E+00  0.00000000000E+00  0.24087311550E+04  0.24087311550E+04  0.25500000000E-02 0.  1.
         -2   -1    0    0    0  501 -0.00000000000E+00 -0.00000000000E+00 -0.51908560250E+02  0.51908560313E+02  0.25500000000E-02 0. -1.
    5000001    1    1    2    0    0  0.54867066769E+02 -0.26536722910E+03  0.17216726403E+04  0.17506604016E+04  0.16500000000E+03 0.  0.
   -5000001    1    1    2    0    0 -0.54867066769E+02  0.26536722910E+03  0.63514995445E+03  0.70997931373E+03  0.16500000000E+03 0.  0.
<mgrwt>
<rscale>  0 0.70720228E+03</rscale>
<asrwt>0</asrwt>
<pdfrwt beam="1">  1        2 0.37057402E+00 0.70720228E+03</pdfrwt>
<pdfrwt beam="2">  1       -2 0.79859325E-02 0.70720228E+03</pdfrwt>
<totfact> 0.40286463E+02</totfact>
</mgrwt>
</event>
<event>
 4    1  0.8641621E-005  0.4308770E+03  0.7818608E-02  0.1033583E+00
         -2   -1    0    0    0  501 -0.00000000000E+00  0.00000000000E+00  0.45508765999E+02  0.45508766071E+02  0.25500000000E-02 0. -1.
          2   -1    0    0  501    0  0.00000000000E+00 -0.00000000000E+00 -0.10198857869E+04  0.10198857869E+04  0.25500000000E-02 0.  1.
    5000001    1    1    2    0    0  0.73517533498E+02 -0.42360750979E+02 -0.21644540905E+03  0.28508398070E+03  0.16500000000E+03 0.  0.
   -5000001    1    1    2    0    0 -0.73517533498E+02  0.42360750979E+02 -0.75793161188E+03  0.78031057230E+03  0.16500000000E+03 0.  0.
<mgrwt>
<rscale>  0 0.43087698E+03</rscale>
<asrwt>0</asrwt>
<pdfrwt beam="1">  1        2 0.15690549E+00 0.43087698E+03</pdfrwt>
<pdfrwt beam="2">  1       -2 0.70013494E-02 0.43087698E+03</pdfrwt>
<totfact> 0.29833143E+03</totfact>
</mgrwt>
</event>
<event>
 4    1  0.8641621E-005  0.5271351E+03  0.7818608E-02  0.1006929E+00
         -2   -1    0    0    0  501 -0.00000000000E+00  0.00000000000E+00  0.70705313003E+03  0.70705313004E+03  0.25500000000E-02 0. -1.
          2   -1    0    0  501    0  0.00000000000E+00 -0.00000000000E+00 -0.98249845095E+02  0.98249845129E+02  0.25500000000E-02 0.  1.
    5000001    1    1    2    0    0  0.18892057371E+02  0.18865940845E+03  0.18320623433E+03  0.31102862653E+03  0.16500000000E+03 0.  0.
   -5000001    1    1    2    0    0 -0.18892057371E+02 -0.18865940845E+03  0.42559705061E+03  0.49427434863E+03  0.16500000000E+03 0.  0.
<mgrwt>
<rscale>  0 0.52713513E+03</rscale>
<asrwt>0</asrwt>
<pdfrwt beam="1">  1        2 0.15115361E-01 0.52713513E+03</pdfrwt>
<pdfrwt beam="2">  1       -2 0.10877741E+00 0.52713513E+03</pdfrwt>
<totfact> 0.27162818E+02</totfact>
</mgrwt>
</event>
<event>
 4    1  0.8641621E-005  0.5529591E+03  0.7818608E-02  0.1000811E+00
         -2   -1    0    0    0  501 -0.00000000000E+00  0.00000000000E+00  0.35347744725E+02  0.35347744817E+02  0.25500000000E-02 0. -1.
          2   -1    0    0  501    0  0.00000000000E+00 -0.00000000000E+00 -0.21625409315E+04  0.21625409315E+04  0.25500000000E-02 0.  1.
    5000001    1    1    2    0    0  0.21146853118E+03  0.15200311464E+02 -0.13232062520E+04  0.13502036048E+04  0.16500000000E+03 0.  0.
   -5000001    1    1    2    0    0 -0.21146853118E+03 -0.15200311464E+02 -0.80398693480E+03  0.84768507152E+03  0.16500000000E+03 0.  0.
<mgrwt>
<rscale>  0 0.55295911E+03</rscale>
<asrwt>0</asrwt>
<pdfrwt beam="1">  1        2 0.33269850E+00 0.55295911E+03</pdfrwt>
<pdfrwt beam="2">  1       -2 0.54381163E-02 0.55295911E+03</pdfrwt>
<totfact> 0.10221832E+03</totfact>
</mgrwt>
</event>
<event>
 4    1  0.8641621E-005  0.5782547E+03  0.7818608E-02  0.9951577E-01
         -2   -1    0    0    0  501 -0.00000000000E+00  0.00000000000E+00  0.37987160794E+03  0.37987160795E+03  0.25500000000E-02 0. -1.
          2   -1    0    0  501    0  0.00000000000E+00 -0.00000000000E+00 -0.22006017342E+03  0.22006017344E+03  0.25500000000E-02 0.  1.
    5000001    1    1    2    0    0 -0.11524598831E+03  0.26666378391E+02  0.29347914189E+03  0.35685815148E+03  0.16500000000E+03 0.  0.
   -5000001    1    1    2    0    0  0.11524598831E+03 -0.26666378391E+02 -0.13366770737E+03  0.24307362990E+03  0.16500000000E+03 0.  0.
<mgrwt>
<rscale>  0 0.57825466E+03</rscale>
<asrwt>0</asrwt>
<pdfrwt beam="1">  1        2 0.33855412E-01 0.57825466E+03</pdfrwt>
<pdfrwt beam="2">  1       -2 0.58441785E-01 0.57825466E+03</pdfrwt>
<totfact> 0.42907597E+02</totfact>
</mgrwt>
</event>
<event>
 4    1  0.8641621E-005  0.4061020E+03  0.7818608E-02  0.1041687E+00
         -2   -1    0    0    0  501 -0.00000000000E+00  0.00000000000E+00  0.92948011544E+02  0.92948011579E+02  0.25500000000E-02 0. -1.
          2   -1    0    0  501    0  0.00000000000E+00 -0.00000000000E+00 -0.44357825232E+03  0.44357825233E+03  0.25500000000E-02 0.  1.
    5000001    1    1    2    0    0  0.21255309249E+02  0.10377718540E+03 -0.10561558098E+03  0.22271314134E+03  0.16500000000E+03 0.  0.
   -5000001    1    1    2    0    0 -0.21255309249E+02 -0.10377718540E+03 -0.24501465979E+03  0.31381312257E+03  0.16500000000E+03 0.  0.
<mgrwt>
<rscale>  0 0.40610204E+03</rscale>
<asrwt>0</asrwt>
<pdfrwt beam="1">  1        2 0.68242807E-01 0.40610204E+03</pdfrwt>
<pdfrwt beam="2">  1       -2 0.14299694E-01 0.40610204E+03</pdfrwt>
<totfact> 0.26553911E+03</totfact>
</mgrwt>
</event>
<event>
 4    1  0.8641621E-005  0.5030560E+03  0.7818608E-02  0.1012984E+00
         -2   -1    0    0    0  501 -0.00000000000E+00  0.00000000000E+00  0.55578819018E+02  0.55578819077E+02  0.25500000000E-02 0. -1.
          2   -1    0    0  501    0  0.00000000000E+00 -0.00000000000E+00 -0.11383173792E+04  0.11383173792E+04  0.25500000000E-02 0.  1.
    5000001    1    1    2    0    0  0.74317710436E+02  0.16832135155E+03 -0.65233500066E+03  0.69758236256E+03  0.16500000000E+03 0.  0.
   -5000001    1    1    2    0    0 -0.74317710436E+02 -0.16832135155E+03 -0.43040355950E+03  0.49631383569E+03  0.16500000000E+03 0.  0.
<mgrwt>
<rscale>  0 0.50305600E+03</rscale>
<asrwt>0</asrwt>
<pdfrwt beam="1">  1        2 0.17512573E+00 0.50305600E+03</pdfrwt>
<pdfrwt beam="2">  1       -2 0.85505885E-02 0.50305600E+03</pdfrwt>
<totfact> 0.18424546E+03</totfact>
</mgrwt>
</event>
<event>
 4    1  0.8641621E-005  0.1172609E+04  0.7818608E-02  0.9137176E-01
          2   -1    0    0  501    0  0.00000000000E+00  0.00000000000E+00  0.24507392908E+04  0.24507392908E+04  0.25500000000E-02 0.  1.
         -2   -1    0    0    0  501 -0.00000000000E+00 -0.00000000000E+00 -0.14026495264E+03  0.14026495266E+03  0.25500000000E-02 0. -1.
    5000001    1    1    2    0    0 -0.23469004658E+03  0.50743923965E+03  0.12941761219E+04  0.14193980535E+04  0.16500000000E+03 0.  0.
   -5000001    1    1    2    0    0  0.23469004658E+03 -0.50743923965E+03  0.10162982163E+04  0.11716061899E+04  0.16500000000E+03 0.  0.
<mgrwt>
<rscale>  0 0.11726088E+04</rscale>
<asrwt>0</asrwt>
<pdfrwt beam="1">  1        2 0.37703679E+00 0.11726088E+04</pdfrwt>
<pdfrwt beam="2">  1       -2 0.21579225E-01 0.11726088E+04</pdfrwt>
<totfact> 0.69095577E+01</totfact>
</mgrwt>
</event>
<event>
 4    1  0.8641621E-005  0.4316453E+03  0.7818608E-02  0.1033341E+00
          2   -1    0    0  501    0  0.00000000000E+00  0.00000000000E+00  0.30126969218E+03  0.30126969219E+03  0.25500000000E-02 0.  1.
         -2   -1    0    0    0  501 -0.00000000000E+00 -0.00000000000E+00 -0.15461037718E+03  0.15461037720E+03  0.25500000000E-02 0. -1.
    5000001    1    1    2    0    0 -0.81326212628E+02  0.10070085382E+03  0.19478625188E+02  0.21061583905E+03  0.16500000000E+03 0.  0.
   -5000001    1    1    2    0    0  0.81326212628E+02 -0.10070085382E+03  0.12718068981E+03  0.24526423033E+03  0.16500000000E+03 0.  0.
<mgrwt>
<rscale>  0 0.43164532E+03</rscale>
<asrwt>0</asrwt>
<pdfrwt beam="1">  1        2 0.46349183E-01 0.43164532E+03</pdfrwt>
<pdfrwt beam="2">  1       -2 0.23786212E-01 0.43164532E+03</pdfrwt>
<totfact> 0.17017658E+03</totfact>
</mgrwt>
</event>
<event>
 4    1  0.8641621E-005  0.8149919E+03  0.7818608E-02  0.9538567E-01
         -2   -1    0    0    0  501 -0.00000000000E+00  0.00000000000E+00  0.19138250160E+03  0.19138250162E+03  0.25500000000E-02 0. -1.
          2   -1    0    0  501    0  0.00000000000E+00 -0.00000000000E+00 -0.86764961392E+03  0.86764961393E+03  0.25500000000E-02 0.  1.
    5000001    1    1    2    0    0 -0.48029753064E+02  0.32206837232E+03 -0.10282007745E+03  0.37925171318E+03  0.16500000000E+03 0.  0.
   -5000001    1    1    2    0    0  0.48029753064E+02 -0.32206837232E+03 -0.57344703488E+03  0.67978040236E+03  0.16500000000E+03 0.  0.
<mgrwt>
<rscale>  0 0.81499191E+03</rscale>
<asrwt>0</asrwt>
<pdfrwt beam="1">  1        2 0.13348455E+00 0.81499191E+03</pdfrwt>
<pdfrwt beam="2">  1       -2 0.29443462E-01 0.81499191E+03</pdfrwt>
<totfact> 0.32889871E+02</totfact>
</mgrwt>
</event>
<event>
 4    1  0.8641621E-005  0.4423656E+03  0.7818608E-02  0.1030023E+00
         -2   -1    0    0    0  501 -0.00000000000E+00  0.00000000000E+00  0.31576726091E+02  0.31576726194E+02  0.25500000000E-02 0. -1.
          2   -1    0    0  501    0  0.00000000000E+00 -0.00000000000E+00 -0.15493002130E+04  0.15493002130E+04  0.25500000000E-02 0.  1.
    5000001    1    1    2    0    0  0.61987523475E+02 -0.13361457688E+03 -0.75445533962E+03  0.78620809440E+03  0.16500000000E+03 0.  0.
   -5000001    1    1    2    0    0 -0.61987523475E+02  0.13361457688E+03 -0.76326814733E+03  0.79466884484E+03  0.16500000000E+03 0.  0.
<mgrwt>
<rscale>  0 0.44236559E+03</rscale>
<asrwt>0</asrwt>
<pdfrwt beam="1">  1        2 0.23835382E+00 0.44236559E+03</pdfrwt>
<pdfrwt beam="2">  1       -2 0.48579591E-02 0.44236559E+03</pdfrwt>
<totfact> 0.26208542E+03</totfact>
</mgrwt>
</event>
<event>
 4    1  0.8641621E-005  0.4681774E+03  0.7818608E-02  0.1022436E+00
          2   -1    0    0  501    0  0.00000000000E+00  0.00000000000E+00  0.21940780042E+04  0.21940780042E+04  0.25500000000E-02 0.  1.
         -2   -1    0    0    0  501 -0.00000000000E+00 -0.00000000000E+00 -0.24975194140E+02  0.24975194271E+02  0.25500000000E-02 0. -1.
    5000001    1    1    2    0    0 -0.79773009052E+02  0.14020174388E+03  0.89781035155E+03  0.92698904487E+03  0.16500000000E+03 0.  0.
   -5000001    1    1    2    0    0  0.79773009052E+02 -0.14020174388E+03  0.12712924586E+04  0.12920641536E+04  0.16500000000E+03 0.  0.
<mgrwt>
<rscale>  0 0.46817742E+03</rscale>
<asrwt>0</asrwt>
<pdfrwt beam="1">  1        2 0.33755055E+00 0.46817742E+03</pdfrwt>
<pdfrwt beam="2">  1       -2 0.38423366E-02 0.46817742E+03</pdfrwt>
<totfact> 0.16871971E+03</totfact>
</mgrwt>
</event>
<event>
 4    1  0.8641621E-005  0.5667583E+03  0.7818608E-02  0.9976878E-01
         -2   -1    0    0    0  501 -0.00000000000E+00  0.00000000000E+00  0.11635070991E+03  0.11635070994E+03  0.25500000000E-02 0. -1.
          2   -1    0    0  501    0  0.00000000000E+00 -0.00000000000E+00 -0.69018700014E+03  0.69018700014E+03  0.25500000000E-02 0.  1.
    5000001    1    1    2    0    0 -0.15158413122E+03 -0.29718023180E+02 -0.43669285897E+02  0.23020190327E+03  0.16500000000E+03 0.  0.
   -5000001    1    1    2    0    0  0.15158413122E+03  0.29718023180E+02 -0.53016700433E+03  0.57633580681E+03  0.16500000000E+03 0.  0.
<mgrwt>
<rscale>  0 0.56675832E+03</rscale>
<asrwt>0</asrwt>
<pdfrwt beam="1">  1        2 0.10618261E+00 0.56675832E+03</pdfrwt>
<pdfrwt beam="2">  1       -2 0.17900110E-01 0.56675832E+03</pdfrwt>
<totfact> 0.10840283E+03</totfact>
</mgrwt>
</event>
<event>
 4    1  0.8641621E-005  0.5480252E+03  0.7818608E-02  0.1001952E+00
          2   -1    0    0  501    0  0.00000000000E+00  0.00000000000E+00  0.71292940289E+03  0.71292940290E+03  0.25500000000E-02 0.  1.
         -2   -1    0    0    0  501 -0.00000000000E+00 -0.00000000000E+00 -0.10531606157E+03  0.10531606160E+03  0.25500000000E-02 0. -1.
    5000001    1    1    2    0    0 -0.13748032278E+02 -0.95264371262E+02  0.10487307059E+02  0.19130941543E+03  0.16500000000E+03 0.  0.
   -5000001    1    1    2    0    0  0.13748032278E+02  0.95264371262E+02  0.59712603426E+03  0.62693604907E+03  0.16500000000E+03 0.  0.
<mgrwt>
<rscale>  0 0.54802524E+03</rscale>
<asrwt>0</asrwt>
<pdfrwt beam="1">  1        2 0.10968145E+00 0.54802524E+03</pdfrwt>
<pdfrwt beam="2">  1       -2 0.16202470E-01 0.54802524E+03</pdfrwt>
<totfact> 0.12340837E+03</totfact>
</mgrwt>
</event>
<event>
 4    1  0.8641621E-005  0.5209759E+03  0.7818608E-02  0.1008444E+00
         -2   -1    0    0    0  501 -0.00000000000E+00  0.00000000000E+00  0.54436537678E+02  0.54436537738E+02  0.25500000000E-02 0.  1.
          2   -1    0    0  501    0  0.00000000000E+00 -0.00000000000E+00 -0.12464785923E+04  0.12464785923E+04  0.25500000000E-02 0. -1.
    5000001    1    1    2    0    0  0.10170071018E+03  0.34260713276E+02 -0.16996331185E+03  0.26005645214E+03  0.16500000000E+03 0.  0.
   -5000001    1    1    2    0    0 -0.10170071018E+03 -0.34260713276E+02 -0.10220787428E+04  0.10408586779E+04  0.16500000000E+03 0.  0.
<mgrwt>
<rscale>  0 0.52097593E+03</rscale>
<asrwt>0</asrwt>
<pdfrwt beam="1">  1        2 0.19176592E+00 0.52097593E+03</pdfrwt>
<pdfrwt beam="2">  1       -2 0.83748529E-02 0.52097593E+03</pdfrwt>
<totfact> 0.16455894E+03</totfact>
</mgrwt>
</event>
<event>
 4    1  0.8641621E-005  0.3461738E+03  0.7818608E-02  0.1064197E+00
         -2   -1    0    0    0  501 -0.00000000000E+00  0.00000000000E+00  0.18195963596E+02  0.18195963775E+02  0.25500000000E-02 0. -1.
          2   -1    0    0  501    0  0.00000000000E+00 -0.00000000000E+00 -0.16464681559E+04  0.16464681559E+04  0.25500000000E-02 0.  1.
    5000001    1    1    2    0    0  0.26993187861E+02  0.28730701489E+02 -0.64895076677E+03  0.67075791691E+03  0.16500000000E+03 0.  0.
   -5000001    1    1    2    0    0 -0.26993187861E+02 -0.28730701489E+02 -0.97932142555E+03  0.99390620279E+03  0.16500000000E+03 0.  0.
<mgrwt>
<rscale>  0 0.34617380E+03</rscale>
<asrwt>0</asrwt>
<pdfrwt beam="1">  1        2 0.25330267E+00 0.34617380E+03</pdfrwt>
<pdfrwt beam="2">  1       -2 0.27993803E-02 0.34617380E+03</pdfrwt>
<totfact> 0.53636851E+03</totfact>
</mgrwt>
</event>
<event>
 4    1  0.8641621E-005  0.7818798E+03  0.7818608E-02  0.9586622E-01
          2   -1    0    0  501    0  0.00000000000E+00  0.00000000000E+00  0.26523244975E+04  0.26523244975E+04  0.25500000000E-02 0.  1.
         -2   -1    0    0    0  501 -0.00000000000E+00 -0.00000000000E+00 -0.57622667525E+02  0.57622667582E+02  0.25500000000E-02 0. -1.
    5000001    1    1    2    0    0  0.21824524823E+03  0.27783795816E+03  0.12002988638E+04  0.12620488429E+04  0.16500000000E+03 0.  0.
   -5000001    1    1    2    0    0 -0.21824524823E+03 -0.27783795816E+03  0.13944029661E+04  0.14478983222E+04  0.16500000000E+03 0.  0.
<mgrwt>
<rscale>  0 0.78187982E+03</rscale>
<asrwt>0</asrwt>
<pdfrwt beam="1">  1        2 0.40804998E+00 0.78187982E+03</pdfrwt>
<pdfrwt beam="2">  1       -2 0.88650244E-02 0.78187982E+03</pdfrwt>
<totfact> 0.24586669E+02</totfact>
</mgrwt>
</event>
<event>
 4    1  0.8641621E-005  0.6459367E+03  0.7818608E-02  0.9814434E-01
         -2   -1    0    0    0  501 -0.00000000000E+00  0.00000000000E+00  0.16789867140E+03  0.16789867142E+03  0.25500000000E-02 0. -1.
          2   -1    0    0  501    0  0.00000000000E+00 -0.00000000000E+00 -0.62125888029E+03  0.62125888030E+03  0.25500000000E-02 0.  1.
    5000001    1    1    2    0    0  0.13872100237E+03  0.22673088146E+03 -0.32467083625E+03  0.45087310966E+03  0.16500000000E+03 0.  0.
   -5000001    1    1    2    0    0 -0.13872100237E+03 -0.22673088146E+03 -0.12868937264E+03  0.33828444206E+03  0.16500000000E+03 0.  0.
<mgrwt>
<rscale>  0 0.64593666E+03</rscale>
<asrwt>0</asrwt>
<pdfrwt beam="1">  1        2 0.95578288E-01 0.64593666E+03</pdfrwt>
<pdfrwt beam="2">  1       -2 0.25830565E-01 0.64593666E+03</pdfrwt>
<totfact> 0.64577712E+02</totfact>
</mgrwt>
</event>
<event>
 4    1  0.8641621E-005  0.4997575E+03  0.7818608E-02  0.1013842E+00
          2   -1    0    0  501    0  0.00000000000E+00  0.00000000000E+00  0.58298015412E+03  0.58298015413E+03  0.25500000000E-02 0.  1.
         -2   -1    0    0    0  501 -0.00000000000E+00 -0.00000000000E+00 -0.10710378805E+03  0.10710378808E+03  0.25500000000E-02 0. -1.
    5000001    1    1    2    0    0 -0.78662993842E+02 -0.15981674254E+03  0.31945586281E+03  0.40125591096E+03  0.16500000000E+03 0.  0.
   -5000001    1    1    2    0    0  0.78662993842E+02  0.15981674254E+03  0.15642050326E+03  0.28882803125E+03  0.16500000000E+03 0.  0.
<mgrwt>
<rscale>  0 0.49975747E+03</rscale>
<asrwt>0</asrwt>
<pdfrwt beam="1">  1        2 0.89689252E-01 0.49975747E+03</pdfrwt>
<pdfrwt beam="2">  1       -2 0.16477506E-01 0.49975747E+03</pdfrwt>
<totfact> 0.15326401E+03</totfact>
</mgrwt>
</event>
<event>
 4    1  0.8641621E-005  0.1379041E+04  0.7818608E-02  0.8969131E-01
         -2   -1    0    0    0  501 -0.00000000000E+00  0.00000000000E+00  0.63567491620E+03  0.63567491621E+03  0.25500000000E-02 0. -1.
          2   -1    0    0  501    0  0.00000000000E+00 -0.00000000000E+00 -0.74792698607E+03  0.74792698607E+03  0.25500000000E-02 0.  1.
    5000001    1    1    2    0    0  0.19651672065E+03 -0.62751938240E+03 -0.18229578989E+03  0.70203714417E+03  0.16500000000E+03 0.  0.
   -5000001    1    1    2    0    0 -0.19651672065E+03  0.62751938240E+03  0.70043720028E+02  0.68156475811E+03  0.16500000000E+03 0.  0.
<mgrwt>
<rscale>  0 0.13790409E+04</rscale>
<asrwt>0</asrwt>
<pdfrwt beam="1">  1        2 0.11506569E+00 0.13790409E+04</pdfrwt>
<pdfrwt beam="2">  1       -2 0.97796141E-01 0.13790409E+04</pdfrwt>
<totfact> 0.31948883E+01</totfact>
</mgrwt>
</event>
<event>
 4    1  0.8641621E-005  0.5183853E+03  0.7818608E-02  0.1009088E+00
          2   -1    0    0  501    0  0.00000000000E+00  0.00000000000E+00  0.13899029990E+04  0.13899029990E+04  0.25500000000E-02 0.  1.
         -2   -1    0    0    0  501 -0.00000000000E+00 -0.00000000000E+00 -0.48334913046E+02  0.48334913113E+02  0.25500000000E-02 0. -1.
    5000001    1    1    2    0    0 -0.96483838185E+02 -0.13777344888E+03  0.97044065256E+03  0.99863442480E+03  0.16500000000E+03 0.  0.
   -5000001    1    1    2    0    0  0.96483838185E+02  0.13777344888E+03  0.37112743341E+03  0.43960348733E+03  0.16500000000E+03 0.  0.
<mgrwt>
<rscale>  0 0.51838534E+03</rscale>
<asrwt>0</asrwt>
<pdfrwt beam="1">  1        2 0.21383122E+00 0.51838534E+03</pdfrwt>
<pdfrwt beam="2">  1       -2 0.74361410E-02 0.51838534E+03</pdfrwt>
<totfact> 0.16482270E+03</totfact>
</mgrwt>
</event>
<event>
 4    1  0.8641621E-005  0.4281328E+03  0.7818608E-02  0.1034451E+00
         -2   -1    0    0    0  501 -0.00000000000E+00  0.00000000000E+00  0.86868966705E+02  0.86868966742E+02  0.25500000000E-02 0. -1.
          2   -1    0    0  501    0  0.00000000000E+00 -0.00000000000E+00 -0.52751191000E+03  0.52751191001E+03  0.25500000000E-02 0.  1.
    5000001    1    1    2    0    0  0.98424593047E+02 -0.90134031767E+02 -0.18004173593E+03  0.27830122327E+03  0.16500000000E+03 0.  0.
   -5000001    1    1    2    0    0 -0.98424593047E+02  0.90134031767E+02 -0.26060120737E+03  0.33607965348E+03  0.16500000000E+03 0.  0.
<mgrwt>
<rscale>  0 0.42813276E+03</rscale>
<asrwt>0</asrwt>
<pdfrwt beam="1">  1        2 0.81155677E-01 0.42813276E+03</pdfrwt>
<pdfrwt beam="2">  1       -2 0.13364457E-01 0.42813276E+03</pdfrwt>
<totfact> 0.24424143E+03</totfact>
</mgrwt>
</event>
<event>
 4    1  0.8641621E-005  0.4647607E+03  0.7818608E-02  0.1023409E+00
         -2   -1    0    0    0  501 -0.00000000000E+00  0.00000000000E+00  0.24794260340E+02  0.24794260472E+02  0.25500000000E-02 0. -1.
          2   -1    0    0  501    0  0.00000000000E+00 -0.00000000000E+00 -0.21779489868E+04  0.21779489868E+04  0.25500000000E-02 0.  1.
    5000001    1    1    2    0    0 -0.11229134985E+03  0.92839318095E+02 -0.72358173030E+03  0.75632268686E+03  0.16500000000E+03 0.  0.
   -5000001    1    1    2    0    0  0.11229134985E+03 -0.92839318095E+02 -0.14295729962E+04  0.14464205604E+04  0.16500000000E+03 0.  0.
<mgrwt>
<rscale>  0 0.46476073E+03</rscale>
<asrwt>0</asrwt>
<pdfrwt beam="1">  1        2 0.33506892E+00 0.46476073E+03</pdfrwt>
<pdfrwt beam="2">  1       -2 0.38145033E-02 0.46476073E+03</pdfrwt>
<totfact> 0.17410758E+03</totfact>
</mgrwt>
</event>
<event>
 4    1  0.8641621E-005  0.4939979E+03  0.7818608E-02  0.1015358E+00
          2   -1    0    0  501    0  0.00000000000E+00  0.00000000000E+00  0.57548162401E+03  0.57548162402E+03  0.25500000000E-02 0.  1.
         -2   -1    0    0    0  501 -0.00000000000E+00 -0.00000000000E+00 -0.10601289912E+03  0.10601289915E+03  0.25500000000E-02 0. -1.
    5000001    1    1    2    0    0  0.66133605119E+02  0.17116124334E+03  0.22002740613E+03  0.33061591673E+03  0.16500000000E+03 0.  0.
   -5000001    1    1    2    0    0 -0.66133605119E+02 -0.17116124334E+03  0.24944131877E+03  0.35087860644E+03  0.16500000000E+03 0.  0.
<mgrwt>
<rscale>  0 0.49399788E+03</rscale>
<asrwt>0</asrwt>
<pdfrwt beam="1">  1        2 0.88535635E-01 0.49399788E+03</pdfrwt>
<pdfrwt beam="2">  1       -2 0.16309677E-01 0.49399788E+03</pdfrwt>
<totfact> 0.15834517E+03</totfact>
</mgrwt>
</event>
<event>
 4    1  0.8641621E-005  0.5353757E+03  0.7818608E-02  0.1004937E+00
          2   -1    0    0  501    0  0.00000000000E+00  0.00000000000E+00  0.36790788295E+02  0.36790788383E+02  0.25500000000E-02 0.  1.
         -2   -1    0    0    0  501 -0.00000000000E+00 -0.00000000000E+00 -0.19476828092E+04  0.19476828092E+04  0.25500000000E-02 0. -1.
    5000001    1    1    2    0    0 -0.62802108589E+02  0.20120048283E+03 -0.94633112351E+03  0.98345987943E+03  0.16500000000E+03 0.  0.
   -5000001    1    1    2    0    0  0.62802108589E+02 -0.20120048283E+03 -0.96456089735E+03  0.10010137181E+04  0.16500000000E+03 0.  0.
<mgrwt>
<rscale>  0 0.53537570E+03</rscale>
<asrwt>0</asrwt>
<pdfrwt beam="1">  1        2 0.56601228E-02 0.53537570E+03</pdfrwt>
<pdfrwt beam="2">  1       -2 0.29964343E+00 0.53537570E+03</pdfrwt>
<totfact> 0.47488057E+01</totfact>
</mgrwt>
</event>
<event>
 4    1  0.8641621E-005  0.8074330E+03  0.7818608E-02  0.9549320E-01
          2   -1    0    0  501    0  0.00000000000E+00  0.00000000000E+00  0.42354402066E+03  0.42354402067E+03  0.25500000000E-02 0.  1.
         -2   -1    0    0    0  501 -0.00000000000E+00 -0.00000000000E+00 -0.38481721528E+03  0.38481721529E+03  0.25500000000E-02 0. -1.
    5000001    1    1    2    0    0 -0.32680546135E+03  0.16872530650E+03 -0.28429874159E+01  0.40311675877E+03  0.16500000000E+03 0.  0.
   -5000001    1    1    2    0    0  0.32680546135E+03 -0.16872530650E+03  0.41569792796E+02  0.40524447719E+03  0.16500000000E+03 0.  0.
<mgrwt>
<rscale>  0 0.80743305E+03</rscale>
<asrwt>0</asrwt>
<pdfrwt beam="1">  1        2 0.65160618E-01 0.80743305E+03</pdfrwt>
<pdfrwt beam="2">  1       -2 0.59202649E-01 0.80743305E+03</pdfrwt>
<totfact> 0.20002440E+02</totfact>
</mgrwt>
</event>
<event>
 4    1  0.8641621E-005  0.7554681E+03  0.7818608E-02  0.9626811E-01
         -2   -1    0    0    0  501 -0.00000000000E+00  0.00000000000E+00  0.11336399642E+04  0.11336399642E+04  0.25500000000E-02 0. -1.
          2   -1    0    0  501    0  0.00000000000E+00 -0.00000000000E+00 -0.12586273059E+03  0.12586273062E+03  0.25500000000E-02 0.  1.
    5000001    1    1    2    0    0 -0.57538790495E+02  0.23593882756E+03  0.10767354882E+03  0.31272421697E+03  0.16500000000E+03 0.  0.
   -5000001    1    1    2    0    0  0.57538790495E+02 -0.23593882756E+03  0.90010368477E+03  0.94677847784E+03  0.16500000000E+03 0.  0.
<mgrwt>
<rscale>  0 0.75546812E+03</rscale>
<asrwt>0</asrwt>
<pdfrwt beam="1">  1        2 0.19363498E-01 0.75546812E+03</pdfrwt>
<pdfrwt beam="2">  1       -2 0.17440614E+00 0.75546812E+03</pdfrwt>
<totfact> 0.59327587E+01</totfact>
</mgrwt>
</event>
<event>
 4    1  0.8641621E-005  0.6035840E+03  0.7818608E-02  0.9897998E-01
          2   -1    0    0  501    0  0.00000000000E+00  0.00000000000E+00  0.36280537475E+03  0.36280537476E+03  0.25500000000E-02 0.  1.
         -2   -1    0    0    0  501 -0.00000000000E+00 -0.00000000000E+00 -0.25103927798E+03  0.25103927799E+03  0.25500000000E-02 0. -1.
    5000001    1    1    2    0    0 -0.82464792078E+02  0.16162008951E+03  0.23474753235E+03  0.33948917393E+03  0.16500000000E+03 0.  0.
   -5000001    1    1    2    0    0  0.82464792078E+02 -0.16162008951E+03 -0.12298143558E+03  0.27435547883E+03  0.16500000000E+03 0.  0.
<mgrwt>
<rscale>  0 0.60358396E+03</rscale>
<asrwt>0</asrwt>
<pdfrwt beam="1">  1        2 0.55816211E-01 0.60358396E+03</pdfrwt>
<pdfrwt beam="2">  1       -2 0.38621427E-01 0.60358396E+03</pdfrwt>
<totfact> 0.56631810E+02</totfact>
</mgrwt>
</event>
<event>
 4    1  0.8641621E-005  0.6682340E+03  0.7818608E-02  0.9773153E-01
          2   -1    0    0  501    0  0.00000000000E+00  0.00000000000E+00  0.12588123296E+04  0.12588123296E+04  0.25500000000E-02 0.  1.
         -2   -1    0    0    0  501 -0.00000000000E+00 -0.00000000000E+00 -0.88682145146E+02  0.88682145182E+02  0.25500000000E-02 0. -1.
    5000001    1    1    2    0    0 -0.11021519973E+01  0.29024031222E+03  0.55888751135E+03  0.65101528701E+03  0.16500000000E+03 0.  0.
   -5000001    1    1    2    0    0  0.11021519973E+01 -0.29024031222E+03  0.61124267311E+03  0.69647918778E+03  0.16500000000E+03 0.  0.
<mgrwt>
<rscale>  0 0.66823402E+03</rscale>
<asrwt>0</asrwt>
<pdfrwt beam="1">  1        2 0.19366343E+00 0.66823402E+03</pdfrwt>
<pdfrwt beam="2">  1       -2 0.13643408E-01 0.66823402E+03</pdfrwt>
<totfact> 0.72654075E+02</totfact>
</mgrwt>
</event>
<event>
 4    1  0.8641621E-005  0.5726050E+03  0.7818608E-02  0.9963931E-01
          2   -1    0    0  501    0  0.00000000000E+00  0.00000000000E+00  0.19635589273E+03  0.19635589274E+03  0.25500000000E-02 0.  1.
         -2   -1    0    0    0  501 -0.00000000000E+00 -0.00000000000E+00 -0.41745182337E+03  0.41745182338E+03  0.25500000000E-02 0. -1.
    5000001    1    1    2    0    0 -0.20907872144E+03 -0.76360865920E+01  0.17361170865E+01  0.26645869414E+03  0.16500000000E+03 0.  0.
   -5000001    1    1    2    0    0  0.20907872144E+03  0.76360865920E+01 -0.22283204773E+03  0.34734902199E+03  0.16500000000E+03 0.  0.
<mgrwt>
<rscale>  0 0.57260501E+03</rscale>
<asrwt>0</asrwt>
<pdfrwt beam="1">  1        2 0.30208599E-01 0.57260501E+03</pdfrwt>
<pdfrwt beam="2">  1       -2 0.64223357E-01 0.57260501E+03</pdfrwt>
<totfact> 0.39943938E+02</totfact>
</mgrwt>
</event>
<event>
 4    1  0.8641621E-005  0.8752364E+03  0.7818608E-02  0.9457078E-01
          2   -1    0    0  501    0  0.00000000000E+00  0.00000000000E+00  0.36362235672E+04  0.36362235672E+04  0.25500000000E-02 0.  1.
         -2   -1    0    0    0  501 -0.00000000000E+00 -0.00000000000E+00 -0.52667199127E+02  0.52667199188E+02  0.25500000000E-02 0. -1.
    5000001    1    1    2    0    0  0.98177945144E+01 -0.36394009364E+03  0.10409405823E+04  0.11150475670E+04  0.16500000000E+03 0.  0.
   -5000001    1    1    2    0    0 -0.98177945144E+01  0.36394009364E+03  0.25426157858E+04  0.25738431994E+04  0.16500000000E+03 0.  0.
<mgrwt>
<rscale>  0 0.87523645E+03</rscale>
<asrwt>0</asrwt>
<pdfrwt beam="1">  1        2 0.55941926E+00 0.87523645E+03</pdfrwt>
<pdfrwt beam="2">  1       -2 0.81026424E-02 0.87523645E+03</pdfrwt>
<totfact> 0.66655697E+01</totfact>
</mgrwt>
</event>
<event>
 4    1  0.8641621E-005  0.5405467E+03  0.7818608E-02  0.1003706E+00
          2   -1    0    0  501    0  0.00000000000E+00  0.00000000000E+00  0.77199482211E+02  0.77199482253E+02  0.25500000000E-02 0.  1.
         -2   -1    0    0    0  501 -0.00000000000E+00 -0.00000000000E+00 -0.94621993846E+03  0.94621993846E+03  0.25500000000E-02 0. -1.
    5000001    1    1    2    0    0  0.47350515259E+02 -0.16946392849E+03 -0.66532719962E+03  0.70770430047E+03  0.16500000000E+03 0.  0.
   -5000001    1    1    2    0    0 -0.47350515259E+02  0.16946392849E+03 -0.20369325663E+03  0.31571512024E+03  0.16500000000E+03 0.  0.
<mgrwt>
<rscale>  0 0.54054672E+03</rscale>
<asrwt>0</asrwt>
<pdfrwt beam="1">  1        2 0.11876844E-01 0.54054672E+03</pdfrwt>
<pdfrwt beam="2">  1       -2 0.14557229E+00 0.54054672E+03</pdfrwt>
<totfact> 0.17642403E+02</totfact>
</mgrwt>
</event>
<event>
 4    1  0.8641621E-005  0.5016713E+03  0.7818608E-02  0.1013344E+00
         -2   -1    0    0    0  501 -0.00000000000E+00  0.00000000000E+00  0.97062425411E+02  0.97062425445E+02  0.25500000000E-02 0. -1.
          2   -1    0    0  501    0  0.00000000000E+00 -0.00000000000E+00 -0.64822744100E+03  0.64822744101E+03  0.25500000000E-02 0.  1.
    5000001    1    1    2    0    0 -0.11818983026E+03 -0.99148825830E+02 -0.11356065277E+03  0.25282473672E+03  0.16500000000E+03 0.  0.
   -5000001    1    1    2    0    0  0.11818983026E+03  0.99148825830E+02 -0.43760436282E+03  0.49246512973E+03  0.16500000000E+03 0.  0.
<mgrwt>
<rscale>  0 0.50167132E+03</rscale>
<asrwt>0</asrwt>
<pdfrwt beam="1">  1        2 0.99727296E-01 0.50167132E+03</pdfrwt>
<pdfrwt beam="2">  1       -2 0.14932681E-01 0.50167132E+03</pdfrwt>
<totfact> 0.15933022E+03</totfact>
</mgrwt>
</event>
<event>
 4    1  0.8641621E-005  0.6447485E+03  0.7818608E-02  0.9816683E-01
          2   -1    0    0  501    0  0.00000000000E+00  0.00000000000E+00  0.57087986868E+03  0.57087986868E+03  0.25500000000E-02 0.  1.
         -2   -1    0    0    0  501 -0.00000000000E+00 -0.00000000000E+00 -0.18204384526E+03  0.18204384528E+03  0.25500000000E-02 0. -1.
    5000001    1    1    2    0    0 -0.24986691099E+03 -0.86308464947E+02  0.29083965564E+03  0.42625735140E+03  0.16500000000E+03 0.  0.
   -5000001    1    1    2    0    0  0.24986691099E+03  0.86308464947E+02  0.97996367779E+02  0.32666636256E+03  0.16500000000E+03 0.  0.
<mgrwt>
<rscale>  0 0.64474853E+03</rscale>
<asrwt>0</asrwt>
<pdfrwt beam="1">  1        2 0.87827673E-01 0.64474853E+03</pdfrwt>
<pdfrwt beam="2">  1       -2 0.28006745E-01 0.64474853E+03</pdfrwt>
<totfact> 0.61693348E+02</totfact>
</mgrwt>
</event>
<event>
 4    1  0.8641621E-005  0.4686124E+03  0.7818608E-02  0.1022313E+00
         -2   -1    0    0    0  501 -0.00000000000E+00  0.00000000000E+00  0.24690005989E+03  0.24690005991E+03  0.25500000000E-02 0. -1.
          2   -1    0    0  501    0  0.00000000000E+00 -0.00000000000E+00 -0.22235474814E+03  0.22235474815E+03  0.25500000000E-02 0.  1.
    5000001    1    1    2    0    0  0.15340495310E+03 -0.11420011133E+02 -0.51145861776E+02  0.23131017156E+03  0.16500000000E+03 0.  0.
   -5000001    1    1    2    0    0 -0.15340495310E+03  0.11420011133E+02  0.75691173531E+02  0.23794463650E+03  0.16500000000E+03 0.  0.
<mgrwt>
<rscale>  0 0.46861242E+03</rscale>
<asrwt>0</asrwt>
<pdfrwt beam="1">  1        2 0.34208423E-01 0.46861242E+03</pdfrwt>
<pdfrwt beam="2">  1       -2 0.37984624E-01 0.46861242E+03</pdfrwt>
<totfact> 0.10048159E+03</totfact>
</mgrwt>
</event>
<event>
 4    1  0.8641621E-005  0.4812020E+03  0.7818608E-02  0.1018805E+00
          2   -1    0    0  501    0  0.00000000000E+00  0.00000000000E+00  0.68026000007E+03  0.68026000007E+03  0.25500000000E-02 0.  1.
         -2   -1    0    0    0  501 -0.00000000000E+00 -0.00000000000E+00 -0.85098107656E+02  0.85098107694E+02  0.25500000000E-02 0. -1.
    5000001    1    1    2    0    0  0.83583486499E+02  0.15180447824E+03  0.33759871005E+03  0.41379788286E+03  0.16500000000E+03 0.  0.
   -5000001    1    1    2    0    0 -0.83583486499E+02 -0.15180447824E+03  0.25756318236E+03  0.35156022491E+03  0.16500000000E+03 0.  0.
<mgrwt>
<rscale>  0 0.48120199E+03</rscale>
<asrwt>0</asrwt>
<pdfrwt beam="1">  1        2 0.10465538E+00 0.48120199E+03</pdfrwt>
<pdfrwt beam="2">  1       -2 0.13092017E-01 0.48120199E+03</pdfrwt>
<totfact> 0.18696687E+03</totfact>
</mgrwt>
</event>
<event>
 4    1  0.8641621E-005  0.5067820E+03  0.7818608E-02  0.1012024E+00
         -2   -1    0    0    0  501 -0.00000000000E+00  0.00000000000E+00  0.21062387269E+03  0.21062387270E+03  0.25500000000E-02 0. -1.
          2   -1    0    0  501    0  0.00000000000E+00 -0.00000000000E+00 -0.30484196878E+03  0.30484196880E+03  0.25500000000E-02 0.  1.
    5000001    1    1    2    0    0  0.70126425628E+02 -0.14747882147E+03 -0.15040852659E+03  0.27661424985E+03  0.16500000000E+03 0.  0.
   -5000001    1    1    2    0    0 -0.70126425628E+02  0.14747882147E+03  0.56190430491E+02  0.23885159164E+03  0.16500000000E+03 0.  0.
<mgrwt>
<rscale>  0 0.50678199E+03</rscale>
<asrwt>0</asrwt>
<pdfrwt beam="1">  1        2 0.46898764E-01 0.50678199E+03</pdfrwt>
<pdfrwt beam="2">  1       -2 0.32403673E-01 0.50678199E+03</pdfrwt>
<totfact> 0.95862678E+02</totfact>
</mgrwt>
</event>
<event>
 4    1  0.8641621E-005  0.9608316E+03  0.7818608E-02  0.9352579E-01
          2   -1    0    0  501    0  0.00000000000E+00  0.00000000000E+00  0.37433046106E+03  0.37433046107E+03  0.25500000000E-02 0.  1.
         -2   -1    0    0    0  501 -0.00000000000E+00 -0.00000000000E+00 -0.61656574913E+03  0.61656574913E+03  0.25500000000E-02 0. -1.
    5000001    1    1    2    0    0  0.42156161112E+03  0.73055666978E+02 -0.26885880583E+03  0.53156502887E+03  0.16500000000E+03 0.  0.
   -5000001    1    1    2    0    0 -0.42156161112E+03 -0.73055666978E+02  0.26623517761E+02  0.45933118133E+03  0.16500000000E+03 0.  0.
<mgrwt>
<rscale>  0 0.96083160E+03</rscale>
<asrwt>0</asrwt>
<pdfrwt beam="1">  1        2 0.57589302E-01 0.96083160E+03</pdfrwt>
<pdfrwt beam="2">  1       -2 0.94856269E-01 0.96083160E+03</pdfrwt>
<totfact> 0.80209647E+01</totfact>
</mgrwt>
</event>
<event>
 4    1  0.8641621E-005  0.6781593E+03  0.7818608E-02  0.9755329E-01
         -2   -1    0    0    0  501 -0.00000000000E+00  0.00000000000E+00  0.37195782842E+03  0.37195782843E+03  0.25500000000E-02 0. -1.
          2   -1    0    0  501    0  0.00000000000E+00 -0.00000000000E+00 -0.30910764221E+03  0.30910764222E+03  0.25500000000E-02 0.  1.
    5000001    1    1    2    0    0  0.24151797768E+02 -0.19329664316E+03  0.25554754094E+03  0.36121523677E+03  0.16500000000E+03 0.  0.
   -5000001    1    1    2    0    0 -0.24151797768E+02  0.19329664316E+03 -0.19269735473E+03  0.31985023388E+03  0.16500000000E+03 0.  0.
<mgrwt>
<rscale>  0 0.67815930E+03</rscale>
<asrwt>0</asrwt>
<pdfrwt beam="1">  1        2 0.47555022E-01 0.67815930E+03</pdfrwt>
<pdfrwt beam="2">  1       -2 0.57224281E-01 0.67815930E+03</pdfrwt>
<totfact> 0.30685298E+02</totfact>
</mgrwt>
</event>
<event>
 4    1  0.8641621E-005  0.6377997E+03  0.7818608E-02  0.9829945E-01
          2   -1    0    0  501    0  0.00000000000E+00  0.00000000000E+00  0.75959254463E+02  0.75959254506E+02  0.25500000000E-02 0.  1.
         -2   -1    0    0    0  501 -0.00000000000E+00 -0.00000000000E+00 -0.13388379069E+04  0.13388379069E+04  0.25500000000E-02 0. -1.
    5000001    1    1    2    0    0 -0.82088643564E+02 -0.71223465669E+02 -0.11867139303E+04  0.12030487438E+04  0.16500000000E+03 0.  0.
   -5000001    1    1    2    0    0  0.82088643564E+02  0.71223465669E+02 -0.76164722064E+02  0.21174841759E+03  0.16500000000E+03 0.  0.
<mgrwt>
<rscale>  0 0.63779975E+03</rscale>
<asrwt>0</asrwt>
<pdfrwt beam="1">  1        2 0.11686040E-01 0.63779975E+03</pdfrwt>
<pdfrwt beam="2">  1       -2 0.20597504E+00 0.63779975E+03</pdfrwt>
<totfact> 0.68031437E+01</totfact>
</mgrwt>
</event>
<event>
 4    1  0.8641621E-005  0.9180516E+03  0.7818608E-02  0.9403293E-01
          2   -1    0    0  501    0  0.00000000000E+00  0.00000000000E+00  0.59171052214E+03  0.59171052214E+03  0.25500000000E-02 0.  1.
         -2   -1    0    0    0  501 -0.00000000000E+00 -0.00000000000E+00 -0.35609423091E+03  0.35609423092E+03  0.25500000000E-02 0. -1.
    5000001    1    1    2    0    0 -0.39573104018E+03 -0.56812206014E+02 -0.40958163780E+02  0.43443440713E+03  0.16500000000E+03 0.  0.
   -5000001    1    1    2    0    0  0.39573104018E+03  0.56812206014E+02  0.27657445501E+03  0.51337034593E+03  0.16500000000E+03 0.  0.
<mgrwt>
<rscale>  0 0.91805164E+03</rscale>
<asrwt>0</asrwt>
<pdfrwt beam="1">  1        2 0.91032388E-01 0.91805164E+03</pdfrwt>
<pdfrwt beam="2">  1       -2 0.54783728E-01 0.91805164E+03</pdfrwt>
<totfact> 0.15854945E+02</totfact>
</mgrwt>
</event>
<event>
 4    1  0.8641621E-005  0.5355887E+03  0.7818608E-02  0.1004886E+00
         -2   -1    0    0    0  501 -0.00000000000E+00  0.00000000000E+00  0.47800393479E+03  0.47800393479E+03  0.25500000000E-02 0. -1.
          2   -1    0    0  501    0  0.00000000000E+00 -0.00000000000E+00 -0.15002763979E+03  0.15002763981E+03  0.25500000000E-02 0.  1.
    5000001    1    1    2    0    0  0.14450111094E+02 -0.19741923939E+03  0.24940017139E+03  0.35862042229E+03  0.16500000000E+03 0.  0.
   -5000001    1    1    2    0    0 -0.14450111094E+02  0.19741923939E+03  0.78576123603E+02  0.26941115232E+03  0.16500000000E+03 0.  0.
<mgrwt>
<rscale>  0 0.53558866E+03</rscale>
<asrwt>0</asrwt>
<pdfrwt beam="1">  1        2 0.23081175E-01 0.53558866E+03</pdfrwt>
<pdfrwt beam="2">  1       -2 0.73539067E-01 0.53558866E+03</pdfrwt>
<totfact> 0.40482925E+02</totfact>
</mgrwt>
</event>
<event>
 4    1  0.8641621E-005  0.4686652E+03  0.7818608E-02  0.1022298E+00
          2   -1    0    0  501    0  0.00000000000E+00  0.00000000000E+00  0.30383903688E+03  0.30383903689E+03  0.25500000000E-02 0.  1.
         -2   -1    0    0    0  501 -0.00000000000E+00 -0.00000000000E+00 -0.18072653695E+03  0.18072653697E+03  0.25500000000E-02 0. -1.
    5000001    1    1    2    0    0 -0.83066776653E+02 -0.99226320506E+02 -0.46590841752E+02  0.21480609535E+03  0.16500000000E+03 0.  0.
   -5000001    1    1    2    0    0  0.83066776653E+02  0.99226320506E+02  0.16970334168E+03  0.26975947851E+03  0.16500000000E+03 0.  0.
<mgrwt>
<rscale>  0 0.46866524E+03</rscale>
<asrwt>0</asrwt>
<pdfrwt beam="1">  1        2 0.46744467E-01 0.46866524E+03</pdfrwt>
<pdfrwt beam="2">  1       -2 0.27804083E-01 0.46866524E+03</pdfrwt>
<totfact> 0.12750997E+03</totfact>
</mgrwt>
</event>
<event>
 4    1  0.8641621E-005  0.4309271E+03  0.7818608E-02  0.1033567E+00
          2   -1    0    0  501    0  0.00000000000E+00  0.00000000000E+00  0.15925400506E+03  0.15925400508E+03  0.25500000000E-02 0.  1.
         -2   -1    0    0    0  501 -0.00000000000E+00 -0.00000000000E+00 -0.29151261748E+03  0.29151261750E+03  0.25500000000E-02 0. -1.
    5000001    1    1    2    0    0  0.13843757760E+03 -0.25620472678E+01 -0.71666884066E+02  0.22700808191E+03  0.16500000000E+03 0.  0.
   -5000001    1    1    2    0    0 -0.13843757760E+03  0.25620472678E+01 -0.60591728357E+02  0.22375854067E+03  0.16500000000E+03 0.  0.
<mgrwt>
<rscale>  0 0.43092715E+03</rscale>
<asrwt>0</asrwt>
<pdfrwt beam="1">  1        2 0.24500616E-01 0.43092715E+03</pdfrwt>
<pdfrwt beam="2">  1       -2 0.44848095E-01 0.43092715E+03</pdfrwt>
<totfact> 0.10572168E+03</totfact>
</mgrwt>
</event>
<event>
 4    1  0.8641621E-005  0.4816609E+03  0.7818608E-02  0.1018680E+00
          2   -1    0    0  501    0  0.00000000000E+00  0.00000000000E+00  0.15608268449E+04  0.15608268449E+04  0.25500000000E-02 0.  1.
         -2   -1    0    0    0  501 -0.00000000000E+00 -0.00000000000E+00 -0.37159341102E+02  0.37159341189E+02  0.25500000000E-02 0. -1.
    5000001    1    1    2    0    0 -0.17359309389E+03  0.25261662447E+02  0.76600842055E+03  0.80297360741E+03  0.16500000000E+03 0.  0.
   -5000001    1    1    2    0    0  0.17359309389E+03 -0.25261662447E+02  0.75765908322E+03  0.79501257866E+03  0.16500000000E+03 0.  0.
<mgrwt>
<rscale>  0 0.48166086E+03</rscale>
<asrwt>0</asrwt>
<pdfrwt beam="1">  1        2 0.24012721E+00 0.48166086E+03</pdfrwt>
<pdfrwt beam="2">  1       -2 0.57168216E-02 0.48166086E+03</pdfrwt>
<totfact> 0.20062247E+03</totfact>
</mgrwt>
</event>
<event>
 4    1  0.8641621E-005  0.1312576E+04  0.7818608E-02  0.9019651E-01
         -2   -1    0    0    0  501 -0.00000000000E+00  0.00000000000E+00  0.15183460537E+04  0.15183460537E+04  0.25500000000E-02 0. -1.
          2   -1    0    0  501    0  0.00000000000E+00 -0.00000000000E+00 -0.28367302592E+03  0.28367302593E+03  0.25500000000E-02 0.  1.
    5000001    1    1    2    0    0  0.60705404417E+03  0.12274839551E+03  0.42363263735E+03  0.76829121599E+03  0.16500000000E+03 0.  0.
   -5000001    1    1    2    0    0 -0.60705404417E+03 -0.12274839551E+03  0.81104039047E+03  0.10337278637E+04  0.16500000000E+03 0.  0.
<mgrwt>
<rscale>  0 0.13125758E+04</rscale>
<asrwt>0</asrwt>
<pdfrwt beam="1">  1        2 0.43642004E-01 0.13125758E+04</pdfrwt>
<pdfrwt beam="2">  1       -2 0.23359170E+00 0.13125758E+04</pdfrwt>
<totfact> 0.92980783E+00</totfact>
</mgrwt>
</event>
<event>
 4    1  0.8641621E-005  0.5917937E+03  0.7818608E-02  0.9922579E-01
          2   -1    0    0  501    0  0.00000000000E+00  0.00000000000E+00  0.40861018304E+03  0.40861018304E+03  0.25500000000E-02 0.  1.
         -2   -1    0    0    0  501 -0.00000000000E+00 -0.00000000000E+00 -0.21427496852E+03  0.21427496854E+03  0.25500000000E-02 0. -1.
    5000001    1    1    2    0    0 -0.38668077446E+02 -0.23117751802E+03  0.17445333194E+03  0.33555510737E+03  0.16500000000E+03 0.  0.
   -5000001    1    1    2    0    0  0.38668077446E+02  0.23117751802E+03  0.19881882571E+02  0.28733004421E+03  0.16500000000E+03 0.  0.
<mgrwt>
<rscale>  0 0.59179366E+03</rscale>
<asrwt>0</asrwt>
<pdfrwt beam="1">  1        2 0.62863104E-01 0.59179366E+03</pdfrwt>
<pdfrwt beam="2">  1       -2 0.32965380E-01 0.59179366E+03</pdfrwt>
<totfact> 0.67051701E+02</totfact>
</mgrwt>
</event>
<event>
 4    1  0.8641621E-005  0.1022463E+04  0.7818608E-02  0.9284245E-01
          2   -1    0    0  501    0  0.00000000000E+00  0.00000000000E+00  0.99321131143E+03  0.99321131144E+03  0.25500000000E-02 0.  1.
         -2   -1    0    0    0  501 -0.00000000000E+00 -0.00000000000E+00 -0.26314406469E+03  0.26314406470E+03  0.25500000000E-02 0. -1.
    5000001    1    1    2    0    0  0.13485207867E+03  0.26380657244E+03  0.83510812994E+03  0.90133766119E+03  0.16500000000E+03 0.  0.
   -5000001    1    1    2    0    0 -0.13485207867E+03 -0.26380657244E+03 -0.10504088320E+03  0.35501771495E+03  0.16500000000E+03 0.  0.
<mgrwt>
<rscale>  0 0.10224630E+04</rscale>
<asrwt>0</asrwt>
<pdfrwt beam="1">  1        2 0.15280174E+00 0.10224630E+04</pdfrwt>
<pdfrwt beam="2">  1       -2 0.40483702E-01 0.10224630E+04</pdfrwt>
<totfact> 0.14644176E+02</totfact>
</mgrwt>
</event>
<event>
 4    1  0.8641621E-005  0.4605261E+03  0.7818608E-02  0.1024629E+00
          2   -1    0    0  501    0  0.00000000000E+00  0.00000000000E+00  0.13593415302E+04  0.13593415302E+04  0.25500000000E-02 0.  1.
         -2   -1    0    0    0  501 -0.00000000000E+00 -0.00000000000E+00 -0.39004959102E+02  0.39004959186E+02  0.25500000000E-02 0. -1.
    5000001    1    1    2    0    0  0.89627404559E+02 -0.12562033514E+03  0.52497054023E+03  0.57151781106E+03  0.16500000000E+03 0.  0.
   -5000001    1    1    2    0    0 -0.89627404559E+02  0.12562033514E+03  0.79536603091E+03  0.82682867837E+03  0.16500000000E+03 0.  0.
<mgrwt>
<rscale>  0 0.46052605E+03</rscale>
<asrwt>0</asrwt>
<pdfrwt beam="1">  1        2 0.20912943E+00 0.46052605E+03</pdfrwt>
<pdfrwt beam="2">  1       -2 0.60007639E-02 0.46052605E+03</pdfrwt>
<totfact> 0.24036065E+03</totfact>
</mgrwt>
</event>
<event>
 4    1  0.8641621E-005  0.6412758E+03  0.7818608E-02  0.9823289E-01
         -2   -1    0    0    0  501 -0.00000000000E+00  0.00000000000E+00  0.20694471719E+02  0.20694471876E+02  0.25500000000E-02 0. -1.
          2   -1    0    0  501    0  0.00000000000E+00 -0.00000000000E+00 -0.49679282513E+04  0.49679282513E+04  0.25500000000E-02 0.  1.
    5000001    1    1    2    0    0 -0.18502180664E+03  0.18472446819E+03 -0.31349624965E+04  0.31501700037E+04  0.16500000000E+03 0.  0.
   -5000001    1    1    2    0    0  0.18502180664E+03 -0.18472446819E+03 -0.18122712831E+04  0.18384527195E+04  0.16500000000E+03 0.  0.
<mgrwt>
<rscale>  0 0.64127576E+03</rscale>
<asrwt>0</asrwt>
<pdfrwt beam="1">  1        2 0.76429571E+00 0.64127576E+03</pdfrwt>
<pdfrwt beam="2">  1       -2 0.31837688E-02 0.64127576E+03</pdfrwt>
<totfact> 0.18690832E+01</totfact>
</mgrwt>
</event>
<event>
 4    1  0.8641621E-005  0.5384586E+03  0.7818608E-02  0.1004201E+00
          2   -1    0    0  501    0  0.00000000000E+00  0.00000000000E+00  0.23213093084E+04  0.23213093084E+04  0.25500000000E-02 0.  1.
         -2   -1    0    0    0  501 -0.00000000000E+00 -0.00000000000E+00 -0.31225656011E+02  0.31225656115E+02  0.25500000000E-02 0. -1.
    5000001    1    1    2    0    0  0.12062470128E+03 -0.10477236989E+03  0.53132565103E+03  0.57884325642E+03  0.16500000000E+03 0.  0.
   -5000001    1    1    2    0    0 -0.12062470128E+03  0.10477236989E+03  0.17587580013E+04  0.17736917081E+04  0.16500000000E+03 0.  0.
<mgrwt>
<rscale>  0 0.53845856E+03</rscale>
<asrwt>0</asrwt>
<pdfrwt beam="1">  1        2 0.35712456E+00 0.53845856E+03</pdfrwt>
<pdfrwt beam="2">  1       -2 0.48039464E-02 0.53845856E+03</pdfrwt>
<totfact> 0.10152627E+03</totfact>
</mgrwt>
</event>
<event>
 4    1  0.8641621E-005  0.4692069E+03  0.7818608E-02  0.1022144E+00
         -2   -1    0    0    0  501 -0.00000000000E+00  0.00000000000E+00  0.18036908759E+03  0.18036908761E+03  0.25500000000E-02 0. -1.
          2   -1    0    0  501    0  0.00000000000E+00 -0.00000000000E+00 -0.30514529348E+03  0.30514529349E+03  0.25500000000E-02 0.  1.
    5000001    1    1    2    0    0 -0.11084996799E+03 -0.28230723945E+02 -0.18796959934E+03  0.27503137904E+03  0.16500000000E+03 0.  0.
   -5000001    1    1    2    0    0  0.11084996799E+03  0.28230723945E+02  0.63193393452E+02  0.21048300206E+03  0.16500000000E+03 0.  0.
<mgrwt>
<rscale>  0 0.46920690E+03</rscale>
<asrwt>0</asrwt>
<pdfrwt beam="1">  1        2 0.46945430E-01 0.46920690E+03</pdfrwt>
<pdfrwt beam="2">  1       -2 0.27749090E-01 0.46920690E+03</pdfrwt>
<totfact> 0.12736953E+03</totfact>
</mgrwt>
</event>
<event>
 4    1  0.8641621E-005  0.8593548E+03  0.7818608E-02  0.9477867E-01
          2   -1    0    0  501    0  0.00000000000E+00  0.00000000000E+00  0.77073842153E+03  0.77073842153E+03  0.25500000000E-02 0.  1.
         -2   -1    0    0    0  501 -0.00000000000E+00 -0.00000000000E+00 -0.23953999940E+03  0.23953999941E+03  0.25500000000E-02 0. -1.
    5000001    1    1    2    0    0 -0.92794345706E+02  0.33862996079E+03  0.48274513493E+03  0.61931325372E+03  0.16500000000E+03 0.  0.
   -5000001    1    1    2    0    0  0.92794345706E+02 -0.33862996079E+03  0.48453287202E+02  0.39096516722E+03  0.16500000000E+03 0.  0.
<mgrwt>
<rscale>  0 0.85935483E+03</rscale>
<asrwt>0</asrwt>
<pdfrwt beam="1">  1        2 0.11857514E+00 0.85935483E+03</pdfrwt>
<pdfrwt beam="2">  1       -2 0.36852307E-01 0.85935483E+03</pdfrwt>
<totfact> 0.25190935E+02</totfact>
</mgrwt>
</event>
<event>
 4    1  0.8641621E-005  0.5165350E+03  0.7818608E-02  0.1009551E+00
         -2   -1    0    0    0  501 -0.00000000000E+00  0.00000000000E+00  0.49361764797E+02  0.49361764863E+02  0.25500000000E-02 0. -1.
          2   -1    0    0  501    0  0.00000000000E+00 -0.00000000000E+00 -0.13512906045E+04  0.13512906045E+04  0.25500000000E-02 0.  1.
    5000001    1    1    2    0    0 -0.15372559927E+03 -0.28893237671E+02 -0.98318861948E+03  0.10091339061E+04  0.16500000000E+03 0.  0.
   -5000001    1    1    2    0    0  0.15372559927E+03  0.28893237671E+02 -0.31874022023E+03  0.39151846323E+03  0.16500000000E+03 0.  0.
<mgrwt>
<rscale>  0 0.51653495E+03</rscale>
<asrwt>0</asrwt>
<pdfrwt beam="1">  1        2 0.20789083E+00 0.51653495E+03</pdfrwt>
<pdfrwt beam="2">  1       -2 0.75941187E-02 0.51653495E+03</pdfrwt>
<totfact> 0.16758718E+03</totfact>
</mgrwt>
</event>
<event>
 4    1  0.8641621E-005  0.4391527E+03  0.7818608E-02  0.1031007E+00
          2   -1    0    0  501    0  0.00000000000E+00  0.00000000000E+00  0.16733805447E+04  0.16733805447E+04  0.25500000000E-02 0.  1.
         -2   -1    0    0    0  501 -0.00000000000E+00 -0.00000000000E+00 -0.28812203768E+02  0.28812203881E+02  0.25500000000E-02 0. -1.
    5000001    1    1    2    0    0 -0.19366484748E+02 -0.14348272799E+03  0.80235817028E+03  0.83184492989E+03  0.16500000000E+03 0.  0.
   -5000001    1    1    2    0    0  0.19366484748E+02  0.14348272799E+03  0.84221017068E+03  0.87034781872E+03  0.16500000000E+03 0.  0.
<mgrwt>
<rscale>  0 0.43915274E+03</rscale>
<asrwt>0</asrwt>
<pdfrwt beam="1">  1        2 0.25744312E+00 0.43915274E+03</pdfrwt>
<pdfrwt beam="2">  1       -2 0.44326474E-02 0.43915274E+03</pdfrwt>
<totfact> 0.25855065E+03</totfact>
</mgrwt>
</event>
<event>
 4    1  0.8641621E-005  0.5210449E+03  0.7818608E-02  0.1008427E+00
          2   -1    0    0  501    0  0.00000000000E+00  0.00000000000E+00  0.56598650733E+03  0.56598650734E+03  0.25500000000E-02 0.  1.
         -2   -1    0    0    0  501 -0.00000000000E+00 -0.00000000000E+00 -0.11991795818E+03  0.11991795820E+03  0.25500000000E-02 0. -1.
    5000001    1    1    2    0    0  0.86894084820E+02  0.16937379109E+03  0.13562595284E+03  0.28610743117E+03  0.16500000000E+03 0.  0.
   -5000001    1    1    2    0    0 -0.86894084820E+02 -0.16937379109E+03  0.31044259631E+03  0.39979703437E+03  0.16500000000E+03 0.  0.
<mgrwt>
<rscale>  0 0.52104490E+03</rscale>
<asrwt>0</asrwt>
<pdfrwt beam="1">  1        2 0.87074850E-01 0.52104490E+03</pdfrwt>
<pdfrwt beam="2">  1       -2 0.18448916E-01 0.52104490E+03</pdfrwt>
<totfact> 0.13085596E+03</totfact>
</mgrwt>
</event>
<event>
 4    1  0.8641621E-005  0.4189699E+03  0.7818608E-02  0.1037402E+00
         -2   -1    0    0    0  501 -0.00000000000E+00  0.00000000000E+00  0.31763352792E+03  0.31763352794E+03  0.25500000000E-02 0. -1.
          2   -1    0    0  501    0  0.00000000000E+00 -0.00000000000E+00 -0.13815903283E+03  0.13815903285E+03  0.25500000000E-02 0.  1.
    5000001    1    1    2    0    0  0.89602171476E+02 -0.58244788580E+02  0.11002844385E+02  0.19689354259E+03  0.16500000000E+03 0.  0.
   -5000001    1    1    2    0    0 -0.89602171476E+02  0.58244788580E+02  0.16847165071E+03  0.25889901820E+03  0.16500000000E+03 0.  0.
<mgrwt>
<rscale>  0 0.41896988E+03</rscale>
<asrwt>0</asrwt>
<pdfrwt beam="1">  1        2 0.21255236E-01 0.41896988E+03</pdfrwt>
<pdfrwt beam="2">  1       -2 0.48866696E-01 0.41896988E+03</pdfrwt>
<totfact> 0.10486539E+03</totfact>
</mgrwt>
</event>
<event>
 4    1  0.8641621E-005  0.8196158E+03  0.7818608E-02  0.9532050E-01
          2   -1    0    0  501    0  0.00000000000E+00  0.00000000000E+00  0.43281198348E+03  0.43281198349E+03  0.25500000000E-02 0.  1.
         -2   -1    0    0    0  501 -0.00000000000E+00 -0.00000000000E+00 -0.38802648176E+03  0.38802648177E+03  0.25500000000E-02 0. -1.
    5000001    1    1    2    0    0  0.64127191855E+02 -0.29218849233E+03  0.24907328152E+03  0.42278707567E+03  0.16500000000E+03 0.  0.
   -5000001    1    1    2    0    0 -0.64127191855E+02  0.29218849233E+03 -0.20428777980E+03  0.39805138959E+03  0.16500000000E+03 0.  0.
<mgrwt>
<rscale>  0 0.81961579E+03</rscale>
<asrwt>0</asrwt>
<pdfrwt beam="1">  1        2 0.66586459E-01 0.81961579E+03</pdfrwt>
<pdfrwt beam="2">  1       -2 0.59696382E-01 0.81961579E+03</pdfrwt>
<totfact> 0.19168850E+02</totfact>
</mgrwt>
</event>
<event>
 4    1  0.8641621E-005  0.8713103E+03  0.7818608E-02  0.9462173E-01
         -2   -1    0    0    0  501 -0.00000000000E+00  0.00000000000E+00  0.81511119007E+03  0.81511119008E+03  0.25500000000E-02 0. -1.
          2   -1    0    0  501    0  0.00000000000E+00 -0.00000000000E+00 -0.23284601391E+03  0.23284601393E+03  0.25500000000E-02 0.  1.
    5000001    1    1    2    0    0  0.30220672175E+03  0.87309454064E+02 -0.12230402477E+02  0.35542429037E+03  0.16500000000E+03 0.  0.
   -5000001    1    1    2    0    0 -0.30220672175E+03 -0.87309454064E+02  0.59449557864E+03  0.69253291363E+03  0.16500000000E+03 0.  0.
<mgrwt>
<rscale>  0 0.87131026E+03</rscale>
<asrwt>0</asrwt>
<pdfrwt beam="1">  1        2 0.35822464E-01 0.87131026E+03</pdfrwt>
<pdfrwt beam="2">  1       -2 0.12540172E+00 0.87131026E+03</pdfrwt>
<totfact> 0.69601566E+01</totfact>
</mgrwt>
</event>
<event>
 4    1  0.8641621E-005  0.5737455E+03  0.7818608E-02  0.9961425E-01
         -2   -1    0    0    0  501 -0.00000000000E+00  0.00000000000E+00  0.40878136396E+02  0.40878136476E+02  0.25500000000E-02 0. -1.
          2   -1    0    0  501    0  0.00000000000E+00 -0.00000000000E+00 -0.20132024303E+04  0.20132024303E+04  0.25500000000E-02 0.  1.
    5000001    1    1    2    0    0  0.11520987165E+03  0.10543497037E+03 -0.16132577966E+04  0.16291763458E+04  0.16500000000E+03 0.  0.
   -5000001    1    1    2    0    0 -0.11520987165E+03 -0.10543497037E+03 -0.35906649735E+03  0.42490422099E+03  0.16500000000E+03 0.  0.
<mgrwt>
<rscale>  0 0.57374546E+03</rscale>
<asrwt>0</asrwt>
<pdfrwt beam="1">  1        2 0.30972337E+00 0.57374546E+03</pdfrwt>
<pdfrwt beam="2">  1       -2 0.62889456E-02 0.57374546E+03</pdfrwt>
<totfact> 0.98022394E+02</totfact>
</mgrwt>
</event>
<event>
 4    1  0.8641621E-005  0.6763455E+03  0.7818608E-02  0.9758562E-01
         -2   -1    0    0    0  501 -0.00000000000E+00  0.00000000000E+00  0.33249680967E+03  0.33249680968E+03  0.25500000000E-02 0. -1.
          2   -1    0    0  501    0  0.00000000000E+00 -0.00000000000E+00 -0.34394556940E+03  0.34394556941E+03  0.25500000000E-02 0.  1.
    5000001    1    1    2    0    0  0.70108137878E+02  0.28571332282E+03 -0.29987919141E+02  0.33863184896E+03  0.16500000000E+03 0.  0.
   -5000001    1    1    2    0    0 -0.70108137878E+02 -0.28571332282E+03  0.18539159414E+02  0.33781053013E+03  0.16500000000E+03 0.  0.
<mgrwt>
<rscale>  0 0.67634549E+03</rscale>
<asrwt>0</asrwt>
<pdfrwt beam="1">  1        2 0.52914703E-01 0.67634549E+03</pdfrwt>
<pdfrwt beam="2">  1       -2 0.51153355E-01 0.67634549E+03</pdfrwt>
<totfact> 0.34355125E+02</totfact>
</mgrwt>
</event>
<event>
 4    1  0.8641621E-005  0.3863732E+03  0.7818608E-02  0.1048603E+00
          2   -1    0    0  501    0  0.00000000000E+00  0.00000000000E+00  0.28824705833E+04  0.28824705833E+04  0.25500000000E-02 0.  1.
         -2   -1    0    0    0  501 -0.00000000000E+00 -0.00000000000E+00 -0.12947595536E+02  0.12947595787E+02  0.25500000000E-02 0. -1.
    5000001    1    1    2    0    0  0.30766027283E+02  0.70524046587E+02  0.95050217137E+03  0.96778074343E+03  0.16500000000E+03 0.  0.
   -5000001    1    1    2    0    0 -0.30766027283E+02 -0.70524046587E+02  0.19190208164E+04  0.19276374357E+04  0.16500000000E+03 0.  0.
<mgrwt>
<rscale>  0 0.38637321E+03</rscale>
<asrwt>0</asrwt>
<pdfrwt beam="1">  1        2 0.44345788E+00 0.38637321E+03</pdfrwt>
<pdfrwt beam="2">  1       -2 0.19919339E-02 0.38637321E+03</pdfrwt>
<totfact> 0.18750285E+03</totfact>
</mgrwt>
</event>
<event>
 4    1  0.8641621E-005  0.3918953E+03  0.7818608E-02  0.1046623E+00
          2   -1    0    0  501    0  0.00000000000E+00  0.00000000000E+00  0.18348568402E+04  0.18348568402E+04  0.25500000000E-02 0.  1.
         -2   -1    0    0    0  501 -0.00000000000E+00 -0.00000000000E+00 -0.20925601739E+02  0.20925601894E+02  0.25500000000E-02 0. -1.
    5000001    1    1    2    0    0  0.68469287070E+02  0.61115019256E+02  0.65875661684E+03  0.68527977431E+03  0.16500000000E+03 0.  0.
   -5000001    1    1    2    0    0 -0.68469287070E+02 -0.61115019256E+02  0.11551746216E+04  0.11705026677E+04  0.16500000000E+03 0.  0.
<mgrwt>
<rscale>  0 0.39189531E+03</rscale>
<asrwt>0</asrwt>
<pdfrwt beam="1">  1        2 0.28228580E+00 0.39189531E+03</pdfrwt>
<pdfrwt beam="2">  1       -2 0.32193218E-02 0.39189531E+03</pdfrwt>
<totfact> 0.34499031E+03</totfact>
</mgrwt>
</event>
<event>
 4    1  0.8641621E-005  0.4398264E+03  0.7818608E-02  0.1030800E+00
          2   -1    0    0  501    0  0.00000000000E+00  0.00000000000E+00  0.87153845179E+03  0.87153845179E+03  0.25500000000E-02 0. -1.
         -2   -1    0    0    0  501 -0.00000000000E+00 -0.00000000000E+00 -0.55490177716E+02  0.55490177775E+02  0.25500000000E-02 0.  1.
    5000001    1    1    2    0    0  0.10132722770E+03 -0.79309392817E+02  0.55065953962E+03  0.58907394734E+03  0.16500000000E+03 0.  0.
   -5000001    1    1    2    0    0 -0.10132722770E+03  0.79309392817E+02  0.26538873445E+03  0.33795468222E+03  0.16500000000E+03 0.  0.
<mgrwt>
<rscale>  0 0.43982644E+03</rscale>
<asrwt>0</asrwt>
<pdfrwt beam="1">  1        2 0.13408284E+00 0.43982644E+03</pdfrwt>
<pdfrwt beam="2">  1       -2 0.85369502E-02 0.43982644E+03</pdfrwt>
<totfact> 0.27175961E+03</totfact>
</mgrwt>
</event>
<event>
 4    1  0.8641621E-005  0.3782677E+03  0.7818608E-02  0.1051576E+00
         -2   -1    0    0    0  501 -0.00000000000E+00  0.00000000000E+00  0.37708112351E+02  0.37708112437E+02  0.25500000000E-02 0. -1.
          2   -1    0    0  501    0  0.00000000000E+00 -0.00000000000E+00 -0.94864510880E+03  0.94864510880E+03  0.25500000000E-02 0.  1.
    5000001    1    1    2    0    0 -0.44640627175E+02  0.70613856574E+02 -0.55870633854E+03  0.58852092151E+03  0.16500000000E+03 0.  0.
   -5000001    1    1    2    0    0  0.44640627175E+02 -0.70613856574E+02 -0.35223065791E+03  0.39783229973E+03  0.16500000000E+03 0.  0.
<mgrwt>
<rscale>  0 0.37826772E+03</rscale>
<asrwt>0</asrwt>
<pdfrwt beam="1">  1        2 0.14594538E+00 0.37826772E+03</pdfrwt>
<pdfrwt beam="2">  1       -2 0.58012488E-02 0.37826772E+03</pdfrwt>
<totfact> 0.44274052E+03</totfact>
</mgrwt>
</event>
<event>
 4    1  0.8641621E-005  0.6083219E+03  0.7818608E-02  0.9888290E-01
          2   -1    0    0  501    0  0.00000000000E+00  0.00000000000E+00  0.43022306354E+03  0.43022306355E+03  0.25500000000E-02 0.  1.
         -2   -1    0    0    0  501 -0.00000000000E+00 -0.00000000000E+00 -0.21503704636E+03  0.21503704637E+03  0.25500000000E-02 0. -1.
    5000001    1    1    2    0    0 -0.17002202837E+03  0.11648871274E+03  0.26779982278E+03  0.37605698426E+03  0.16500000000E+03 0.  0.
   -5000001    1    1    2    0    0  0.17002202837E+03 -0.11648871274E+03 -0.52613805593E+02  0.26920312567E+03  0.16500000000E+03 0.  0.
<mgrwt>
<rscale>  0 0.60832194E+03</rscale>
<asrwt>0</asrwt>
<pdfrwt beam="1">  1        2 0.66188163E-01 0.60832194E+03</pdfrwt>
<pdfrwt beam="2">  1       -2 0.33082623E-01 0.60832194E+03</pdfrwt>
<totfact> 0.62838583E+02</totfact>
</mgrwt>
</event>
<event>
 4    1  0.8641621E-005  0.6099141E+03  0.7818608E-02  0.9885048E-01
          2   -1    0    0  501    0  0.00000000000E+00  0.00000000000E+00  0.17705653516E+03  0.17705653518E+03  0.25500000000E-02 0.  1.
         -2   -1    0    0    0  501 -0.00000000000E+00 -0.00000000000E+00 -0.52524923657E+03  0.52524923658E+03  0.25500000000E-02 0. -1.
    5000001    1    1    2    0    0 -0.24457219679E+03  0.56394868983E+01 -0.26274145123E+03  0.39510180138E+03  0.16500000000E+03 0.  0.
   -5000001    1    1    2    0    0  0.24457219679E+03 -0.56394868983E+01 -0.85451250185E+02  0.30720397038E+03  0.16500000000E+03 0.  0.
<mgrwt>
<rscale>  0 0.60991412E+03</rscale>
<asrwt>0</asrwt>
<pdfrwt beam="1">  1        2 0.27239467E-01 0.60991412E+03</pdfrwt>
<pdfrwt beam="2">  1       -2 0.80807574E-01 0.60991412E+03</pdfrwt>
<totfact> 0.27135581E+02</totfact>
</mgrwt>
</event>
<event>
 4    1  0.8641621E-005  0.3709978E+03  0.7818608E-02  0.1054312E+00
         -2   -1    0    0    0  501 -0.00000000000E+00  0.00000000000E+00  0.95896147514E+01  0.95896150904E+01  0.25500000000E-02 0. -1.
          2   -1    0    0  501    0  0.00000000000E+00 -0.00000000000E+00 -0.35882396505E+04  0.35882396505E+04  0.25500000000E-02 0.  1.
    5000001    1    1    2    0    0 -0.48526569860E+02 -0.47206747263E+02 -0.22839588254E+04  0.22909116572E+04  0.16500000000E+03 0.  0.
   -5000001    1    1    2    0    0  0.48526569860E+02  0.47206747263E+02 -0.12946912103E+04  0.13069176083E+04  0.16500000000E+03 0.  0.
<mgrwt>
<rscale>  0 0.37099777E+03</rscale>
<asrwt>0</asrwt>
<pdfrwt beam="1">  1        2 0.55203580E+00 0.37099777E+03</pdfrwt>
<pdfrwt beam="2">  1       -2 0.14753282E-02 0.37099777E+03</pdfrwt>
<totfact> 0.10510594E+03</totfact>
</mgrwt>
</event>
<event>
 4    1  0.8641621E-005  0.4888677E+03  0.7818608E-02  0.1016726E+00
         -2   -1    0    0    0  501 -0.00000000000E+00  0.00000000000E+00  0.49378782427E+03  0.49378782428E+03  0.25500000000E-02 0. -1.
          2   -1    0    0  501    0  0.00000000000E+00 -0.00000000000E+00 -0.12099917437E+03  0.12099917440E+03  0.25500000000E-02 0.  1.
    5000001    1    1    2    0    0  0.80555971316E+02  0.15756549398E+03  0.14270800347E+03  0.28090340628E+03  0.16500000000E+03 0.  0.
   -5000001    1    1    2    0    0 -0.80555971316E+02 -0.15756549398E+03  0.23008064644E+03  0.33388359240E+03  0.16500000000E+03 0.  0.
<mgrwt>
<rscale>  0 0.48886775E+03</rscale>
<asrwt>0</asrwt>
<pdfrwt beam="1">  1        2 0.18615258E-01 0.48886775E+03</pdfrwt>
<pdfrwt beam="2">  1       -2 0.75967358E-01 0.48886775E+03</pdfrwt>
<totfact> 0.48425413E+02</totfact>
</mgrwt>
</event>
<event>
 4    1  0.8641621E-005  0.5059583E+03  0.7818608E-02  0.1012235E+00
          2   -1    0    0  501    0  0.00000000000E+00  0.00000000000E+00  0.78596107495E+03  0.78596107495E+03  0.25500000000E-02 0.  1.
         -2   -1    0    0    0  501 -0.00000000000E+00 -0.00000000000E+00 -0.81427002720E+02  0.81427002759E+02  0.25500000000E-02 0. -1.
    5000001    1    1    2    0    0 -0.10956526465E+03  0.15667078022E+03  0.37787768145E+03  0.45449622961E+03  0.16500000000E+03 0.  0.
   -5000001    1    1    2    0    0  0.10956526465E+03 -0.15667078022E+03  0.32665639078E+03  0.41289184810E+03  0.16500000000E+03 0.  0.
<mgrwt>
<rscale>  0 0.50595832E+03</rscale>
<asrwt>0</asrwt>
<pdfrwt beam="1">  1        2 0.12091709E+00 0.50595832E+03</pdfrwt>
<pdfrwt beam="2">  1       -2 0.12527231E-01 0.50595832E+03</pdfrwt>
<totfact> 0.16754670E+03</totfact>
</mgrwt>
</event>
<event>
 4    1  0.8641621E-005  0.6294317E+03  0.7818608E-02  0.9846158E-01
          2   -1    0    0  501    0  0.00000000000E+00  0.00000000000E+00  0.14485734358E+04  0.14485734358E+04  0.25500000000E-02 0.  1.
         -2   -1    0    0    0  501 -0.00000000000E+00 -0.00000000000E+00 -0.68374902968E+02  0.68374903016E+02  0.25500000000E-02 0. -1.
    5000001    1    1    2    0    0 -0.28987124916E+02 -0.26634617899E+03  0.70544183455E+03  0.77243363625E+03  0.16500000000E+03 0.  0.
   -5000001    1    1    2    0    0  0.28987124916E+02  0.26634617899E+03  0.67475669829E+03  0.74451470258E+03  0.16500000000E+03 0.  0.
<mgrwt>
<rscale>  0 0.62943171E+03</rscale>
<asrwt>0</asrwt>
<pdfrwt beam="1">  1        2 0.22285746E+00 0.62943171E+03</pdfrwt>
<pdfrwt beam="2">  1       -2 0.10519215E-01 0.62943171E+03</pdfrwt>
<totfact> 0.87220157E+02</totfact>
</mgrwt>
</event>
<event>
 4    1  0.8641621E-005  0.4105362E+03  0.7818608E-02  0.1040191E+00
         -2   -1    0    0    0  501 -0.00000000000E+00  0.00000000000E+00  0.13855656613E+03  0.13855656615E+03  0.25500000000E-02 0. -1.
          2   -1    0    0  501    0  0.00000000000E+00 -0.00000000000E+00 -0.30409952940E+03  0.30409952942E+03  0.25500000000E-02 0.  1.
    5000001    1    1    2    0    0 -0.34152801460E+02 -0.10239934553E+03 -0.14431566514E+03  0.24434412417E+03  0.16500000000E+03 0.  0.
   -5000001    1    1    2    0    0  0.34152801460E+02  0.10239934553E+03 -0.21227298132E+02  0.19831197140E+03  0.16500000000E+03 0.  0.
<mgrwt>
<rscale>  0 0.41053617E+03</rscale>
<asrwt>0</asrwt>
<pdfrwt beam="1">  1        2 0.46784543E-01 0.41053617E+03</pdfrwt>
<pdfrwt beam="2">  1       -2 0.21316395E-01 0.41053617E+03</pdfrwt>
<totfact> 0.20411910E+03</totfact>
</mgrwt>
</event>
<event>
 4    1  0.8641621E-005  0.4761351E+03  0.7818608E-02  0.1020203E+00
          2   -1    0    0  501    0  0.00000000000E+00  0.00000000000E+00  0.30181332145E+04  0.30181332145E+04  0.25500000000E-02 0.  1.
         -2   -1    0    0    0  501 -0.00000000000E+00 -0.00000000000E+00 -0.18778547301E+02  0.18778547474E+02  0.25500000000E-02 0. -1.
    5000001    1    1    2    0    0 -0.45074511963E+02 -0.14511865623E+03  0.99101301650E+03  0.10160821497E+04  0.16500000000E+03 0.  0.
   -5000001    1    1    2    0    0  0.45074511963E+02  0.14511865623E+03  0.20083416507E+04  0.20208296123E+04  0.16500000000E+03 0.  0.
<mgrwt>
<rscale>  0 0.47613510E+03</rscale>
<asrwt>0</asrwt>
<pdfrwt beam="1">  1        2 0.46432848E+00 0.47613510E+03</pdfrwt>
<pdfrwt beam="2">  1       -2 0.28890054E-02 0.47613510E+03</pdfrwt>
<totfact> 0.88310417E+02</totfact>
</mgrwt>
</event>
<event>
 4    1  0.8641621E-005  0.4085550E+03  0.7818608E-02  0.1040857E+00
         -2   -1    0    0    0  501 -0.00000000000E+00  0.00000000000E+00  0.52280139386E+02  0.52280139448E+02  0.25500000000E-02 0. -1.
          2   -1    0    0  501    0  0.00000000000E+00 -0.00000000000E+00 -0.79818652114E+03  0.79818652115E+03  0.25500000000E-02 0.  1.
    5000001    1    1    2    0    0 -0.96470581554E+02 -0.46960179569E+02 -0.48682643998E+03  0.52510647894E+03  0.16500000000E+03 0.  0.
   -5000001    1    1    2    0    0  0.96470581554E+02  0.46960179569E+02 -0.25907994178E+03  0.32536018165E+03  0.16500000000E+03 0.  0.
<mgrwt>
<rscale>  0 0.40855503E+03</rscale>
<asrwt>0</asrwt>
<pdfrwt beam="1">  1        2 0.12279792E+00 0.40855503E+03</pdfrwt>
<pdfrwt beam="2">  1       -2 0.80430990E-02 0.40855503E+03</pdfrwt>
<totfact> 0.33526489E+03</totfact>
</mgrwt>
</event>
<event>
 4    1  0.8641621E-005  0.3692192E+03  0.7818608E-02  0.1054992E+00
         -2   -1    0    0    0  501 -0.00000000000E+00  0.00000000000E+00  0.54790682190E+03  0.54790682190E+03  0.25500000000E-02 0. -1.
          2   -1    0    0  501    0  0.00000000000E+00 -0.00000000000E+00 -0.62201635785E+02  0.62201635837E+02  0.25500000000E-02 0.  1.
    5000001    1    1    2    0    0  0.44056751591E+02 -0.63147138230E+02  0.29316741734E+03  0.34510968259E+03  0.16500000000E+03 0.  0.
   -5000001    1    1    2    0    0 -0.44056751591E+02  0.63147138230E+02  0.19253776877E+03  0.26499877515E+03  0.16500000000E+03 0.  0.
<mgrwt>
<rscale>  0 0.36921918E+03</rscale>
<asrwt>0</asrwt>
<pdfrwt beam="1">  1        2 0.95694825E-02 0.36921918E+03</pdfrwt>
<pdfrwt beam="2">  1       -2 0.84293357E-01 0.36921918E+03</pdfrwt>
<totfact> 0.86363786E+02</totfact>
</mgrwt>
</event>
<event>
 4    1  0.8641621E-005  0.9765055E+03  0.7818608E-02  0.9334695E-01
          2   -1    0    0  501    0  0.00000000000E+00  0.00000000000E+00  0.16773321636E+04  0.16773321636E+04  0.25500000000E-02 0.  1.
         -2   -1    0    0    0  501 -0.00000000000E+00 -0.00000000000E+00 -0.14212494903E+03  0.14212494905E+03  0.25500000000E-02 0. -1.
    5000001    1    1    2    0    0 -0.35081275572E+03 -0.27566578595E+03  0.97259760789E+03  0.10826967821E+04  0.16500000000E+03 0.  0.
   -5000001    1    1    2    0    0  0.35081275572E+03  0.27566578595E+03  0.56260960664E+03  0.73676033050E+03  0.16500000000E+03 0.  0.
<mgrwt>
<rscale>  0 0.97650550E+03</rscale>
<asrwt>0</asrwt>
<pdfrwt beam="1">  1        2 0.25805110E+00 0.97650550E+03</pdfrwt>
<pdfrwt beam="2">  1       -2 0.21865377E-01 0.97650550E+03</pdfrwt>
<totfact> 0.18430042E+02</totfact>
</mgrwt>
</event>
<event>
 4    1  0.8641621E-005  0.7446908E+03  0.7818608E-02  0.9643717E-01
          2   -1    0    0  501    0  0.00000000000E+00  0.00000000000E+00  0.11854438769E+04  0.11854438769E+04  0.25500000000E-02 0.  1.
         -2   -1    0    0    0  501 -0.00000000000E+00 -0.00000000000E+00 -0.11695289104E+03  0.11695289107E+03  0.25500000000E-02 0. -1.
    5000001    1    1    2    0    0 -0.60787689031E+02 -0.25859826095E+03  0.88771513577E+03  0.94118614842E+03  0.16500000000E+03 0.  0.
   -5000001    1    1    2    0    0  0.60787689031E+02  0.25859826095E+03  0.18077585010E+03  0.36121061956E+03  0.16500000000E+03 0.  0.
<mgrwt>
<rscale>  0 0.74469078E+03</rscale>
<asrwt>0</asrwt>
<pdfrwt beam="1">  1        2 0.18237597E+00 0.74469078E+03</pdfrwt>
<pdfrwt beam="2">  1       -2 0.17992753E-01 0.74469078E+03</pdfrwt>
<totfact> 0.49978416E+02</totfact>
</mgrwt>
</event>
<event>
 4    1  0.8641621E-005  0.5643702E+03  0.7818608E-02  0.9982215E-01
         -2   -1    0    0    0  501 -0.00000000000E+00  0.00000000000E+00  0.32907287326E+02  0.32907287425E+02  0.25500000000E-02 0.  1.
          2   -1    0    0  501    0  0.00000000000E+00 -0.00000000000E+00 -0.24197808610E+04  0.24197808610E+04  0.25500000000E-02 0. -1.
    5000001    1    1    2    0    0  0.20844005106E+03  0.66367737555E+02 -0.14866308701E+04  0.15116706902E+04  0.16500000000E+03 0.  0.
   -5000001    1    1    2    0    0 -0.20844005106E+03 -0.66367737555E+02 -0.90024270357E+03  0.94101745828E+03  0.16500000000E+03 0.  0.
<mgrwt>
<rscale>  0 0.56437018E+03</rscale>
<asrwt>0</asrwt>
<pdfrwt beam="1">  1        2 0.37227384E+00 0.56437018E+03</pdfrwt>
<pdfrwt beam="2">  1       -2 0.50626615E-02 0.56437018E+03</pdfrwt>
<totfact> 0.82390498E+02</totfact>
</mgrwt>
</event>
<event>
 4    1  0.8641621E-005  0.5518496E+03  0.7818608E-02  0.1001067E+00
         -2   -1    0    0    0  501 -0.00000000000E+00  0.00000000000E+00  0.70378396247E+02  0.70378396293E+02  0.25500000000E-02 0. -1.
          2   -1    0    0  501    0  0.00000000000E+00 -0.00000000000E+00 -0.10817880466E+04  0.10817880466E+04  0.25500000000E-02 0.  1.
    5000001    1    1    2    0    0  0.64131612289E+02  0.20833545719E+03 -0.42778156497E+03  0.50767961722E+03  0.16500000000E+03 0.  0.
   -5000001    1    1    2    0    0 -0.64131612289E+02 -0.20833545719E+03 -0.58362808540E+03  0.64448682569E+03  0.16500000000E+03 0.  0.
<mgrwt>
<rscale>  0 0.55184965E+03</rscale>
<asrwt>0</asrwt>
<pdfrwt beam="1">  1        2 0.16642892E+00 0.55184965E+03</pdfrwt>
<pdfrwt beam="2">  1       -2 0.10827446E-01 0.55184965E+03</pdfrwt>
<totfact> 0.13604368E+03</totfact>
</mgrwt>
</event>
<event>
 4    1  0.8641621E-005  0.5655020E+03  0.7818608E-02  0.9979682E-01
         -2   -1    0    0    0  501 -0.00000000000E+00  0.00000000000E+00  0.26078668986E+04  0.26078668986E+04  0.25500000000E-02 0. -1.
          2   -1    0    0  501    0  0.00000000000E+00 -0.00000000000E+00 -0.30656521635E+02  0.30656521741E+02  0.25500000000E-02 0.  1.
    5000001    1    1    2    0    0  0.91655659027E+02  0.18507272868E+03  0.82038372287E+03  0.86192060394E+03  0.16500000000E+03 0.  0.
   -5000001    1    1    2    0    0 -0.91655659027E+02 -0.18507272868E+03  0.17568266541E+04  0.17766028164E+04  0.16500000000E+03 0.  0.
<mgrwt>
<rscale>  0 0.56550200E+03</rscale>
<asrwt>0</asrwt>
<pdfrwt beam="1">  1        2 0.47163882E-02 0.56550200E+03</pdfrwt>
<pdfrwt beam="2">  1       -2 0.40121027E+00 0.56550200E+03</pdfrwt>
<totfact> 0.14245014E+01</totfact>
</mgrwt>
</event>
<event>
 4    1  0.8641621E-005  0.3999892E+03  0.7818608E-02  0.1043783E+00
         -2   -1    0    0    0  501 -0.00000000000E+00  0.00000000000E+00  0.92570594134E+02  0.92570594169E+02  0.25500000000E-02 0. -1.
          2   -1    0    0  501    0  0.00000000000E+00 -0.00000000000E+00 -0.43207931161E+03  0.43207931162E+03  0.25500000000E-02 0.  1.
    5000001    1    1    2    0    0 -0.86993885519E+02 -0.66751710362E+02 -0.13385434488E+03  0.23909352270E+03  0.16500000000E+03 0.  0.
   -5000001    1    1    2    0    0  0.86993885519E+02  0.66751710362E+02 -0.20565437259E+03  0.28555638309E+03  0.16500000000E+03 0.  0.
<mgrwt>
<rscale>  0 0.39998919E+03</rscale>
<asrwt>0</asrwt>
<pdfrwt beam="1">  1        2 0.66473739E-01 0.39998919E+03</pdfrwt>
<pdfrwt beam="2">  1       -2 0.14241630E-01 0.39998919E+03</pdfrwt>
<totfact> 0.27521694E+03</totfact>
</mgrwt>
</event>
<event>
 4    1  0.8641621E-005  0.4394013E+03  0.7818608E-02  0.1030931E+00
          2   -1    0    0  501    0  0.00000000000E+00  0.00000000000E+00  0.38103610476E+03  0.38103610476E+03  0.25500000000E-02 0.  1.
         -2   -1    0    0    0  501 -0.00000000000E+00 -0.00000000000E+00 -0.12667666691E+03  0.12667666694E+03  0.25500000000E-02 0. -1.
    5000001    1    1    2    0    0  0.14055962912E+03  0.34948133170E+02  0.11786389323E+03  0.24918924270E+03  0.16500000000E+03 0.  0.
   -5000001    1    1    2    0    0 -0.14055962912E+03 -0.34948133170E+02  0.13649554461E+03  0.25852352900E+03  0.16500000000E+03 0.  0.
<mgrwt>
<rscale>  0 0.43940134E+03</rscale>
<asrwt>0</asrwt>
<pdfrwt beam="1">  1        2 0.58620939E-01 0.43940134E+03</pdfrwt>
<pdfrwt beam="2">  1       -2 0.19488718E-01 0.43940134E+03</pdfrwt>
<totfact> 0.18632301E+03</totfact>
</mgrwt>
</event>
<event>
 4    1  0.8641621E-005  0.4142715E+03  0.7818608E-02  0.1038947E+00
         -2   -1    0    0    0  501 -0.00000000000E+00  0.00000000000E+00  0.38596560117E+02  0.38596560201E+02  0.25500000000E-02 0. -1.
          2   -1    0    0  501    0  0.00000000000E+00 -0.00000000000E+00 -0.11116332606E+04  0.11116332606E+04  0.25500000000E-02 0.  1.
    5000001    1    1    2    0    0 -0.10859747497E+03  0.22654762142E+01 -0.70950365277E+03  0.73649098925E+03  0.16500000000E+03 0.  0.
   -5000001    1    1    2    0    0  0.10859747497E+03 -0.22654762142E+01 -0.36353304767E+03  0.41373883151E+03  0.16500000000E+03 0.  0.
<mgrwt>
<rscale>  0 0.41427151E+03</rscale>
<asrwt>0</asrwt>
<pdfrwt beam="1">  1        2 0.17102048E+00 0.41427151E+03</pdfrwt>
<pdfrwt beam="2">  1       -2 0.59379332E-02 0.41427151E+03</pdfrwt>
<totfact> 0.33929131E+03</totfact>
</mgrwt>
</event>
<event>
 4    1  0.8641621E-005  0.8104811E+03  0.7818608E-02  0.9544969E-01
         -2   -1    0    0    0  501 -0.00000000000E+00  0.00000000000E+00  0.12763059801E+03  0.12763059804E+03  0.25500000000E-02 0. -1.
          2   -1    0    0  501    0  0.00000000000E+00 -0.00000000000E+00 -0.12866813474E+04  0.12866813474E+04  0.25500000000E-02 0.  1.
    5000001    1    1    2    0    0 -0.14365711857E+03  0.28399226996E+03 -0.24978471661E+03  0.43692834855E+03  0.16500000000E+03 0.  0.
   -5000001    1    1    2    0    0  0.14365711857E+03 -0.28399226996E+03 -0.90926603282E+03  0.97738359693E+03  0.16500000000E+03 0.  0.
<mgrwt>
<rscale>  0 0.81048112E+03</rscale>
<asrwt>0</asrwt>
<pdfrwt beam="1">  1        2 0.19795097E+00 0.81048112E+03</pdfrwt>
<pdfrwt beam="2">  1       -2 0.19635478E-01 0.81048112E+03</pdfrwt>
<totfact> 0.37331239E+02</totfact>
</mgrwt>
</event>
<event>
 4    1  0.8641621E-005  0.4625038E+03  0.7818608E-02  0.1024058E+00
         -2   -1    0    0    0  501 -0.00000000000E+00  0.00000000000E+00  0.28204940779E+02  0.28204940894E+02  0.25500000000E-02 0. -1.
          2   -1    0    0  501    0  0.00000000000E+00 -0.00000000000E+00 -0.18960306660E+04  0.18960306660E+04  0.25500000000E-02 0.  1.
    5000001    1    1    2    0    0 -0.11884849821E+03 -0.79050391212E+02 -0.12529023302E+04  0.12717559431E+04  0.16500000000E+03 0.  0.
   -5000001    1    1    2    0    0  0.11884849821E+03  0.79050391212E+02 -0.61492339500E+03  0.65247966374E+03  0.16500000000E+03 0.  0.
<mgrwt>
<rscale>  0 0.46250376E+03</rscale>
<asrwt>0</asrwt>
<pdfrwt beam="1">  1        2 0.29169693E+00 0.46250376E+03</pdfrwt>
<pdfrwt beam="2">  1       -2 0.43392232E-02 0.46250376E+03</pdfrwt>
<totfact> 0.20276133E+03</totfact>
</mgrwt>
</event>
<event>
 4    1  0.8641621E-005  0.4409679E+03  0.7818608E-02  0.1030450E+00
          2   -1    0    0  501    0  0.00000000000E+00  0.00000000000E+00  0.15536706736E+04  0.15536706736E+04  0.25500000000E-02 0.  1.
         -2   -1    0    0    0  501 -0.00000000000E+00 -0.00000000000E+00 -0.31289242059E+02  0.31289242163E+02  0.25500000000E-02 0. -1.
    5000001    1    1    2    0    0  0.56051443047E+02 -0.13170392866E+03  0.65333319476E+03  0.68888094216E+03  0.16500000000E+03 0.  0.
   -5000001    1    1    2    0    0 -0.56051443047E+02  0.13170392866E+03  0.86904823681E+03  0.89607897364E+03  0.16500000000E+03 0.  0.
<mgrwt>
<rscale>  0 0.44096793E+03</rscale>
<asrwt>0</asrwt>
<pdfrwt beam="1">  1        2 0.23902625E+00 0.44096793E+03</pdfrwt>
<pdfrwt beam="2">  1       -2 0.48137297E-02 0.44096793E+03</pdfrwt>
<totfact> 0.26435830E+03</totfact>
</mgrwt>
</event>
<event>
 4    1  0.8641621E-005  0.4040120E+03  0.7818608E-02  0.1042399E+00
         -2   -1    0    0    0  501 -0.00000000000E+00  0.00000000000E+00  0.66517393895E+02  0.66517393944E+02  0.25500000000E-02 0.  1.
          2   -1    0    0  501    0  0.00000000000E+00 -0.00000000000E+00 -0.61347005534E+03  0.61347005535E+03  0.25500000000E-02 0. -1.
    5000001    1    1    2    0    0  0.11628516861E+03  0.74382761881E+01 -0.27016918654E+03  0.33733360009E+03  0.16500000000E+03 0.  0.
   -5000001    1    1    2    0    0 -0.11628516861E+03 -0.74382761881E+01 -0.27678347490E+03  0.34265384920E+03  0.16500000000E+03 0.  0.
<mgrwt>
<rscale>  0 0.40401203E+03</rscale>
<asrwt>0</asrwt>
<pdfrwt beam="1">  1        2 0.94380005E-01 0.40401203E+03</pdfrwt>
<pdfrwt beam="2">  1       -2 0.10233446E-01 0.40401203E+03</pdfrwt>
<totfact> 0.31614512E+03</totfact>
</mgrwt>
</event>
<event>
 4    1  0.8641621E-005  0.6115732E+03  0.7818608E-02  0.9881682E-01
         -2   -1    0    0    0  501 -0.00000000000E+00  0.00000000000E+00  0.27454804444E+03  0.27454804445E+03  0.25500000000E-02 0. -1.
          2   -1    0    0  501    0  0.00000000000E+00 -0.00000000000E+00 -0.34057955348E+03  0.34057955349E+03  0.25500000000E-02 0.  1.
    5000001    1    1    2    0    0  0.17589801028E+03  0.15659975395E+03 -0.13762433437E+03  0.31879311531E+03  0.16500000000E+03 0.  0.
   -5000001    1    1    2    0    0 -0.17589801028E+03 -0.15659975395E+03  0.71592825324E+02  0.29633448263E+03  0.16500000000E+03 0.  0.
<mgrwt>
<rscale>  0 0.61157322E+03</rscale>
<asrwt>0</asrwt>
<pdfrwt beam="1">  1        2 0.52396855E-01 0.61157322E+03</pdfrwt>
<pdfrwt beam="2">  1       -2 0.42238160E-01 0.61157322E+03</pdfrwt>
<totfact> 0.51029296E+02</totfact>
</mgrwt>
</event>
<event>
 4    1  0.8641621E-005  0.5383274E+03  0.7818608E-02  0.1004232E+00
         -2   -1    0    0    0  501 -0.00000000000E+00  0.00000000000E+00  0.25657276541E+03  0.25657276542E+03  0.25500000000E-02 0. -1.
          2   -1    0    0  501    0  0.00000000000E+00 -0.00000000000E+00 -0.28237255433E+03  0.28237255434E+03  0.25500000000E-02 0.  1.
    5000001    1    1    2    0    0  0.13110283780E+03  0.78066959027E+02  0.13539744384E+03  0.26237353519E+03  0.16500000000E+03 0.  0.
   -5000001    1    1    2    0    0 -0.13110283780E+03 -0.78066959027E+02 -0.16119723276E+03  0.27657178457E+03  0.16500000000E+03 0.  0.
<mgrwt>
<rscale>  0 0.53832744E+03</rscale>
<asrwt>0</asrwt>
<pdfrwt beam="1">  1        2 0.43441932E-01 0.53832744E+03</pdfrwt>
<pdfrwt beam="2">  1       -2 0.39472733E-01 0.53832744E+03</pdfrwt>
<totfact> 0.71684448E+02</totfact>
</mgrwt>
</event>
<event>
 4    1  0.8641621E-005  0.4657944E+03  0.7818608E-02  0.1023114E+00
         -2   -1    0    0    0  501 -0.00000000000E+00  0.00000000000E+00  0.38000975046E+02  0.38000975132E+02  0.25500000000E-02 0. -1.
          2   -1    0    0  501    0  0.00000000000E+00 -0.00000000000E+00 -0.14273607253E+04  0.14273607253E+04  0.25500000000E-02 0.  1.
    5000001    1    1    2    0    0 -0.12837683293E+03 -0.87795248669E+02 -0.86196239341E+03  0.89128715046E+03  0.16500000000E+03 0.  0.
   -5000001    1    1    2    0    0  0.12837683293E+03  0.87795248669E+02 -0.52739735684E+03  0.57407454997E+03  0.16500000000E+03 0.  0.
<mgrwt>
<rscale>  0 0.46579437E+03</rscale>
<asrwt>0</asrwt>
<pdfrwt beam="1">  1        2 0.21959392E+00 0.46579437E+03</pdfrwt>
<pdfrwt beam="2">  1       -2 0.58463050E-02 0.46579437E+03</pdfrwt>
<totfact> 0.22941404E+03</totfact>
</mgrwt>
</event>
<event>
 4    1  0.8641621E-005  0.3745513E+03  0.7818608E-02  0.1052966E+00
         -2   -1    0    0    0  501 -0.00000000000E+00  0.00000000000E+00  0.54447459362E+02  0.54447459421E+02  0.25500000000E-02 0. -1.
          2   -1    0    0  501    0  0.00000000000E+00 -0.00000000000E+00 -0.64414689541E+03  0.64414689541E+03  0.25500000000E-02 0.  1.
    5000001    1    1    2    0    0 -0.14679791848E+02 -0.84056483440E+02 -0.33922983834E+03  0.38675944968E+03  0.16500000000E+03 0.  0.
   -5000001    1    1    2    0    0  0.14679791848E+02  0.84056483440E+02 -0.25046959771E+03  0.31183490515E+03  0.16500000000E+03 0.  0.
<mgrwt>
<rscale>  0 0.37455126E+03</rscale>
<asrwt>0</asrwt>
<pdfrwt beam="1">  1        2 0.99099517E-01 0.37455126E+03</pdfrwt>
<pdfrwt beam="2">  1       -2 0.83765327E-02 0.37455126E+03</pdfrwt>
<totfact> 0.41000283E+03</totfact>
</mgrwt>
</event>
<event>
 4    1  0.8641621E-005  0.4999466E+03  0.7818608E-02  0.1013793E+00
          2   -1    0    0  501    0  0.00000000000E+00  0.00000000000E+00  0.17551472196E+03  0.17551472198E+03  0.25500000000E-02 0.  1.
         -2   -1    0    0    0  501 -0.00000000000E+00 -0.00000000000E+00 -0.35601944001E+03  0.35601944002E+03  0.25500000000E-02 0. -1.
    5000001    1    1    2    0    0  0.66110996001E+02  0.17569500980E+03 -0.95267690150E+02  0.26747024703E+03  0.16500000000E+03 0.  0.
   -5000001    1    1    2    0    0 -0.66110996001E+02 -0.17569500980E+03 -0.85237027894E+02  0.26406391496E+03  0.16500000000E+03 0.  0.
<mgrwt>
<rscale>  0 0.49994661E+03</rscale>
<asrwt>0</asrwt>
<pdfrwt beam="1">  1        2 0.27002265E-01 0.49994661E+03</pdfrwt>
<pdfrwt beam="2">  1       -2 0.54772221E-01 0.49994661E+03</pdfrwt>
<totfact> 0.63318942E+02</totfact>
</mgrwt>
</event>
<event>
 4    1  0.8641621E-005  0.4170157E+03  0.7818608E-02  0.1038042E+00
         -2   -1    0    0    0  501 -0.00000000000E+00  0.00000000000E+00  0.26158345942E+02  0.26158346066E+02  0.25500000000E-02 0.  1.
          2   -1    0    0  501    0  0.00000000000E+00 -0.00000000000E+00 -0.16620131192E+04  0.16620131192E+04  0.25500000000E-02 0. -1.
    5000001    1    1    2    0    0 -0.99158969414E+02 -0.68265897290E+02 -0.64820212342E+03  0.67962028130E+03  0.16500000000E+03 0.  0.
   -5000001    1    1    2    0    0  0.99158969414E+02  0.68265897290E+02 -0.98765264979E+03  0.10085511839E+04  0.16500000000E+03 0.  0.
<mgrwt>
<rscale>  0 0.41701566E+03</rscale>
<asrwt>0</asrwt>
<pdfrwt beam="1">  1        2 0.25569424E+00 0.41701566E+03</pdfrwt>
<pdfrwt beam="2">  1       -2 0.40243622E-02 0.41701566E+03</pdfrwt>
<totfact> 0.30408693E+03</totfact>
</mgrwt>
</event>
<event>
 4    1  0.8641621E-005  0.4893698E+03  0.7818608E-02  0.1016591E+00
          2   -1    0    0  501    0  0.00000000000E+00  0.00000000000E+00  0.73383939846E+03  0.73383939846E+03  0.25500000000E-02 0.  1.
         -2   -1    0    0    0  501 -0.00000000000E+00 -0.00000000000E+00 -0.81585556826E+02  0.81585556866E+02  0.25500000000E-02 0. -1.
    5000001    1    1    2    0    0  0.11851019373E+03  0.87546760644E+02  0.50038298770E+03  0.54709892679E+03  0.16500000000E+03 0.  0.
   -5000001    1    1    2    0    0 -0.11851019373E+03 -0.87546760644E+02  0.15187085393E+03  0.26832602854E+03  0.16500000000E+03 0.  0.
<mgrwt>
<rscale>  0 0.48936978E+03</rscale>
<asrwt>0</asrwt>
<pdfrwt beam="1">  1        2 0.11289837E+00 0.48936978E+03</pdfrwt>
<pdfrwt beam="2">  1       -2 0.12551624E-01 0.48936978E+03</pdfrwt>
<totfact> 0.18235253E+03</totfact>
</mgrwt>
</event>
<event>
 4    1  0.8641621E-005  0.7582774E+03  0.7818608E-02  0.9622453E-01
         -2   -1    0    0    0  501 -0.00000000000E+00  0.00000000000E+00  0.22571082563E+03  0.22571082565E+03  0.25500000000E-02 0. -1.
          2   -1    0    0  501    0  0.00000000000E+00 -0.00000000000E+00 -0.63685985296E+03  0.63685985297E+03  0.25500000000E-02 0.  1.
    5000001    1    1    2    0    0  0.90162264468E+02 -0.18967449406E+03 -0.51168793983E+03  0.57719597659E+03  0.16500000000E+03 0.  0.
   -5000001    1    1    2    0    0 -0.90162264468E+02  0.18967449406E+03  0.10053891250E+03  0.28537470202E+03  0.16500000000E+03 0.  0.
<mgrwt>
<rscale>  0 0.75827742E+03</rscale>
<asrwt>0</asrwt>
<pdfrwt beam="1">  1        2 0.97978438E-01 0.75827742E+03</pdfrwt>
<pdfrwt beam="2">  1       -2 0.34724743E-01 0.75827742E+03</pdfrwt>
<totfact> 0.36082451E+02</totfact>
</mgrwt>
</event>
<event>
 4    1  0.8641621E-005  0.4476399E+03  0.7818608E-02  0.1028428E+00
          2   -1    0    0  501    0  0.00000000000E+00  0.00000000000E+00  0.81466946016E+03  0.81466946017E+03  0.25500000000E-02 0.  1.
         -2   -1    0    0    0  501 -0.00000000000E+00 -0.00000000000E+00 -0.61491648278E+02  0.61491648331E+02  0.25500000000E-02 0. -1.
    5000001    1    1    2    0    0 -0.51660716261E+02 -0.13562521613E+03  0.45979880782E+03  0.50961060873E+03  0.16500000000E+03 0.  0.
   -5000001    1    1    2    0    0  0.51660716261E+02  0.13562521613E+03  0.29337900407E+03  0.36655049977E+03  0.16500000000E+03 0.  0.
<mgrwt>
<rscale>  0 0.44763989E+03</rscale>
<asrwt>0</asrwt>
<pdfrwt beam="1">  1        2 0.12533376E+00 0.44763989E+03</pdfrwt>
<pdfrwt beam="2">  1       -2 0.94602541E-02 0.44763989E+03</pdfrwt>
<totfact> 0.25229941E+03</totfact>
</mgrwt>
</event>
<event>
 4    1  0.8641621E-005  0.6604170E+03  0.7818608E-02  0.9787426E-01
         -2   -1    0    0    0  501 -0.00000000000E+00  0.00000000000E+00  0.13887321455E+03  0.13887321458E+03  0.25500000000E-02 0. -1.
          2   -1    0    0  501    0  0.00000000000E+00 -0.00000000000E+00 -0.78515974050E+03  0.78515974050E+03  0.25500000000E-02 0.  1.
    5000001    1    1    2    0    0 -0.25962534182E+03  0.16466853447E+02 -0.48949803712E+03  0.57836822502E+03  0.16500000000E+03 0.  0.
   -5000001    1    1    2    0    0  0.25962534182E+03 -0.16466853447E+02 -0.15678848883E+03  0.34566473006E+03  0.16500000000E+03 0.  0.
<mgrwt>
<rscale>  0 0.66041701E+03</rscale>
<asrwt>0</asrwt>
<pdfrwt beam="1">  1        2 0.12079380E+00 0.66041701E+03</pdfrwt>
<pdfrwt beam="2">  1       -2 0.21365110E-01 0.66041701E+03</pdfrwt>
<totfact> 0.67468360E+02</totfact>
</mgrwt>
</event>
<event>
 4    1  0.8641621E-005  0.1639263E+04  0.7818608E-02  0.8796784E-01
         -2   -1    0    0    0  501 -0.00000000000E+00  0.00000000000E+00  0.45587197041E+03  0.45587197041E+03  0.25500000000E-02 0. -1.
          2   -1    0    0  501    0  0.00000000000E+00 -0.00000000000E+00 -0.14736501165E+04  0.14736501165E+04  0.25500000000E-02 0.  1.
    5000001    1    1    2    0    0  0.41900692290E+03  0.26672834840E+03 -0.12513374195E+04  0.13563853253E+04  0.16500000000E+03 0.  0.
   -5000001    1    1    2    0    0 -0.41900692290E+03 -0.26672834840E+03  0.23355927342E+03  0.57313676159E+03  0.16500000000E+03 0.  0.
<mgrwt>
<rscale>  0 0.16392630E+04</rscale>
<asrwt>0</asrwt>
<pdfrwt beam="1">  1        2 0.22671540E+00 0.16392630E+04</pdfrwt>
<pdfrwt beam="2">  1       -2 0.70134150E-01 0.16392630E+04</pdfrwt>
<totfact> 0.23249172E+01</totfact>
</mgrwt>
</event>
<event>
 4    1  0.8641621E-005  0.6536858E+03  0.7818608E-02  0.9799888E-01
          2   -1    0    0  501    0  0.00000000000E+00  0.00000000000E+00  0.33357016294E+03  0.33357016295E+03  0.25500000000E-02 0.  1.
         -2   -1    0    0    0  501 -0.00000000000E+00 -0.00000000000E+00 -0.32025128344E+03  0.32025128345E+03  0.25500000000E-02 0. -1.
    5000001    1    1    2    0    0  0.19091250340E+03  0.20750515136E+03 -0.31048101463E+01  0.32671181742E+03  0.16500000000E+03 0.  0.
   -5000001    1    1    2    0    0 -0.19091250340E+03 -0.20750515136E+03  0.16423689652E+02  0.32710962899E+03  0.16500000000E+03 0.  0.
<mgrwt>
<rscale>  0 0.65368577E+03</rscale>
<asrwt>0</asrwt>
<pdfrwt beam="1">  1        2 0.51318487E-01 0.65368577E+03</pdfrwt>
<pdfrwt beam="2">  1       -2 0.49269428E-01 0.65368577E+03</pdfrwt>
<totfact> 0.38383905E+02</totfact>
</mgrwt>
</event>
<event>
 4    1  0.8641621E-005  0.5235197E+03  0.7818608E-02  0.1007816E+00
         -2   -1    0    0    0  501 -0.00000000000E+00  0.00000000000E+00  0.48481629340E+02  0.48481629407E+02  0.25500000000E-02 0. -1.
          2   -1    0    0  501    0  0.00000000000E+00 -0.00000000000E+00 -0.14132819274E+04  0.14132819274E+04  0.25500000000E-02 0.  1.
    5000001    1    1    2    0    0  0.12379316514E+03 -0.15783269057E+03 -0.77319144210E+03  0.81565060663E+03  0.16500000000E+03 0.  0.
   -5000001    1    1    2    0    0 -0.12379316514E+03  0.15783269057E+03 -0.59160885597E+03  0.64611295020E+03  0.16500000000E+03 0.  0.
<mgrwt>
<rscale>  0 0.52351967E+03</rscale>
<asrwt>0</asrwt>
<pdfrwt beam="1">  1        2 0.21742796E+00 0.52351967E+03</pdfrwt>
<pdfrwt beam="2">  1       -2 0.74587133E-02 0.52351967E+03</pdfrwt>
<totfact> 0.15915683E+03</totfact>
</mgrwt>
</event>
<event>
 4    1  0.8641621E-005  0.7213681E+03  0.7818608E-02  0.9681372E-01
          2   -1    0    0  501    0  0.00000000000E+00  0.00000000000E+00  0.31953871360E+04  0.31953871360E+04  0.25500000000E-02 0.  1.
         -2   -1    0    0    0  501 -0.00000000000E+00 -0.00000000000E+00 -0.40712742004E+02  0.40712742084E+02  0.25500000000E-02 0. -1.
    5000001    1    1    2    0    0 -0.26256972727E+03  0.15699264105E+03  0.11452195081E+04  0.11968050270E+04  0.16500000000E+03 0.  0.
   -5000001    1    1    2    0    0  0.26256972727E+03 -0.15699264105E+03  0.20094548859E+04  0.20392948510E+04  0.16500000000E+03 0.  0.
<mgrwt>
<rscale>  0 0.72136807E+03</rscale>
<asrwt>0</asrwt>
<pdfrwt beam="1">  1        2 0.49159825E+00 0.72136807E+03</pdfrwt>
<pdfrwt beam="2">  1       -2 0.62634958E-02 0.72136807E+03</pdfrwt>
<totfact> 0.20211648E+02</totfact>
</mgrwt>
</event>
<event>
 4    1  0.8641621E-005  0.6094084E+03  0.7818608E-02  0.9886077E-01
          2   -1    0    0  501    0  0.00000000000E+00  0.00000000000E+00  0.15957724292E+03  0.15957724294E+03  0.25500000000E-02 0.  1.
         -2   -1    0    0    0  501 -0.00000000000E+00 -0.00000000000E+00 -0.58181643234E+03  0.58181643235E+03  0.25500000000E-02 0. -1.
    5000001    1    1    2    0    0 -0.23217832459E+03 -0.10963314049E+02 -0.80131269963E+02  0.29609624971E+03  0.16500000000E+03 0.  0.
   -5000001    1    1    2    0    0  0.23217832459E+03  0.10963314049E+02 -0.34210791946E+03  0.44529742558E+03  0.16500000000E+03 0.  0.
<mgrwt>
<rscale>  0 0.60940844E+03</rscale>
<asrwt>0</asrwt>
<pdfrwt beam="1">  1        2 0.24550345E-01 0.60940844E+03</pdfrwt>
<pdfrwt beam="2">  1       -2 0.89510219E-01 0.60940844E+03</pdfrwt>
<totfact> 0.24223886E+02</totfact>
</mgrwt>
</event>
<event>
 4    1  0.8641621E-005  0.5459407E+03  0.7818608E-02  0.1002438E+00
          2   -1    0    0  501    0  0.00000000000E+00  0.00000000000E+00  0.14944503452E+04  0.14944503452E+04  0.25500000000E-02 0.  1.
         -2   -1    0    0    0  501 -0.00000000000E+00 -0.00000000000E+00 -0.49859683829E+02  0.49859683894E+02  0.25500000000E-02 0. -1.
    5000001    1    1    2    0    0 -0.17858368237E+03  0.49898636017E+02  0.10436478657E+04  0.10727571361E+04  0.16500000000E+03 0.  0.
   -5000001    1    1    2    0    0  0.17858368237E+03 -0.49898636017E+02  0.40094279568E+03  0.47155289299E+03  0.16500000000E+03 0.  0.
<mgrwt>
<rscale>  0 0.54594074E+03</rscale>
<asrwt>0</asrwt>
<pdfrwt beam="1">  1        2 0.22991548E+00 0.54594074E+03</pdfrwt>
<pdfrwt beam="2">  1       -2 0.76707191E-02 0.54594074E+03</pdfrwt>
<totfact> 0.13716359E+03</totfact>
</mgrwt>
</event>
<event>
 4    1  0.8641621E-005  0.3679902E+03  0.7818608E-02  0.1055464E+00
          2   -1    0    0  501    0  0.00000000000E+00  0.00000000000E+00  0.63020924209E+02  0.63020924261E+02  0.25500000000E-02 0.  1.
         -2   -1    0    0    0  501 -0.00000000000E+00 -0.00000000000E+00 -0.53718967329E+03  0.53718967330E+03  0.25500000000E-02 0. -1.
    5000001    1    1    2    0    0 -0.59725924977E+02  0.48759508027E+02 -0.27975790838E+03  0.33381755951E+03  0.16500000000E+03 0.  0.
   -5000001    1    1    2    0    0  0.59725924977E+02 -0.48759508027E+02 -0.19441084071E+03  0.26639303805E+03  0.16500000000E+03 0.  0.
<mgrwt>
<rscale>  0 0.36799016E+03</rscale>
<asrwt>0</asrwt>
<pdfrwt beam="1">  1        2 0.96955271E-02 0.36799016E+03</pdfrwt>
<pdfrwt beam="2">  1       -2 0.82644562E-01 0.36799016E+03</pdfrwt>
<totfact> 0.88791132E+02</totfact>
</mgrwt>
</event>
<event>
 4    1  0.8641621E-005  0.4136735E+03  0.7818608E-02  0.1039145E+00
          2   -1    0    0  501    0  0.00000000000E+00  0.00000000000E+00  0.26821652503E+04  0.26821652503E+04  0.25500000000E-02 0.  1.
         -2   -1    0    0    0  501 -0.00000000000E+00 -0.00000000000E+00 -0.15950336377E+02  0.15950336581E+02  0.25500000000E-02 0. -1.
    5000001    1    1    2    0    0 -0.36769317388E+02 -0.10869415707E+03  0.16519711443E+04  0.16641514547E+04  0.16500000000E+03 0.  0.
   -5000001    1    1    2    0    0  0.36769317388E+02  0.10869415707E+03  0.10142437696E+04  0.10339641322E+04  0.16500000000E+03 0.  0.
<mgrwt>
<rscale>  0 0.41367349E+03</rscale>
<asrwt>0</asrwt>
<pdfrwt beam="1">  1        2 0.41264051E+00 0.41367349E+03</pdfrwt>
<pdfrwt beam="2">  1       -2 0.24538997E-02 0.41367349E+03</pdfrwt>
<totfact> 0.17887800E+03</totfact>
</mgrwt>
</event>
<event>
 4    1  0.8641621E-005  0.4713167E+03  0.7818608E-02  0.1021549E+00
         -2   -1    0    0    0  501 -0.00000000000E+00  0.00000000000E+00  0.14858764016E+03  0.14858764018E+03  0.25500000000E-02 0. -1.
          2   -1    0    0  501    0  0.00000000000E+00 -0.00000000000E+00 -0.37375157126E+03  0.37375157126E+03  0.25500000000E-02 0.  1.
    5000001    1    1    2    0    0  0.27190866077E+02 -0.12559549520E+03 -0.23295038038E+03  0.31305662640E+03  0.16500000000E+03 0.  0.
   -5000001    1    1    2    0    0 -0.27190866077E+02  0.12559549520E+03  0.77864492857E+01  0.20928258505E+03  0.16500000000E+03 0.  0.
<mgrwt>
<rscale>  0 0.47131673E+03</rscale>
<asrwt>0</asrwt>
<pdfrwt beam="1">  1        2 0.57500242E-01 0.47131673E+03</pdfrwt>
<pdfrwt beam="2">  1       -2 0.22859637E-01 0.47131673E+03</pdfrwt>
<totfact> 0.14415963E+03</totfact>
</mgrwt>
</event>
<event>
 4    1  0.8641621E-005  0.4873531E+03  0.7818608E-02  0.1017134E+00
         -2   -1    0    0    0  501 -0.00000000000E+00  0.00000000000E+00  0.12087529710E+03  0.12087529712E+03  0.25500000000E-02 0.  1.
          2   -1    0    0  501    0  0.00000000000E+00 -0.00000000000E+00 -0.49123560075E+03  0.49123560075E+03  0.25500000000E-02 0. -1.
    5000001    1    1    2    0    0 -0.68371126992E+01 -0.17905409001E+03 -0.19371127246E+03  0.31121723979E+03  0.16500000000E+03 0.  0.
   -5000001    1    1    2    0    0  0.68371126992E+01  0.17905409001E+03 -0.17664903119E+03  0.30089365809E+03  0.16500000000E+03 0.  0.
<mgrwt>
<rscale>  0 0.48735305E+03</rscale>
<asrwt>0</asrwt>
<pdfrwt beam="1">  1        2 0.75574707E-01 0.48735305E+03</pdfrwt>
<pdfrwt beam="2">  1       -2 0.18596200E-01 0.48735305E+03</pdfrwt>
<totfact> 0.15208074E+03</totfact>
</mgrwt>
</event>
<event>
 4    1  0.8641621E-005  0.4212610E+03  0.7818608E-02  0.1036657E+00
          2   -1    0    0  501    0  0.00000000000E+00  0.00000000000E+00  0.48157624829E+02  0.48157624897E+02  0.25500000000E-02 0. -1.
         -2   -1    0    0    0  501 -0.00000000000E+00 -0.00000000000E+00 -0.92125008034E+03  0.92125008035E+03  0.25500000000E-02 0.  1.
    5000001    1    1    2    0    0 -0.51974118176E+02  0.44318065081E+02 -0.69356937998E+03  0.71619053659E+03  0.16500000000E+03 0.  0.
   -5000001    1    1    2    0    0  0.51974118176E+02 -0.44318065081E+02 -0.17952307554E+03  0.25321716866E+03  0.16500000000E+03 0.  0.
<mgrwt>
<rscale>  0 0.42126104E+03</rscale>
<asrwt>0</asrwt>
<pdfrwt beam="1">  1        2 0.74088661E-02 0.42126104E+03</pdfrwt>
<pdfrwt beam="2">  1       -2 0.14173077E+00 0.42126104E+03</pdfrwt>
<totfact> 0.34544645E+02</totfact>
</mgrwt>
</event>
<event>
 4    1  0.8641621E-005  0.4447141E+03  0.7818608E-02  0.1029310E+00
         -2   -1    0    0    0  501 -0.00000000000E+00  0.00000000000E+00  0.12194197574E+03  0.12194197577E+03  0.25500000000E-02 0. -1.
          2   -1    0    0  501    0  0.00000000000E+00 -0.00000000000E+00 -0.40546053783E+03  0.40546053784E+03  0.25500000000E-02 0.  1.
    5000001    1    1    2    0    0 -0.14102015488E+03 -0.47923874200E+02 -0.14870255726E+03  0.26743379057E+03  0.16500000000E+03 0.  0.
   -5000001    1    1    2    0    0  0.14102015488E+03  0.47923874200E+02 -0.13481600483E+03  0.25996872304E+03  0.16500000000E+03 0.  0.
<mgrwt>
<rscale>  0 0.44471411E+03</rscale>
<asrwt>0</asrwt>
<pdfrwt beam="1">  1        2 0.62378544E-01 0.44471411E+03</pdfrwt>
<pdfrwt beam="2">  1       -2 0.18760304E-01 0.44471411E+03</pdfrwt>
<totfact> 0.18575881E+03</totfact>
</mgrwt>
</event>
<event>
 4    1  0.8641621E-005  0.3523975E+03  0.7818608E-02  0.1061635E+00
          2   -1    0    0  501    0  0.00000000000E+00  0.00000000000E+00  0.12696000559E+03  0.12696000561E+03  0.25500000000E-02 0.  1.
         -2   -1    0    0    0  501 -0.00000000000E+00 -0.00000000000E+00 -0.24453364967E+03  0.24453364968E+03  0.25500000000E-02 0. -1.
    5000001    1    1    2    0    0 -0.30987714604E+02  0.53436001694E+02 -0.61224896060E+02  0.18651845118E+03  0.16500000000E+03 0.  0.
   -5000001    1    1    2    0    0  0.30987714604E+02 -0.53436001694E+02 -0.56348748023E+02  0.18497520411E+03  0.16500000000E+03 0.  0.
<mgrwt>
<rscale>  0 0.35239747E+03</rscale>
<asrwt>0</asrwt>
<pdfrwt beam="1">  1        2 0.19532309E-01 0.35239747E+03</pdfrwt>
<pdfrwt beam="2">  1       -2 0.37620561E-01 0.35239747E+03</pdfrwt>
<totfact> 0.19219091E+03</totfact>
</mgrwt>
</event>
<event>
 4    1  0.8641621E-005  0.3726040E+03  0.7818608E-02  0.1053702E+00
         -2   -1    0    0    0  501 -0.00000000000E+00  0.00000000000E+00  0.14972788260E+02  0.14972788477E+02  0.25500000000E-02 0. -1.
          2   -1    0    0  501    0  0.00000000000E+00 -0.00000000000E+00 -0.23181014696E+04  0.23181014696E+04  0.25500000000E-02 0.  1.
    5000001    1    1    2    0    0  0.47524770063E+02 -0.72267237247E+02 -0.11420984872E+04  0.11571927721E+04  0.16500000000E+03 0.  0.
   -5000001    1    1    2    0    0 -0.47524770063E+02  0.72267237247E+02 -0.11610301941E+04  0.11758814859E+04  0.16500000000E+03 0.  0.
<mgrwt>
<rscale>  0 0.37260404E+03</rscale>
<asrwt>0</asrwt>
<pdfrwt beam="1">  1        2 0.35663071E+00 0.37260404E+03</pdfrwt>
<pdfrwt beam="2">  1       -2 0.23035077E-02 0.37260404E+03</pdfrwt>
<totfact> 0.31416640E+03</totfact>
</mgrwt>
</event>
<event>
 4    1  0.8641621E-005  0.6914838E+03  0.7818608E-02  0.9731908E-01
         -2   -1    0    0    0  501 -0.00000000000E+00  0.00000000000E+00  0.40976385270E+03  0.40976385270E+03  0.25500000000E-02 0. -1.
          2   -1    0    0  501    0  0.00000000000E+00 -0.00000000000E+00 -0.29172279845E+03  0.29172279846E+03  0.25500000000E-02 0.  1.
    5000001    1    1    2    0    0  0.20800061951E+03 -0.12183491806E+03  0.24664035425E+03  0.38231462085E+03  0.16500000000E+03 0.  0.
   -5000001    1    1    2    0    0 -0.20800061951E+03  0.12183491806E+03 -0.12859930000E+03  0.31917203032E+03  0.16500000000E+03 0.  0.
<mgrwt>
<rscale>  0 0.69148379E+03</rscale>
<asrwt>0</asrwt>
<pdfrwt beam="1">  1        2 0.44880431E-01 0.69148379E+03</pdfrwt>
<pdfrwt beam="2">  1       -2 0.63040593E-01 0.69148379E+03</pdfrwt>
<totfact> 0.26668371E+02</totfact>
</mgrwt>
</event>
<event>
 4    1  0.8641621E-005  0.6620105E+03  0.7818608E-02  0.9784500E-01
          2   -1    0    0  501    0  0.00000000000E+00  0.00000000000E+00  0.50344430820E+03  0.50344430821E+03  0.25500000000E-02 0. -1.
         -2   -1    0    0    0  501 -0.00000000000E+00 -0.00000000000E+00 -0.21762975077E+03  0.21762975079E+03  0.25500000000E-02 0.  1.
    5000001    1    1    2    0    0  0.78375999157E+02 -0.27468933668E+03  0.17258584383E+03  0.37230082248E+03  0.16500000000E+03 0.  0.
   -5000001    1    1    2    0    0 -0.78375999157E+02  0.27468933668E+03  0.11322871360E+03  0.34877323652E+03  0.16500000000E+03 0.  0.
<mgrwt>
<rscale>  0 0.66201045E+03</rscale>
<asrwt>0</asrwt>
<pdfrwt beam="1">  1        2 0.77452971E-01 0.66201045E+03</pdfrwt>
<pdfrwt beam="2">  1       -2 0.33481500E-01 0.66201045E+03</pdfrwt>
<totfact> 0.51282875E+02</totfact>
</mgrwt>
</event>
<event>
 4    1  0.8641621E-005  0.4020065E+03  0.7818608E-02  0.1043087E+00
         -2   -1    0    0    0  501 -0.00000000000E+00  0.00000000000E+00  0.14325881504E+03  0.14325881506E+03  0.25500000000E-02 0. -1.
          2   -1    0    0  501    0  0.00000000000E+00 -0.00000000000E+00 -0.28202320356E+03  0.28202320357E+03  0.25500000000E-02 0.  1.
    5000001    1    1    2    0    0  0.62113821621E+02 -0.53066467761E+02  0.15928848266E+02  0.18480504605E+03  0.16500000000E+03 0.  0.
   -5000001    1    1    2    0    0 -0.62113821621E+02  0.53066467761E+02 -0.15469323679E+03  0.24047697259E+03  0.16500000000E+03 0.  0.
<mgrwt>
<rscale>  0 0.40200652E+03</rscale>
<asrwt>0</asrwt>
<pdfrwt beam="1">  1        2 0.43388185E-01 0.40200652E+03</pdfrwt>
<pdfrwt beam="2">  1       -2 0.22039818E-01 0.40200652E+03</pdfrwt>
<totfact> 0.20900912E+03</totfact>
</mgrwt>
</event>
<event>
 4    1  0.8641621E-005  0.1068600E+04  0.7818608E-02  0.9236349E-01
         -2   -1    0    0    0  501 -0.00000000000E+00  0.00000000000E+00  0.11890736283E+03  0.11890736285E+03  0.25500000000E-02 0. -1.
          2   -1    0    0  501    0  0.00000000000E+00 -0.00000000000E+00 -0.24008309864E+04  0.24008309864E+04  0.25500000000E-02 0.  1.
    5000001    1    1    2    0    0  0.27482211400E+03  0.39250509212E+03 -0.74174485505E+03  0.89833060267E+03  0.16500000000E+03 0.  0.
   -5000001    1    1    2    0    0 -0.27482211400E+03 -0.39250509212E+03 -0.15401787685E+04  0.16214077465E+04  0.16500000000E+03 0.  0.
<mgrwt>
<rscale>  0 0.10686000E+04</rscale>
<asrwt>0</asrwt>
<pdfrwt beam="1">  1        2 0.36935858E+00 0.10686000E+04</pdfrwt>
<pdfrwt beam="2">  1       -2 0.18293442E-01 0.10686000E+04</pdfrwt>
<totfact> 0.99473095E+01</totfact>
</mgrwt>
</event>
<event>
 4    1  0.8641621E-005  0.6095712E+03  0.7818608E-02  0.9885746E-01
          2   -1    0    0  501    0  0.00000000000E+00  0.00000000000E+00  0.14158903615E+04  0.14158903616E+04  0.25500000000E-02 0.  1.
         -2   -1    0    0    0  501 -0.00000000000E+00 -0.00000000000E+00 -0.65608362920E+02  0.65608362969E+02  0.25500000000E-02 0. -1.
    5000001    1    1    2    0    0 -0.87312609162E+02 -0.18950187140E+01  0.89611637449E+02  0.20708048769E+03  0.16500000000E+03 0.  0.
   -5000001    1    1    2    0    0  0.87312609162E+02  0.18950187140E+01  0.12606703612E+04  0.12744182368E+04  0.16500000000E+03 0.  0.
<mgrwt>
<rscale>  0 0.60957116E+03</rscale>
<asrwt>0</asrwt>
<pdfrwt beam="1">  1        2 0.21782931E+00 0.60957116E+03</pdfrwt>
<pdfrwt beam="2">  1       -2 0.10093593E-01 0.60957116E+03</pdfrwt>
<totfact> 0.97372973E+02</totfact>
</mgrwt>
</event>
<event>
 4    1  0.8641621E-005  0.4102120E+03  0.7818608E-02  0.1040300E+00
         -2   -1    0    0    0  501 -0.00000000000E+00  0.00000000000E+00  0.52361269371E+02  0.52361269433E+02  0.25500000000E-02 0. -1.
          2   -1    0    0  501    0  0.00000000000E+00 -0.00000000000E+00 -0.80342724565E+03  0.80342724566E+03  0.25500000000E-02 0.  1.
    5000001    1    1    2    0    0  0.95775593874E+02 -0.74941997378E+02 -0.36017373208E+03  0.41441450823E+03  0.16500000000E+03 0.  0.
   -5000001    1    1    2    0    0 -0.95775593874E+02  0.74941997378E+02 -0.39089224421E+03  0.44137400686E+03  0.16500000000E+03 0.  0.
<mgrwt>
<rscale>  0 0.41021200E+03</rscale>
<asrwt>0</asrwt>
<pdfrwt beam="1">  1        2 0.12360418E+00 0.41021200E+03</pdfrwt>
<pdfrwt beam="2">  1       -2 0.80555805E-02 0.41021200E+03</pdfrwt>
<totfact> 0.33163286E+03</totfact>
</mgrwt>
</event>
<event>
 4    1  0.8641621E-005  0.5468991E+03  0.7818608E-02  0.1002214E+00
          2   -1    0    0  501    0  0.00000000000E+00  0.00000000000E+00  0.25395215806E+03  0.25395215807E+03  0.25500000000E-02 0.  1.
         -2   -1    0    0    0  501 -0.00000000000E+00 -0.00000000000E+00 -0.29444383998E+03  0.29444383999E+03  0.25500000000E-02 0. -1.
    5000001    1    1    2    0    0  0.11615503041E+03  0.15381958190E+03  0.81999884088E+02  0.26664852495E+03  0.16500000000E+03 0.  0.
   -5000001    1    1    2    0    0 -0.11615503041E+03 -0.15381958190E+03 -0.12249156600E+03  0.28174747312E+03  0.16500000000E+03 0.  0.
<mgrwt>
<rscale>  0 0.54689907E+03</rscale>
<asrwt>0</asrwt>
<pdfrwt beam="1">  1        2 0.39069563E-01 0.54689907E+03</pdfrwt>
<pdfrwt beam="2">  1       -2 0.45299052E-01 0.54689907E+03</pdfrwt>
<totfact> 0.61525181E+02</totfact>
</mgrwt>
</event>
<event>
 4    1  0.8641621E-005  0.1142760E+04  0.7818608E-02  0.9164489E-01
         -2   -1    0    0    0  501 -0.00000000000E+00  0.00000000000E+00  0.30865312619E+03  0.30865312620E+03  0.25500000000E-02 0.  1.
          2   -1    0    0  501    0  0.00000000000E+00 -0.00000000000E+00 -0.10577416500E+04  0.10577416501E+04  0.25500000000E-02 0. -1.
    5000001    1    1    2    0    0 -0.10257560037E+03  0.29715015534E+03 -0.90985103822E+03  0.97666467139E+03  0.16500000000E+03 0.  0.
   -5000001    1    1    2    0    0  0.10257560037E+03 -0.29715015534E+03  0.16076251436E+03  0.38973010486E+03  0.16500000000E+03 0.  0.
<mgrwt>
<rscale>  0 0.11427603E+04</rscale>
<asrwt>0</asrwt>
<pdfrwt beam="1">  1        2 0.16272948E+00 0.11427603E+04</pdfrwt>
<pdfrwt beam="2">  1       -2 0.47485097E-01 0.11427603E+04</pdfrwt>
<totfact> 0.96310626E+01</totfact>
</mgrwt>
</event>
<event>
 4    1  0.8641621E-005  0.4233556E+03  0.7818608E-02  0.1035980E+00
          2   -1    0    0  501    0  0.00000000000E+00  0.00000000000E+00  0.29541398711E+03  0.29541398712E+03  0.25500000000E-02 0.  1.
         -2   -1    0    0    0  501 -0.00000000000E+00 -0.00000000000E+00 -0.15167693734E+03  0.15167693736E+03  0.25500000000E-02 0. -1.
    5000001    1    1    2    0    0 -0.51317315510E+02 -0.10337320215E+03  0.14082076441E+03  0.24571319355E+03  0.16500000000E+03 0.  0.
   -5000001    1    1    2    0    0  0.51317315510E+02  0.10337320215E+03  0.29162853593E+01  0.20137773093E+03  0.16500000000E+03 0.  0.
<mgrwt>
<rscale>  0 0.42335559E+03</rscale>
<asrwt>0</asrwt>
<pdfrwt beam="1">  1        2 0.45448305E-01 0.42335559E+03</pdfrwt>
<pdfrwt beam="2">  1       -2 0.23334914E-01 0.42335559E+03</pdfrwt>
<totfact> 0.17982508E+03</totfact>
</mgrwt>
</event>
<event>
 4    1  0.8641621E-005  0.3413073E+03  0.7818608E-02  0.1066240E+00
          2   -1    0    0  501    0  0.00000000000E+00  0.00000000000E+00  0.24402615318E+03  0.24402615320E+03  0.25500000000E-02 0.  1.
         -2   -1    0    0    0  501 -0.00000000000E+00 -0.00000000000E+00 -0.11934243320E+03  0.11934243322E+03  0.25500000000E-02 0. -1.
    5000001    1    1    2    0    0  0.43301584288E+02 -0.33008902693E+01  0.58692185012E+02  0.18043196962E+03  0.16500000000E+03 0.  0.
   -5000001    1    1    2    0    0 -0.43301584288E+02  0.33008902693E+01  0.65991534974E+02  0.18293661680E+03  0.16500000000E+03 0.  0.
<mgrwt>
<rscale>  0 0.34130734E+03</rscale>
<asrwt>0</asrwt>
<pdfrwt beam="1">  1        2 0.37542485E-01 0.34130734E+03</pdfrwt>
<pdfrwt beam="2">  1       -2 0.18360374E-01 0.34130734E+03</pdfrwt>
<totfact> 0.33438384E+03</totfact>
</mgrwt>
</event>
<event>
 4    1  0.8641621E-005  0.5708678E+03  0.7818608E-02  0.9967760E-01
         -2   -1    0    0    0  501 -0.00000000000E+00  0.00000000000E+00  0.26103465963E+02  0.26103466087E+02  0.25500000000E-02 0. -1.
          2   -1    0    0  501    0  0.00000000000E+00 -0.00000000000E+00 -0.31211371610E+04  0.31211371610E+04  0.25500000000E-02 0.  1.
    5000001    1    1    2    0    0  0.22488113145E+03  0.60110671901E+02 -0.15038688060E+04  0.15306963127E+04  0.16500000000E+03 0.  0.
   -5000001    1    1    2    0    0 -0.22488113145E+03 -0.60110671901E+02 -0.15911648890E+04  0.16165443143E+04  0.16500000000E+03 0.  0.
<mgrwt>
<rscale>  0 0.57086775E+03</rscale>
<asrwt>0</asrwt>
<pdfrwt beam="1">  1        2 0.48017465E+00 0.57086775E+03</pdfrwt>
<pdfrwt beam="2">  1       -2 0.40159203E-02 0.57086775E+03</pdfrwt>
<totfact> 0.45730888E+02</totfact>
</mgrwt>
</event>
<event>
 4    1  0.8641621E-005  0.3914011E+03  0.7818608E-02  0.1046799E+00
          2   -1    0    0  501    0  0.00000000000E+00  0.00000000000E+00  0.20633411071E+03  0.20633411073E+03  0.25500000000E-02 0.  1.
         -2   -1    0    0    0  501 -0.00000000000E+00 -0.00000000000E+00 -0.18561498978E+03  0.18561498979E+03  0.25500000000E-02 0. -1.
    5000001    1    1    2    0    0 -0.42115401048E+02  0.84233664731E+02 -0.36660270905E+02  0.19348899902E+03  0.16500000000E+03 0.  0.
   -5000001    1    1    2    0    0  0.42115401048E+02 -0.84233664731E+02  0.57379391839E+02  0.19846010150E+03  0.16500000000E+03 0.  0.
<mgrwt>
<rscale>  0 0.39140109E+03</rscale>
<asrwt>0</asrwt>
<pdfrwt beam="1">  1        2 0.31743709E-01 0.39140109E+03</pdfrwt>
<pdfrwt beam="2">  1       -2 0.28556152E-01 0.39140109E+03</pdfrwt>
<totfact> 0.18554241E+03</totfact>
</mgrwt>
</event>
<event>
 4    1  0.8641621E-005  0.4825916E+03  0.7818608E-02  0.1018425E+00
         -2   -1    0    0    0  501 -0.00000000000E+00  0.00000000000E+00  0.13661253546E+03  0.13661253549E+03  0.25500000000E-02 0. -1.
          2   -1    0    0  501    0  0.00000000000E+00 -0.00000000000E+00 -0.42619558132E+03  0.42619558133E+03  0.25500000000E-02 0.  1.
    5000001    1    1    2    0    0 -0.15872062061E+03  0.75990822534E+02 -0.15136992171E+03  0.28478885813E+03  0.16500000000E+03 0.  0.
   -5000001    1    1    2    0    0  0.15872062061E+03 -0.75990822534E+02 -0.13821312415E+03  0.27801925869E+03  0.16500000000E+03 0.  0.
<mgrwt>
<rscale>  0 0.48259158E+03</rscale>
<asrwt>0</asrwt>
<pdfrwt beam="1">  1        2 0.65568551E-01 0.48259158E+03</pdfrwt>
<pdfrwt beam="2">  1       -2 0.21017313E-01 0.48259158E+03</pdfrwt>
<totfact> 0.14441740E+03</totfact>
</mgrwt>
</event>
<event>
 4    1  0.8641621E-005  0.7903883E+03  0.7818608E-02  0.9574035E-01
          2   -1    0    0  501    0  0.00000000000E+00  0.00000000000E+00  0.85465219938E+03  0.85465219938E+03  0.25500000000E-02 0.  1.
         -2   -1    0    0    0  501 -0.00000000000E+00 -0.00000000000E+00 -0.18273915086E+03  0.18273915088E+03  0.25500000000E-02 0. -1.
    5000001    1    1    2    0    0 -0.10172750917E+03 -0.30526716423E+03  0.12670755906E+03  0.38316619528E+03  0.16500000000E+03 0.  0.
   -5000001    1    1    2    0    0  0.10172750917E+03  0.30526716423E+03  0.54520548946E+03  0.65422515498E+03  0.16500000000E+03 0.  0.
<mgrwt>
<rscale>  0 0.79038830E+03</rscale>
<asrwt>0</asrwt>
<pdfrwt beam="1">  1        2 0.13148495E+00 0.79038830E+03</pdfrwt>
<pdfrwt beam="2">  1       -2 0.28113715E-01 0.79038830E+03</pdfrwt>
<totfact> 0.36603119E+02</totfact>
</mgrwt>
</event>
<event>
 4    1  0.8641621E-005  0.6457981E+03  0.7818608E-02  0.9814696E-01
         -2   -1    0    0    0  501 -0.00000000000E+00  0.00000000000E+00  0.20699203312E+03  0.20699203314E+03  0.25500000000E-02 0. -1.
          2   -1    0    0  501    0  0.00000000000E+00 -0.00000000000E+00 -0.50370914962E+03  0.50370914962E+03  0.25500000000E-02 0.  1.
    5000001    1    1    2    0    0  0.21392658194E+03  0.15218713510E+03 -0.24748474297E+03  0.39673568601E+03  0.16500000000E+03 0.  0.
   -5000001    1    1    2    0    0 -0.21392658194E+03 -0.15218713510E+03 -0.49232373527E+02  0.31396549676E+03  0.16500000000E+03 0.  0.
<mgrwt>
<rscale>  0 0.64579805E+03</rscale>
<asrwt>0</asrwt>
<pdfrwt beam="1">  1        2 0.77493715E-01 0.64579805E+03</pdfrwt>
<pdfrwt beam="2">  1       -2 0.31844928E-01 0.64579805E+03</pdfrwt>
<totfact> 0.56329117E+02</totfact>
</mgrwt>
</event>
<event>
 4    1  0.8641621E-005  0.3878989E+03  0.7818608E-02  0.1048052E+00
         -2   -1    0    0    0  501 -0.00000000000E+00  0.00000000000E+00  0.75119079006E+02  0.75119079049E+02  0.25500000000E-02 0. -1.
          2   -1    0    0  501    0  0.00000000000E+00 -0.00000000000E+00 -0.50075670085E+03  0.50075670085E+03  0.25500000000E-02 0.  1.
    5000001    1    1    2    0    0  0.80025607180E+02 -0.59815028349E+02 -0.24285944041E+03  0.31014132781E+03  0.16500000000E+03 0.  0.
   -5000001    1    1    2    0    0 -0.80025607180E+02  0.59815028349E+02 -0.18277818143E+03  0.26573445209E+03  0.16500000000E+03 0.  0.
<mgrwt>
<rscale>  0 0.38789886E+03</rscale>
<asrwt>0</asrwt>
<pdfrwt beam="1">  1        2 0.77039490E-01 0.38789886E+03</pdfrwt>
<pdfrwt beam="2">  1       -2 0.11556782E-01 0.38789886E+03</pdfrwt>
<totfact> 0.32842803E+03</totfact>
</mgrwt>
</event>
<event>
 4    1  0.8641621E-005  0.7357576E+03  0.7818608E-02  0.9657963E-01
         -2   -1    0    0    0  501 -0.00000000000E+00  0.00000000000E+00  0.67652362273E+03  0.67652362274E+03  0.25500000000E-02 0. -1.
          2   -1    0    0  501    0  0.00000000000E+00 -0.00000000000E+00 -0.20004446637E+03  0.20004446639E+03  0.25500000000E-02 0.  1.
    5000001    1    1    2    0    0  0.14431320688E+03 -0.26028666179E+03  0.40475347727E+03  0.52879658220E+03  0.16500000000E+03 0.  0.
   -5000001    1    1    2    0    0 -0.14431320688E+03  0.26028666179E+03  0.71725679087E+02  0.34777150692E+03  0.16500000000E+03 0.  0.
<mgrwt>
<rscale>  0 0.73575759E+03</rscale>
<asrwt>0</asrwt>
<pdfrwt beam="1">  1        2 0.30776072E-01 0.73575759E+03</pdfrwt>
<pdfrwt beam="2">  1       -2 0.10408056E+00 0.73575759E+03</pdfrwt>
<totfact> 0.13102882E+02</totfact>
</mgrwt>
</event>
<event>
 4    1  0.8641621E-005  0.4655526E+03  0.7818608E-02  0.1023183E+00
          2   -1    0    0  501    0  0.00000000000E+00  0.00000000000E+00  0.39039912503E+03  0.39039912504E+03  0.25500000000E-02 0.  1.
         -2   -1    0    0    0  501 -0.00000000000E+00 -0.00000000000E+00 -0.13879332954E+03  0.13879332957E+03  0.25500000000E-02 0. -1.
    5000001    1    1    2    0    0 -0.14503347085E+03 -0.29200855310E+02  0.44846431544E+02  0.22610528530E+03  0.16500000000E+03 0.  0.
   -5000001    1    1    2    0    0  0.14503347085E+03  0.29200855310E+02  0.20675936395E+03  0.30308716931E+03  0.16500000000E+03 0.  0.
<mgrwt>
<rscale>  0 0.46555255E+03</rscale>
<asrwt>0</asrwt>
<pdfrwt beam="1">  1        2 0.60061404E-01 0.46555255E+03</pdfrwt>
<pdfrwt beam="2">  1       -2 0.21352820E-01 0.46555255E+03</pdfrwt>
<totfact> 0.15484898E+03</totfact>
</mgrwt>
</event>
<event>
 4    1  0.8641621E-005  0.1353561E+04  0.7818608E-02  0.8988137E-01
         -2   -1    0    0    0  501 -0.00000000000E+00  0.00000000000E+00  0.28557167442E+03  0.28557167443E+03  0.25500000000E-02 0. -1.
          2   -1    0    0  501    0  0.00000000000E+00 -0.00000000000E+00 -0.16039112578E+04  0.16039112578E+04  0.25500000000E-02 0.  1.
    5000001    1    1    2    0    0  0.39794225315E+03 -0.48719422513E+03 -0.39767728860E+03  0.76229159494E+03  0.16500000000E+03 0.  0.
   -5000001    1    1    2    0    0 -0.39794225315E+03  0.48719422513E+03 -0.92066229477E+03  0.11271913373E+04  0.16500000000E+03 0.  0.
<mgrwt>
<rscale>  0 0.13535607E+04</rscale>
<asrwt>0</asrwt>
<pdfrwt beam="1">  1        2 0.24675557E+00 0.13535607E+04</pdfrwt>
<pdfrwt beam="2">  1       -2 0.43934105E-01 0.13535607E+04</pdfrwt>
<totfact> 0.53221149E+01</totfact>
</mgrwt>
</event>
<event>
 4    1  0.8641621E-005  0.4455820E+03  0.7818608E-02  0.1029048E+00
          2   -1    0    0  501    0  0.00000000000E+00  0.00000000000E+00  0.18066598231E+03  0.18066598233E+03  0.25500000000E-02 0.  1.
         -2   -1    0    0    0  501 -0.00000000000E+00 -0.00000000000E+00 -0.27473813520E+03  0.27473813522E+03  0.25500000000E-02 0. -1.
    5000001    1    1    2    0    0 -0.76306935316E+02  0.11804838092E+03 -0.99675438159E+02  0.23857569362E+03  0.16500000000E+03 0.  0.
   -5000001    1    1    2    0    0  0.76306935316E+02 -0.11804838092E+03  0.56032852644E+01  0.21682842392E+03  0.16500000000E+03 0.  0.
<mgrwt>
<rscale>  0 0.44558202E+03</rscale>
<asrwt>0</asrwt>
<pdfrwt beam="1">  1        2 0.27794766E-01 0.44558202E+03</pdfrwt>
<pdfrwt beam="2">  1       -2 0.42267406E-01 0.44558202E+03</pdfrwt>
<totfact> 0.10299567E+03</totfact>
</mgrwt>
</event>
<event>
 4    1  0.8641621E-005  0.9851602E+03  0.7818608E-02  0.9324972E-01
          2   -1    0    0  501    0  0.00000000000E+00  0.00000000000E+00  0.76399246849E+03  0.76399246849E+03  0.25500000000E-02 0.  1.
         -2   -1    0    0    0  501 -0.00000000000E+00 -0.00000000000E+00 -0.31758841630E+03  0.31758841631E+03  0.25500000000E-02 0. -1.
    5000001    1    1    2    0    0  0.37741412185E+03  0.15593783281E+03  0.46536239865E+03  0.64073800352E+03  0.16500000000E+03 0.  0.
   -5000001    1    1    2    0    0 -0.37741412185E+03 -0.15593783281E+03 -0.18958346461E+02  0.44084288128E+03  0.16500000000E+03 0.  0.
<mgrwt>
<rscale>  0 0.98516021E+03</rscale>
<asrwt>0</asrwt>
<pdfrwt beam="1">  1        2 0.11753730E+00 0.98516021E+03</pdfrwt>
<pdfrwt beam="2">  1       -2 0.48859757E-01 0.98516021E+03</pdfrwt>
<totfact> 0.14507020E+02</totfact>
</mgrwt>
</event>
<event>
 4    1  0.8641621E-005  0.3587839E+03  0.7818608E-02  0.1059066E+00
          2   -1    0    0  501    0  0.00000000000E+00  0.00000000000E+00  0.10882572868E+04  0.10882572868E+04  0.25500000000E-02 0.  1.
         -2   -1    0    0    0  501 -0.00000000000E+00 -0.00000000000E+00 -0.29571572618E+02  0.29571572728E+02  0.25500000000E-02 0. -1.
    5000001    1    1    2    0    0  0.11704536127E+02 -0.50729974956E+02  0.38168973188E+03  0.41907347560E+03  0.16500000000E+03 0.  0.
   -5000001    1    1    2    0    0 -0.11704536127E+02  0.50729974956E+02  0.67699598229E+03  0.69875538392E+03  0.16500000000E+03 0.  0.
<mgrwt>
<rscale>  0 0.35878394E+03</rscale>
<asrwt>0</asrwt>
<pdfrwt beam="1">  1        2 0.16742420E+00 0.35878394E+03</pdfrwt>
<pdfrwt beam="2">  1       -2 0.45494727E-02 0.35878394E+03</pdfrwt>
<totfact> 0.52709747E+03</totfact>
</mgrwt>
</event>
<event>
 4    1  0.8641621E-005  0.6681972E+03  0.7818608E-02  0.9773220E-01
         -2   -1    0    0    0  501 -0.00000000000E+00  0.00000000000E+00  0.14776133278E+03  0.14776133280E+03  0.25500000000E-02 0. -1.
          2   -1    0    0  501    0  0.00000000000E+00 -0.00000000000E+00 -0.75542005580E+03  0.75542005580E+03  0.25500000000E-02 0.  1.
    5000001    1    1    2    0    0 -0.15432737499E+03  0.24612979620E+03 -0.30415773367E+03  0.45181162247E+03  0.16500000000E+03 0.  0.
   -5000001    1    1    2    0    0  0.15432737499E+03 -0.24612979620E+03 -0.30350098934E+03  0.45136976613E+03  0.16500000000E+03 0.  0.
<mgrwt>
<rscale>  0 0.66819720E+03</rscale>
<asrwt>0</asrwt>
<pdfrwt beam="1">  1        2 0.11621847E+00 0.66819720E+03</pdfrwt>
<pdfrwt beam="2">  1       -2 0.22732513E-01 0.66819720E+03</pdfrwt>
<totfact> 0.63555886E+02</totfact>
</mgrwt>
</event>
<event>
 4    1  0.8641621E-005  0.5897952E+03  0.7818608E-02  0.9926807E-01
          2   -1    0    0  501    0  0.00000000000E+00  0.00000000000E+00  0.14429097698E+04  0.14429097698E+04  0.25500000000E-02 0.  1.
         -2   -1    0    0    0  501 -0.00000000000E+00 -0.00000000000E+00 -0.60270288234E+02  0.60270288288E+02  0.25500000000E-02 0. -1.
    5000001    1    1    2    0    0  0.22179908040E+03  0.10265577182E+03  0.69784159360E+03  0.75758889202E+03  0.16500000000E+03 0.  0.
   -5000001    1    1    2    0    0 -0.22179908040E+03 -0.10265577182E+03  0.68479788793E+03  0.74559116604E+03  0.16500000000E+03 0.  0.
<mgrwt>
<rscale>  0 0.58979518E+03</rscale>
<asrwt>0</asrwt>
<pdfrwt beam="1">  1        2 0.22198611E+00 0.58979518E+03</pdfrwt>
<pdfrwt beam="2">  1       -2 0.92723524E-02 0.58979518E+03</pdfrwt>
<totfact> 0.10797904E+03</totfact>
</mgrwt>
</event>
<event>
 4    1  0.8641621E-005  0.4021627E+03  0.7818608E-02  0.1043033E+00
          2   -1    0    0  501    0  0.00000000000E+00  0.00000000000E+00  0.63157886100E+03  0.63157886101E+03  0.25500000000E-02 0.  1.
         -2   -1    0    0    0  501 -0.00000000000E+00 -0.00000000000E+00 -0.64020040473E+02  0.64020040524E+02  0.25500000000E-02 0. -1.
    5000001    1    1    2    0    0  0.21544256073E+02  0.95106881553E+02  0.17858011853E+03  0.26196437281E+03  0.16500000000E+03 0.  0.
   -5000001    1    1    2    0    0 -0.21544256073E+02 -0.95106881553E+02  0.38897870200E+03  0.43363452872E+03  0.16500000000E+03 0.  0.
<mgrwt>
<rscale>  0 0.40216267E+03</rscale>
<asrwt>0</asrwt>
<pdfrwt beam="1">  1        2 0.97165982E-01 0.40216267E+03</pdfrwt>
<pdfrwt beam="2">  1       -2 0.98492367E-02 0.40216267E+03</pdfrwt>
<totfact> 0.32471511E+03</totfact>
</mgrwt>
</event>
<event>
 4    1  0.8641621E-005  0.7831445E+03  0.7818608E-02  0.9584740E-01
         -2   -1    0    0    0  501 -0.00000000000E+00  0.00000000000E+00  0.53665127394E+03  0.53665127395E+03  0.25500000000E-02 0. -1.
          2   -1    0    0  501    0  0.00000000000E+00 -0.00000000000E+00 -0.28571405055E+03  0.28571405056E+03  0.25500000000E-02 0.  1.
    5000001    1    1    2    0    0 -0.21766037437E+03  0.12885917668E+03 -0.13625892258E+03  0.33131890976E+03  0.16500000000E+03 0.  0.
   -5000001    1    1    2    0    0  0.21766037437E+03 -0.12885917668E+03  0.38719614597E+03  0.49104641475E+03  0.16500000000E+03 0.  0.
<mgrwt>
<rscale>  0 0.78314445E+03</rscale>
<asrwt>0</asrwt>
<pdfrwt beam="1">  1        2 0.43956008E-01 0.78314445E+03</pdfrwt>
<pdfrwt beam="2">  1       -2 0.82561733E-01 0.78314445E+03</pdfrwt>
<totfact> 0.15043920E+02</totfact>
</mgrwt>
</event>
<event>
 4    1  0.8641621E-005  0.6156260E+03  0.7818608E-02  0.9873507E-01
          2   -1    0    0  501    0  0.00000000000E+00  0.00000000000E+00  0.19935363823E+03  0.19935363825E+03  0.25500000000E-02 0.  1.
         -2   -1    0    0    0  501 -0.00000000000E+00 -0.00000000000E+00 -0.47528016982E+03  0.47528016983E+03  0.25500000000E-02 0. -1.
    5000001    1    1    2    0    0  0.81902813303E+02 -0.10996219748E+03 -0.37985608623E+03  0.43625153518E+03  0.16500000000E+03 0.  0.
   -5000001    1    1    2    0    0 -0.81902813303E+02  0.10996219748E+03  0.10392955465E+03  0.23838227289E+03  0.16500000000E+03 0.  0.
<mgrwt>
<rscale>  0 0.61562596E+03</rscale>
<asrwt>0</asrwt>
<pdfrwt beam="1">  1        2 0.30669791E-01 0.61562596E+03</pdfrwt>
<pdfrwt beam="2">  1       -2 0.73120026E-01 0.61562596E+03</pdfrwt>
<totfact> 0.29629845E+02</totfact>
</mgrwt>
</event>
<event>
 4    1  0.8641621E-005  0.5964777E+03  0.7818608E-02  0.9912741E-01
         -2   -1    0    0    0  501 -0.00000000000E+00  0.00000000000E+00  0.62917387811E+02  0.62917387863E+02  0.25500000000E-02 0. -1.
          2   -1    0    0  501    0  0.00000000000E+00 -0.00000000000E+00 -0.14137013996E+04  0.14137013997E+04  0.25500000000E-02 0.  1.
    5000001    1    1    2    0    0  0.23231910286E+03  0.22134025820E+02 -0.46446988149E+03  0.54536167033E+03  0.16500000000E+03 0.  0.
   -5000001    1    1    2    0    0 -0.23231910286E+03 -0.22134025820E+02 -0.88631413035E+03  0.93125711718E+03  0.16500000000E+03 0.  0.
<mgrwt>
<rscale>  0 0.59647766E+03</rscale>
<asrwt>0</asrwt>
<pdfrwt beam="1">  1        2 0.21749250E+00 0.59647766E+03</pdfrwt>
<pdfrwt beam="2">  1       -2 0.96795992E-02 0.59647766E+03</pdfrwt>
<totfact> 0.10456308E+03</totfact>
</mgrwt>
</event>
<event>
 4    1  0.8641621E-005  0.4774562E+03  0.7818608E-02  0.1019837E+00
         -2   -1    0    0    0  501 -0.00000000000E+00  0.00000000000E+00  0.18597853360E+02  0.18597853534E+02  0.25500000000E-02 0. -1.
          2   -1    0    0  501    0  0.00000000000E+00 -0.00000000000E+00 -0.30643920950E+04  0.30643920950E+04  0.25500000000E-02 0.  1.
    5000001    1    1    2    0    0 -0.74103467687E+02 -0.12882764143E+03 -0.20887051339E+04  0.21004766177E+04  0.16500000000E+03 0.  0.
   -5000001    1    1    2    0    0  0.74103467687E+02  0.12882764143E+03 -0.95708910781E+03  0.98251333090E+03  0.16500000000E+03 0.  0.
<mgrwt>
<rscale>  0 0.47745624E+03</rscale>
<asrwt>0</asrwt>
<pdfrwt beam="1">  1        2 0.47144454E+00 0.47745624E+03</pdfrwt>
<pdfrwt beam="2">  1       -2 0.28612107E-02 0.47745624E+03</pdfrwt>
<totfact> 0.83973192E+02</totfact>
</mgrwt>
</event>
<event>
 4    1  0.8641621E-005  0.6181926E+03  0.7818608E-02  0.9868365E-01
         -2   -1    0    0    0  501 -0.00000000000E+00  0.00000000000E+00  0.93039844244E+02  0.93039844279E+02  0.25500000000E-02 0. -1.
          2   -1    0    0  501    0  0.00000000000E+00 -0.00000000000E+00 -0.10268775772E+04  0.10268775772E+04  0.25500000000E-02 0.  1.
    5000001    1    1    2    0    0 -0.14666587088E+03  0.21584656016E+03 -0.44036087739E+03  0.53781345981E+03  0.16500000000E+03 0.  0.
   -5000001    1    1    2    0    0  0.14666587088E+03 -0.21584656016E+03 -0.49347685555E+03  0.58210396166E+03  0.16500000000E+03 0.  0.
<mgrwt>
<rscale>  0 0.61819262E+03</rscale>
<asrwt>0</asrwt>
<pdfrwt beam="1">  1        2 0.15798116E+00 0.61819262E+03</pdfrwt>
<pdfrwt beam="2">  1       -2 0.14313823E-01 0.61819262E+03</pdfrwt>
<totfact> 0.92571919E+02</totfact>
</mgrwt>
</event>
<event>
 4    1  0.8641621E-005  0.5045249E+03  0.7818608E-02  0.1012605E+00
          2   -1    0    0  501    0  0.00000000000E+00  0.00000000000E+00  0.80734894911E+03  0.80734894911E+03  0.25500000000E-02 0.  1.
         -2   -1    0    0    0  501 -0.00000000000E+00 -0.00000000000E+00 -0.78821362968E+02  0.78821363009E+02  0.25500000000E-02 0. -1.
    5000001    1    1    2    0    0  0.15385889343E+03  0.94112565410E+02  0.25483274295E+03  0.35312102873E+03  0.16500000000E+03 0.  0.
   -5000001    1    1    2    0    0 -0.15385889343E+03 -0.94112565410E+02  0.47369484319E+03  0.53304928339E+03  0.16500000000E+03 0.  0.
<mgrwt>
<rscale>  0 0.50452490E+03</rscale>
<asrwt>0</asrwt>
<pdfrwt beam="1">  1        2 0.12420753E+00 0.50452490E+03</pdfrwt>
<pdfrwt beam="2">  1       -2 0.12126364E-01 0.50452490E+03</pdfrwt>
<totfact> 0.17067191E+03</totfact>
</mgrwt>
</event>
<event>
 4    1  0.8641621E-005  0.4821822E+03  0.7818608E-02  0.1018537E+00
          2   -1    0    0  501    0  0.00000000000E+00  0.00000000000E+00  0.25132324799E+04  0.25132324799E+04  0.25500000000E-02 0.  1.
         -2   -1    0    0    0  501 -0.00000000000E+00 -0.00000000000E+00 -0.23127552080E+02  0.23127552220E+02  0.25500000000E-02 0. -1.
    5000001    1    1    2    0    0 -0.15923191716E+03  0.68166315029E+02  0.14027229452E+04  0.14229750914E+04  0.16500000000E+03 0.  0.
   -5000001    1    1    2    0    0  0.15923191716E+03 -0.68166315029E+02  0.10873819827E+04  0.11133849407E+04  0.16500000000E+03 0.  0.
<mgrwt>
<rscale>  0 0.48218219E+03</rscale>
<asrwt>0</asrwt>
<pdfrwt beam="1">  1        2 0.38665134E+00 0.48218219E+03</pdfrwt>
<pdfrwt beam="2">  1       -2 0.35580832E-02 0.48218219E+03</pdfrwt>
<totfact> 0.12644372E+03</totfact>
</mgrwt>
</event>
<event>
 4    1  0.8641621E-005  0.4361920E+03  0.7818608E-02  0.1031922E+00
         -2   -1    0    0    0  501 -0.00000000000E+00  0.00000000000E+00  0.87578300677E+02  0.87578300714E+02  0.25500000000E-02 0. -1.
          2   -1    0    0  501    0  0.00000000000E+00 -0.00000000000E+00 -0.54312379944E+03  0.54312379945E+03  0.25500000000E-02 0.  1.
    5000001    1    1    2    0    0 -0.12799953349E+03  0.55472446973E+02 -0.27066069556E+03  0.34632829089E+03  0.16500000000E+03 0.  0.
   -5000001    1    1    2    0    0  0.12799953349E+03 -0.55472446973E+02 -0.18488480320E+03  0.28437380927E+03  0.16500000000E+03 0.  0.
<mgrwt>
<rscale>  0 0.43619197E+03</rscale>
<asrwt>0</asrwt>
<pdfrwt beam="1">  1        2 0.83557506E-01 0.43619197E+03</pdfrwt>
<pdfrwt beam="2">  1       -2 0.13473585E-01 0.43619197E+03</pdfrwt>
<totfact> 0.23304381E+03</totfact>
</mgrwt>
</event>
<event>
 4    1  0.8641621E-005  0.4244254E+03  0.7818608E-02  0.1035636E+00
         -2   -1    0    0    0  501 -0.00000000000E+00  0.00000000000E+00  0.32272254561E+02  0.32272254662E+02  0.25500000000E-02 0. -1.
          2   -1    0    0  501    0  0.00000000000E+00 -0.00000000000E+00 -0.13954474092E+04  0.13954474092E+04  0.25500000000E-02 0.  1.
    5000001    1    1    2    0    0 -0.63533078320E+02  0.56293533197E+02 -0.33519168619E+03  0.38312384474E+03  0.16500000000E+03 0.  0.
   -5000001    1    1    2    0    0  0.63533078320E+02 -0.56293533197E+02 -0.10279834685E+04  0.10445958192E+04  0.16500000000E+03 0.  0.
<mgrwt>
<rscale>  0 0.42442542E+03</rscale>
<asrwt>0</asrwt>
<pdfrwt beam="1">  1        2 0.21468417E+00 0.42442542E+03</pdfrwt>
<pdfrwt beam="2">  1       -2 0.49649633E-02 0.42442542E+03</pdfrwt>
<totfact> 0.30783311E+03</totfact>
</mgrwt>
</event>
<event>
 4    1  0.8641621E-005  0.3646214E+03  0.7818608E-02  0.1056769E+00
          2   -1    0    0  501    0  0.00000000000E+00  0.00000000000E+00  0.10615281591E+04  0.10615281591E+04  0.25500000000E-02 0.  1.
         -2   -1    0    0    0  501 -0.00000000000E+00 -0.00000000000E+00 -0.31310697108E+02  0.31310697212E+02  0.25500000000E-02 0. -1.
    5000001    1    1    2    0    0 -0.58256003142E+02 -0.11750292682E+02  0.66437819187E+03  0.68713551292E+03  0.16500000000E+03 0.  0.
   -5000001    1    1    2    0    0  0.58256003142E+02  0.11750292682E+02  0.36583927012E+03  0.40570334339E+03  0.16500000000E+03 0.  0.
<mgrwt>
<rscale>  0 0.36462137E+03</rscale>
<asrwt>0</asrwt>
<pdfrwt beam="1">  1        2 0.16331204E+00 0.36462137E+03</pdfrwt>
<pdfrwt beam="2">  1       -2 0.48170298E-02 0.36462137E+03</pdfrwt>
<totfact> 0.50132642E+03</totfact>
</mgrwt>
</event>
<event>
 4    1  0.8641621E-005  0.6983636E+03  0.7818608E-02  0.9720035E-01
         -2   -1    0    0    0  501 -0.00000000000E+00  0.00000000000E+00  0.19629945552E+03  0.19629945553E+03  0.25500000000E-02 0. -1.
          2   -1    0    0  501    0  0.00000000000E+00 -0.00000000000E+00 -0.62113236325E+03  0.62113236326E+03  0.25500000000E-02 0.  1.
    5000001    1    1    2    0    0  0.96286717119E+02  0.28429265154E+03 -0.29188529469E+03  0.45001718731E+03  0.16500000000E+03 0.  0.
   -5000001    1    1    2    0    0 -0.96286717119E+02 -0.28429265154E+03 -0.13294761304E+03  0.36741463149E+03  0.16500000000E+03 0.  0.
<mgrwt>
<rscale>  0 0.69836364E+03</rscale>
<asrwt>0</asrwt>
<pdfrwt beam="1">  1        2 0.95558824E-01 0.69836364E+03</pdfrwt>
<pdfrwt beam="2">  1       -2 0.30199916E-01 0.69836364E+03</pdfrwt>
<totfact> 0.48448468E+02</totfact>
</mgrwt>
</event>
<event>
 4    1  0.8641621E-005  0.3647081E+03  0.7818608E-02  0.1056735E+00
          2   -1    0    0  501    0  0.00000000000E+00  0.00000000000E+00  0.77650438246E+02  0.77650438288E+02  0.25500000000E-02 0.  1.
         -2   -1    0    0    0  501 -0.00000000000E+00 -0.00000000000E+00 -0.42823971261E+03  0.42823971262E+03  0.25500000000E-02 0. -1.
    5000001    1    1    2    0    0  0.42253357964E+02  0.63755574552E+02 -0.15679443000E+03  0.24012416127E+03  0.16500000000E+03 0.  0.
   -5000001    1    1    2    0    0 -0.42253357964E+02 -0.63755574552E+02 -0.19379484436E+03  0.26576598964E+03  0.16500000000E+03 0.  0.
<mgrwt>
<rscale>  0 0.36470811E+03</rscale>
<asrwt>0</asrwt>
<pdfrwt beam="1">  1        2 0.11946222E-01 0.36470811E+03</pdfrwt>
<pdfrwt beam="2">  1       -2 0.65883031E-01 0.36470811E+03</pdfrwt>
<totfact> 0.11225012E+03</totfact>
</mgrwt>
</event>
<event>
 4    1  0.8641621E-005  0.7000904E+03  0.7818608E-02  0.9717078E-01
         -2   -1    0    0    0  501 -0.00000000000E+00  0.00000000000E+00  0.35376186968E+03  0.35376186969E+03  0.25500000000E-02 0. -1.
          2   -1    0    0  501    0  0.00000000000E+00 -0.00000000000E+00 -0.34636761871E+03  0.34636761872E+03  0.25500000000E-02 0.  1.
    5000001    1    1    2    0    0 -0.27504154882E+03  0.10653058965E+03 -0.87467359371E+02  0.34910193220E+03  0.16500000000E+03 0.  0.
   -5000001    1    1    2    0    0  0.27504154882E+03 -0.10653058965E+03  0.94861610340E+02  0.35102755622E+03  0.16500000000E+03 0.  0.
<mgrwt>
<rscale>  0 0.70009044E+03</rscale>
<asrwt>0</asrwt>
<pdfrwt beam="1">  1        2 0.53287326E-01 0.70009044E+03</pdfrwt>
<pdfrwt beam="2">  1       -2 0.54424903E-01 0.70009044E+03</pdfrwt>
<totfact> 0.29992269E+02</totfact>
</mgrwt>
</event>
<event>
 4    1  0.8641621E-005  0.6087155E+03  0.7818608E-02  0.9887487E-01
          2   -1    0    0  501    0  0.00000000000E+00  0.00000000000E+00  0.11981973296E+04  0.11981973296E+04  0.25500000000E-02 0.  1.
         -2   -1    0    0    0  501 -0.00000000000E+00 -0.00000000000E+00 -0.77310838681E+02  0.77310838723E+02  0.25500000000E-02 0. -1.
    5000001    1    1    2    0    0  0.23029314632E+03  0.10515142528E+03  0.63648336810E+03  0.70457635026E+03  0.16500000000E+03 0.  0.
   -5000001    1    1    2    0    0 -0.23029314632E+03 -0.10515142528E+03  0.48440312284E+03  0.57093181809E+03  0.16500000000E+03 0.  0.
<mgrwt>
<rscale>  0 0.60871550E+03</rscale>
<asrwt>0</asrwt>
<pdfrwt beam="1">  1        2 0.18433804E+00 0.60871550E+03</pdfrwt>
<pdfrwt beam="2">  1       -2 0.11893976E-01 0.60871550E+03</pdfrwt>
<totfact> 0.99201377E+02</totfact>
</mgrwt>
</event>
<event>
 4    1  0.8641621E-005  0.4333089E+03  0.7818608E-02  0.1032820E+00
         -2   -1    0    0    0  501 -0.00000000000E+00  0.00000000000E+00  0.19134289694E+02  0.19134289864E+02  0.25500000000E-02 0. -1.
          2   -1    0    0  501    0  0.00000000000E+00 -0.00000000000E+00 -0.24531428589E+04  0.24531428589E+04  0.25500000000E-02 0.  1.
    5000001    1    1    2    0    0  0.27092846003E+01  0.13569309848E+03 -0.14222615037E+04  0.14382186003E+04  0.16500000000E+03 0.  0.
   -5000001    1    1    2    0    0 -0.27092846003E+01 -0.13569309848E+03 -0.10117470655E+04  0.10340585486E+04  0.16500000000E+03 0.  0.
<mgrwt>
<rscale>  0 0.43330888E+03</rscale>
<asrwt>0</asrwt>
<pdfrwt beam="1">  1        2 0.37740634E+00 0.43330888E+03</pdfrwt>
<pdfrwt beam="2">  1       -2 0.29437388E-02 0.43330888E+03</pdfrwt>
<totfact> 0.18270212E+03</totfact>
</mgrwt>
</event>
<event>
 4    1  0.8641621E-005  0.5787682E+03  0.7818608E-02  0.9950461E-01
          2   -1    0    0  501    0  0.00000000000E+00  0.00000000000E+00  0.60813362056E+03  0.60813362057E+03  0.25500000000E-02 0.  1.
         -2   -1    0    0    0  501 -0.00000000000E+00 -0.00000000000E+00 -0.13770521030E+03  0.13770521032E+03  0.25500000000E-02 0. -1.
    5000001    1    1    2    0    0 -0.61805057813E+02 -0.20748563368E+03  0.10863589859E+03  0.29308174938E+03  0.16500000000E+03 0.  0.
   -5000001    1    1    2    0    0  0.61805057813E+02  0.20748563368E+03  0.36179251168E+03  0.45275708151E+03  0.16500000000E+03 0.  0.
<mgrwt>
<rscale>  0 0.57876824E+03</rscale>
<asrwt>0</asrwt>
<pdfrwt beam="1">  1        2 0.93559019E-01 0.57876824E+03</pdfrwt>
<pdfrwt beam="2">  1       -2 0.21185417E-01 0.57876824E+03</pdfrwt>
<totfact> 0.94440933E+02</totfact>
</mgrwt>
</event>
<event>
 4    1  0.8641621E-005  0.7546176E+03  0.7818608E-02  0.9628134E-01
         -2   -1    0    0    0  501 -0.00000000000E+00  0.00000000000E+00  0.27797232947E+04  0.27797232947E+04  0.25500000000E-02 0. -1.
          2   -1    0    0  501    0  0.00000000000E+00 -0.00000000000E+00 -0.51214426284E+02  0.51214426348E+02  0.25500000000E-02 0.  1.
    5000001    1    1    2    0    0  0.21230190255E+03  0.11014414967E+03  0.22672108185E+04  0.22857545203E+04  0.16500000000E+03 0.  0.
   -5000001    1    1    2    0    0 -0.21230190255E+03 -0.11014414967E+03  0.46129804994E+03  0.54518320078E+03  0.16500000000E+03 0.  0.
<mgrwt>
<rscale>  0 0.75461761E+03</rscale>
<asrwt>0</asrwt>
<pdfrwt beam="1">  1        2 0.78791417E-02 0.75461761E+03</pdfrwt>
<pdfrwt beam="2">  1       -2 0.42764978E+00 0.75461761E+03</pdfrwt>
<totfact> 0.47069452E+00</totfact>
</mgrwt>
</event>
<event>
 4    1  0.8641621E-005  0.4715778E+03  0.7818608E-02  0.1021476E+00
         -2   -1    0    0    0  501 -0.00000000000E+00  0.00000000000E+00  0.31967574765E+02  0.31967574867E+02  0.25500000000E-02 0. -1.
          2   -1    0    0  501    0  0.00000000000E+00 -0.00000000000E+00 -0.17391497902E+04  0.17391497902E+04  0.25500000000E-02 0.  1.
    5000001    1    1    2    0    0 -0.13840713618E+03 -0.21886471746E+01 -0.12140249832E+04  0.12329813403E+04  0.16500000000E+03 0.  0.
   -5000001    1    1    2    0    0  0.13840713618E+03  0.21886471746E+01 -0.49315723222E+03  0.53813602482E+03  0.16500000000E+03 0.  0.
<mgrwt>
<rscale>  0 0.47157778E+03</rscale>
<asrwt>0</asrwt>
<pdfrwt beam="1">  1        2 0.26756143E+00 0.47157778E+03</pdfrwt>
<pdfrwt beam="2">  1       -2 0.49180898E-02 0.47157778E+03</pdfrwt>
<totfact> 0.20293243E+03</totfact>
</mgrwt>
</event>
<event>
 4    1  0.8641621E-005  0.3763975E+03  0.7818608E-02  0.1052273E+00
         -2   -1    0    0    0  501 -0.00000000000E+00  0.00000000000E+00  0.13775003297E+03  0.13775003299E+03  0.25500000000E-02 0. -1.
          2   -1    0    0  501    0  0.00000000000E+00 -0.00000000000E+00 -0.25712355195E+03  0.25712355196E+03  0.25500000000E-02 0.  1.
    5000001    1    1    2    0    0 -0.80478740523E+02  0.10362838162E+02 -0.17598098158E+02  0.18471304542E+03  0.16500000000E+03 0.  0.
   -5000001    1    1    2    0    0  0.80478740523E+02 -0.10362838162E+02 -0.10177542082E+03  0.21016053953E+03  0.16500000000E+03 0.  0.
<mgrwt>
<rscale>  0 0.37639754E+03</rscale>
<asrwt>0</asrwt>
<pdfrwt beam="1">  1        2 0.39557469E-01 0.37639754E+03</pdfrwt>
<pdfrwt beam="2">  1       -2 0.21192313E-01 0.37639754E+03</pdfrwt>
<totfact> 0.24727778E+03</totfact>
</mgrwt>
</event>
<event>
 4    1  0.8641621E-005  0.5255759E+03  0.7818608E-02  0.1007311E+00
         -2   -1    0    0    0  501 -0.00000000000E+00  0.00000000000E+00  0.29686761983E+02  0.29686762092E+02  0.25500000000E-02 0.  1.
          2   -1    0    0  501    0  0.00000000000E+00 -0.00000000000E+00 -0.23262054531E+04  0.23262054531E+04  0.25500000000E-02 0. -1.
    5000001    1    1    2    0    0 -0.11493089697E+03 -0.16911756012E+03 -0.11695912846E+04  0.11987404361E+04  0.16500000000E+03 0.  0.
   -5000001    1    1    2    0    0  0.11493089697E+03  0.16911756012E+03 -0.11269274066E+04  0.11571517791E+04  0.16500000000E+03 0.  0.
<mgrwt>
<rscale>  0 0.52557590E+03</rscale>
<asrwt>0</asrwt>
<pdfrwt beam="1">  1        2 0.35787762E+00 0.52557590E+03</pdfrwt>
<pdfrwt beam="2">  1       -2 0.45671960E-02 0.52557590E+03</pdfrwt>
<totfact> 0.10918937E+03</totfact>
</mgrwt>
</event>
<event>
 4    1  0.8641621E-005  0.4466865E+03  0.7818608E-02  0.1028715E+00
         -2   -1    0    0    0  501 -0.00000000000E+00  0.00000000000E+00  0.86640572024E+02  0.86640572062E+02  0.25500000000E-02 0. -1.
          2   -1    0    0  501    0  0.00000000000E+00 -0.00000000000E+00 -0.57573739159E+03  0.57573739160E+03  0.25500000000E-02 0.  1.
    5000001    1    1    2    0    0  0.14046821165E+03 -0.53018967328E+02 -0.26044264159E+03  0.34292520895E+03  0.16500000000E+03 0.  0.
   -5000001    1    1    2    0    0 -0.14046821165E+03  0.53018967328E+02 -0.22865417798E+03  0.31945275470E+03  0.16500000000E+03 0.  0.
<mgrwt>
<rscale>  0 0.44668654E+03</rscale>
<asrwt>0</asrwt>
<pdfrwt beam="1">  1        2 0.88574981E-01 0.44668654E+03</pdfrwt>
<pdfrwt beam="2">  1       -2 0.13329319E-01 0.44668654E+03</pdfrwt>
<totfact> 0.22168364E+03</totfact>
</mgrwt>
</event>
<event>
 4    1  0.8641621E-005  0.3867591E+03  0.7818608E-02  0.1048463E+00
          2   -1    0    0  501    0  0.00000000000E+00  0.00000000000E+00  0.25683981796E+04  0.25683981796E+04  0.25500000000E-02 0.  1.
         -2   -1    0    0    0  501 -0.00000000000E+00 -0.00000000000E+00 -0.14559914749E+02  0.14559914972E+02  0.25500000000E-02 0. -1.
    5000001    1    1    2    0    0  0.78177981104E+02 -0.42969444841E+02  0.96278341332E+03  0.98088484079E+03  0.16500000000E+03 0.  0.
   -5000001    1    1    2    0    0 -0.78177981104E+02  0.42969444841E+02  0.15910548515E+04  0.16020732538E+04  0.16500000000E+03 0.  0.
<mgrwt>
<rscale>  0 0.38675914E+03</rscale>
<asrwt>0</asrwt>
<pdfrwt beam="1">  1        2 0.39513790E+00 0.38675914E+03</pdfrwt>
<pdfrwt beam="2">  1       -2 0.22399885E-02 0.38675914E+03</pdfrwt>
<totfact> 0.23820345E+03</totfact>
</mgrwt>
</event>
<event>
 4    1  0.8641621E-005  0.5158184E+03  0.7818608E-02  0.1009731E+00
          2   -1    0    0  501    0  0.00000000000E+00  0.00000000000E+00  0.35350575148E+03  0.35350575149E+03  0.25500000000E-02 0.  1.
         -2   -1    0    0    0  501 -0.00000000000E+00 -0.00000000000E+00 -0.18816430293E+03  0.18816430294E+03  0.25500000000E-02 0. -1.
    5000001    1    1    2    0    0  0.42937900451E+02 -0.15402236476E+03 -0.40357234091E+02  0.23328150052E+03  0.16500000000E+03 0.  0.
   -5000001    1    1    2    0    0 -0.42937900451E+02  0.15402236476E+03  0.20569868265E+03  0.30838855391E+03  0.16500000000E+03 0.  0.
<mgrwt>
<rscale>  0 0.51581843E+03</rscale>
<asrwt>0</asrwt>
<pdfrwt beam="1">  1        2 0.54385500E-01 0.51581843E+03</pdfrwt>
<pdfrwt beam="2">  1       -2 0.28948355E-01 0.51581843E+03</pdfrwt>
<totfact> 0.10030188E+03</totfact>
</mgrwt>
</event>
<event>
 4    1  0.8641621E-005  0.6060401E+03  0.7818608E-02  0.9892953E-01
         -2   -1    0    0    0  501 -0.00000000000E+00  0.00000000000E+00  0.79797375665E+02  0.79797375705E+02  0.25500000000E-02 0. -1.
          2   -1    0    0  501    0  0.00000000000E+00 -0.00000000000E+00 -0.11506787487E+04  0.11506787487E+04  0.25500000000E-02 0.  1.
    5000001    1    1    2    0    0 -0.20902105378E+03  0.14458998933E+03 -0.53487194961E+03  0.61474309139E+03  0.16500000000E+03 0.  0.
   -5000001    1    1    2    0    0  0.20902105378E+03 -0.14458998933E+03 -0.53600942340E+03  0.61573303299E+03  0.16500000000E+03 0.  0.
<mgrwt>
<rscale>  0 0.60604008E+03</rscale>
<asrwt>0</asrwt>
<pdfrwt beam="1">  1        2 0.17702749E+00 0.60604008E+03</pdfrwt>
<pdfrwt beam="2">  1       -2 0.12276520E-01 0.60604008E+03</pdfrwt>
<totfact> 0.10046789E+03</totfact>
</mgrwt>
</event>
<event>
 4    1  0.8641621E-005  0.7181575E+03  0.7818608E-02  0.9686675E-01
         -2   -1    0    0    0  501 -0.00000000000E+00  0.00000000000E+00  0.81022580426E+02  0.81022580466E+02  0.25500000000E-02 0. -1.
          2   -1    0    0  501    0  0.00000000000E+00 -0.00000000000E+00 -0.15913780868E+04  0.15913780869E+04  0.25500000000E-02 0.  1.
    5000001    1    1    2    0    0  0.14079660158E+03  0.27860995526E+03 -0.60308836527E+03  0.69884745583E+03  0.16500000000E+03 0.  0.
   -5000001    1    1    2    0    0 -0.14079660158E+03 -0.27860995526E+03 -0.90726714115E+03  0.97355321149E+03  0.16500000000E+03 0.  0.
<mgrwt>
<rscale>  0 0.71815753E+03</rscale>
<asrwt>0</asrwt>
<pdfrwt beam="1">  1        2 0.24482737E+00 0.71815753E+03</pdfrwt>
<pdfrwt beam="2">  1       -2 0.12465014E-01 0.71815753E+03</pdfrwt>
<totfact> 0.54745590E+02</totfact>
</mgrwt>
</event>
<event>
 4    1  0.8641621E-005  0.1016823E+04  0.7818608E-02  0.9290284E-01
          2   -1    0    0  501    0  0.00000000000E+00  0.00000000000E+00  0.79611232978E+03  0.79611232978E+03  0.25500000000E-02 0.  1.
         -2   -1    0    0    0  501 -0.00000000000E+00 -0.00000000000E+00 -0.32468069964E+03  0.32468069965E+03  0.25500000000E-02 0. -1.
    5000001    1    1    2    0    0  0.23336165851E+03 -0.36911366457E+03  0.13742451360E+02  0.46702935240E+03  0.16500000000E+03 0.  0.
   -5000001    1    1    2    0    0 -0.23336165851E+03  0.36911366457E+03  0.45768917878E+03  0.65376367703E+03  0.16500000000E+03 0.  0.
<mgrwt>
<rscale>  0 0.10168231E+04</rscale>
<asrwt>0</asrwt>
<pdfrwt beam="1">  1        2 0.12247882E+00 0.10168231E+04</pdfrwt>
<pdfrwt beam="2">  1       -2 0.49950877E-01 0.10168231E+04</pdfrwt>
<totfact> 0.13113629E+02</totfact>
</mgrwt>
</event>
<event>
 4    1  0.8641621E-005  0.5226400E+03  0.7818608E-02  0.1008033E+00
         -2   -1    0    0    0  501 -0.00000000000E+00  0.00000000000E+00  0.10984708222E+03  0.10984708225E+03  0.25500000000E-02 0. -1.
          2   -1    0    0  501    0  0.00000000000E+00 -0.00000000000E+00 -0.62166548739E+03  0.62166548740E+03  0.25500000000E-02 0.  1.
    5000001    1    1    2    0    0 -0.10497696500E+03 -0.14779246312E+03 -0.38265563280E+03  0.45443713388E+03  0.16500000000E+03 0.  0.
   -5000001    1    1    2    0    0  0.10497696500E+03  0.14779246312E+03 -0.12916277237E+03  0.27707543576E+03  0.16500000000E+03 0.  0.
<mgrwt>
<rscale>  0 0.52263999E+03</rscale>
<asrwt>0</asrwt>
<pdfrwt beam="1">  1        2 0.95640842E-01 0.52263999E+03</pdfrwt>
<pdfrwt beam="2">  1       -2 0.16899552E-01 0.52263999E+03</pdfrwt>
<totfact> 0.13598097E+03</totfact>
</mgrwt>
</event>
<event>
 4    1  0.8641621E-005  0.4810087E+03  0.7818608E-02  0.1018858E+00
         -2   -1    0    0    0  501 -0.00000000000E+00  0.00000000000E+00  0.12312679329E+04  0.12312679329E+04  0.25500000000E-02 0. -1.
          2   -1    0    0  501    0  0.00000000000E+00 -0.00000000000E+00 -0.46977860193E+02  0.46977860262E+02  0.25500000000E-02 0.  1.
    5000001    1    1    2    0    0  0.54399609585E+01 -0.13103869564E+03  0.28433504614E+03  0.35393806152E+03  0.16500000000E+03 0.  0.
   -5000001    1    1    2    0    0 -0.54399609585E+01  0.13103869564E+03  0.89995502660E+03  0.92430773168E+03  0.16500000000E+03 0.  0.
<mgrwt>
<rscale>  0 0.48100866E+03</rscale>
<asrwt>0</asrwt>
<pdfrwt beam="1">  1        2 0.72273627E-02 0.48100866E+03</pdfrwt>
<pdfrwt beam="2">  1       -2 0.18942585E+00 0.48100866E+03</pdfrwt>
<totfact> 0.16241000E+02</totfact>
</mgrwt>
</event>
<event>
 4    1  0.8641621E-005  0.4308071E+03  0.7818608E-02  0.1033605E+00
         -2   -1    0    0    0  501 -0.00000000000E+00  0.00000000000E+00  0.91808043168E+02  0.91808043203E+02  0.25500000000E-02 0. -1.
          2   -1    0    0  501    0  0.00000000000E+00 -0.00000000000E+00 -0.50538814166E+03  0.50538814167E+03  0.25500000000E-02 0.  1.
    5000001    1    1    2    0    0 -0.10753622567E+03  0.40898379104E+01 -0.85997866211E+02  0.21494510834E+03  0.16500000000E+03 0.  0.
   -5000001    1    1    2    0    0  0.10753622567E+03 -0.40898379104E+01 -0.32758223228E+03  0.38225107654E+03  0.16500000000E+03 0.  0.
<mgrwt>
<rscale>  0 0.43080713E+03</rscale>
<asrwt>0</asrwt>
<pdfrwt beam="1">  1        2 0.77752020E-01 0.43080713E+03</pdfrwt>
<pdfrwt beam="2">  1       -2 0.14124315E-01 0.43080713E+03</pdfrwt>
<totfact> 0.23409325E+03</totfact>
</mgrwt>
</event>
<event>
 4    1  0.8641621E-005  0.5323537E+03  0.7818608E-02  0.1005663E+00
          2   -1    0    0  501    0  0.00000000000E+00  0.00000000000E+00  0.87768052687E+03  0.87768052687E+03  0.25500000000E-02 0.  1.
         -2   -1    0    0    0  501 -0.00000000000E+00 -0.00000000000E+00 -0.80724261967E+02  0.80724262007E+02  0.25500000000E-02 0. -1.
    5000001    1    1    2    0    0  0.95159824894E+02  0.79198229161E+02  0.95632249344E+02  0.22737255527E+03  0.16500000000E+03 0.  0.
   -5000001    1    1    2    0    0 -0.95159824894E+02 -0.79198229161E+02  0.70132401556E+03  0.73103223361E+03  0.16500000000E+03 0.  0.
<mgrwt>
<rscale>  0 0.53235369E+03</rscale>
<asrwt>0</asrwt>
<pdfrwt beam="1">  1        2 0.13502778E+00 0.53235369E+03</pdfrwt>
<pdfrwt beam="2">  1       -2 0.12419117E-01 0.53235369E+03</pdfrwt>
<totfact> 0.14673807E+03</totfact>
</mgrwt>
</event>
<event>
 4    1  0.8641621E-005  0.7160972E+03  0.7818608E-02  0.9690093E-01
          2   -1    0    0  501    0  0.00000000000E+00  0.00000000000E+00  0.85245579940E+03  0.85245579940E+03  0.25500000000E-02 0.  1.
         -2   -1    0    0    0  501 -0.00000000000E+00 -0.00000000000E+00 -0.15038763126E+03  0.15038763128E+03  0.25500000000E-02 0. -1.
    5000001    1    1    2    0    0 -0.13738001223E+03  0.14685204969E+03  0.64743882450E+01  0.26020320898E+03  0.16500000000E+03 0.  0.
   -5000001    1    1    2    0    0  0.13738001223E+03 -0.14685204969E+03  0.69559377990E+03  0.74264022170E+03  0.16500000000E+03 0.  0.
<mgrwt>
<rscale>  0 0.71609722E+03</rscale>
<asrwt>0</asrwt>
<pdfrwt beam="1">  1        2 0.13114705E+00 0.71609722E+03</pdfrwt>
<pdfrwt beam="2">  1       -2 0.23136559E-01 0.71609722E+03</pdfrwt>
<totfact> 0.52409102E+02</totfact>
</mgrwt>
</event>
<event>
 4    1  0.8641621E-005  0.4295640E+03  0.7818608E-02  0.1033998E+00
          2   -1    0    0  501    0  0.00000000000E+00  0.00000000000E+00  0.22965129314E+03  0.22965129315E+03  0.25500000000E-02 0.  1.
         -2   -1    0    0    0  501 -0.00000000000E+00 -0.00000000000E+00 -0.20087541649E+03  0.20087541651E+03  0.25500000000E-02 0. -1.
    5000001    1    1    2    0    0  0.10051801502E+03 -0.89407187820E+02  0.42890779794E+02  0.21716844975E+03  0.16500000000E+03 0.  0.
   -5000001    1    1    2    0    0 -0.10051801502E+03  0.89407187820E+02 -0.14114903148E+02  0.21335825990E+03  0.16500000000E+03 0.  0.
<mgrwt>
<rscale>  0 0.42956396E+03</rscale>
<asrwt>0</asrwt>
<pdfrwt beam="1">  1        2 0.35330968E-01 0.42956396E+03</pdfrwt>
<pdfrwt beam="2">  1       -2 0.30903910E-01 0.42956396E+03</pdfrwt>
<totfact> 0.14279640E+03</totfact>
</mgrwt>
</event>
<event>
 4    1  0.8641621E-005  0.4142398E+03  0.7818608E-02  0.1038958E+00
         -2   -1    0    0    0  501 -0.00000000000E+00  0.00000000000E+00  0.38928026587E+02  0.38928026670E+02  0.25500000000E-02 0. -1.
          2   -1    0    0  501    0  0.00000000000E+00 -0.00000000000E+00 -0.11019990032E+04  0.11019990032E+04  0.25500000000E-02 0.  1.
    5000001    1    1    2    0    0 -0.11113926268E+03  0.41966760973E+02 -0.64033782352E+03  0.67184125578E+03  0.16500000000E+03 0.  0.
   -5000001    1    1    2    0    0  0.11113926268E+03 -0.41966760973E+02 -0.42273315311E+03  0.46908577411E+03  0.16500000000E+03 0.  0.
<mgrwt>
<rscale>  0 0.41423977E+03</rscale>
<asrwt>0</asrwt>
<pdfrwt beam="1">  1        2 0.16953828E+00 0.41423977E+03</pdfrwt>
<pdfrwt beam="2">  1       -2 0.59889280E-02 0.41423977E+03</pdfrwt>
<totfact> 0.33927985E+03</totfact>
</mgrwt>
</event>
<event>
 4    1  0.8641621E-005  0.5832382E+03  0.7818608E-02  0.9940805E-01
         -2   -1    0    0    0  501 -0.00000000000E+00  0.00000000000E+00  0.26404813726E+03  0.26404813728E+03  0.25500000000E-02 0. -1.
          2   -1    0    0  501    0  0.00000000000E+00 -0.00000000000E+00 -0.32206894102E+03  0.32206894103E+03  0.25500000000E-02 0.  1.
    5000001    1    1    2    0    0 -0.16950773020E+03 -0.27400801588E+02  0.14014462560E+03  0.27631357297E+03  0.16500000000E+03 0.  0.
   -5000001    1    1    2    0    0  0.16950773020E+03  0.27400801588E+02 -0.19816542936E+03  0.30980350534E+03  0.16500000000E+03 0.  0.
<mgrwt>
<rscale>  0 0.58323822E+03</rscale>
<asrwt>0</asrwt>
<pdfrwt beam="1">  1        2 0.49549067E-01 0.58323822E+03</pdfrwt>
<pdfrwt beam="2">  1       -2 0.40622791E-01 0.58323822E+03</pdfrwt>
<totfact> 0.58614361E+02</totfact>
</mgrwt>
</event>
<event>
 4    1  0.8641621E-005  0.8217436E+03  0.7818608E-02  0.9529067E-01
          2   -1    0    0  501    0  0.00000000000E+00  0.00000000000E+00  0.11299286969E+04  0.11299286969E+04  0.25500000000E-02 0.  1.
         -2   -1    0    0    0  501 -0.00000000000E+00 -0.00000000000E+00 -0.14940379458E+03  0.14940379461E+03  0.25500000000E-02 0. -1.
    5000001    1    1    2    0    0  0.18089882374E+03 -0.30203730253E+03  0.69703502066E+03  0.79814393224E+03  0.16500000000E+03 0.  0.
   -5000001    1    1    2    0    0 -0.18089882374E+03  0.30203730253E+03  0.28348988162E+03  0.48118855923E+03  0.16500000000E+03 0.  0.
<mgrwt>
<rscale>  0 0.82174360E+03</rscale>
<asrwt>0</asrwt>
<pdfrwt beam="1">  1        2 0.17383518E+00 0.82174360E+03</pdfrwt>
<pdfrwt beam="2">  1       -2 0.22985199E-01 0.82174360E+03</pdfrwt>
<totfact> 0.34984069E+02</totfact>
</mgrwt>
</event>
<event>
 4    1  0.8641621E-005  0.4487686E+03  0.7818608E-02  0.1028090E+00
          2   -1    0    0  501    0  0.00000000000E+00  0.00000000000E+00  0.94274953369E+03  0.94274953369E+03  0.25500000000E-02 0.  1.
         -2   -1    0    0    0  501 -0.00000000000E+00 -0.00000000000E+00 -0.53405821990E+02  0.53405822051E+02  0.25500000000E-02 0. -1.
    5000001    1    1    2    0    0  0.12572112941E+03 -0.81185132932E+02  0.50450173481E+03  0.55149236497E+03  0.16500000000E+03 0.  0.
   -5000001    1    1    2    0    0 -0.12572112941E+03  0.81185132932E+02  0.38484197689E+03  0.44466299078E+03  0.16500000000E+03 0.  0.
<mgrwt>
<rscale>  0 0.44876860E+03</rscale>
<asrwt>0</asrwt>
<pdfrwt beam="1">  1        2 0.14503839E+00 0.44876860E+03</pdfrwt>
<pdfrwt beam="2">  1       -2 0.82162801E-02 0.44876860E+03</pdfrwt>
<totfact> 0.25930976E+03</totfact>
</mgrwt>
</event>
<event>
 4    1  0.8641621E-005  0.1733483E+04  0.7818608E-02  0.8742495E-01
         -2   -1    0    0    0  501 -0.00000000000E+00  0.00000000000E+00  0.33221460744E+03  0.33221460745E+03  0.25500000000E-02 0. -1.
          2   -1    0    0  501    0  0.00000000000E+00 -0.00000000000E+00 -0.22613109309E+04  0.22613109309E+04  0.25500000000E-02 0.  1.
    5000001    1    1    2    0    0  0.46319090026E+03  0.68890664701E+03 -0.68513765201E+03  0.10889337815E+04  0.16500000000E+03 0.  0.
   -5000001    1    1    2    0    0 -0.46319090026E+03 -0.68890664701E+03 -0.12439586714E+04  0.15045917568E+04  0.16500000000E+03 0.  0.
<mgrwt>
<rscale>  0 0.17334826E+04</rscale>
<asrwt>0</asrwt>
<pdfrwt beam="1">  1        2 0.34789398E+00 0.17334826E+04</pdfrwt>
<pdfrwt beam="2">  1       -2 0.51109941E-01 0.17334826E+04</pdfrwt>
<totfact> 0.16382498E+01</totfact>
</mgrwt>
</event>
<event>
 4    1  0.8641621E-005  0.3837130E+03  0.7818608E-02  0.1049570E+00
         -2   -1    0    0    0  501 -0.00000000000E+00  0.00000000000E+00  0.11232995946E+02  0.11232996235E+02  0.25500000000E-02 0. -1.
          2   -1    0    0  501    0  0.00000000000E+00 -0.00000000000E+00 -0.32768565357E+04  0.32768565357E+04  0.25500000000E-02 0.  1.
    5000001    1    1    2    0    0 -0.75102701257E+01  0.95065174406E+02 -0.18225219339E+04  0.18324587283E+04  0.16500000000E+03 0.  0.
   -5000001    1    1    2    0    0  0.75102701257E+01 -0.95065174406E+02 -0.14431016058E+04  0.14556308036E+04  0.16500000000E+03 0.  0.
<mgrwt>
<rscale>  0 0.38371300E+03</rscale>
<asrwt>0</asrwt>
<pdfrwt beam="1">  1        2 0.50413101E+00 0.38371300E+03</pdfrwt>
<pdfrwt beam="2">  1       -2 0.17281559E-02 0.38371300E+03</pdfrwt>
<totfact> 0.13313725E+03</totfact>
</mgrwt>
</event>
<event>
 4    1  0.8641621E-005  0.6342544E+03  0.7818608E-02  0.9836782E-01
         -2   -1    0    0    0  501 -0.00000000000E+00  0.00000000000E+00  0.14056651012E+03  0.14056651014E+03  0.25500000000E-02 0. -1.
          2   -1    0    0  501    0  0.00000000000E+00 -0.00000000000E+00 -0.71545960719E+03  0.71545960720E+03  0.25500000000E-02 0.  1.
    5000001    1    1    2    0    0 -0.26379212566E+03 -0.48971243145E+02 -0.23767013262E+03  0.39458403434E+03  0.16500000000E+03 0.  0.
   -5000001    1    1    2    0    0  0.26379212566E+03  0.48971243145E+02 -0.33722296445E+03  0.46144208301E+03  0.16500000000E+03 0.  0.
<mgrwt>
<rscale>  0 0.63425440E+03</rscale>
<asrwt>0</asrwt>
<pdfrwt beam="1">  1        2 0.11007071E+00 0.63425440E+03</pdfrwt>
<pdfrwt beam="2">  1       -2 0.21625617E-01 0.63425440E+03</pdfrwt>
<totfact> 0.74484071E+02</totfact>
</mgrwt>
</event>
<event>
 4    1  0.8641621E-005  0.5830481E+03  0.7818608E-02  0.9941214E-01
          2   -1    0    0  501    0  0.00000000000E+00  0.00000000000E+00  0.15782076594E+03  0.15782076596E+03  0.25500000000E-02 0.  1.
         -2   -1    0    0    0  501 -0.00000000000E+00 -0.00000000000E+00 -0.53849867808E+03  0.53849867808E+03  0.25500000000E-02 0. -1.
    5000001    1    1    2    0    0 -0.84832228963E+02 -0.21441159770E+03 -0.27127194377E+03  0.39240579478E+03  0.16500000000E+03 0.  0.
   -5000001    1    1    2    0    0  0.84832228963E+02  0.21441159770E+03 -0.10940596837E+03  0.30391364927E+03  0.16500000000E+03 0.  0.
<mgrwt>
<rscale>  0 0.58304811E+03</rscale>
<asrwt>0</asrwt>
<pdfrwt beam="1">  1        2 0.24280118E-01 0.58304811E+03</pdfrwt>
<pdfrwt beam="2">  1       -2 0.82845950E-01 0.58304811E+03</pdfrwt>
<totfact> 0.29273473E+02</totfact>
</mgrwt>
</event>
<event>
 4    1  0.8641621E-005  0.6072381E+03  0.7818608E-02  0.9890502E-01
          2   -1    0    0  501    0  0.00000000000E+00  0.00000000000E+00  0.17891572326E+03  0.17891572327E+03  0.25500000000E-02 0.  1.
         -2   -1    0    0    0  501 -0.00000000000E+00 -0.00000000000E+00 -0.51523986137E+03  0.51523986138E+03  0.25500000000E-02 0. -1.
    5000001    1    1    2    0    0  0.23033625930E+03  0.51369569271E+02 -0.58124406770E+02  0.29376363229E+03  0.16500000000E+03 0.  0.
   -5000001    1    1    2    0    0 -0.23033625930E+03 -0.51369569271E+02 -0.27819973135E+03  0.40039195236E+03  0.16500000000E+03 0.  0.
<mgrwt>
<rscale>  0 0.60723805E+03</rscale>
<asrwt>0</asrwt>
<pdfrwt beam="1">  1        2 0.27525496E-01 0.60723805E+03</pdfrwt>
<pdfrwt beam="2">  1       -2 0.79267670E-01 0.60723805E+03</pdfrwt>
<totfact> 0.27999202E+02</totfact>
</mgrwt>
</event>
<event>
 4    1  0.8641621E-005  0.5264543E+03  0.7818608E-02  0.1007096E+00
         -2   -1    0    0    0  501 -0.00000000000E+00  0.00000000000E+00  0.73032994878E+03  0.73032994879E+03  0.25500000000E-02 0. -1.
          2   -1    0    0  501    0  0.00000000000E+00 -0.00000000000E+00 -0.94872920631E+02  0.94872920666E+02  0.25500000000E-02 0.  1.
    5000001    1    1    2    0    0 -0.16754437055E+03 -0.55348926334E+02  0.15386261765E+03  0.28641460309E+03  0.16500000000E+03 0.  0.
   -5000001    1    1    2    0    0  0.16754437055E+03  0.55348926334E+02  0.48159441050E+03  0.53878826637E+03  0.16500000000E+03 0.  0.
<mgrwt>
<rscale>  0 0.52645431E+03</rscale>
<asrwt>0</asrwt>
<pdfrwt beam="1">  1        2 0.14595834E-01 0.52645431E+03</pdfrwt>
<pdfrwt beam="2">  1       -2 0.11235845E+00 0.52645431E+03</pdfrwt>
<totfact> 0.26211828E+02</totfact>
</mgrwt>
</event>
<event>
 4    1  0.8641621E-005  0.4759603E+03  0.7818608E-02  0.1020251E+00
         -2   -1    0    0    0  501 -0.00000000000E+00  0.00000000000E+00  0.52122835837E+02  0.52122835899E+02  0.25500000000E-02 0. -1.
          2   -1    0    0  501    0  0.00000000000E+00 -0.00000000000E+00 -0.10865594751E+04  0.10865594751E+04  0.25500000000E-02 0.  1.
    5000001    1    1    2    0    0  0.11759609893E+03  0.11446050410E+02 -0.21985189779E+03  0.29919844838E+03  0.16500000000E+03 0.  0.
   -5000001    1    1    2    0    0 -0.11759609893E+03 -0.11446050410E+02 -0.81458474147E+03  0.83948386261E+03  0.16500000000E+03 0.  0.
<mgrwt>
<rscale>  0 0.47596034E+03</rscale>
<asrwt>0</asrwt>
<pdfrwt beam="1">  1        2 0.16716298E+00 0.47596034E+03</pdfrwt>
<pdfrwt beam="2">  1       -2 0.80188986E-02 0.47596034E+03</pdfrwt>
<totfact> 0.21924951E+03</totfact>
</mgrwt>
</event>
<event>
 4    1  0.8641621E-005  0.7688723E+03  0.7818608E-02  0.9606199E-01
         -2   -1    0    0    0  501 -0.00000000000E+00  0.00000000000E+00  0.78034257706E+02  0.78034257747E+02  0.25500000000E-02 0. -1.
          2   -1    0    0  501    0  0.00000000000E+00 -0.00000000000E+00 -0.18939266731E+04  0.18939266731E+04  0.25500000000E-02 0.  1.
    5000001    1    1    2    0    0  0.29016224707E+03 -0.19009078402E+03 -0.86841865197E+03  0.94958127134E+03  0.16500000000E+03 0.  0.
   -5000001    1    1    2    0    0 -0.29016224707E+03  0.19009078402E+03 -0.94747376340E+03  0.10223796595E+04  0.16500000000E+03 0.  0.
<mgrwt>
<rscale>  0 0.76887232E+03</rscale>
<asrwt>0</asrwt>
<pdfrwt beam="1">  1        2 0.29137330E+00 0.76887232E+03</pdfrwt>
<pdfrwt beam="2">  1       -2 0.12005272E-01 0.76887232E+03</pdfrwt>
<totfact> 0.39680726E+02</totfact>
</mgrwt>
</event>
<event>
 4    1  0.8641621E-005  0.7139434E+03  0.7818608E-02  0.9693680E-01
         -2   -1    0    0    0  501 -0.00000000000E+00  0.00000000000E+00  0.84853133018E+02  0.84853133057E+02  0.25500000000E-02 0. -1.
          2   -1    0    0  501    0  0.00000000000E+00 -0.00000000000E+00 -0.15017572954E+04  0.15017572954E+04  0.25500000000E-02 0.  1.
    5000001    1    1    2    0    0  0.12262338508E+03  0.26447357670E+03 -0.43427653548E+03  0.54845590215E+03  0.16500000000E+03 0.  0.
   -5000001    1    1    2    0    0 -0.12262338508E+03 -0.26447357670E+03 -0.98262762694E+03  0.10381545263E+04  0.16500000000E+03 0.  0.
<mgrwt>
<rscale>  0 0.71394345E+03</rscale>
<asrwt>0</asrwt>
<pdfrwt beam="1">  1        2 0.23103956E+00 0.71394345E+03</pdfrwt>
<pdfrwt beam="2">  1       -2 0.13054329E-01 0.71394345E+03</pdfrwt>
<totfact> 0.56842893E+02</totfact>
</mgrwt>
</event>
<event>
 4    1  0.8641621E-005  0.6130985E+03  0.7818608E-02  0.9878597E-01
          2   -1    0    0  501    0  0.00000000000E+00  0.00000000000E+00  0.37635586253E+03  0.37635586254E+03  0.25500000000E-02 0.  1.
         -2   -1    0    0    0  501 -0.00000000000E+00 -0.00000000000E+00 -0.24969039650E+03  0.24969039652E+03  0.25500000000E-02 0. -1.
    5000001    1    1    2    0    0  0.19840867293E+03 -0.93845603854E+02 -0.75833572464E+02  0.28486616080E+03  0.16500000000E+03 0.  0.
   -5000001    1    1    2    0    0 -0.19840867293E+03  0.93845603854E+02  0.20249903849E+03  0.34118009825E+03  0.16500000000E+03 0.  0.
<mgrwt>
<rscale>  0 0.61309851E+03</rscale>
<asrwt>0</asrwt>
<pdfrwt beam="1">  1        2 0.57900902E-01 0.61309851E+03</pdfrwt>
<pdfrwt beam="2">  1       -2 0.38413907E-01 0.61309851E+03</pdfrwt>
<totfact> 0.54924523E+02</totfact>
</mgrwt>
</event>
<event>
 4    1  0.8641621E-005  0.3949571E+03  0.7818608E-02  0.1045540E+00
         -2   -1    0    0    0  501 -0.00000000000E+00  0.00000000000E+00  0.25565505525E+02  0.25565505653E+02  0.25500000000E-02 0. -1.
          2   -1    0    0  501    0  0.00000000000E+00 -0.00000000000E+00 -0.15254057863E+04  0.15254057863E+04  0.25500000000E-02 0.  1.
    5000001    1    1    2    0    0 -0.83772305535E+01  0.88341633228E+02 -0.50473498140E+03  0.53838352835E+03  0.16500000000E+03 0.  0.
   -5000001    1    1    2    0    0  0.83772305535E+01 -0.88341633228E+02 -0.99510529942E+03  0.10125877636E+04  0.16500000000E+03 0.  0.
<mgrwt>
<rscale>  0 0.39495706E+03</rscale>
<asrwt>0</asrwt>
<pdfrwt beam="1">  1        2 0.23467774E+00 0.39495706E+03</pdfrwt>
<pdfrwt beam="2">  1       -2 0.39331559E-02 0.39495706E+03</pdfrwt>
<totfact> 0.37319507E+03</totfact>
</mgrwt>
</event>
<event>
 4    1  0.8641621E-005  0.4732501E+03  0.7818608E-02  0.1021007E+00
          2   -1    0    0  501    0  0.00000000000E+00  0.00000000000E+00  0.13318012739E+04  0.13318012739E+04  0.25500000000E-02 0.  1.
         -2   -1    0    0    0  501 -0.00000000000E+00 -0.00000000000E+00 -0.42041877482E+02  0.42041877560E+02  0.25500000000E-02 0. -1.
    5000001    1    1    2    0    0  0.90384541065E+02 -0.12471701518E+03  0.43873170201E+03  0.49339052027E+03  0.16500000000E+03 0.  0.
   -5000001    1    1    2    0    0 -0.90384541065E+02  0.12471701518E+03  0.85102769444E+03  0.88045263123E+03  0.16500000000E+03 0.  0.
<mgrwt>
<rscale>  0 0.47325015E+03</rscale>
<asrwt>0</asrwt>
<pdfrwt beam="1">  1        2 0.20489249E+00 0.47325015E+03</pdfrwt>
<pdfrwt beam="2">  1       -2 0.64679817E-02 0.47325015E+03</pdfrwt>
<totfact> 0.22151055E+03</totfact>
</mgrwt>
</event>
<event>
 4    1  0.8641621E-005  0.5361243E+03  0.7818608E-02  0.1004758E+00
         -2   -1    0    0    0  501 -0.00000000000E+00  0.00000000000E+00  0.32541771797E+02  0.32541771897E+02  0.25500000000E-02 0. -1.
          2   -1    0    0  501    0  0.00000000000E+00 -0.00000000000E+00 -0.22081565460E+04  0.22081565460E+04  0.25500000000E-02 0.  1.
    5000001    1    1    2    0    0 -0.93198278580E+02  0.78873887878E+02 -0.36722919583E+03  0.42070095269E+03  0.16500000000E+03 0.  0.
   -5000001    1    1    2    0    0  0.93198278580E+02 -0.78873887878E+02 -0.18083855783E+04  0.18199973652E+04  0.16500000000E+03 0.  0.
<mgrwt>
<rscale>  0 0.53612434E+03</rscale>
<asrwt>0</asrwt>
<pdfrwt beam="1">  1        2 0.33971627E+00 0.53612434E+03</pdfrwt>
<pdfrwt beam="2">  1       -2 0.50064282E-02 0.53612434E+03</pdfrwt>
<totfact> 0.10988277E+03</totfact>
</mgrwt>
</event>
<event>
 4    1  0.8641621E-005  0.5343940E+03  0.7818608E-02  0.1005172E+00
          2   -1    0    0  501    0  0.00000000000E+00  0.00000000000E+00  0.10456705832E+04  0.10456705832E+04  0.25500000000E-02 0.  1.
         -2   -1    0    0    0  501 -0.00000000000E+00 -0.00000000000E+00 -0.68276021466E+02  0.68276021514E+02  0.25500000000E-02 0. -1.
    5000001    1    1    2    0    0 -0.10355175570E+03 -0.13344674872E+03  0.74937059736E+03  0.78569223812E+03  0.16500000000E+03 0.  0.
   -5000001    1    1    2    0    0  0.10355175570E+03  0.13344674872E+03  0.22802396434E+03  0.32825436656E+03  0.16500000000E+03 0.  0.
<mgrwt>
<rscale>  0 0.53439396E+03</rscale>
<asrwt>0</asrwt>
<pdfrwt beam="1">  1        2 0.16087238E+00 0.53439396E+03</pdfrwt>
<pdfrwt beam="2">  1       -2 0.10504005E-01 0.53439396E+03</pdfrwt>
<totfact> 0.15045977E+03</totfact>
</mgrwt>
</event>
<event>
 4    1  0.8641621E-005  0.4879319E+03  0.7818608E-02  0.1016978E+00
         -2   -1    0    0    0  501 -0.00000000000E+00  0.00000000000E+00  0.14173135186E+03  0.14173135188E+03  0.25500000000E-02 0. -1.
          2   -1    0    0  501    0  0.00000000000E+00 -0.00000000000E+00 -0.41994512714E+03  0.41994512715E+03  0.25500000000E-02 0.  1.
    5000001    1    1    2    0    0  0.17767227752E+03 -0.18163218358E+01 -0.10814037521E+03  0.26549967603E+03  0.16500000000E+03 0.  0.
   -5000001    1    1    2    0    0 -0.17767227752E+03  0.18163218358E+01 -0.17007340007E+03  0.29617680300E+03  0.16500000000E+03 0.  0.
<mgrwt>
<rscale>  0 0.48793192E+03</rscale>
<asrwt>0</asrwt>
<pdfrwt beam="1">  1        2 0.64606942E-01 0.48793192E+03</pdfrwt>
<pdfrwt beam="2">  1       -2 0.21804824E-01 0.48793192E+03</pdfrwt>
<totfact> 0.13767169E+03</totfact>
</mgrwt>
</event>
<event>
 4    1  0.8641621E-005  0.7538844E+03  0.7818608E-02  0.9629276E-01
         -2   -1    0    0    0  501 -0.00000000000E+00  0.00000000000E+00  0.58344795738E+03  0.58344795739E+03  0.25500000000E-02 0.  1.
          2   -1    0    0  501    0  0.00000000000E+00 -0.00000000000E+00 -0.24352718380E+03  0.24352718382E+03  0.25500000000E-02 0. -1.
    5000001    1    1    2    0    0  0.27206805088E+03 -0.18726255322E+03  0.25330095774E+03  0.44774397075E+03  0.16500000000E+03 0.  0.
   -5000001    1    1    2    0    0 -0.27206805088E+03  0.18726255322E+03  0.86619815837E+02  0.37923117045E+03  0.16500000000E+03 0.  0.
<mgrwt>
<rscale>  0 0.75388444E+03</rscale>
<asrwt>0</asrwt>
<pdfrwt beam="1">  1        2 0.37465721E-01 0.75388444E+03</pdfrwt>
<pdfrwt beam="2">  1       -2 0.89761223E-01 0.75388444E+03</pdfrwt>
<totfact> 0.14864990E+02</totfact>
</mgrwt>
</event>
<event>
 4    1  0.8641621E-005  0.4822211E+03  0.7818608E-02  0.1018527E+00
         -2   -1    0    0    0  501 -0.00000000000E+00  0.00000000000E+00  0.43716034464E+03  0.43716034465E+03  0.25500000000E-02 0. -1.
          2   -1    0    0  501    0  0.00000000000E+00 -0.00000000000E+00 -0.13298161483E+03  0.13298161485E+03  0.25500000000E-02 0.  1.
    5000001    1    1    2    0    0  0.11760795886E+03 -0.16674248538E+02 -0.11557483101E+01  0.20331256308E+03  0.16500000000E+03 0.  0.
   -5000001    1    1    2    0    0 -0.11760795886E+03  0.16674248538E+02  0.30533447812E+03  0.36682939642E+03  0.16500000000E+03 0.  0.
<mgrwt>
<rscale>  0 0.48222106E+03</rscale>
<asrwt>0</asrwt>
<pdfrwt beam="1">  1        2 0.20458710E-01 0.48222106E+03</pdfrwt>
<pdfrwt beam="2">  1       -2 0.67255437E-01 0.48222106E+03</pdfrwt>
<totfact> 0.56530325E+02</totfact>
</mgrwt>
</event>
<event>
 4    1  0.8641621E-005  0.4586805E+03  0.7818608E-02  0.1025165E+00
          2   -1    0    0  501    0  0.00000000000E+00  0.00000000000E+00  0.44703124411E+03  0.44703124412E+03  0.25500000000E-02 0.  1.
         -2   -1    0    0    0  501 -0.00000000000E+00 -0.00000000000E+00 -0.11765834804E+03  0.11765834806E+03  0.25500000000E-02 0. -1.
    5000001    1    1    2    0    0  0.12563985989E+03  0.97675173520E+02  0.15632356269E+03  0.27746688121E+03  0.16500000000E+03 0.  0.
   -5000001    1    1    2    0    0 -0.12563985989E+03 -0.97675173520E+02  0.17304933338E+03  0.28722271097E+03  0.16500000000E+03 0.  0.
<mgrwt>
<rscale>  0 0.45868053E+03</rscale>
<asrwt>0</asrwt>
<pdfrwt beam="1">  1        2 0.68774038E-01 0.45868053E+03</pdfrwt>
<pdfrwt beam="2">  1       -2 0.18101284E-01 0.45868053E+03</pdfrwt>
<totfact> 0.17716146E+03</totfact>
</mgrwt>
</event>
<event>
 4    1  0.8641621E-005  0.1078975E+04  0.7818608E-02  0.9225930E-01
         -2   -1    0    0    0  501 -0.00000000000E+00  0.00000000000E+00  0.10752979118E+03  0.10752979121E+03  0.25500000000E-02 0.  1.
          2   -1    0    0  501    0  0.00000000000E+00 -0.00000000000E+00 -0.27066640504E+04  0.27066640504E+04  0.25500000000E-02 0. -1.
    5000001    1    1    2    0    0 -0.45644599797E+03 -0.23090381559E+03 -0.14208558452E+04  0.15191168006E+04  0.16500000000E+03 0.  0.
   -5000001    1    1    2    0    0  0.45644599797E+03  0.23090381559E+03 -0.11782784140E+04  0.12950770410E+04  0.16500000000E+03 0.  0.
<mgrwt>
<rscale>  0 0.10789755E+04</rscale>
<asrwt>0</asrwt>
<pdfrwt beam="1">  1        2 0.41640980E+00 0.10789755E+04</pdfrwt>
<pdfrwt beam="2">  1       -2 0.16543047E-01 0.10789755E+04</pdfrwt>
<totfact> 0.78775617E+01</totfact>
</mgrwt>
</event>
<event>
 4    1  0.8641621E-005  0.6032483E+03  0.7818608E-02  0.9898690E-01
          2   -1    0    0  501    0  0.00000000000E+00  0.00000000000E+00  0.21660247709E+03  0.21660247711E+03  0.25500000000E-02 0. -1.
         -2   -1    0    0    0  501 -0.00000000000E+00 -0.00000000000E+00 -0.42001891822E+03  0.42001891823E+03  0.25500000000E-02 0.  1.
    5000001    1    1    2    0    0  0.19980146465E+03  0.97245736499E+02  0.24819503434E+02  0.27788192869E+03  0.16500000000E+03 0.  0.
   -5000001    1    1    2    0    0 -0.19980146465E+03 -0.97245736499E+02 -0.22823594456E+03  0.35873946665E+03  0.16500000000E+03 0.  0.
<mgrwt>
<rscale>  0 0.60324833E+03</rscale>
<asrwt>0</asrwt>
<pdfrwt beam="1">  1        2 0.33323458E-01 0.60324833E+03</pdfrwt>
<pdfrwt beam="2">  1       -2 0.64618295E-01 0.60324833E+03</pdfrwt>
<totfact> 0.35300214E+02</totfact>
</mgrwt>
</event>
<event>
 4    1  0.8641621E-005  0.5656247E+03  0.7818608E-02  0.9979408E-01
          2   -1    0    0  501    0  0.00000000000E+00  0.00000000000E+00  0.19643702928E+04  0.19643702928E+04  0.25500000000E-02 0.  1.
         -2   -1    0    0    0  501 -0.00000000000E+00 -0.00000000000E+00 -0.40716771801E+02  0.40716771881E+02  0.25500000000E-02 0. -1.
    5000001    1    1    2    0    0 -0.15652315213E+03 -0.11670793494E+03  0.13907104198E+04  0.14140087379E+04  0.16500000000E+03 0.  0.
   -5000001    1    1    2    0    0  0.15652315213E+03  0.11670793494E+03  0.53294310123E+03  0.59107832677E+03  0.16500000000E+03 0.  0.
<mgrwt>
<rscale>  0 0.56562467E+03</rscale>
<asrwt>0</asrwt>
<pdfrwt beam="1">  1        2 0.30221085E+00 0.56562467E+03</pdfrwt>
<pdfrwt beam="2">  1       -2 0.62641179E-02 0.56562467E+03</pdfrwt>
<totfact> 0.10486958E+03</totfact>
</mgrwt>
</event>
<event>
 4    1  0.8641621E-005  0.7055919E+03  0.7818608E-02  0.9707717E-01
         -2   -1    0    0    0  501 -0.00000000000E+00  0.00000000000E+00  0.65281157582E+02  0.65281157632E+02  0.25500000000E-02 0. -1.
          2   -1    0    0  501    0  0.00000000000E+00 -0.00000000000E+00 -0.19065989346E+04  0.19065989346E+04  0.25500000000E-02 0.  1.
    5000001    1    1    2    0    0  0.29620242792E+03  0.22448565221E+02 -0.65553293315E+03  0.73836863613E+03  0.16500000000E+03 0.  0.
   -5000001    1    1    2    0    0 -0.29620242792E+03 -0.22448565221E+02 -0.11857848439E+04  0.12335114561E+04  0.16500000000E+03 0.  0.
<mgrwt>
<rscale>  0 0.70559191E+03</rscale>
<asrwt>0</asrwt>
<pdfrwt beam="1">  1        2 0.29332287E+00 0.70559191E+03</pdfrwt>
<pdfrwt beam="2">  1       -2 0.10043256E-01 0.70559191E+03</pdfrwt>
<totfact> 0.52567012E+02</totfact>
</mgrwt>
</event>
<event>
 4    1  0.8641621E-005  0.1103700E+04  0.7818608E-02  0.9201593E-01
          2   -1    0    0  501    0  0.00000000000E+00  0.00000000000E+00  0.24676902399E+04  0.24676902399E+04  0.25500000000E-02 0. -1.
         -2   -1    0    0    0  501 -0.00000000000E+00 -0.00000000000E+00 -0.12341031219E+03  0.12341031222E+03  0.25500000000E-02 0.  1.
    5000001    1    1    2    0    0 -0.10339914042E+03  0.38609201832E+03  0.19770619052E+04  0.20237977186E+04  0.16500000000E+03 0.  0.
   -5000001    1    1    2    0    0  0.10339914042E+03 -0.38609201832E+03  0.36721802250E+03  0.56730283350E+03  0.16500000000E+03 0.  0.
<mgrwt>
<rscale>  0 0.11037000E+04</rscale>
<asrwt>0</asrwt>
<pdfrwt beam="1">  1        2 0.37964466E+00 0.11037000E+04</pdfrwt>
<pdfrwt beam="2">  1       -2 0.18986202E-01 0.11037000E+04</pdfrwt>
<totfact> 0.85167449E+01</totfact>
</mgrwt>
</event>
<event>
 4    1  0.8641621E-005  0.5072653E+03  0.7818608E-02  0.1011900E+00
         -2   -1    0    0    0  501 -0.00000000000E+00  0.00000000000E+00  0.85755704921E+02  0.85755704959E+02  0.25500000000E-02 0. -1.
          2   -1    0    0  501    0  0.00000000000E+00 -0.00000000000E+00 -0.75014850602E+03  0.75014850603E+03  0.25500000000E-02 0.  1.
    5000001    1    1    2    0    0  0.13473848969E+03 -0.13108520257E+03 -0.40146008900E+03  0.47300422197E+03  0.16500000000E+03 0.  0.
   -5000001    1    1    2    0    0 -0.13473848969E+03  0.13108520257E+03 -0.26293271210E+03  0.36289998902E+03  0.16500000000E+03 0.  0.
<mgrwt>
<rscale>  0 0.50726527E+03</rscale>
<asrwt>0</asrwt>
<pdfrwt beam="1">  1        2 0.11540746E+00 0.50726527E+03</pdfrwt>
<pdfrwt beam="2">  1       -2 0.13193186E-01 0.50726527E+03</pdfrwt>
<totfact> 0.16331492E+03</totfact>
</mgrwt>
</event>
<event>
 4    1  0.8641621E-005  0.5807310E+03  0.7818608E-02  0.9946210E-01
         -2   -1    0    0    0  501 -0.00000000000E+00  0.00000000000E+00  0.25398685073E+03  0.25398685074E+03  0.25500000000E-02 0. -1.
          2   -1    0    0  501    0  0.00000000000E+00 -0.00000000000E+00 -0.33195465440E+03  0.33195465441E+03  0.25500000000E-02 0.  1.
    5000001    1    1    2    0    0  0.10043428095E+03 -0.21650418937E+03 -0.27657835017E+02  0.29146365921E+03  0.16500000000E+03 0.  0.
   -5000001    1    1    2    0    0 -0.10043428095E+03  0.21650418937E+03 -0.50309968653E+02  0.29447784594E+03  0.16500000000E+03 0.  0.
<mgrwt>
<rscale>  0 0.58073098E+03</rscale>
<asrwt>0</asrwt>
<pdfrwt beam="1">  1        2 0.51069947E-01 0.58073098E+03</pdfrwt>
<pdfrwt beam="2">  1       -2 0.39074900E-01 0.58073098E+03</pdfrwt>
<totfact> 0.61126456E+02</totfact>
</mgrwt>
</event>
<event>
 4    1  0.8641621E-005  0.4683665E+03  0.7818608E-02  0.1022382E+00
          2   -1    0    0  501    0  0.00000000000E+00  0.00000000000E+00  0.17984653895E+04  0.17984653895E+04  0.25500000000E-02 0.  1.
         -2   -1    0    0    0  501 -0.00000000000E+00 -0.00000000000E+00 -0.30493656010E+02  0.30493656116E+02  0.25500000000E-02 0. -1.
    5000001    1    1    2    0    0 -0.12499282824E+02 -0.13231126761E+03  0.12735896375E+04  0.12910918125E+04  0.16500000000E+03 0.  0.
   -5000001    1    1    2    0    0  0.12499282824E+02  0.13231126761E+03  0.49438209601E+03  0.53786723311E+03  0.16500000000E+03 0.  0.
<mgrwt>
<rscale>  0 0.46836646E+03</rscale>
<asrwt>0</asrwt>
<pdfrwt beam="1">  1        2 0.27668689E+00 0.46836646E+03</pdfrwt>
<pdfrwt beam="2">  1       -2 0.46913332E-02 0.46836646E+03</pdfrwt>
<totfact> 0.20283264E+03</totfact>
</mgrwt>
</event>
<event>
 4    1  0.8641621E-005  0.5312269E+03  0.7818608E-02  0.1005935E+00
          2   -1    0    0  501    0  0.00000000000E+00  0.00000000000E+00  0.33601237011E+03  0.33601237012E+03  0.25500000000E-02 0.  1.
         -2   -1    0    0    0  501 -0.00000000000E+00 -0.00000000000E+00 -0.20996397614E+03  0.20996397615E+03  0.25500000000E-02 0. -1.
    5000001    1    1    2    0    0 -0.12289763531E+03 -0.14801742180E+03 -0.18633053620E+02  0.25413613794E+03  0.16500000000E+03 0.  0.
   -5000001    1    1    2    0    0  0.12289763531E+03  0.14801742180E+03  0.14468144759E+03  0.29184020833E+03  0.16500000000E+03 0.  0.
<mgrwt>
<rscale>  0 0.53122686E+03</rscale>
<asrwt>0</asrwt>
<pdfrwt beam="1">  1        2 0.51694211E-01 0.53122686E+03</pdfrwt>
<pdfrwt beam="2">  1       -2 0.32302150E-01 0.53122686E+03</pdfrwt>
<totfact> 0.86613902E+02</totfact>
</mgrwt>
</event>
<event>
 4    1  0.8641621E-005  0.3885955E+03  0.7818608E-02  0.1047802E+00
          2   -1    0    0  501    0  0.00000000000E+00  0.00000000000E+00  0.31220679716E+04  0.31220679716E+04  0.25500000000E-02 0.  1.
         -2   -1    0    0    0  501 -0.00000000000E+00 -0.00000000000E+00 -0.12091864477E+02  0.12091864746E+02  0.25500000000E-02 0. -1.
    5000001    1    1    2    0    0  0.37852665480E+02  0.83238999574E+02  0.19302712247E+04  0.19394673383E+04  0.16500000000E+03 0.  0.
   -5000001    1    1    2    0    0 -0.37852665480E+02 -0.83238999574E+02  0.11797048824E+04  0.11946924980E+04  0.16500000000E+03 0.  0.
<mgrwt>
<rscale>  0 0.38859554E+03</rscale>
<asrwt>0</asrwt>
<pdfrwt beam="1">  1        2 0.48031814E+00 0.38859554E+03</pdfrwt>
<pdfrwt beam="2">  1       -2 0.18602869E-02 0.38859554E+03</pdfrwt>
<totfact> 0.14900825E+03</totfact>
</mgrwt>
</event>
<event>
 4    1  0.8641621E-005  0.4299134E+03  0.7818608E-02  0.1033887E+00
         -2   -1    0    0    0  501 -0.00000000000E+00  0.00000000000E+00  0.45076078067E+02  0.45076078139E+02  0.25500000000E-02 0. -1.
          2   -1    0    0  501    0  0.00000000000E+00 -0.00000000000E+00 -0.10250756825E+04  0.10250756825E+04  0.25500000000E-02 0.  1.
    5000001    1    1    2    0    0 -0.10737339972E+03  0.86158562991E+02 -0.47658414768E+03  0.52279039276E+03  0.16500000000E+03 0.  0.
   -5000001    1    1    2    0    0  0.10737339972E+03 -0.86158562991E+02 -0.50341545671E+03  0.54736136784E+03  0.16500000000E+03 0.  0.
<mgrwt>
<rscale>  0 0.42991344E+03</rscale>
<asrwt>0</asrwt>
<pdfrwt beam="1">  1        2 0.15770393E+00 0.42991344E+03</pdfrwt>
<pdfrwt beam="2">  1       -2 0.69347820E-02 0.42991344E+03</pdfrwt>
<totfact> 0.30060219E+03</totfact>
</mgrwt>
</event>
<event>
 4    1  0.8641621E-005  0.4570660E+03  0.7818608E-02  0.1025636E+00
          2   -1    0    0  501    0  0.00000000000E+00  0.00000000000E+00  0.83116064025E+03  0.83116064025E+03  0.25500000000E-02 0.  1.
         -2   -1    0    0    0  501 -0.00000000000E+00 -0.00000000000E+00 -0.62836619019E+02  0.62836619071E+02  0.25500000000E-02 0. -1.
    5000001    1    1    2    0    0 -0.12834215254E+03  0.90646091033E+02  0.41881612031E+03  0.47678125442E+03  0.16500000000E+03 0.  0.
   -5000001    1    1    2    0    0  0.12834215254E+03 -0.90646091033E+02  0.34950790092E+03  0.41721600490E+03  0.16500000000E+03 0.  0.
<mgrwt>
<rscale>  0 0.45706597E+03</rscale>
<asrwt>0</asrwt>
<pdfrwt beam="1">  1        2 0.12787086E+00 0.45706597E+03</pdfrwt>
<pdfrwt beam="2">  1       -2 0.96671729E-02 0.45706597E+03</pdfrwt>
<totfact> 0.23736249E+03</totfact>
</mgrwt>
</event>
<event>
 4    1  0.8641621E-005  0.6149454E+03  0.7818608E-02  0.9874875E-01
         -2   -1    0    0    0  501 -0.00000000000E+00  0.00000000000E+00  0.57769143827E+03  0.57769143827E+03  0.25500000000E-02 0. -1.
          2   -1    0    0  501    0  0.00000000000E+00 -0.00000000000E+00 -0.16365046517E+03  0.16365046519E+03  0.25500000000E-02 0.  1.
    5000001    1    1    2    0    0  0.24980018600E+03  0.62710182336E+02  0.24479400533E+03  0.39176753942E+03  0.16500000000E+03 0.  0.
   -5000001    1    1    2    0    0 -0.24980018600E+03 -0.62710182336E+02  0.16924696776E+03  0.34957436404E+03  0.16500000000E+03 0.  0.
<mgrwt>
<rscale>  0 0.61494544E+03</rscale>
<asrwt>0</asrwt>
<pdfrwt beam="1">  1        2 0.25176995E-01 0.61494544E+03</pdfrwt>
<pdfrwt beam="2">  1       -2 0.88875606E-01 0.61494544E+03</pdfrwt>
<totfact> 0.23917959E+02</totfact>
</mgrwt>
</event>
<event>
 4    1  0.8641621E-005  0.5198588E+03  0.7818608E-02  0.1008722E+00
         -2   -1    0    0    0  501 -0.00000000000E+00  0.00000000000E+00  0.25487209539E+03  0.25487209540E+03  0.25500000000E-02 0. -1.
          2   -1    0    0  501    0  0.00000000000E+00 -0.00000000000E+00 -0.26508701397E+03  0.26508701398E+03  0.25500000000E-02 0.  1.
    5000001    1    1    2    0    0 -0.13117357775E+03 -0.10136027013E+02  0.14667504191E+03  0.25699769349E+03  0.16500000000E+03 0.  0.
   -5000001    1    1    2    0    0  0.13117357775E+03  0.10136027013E+02 -0.15688996049E+03  0.26296141589E+03  0.16500000000E+03 0.  0.
<mgrwt>
<rscale>  0 0.51985876E+03</rscale>
<asrwt>0</asrwt>
<pdfrwt beam="1">  1        2 0.40782618E-01 0.51985876E+03</pdfrwt>
<pdfrwt beam="2">  1       -2 0.39211091E-01 0.51985876E+03</pdfrwt>
<totfact> 0.77851478E+02</totfact>
</mgrwt>
</event>
<event>
 4    1  0.8641621E-005  0.1285528E+04  0.7818608E-02  0.9041121E-01
          2   -1    0    0  501    0  0.00000000000E+00  0.00000000000E+00  0.10043898748E+04  0.10043898748E+04  0.25500000000E-02 0.  1.
         -2   -1    0    0    0  501 -0.00000000000E+00 -0.00000000000E+00 -0.41133992697E+03  0.41133992698E+03  0.25500000000E-02 0. -1.
    5000001    1    1    2    0    0  0.16012196048E+03 -0.49231765924E+03  0.67467556129E+03  0.86627237797E+03  0.16500000000E+03 0.  0.
   -5000001    1    1    2    0    0 -0.16012196048E+03  0.49231765924E+03 -0.81625613452E+02  0.54945742382E+03  0.16500000000E+03 0.  0.
<mgrwt>
<rscale>  0 0.12855282E+04</rscale>
<asrwt>0</asrwt>
<pdfrwt beam="1">  1        2 0.15452152E+00 0.12855282E+04</pdfrwt>
<pdfrwt beam="2">  1       -2 0.63283065E-01 0.12855282E+04</pdfrwt>
<totfact> 0.56783813E+01</totfact>
</mgrwt>
</event>
<event>
 4    1  0.8641621E-005  0.3865205E+03  0.7818608E-02  0.1048550E+00
          2   -1    0    0  501    0  0.00000000000E+00  0.00000000000E+00  0.35372790033E+04  0.35372790033E+04  0.25500000000E-02 0.  1.
         -2   -1    0    0    0  501 -0.00000000000E+00 -0.00000000000E+00 -0.10558830450E+02  0.10558830758E+02  0.25500000000E-02 0. -1.
    5000001    1    1    2    0    0  0.90377092225E+02 -0.43886867224E+02  0.17127062270E+04  0.17235665627E+04  0.16500000000E+03 0.  0.
   -5000001    1    1    2    0    0 -0.90377092225E+02  0.43886867224E+02  0.18140139458E+04  0.18242712714E+04  0.16500000000E+03 0.  0.
<mgrwt>
<rscale>  0 0.38652053E+03</rscale>
<asrwt>0</asrwt>
<pdfrwt beam="1">  1        2 0.54419696E+00 0.38652053E+03</pdfrwt>
<pdfrwt beam="2">  1       -2 0.16244349E-02 0.38652053E+03</pdfrwt>
<totfact> 0.98500850E+02</totfact>
</mgrwt>
</event>
<event>
 4    1  0.8641621E-005  0.4587530E+03  0.7818608E-02  0.1025144E+00
         -2   -1    0    0    0  501 -0.00000000000E+00  0.00000000000E+00  0.57142965652E+02  0.57142965709E+02  0.25500000000E-02 0. -1.
          2   -1    0    0  501    0  0.00000000000E+00 -0.00000000000E+00 -0.92073569509E+03  0.92073569509E+03  0.25500000000E-02 0.  1.
    5000001    1    1    2    0    0  0.82592678292E+02 -0.12972597486E+03 -0.34292648044E+03  0.41045578331E+03  0.16500000000E+03 0.  0.
   -5000001    1    1    2    0    0 -0.82592678292E+02  0.12972597486E+03 -0.52066624899E+03  0.56742287749E+03  0.16500000000E+03 0.  0.
<mgrwt>
<rscale>  0 0.45875295E+03</rscale>
<asrwt>0</asrwt>
<pdfrwt beam="1">  1        2 0.14165163E+00 0.45875295E+03</pdfrwt>
<pdfrwt beam="2">  1       -2 0.87912261E-02 0.45875295E+03</pdfrwt>
<totfact> 0.24064640E+03</totfact>
</mgrwt>
</event>
<event>
 4    1  0.8641621E-005  0.1318660E+04  0.7818608E-02  0.9014897E-01
         -2   -1    0    0    0  501 -0.00000000000E+00  0.00000000000E+00  0.16490019285E+03  0.16490019287E+03  0.25500000000E-02 0. -1.
          2   -1    0    0  501    0  0.00000000000E+00 -0.00000000000E+00 -0.26362380161E+04  0.26362380161E+04  0.25500000000E-02 0.  1.
    5000001    1    1    2    0    0  0.57629294272E+03  0.27012838699E+03 -0.11314244535E+04  0.13085981795E+04  0.16500000000E+03 0.  0.
   -5000001    1    1    2    0    0 -0.57629294272E+03 -0.27012838699E+03 -0.13399133697E+04  0.14925400294E+04  0.16500000000E+03 0.  0.
<mgrwt>
<rscale>  0 0.13186602E+04</rscale>
<asrwt>0</asrwt>
<pdfrwt beam="1">  1        2 0.40557505E+00 0.13186602E+04</pdfrwt>
<pdfrwt beam="2">  1       -2 0.25369262E-01 0.13186602E+04</pdfrwt>
<totfact> 0.39857321E+01</totfact>
</mgrwt>
</event>
<event>
 4    1  0.8641621E-005  0.4152293E+03  0.7818608E-02  0.1038630E+00
         -2   -1    0    0    0  501 -0.00000000000E+00  0.00000000000E+00  0.86848394059E+02  0.86848394096E+02  0.25500000000E-02 0. -1.
          2   -1    0    0  501    0  0.00000000000E+00 -0.00000000000E+00 -0.49631126109E+03  0.49631126110E+03  0.25500000000E-02 0.  1.
    5000001    1    1    2    0    0 -0.18805374240E+02 -0.10567494880E+03 -0.11201791106E+03  0.22648145466E+03  0.16500000000E+03 0.  0.
   -5000001    1    1    2    0    0  0.18805374240E+02  0.10567494880E+03 -0.29744495597E+03  0.35667820054E+03  0.16500000000E+03 0.  0.
<mgrwt>
<rscale>  0 0.41522927E+03</rscale>
<asrwt>0</asrwt>
<pdfrwt beam="1">  1        2 0.76355577E-01 0.41522927E+03</pdfrwt>
<pdfrwt beam="2">  1       -2 0.13361292E-01 0.41522927E+03</pdfrwt>
<totfact> 0.26189204E+03</totfact>
</mgrwt>
</event>
<event>
 4    1  0.8641621E-005  0.3717837E+03  0.7818608E-02  0.1054013E+00
         -2   -1    0    0    0  501 -0.00000000000E+00  0.00000000000E+00  0.41908385723E+02  0.41908385800E+02  0.25500000000E-02 0. -1.
          2   -1    0    0  501    0  0.00000000000E+00 -0.00000000000E+00 -0.82455527994E+03  0.82455527994E+03  0.25500000000E-02 0.  1.
    5000001    1    1    2    0    0  0.73375545849E+02 -0.30767250749E+02 -0.31761785186E+03  0.36665609809E+03  0.16500000000E+03 0.  0.
   -5000001    1    1    2    0    0 -0.73375545849E+02  0.30767250749E+02 -0.46502904236E+03  0.49980756765E+03  0.16500000000E+03 0.  0.
<mgrwt>
<rscale>  0 0.37178370E+03</rscale>
<asrwt>0</asrwt>
<pdfrwt beam="1">  1        2 0.12685465E+00 0.37178370E+03</pdfrwt>
<pdfrwt beam="2">  1       -2 0.64474446E-02 0.37178370E+03</pdfrwt>
<totfact> 0.45394617E+03</totfact>
</mgrwt>
</event>
<event>
 4    1  0.8641621E-005  0.4253097E+03  0.7818608E-02  0.1035352E+00
         -2   -1    0    0    0  501 -0.00000000000E+00  0.00000000000E+00  0.10510324114E+03  0.10510324117E+03  0.25500000000E-02 0. -1.
          2   -1    0    0  501    0  0.00000000000E+00 -0.00000000000E+00 -0.43026337656E+03  0.43026337656E+03  0.25500000000E-02 0.  1.
    5000001    1    1    2    0    0 -0.10003050086E+03 -0.77330877367E+02 -0.21902725873E+03  0.30196706073E+03  0.16500000000E+03 0.  0.
   -5000001    1    1    2    0    0  0.10003050086E+03  0.77330877367E+02 -0.10613287668E+03  0.23339955700E+03  0.16500000000E+03 0.  0.
<mgrwt>
<rscale>  0 0.42530965E+03</rscale>
<asrwt>0</asrwt>
<pdfrwt beam="1">  1        2 0.66194365E-01 0.42530965E+03</pdfrwt>
<pdfrwt beam="2">  1       -2 0.16169730E-01 0.42530965E+03</pdfrwt>
<totfact> 0.22379295E+03</totfact>
</mgrwt>
</event>
<event>
 4    1  0.8641621E-005  0.1003961E+04  0.7818608E-02  0.9304211E-01
         -2   -1    0    0    0  501 -0.00000000000E+00  0.00000000000E+00  0.36494607253E+03  0.36494607254E+03  0.25500000000E-02 0. -1.
          2   -1    0    0  501    0  0.00000000000E+00 -0.00000000000E+00 -0.69047077693E+03  0.69047077693E+03  0.25500000000E-02 0.  1.
    5000001    1    1    2    0    0  0.25853079012E+03  0.39639682432E+03 -0.13319642139E+03  0.51858933507E+03  0.16500000000E+03 0.  0.
   -5000001    1    1    2    0    0 -0.25853079012E+03 -0.39639682432E+03 -0.19232828301E+03  0.53682751440E+03  0.16500000000E+03 0.  0.
<mgrwt>
<rscale>  0 0.10039614E+04</rscale>
<asrwt>0</asrwt>
<pdfrwt beam="1">  1        2 0.10622627E+00 0.10039614E+04</pdfrwt>
<pdfrwt beam="2">  1       -2 0.56145550E-01 0.10039614E+04</pdfrwt>
<totfact> 0.12398257E+02</totfact>
</mgrwt>
</event>
<event>
 4    1  0.8641621E-005  0.8521889E+03  0.7818608E-02  0.9487404E-01
         -2   -1    0    0    0  501 -0.00000000000E+00  0.00000000000E+00  0.82968634405E+02  0.82968634444E+02  0.25500000000E-02 0.  1.
          2   -1    0    0  501    0  0.00000000000E+00 -0.00000000000E+00 -0.21882541563E+04  0.21882541563E+04  0.25500000000E-02 0. -1.
    5000001    1    1    2    0    0  0.32578682228E+03  0.14206975875E+03 -0.14986942689E+04  0.15490740400E+04  0.16500000000E+03 0.  0.
   -5000001    1    1    2    0    0 -0.32578682228E+03 -0.14206975875E+03 -0.60659125300E+03  0.72214875070E+03  0.16500000000E+03 0.  0.
<mgrwt>
<rscale>  0 0.85218885E+03</rscale>
<asrwt>0</asrwt>
<pdfrwt beam="1">  1        2 0.33665444E+00 0.85218885E+03</pdfrwt>
<pdfrwt beam="2">  1       -2 0.12764407E-01 0.85218885E+03</pdfrwt>
<totfact> 0.24562453E+02</totfact>
</mgrwt>
</event>
<event>
 4    1  0.8641621E-005  0.9156373E+03  0.7818608E-02  0.9406242E-01
          2   -1    0    0  501    0  0.00000000000E+00  0.00000000000E+00  0.20060793065E+04  0.20060793065E+04  0.25500000000E-02 0.  1.
         -2   -1    0    0    0  501 -0.00000000000E+00 -0.00000000000E+00 -0.10448137719E+03  0.10448137722E+03  0.25500000000E-02 0. -1.
    5000001    1    1    2    0    0  0.36142291238E+03 -0.10802094026E+03  0.48934673947E+03  0.63951565779E+03  0.16500000000E+03 0.  0.
   -5000001    1    1    2    0    0 -0.36142291238E+03  0.10802094026E+03  0.14122511899E+04  0.14710450260E+04  0.16500000000E+03 0.  0.
<mgrwt>
<rscale>  0 0.91563733E+03</rscale>
<asrwt>0</asrwt>
<pdfrwt beam="1">  1        2 0.30862758E+00 0.91563733E+03</pdfrwt>
<pdfrwt beam="2">  1       -2 0.16074058E-01 0.91563733E+03</pdfrwt>
<totfact> 0.20868891E+02</totfact>
</mgrwt>
</event>
<event>
 4    1  0.8641621E-005  0.1212844E+04  0.7818608E-02  0.9101688E-01
         -2   -1    0    0    0  501 -0.00000000000E+00  0.00000000000E+00  0.49148788741E+03  0.49148788742E+03  0.25500000000E-02 0. -1.
          2   -1    0    0  501    0  0.00000000000E+00 -0.00000000000E+00 -0.74823355413E+03  0.74823355413E+03  0.25500000000E-02 0.  1.
    5000001    1    1    2    0    0 -0.33362937642E+03  0.22463694502E+03 -0.56053333539E+03  0.70936093631E+03  0.16500000000E+03 0.  0.
   -5000001    1    1    2    0    0  0.33362937642E+03 -0.22463694502E+03  0.30378766868E+03  0.53036050524E+03  0.16500000000E+03 0.  0.
<mgrwt>
<rscale>  0 0.12128441E+04</rscale>
<asrwt>0</asrwt>
<pdfrwt beam="1">  1        2 0.11511285E+00 0.12128441E+04</pdfrwt>
<pdfrwt beam="2">  1       -2 0.75613521E-01 0.12128441E+04</pdfrwt>
<totfact> 0.58184841E+01</totfact>
</mgrwt>
</event>
