<event>
 4    1  0.1361667E-004  0.4338442E+03  0.7818608E-02  0.1032652E+00
         -2   -1    0    0    0  501 -0.00000000000E+00  0.00000000000E+00  0.23882552691E+02  0.23882552828E+02  0.25500000000E-02 0. -1.
          2   -1    0    0  501    0  0.00000000000E+00 -0.00000000000E+00 -0.19702748531E+04  0.19702748531E+04  0.25500000000E-02 0.  1.
    5000001    1    1    2    0    0 -0.10113123238E+03 -0.13627477496E+03 -0.11852257231E+04  0.12040296321E+04  0.12700000000E+03 0.  0.
   -5000001    1    1    2    0    0  0.10113123238E+03  0.13627477496E+03 -0.76116657738E+03  0.79012777382E+03  0.12700000000E+03 0.  0.
<mgrwt>
<rscale>  0 0.43384418E+03</rscale>
<asrwt>0</asrwt>
<pdfrwt beam="1">  1        2 0.28146773E+00 0.43384418E+03</pdfrwt>
<pdfrwt beam="2">  1       -2 0.34117945E-02 0.43384418E+03</pdfrwt>
<totfact> 0.31780459E+03</totfact>
</mgrwt>
</event>
<event>
 4    1  0.1361667E-004  0.6620309E+03  0.7818608E-02  0.9784462E-01
         -2   -1    0    0    0  501 -0.00000000000E+00  0.00000000000E+00  0.68689064531E+02  0.68689064578E+02  0.25500000000E-02 0. -1.
          2   -1    0    0  501    0  0.00000000000E+00 -0.00000000000E+00 -0.15951772849E+04  0.15951772849E+04  0.25500000000E-02 0.  1.
    5000001    1    1    2    0    0 -0.25183157397E+03  0.16221297555E+03 -0.61016013969E+03  0.69148867464E+03  0.12700000000E+03 0.  0.
   -5000001    1    1    2    0    0  0.25183157397E+03 -0.16221297555E+03 -0.91632808064E+03  0.97237767480E+03  0.12700000000E+03 0.  0.
<mgrwt>
<rscale>  0 0.66203092E+03</rscale>
<asrwt>0</asrwt>
<pdfrwt beam="1">  1        2 0.22788245E+00 0.66203092E+03</pdfrwt>
<pdfrwt beam="2">  1       -2 0.98127244E-02 0.66203092E+03</pdfrwt>
<totfact> 0.93520600E+02</totfact>
</mgrwt>
</event>
<event>
 4    1  0.1361667E-004  0.4966950E+03  0.7818608E-02  0.1014645E+00
         -2   -1    0    0    0  501 -0.00000000000E+00  0.00000000000E+00  0.56124666523E+02  0.56124666581E+02  0.25500000000E-02 0. -1.
          2   -1    0    0  501    0  0.00000000000E+00 -0.00000000000E+00 -0.10989192897E+04  0.10989192897E+04  0.25500000000E-02 0.  1.
    5000001    1    1    2    0    0 -0.19845693670E+03  0.59371476376E+02 -0.40197301859E+03  0.46970356142E+03  0.12700000000E+03 0.  0.
   -5000001    1    1    2    0    0  0.19845693670E+03 -0.59371476376E+02 -0.64082160456E+03  0.68534039484E+03  0.12700000000E+03 0.  0.
<mgrwt>
<rscale>  0 0.49669499E+03</rscale>
<asrwt>0</asrwt>
<pdfrwt beam="1">  1        2 0.15698846E+00 0.49669499E+03</pdfrwt>
<pdfrwt beam="2">  1       -2 0.80178102E-02 0.49669499E+03</pdfrwt>
<totfact> 0.24079450E+03</totfact>
</mgrwt>
</event>
<event>
 4    1  0.1361667E-004  0.3561628E+03  0.7818608E-02  0.1060114E+00
         -2   -1    0    0    0  501 -0.00000000000E+00  0.00000000000E+00  0.88005852758E+03  0.88005852758E+03  0.25500000000E-02 0. -1.
          2   -1    0    0  501    0  0.00000000000E+00 -0.00000000000E+00 -0.36035095437E+02  0.36035095527E+02  0.25500000000E-02 0.  1.
    5000001    1    1    2    0    0 -0.79606335702E+02  0.67525312751E+02  0.59810629101E+03  0.62028781375E+03  0.12700000000E+03 0.  0.
   -5000001    1    1    2    0    0  0.79606335702E+02 -0.67525312751E+02  0.24591714114E+03  0.29580580936E+03  0.12700000000E+03 0.  0.
<mgrwt>
<rscale>  0 0.35616285E+03</rscale>
<asrwt>0</asrwt>
<pdfrwt beam="1">  1        2 0.51478720E-02 0.35616285E+03</pdfrwt>
<pdfrwt beam="2">  1       -2 0.12572262E+00 0.35616285E+03</pdfrwt>
<totfact> 0.75377759E+02</totfact>
</mgrwt>
</event>
<event>
 4    1  0.1361667E-004  0.7255397E+03  0.7818608E-02  0.9674526E-01
         -2   -1    0    0    0  501 -0.00000000000E+00  0.00000000000E+00  0.26345521367E+03  0.26345521368E+03  0.25500000000E-02 0.  1.
          2   -1    0    0  501    0  0.00000000000E+00 -0.00000000000E+00 -0.49952312766E+03  0.49952312767E+03  0.25500000000E-02 0. -1.
    5000001    1    1    2    0    0  0.15604434767E+03  0.88903539420E+02 -0.42139725013E+03  0.47535073385E+03  0.12700000000E+03 0.  0.
   -5000001    1    1    2    0    0 -0.15604434767E+03 -0.88903539420E+02  0.18532933614E+03  0.28762760750E+03  0.12700000000E+03 0.  0.
<mgrwt>
<rscale>  0 0.72553972E+03</rscale>
<asrwt>0</asrwt>
<pdfrwt beam="1">  1        2 0.71360446E-01 0.72553972E+03</pdfrwt>
<pdfrwt beam="2">  1       -2 0.37636459E-01 0.72553972E+03</pdfrwt>
<totfact> 0.45027985E+02</totfact>
</mgrwt>
</event>
<event>
 4    1  0.1361667E-004  0.7502192E+03  0.7818608E-02  0.9635006E-01
         -2   -1    0    0    0  501 -0.00000000000E+00  0.00000000000E+00  0.54179637619E+02  0.54179637679E+02  0.25500000000E-02 0. -1.
          2   -1    0    0  501    0  0.00000000000E+00 -0.00000000000E+00 -0.25970499130E+04  0.25970499130E+04  0.25500000000E-02 0.  1.
    5000001    1    1    2    0    0  0.26859329980E+03 -0.22800490351E+03 -0.13463702049E+04  0.13974871468E+04  0.12700000000E+03 0.  0.
   -5000001    1    1    2    0    0 -0.26859329980E+03  0.22800490351E+03 -0.11965000705E+04  0.12537424039E+04  0.12700000000E+03 0.  0.
<mgrwt>
<rscale>  0 0.75021923E+03</rscale>
<asrwt>0</asrwt>
<pdfrwt beam="1">  1        2 0.37100705E+00 0.75021923E+03</pdfrwt>
<pdfrwt beam="2">  1       -2 0.77399499E-02 0.75021923E+03</pdfrwt>
<totfact> 0.42047116E+02</totfact>
</mgrwt>
</event>
<event>
 4    1  0.1361667E-004  0.6031512E+03  0.7818608E-02  0.9898890E-01
         -2   -1    0    0    0  501 -0.00000000000E+00  0.00000000000E+00  0.96148710496E+02  0.96148710530E+02  0.25500000000E-02 0. -1.
          2   -1    0    0  501    0  0.00000000000E+00 -0.00000000000E+00 -0.94590794415E+03  0.94590794415E+03  0.25500000000E-02 0.  1.
    5000001    1    1    2    0    0 -0.10363449661E+03  0.25101684814E+03 -0.36838497416E+03  0.47495900468E+03  0.12700000000E+03 0.  0.
   -5000001    1    1    2    0    0  0.10363449661E+03 -0.25101684814E+03 -0.48137425949E+03  0.56709765000E+03  0.12700000000E+03 0.  0.
<mgrwt>
<rscale>  0 0.60315116E+03</rscale>
<asrwt>0</asrwt>
<pdfrwt beam="1">  1        2 0.13512970E+00 0.60315116E+03</pdfrwt>
<pdfrwt beam="2">  1       -2 0.13735531E-01 0.60315116E+03</pdfrwt>
<totfact> 0.12391240E+03</totfact>
</mgrwt>
</event>
<event>
 4    1  0.1361667E-004  0.2887647E+03  0.7818608E-02  0.1090996E+00
         -2   -1    0    0    0  501 -0.00000000000E+00  0.00000000000E+00  0.27865267753E+02  0.27865267869E+02  0.25500000000E-02 0. -1.
          2   -1    0    0  501    0  0.00000000000E+00 -0.00000000000E+00 -0.74810938824E+03  0.74810938824E+03  0.25500000000E-02 0.  1.
    5000001    1    1    2    0    0 -0.53263275981E+02  0.41230522679E+02 -0.32403558520E+03  0.35449258532E+03  0.12700000000E+03 0.  0.
   -5000001    1    1    2    0    0  0.53263275981E+02 -0.41230522679E+02 -0.39620853528E+03  0.42148207079E+03  0.12700000000E+03 0.  0.
<mgrwt>
<rscale>  0 0.28876474E+03</rscale>
<asrwt>0</asrwt>
<pdfrwt beam="1">  1        2 0.10687276E+00 0.28876474E+03</pdfrwt>
<pdfrwt beam="2">  1       -2 0.39807530E-02 0.28876474E+03</pdfrwt>
<totfact> 0.11701871E+04</totfact>
</mgrwt>
</event>
<event>
 4    1  0.1361667E-004  0.2883980E+03  0.7818608E-02  0.1091189E+00
         -2   -1    0    0    0  501 -0.00000000000E+00  0.00000000000E+00  0.13034124001E+03  0.13034124003E+03  0.25500000000E-02 0. -1.
          2   -1    0    0  501    0  0.00000000000E+00 -0.00000000000E+00 -0.15953008541E+03  0.15953008543E+03  0.25500000000E-02 0.  1.
    5000001    1    1    2    0    0  0.51569409159E+02  0.42139655448E+02  0.62209448275E+00  0.14340342229E+03  0.12700000000E+03 0.  0.
   -5000001    1    1    2    0    0 -0.51569409159E+02 -0.42139655448E+02 -0.29810939881E+02  0.14646790317E+03  0.12700000000E+03 0.  0.
<mgrwt>
<rscale>  0 0.28839798E+03</rscale>
<asrwt>0</asrwt>
<pdfrwt beam="1">  1        2 0.22790012E-01 0.28839798E+03</pdfrwt>
<pdfrwt beam="2">  1       -2 0.18620177E-01 0.28839798E+03</pdfrwt>
<totfact> 0.56510803E+03</totfact>
</mgrwt>
</event>
<event>
 4    1  0.1361667E-004  0.3390865E+03  0.7818608E-02  0.1067186E+00
         -2   -1    0    0    0  501 -0.00000000000E+00  0.00000000000E+00  0.15595590861E+02  0.15595591070E+02  0.25500000000E-02 0.  1.
          2   -1    0    0  501    0  0.00000000000E+00 -0.00000000000E+00 -0.18431430598E+04  0.18431430598E+04  0.25500000000E-02 0. -1.
    5000001    1    1    2    0    0  0.77584694866E+02  0.51073266689E+01 -0.46944441185E+03  0.49249621875E+03  0.12700000000E+03 0.  0.
   -5000001    1    1    2    0    0 -0.77584694866E+02 -0.51073266689E+01 -0.13581030571E+04  0.13662424321E+04  0.12700000000E+03 0.  0.
<mgrwt>
<rscale>  0 0.33908645E+03</rscale>
<asrwt>0</asrwt>
<pdfrwt beam="1">  1        2 0.26330601E+00 0.33908645E+03</pdfrwt>
<pdfrwt beam="2">  1       -2 0.22279427E-02 0.33908645E+03</pdfrwt>
<totfact> 0.69621468E+03</totfact>
</mgrwt>
</event>
<event>
 4    1  0.1361667E-004  0.1343785E+04  0.7818608E-02  0.8995546E-01
          2   -1    0    0  501    0  0.00000000000E+00  0.00000000000E+00  0.16189059656E+04  0.16189059656E+04  0.25500000000E-02 0.  1.
         -2   -1    0    0    0  501 -0.00000000000E+00 -0.00000000000E+00 -0.27885462097E+03  0.27885462099E+03  0.25500000000E-02 0. -1.
    5000001    1    1    2    0    0  0.59629842551E+03 -0.27633194051E+03  0.75212171593E+03  0.10068501523E+04  0.12700000000E+03 0.  0.
   -5000001    1    1    2    0    0 -0.59629842551E+03  0.27633194051E+03  0.58792962867E+03  0.89091043426E+03  0.12700000000E+03 0.  0.
<mgrwt>
<rscale>  0 0.13437848E+04</rscale>
<asrwt>0</asrwt>
<pdfrwt beam="1">  1        2 0.23127228E+00 0.13437848E+04</pdfrwt>
<pdfrwt beam="2">  1       -2 0.39836375E-01 0.13437848E+04</pdfrwt>
<totfact> 0.73701055E+01</totfact>
</mgrwt>
</event>
<event>
 4    1  0.1361667E-004  0.3621364E+03  0.7818608E-02  0.1057741E+00
         -2   -1    0    0    0  501 -0.00000000000E+00  0.00000000000E+00  0.31593487785E+02  0.31593487887E+02  0.25500000000E-02 0. -1.
          2   -1    0    0  501    0  0.00000000000E+00 -0.00000000000E+00 -0.10377360754E+04  0.10377360754E+04  0.25500000000E-02 0.  1.
    5000001    1    1    2    0    0 -0.41289708021E+02 -0.12175160765E+03 -0.46961055062E+03  0.50318124290E+03  0.12700000000E+03 0.  0.
   -5000001    1    1    2    0    0  0.41289708021E+02  0.12175160765E+03 -0.53653203696E+03  0.56614832035E+03  0.12700000000E+03 0.  0.
<mgrwt>
<rscale>  0 0.36213645E+03</rscale>
<asrwt>0</asrwt>
<pdfrwt beam="1">  1        2 0.14824799E+00 0.36213645E+03</pdfrwt>
<pdfrwt beam="2">  1       -2 0.45133560E-02 0.36213645E+03</pdfrwt>
<totfact> 0.63666495E+03</totfact>
</mgrwt>
</event>
<event>
 4    1  0.1361667E-004  0.4415060E+03  0.7818608E-02  0.1030286E+00
          2   -1    0    0  501    0  0.00000000000E+00  0.00000000000E+00  0.89508770136E+03  0.89508770136E+03  0.25500000000E-02 0. -1.
         -2   -1    0    0    0  501 -0.00000000000E+00 -0.00000000000E+00 -0.54443710782E+02  0.54443710842E+02  0.25500000000E-02 0.  1.
    5000001    1    1    2    0    0 -0.59262378752E+02 -0.15038767885E+03  0.24727149108E+03  0.32155975150E+03  0.12700000000E+03 0.  0.
   -5000001    1    1    2    0    0  0.59262378752E+02  0.15038767885E+03  0.59337249950E+03  0.62797166070E+03  0.12700000000E+03 0.  0.
<mgrwt>
<rscale>  0 0.44150604E+03</rscale>
<asrwt>0</asrwt>
<pdfrwt beam="1">  1        2 0.12786965E+00 0.44150604E+03</pdfrwt>
<pdfrwt beam="2">  1       -2 0.77776740E-02 0.44150604E+03</pdfrwt>
<totfact> 0.33568325E+03</totfact>
</mgrwt>
</event>
<event>
 4    1  0.1361667E-004  0.2612647E+03  0.7818608E-02  0.1106386E+00
          2   -1    0    0  501    0  0.00000000000E+00  0.00000000000E+00  0.20832625531E+02  0.20832625687E+02  0.25500000000E-02 0.  1.
         -2   -1    0    0    0  501 -0.00000000000E+00 -0.00000000000E+00 -0.81913875008E+03  0.81913875008E+03  0.25500000000E-02 0. -1.
    5000001    1    1    2    0    0 -0.28817257908E+02 -0.41805660008E+01 -0.42929538783E+03  0.44863285825E+03  0.12700000000E+03 0.  0.
   -5000001    1    1    2    0    0  0.28817257908E+02  0.41805660008E+01 -0.36901073672E+03  0.39133851752E+03  0.12700000000E+03 0.  0.
<mgrwt>
<rscale>  0 0.26126470E+03</rscale>
<asrwt>0</asrwt>
<pdfrwt beam="1">  1        2 0.29760899E-02 0.26126470E+03</pdfrwt>
<pdfrwt beam="2">  1       -2 0.11701980E+00 0.26126470E+03</pdfrwt>
<totfact> 0.18652531E+03</totfact>
</mgrwt>
</event>
<event>
 4    1  0.1361667E-004  0.3537325E+03  0.7818608E-02  0.1061093E+00
         -2   -1    0    0    0  501 -0.00000000000E+00  0.00000000000E+00  0.10773534244E+02  0.10773534546E+02  0.25500000000E-02 0. -1.
          2   -1    0    0  501    0  0.00000000000E+00 -0.00000000000E+00 -0.29035668449E+04  0.29035668449E+04  0.25500000000E-02 0.  1.
    5000001    1    1    2    0    0 -0.11083647940E+03  0.33515011937E+02 -0.17905287324E+04  0.17987579389E+04  0.12700000000E+03 0.  0.
   -5000001    1    1    2    0    0  0.11083647940E+03 -0.33515011937E+02 -0.11022645782E+04  0.11155824405E+04  0.12700000000E+03 0.  0.
<mgrwt>
<rscale>  0 0.35373254E+03</rscale>
<asrwt>0</asrwt>
<pdfrwt beam="1">  1        2 0.41479476E+00 0.35373254E+03</pdfrwt>
<pdfrwt beam="2">  1       -2 0.15390782E-02 0.35373254E+03</pdfrwt>
<totfact> 0.35280276E+03</totfact>
</mgrwt>
</event>
<event>
 4    1  0.1361667E-004  0.6771012E+03  0.7818608E-02  0.9757214E-01
         -2   -1    0    0    0  501 -0.00000000000E+00  0.00000000000E+00  0.27549837689E+03  0.27549837690E+03  0.25500000000E-02 0. -1.
          2   -1    0    0  501    0  0.00000000000E+00 -0.00000000000E+00 -0.41603338783E+03  0.41603338784E+03  0.25500000000E-02 0.  1.
    5000001    1    1    2    0    0  0.18890378815E+03  0.16182893570E+03 -0.26569414193E+03  0.38548102764E+03  0.12700000000E+03 0.  0.
   -5000001    1    1    2    0    0 -0.18890378815E+03 -0.16182893570E+03  0.12515913099E+03  0.30605073710E+03  0.12700000000E+03 0.  0.
<mgrwt>
<rscale>  0 0.67710124E+03</rscale>
<asrwt>0</asrwt>
<pdfrwt beam="1">  1        2 0.59433341E-01 0.67710124E+03</pdfrwt>
<pdfrwt beam="2">  1       -2 0.39356911E-01 0.67710124E+03</pdfrwt>
<totfact> 0.50844762E+02</totfact>
</mgrwt>
</event>
<event>
 4    1  0.1361667E-004  0.2929390E+03  0.7818608E-02  0.1088825E+00
          2   -1    0    0  501    0  0.00000000000E+00  0.00000000000E+00  0.43337707215E+03  0.43337707216E+03  0.25500000000E-02 0.  1.
         -2   -1    0    0    0  501 -0.00000000000E+00 -0.00000000000E+00 -0.49502641419E+02  0.49502641484E+02  0.25500000000E-02 0. -1.
    5000001    1    1    2    0    0  0.67218579961E+02 -0.20568290820E+02  0.15968091489E+03  0.21579709604E+03  0.12700000000E+03 0.  0.
   -5000001    1    1    2    0    0 -0.67218579961E+02  0.20568290820E+02  0.22419351584E+03  0.26708261760E+03  0.12700000000E+03 0.  0.
<mgrwt>
<rscale>  0 0.29293897E+03</rscale>
<asrwt>0</asrwt>
<pdfrwt beam="1">  1        2 0.61911011E-01 0.29293897E+03</pdfrwt>
<pdfrwt beam="2">  1       -2 0.70718058E-02 0.29293897E+03</pdfrwt>
<totfact> 0.90646861E+03</totfact>
</mgrwt>
</event>
<event>
 4    1  0.1361667E-004  0.5054160E+03  0.7818608E-02  0.1012375E+00
          2   -1    0    0  501    0  0.00000000000E+00  0.00000000000E+00  0.36828168080E+03  0.36828168080E+03  0.25500000000E-02 0.  1.
         -2   -1    0    0    0  501 -0.00000000000E+00 -0.00000000000E+00 -0.17340352766E+03  0.17340352768E+03  0.25500000000E-02 0. -1.
    5000001    1    1    2    0    0  0.16341159616E+03 -0.44330184976E+02 -0.50540918726E+02  0.21760491613E+03  0.12700000000E+03 0.  0.
   -5000001    1    1    2    0    0 -0.16341159616E+03  0.44330184976E+02  0.24541907186E+03  0.32408029235E+03  0.12700000000E+03 0.  0.
<mgrwt>
<rscale>  0 0.50541604E+03</rscale>
<asrwt>0</asrwt>
<pdfrwt beam="1">  1        2 0.52611669E-01 0.50541604E+03</pdfrwt>
<pdfrwt beam="2">  1       -2 0.24771932E-01 0.50541604E+03</pdfrwt>
<totfact> 0.13796203E+03</totfact>
</mgrwt>
</event>
<event>
 4    1  0.1361667E-004  0.5961803E+03  0.7818608E-02  0.9913363E-01
         -2   -1    0    0    0  501 -0.00000000000E+00  0.00000000000E+00  0.24045858274E+03  0.24045858275E+03  0.25500000000E-02 0. -1.
          2   -1    0    0  501    0  0.00000000000E+00 -0.00000000000E+00 -0.36953446413E+03  0.36953446414E+03  0.25500000000E-02 0.  1.
    5000001    1    1    2    0    0 -0.59562568936E+02  0.21654261421E+03  0.88220607987E+02  0.27267247580E+03  0.12700000000E+03 0.  0.
   -5000001    1    1    2    0    0  0.59562568936E+02 -0.21654261421E+03 -0.21729648938E+03  0.33732057110E+03  0.12700000000E+03 0.  0.
<mgrwt>
<rscale>  0 0.59618029E+03</rscale>
<asrwt>0</asrwt>
<pdfrwt beam="1">  1        2 0.52790638E-01 0.59618029E+03</pdfrwt>
<pdfrwt beam="2">  1       -2 0.34351226E-01 0.59618029E+03</pdfrwt>
<totfact> 0.75376782E+02</totfact>
</mgrwt>
</event>
<event>
 4    1  0.1361667E-004  0.3254552E+03  0.7818608E-02  0.1073166E+00
          2   -1    0    0  501    0  0.00000000000E+00  0.00000000000E+00  0.12477687272E+04  0.12477687272E+04  0.25500000000E-02 0.  1.
         -2   -1    0    0    0  501 -0.00000000000E+00 -0.00000000000E+00 -0.21222099180E+02  0.21222099333E+02  0.25500000000E-02 0. -1.
    5000001    1    1    2    0    0  0.95785647981E+02 -0.29333220035E+02  0.54396711754E+03  0.56750731548E+03  0.12700000000E+03 0.  0.
   -5000001    1    1    2    0    0 -0.95785647981E+02  0.29333220035E+02  0.68257951045E+03  0.70148351103E+03  0.12700000000E+03 0.  0.
<mgrwt>
<rscale>  0 0.32545520E+03</rscale>
<asrwt>0</asrwt>
<pdfrwt beam="1">  1        2 0.17825274E+00 0.32545520E+03</pdfrwt>
<pdfrwt beam="2">  1       -2 0.30317274E-02 0.32545520E+03</pdfrwt>
<totfact> 0.88342319E+03</totfact>
</mgrwt>
</event>
<event>
 4    1  0.1361667E-004  0.6121269E+03  0.7818608E-02  0.9880561E-01
         -2   -1    0    0    0  501 -0.00000000000E+00  0.00000000000E+00  0.88970464521E+02  0.88970464558E+02  0.25500000000E-02 0. -1.
          2   -1    0    0  501    0  0.00000000000E+00 -0.00000000000E+00 -0.10528757264E+04  0.10528757264E+04  0.25500000000E-02 0.  1.
    5000001    1    1    2    0    0 -0.47760966599E+02 -0.27001218697E+03 -0.57253673058E+03  0.64739091661E+03  0.12700000000E+03 0.  0.
   -5000001    1    1    2    0    0  0.47760966599E+02  0.27001218697E+03 -0.39136853131E+03  0.49445527436E+03  0.12700000000E+03 0.  0.
<mgrwt>
<rscale>  0 0.61212692E+03</rscale>
<asrwt>0</asrwt>
<pdfrwt beam="1">  1        2 0.15041081E+00 0.61212692E+03</pdfrwt>
<pdfrwt beam="2">  1       -2 0.12710067E-01 0.61212692E+03</pdfrwt>
<totfact> 0.12127140E+03</totfact>
</mgrwt>
</event>
<event>
 4    1  0.1361667E-004  0.6814387E+03  0.7818608E-02  0.9749512E-01
          2   -1    0    0  501    0  0.00000000000E+00  0.00000000000E+00  0.11415160371E+03  0.11415160374E+03  0.25500000000E-02 0.  1.
         -2   -1    0    0    0  501 -0.00000000000E+00 -0.00000000000E+00 -0.10169781184E+04  0.10169781184E+04  0.25500000000E-02 0. -1.
    5000001    1    1    2    0    0  0.12059986040E+03 -0.24154433612E+03 -0.17829463375E+03  0.34757153086E+03  0.12700000000E+03 0.  0.
   -5000001    1    1    2    0    0 -0.12059986040E+03  0.24154433612E+03 -0.72453188093E+03  0.78355819128E+03  0.12700000000E+03 0.  0.
<mgrwt>
<rscale>  0 0.68143872E+03</rscale>
<asrwt>0</asrwt>
<pdfrwt beam="1">  1        2 0.16307373E-01 0.68143872E+03</pdfrwt>
<pdfrwt beam="2">  1       -2 0.14528258E+00 0.68143872E+03</pdfrwt>
<totfact> 0.11973324E+02</totfact>
</mgrwt>
</event>
<event>
 4    1  0.1361667E-004  0.6050075E+03  0.7818608E-02  0.9895071E-01
          2   -1    0    0  501    0  0.00000000000E+00  0.00000000000E+00  0.98857529472E+03  0.98857529472E+03  0.25500000000E-02 0.  1.
         -2   -1    0    0    0  501 -0.00000000000E+00 -0.00000000000E+00 -0.92566067144E+02  0.92566067179E+02  0.25500000000E-02 0. -1.
    5000001    1    1    2    0    0  0.22265576493E+03  0.40432349128E+02  0.72581757672E+03  0.77081159772E+03  0.12700000000E+03 0.  0.
   -5000001    1    1    2    0    0 -0.22265576493E+03 -0.40432349128E+02  0.17019165086E+03  0.31032976418E+03  0.12700000000E+03 0.  0.
<mgrwt>
<rscale>  0 0.60500753E+03</rscale>
<asrwt>0</asrwt>
<pdfrwt beam="1">  1        2 0.14122504E+00 0.60500753E+03</pdfrwt>
<pdfrwt beam="2">  1       -2 0.13223725E-01 0.60500753E+03</pdfrwt>
<totfact> 0.12419134E+03</totfact>
</mgrwt>
</event>
<event>
 4    1  0.1361667E-004  0.3365152E+03  0.7818608E-02  0.1068290E+00
         -2   -1    0    0    0  501 -0.00000000000E+00  0.00000000000E+00  0.20824161203E+03  0.20824161204E+03  0.25500000000E-02 0. -1.
          2   -1    0    0  501    0  0.00000000000E+00 -0.00000000000E+00 -0.13595079369E+03  0.13595079371E+03  0.25500000000E-02 0.  1.
    5000001    1    1    2    0    0  0.61031283527E+02 -0.45418631795E+02  0.11793179705E+03  0.18927381868E+03  0.12700000000E+03 0.  0.
   -5000001    1    1    2    0    0 -0.61031283527E+02  0.45418631795E+02 -0.45640978711E+02  0.15491858707E+03  0.12700000000E+03 0.  0.
<mgrwt>
<rscale>  0 0.33651516E+03</rscale>
<asrwt>0</asrwt>
<pdfrwt beam="1">  1        2 0.19421542E-01 0.33651516E+03</pdfrwt>
<pdfrwt beam="2">  1       -2 0.29748801E-01 0.33651516E+03</pdfrwt>
<totfact> 0.29935733E+03</totfact>
</mgrwt>
</event>
<event>
 4    1  0.1361667E-004  0.3495355E+03  0.7818608E-02  0.1062806E+00
         -2   -1    0    0    0  501 -0.00000000000E+00  0.00000000000E+00  0.88831145500E+03  0.88831145500E+03  0.25500000000E-02 0. -1.
          2   -1    0    0  501    0  0.00000000000E+00 -0.00000000000E+00 -0.34384081197E+02  0.34384081291E+02  0.25500000000E-02 0.  1.
    5000001    1    1    2    0    0  0.35972387459E+02  0.11443255459E+03  0.44041127531E+03  0.47379311268E+03  0.12700000000E+03 0.  0.
   -5000001    1    1    2    0    0 -0.35972387459E+02 -0.11443255459E+03  0.41351609849E+03  0.44890242361E+03  0.12700000000E+03 0.  0.
<mgrwt>
<rscale>  0 0.34953554E+03</rscale>
<asrwt>0</asrwt>
<pdfrwt beam="1">  1        2 0.49120124E-02 0.34953554E+03</pdfrwt>
<pdfrwt beam="2">  1       -2 0.12690162E+00 0.34953554E+03</pdfrwt>
<totfact> 0.78387190E+02</totfact>
</mgrwt>
</event>
<event>
 4    1  0.1361667E-004  0.3103708E+03  0.7818608E-02  0.1080168E+00
          2   -1    0    0  501    0  0.00000000000E+00  0.00000000000E+00  0.47342048280E+02  0.47342048349E+02  0.25500000000E-02 0.  1.
         -2   -1    0    0    0  501 -0.00000000000E+00 -0.00000000000E+00 -0.50869156995E+03  0.50869156995E+03  0.25500000000E-02 0. -1.
    5000001    1    1    2    0    0 -0.82722970107E+02 -0.26921646732E+02 -0.19549368883E+03  0.24882654042E+03  0.12700000000E+03 0.  0.
   -5000001    1    1    2    0    0  0.82722970107E+02  0.26921646732E+02 -0.26585583284E+03  0.30720707788E+03  0.12700000000E+03 0.  0.
<mgrwt>
<rscale>  0 0.31037075E+03</rscale>
<asrwt>0</asrwt>
<pdfrwt beam="1">  1        2 0.67631501E-02 0.31037075E+03</pdfrwt>
<pdfrwt beam="2">  1       -2 0.72670221E-01 0.31037075E+03</pdfrwt>
<totfact> 0.18632443E+03</totfact>
</mgrwt>
</event>
<event>
 4    1  0.1361667E-004  0.3158667E+03  0.7818608E-02  0.1077567E+00
          2   -1    0    0  501    0  0.00000000000E+00  0.00000000000E+00  0.80089920108E+03  0.80089920108E+03  0.25500000000E-02 0.  1.
         -2   -1    0    0    0  501 -0.00000000000E+00 -0.00000000000E+00 -0.31143670398E+02  0.31143670503E+02  0.25500000000E-02 0. -1.
    5000001    1    1    2    0    0 -0.84811057075E+02 -0.18187998984E+02  0.47949584183E+03  0.50355633354E+03  0.12700000000E+03 0.  0.
   -5000001    1    1    2    0    0  0.84811057075E+02  0.18187998984E+02  0.29025968884E+03  0.32848653804E+03  0.12700000000E+03 0.  0.
<mgrwt>
<rscale>  0 0.31586669E+03</rscale>
<asrwt>0</asrwt>
<pdfrwt beam="1">  1        2 0.11441417E+00 0.31586669E+03</pdfrwt>
<pdfrwt beam="2">  1       -2 0.44490958E-02 0.31586669E+03</pdfrwt>
<totfact> 0.91233773E+03</totfact>
</mgrwt>
</event>
<event>
 4    1  0.1361667E-004  0.3629084E+03  0.7818608E-02  0.1057438E+00
         -2   -1    0    0    0  501 -0.00000000000E+00  0.00000000000E+00  0.10905750983E+04  0.10905750983E+04  0.25500000000E-02 0. -1.
          2   -1    0    0  501    0  0.00000000000E+00 -0.00000000000E+00 -0.30191061885E+02  0.30191061993E+02  0.25500000000E-02 0.  1.
    5000001    1    1    2    0    0  0.10356922539E+03 -0.38610352934E+02  0.32120636806E+03  0.36265668983E+03  0.12700000000E+03 0.  0.
   -5000001    1    1    2    0    0 -0.10356922539E+03  0.38610352934E+02  0.73917766835E+03  0.75810947045E+03  0.12700000000E+03 0.  0.
<mgrwt>
<rscale>  0 0.36290836E+03</rscale>
<asrwt>0</asrwt>
<pdfrwt beam="1">  1        2 0.43130084E-02 0.36290836E+03</pdfrwt>
<pdfrwt beam="2">  1       -2 0.15579646E+00 0.36290836E+03</pdfrwt>
<totfact> 0.55314692E+02</totfact>
</mgrwt>
</event>
<event>
 4    1  0.1361667E-004  0.3997121E+03  0.7818608E-02  0.1043879E+00
          2   -1    0    0  501    0  0.00000000000E+00  0.00000000000E+00  0.20632323468E+03  0.20632323469E+03  0.25500000000E-02 0.  1.
         -2   -1    0    0    0  501 -0.00000000000E+00 -0.00000000000E+00 -0.19359157721E+03  0.19359157722E+03  0.25500000000E-02 0. -1.
    5000001    1    1    2    0    0  0.12674045853E+03 -0.84798058830E+02  0.30033391826E+02  0.20071088469E+03  0.12700000000E+03 0.  0.
   -5000001    1    1    2    0    0 -0.12674045853E+03  0.84798058830E+02 -0.17301734355E+02  0.19920392722E+03  0.12700000000E+03 0.  0.
<mgrwt>
<rscale>  0 0.39971210E+03</rscale>
<asrwt>0</asrwt>
<pdfrwt beam="1">  1        2 0.29474748E-01 0.39971210E+03</pdfrwt>
<pdfrwt beam="2">  1       -2 0.27655940E-01 0.39971210E+03</pdfrwt>
<totfact> 0.21370276E+03</totfact>
</mgrwt>
</event>
<event>
 4    1  0.1361667E-004  0.4972824E+03  0.7818608E-02  0.1014491E+00
         -2   -1    0    0    0  501 -0.00000000000E+00  0.00000000000E+00  0.35788066011E+03  0.35788066012E+03  0.25500000000E-02 0. -1.
          2   -1    0    0  501    0  0.00000000000E+00 -0.00000000000E+00 -0.17274596506E+03  0.17274596508E+03  0.25500000000E-02 0.  1.
    5000001    1    1    2    0    0 -0.19463476629E+03  0.83955368113E+02  0.63107332861E+02  0.25503476537E+03  0.12700000000E+03 0.  0.
   -5000001    1    1    2    0    0  0.19463476629E+03 -0.83955368113E+02  0.12202736219E+03  0.27559185983E+03  0.12700000000E+03 0.  0.
<mgrwt>
<rscale>  0 0.49728237E+03</rscale>
<asrwt>0</asrwt>
<pdfrwt beam="1">  1        2 0.24677995E-01 0.49728237E+03</pdfrwt>
<pdfrwt beam="2">  1       -2 0.51125808E-01 0.49728237E+03</pdfrwt>
<totfact> 0.80766417E+02</totfact>
</mgrwt>
</event>
<event>
 4    1  0.1361667E-004  0.2659386E+03  0.7818608E-02  0.1103627E+00
          2   -1    0    0  501    0  0.00000000000E+00  0.00000000000E+00  0.13107205373E+03  0.13107205375E+03  0.25500000000E-02 0.  1.
         -2   -1    0    0    0  501 -0.00000000000E+00 -0.00000000000E+00 -0.13489401301E+03  0.13489401303E+03  0.25500000000E-02 0. -1.
    5000001    1    1    2    0    0 -0.37484748714E+02 -0.75558853235E+01  0.75577082969E+01  0.13284696739E+03  0.12700000000E+03 0.  0.
   -5000001    1    1    2    0    0  0.37484748714E+02  0.75558853235E+01 -0.11379667576E+02  0.13311909939E+03  0.12700000000E+03 0.  0.
<mgrwt>
<rscale>  0 0.26593860E+03</rscale>
<asrwt>0</asrwt>
<pdfrwt beam="1">  1        2 0.18724579E-01 0.26593860E+03</pdfrwt>
<pdfrwt beam="2">  1       -2 0.19270573E-01 0.26593860E+03</pdfrwt>
<totfact> 0.66501516E+03</totfact>
</mgrwt>
</event>
<event>
 4    1  0.1361667E-004  0.4982638E+03  0.7818608E-02  0.1014233E+00
         -2   -1    0    0    0  501 -0.00000000000E+00  0.00000000000E+00  0.40093635189E+02  0.40093635270E+02  0.25500000000E-02 0. -1.
          2   -1    0    0  501    0  0.00000000000E+00 -0.00000000000E+00 -0.15480438826E+04  0.15480438826E+04  0.25500000000E-02 0.  1.
    5000001    1    1    2    0    0  0.79472043214E+02 -0.11789437527E+03 -0.12651718053E+04  0.12794544096E+04  0.12700000000E+03 0.  0.
   -5000001    1    1    2    0    0 -0.79472043214E+02  0.11789437527E+03 -0.24277844217E+03  0.30868310831E+03  0.12700000000E+03 0.  0.
<mgrwt>
<rscale>  0 0.49826381E+03</rscale>
<asrwt>0</asrwt>
<pdfrwt beam="1">  1        2 0.22114909E+00 0.49826381E+03</pdfrwt>
<pdfrwt beam="2">  1       -2 0.57276631E-02 0.49826381E+03</pdfrwt>
<totfact> 0.23369482E+03</totfact>
</mgrwt>
</event>
<event>
 4    1  0.1361667E-004  0.4718082E+03  0.7818608E-02  0.1021411E+00
          2   -1    0    0  501    0  0.00000000000E+00  0.00000000000E+00  0.27731872774E+03  0.27731872775E+03  0.25500000000E-02 0.  1.
         -2   -1    0    0    0  501 -0.00000000000E+00 -0.00000000000E+00 -0.20067427197E+03  0.20067427199E+03  0.25500000000E-02 0. -1.
    5000001    1    1    2    0    0 -0.16942417508E+03  0.10249568457E+03  0.56212058381E+02  0.24186506975E+03  0.12700000000E+03 0.  0.
   -5000001    1    1    2    0    0  0.16942417508E+03 -0.10249568457E+03  0.20432397385E+02  0.23612792999E+03  0.12700000000E+03 0.  0.
<mgrwt>
<rscale>  0 0.47180816E+03</rscale>
<asrwt>0</asrwt>
<pdfrwt beam="1">  1        2 0.39616961E-01 0.47180816E+03</pdfrwt>
<pdfrwt beam="2">  1       -2 0.28667753E-01 0.47180816E+03</pdfrwt>
<totfact> 0.14465919E+03</totfact>
</mgrwt>
</event>
<event>
 4    1  0.1361667E-004  0.3278596E+03  0.7818608E-02  0.1072088E+00
          2   -1    0    0  501    0  0.00000000000E+00  0.00000000000E+00  0.17134895483E+03  0.17134895485E+03  0.25500000000E-02 0.  1.
         -2   -1    0    0    0  501 -0.00000000000E+00 -0.00000000000E+00 -0.15683189369E+03  0.15683189371E+03  0.25500000000E-02 0. -1.
    5000001    1    1    2    0    0 -0.41630005082E+02 -0.82873353899E+02 -0.39078628639E+02  0.16204070268E+03  0.12700000000E+03 0.  0.
   -5000001    1    1    2    0    0  0.41630005082E+02  0.82873353899E+02  0.53595689783E+02  0.16614014588E+03  0.12700000000E+03 0.  0.
<mgrwt>
<rscale>  0 0.32785961E+03</rscale>
<asrwt>0</asrwt>
<pdfrwt beam="1">  1        2 0.24478422E-01 0.32785961E+03</pdfrwt>
<pdfrwt beam="2">  1       -2 0.22404556E-01 0.32785961E+03</pdfrwt>
<totfact> 0.38073960E+03</totfact>
</mgrwt>
</event>
<event>
 4    1  0.1361667E-004  0.3497542E+03  0.7818608E-02  0.1062716E+00
         -2   -1    0    0    0  501 -0.00000000000E+00  0.00000000000E+00  0.70710441780E+03  0.70710441780E+03  0.25500000000E-02 0. -1.
          2   -1    0    0  501    0  0.00000000000E+00 -0.00000000000E+00 -0.43249613298E+02  0.43249613373E+02  0.25500000000E-02 0.  1.
    5000001    1    1    2    0    0 -0.49699740705E+02  0.10925649751E+03  0.34646953378E+03  0.38804276093E+03  0.12700000000E+03 0.  0.
   -5000001    1    1    2    0    0  0.49699740705E+02 -0.10925649751E+03  0.31738527073E+03  0.36231127025E+03  0.12700000000E+03 0.  0.
<mgrwt>
<rscale>  0 0.34975416E+03</rscale>
<asrwt>0</asrwt>
<pdfrwt beam="1">  1        2 0.61785164E-02 0.34975416E+03</pdfrwt>
<pdfrwt beam="2">  1       -2 0.10101491E+00 0.34975416E+03</pdfrwt>
<totfact> 0.10019502E+03</totfact>
</mgrwt>
</event>
<event>
 4    1  0.1361667E-004  0.3721790E+03  0.7818608E-02  0.1053863E+00
         -2   -1    0    0    0  501 -0.00000000000E+00  0.00000000000E+00  0.27372466316E+02  0.27372466435E+02  0.25500000000E-02 0. -1.
          2   -1    0    0  501    0  0.00000000000E+00 -0.00000000000E+00 -0.12651144885E+04  0.12651144885E+04  0.25500000000E-02 0.  1.
    5000001    1    1    2    0    0  0.89744184560E+02  0.13902049950E+02 -0.26722948550E+03  0.30949617700E+03  0.12700000000E+03 0.  0.
   -5000001    1    1    2    0    0 -0.89744184560E+02 -0.13902049950E+02 -0.97051253669E+03  0.98299077794E+03  0.12700000000E+03 0.  0.
<mgrwt>
<rscale>  0 0.37217901E+03</rscale>
<asrwt>0</asrwt>
<pdfrwt beam="1">  1        2 0.18073060E+00 0.37217901E+03</pdfrwt>
<pdfrwt beam="2">  1       -2 0.39103531E-02 0.37217901E+03</pdfrwt>
<totfact> 0.59073104E+03</totfact>
</mgrwt>
</event>
<event>
 4    1  0.1361667E-004  0.4046343E+03  0.7818608E-02  0.1042187E+00
         -2   -1    0    0    0  501 -0.00000000000E+00  0.00000000000E+00  0.11944257253E+03  0.11944257256E+03  0.25500000000E-02 0. -1.
          2   -1    0    0  501    0  0.00000000000E+00 -0.00000000000E+00 -0.34269383883E+03  0.34269383884E+03  0.25500000000E-02 0.  1.
    5000001    1    1    2    0    0  0.92816547254E+02 -0.82813424151E+02 -0.13056161133E+01  0.17777423688E+03  0.12700000000E+03 0.  0.
   -5000001    1    1    2    0    0 -0.92816547254E+02  0.82813424151E+02 -0.22194565019E+03  0.28436217452E+03  0.12700000000E+03 0.  0.
<mgrwt>
<rscale>  0 0.40463432E+03</rscale>
<asrwt>0</asrwt>
<pdfrwt beam="1">  1        2 0.48956262E-01 0.40463432E+03</pdfrwt>
<pdfrwt beam="2">  1       -2 0.17063225E-01 0.40463432E+03</pdfrwt>
<totfact> 0.28475823E+03</totfact>
</mgrwt>
</event>
<event>
 4    1  0.1361667E-004  0.4954397E+03  0.7818608E-02  0.1014976E+00
         -2   -1    0    0    0  501 -0.00000000000E+00  0.00000000000E+00  0.42191485255E+02  0.42191485332E+02  0.25500000000E-02 0. -1.
          2   -1    0    0  501    0  0.00000000000E+00 -0.00000000000E+00 -0.14544431410E+04  0.14544431411E+04  0.25500000000E-02 0.  1.
    5000001    1    1    2    0    0  0.84408393051E+02  0.19395271837E+03 -0.77324536151E+03  0.81165252595E+03  0.12700000000E+03 0.  0.
   -5000001    1    1    2    0    0 -0.84408393051E+02 -0.19395271837E+03 -0.63900629428E+03  0.68498210043E+03  0.12700000000E+03 0.  0.
<mgrwt>
<rscale>  0 0.49543967E+03</rscale>
<asrwt>0</asrwt>
<pdfrwt beam="1">  1        2 0.20777756E+00 0.49543967E+03</pdfrwt>
<pdfrwt beam="2">  1       -2 0.60273559E-02 0.49543967E+03</pdfrwt>
<totfact> 0.24133964E+03</totfact>
</mgrwt>
</event>
<event>
 4    1  0.1361667E-004  0.9115681E+03  0.7818608E-02  0.9411235E-01
         -2   -1    0    0    0  501 -0.00000000000E+00  0.00000000000E+00  0.11166025138E+03  0.11166025141E+03  0.25500000000E-02 0. -1.
          2   -1    0    0  501    0  0.00000000000E+00 -0.00000000000E+00 -0.18604570835E+04  0.18604570835E+04  0.25500000000E-02 0.  1.
    5000001    1    1    2    0    0 -0.19529879015E+03  0.34186688498E+03 -0.46053446993E+03  0.61906024139E+03  0.12700000000E+03 0.  0.
   -5000001    1    1    2    0    0  0.19529879015E+03 -0.34186688498E+03 -0.12882623622E+04  0.13530570935E+04  0.12700000000E+03 0.  0.
<mgrwt>
<rscale>  0 0.91156811E+03</rscale>
<asrwt>0</asrwt>
<pdfrwt beam="1">  1        2 0.26577956E+00 0.91156811E+03</pdfrwt>
<pdfrwt beam="2">  1       -2 0.15951466E-01 0.91156811E+03</pdfrwt>
<totfact> 0.30072929E+02</totfact>
</mgrwt>
</event>
<event>
 4    1  0.1361667E-004  0.3857626E+03  0.7818608E-02  0.1048824E+00
          2   -1    0    0  501    0  0.00000000000E+00  0.00000000000E+00  0.39925507495E+03  0.39925507496E+03  0.25500000000E-02 0.  1.
         -2   -1    0    0    0  501 -0.00000000000E+00 -0.00000000000E+00 -0.93181520746E+02  0.93181520781E+02  0.25500000000E-02 0. -1.
    5000001    1    1    2    0    0 -0.87107807810E+02 -0.11070412002E+03  0.19782493842E+03  0.27405634208E+03  0.12700000000E+03 0.  0.
   -5000001    1    1    2    0    0  0.87107807810E+02  0.11070412002E+03  0.10824861578E+03  0.21838025366E+03  0.12700000000E+03 0.  0.
<mgrwt>
<rscale>  0 0.38576260E+03</rscale>
<asrwt>0</asrwt>
<pdfrwt beam="1">  1        2 0.57036440E-01 0.38576260E+03</pdfrwt>
<pdfrwt beam="2">  1       -2 0.13311646E-01 0.38576260E+03</pdfrwt>
<totfact> 0.36429864E+03</totfact>
</mgrwt>
</event>
<event>
 4    1  0.1361667E-004  0.5622954E+03  0.7818608E-02  0.9986874E-01
         -2   -1    0    0    0  501 -0.00000000000E+00  0.00000000000E+00  0.18859569216E+03  0.18859569218E+03  0.25500000000E-02 0. -1.
          2   -1    0    0  501    0  0.00000000000E+00 -0.00000000000E+00 -0.41911891889E+03  0.41911891889E+03  0.25500000000E-02 0.  1.
    5000001    1    1    2    0    0 -0.72536131859E+02 -0.22577125638E+03 -0.26922763534E+02  0.27034789777E+03  0.12700000000E+03 0.  0.
   -5000001    1    1    2    0    0  0.72536131859E+02  0.22577125638E+03 -0.20360046319E+03  0.33736671330E+03  0.12700000000E+03 0.  0.
<mgrwt>
<rscale>  0 0.56229538E+03</rscale>
<asrwt>0</asrwt>
<pdfrwt beam="1">  1        2 0.59874131E-01 0.56229538E+03</pdfrwt>
<pdfrwt beam="2">  1       -2 0.26942242E-01 0.56229538E+03</pdfrwt>
<totfact> 0.10278317E+03</totfact>
</mgrwt>
</event>
<event>
 4    1  0.1361667E-004  0.2997463E+03  0.7818608E-02  0.1085368E+00
          2   -1    0    0  501    0  0.00000000000E+00  0.00000000000E+00  0.39976349607E+03  0.39976349607E+03  0.25500000000E-02 0.  1.
         -2   -1    0    0    0  501 -0.00000000000E+00 -0.00000000000E+00 -0.56188116715E+02  0.56188116773E+02  0.25500000000E-02 0. -1.
    5000001    1    1    2    0    0 -0.73342170224E+02 -0.79614232312E+01  0.12639542322E+03  0.19377115679E+03  0.12700000000E+03 0.  0.
   -5000001    1    1    2    0    0  0.73342170224E+02  0.79614232312E+01  0.21717995613E+03  0.26218045605E+03  0.12700000000E+03 0.  0.
<mgrwt>
<rscale>  0 0.29974628E+03</rscale>
<asrwt>0</asrwt>
<pdfrwt beam="1">  1        2 0.57109072E-01 0.29974628E+03</pdfrwt>
<pdfrwt beam="2">  1       -2 0.80268736E-02 0.29974628E+03</pdfrwt>
<totfact> 0.81294935E+03</totfact>
</mgrwt>
</event>
<event>
 4    1  0.1361667E-004  0.6333343E+03  0.7818608E-02  0.9838564E-01
          2   -1    0    0  501    0  0.00000000000E+00  0.00000000000E+00  0.10920279333E+04  0.10920279333E+04  0.25500000000E-02 0.  1.
         -2   -1    0    0    0  501 -0.00000000000E+00 -0.00000000000E+00 -0.91827403435E+02  0.91827403471E+02  0.25500000000E-02 0. -1.
    5000001    1    1    2    0    0 -0.24805873240E+03  0.10764533640E+03  0.30379923096E+03  0.42607936574E+03  0.12700000000E+03 0.  0.
   -5000001    1    1    2    0    0  0.24805873240E+03 -0.10764533640E+03  0.69640129890E+03  0.75777597103E+03  0.12700000000E+03 0.  0.
<mgrwt>
<rscale>  0 0.63333432E+03</rscale>
<asrwt>0</asrwt>
<pdfrwt beam="1">  1        2 0.15600399E+00 0.63333432E+03</pdfrwt>
<pdfrwt beam="2">  1       -2 0.13118200E-01 0.63333432E+03</pdfrwt>
<totfact> 0.10905978E+03</totfact>
</mgrwt>
</event>
<event>
 4    1  0.1361667E-004  0.5607510E+03  0.7818608E-02  0.9990357E-01
         -2   -1    0    0    0  501 -0.00000000000E+00  0.00000000000E+00  0.58726005336E+03  0.58726005337E+03  0.25500000000E-02 0. -1.
          2   -1    0    0  501    0  0.00000000000E+00 -0.00000000000E+00 -0.13385963951E+03  0.13385963954E+03  0.25500000000E-02 0.  1.
    5000001    1    1    2    0    0 -0.67989153632E+02 -0.23708797977E+03  0.17449183656E+03  0.32773409372E+03  0.12700000000E+03 0.  0.
   -5000001    1    1    2    0    0  0.67989153632E+02  0.23708797977E+03  0.27890857729E+03  0.39338559918E+03  0.12700000000E+03 0.  0.
<mgrwt>
<rscale>  0 0.56075099E+03</rscale>
<asrwt>0</asrwt>
<pdfrwt beam="1">  1        2 0.19122805E-01 0.56075099E+03</pdfrwt>
<pdfrwt beam="2">  1       -2 0.83894295E-01 0.56075099E+03</pdfrwt>
<totfact> 0.37572075E+02</totfact>
</mgrwt>
</event>
<event>
 4    1  0.1361667E-004  0.3528634E+03  0.7818608E-02  0.1061446E+00
         -2   -1    0    0    0  501 -0.00000000000E+00  0.00000000000E+00  0.10260928941E+02  0.10260929258E+02  0.25500000000E-02 0. -1.
          2   -1    0    0  501    0  0.00000000000E+00 -0.00000000000E+00 -0.30336579322E+04  0.30336579322E+04  0.25500000000E-02 0.  1.
    5000001    1    1    2    0    0  0.97685214687E+02  0.47522613695E+02 -0.10238450833E+04  0.10373950812E+04  0.12700000000E+03 0.  0.
   -5000001    1    1    2    0    0 -0.97685214687E+02 -0.47522613695E+02 -0.19995519200E+04  0.20065237802E+04  0.12700000000E+03 0.  0.
<mgrwt>
<rscale>  0 0.35286342E+03</rscale>
<asrwt>0</asrwt>
<pdfrwt beam="1">  1        2 0.43337913E+00 0.35286342E+03</pdfrwt>
<pdfrwt beam="2">  1       -2 0.14658490E-02 0.35286342E+03</pdfrwt>
<totfact> 0.32321741E+03</totfact>
</mgrwt>
</event>
<event>
 4    1  0.1361667E-004  0.4315096E+03  0.7818608E-02  0.1033384E+00
         -2   -1    0    0    0  501 -0.00000000000E+00  0.00000000000E+00  0.80795577434E+02  0.80795577474E+02  0.25500000000E-02 0. -1.
          2   -1    0    0  501    0  0.00000000000E+00 -0.00000000000E+00 -0.57614717007E+03  0.57614717008E+03  0.25500000000E-02 0.  1.
    5000001    1    1    2    0    0  0.98685104758E+02 -0.14340784200E+03 -0.23123749361E+03  0.31607647414E+03  0.12700000000E+03 0.  0.
   -5000001    1    1    2    0    0 -0.98685104758E+02  0.14340784200E+03 -0.26411409903E+03  0.34086627342E+03  0.12700000000E+03 0.  0.
<mgrwt>
<rscale>  0 0.43150964E+03</rscale>
<asrwt>0</asrwt>
<pdfrwt beam="1">  1        2 0.82306736E-01 0.43150964E+03</pdfrwt>
<pdfrwt beam="2">  1       -2 0.11542226E-01 0.43150964E+03</pdfrwt>
<totfact> 0.30576316E+03</totfact>
</mgrwt>
</event>
<event>
 4    1  0.1361667E-004  0.3658424E+03  0.7818608E-02  0.1056294E+00
          2   -1    0    0  501    0  0.00000000000E+00  0.00000000000E+00  0.26310290944E+03  0.26310290946E+03  0.25500000000E-02 0.  1.
         -2   -1    0    0    0  501 -0.00000000000E+00 -0.00000000000E+00 -0.12717522891E+03  0.12717522893E+03  0.25500000000E-02 0. -1.
    5000001    1    1    2    0    0 -0.10210912443E+03 -0.44089130910E+02  0.14310308988E+03  0.22130887711E+03  0.12700000000E+03 0.  0.
   -5000001    1    1    2    0    0  0.10210912443E+03  0.44089130910E+02 -0.71754093421E+01  0.16896926127E+03  0.12700000000E+03 0.  0.
<mgrwt>
<rscale>  0 0.36584244E+03</rscale>
<asrwt>0</asrwt>
<pdfrwt beam="1">  1        2 0.37586130E-01 0.36584244E+03</pdfrwt>
<pdfrwt beam="2">  1       -2 0.18167890E-01 0.36584244E+03</pdfrwt>
<totfact> 0.34077731E+03</totfact>
</mgrwt>
</event>
<event>
 4    1  0.1361667E-004  0.3723609E+03  0.7818608E-02  0.1053794E+00
         -2   -1    0    0    0  501 -0.00000000000E+00  0.00000000000E+00  0.60867637584E+02  0.60867637638E+02  0.25500000000E-02 0. -1.
          2   -1    0    0  501    0  0.00000000000E+00 -0.00000000000E+00 -0.56948416638E+03  0.56948416638E+03  0.25500000000E-02 0.  1.
    5000001    1    1    2    0    0  0.92585246723E+02  0.41140721347E+02 -0.40825142264E+03  0.43938913386E+03  0.12700000000E+03 0.  0.
   -5000001    1    1    2    0    0 -0.92585246723E+02 -0.41140721347E+02 -0.10036510616E+03  0.19096267017E+03  0.12700000000E+03 0.  0.
<mgrwt>
<rscale>  0 0.37236088E+03</rscale>
<asrwt>0</asrwt>
<pdfrwt beam="1">  1        2 0.81354878E-01 0.37236088E+03</pdfrwt>
<pdfrwt beam="2">  1       -2 0.86953771E-02 0.37236088E+03</pdfrwt>
<totfact> 0.48704320E+03</totfact>
</mgrwt>
</event>
<event>
 4    1  0.1361667E-004  0.3517852E+03  0.7818608E-02  0.1061885E+00
          2   -1    0    0  501    0  0.00000000000E+00  0.00000000000E+00  0.42010594835E+03  0.42010594836E+03  0.25500000000E-02 0.  1.
         -2   -1    0    0    0  501 -0.00000000000E+00 -0.00000000000E+00 -0.73643839862E+02  0.73643839906E+02  0.25500000000E-02 0. -1.
    5000001    1    1    2    0    0 -0.60455367164E+02  0.93523951646E+02  0.24210017761E+03  0.29520006258E+03  0.12700000000E+03 0.  0.
   -5000001    1    1    2    0    0  0.60455367164E+02 -0.93523951646E+02  0.10436193087E+03  0.19854972568E+03  0.12700000000E+03 0.  0.
<mgrwt>
<rscale>  0 0.35178525E+03</rscale>
<asrwt>0</asrwt>
<pdfrwt beam="1">  1        2 0.60015135E-01 0.35178525E+03</pdfrwt>
<pdfrwt beam="2">  1       -2 0.10520549E-01 0.35178525E+03</pdfrwt>
<totfact> 0.50400316E+03</totfact>
</mgrwt>
</event>
<event>
 4    1  0.1361667E-004  0.3955929E+03  0.7818608E-02  0.1045316E+00
         -2   -1    0    0    0  501 -0.00000000000E+00  0.00000000000E+00  0.91618307454E+02  0.91618307490E+02  0.25500000000E-02 0. -1.
          2   -1    0    0  501    0  0.00000000000E+00 -0.00000000000E+00 -0.42702646597E+03  0.42702646598E+03  0.25500000000E-02 0.  1.
    5000001    1    1    2    0    0  0.80313841095E+01 -0.15029982167E+03 -0.14353285298E+03  0.24369082750E+03  0.12700000000E+03 0.  0.
   -5000001    1    1    2    0    0 -0.80313841095E+01  0.15029982167E+03 -0.19187530554E+03  0.27495394596E+03  0.12700000000E+03 0.  0.
<mgrwt>
<rscale>  0 0.39559293E+03</rscale>
<asrwt>0</asrwt>
<pdfrwt beam="1">  1        2 0.61003780E-01 0.39559293E+03</pdfrwt>
<pdfrwt beam="2">  1       -2 0.13088330E-01 0.39559293E+03</pdfrwt>
<totfact> 0.34809524E+03</totfact>
</mgrwt>
</event>
<event>
 4    1  0.1361667E-004  0.3955421E+03  0.7818608E-02  0.1045334E+00
         -2   -1    0    0    0  501 -0.00000000000E+00  0.00000000000E+00  0.59902777594E+02  0.59902777649E+02  0.25500000000E-02 0. -1.
          2   -1    0    0  501    0  0.00000000000E+00 -0.00000000000E+00 -0.65294797393E+03  0.65294797393E+03  0.25500000000E-02 0.  1.
    5000001    1    1    2    0    0 -0.14546261905E+03  0.15074682806E+02 -0.36856099211E+03  0.41635660738E+03  0.12700000000E+03 0.  0.
   -5000001    1    1    2    0    0  0.14546261905E+03 -0.15074682806E+02 -0.22448420422E+03  0.29649414420E+03  0.12700000000E+03 0.  0.
<mgrwt>
<rscale>  0 0.39554215E+03</rscale>
<asrwt>0</asrwt>
<pdfrwt beam="1">  1        2 0.93278278E-01 0.39554215E+03</pdfrwt>
<pdfrwt beam="2">  1       -2 0.85575400E-02 0.39554215E+03</pdfrwt>
<totfact> 0.42665351E+03</totfact>
</mgrwt>
</event>
<event>
 4    1  0.1361667E-004  0.3377717E+03  0.7818608E-02  0.1067749E+00
         -2   -1    0    0    0  501 -0.00000000000E+00  0.00000000000E+00  0.19500764648E+03  0.19500764649E+03  0.25500000000E-02 0. -1.
          2   -1    0    0  501    0  0.00000000000E+00 -0.00000000000E+00 -0.14626314368E+03  0.14626314370E+03  0.25500000000E-02 0.  1.
    5000001    1    1    2    0    0 -0.51251053043E+02 -0.97689070428E+02  0.92638656448E+01  0.16847742913E+03  0.12700000000E+03 0.  0.
   -5000001    1    1    2    0    0  0.51251053043E+02  0.97689070428E+02  0.39480637154E+02  0.17279336107E+03  0.12700000000E+03 0.  0.
<mgrwt>
<rscale>  0 0.33777171E+03</rscale>
<asrwt>0</asrwt>
<pdfrwt beam="1">  1        2 0.20894735E-01 0.33777171E+03</pdfrwt>
<pdfrwt beam="2">  1       -2 0.27858235E-01 0.33777171E+03</pdfrwt>
<totfact> 0.30999942E+03</totfact>
</mgrwt>
</event>
<event>
 4    1  0.1361667E-004  0.3999380E+03  0.7818608E-02  0.1043801E+00
          2   -1    0    0  501    0  0.00000000000E+00  0.00000000000E+00  0.66733354450E+02  0.66733354499E+02  0.25500000000E-02 0.  1.
         -2   -1    0    0    0  501 -0.00000000000E+00 -0.00000000000E+00 -0.59921454452E+03  0.59921454453E+03  0.25500000000E-02 0. -1.
    5000001    1    1    2    0    0  0.48003928003E+02 -0.12367343691E+03 -0.39797632098E+03  0.43830770945E+03  0.12700000000E+03 0.  0.
   -5000001    1    1    2    0    0 -0.48003928003E+02  0.12367343691E+03 -0.13450486909E+03  0.22764018957E+03  0.12700000000E+03 0.  0.
<mgrwt>
<rscale>  0 0.39993798E+03</rscale>
<asrwt>0</asrwt>
<pdfrwt beam="1">  1        2 0.95333367E-02 0.39993798E+03</pdfrwt>
<pdfrwt beam="2">  1       -2 0.85602075E-01 0.39993798E+03</pdfrwt>
<totfact> 0.83948170E+02</totfact>
</mgrwt>
</event>
<event>
 4    1  0.1361667E-004  0.4185533E+03  0.7818608E-02  0.1037538E+00
         -2   -1    0    0    0  501 -0.00000000000E+00  0.00000000000E+00  0.28596254725E+02  0.28596254839E+02  0.25500000000E-02 0. -1.
          2   -1    0    0  501    0  0.00000000000E+00 -0.00000000000E+00 -0.15315541836E+04  0.15315541836E+04  0.25500000000E-02 0.  1.
    5000001    1    1    2    0    0 -0.57793056360E+02 -0.11632227366E+03 -0.11387931000E+04  0.11531910654E+04  0.12700000000E+03 0.  0.
   -5000001    1    1    2    0    0  0.57793056360E+02  0.11632227366E+03 -0.36416482886E+03  0.40695937303E+03  0.12700000000E+03 0.  0.
<mgrwt>
<rscale>  0 0.41855329E+03</rscale>
<asrwt>0</asrwt>
<pdfrwt beam="1">  1        2 0.21879340E+00 0.41855329E+03</pdfrwt>
<pdfrwt beam="2">  1       -2 0.40851802E-02 0.41855329E+03</pdfrwt>
<totfact> 0.40122327E+03</totfact>
</mgrwt>
</event>
<event>
 4    1  0.1361667E-004  0.1294455E+04  0.7818608E-02  0.9033974E-01
         -2   -1    0    0    0  501 -0.00000000000E+00  0.00000000000E+00  0.15543712737E+03  0.15543712739E+03  0.25500000000E-02 0. -1.
          2   -1    0    0  501    0  0.00000000000E+00 -0.00000000000E+00 -0.26950034399E+04  0.26950034399E+04  0.25500000000E-02 0.  1.
    5000001    1    1    2    0    0 -0.50686687730E+03  0.31897693302E+03 -0.80728017216E+03  0.10131587198E+04  0.12700000000E+03 0.  0.
   -5000001    1    1    2    0    0  0.50686687730E+03 -0.31897693302E+03 -0.17322861403E+04  0.18372818475E+04  0.12700000000E+03 0.  0.
<mgrwt>
<rscale>  0 0.12944552E+04</rscale>
<asrwt>0</asrwt>
<pdfrwt beam="1">  1        2 0.38500046E+00 0.12944552E+04</pdfrwt>
<pdfrwt beam="2">  1       -2 0.22205306E-01 0.12944552E+04</pdfrwt>
<totfact> 0.60753299E+01</totfact>
</mgrwt>
</event>
<event>
 4    1  0.1361667E-004  0.3045817E+03  0.7818608E-02  0.1082972E+00
         -2   -1    0    0    0  501 -0.00000000000E+00  0.00000000000E+00  0.49282899975E+02  0.49282900041E+02  0.25500000000E-02 0. -1.
          2   -1    0    0  501    0  0.00000000000E+00 -0.00000000000E+00 -0.47059946950E+03  0.47059946951E+03  0.25500000000E-02 0.  1.
    5000001    1    1    2    0    0  0.67162647270E+02  0.49146574067E+02 -0.19065800830E+03  0.24373281080E+03  0.12700000000E+03 0.  0.
   -5000001    1    1    2    0    0 -0.67162647270E+02 -0.49146574067E+02 -0.23065856123E+03  0.27614955876E+03  0.12700000000E+03 0.  0.
<mgrwt>
<rscale>  0 0.30458172E+03</rscale>
<asrwt>0</asrwt>
<pdfrwt beam="1">  1        2 0.67228493E-01 0.30458172E+03</pdfrwt>
<pdfrwt beam="2">  1       -2 0.70404146E-02 0.30458172E+03</pdfrwt>
<totfact> 0.83514508E+03</totfact>
</mgrwt>
</event>
<event>
 4    1  0.1361667E-004  0.3897164E+03  0.7818608E-02  0.1047400E+00
          2   -1    0    0  501    0  0.00000000000E+00  0.00000000000E+00  0.94232586988E+02  0.94232587022E+02  0.25500000000E-02 0.  1.
         -2   -1    0    0    0  501 -0.00000000000E+00 -0.00000000000E+00 -0.40293626513E+03  0.40293626513E+03  0.25500000000E-02 0. -1.
    5000001    1    1    2    0    0  0.10349602817E+03 -0.92602213522E+02 -0.21882464684E+03  0.28861708865E+03  0.12700000000E+03 0.  0.
   -5000001    1    1    2    0    0 -0.10349602817E+03  0.92602213522E+02 -0.89879031301E+02  0.20855176351E+03  0.12700000000E+03 0.  0.
<mgrwt>
<rscale>  0 0.38971644E+03</rscale>
<asrwt>0</asrwt>
<pdfrwt beam="1">  1        2 0.13461798E-01 0.38971644E+03</pdfrwt>
<pdfrwt beam="2">  1       -2 0.57562323E-01 0.38971644E+03</pdfrwt>
<totfact> 0.12895287E+03</totfact>
</mgrwt>
</event>
<event>
 4    1  0.1361667E-004  0.3133394E+03  0.7818608E-02  0.1078756E+00
         -2   -1    0    0    0  501 -0.00000000000E+00  0.00000000000E+00  0.76387772497E+02  0.76387772539E+02  0.25500000000E-02 0. -1.
          2   -1    0    0  501    0  0.00000000000E+00 -0.00000000000E+00 -0.32132614981E+03  0.32132614982E+03  0.25500000000E-02 0.  1.
    5000001    1    1    2    0    0  0.21105684803E+02  0.57448966429E+02 -0.35725059131E+02  0.14543422405E+03  0.12700000000E+03 0.  0.
   -5000001    1    1    2    0    0 -0.21105684803E+02 -0.57448966429E+02 -0.20921331818E+03  0.25227969831E+03  0.12700000000E+03 0.  0.
<mgrwt>
<rscale>  0 0.31333936E+03</rscale>
<asrwt>0</asrwt>
<pdfrwt beam="1">  1        2 0.45903735E-01 0.31333936E+03</pdfrwt>
<pdfrwt beam="2">  1       -2 0.10912539E-01 0.31333936E+03</pdfrwt>
<totfact> 0.63370266E+03</totfact>
</mgrwt>
</event>
<event>
 4    1  0.1361667E-004  0.3144490E+03  0.7818608E-02  0.1078233E+00
          2   -1    0    0  501    0  0.00000000000E+00  0.00000000000E+00  0.24795954301E+04  0.24795954301E+04  0.25500000000E-02 0.  1.
         -2   -1    0    0    0  501 -0.00000000000E+00 -0.00000000000E+00 -0.99691861743E+01  0.99691865004E+01  0.25500000000E-02 0. -1.
    5000001    1    1    2    0    0 -0.73304990298E+02 -0.56638070852E+02  0.12586388665E+04  0.12684172377E+04  0.12700000000E+03 0.  0.
   -5000001    1    1    2    0    0  0.73304990298E+02  0.56638070852E+02  0.12109873774E+04  0.12211473789E+04  0.12700000000E+03 0.  0.
<mgrwt>
<rscale>  0 0.31444903E+03</rscale>
<asrwt>0</asrwt>
<pdfrwt beam="1">  1        2 0.35422767E+00 0.31444903E+03</pdfrwt>
<pdfrwt beam="2">  1       -2 0.14241705E-02 0.31444903E+03</pdfrwt>
<totfact> 0.65347652E+03</totfact>
</mgrwt>
</event>
<event>
 4    1  0.1361667E-004  0.5922275E+03  0.7818608E-02  0.9921664E-01
         -2   -1    0    0    0  501 -0.00000000000E+00  0.00000000000E+00  0.82334860430E+03  0.82334860430E+03  0.25500000000E-02 0. -1.
          2   -1    0    0  501    0  0.00000000000E+00 -0.00000000000E+00 -0.10649604202E+03  0.10649604205E+03  0.25500000000E-02 0.  1.
    5000001    1    1    2    0    0  0.13453370051E+03  0.16635123685E+03  0.61053203670E+03  0.65928022753E+03  0.12700000000E+03 0.  0.
   -5000001    1    1    2    0    0 -0.13453370051E+03 -0.16635123685E+03  0.10632052557E+03  0.27056441882E+03  0.12700000000E+03 0.  0.
<mgrwt>
<rscale>  0 0.59222755E+03</rscale>
<asrwt>0</asrwt>
<pdfrwt beam="1">  1        2 0.15213721E-01 0.59222755E+03</pdfrwt>
<pdfrwt beam="2">  1       -2 0.11762122E+00 0.59222755E+03</pdfrwt>
<totfact> 0.22278884E+02</totfact>
</mgrwt>
</event>
<event>
 4    1  0.1361667E-004  0.4621559E+03  0.7818608E-02  0.1024158E+00
          2   -1    0    0  501    0  0.00000000000E+00  0.00000000000E+00  0.19373990140E+03  0.19373990142E+03  0.25500000000E-02 0.  1.
         -2   -1    0    0    0  501 -0.00000000000E+00 -0.00000000000E+00 -0.27561190251E+03  0.27561190253E+03  0.25500000000E-02 0. -1.
    5000001    1    1    2    0    0  0.57265540001E+02  0.15431294272E+03 -0.14338381916E+03  0.25254652236E+03  0.12700000000E+03 0.  0.
   -5000001    1    1    2    0    0 -0.57265540001E+02 -0.15431294272E+03  0.61511818046E+02  0.21680528158E+03  0.12700000000E+03 0.  0.
<mgrwt>
<rscale>  0 0.46215592E+03</rscale>
<asrwt>0</asrwt>
<pdfrwt beam="1">  1        2 0.27677129E-01 0.46215592E+03</pdfrwt>
<pdfrwt beam="2">  1       -2 0.39373129E-01 0.46215592E+03</pdfrwt>
<totfact> 0.11882373E+03</totfact>
</mgrwt>
</event>
<event>
 4    1  0.1361667E-004  0.2873666E+03  0.7818608E-02  0.1091732E+00
          2   -1    0    0  501    0  0.00000000000E+00  0.00000000000E+00  0.16326691829E+03  0.16326691831E+03  0.25500000000E-02 0.  1.
         -2   -1    0    0    0  501 -0.00000000000E+00 -0.00000000000E+00 -0.12644870802E+03  0.12644870805E+03  0.25500000000E-02 0. -1.
    5000001    1    1    2    0    0 -0.44924560311E+02  0.49242979013E+02  0.27011366046E+02  0.14595102260E+03  0.12700000000E+03 0.  0.
   -5000001    1    1    2    0    0  0.44924560311E+02 -0.49242979013E+02  0.98068442162E+01  0.14376460376E+03  0.12700000000E+03 0.  0.
<mgrwt>
<rscale>  0 0.28736660E+03</rscale>
<asrwt>0</asrwt>
<pdfrwt beam="1">  1        2 0.23323845E-01 0.28736660E+03</pdfrwt>
<pdfrwt beam="2">  1       -2 0.18064101E-01 0.28736660E+03</pdfrwt>
<totfact> 0.57945406E+03</totfact>
</mgrwt>
</event>
<event>
 4    1  0.1361667E-004  0.2828928E+03  0.7818608E-02  0.1094119E+00
         -2   -1    0    0    0  501 -0.00000000000E+00  0.00000000000E+00  0.81658951485E+01  0.81658955467E+01  0.25500000000E-02 0. -1.
          2   -1    0    0  501    0  0.00000000000E+00 -0.00000000000E+00 -0.24500778119E+04  0.24500778119E+04  0.25500000000E-02 0.  1.
    5000001    1    1    2    0    0  0.40587252093E+02  0.14506054694E+02 -0.83037229335E+03  0.84113310256E+03  0.12700000000E+03 0.  0.
   -5000001    1    1    2    0    0 -0.40587252093E+02 -0.14506054694E+02 -0.16115396234E+04  0.16171106049E+04  0.12700000000E+03 0.  0.
<mgrwt>
<rscale>  0 0.28289276E+03</rscale>
<asrwt>0</asrwt>
<pdfrwt beam="1">  1        2 0.35001064E+00 0.28289276E+03</pdfrwt>
<pdfrwt beam="2">  1       -2 0.11665581E-02 0.28289276E+03</pdfrwt>
<totfact> 0.90483074E+03</totfact>
</mgrwt>
</event>
<event>
 4    1  0.1361667E-004  0.2927947E+03  0.7818608E-02  0.1088899E+00
          2   -1    0    0  501    0  0.00000000000E+00  0.00000000000E+00  0.59382411324E+03  0.59382411325E+03  0.25500000000E-02 0.  1.
         -2   -1    0    0    0  501 -0.00000000000E+00 -0.00000000000E+00 -0.36091807696E+02  0.36091807786E+02  0.25500000000E-02 0. -1.
    5000001    1    1    2    0    0  0.67341721181E+02 -0.23758801502E+02  0.24815338436E+03  0.28776464381E+03  0.12700000000E+03 0.  0.
   -5000001    1    1    2    0    0 -0.67341721181E+02  0.23758801502E+02  0.30957892119E+03  0.34215127722E+03  0.12700000000E+03 0.  0.
<mgrwt>
<rscale>  0 0.29279471E+03</rscale>
<asrwt>0</asrwt>
<pdfrwt beam="1">  1        2 0.84832015E-01 0.29279471E+03</pdfrwt>
<pdfrwt beam="2">  1       -2 0.51559726E-02 0.29279471E+03</pdfrwt>
<totfact> 0.10378477E+04</totfact>
</mgrwt>
</event>
<event>
 4    1  0.1361667E-004  0.3662854E+03  0.7818608E-02  0.1056122E+00
          2   -1    0    0  501    0  0.00000000000E+00  0.00000000000E+00  0.64116187033E+03  0.64116187033E+03  0.25500000000E-02 0.  1.
         -2   -1    0    0    0  501 -0.00000000000E+00 -0.00000000000E+00 -0.52313240638E+02  0.52313240701E+02  0.25500000000E-02 0. -1.
    5000001    1    1    2    0    0 -0.68389425384E+02  0.95746044891E+02  0.40751158134E+03  0.44276303769E+03  0.12700000000E+03 0.  0.
   -5000001    1    1    2    0    0  0.68389425384E+02 -0.95746044891E+02  0.18133704835E+03  0.25071207334E+03  0.12700000000E+03 0.  0.
<mgrwt>
<rscale>  0 0.36628544E+03</rscale>
<asrwt>0</asrwt>
<pdfrwt beam="1">  1        2 0.91594549E-01 0.36628544E+03</pdfrwt>
<pdfrwt beam="2">  1       -2 0.74733204E-02 0.36628544E+03</pdfrwt>
<totfact> 0.53881285E+03</totfact>
</mgrwt>
</event>
<event>
 4    1  0.1361667E-004  0.4822817E+03  0.7818608E-02  0.1018510E+00
         -2   -1    0    0    0  501 -0.00000000000E+00  0.00000000000E+00  0.35289879920E+02  0.35289880012E+02  0.25500000000E-02 0. -1.
          2   -1    0    0  501    0  0.00000000000E+00 -0.00000000000E+00 -0.16477502969E+04  0.16477502969E+04  0.25500000000E-02 0.  1.
    5000001    1    1    2    0    0 -0.10513568559E+03  0.16909259674E+03 -0.97626681469E+03  0.10044260610E+04  0.12700000000E+03 0.  0.
   -5000001    1    1    2    0    0  0.10513568559E+03 -0.16909259674E+03 -0.63619360232E+03  0.67861411589E+03  0.12700000000E+03 0.  0.
<mgrwt>
<rscale>  0 0.48228170E+03</rscale>
<asrwt>0</asrwt>
<pdfrwt beam="1">  1        2 0.23539285E+00 0.48228170E+03</pdfrwt>
<pdfrwt beam="2">  1       -2 0.50414124E-02 0.48228170E+03</pdfrwt>
<totfact> 0.25339989E+03</totfact>
</mgrwt>
</event>
<event>
 4    1  0.1361667E-004  0.3183207E+03  0.7818608E-02  0.1076425E+00
         -2   -1    0    0    0  501 -0.00000000000E+00  0.00000000000E+00  0.30278402672E+02  0.30278402779E+02  0.25500000000E-02 0.  1.
          2   -1    0    0  501    0  0.00000000000E+00 -0.00000000000E+00 -0.83663633986E+03  0.83663633986E+03  0.25500000000E-02 0. -1.
    5000001    1    1    2    0    0  0.56375820172E+02  0.64741375363E+02 -0.51978801875E+03  0.54192090126E+03  0.12700000000E+03 0.  0.
   -5000001    1    1    2    0    0 -0.56375820172E+02 -0.64741375363E+02 -0.28656991843E+03  0.32499384138E+03  0.12700000000E+03 0.  0.
<mgrwt>
<rscale>  0 0.31832067E+03</rscale>
<asrwt>0</asrwt>
<pdfrwt beam="1">  1        2 0.11951946E+00 0.31832067E+03</pdfrwt>
<pdfrwt beam="2">  1       -2 0.43254866E-02 0.31832067E+03</pdfrwt>
<totfact> 0.90157257E+03</totfact>
</mgrwt>
</event>
<event>
 4    1  0.1361667E-004  0.5433675E+03  0.7818608E-02  0.1003041E+00
         -2   -1    0    0    0  501 -0.00000000000E+00  0.00000000000E+00  0.83420022033E+02  0.83420022072E+02  0.25500000000E-02 0. -1.
          2   -1    0    0  501    0  0.00000000000E+00 -0.00000000000E+00 -0.88482412514E+03  0.88482412514E+03  0.25500000000E-02 0.  1.
    5000001    1    1    2    0    0 -0.11121034892E+03 -0.17063082784E+03 -0.62750802402E+03  0.67184666504E+03  0.12700000000E+03 0.  0.
   -5000001    1    1    2    0    0  0.11121034892E+03  0.17063082784E+03 -0.17389607908E+03  0.29639748217E+03  0.12700000000E+03 0.  0.
<mgrwt>
<rscale>  0 0.54336746E+03</rscale>
<asrwt>0</asrwt>
<pdfrwt beam="1">  1        2 0.12640344E+00 0.54336746E+03</pdfrwt>
<pdfrwt beam="2">  1       -2 0.11917146E-01 0.54336746E+03</pdfrwt>
<totfact> 0.17160424E+03</totfact>
</mgrwt>
</event>
<event>
 4    1  0.1361667E-004  0.4458322E+03  0.7818608E-02  0.1028972E+00
         -2   -1    0    0    0  501 -0.00000000000E+00  0.00000000000E+00  0.27990898586E+02  0.27990898702E+02  0.25500000000E-02 0. -1.
          2   -1    0    0  501    0  0.00000000000E+00 -0.00000000000E+00 -0.17752765717E+04  0.17752765718E+04  0.25500000000E-02 0.  1.
    5000001    1    1    2    0    0  0.76898677897E+02 -0.15183884094E+03 -0.59949101747E+03  0.63599286184E+03  0.12700000000E+03 0.  0.
   -5000001    1    1    2    0    0 -0.76898677897E+02  0.15183884094E+03 -0.11477946557E+04  0.11672746086E+04  0.12700000000E+03 0.  0.
<mgrwt>
<rscale>  0 0.44583220E+03</rscale>
<asrwt>0</asrwt>
<pdfrwt beam="1">  1        2 0.25361087E+00 0.44583220E+03</pdfrwt>
<pdfrwt beam="2">  1       -2 0.39987009E-02 0.44583220E+03</pdfrwt>
<totfact> 0.31214396E+03</totfact>
</mgrwt>
</event>
<event>
 4    1  0.1361667E-004  0.5393725E+03  0.7818608E-02  0.1003984E+00
         -2   -1    0    0    0  501 -0.00000000000E+00  0.00000000000E+00  0.33626063090E+02  0.33626063187E+02  0.25500000000E-02 0. -1.
          2   -1    0    0  501    0  0.00000000000E+00 -0.00000000000E+00 -0.21629254339E+04  0.21629254339E+04  0.25500000000E-02 0.  1.
    5000001    1    1    2    0    0 -0.95851674132E+02 -0.10797384591E+03 -0.18347116801E+04  0.18447606468E+04  0.12700000000E+03 0.  0.
   -5000001    1    1    2    0    0  0.95851674132E+02  0.10797384591E+03 -0.29458769068E+03  0.35179085027E+03  0.12700000000E+03 0.  0.
<mgrwt>
<rscale>  0 0.53937248E+03</rscale>
<asrwt>0</asrwt>
<pdfrwt beam="1">  1        2 0.30898926E+00 0.53937248E+03</pdfrwt>
<pdfrwt beam="2">  1       -2 0.48037247E-02 0.53937248E+03</pdfrwt>
<totfact> 0.15028973E+03</totfact>
</mgrwt>
</event>
<event>
 4    1  0.1361667E-004  0.3554978E+03  0.7818608E-02  0.1060381E+00
          2   -1    0    0  501    0  0.00000000000E+00  0.00000000000E+00  0.12795763703E+04  0.12795763703E+04  0.25500000000E-02 0.  1.
         -2   -1    0    0    0  501 -0.00000000000E+00 -0.00000000000E+00 -0.24691514354E+02  0.24691514485E+02  0.25500000000E-02 0. -1.
    5000001    1    1    2    0    0 -0.87999783370E+02  0.75278891810E+02  0.46113366245E+03  0.49212206623E+03  0.12700000000E+03 0.  0.
   -5000001    1    1    2    0    0  0.87999783370E+02 -0.75278891810E+02  0.79375119349E+03  0.81214581855E+03  0.12700000000E+03 0.  0.
<mgrwt>
<rscale>  0 0.35549784E+03</rscale>
<asrwt>0</asrwt>
<pdfrwt beam="1">  1        2 0.18279663E+00 0.35549784E+03</pdfrwt>
<pdfrwt beam="2">  1       -2 0.35273592E-02 0.35549784E+03</pdfrwt>
<totfact> 0.67768188E+03</totfact>
</mgrwt>
</event>
<event>
 4    1  0.1361667E-004  0.4366480E+03  0.7818608E-02  0.1031780E+00
          2   -1    0    0  501    0  0.00000000000E+00  0.00000000000E+00  0.21300446417E+04  0.21300446417E+04  0.25500000000E-02 0.  1.
         -2   -1    0    0    0  501 -0.00000000000E+00 -0.00000000000E+00 -0.22377638981E+02  0.22377639127E+02  0.25500000000E-02 0. -1.
    5000001    1    1    2    0    0 -0.96291643226E+02  0.14276682904E+03  0.83998962238E+03  0.86681371339E+03  0.12700000000E+03 0.  0.
   -5000001    1    1    2    0    0  0.96291643226E+02 -0.14276682904E+03  0.12676773803E+04  0.12856085674E+04  0.12700000000E+03 0.  0.
<mgrwt>
<rscale>  0 0.43664801E+03</rscale>
<asrwt>0</asrwt>
<pdfrwt beam="1">  1        2 0.30429209E+00 0.43664801E+03</pdfrwt>
<pdfrwt beam="2">  1       -2 0.31968056E-02 0.43664801E+03</pdfrwt>
<totfact> 0.29212886E+03</totfact>
</mgrwt>
</event>
<event>
 4    1  0.1361667E-004  0.3877178E+03  0.7818608E-02  0.1048118E+00
          2   -1    0    0  501    0  0.00000000000E+00  0.00000000000E+00  0.18345301855E+03  0.18345301857E+03  0.25500000000E-02 0.  1.
         -2   -1    0    0    0  501 -0.00000000000E+00 -0.00000000000E+00 -0.20485507100E+03  0.20485507102E+03  0.25500000000E-02 0. -1.
    5000001    1    1    2    0    0  0.10920573751E+03 -0.80882244730E+02 -0.65414317978E+02  0.19716963157E+03  0.12700000000E+03 0.  0.
   -5000001    1    1    2    0    0 -0.10920573751E+03  0.80882244730E+02  0.44012265523E+02  0.19113845802E+03  0.12700000000E+03 0.  0.
<mgrwt>
<rscale>  0 0.38771784E+03</rscale>
<asrwt>0</asrwt>
<pdfrwt beam="1">  1        2 0.26207574E-01 0.38771784E+03</pdfrwt>
<pdfrwt beam="2">  1       -2 0.29265010E-01 0.38771784E+03</pdfrwt>
<totfact> 0.21981334E+03</totfact>
</mgrwt>
</event>
<event>
 4    1  0.1361667E-004  0.6555401E+03  0.7818608E-02  0.9796439E-01
         -2   -1    0    0    0  501 -0.00000000000E+00  0.00000000000E+00  0.11290787193E+03  0.11290787196E+03  0.25500000000E-02 0. -1.
          2   -1    0    0  501    0  0.00000000000E+00 -0.00000000000E+00 -0.95151216082E+03  0.95151216082E+03  0.25500000000E-02 0.  1.
    5000001    1    1    2    0    0 -0.22514825366E+03 -0.14960399247E+03 -0.20006180484E+03  0.35948131585E+03  0.12700000000E+03 0.  0.
   -5000001    1    1    2    0    0  0.22514825366E+03  0.14960399247E+03 -0.63854248404E+03  0.70493871692E+03  0.12700000000E+03 0.  0.
<mgrwt>
<rscale>  0 0.65554012E+03</rscale>
<asrwt>0</asrwt>
<pdfrwt beam="1">  1        2 0.13593030E+00 0.65554012E+03</pdfrwt>
<pdfrwt beam="2">  1       -2 0.16129697E-01 0.65554012E+03</pdfrwt>
<totfact> 0.93661283E+02</totfact>
</mgrwt>
</event>
<event>
 4    1  0.1361667E-004  0.3389743E+03  0.7818608E-02  0.1067234E+00
         -2   -1    0    0    0  501 -0.00000000000E+00  0.00000000000E+00  0.16800820739E+02  0.16800820932E+02  0.25500000000E-02 0. -1.
          2   -1    0    0  501    0  0.00000000000E+00 -0.00000000000E+00 -0.17097913678E+04  0.17097913678E+04  0.25500000000E-02 0.  1.
    5000001    1    1    2    0    0  0.54996519206E+02 -0.96618412880E+02 -0.76805357494E+03  0.78638096926E+03  0.12700000000E+03 0.  0.
   -5000001    1    1    2    0    0 -0.54996519206E+02  0.96618412880E+02 -0.92493697208E+03  0.94021121944E+03  0.12700000000E+03 0.  0.
<mgrwt>
<rscale>  0 0.33897433E+03</rscale>
<asrwt>0</asrwt>
<pdfrwt beam="1">  1        2 0.24425580E+00 0.33897433E+03</pdfrwt>
<pdfrwt beam="2">  1       -2 0.24001184E-02 0.33897433E+03</pdfrwt>
<totfact> 0.72558395E+03</totfact>
</mgrwt>
</event>
<event>
 4    1  0.1361667E-004  0.3964592E+03  0.7818608E-02  0.1045013E+00
         -2   -1    0    0    0  501 -0.00000000000E+00  0.00000000000E+00  0.70050660227E+02  0.70050660274E+02  0.25500000000E-02 0. -1.
          2   -1    0    0  501    0  0.00000000000E+00 -0.00000000000E+00 -0.56095079138E+03  0.56095079138E+03  0.25500000000E-02 0.  1.
    5000001    1    1    2    0    0 -0.69780294778E+02  0.53635604885E+02 -0.44308909931E+03  0.46925794355E+03  0.12700000000E+03 0.  0.
   -5000001    1    1    2    0    0  0.69780294778E+02 -0.53635604885E+02 -0.47811031837E+02  0.16174350811E+03  0.12700000000E+03 0.  0.
<mgrwt>
<rscale>  0 0.39645919E+03</rscale>
<asrwt>0</asrwt>
<pdfrwt beam="1">  1        2 0.80135825E-01 0.39645919E+03</pdfrwt>
<pdfrwt beam="2">  1       -2 0.10007237E-01 0.39645919E+03</pdfrwt>
<totfact> 0.39656196E+03</totfact>
</mgrwt>
</event>
<event>
 4    1  0.1361667E-004  0.4933730E+03  0.7818608E-02  0.1015523E+00
         -2   -1    0    0    0  501 -0.00000000000E+00  0.00000000000E+00  0.13404278748E+03  0.13404278751E+03  0.25500000000E-02 0. -1.
          2   -1    0    0  501    0  0.00000000000E+00 -0.00000000000E+00 -0.45399104524E+03  0.45399104525E+03  0.25500000000E-02 0.  1.
    5000001    1    1    2    0    0  0.60563221514E+02  0.26588110021E+02 -0.39938884329E+03  0.42428207544E+03  0.12700000000E+03 0.  0.
   -5000001    1    1    2    0    0 -0.60563221514E+02 -0.26588110021E+02  0.79440585533E+02  0.16375175732E+03  0.12700000000E+03 0.  0.
<mgrwt>
<rscale>  0 0.49337298E+03</rscale>
<asrwt>0</asrwt>
<pdfrwt beam="1">  1        2 0.64855863E-01 0.49337298E+03</pdfrwt>
<pdfrwt beam="2">  1       -2 0.19148970E-01 0.49337298E+03</pdfrwt>
<totfact> 0.17190770E+03</totfact>
</mgrwt>
</event>
<event>
 4    1  0.1361667E-004  0.4667987E+03  0.7818608E-02  0.1022828E+00
          2   -1    0    0  501    0  0.00000000000E+00  0.00000000000E+00  0.10258652960E+04  0.10258652960E+04  0.25500000000E-02 0.  1.
         -2   -1    0    0    0  501 -0.00000000000E+00 -0.00000000000E+00 -0.53101755467E+02  0.53101755528E+02  0.25500000000E-02 0. -1.
    5000001    1    1    2    0    0  0.33896935292E+02  0.12872659003E+03  0.15441579764E+03  0.24019320507E+03  0.12700000000E+03 0.  0.
   -5000001    1    1    2    0    0 -0.33896935292E+02 -0.12872659003E+03  0.81834774294E+03  0.83877384650E+03  0.12700000000E+03 0.  0.
<mgrwt>
<rscale>  0 0.46679866E+03</rscale>
<asrwt>0</asrwt>
<pdfrwt beam="1">  1        2 0.14655218E+00 0.46679866E+03</pdfrwt>
<pdfrwt beam="2">  1       -2 0.75859656E-02 0.46679866E+03</pdfrwt>
<totfact> 0.29009706E+03</totfact>
</mgrwt>
</event>
<event>
 4    1  0.1361667E-004  0.3525592E+03  0.7818608E-02  0.1061570E+00
          2   -1    0    0  501    0  0.00000000000E+00  0.00000000000E+00  0.95490246147E+03  0.95490246148E+03  0.25500000000E-02 0.  1.
         -2   -1    0    0    0  501 -0.00000000000E+00 -0.00000000000E+00 -0.32542068816E+02  0.32542068916E+02  0.25500000000E-02 0. -1.
    5000001    1    1    2    0    0 -0.36074384130E+02 -0.37706434182E+02  0.77082105013E+03  0.78295416704E+03  0.12700000000E+03 0.  0.
   -5000001    1    1    2    0    0  0.36074384130E+02  0.37706434182E+02  0.15153934253E+03  0.20449036335E+03  0.12700000000E+03 0.  0.
<mgrwt>
<rscale>  0 0.35255922E+03</rscale>
<asrwt>0</asrwt>
<pdfrwt beam="1">  1        2 0.13641462E+00 0.35255922E+03</pdfrwt>
<pdfrwt beam="2">  1       -2 0.46488677E-02 0.35255922E+03</pdfrwt>
<totfact> 0.68179682E+03</totfact>
</mgrwt>
</event>
<event>
 4    1  0.1361667E-004  0.3000804E+03  0.7818608E-02  0.1085200E+00
          2   -1    0    0  501    0  0.00000000000E+00  0.00000000000E+00  0.32695074176E+03  0.32695074177E+03  0.25500000000E-02 0. -1.
         -2   -1    0    0    0  501 -0.00000000000E+00 -0.00000000000E+00 -0.68854582531E+02  0.68854582578E+02  0.25500000000E-02 0.  1.
    5000001    1    1    2    0    0  0.15847126462E+00 -0.72722638044E+02  0.85412380288E+02  0.16944875893E+03  0.12700000000E+03 0.  0.
   -5000001    1    1    2    0    0 -0.15847126462E+00  0.72722638044E+02  0.17268377894E+03  0.22635656542E+03  0.12700000000E+03 0.  0.
<mgrwt>
<rscale>  0 0.30008037E+03</rscale>
<asrwt>0</asrwt>
<pdfrwt beam="1">  1        2 0.46707249E-01 0.30008037E+03</pdfrwt>
<pdfrwt beam="2">  1       -2 0.98363690E-02 0.30008037E+03</pdfrwt>
<totfact> 0.73313956E+03</totfact>
</mgrwt>
</event>
<event>
 4    1  0.1361667E-004  0.3316223E+03  0.7818608E-02  0.1070421E+00
         -2   -1    0    0    0  501 -0.00000000000E+00  0.00000000000E+00  0.13726071806E+03  0.13726071809E+03  0.25500000000E-02 0. -1.
          2   -1    0    0  501    0  0.00000000000E+00 -0.00000000000E+00 -0.20030009202E+03  0.20030009204E+03  0.25500000000E-02 0.  1.
    5000001    1    1    2    0    0 -0.77956987596E+02 -0.63660588510E+01  0.42210241319E+02  0.15501136440E+03  0.12700000000E+03 0.  0.
   -5000001    1    1    2    0    0  0.77956987596E+02  0.63660588510E+01 -0.10524961528E+03  0.18254944573E+03  0.12700000000E+03 0.  0.
<mgrwt>
<rscale>  0 0.33162228E+03</rscale>
<asrwt>0</asrwt>
<pdfrwt beam="1">  1        2 0.28614299E-01 0.33162228E+03</pdfrwt>
<pdfrwt beam="2">  1       -2 0.19608674E-01 0.33162228E+03</pdfrwt>
<totfact> 0.40279542E+03</totfact>
</mgrwt>
</event>
<event>
 4    1  0.1361667E-004  0.3205700E+03  0.7818608E-02  0.1075387E+00
          2   -1    0    0  501    0  0.00000000000E+00  0.00000000000E+00  0.25487689451E+04  0.25487689451E+04  0.25500000000E-02 0.  1.
         -2   -1    0    0    0  501 -0.00000000000E+00 -0.00000000000E+00 -0.10079880875E+02  0.10079881198E+02  0.25500000000E-02 0. -1.
    5000001    1    1    2    0    0 -0.76235230328E+02  0.61230208385E+02  0.12785811214E+04  0.12885882324E+04  0.12700000000E+03 0.  0.
   -5000001    1    1    2    0    0  0.76235230328E+02 -0.61230208385E+02  0.12601079428E+04  0.12702605939E+04  0.12700000000E+03 0.  0.
<mgrwt>
<rscale>  0 0.32057004E+03</rscale>
<asrwt>0</asrwt>
<pdfrwt beam="1">  1        2 0.36411011E+00 0.32057004E+03</pdfrwt>
<pdfrwt beam="2">  1       -2 0.14399820E-02 0.32057004E+03</pdfrwt>
<totfact> 0.59346831E+03</totfact>
</mgrwt>
</event>
<event>
 4    1  0.1361667E-004  0.3369499E+03  0.7818608E-02  0.1068102E+00
         -2   -1    0    0    0  501 -0.00000000000E+00  0.00000000000E+00  0.79853944690E+02  0.79853944731E+02  0.25500000000E-02 0. -1.
          2   -1    0    0  501    0  0.00000000000E+00 -0.00000000000E+00 -0.35544657178E+03  0.35544657179E+03  0.25500000000E-02 0.  1.
    5000001    1    1    2    0    0 -0.57047443132E+02 -0.83083162139E+02 -0.19696391442E+03  0.25510979241E+03  0.12700000000E+03 0.  0.
   -5000001    1    1    2    0    0  0.57047443132E+02  0.83083162139E+02 -0.78628712665E+02  0.18019072411E+03  0.12700000000E+03 0.  0.
<mgrwt>
<rscale>  0 0.33694991E+03</rscale>
<asrwt>0</asrwt>
<pdfrwt beam="1">  1        2 0.50778081E-01 0.33694991E+03</pdfrwt>
<pdfrwt beam="2">  1       -2 0.11407707E-01 0.33694991E+03</pdfrwt>
<totfact> 0.53013088E+03</totfact>
</mgrwt>
</event>
<event>
 4    1  0.1361667E-004  0.3490656E+03  0.7818608E-02  0.1062999E+00
         -2   -1    0    0    0  501 -0.00000000000E+00  0.00000000000E+00  0.31912852730E+02  0.31912852832E+02  0.25500000000E-02 0. -1.
          2   -1    0    0  501    0  0.00000000000E+00 -0.00000000000E+00 -0.95452782364E+03  0.95452782364E+03  0.25500000000E-02 0.  1.
    5000001    1    1    2    0    0  0.81166012170E+02 -0.60804569138E+02 -0.64109604650E+03  0.66137603373E+03  0.12700000000E+03 0.  0.
   -5000001    1    1    2    0    0 -0.81166012170E+02  0.60804569138E+02 -0.28151892441E+03  0.32506464274E+03  0.12700000000E+03 0.  0.
<mgrwt>
<rscale>  0 0.34906564E+03</rscale>
<asrwt>0</asrwt>
<pdfrwt beam="1">  1        2 0.13636110E+00 0.34906564E+03</pdfrwt>
<pdfrwt beam="2">  1       -2 0.45589796E-02 0.34906564E+03</pdfrwt>
<totfact> 0.70261348E+03</totfact>
</mgrwt>
</event>
<event>
 4    1  0.1361667E-004  0.7402067E+03  0.7818608E-02  0.9650841E-01
         -2   -1    0    0    0  501 -0.00000000000E+00  0.00000000000E+00  0.46031591483E+02  0.46031591553E+02  0.25500000000E-02 0. -1.
          2   -1    0    0  501    0  0.00000000000E+00 -0.00000000000E+00 -0.29757058344E+04  0.29757058344E+04  0.25500000000E-02 0.  1.
    5000001    1    1    2    0    0 -0.20870264945E+03 -0.27533285593E+03 -0.13076558513E+04  0.13584762798E+04  0.12700000000E+03 0.  0.
   -5000001    1    1    2    0    0  0.20870264945E+03  0.27533285593E+03 -0.16220183917E+04  0.16632611462E+04  0.12700000000E+03 0.  0.
<mgrwt>
<rscale>  0 0.74020666E+03</rscale>
<asrwt>0</asrwt>
<pdfrwt beam="1">  1        2 0.42510071E+00 0.74020666E+03</pdfrwt>
<pdfrwt beam="2">  1       -2 0.65759435E-02 0.74020666E+03</pdfrwt>
<totfact> 0.34272702E+02</totfact>
</mgrwt>
</event>
<event>
 4    1  0.1361667E-004  0.4377325E+03  0.7818608E-02  0.1031445E+00
          2   -1    0    0  501    0  0.00000000000E+00  0.00000000000E+00  0.13814658745E+04  0.13814658745E+04  0.25500000000E-02 0.  1.
         -2   -1    0    0    0  501 -0.00000000000E+00 -0.00000000000E+00 -0.34675077631E+02  0.34675077724E+02  0.25500000000E-02 0. -1.
    5000001    1    1    2    0    0  0.11007774013E+03  0.98166216246E+02  0.34955911075E+03  0.40009284771E+03  0.12700000000E+03 0.  0.
   -5000001    1    1    2    0    0 -0.11007774013E+03 -0.98166216246E+02  0.99723168612E+03  0.10160481045E+04  0.12700000000E+03 0.  0.
<mgrwt>
<rscale>  0 0.43773251E+03</rscale>
<asrwt>0</asrwt>
<pdfrwt beam="1">  1        2 0.19735222E+00 0.43773251E+03</pdfrwt>
<pdfrwt beam="2">  1       -2 0.49535836E-02 0.43773251E+03</pdfrwt>
<totfact> 0.35732190E+03</totfact>
</mgrwt>
</event>
<event>
 4    1  0.1361667E-004  0.3557855E+03  0.7818608E-02  0.1060265E+00
          2   -1    0    0  501    0  0.00000000000E+00  0.00000000000E+00  0.92432140273E+03  0.92432140274E+03  0.25500000000E-02 0.  1.
         -2   -1    0    0    0  501 -0.00000000000E+00 -0.00000000000E+00 -0.34236823231E+02  0.34236823326E+02  0.25500000000E-02 0. -1.
    5000001    1    1    2    0    0 -0.91389882927E+02 -0.36935340617E+02  0.23984910856E+03  0.28874370117E+03  0.12700000000E+03 0.  0.
   -5000001    1    1    2    0    0  0.91389882927E+02  0.36935340617E+02  0.65023547094E+03  0.66981452489E+03  0.12700000000E+03 0.  0.
<mgrwt>
<rscale>  0 0.35578549E+03</rscale>
<asrwt>0</asrwt>
<pdfrwt beam="1">  1        2 0.13204593E+00 0.35578549E+03</pdfrwt>
<pdfrwt beam="2">  1       -2 0.48909743E-02 0.35578549E+03</pdfrwt>
<totfact> 0.65907801E+03</totfact>
</mgrwt>
</event>
<event>
 4    1  0.1361667E-004  0.3367254E+03  0.7818608E-02  0.1068199E+00
          2   -1    0    0  501    0  0.00000000000E+00  0.00000000000E+00  0.48450271568E+03  0.48450271569E+03  0.25500000000E-02 0.  1.
         -2   -1    0    0    0  501 -0.00000000000E+00 -0.00000000000E+00 -0.58505331918E+02  0.58505331973E+02  0.25500000000E-02 0. -1.
    5000001    1    1    2    0    0 -0.55255558522E+02  0.67645201173E+02  0.32222805684E+03  0.35719598347E+03  0.12700000000E+03 0.  0.
   -5000001    1    1    2    0    0  0.55255558522E+02 -0.67645201173E+02  0.10376932692E+03  0.18581206419E+03  0.12700000000E+03 0.  0.
<mgrwt>
<rscale>  0 0.33672536E+03</rscale>
<asrwt>0</asrwt>
<pdfrwt beam="1">  1        2 0.69214676E-01 0.33672536E+03</pdfrwt>
<pdfrwt beam="2">  1       -2 0.83579043E-02 0.33672536E+03</pdfrwt>
<totfact> 0.62038646E+03</totfact>
</mgrwt>
</event>
<event>
 4    1  0.1361667E-004  0.6668965E+03  0.7818608E-02  0.9775581E-01
          2   -1    0    0  501    0  0.00000000000E+00  0.00000000000E+00  0.43252439983E+03  0.43252439984E+03  0.25500000000E-02 0.  1.
         -2   -1    0    0    0  501 -0.00000000000E+00 -0.00000000000E+00 -0.25706700381E+03  0.25706700382E+03  0.25500000000E-02 0. -1.
    5000001    1    1    2    0    0  0.23432679157E+03  0.27807471772E+02 -0.11745915802E+03  0.29258837047E+03  0.12700000000E+03 0.  0.
   -5000001    1    1    2    0    0 -0.23432679157E+03 -0.27807471772E+02  0.29291655404E+03  0.39700303319E+03  0.12700000000E+03 0.  0.
<mgrwt>
<rscale>  0 0.66689655E+03</rscale>
<asrwt>0</asrwt>
<pdfrwt beam="1">  1        2 0.61789200E-01 0.66689655E+03</pdfrwt>
<pdfrwt beam="2">  1       -2 0.36723858E-01 0.66689655E+03</pdfrwt>
<totfact> 0.55640155E+02</totfact>
</mgrwt>
</event>
<event>
 4    1  0.1361667E-004  0.3684201E+03  0.7818608E-02  0.1055299E+00
          2   -1    0    0  501    0  0.00000000000E+00  0.00000000000E+00  0.30884520273E+03  0.30884520274E+03  0.25500000000E-02 0.  1.
         -2   -1    0    0    0  501 -0.00000000000E+00 -0.00000000000E+00 -0.10987168572E+03  0.10987168575E+03  0.25500000000E-02 0. -1.
    5000001    1    1    2    0    0 -0.10443435478E+03  0.82360922110E+02  0.11164737112E+03  0.21513714562E+03  0.12700000000E+03 0.  0.
   -5000001    1    1    2    0    0  0.10443435478E+03 -0.82360922110E+02  0.87326145896E+02  0.20357974287E+03  0.12700000000E+03 0.  0.
<mgrwt>
<rscale>  0 0.36842010E+03</rscale>
<asrwt>0</asrwt>
<pdfrwt beam="1">  1        2 0.44120743E-01 0.36842010E+03</pdfrwt>
<pdfrwt beam="2">  1       -2 0.15695955E-01 0.36842010E+03</pdfrwt>
<totfact> 0.36631984E+03</totfact>
</mgrwt>
</event>
<event>
 4    1  0.1361667E-004  0.2681630E+03  0.7818608E-02  0.1102336E+00
         -2   -1    0    0    0  501 -0.00000000000E+00  0.00000000000E+00  0.80010884754E+01  0.80010888817E+01  0.25500000000E-02 0. -1.
          2   -1    0    0  501    0  0.00000000000E+00 -0.00000000000E+00 -0.22469253448E+04  0.22469253448E+04  0.25500000000E-02 0.  1.
    5000001    1    1    2    0    0  0.51337486174E+01 -0.40856151194E+02 -0.12235643355E+04  0.12308266586E+04  0.12700000000E+03 0.  0.
   -5000001    1    1    2    0    0 -0.51337486174E+01  0.40856151194E+02 -0.10153599209E+04  0.10240997751E+04  0.12700000000E+03 0.  0.
<mgrwt>
<rscale>  0 0.26816300E+03</rscale>
<asrwt>0</asrwt>
<pdfrwt beam="1">  1        2 0.32098893E+00 0.26816300E+03</pdfrwt>
<pdfrwt beam="2">  1       -2 0.11430141E-02 0.26816300E+03</pdfrwt>
<totfact> 0.11735082E+04</totfact>
</mgrwt>
</event>
<event>
 4    1  0.1361667E-004  0.3516376E+03  0.7818608E-02  0.1061945E+00
         -2   -1    0    0    0  501 -0.00000000000E+00  0.00000000000E+00  0.12321866163E+03  0.12321866166E+03  0.25500000000E-02 0. -1.
          2   -1    0    0  501    0  0.00000000000E+00 -0.00000000000E+00 -0.25087307575E+03  0.25087307576E+03  0.25500000000E-02 0.  1.
    5000001    1    1    2    0    0  0.22293785043E+02  0.65243315229E+02  0.42715417672E+02  0.15068944867E+03  0.12700000000E+03 0.  0.
   -5000001    1    1    2    0    0 -0.22293785043E+02 -0.65243315229E+02 -0.17036983179E+03  0.22340228875E+03  0.12700000000E+03 0.  0.
<mgrwt>
<rscale>  0 0.35163757E+03</rscale>
<asrwt>0</asrwt>
<pdfrwt beam="1">  1        2 0.35839011E-01 0.35163757E+03</pdfrwt>
<pdfrwt beam="2">  1       -2 0.17602666E-01 0.35163757E+03</pdfrwt>
<totfact> 0.37841372E+03</totfact>
</mgrwt>
</event>
<event>
 4    1  0.1361667E-004  0.2996531E+03  0.7818608E-02  0.1085414E+00
         -2   -1    0    0    0  501 -0.00000000000E+00  0.00000000000E+00  0.25847632054E+02  0.25847632180E+02  0.25500000000E-02 0. -1.
          2   -1    0    0  501    0  0.00000000000E+00 -0.00000000000E+00 -0.86847382854E+03  0.86847382854E+03  0.25500000000E-02 0.  1.
    5000001    1    1    2    0    0 -0.72957693945E+02 -0.25442573805E+02 -0.36557020396E+03  0.39463999252E+03  0.12700000000E+03 0.  0.
   -5000001    1    1    2    0    0  0.72957693945E+02  0.25442573805E+02 -0.47705599252E+03  0.49968146820E+03  0.12700000000E+03 0.  0.
<mgrwt>
<rscale>  0 0.29965308E+03</rscale>
<asrwt>0</asrwt>
<pdfrwt beam="1">  1        2 0.12406767E+00 0.29965308E+03</pdfrwt>
<pdfrwt beam="2">  1       -2 0.36925194E-02 0.29965308E+03</pdfrwt>
<totfact> 0.10894356E+04</totfact>
</mgrwt>
</event>
<event>
 4    1  0.1361667E-004  0.3554787E+03  0.7818608E-02  0.1060389E+00
         -2   -1    0    0    0  501 -0.00000000000E+00  0.00000000000E+00  0.21505028405E+03  0.21505028407E+03  0.25500000000E-02 0. -1.
          2   -1    0    0  501    0  0.00000000000E+00 -0.00000000000E+00 -0.14690179661E+03  0.14690179664E+03  0.25500000000E-02 0.  1.
    5000001    1    1    2    0    0 -0.12020402383E+03  0.20706151333E+02  0.94571037549E+01  0.17634111506E+03  0.12700000000E+03 0.  0.
   -5000001    1    1    2    0    0  0.12020402383E+03 -0.20706151333E+02  0.58691383685E+02  0.18561096565E+03  0.12700000000E+03 0.  0.
<mgrwt>
<rscale>  0 0.35547868E+03</rscale>
<asrwt>0</asrwt>
<pdfrwt beam="1">  1        2 0.20985971E-01 0.35547868E+03</pdfrwt>
<pdfrwt beam="2">  1       -2 0.30721469E-01 0.35547868E+03</pdfrwt>
<totfact> 0.25846284E+03</totfact>
</mgrwt>
</event>
<event>
 4    1  0.1361667E-004  0.4839676E+03  0.7818608E-02  0.1018050E+00
          2   -1    0    0  501    0  0.00000000000E+00  0.00000000000E+00  0.15103681552E+04  0.15103681552E+04  0.25500000000E-02 0.  1.
         -2   -1    0    0    0  501 -0.00000000000E+00 -0.00000000000E+00 -0.38769455737E+02  0.38769455821E+02  0.25500000000E-02 0. -1.
    5000001    1    1    2    0    0  0.15617445723E+03 -0.12884953596E+03  0.85703270046E+03  0.88973406907E+03  0.12700000000E+03 0.  0.
   -5000001    1    1    2    0    0 -0.15617445723E+03  0.12884953596E+03  0.61456599898E+03  0.65940354193E+03  0.12700000000E+03 0.  0.
<mgrwt>
<rscale>  0 0.48396757E+03</rscale>
<asrwt>0</asrwt>
<pdfrwt beam="1">  1        2 0.21576684E+00 0.48396757E+03</pdfrwt>
<pdfrwt beam="2">  1       -2 0.55384947E-02 0.48396757E+03</pdfrwt>
<totfact> 0.25753046E+03</totfact>
</mgrwt>
</event>
<event>
 4    1  0.1361667E-004  0.4743531E+03  0.7818608E-02  0.1020699E+00
         -2   -1    0    0    0  501 -0.00000000000E+00  0.00000000000E+00  0.66674162084E+03  0.66674162084E+03  0.25500000000E-02 0. -1.
          2   -1    0    0  501    0  0.00000000000E+00 -0.00000000000E+00 -0.84369603717E+02  0.84369603755E+02  0.25500000000E-02 0.  1.
    5000001    1    1    2    0    0  0.91174825208E+02  0.17335385145E+03  0.35760233669E+03  0.42705132920E+03  0.12700000000E+03 0.  0.
   -5000001    1    1    2    0    0 -0.91174825208E+02 -0.17335385145E+03  0.22476968043E+03  0.32405989540E+03  0.12700000000E+03 0.  0.
<mgrwt>
<rscale>  0 0.47435314E+03</rscale>
<asrwt>0</asrwt>
<pdfrwt beam="1">  1        2 0.12052801E-01 0.47435314E+03</pdfrwt>
<pdfrwt beam="2">  1       -2 0.95248801E-01 0.47435314E+03</pdfrwt>
<totfact> 0.49081860E+02</totfact>
</mgrwt>
</event>
<event>
 4    1  0.1361667E-004  0.5608505E+03  0.7818608E-02  0.9990132E-01
         -2   -1    0    0    0  501 -0.00000000000E+00  0.00000000000E+00  0.13867159589E+04  0.13867159589E+04  0.25500000000E-02 0. -1.
          2   -1    0    0  501    0  0.00000000000E+00 -0.00000000000E+00 -0.56708315376E+02  0.56708315434E+02  0.25500000000E-02 0.  1.
    5000001    1    1    2    0    0  0.43948230678E+02  0.17308447619E+03  0.21465716689E+03  0.30675133607E+03  0.12700000000E+03 0.  0.
   -5000001    1    1    2    0    0 -0.43948230678E+02 -0.17308447619E+03  0.11153504767E+04  0.11366729383E+04  0.12700000000E+03 0.  0.
<mgrwt>
<rscale>  0 0.56085052E+03</rscale>
<asrwt>0</asrwt>
<pdfrwt beam="1">  1        2 0.81011882E-02 0.56085052E+03</pdfrwt>
<pdfrwt beam="2">  1       -2 0.19810227E+00 0.56085052E+03</pdfrwt>
<totfact> 0.12247521E+02</totfact>
</mgrwt>
</event>
<event>
 4    1  0.1361667E-004  0.2899609E+03  0.7818608E-02  0.1090370E+00
          2   -1    0    0  501    0  0.00000000000E+00  0.00000000000E+00  0.91555961789E+03  0.91555961789E+03  0.25500000000E-02 0.  1.
         -2   -1    0    0    0  501 -0.00000000000E+00 -0.00000000000E+00 -0.22957898487E+02  0.22957898629E+02  0.25500000000E-02 0. -1.
    5000001    1    1    2    0    0 -0.45410633033E+02  0.48938132273E+02  0.51367240793E+03  0.53333423766E+03  0.12700000000E+03 0.  0.
   -5000001    1    1    2    0    0  0.45410633033E+02 -0.48938132273E+02  0.37892931147E+03  0.40518327886E+03  0.12700000000E+03 0.  0.
<mgrwt>
<rscale>  0 0.28996086E+03</rscale>
<asrwt>0</asrwt>
<pdfrwt beam="1">  1        2 0.13079422E+00 0.28996086E+03</pdfrwt>
<pdfrwt beam="2">  1       -2 0.32797002E-02 0.28996086E+03</pdfrwt>
<totfact> 0.12139736E+04</totfact>
</mgrwt>
</event>
<event>
 4    1  0.1361667E-004  0.4369203E+03  0.7818608E-02  0.1031696E+00
         -2   -1    0    0    0  501 -0.00000000000E+00  0.00000000000E+00  0.84069107209E+02  0.84069107247E+02  0.25500000000E-02 0.  1.
          2   -1    0    0  501    0  0.00000000000E+00 -0.00000000000E+00 -0.56768589308E+03  0.56768589308E+03  0.25500000000E-02 0. -1.
    5000001    1    1    2    0    0 -0.13642076018E+03  0.11349362213E+03 -0.25705152664E+03  0.33718824627E+03  0.12700000000E+03 0.  0.
   -5000001    1    1    2    0    0  0.13642076018E+03 -0.11349362213E+03 -0.22656525923E+03  0.31456675407E+03  0.12700000000E+03 0.  0.
<mgrwt>
<rscale>  0 0.43692034E+03</rscale>
<asrwt>0</asrwt>
<pdfrwt beam="1">  1        2 0.81097983E-01 0.43692034E+03</pdfrwt>
<pdfrwt beam="2">  1       -2 0.12009873E-01 0.43692034E+03</pdfrwt>
<totfact> 0.29155430E+03</totfact>
</mgrwt>
</event>
<event>
 4    1  0.1361667E-004  0.3859899E+03  0.7818608E-02  0.1048742E+00
          2   -1    0    0  501    0  0.00000000000E+00  0.00000000000E+00  0.11953772531E+04  0.11953772531E+04  0.25500000000E-02 0.  1.
         -2   -1    0    0    0  501 -0.00000000000E+00 -0.00000000000E+00 -0.31159238253E+02  0.31159238358E+02  0.25500000000E-02 0. -1.
    5000001    1    1    2    0    0  0.61666768613E+02 -0.11073392526E+03  0.35622262384E+03  0.39885880997E+03  0.12700000000E+03 0.  0.
   -5000001    1    1    2    0    0 -0.61666768613E+02  0.11073392526E+03  0.80799539105E+03  0.82767768153E+03  0.12700000000E+03 0.  0.
<mgrwt>
<rscale>  0 0.38598987E+03</rscale>
<asrwt>0</asrwt>
<pdfrwt beam="1">  1        2 0.17076818E+00 0.38598987E+03</pdfrwt>
<pdfrwt beam="2">  1       -2 0.44513197E-02 0.38598987E+03</pdfrwt>
<totfact> 0.52967370E+03</totfact>
</mgrwt>
</event>
<event>
 4    1  0.1361667E-004  0.5303332E+03  0.7818608E-02  0.1006151E+00
          2   -1    0    0  501    0  0.00000000000E+00  0.00000000000E+00  0.16068113676E+04  0.16068113676E+04  0.25500000000E-02 0.  1.
         -2   -1    0    0    0  501 -0.00000000000E+00 -0.00000000000E+00 -0.43759532555E+02  0.43759532630E+02  0.25500000000E-02 0. -1.
    5000001    1    1    2    0    0 -0.22161623359E+03  0.68903607749E+02  0.72560332195E+03  0.77232806694E+03  0.12700000000E+03 0.  0.
   -5000001    1    1    2    0    0  0.22161623359E+03 -0.68903607749E+02  0.83744851313E+03  0.87824283333E+03  0.12700000000E+03 0.  0.
<mgrwt>
<rscale>  0 0.53033316E+03</rscale>
<asrwt>0</asrwt>
<pdfrwt beam="1">  1        2 0.22954446E+00 0.53033316E+03</pdfrwt>
<pdfrwt beam="2">  1       -2 0.62513624E-02 0.53033316E+03</pdfrwt>
<totfact> 0.19005802E+03</totfact>
</mgrwt>
</event>
<event>
 4    1  0.1361667E-004  0.2871617E+03  0.7818608E-02  0.1091840E+00
          2   -1    0    0  501    0  0.00000000000E+00  0.00000000000E+00  0.20551658814E+04  0.20551658814E+04  0.25500000000E-02 0.  1.
         -2   -1    0    0    0  501 -0.00000000000E+00 -0.00000000000E+00 -0.10031041428E+02  0.10031041752E+02  0.25500000000E-02 0. -1.
    5000001    1    1    2    0    0  0.20465752874E+02  0.57472966034E+02  0.12214121027E+04  0.12295114939E+04  0.12700000000E+03 0.  0.
   -5000001    1    1    2    0    0 -0.20465752874E+02 -0.57472966034E+02  0.82372273722E+03  0.83568542927E+03  0.12700000000E+03 0.  0.
<mgrwt>
<rscale>  0 0.28716166E+03</rscale>
<asrwt>0</asrwt>
<pdfrwt beam="1">  1        2 0.29359497E+00 0.28716166E+03</pdfrwt>
<pdfrwt beam="2">  1       -2 0.14330067E-02 0.28716166E+03</pdfrwt>
<totfact> 0.10481541E+04</totfact>
</mgrwt>
</event>
<event>
 4    1  0.1361667E-004  0.3013265E+03  0.7818608E-02  0.1084579E+00
         -2   -1    0    0    0  501 -0.00000000000E+00  0.00000000000E+00  0.53016938710E+03  0.53016938711E+03  0.25500000000E-02 0. -1.
          2   -1    0    0  501    0  0.00000000000E+00 -0.00000000000E+00 -0.42815395599E+02  0.42815395675E+02  0.25500000000E-02 0.  1.
    5000001    1    1    2    0    0 -0.83325369471E+01  0.77085846459E+02  0.19872843519E+03  0.24826125321E+03  0.12700000000E+03 0.  0.
   -5000001    1    1    2    0    0  0.83325369471E+01 -0.77085846459E+02  0.28862555632E+03  0.32472352957E+03  0.12700000000E+03 0.  0.
<mgrwt>
<rscale>  0 0.30132648E+03</rscale>
<asrwt>0</asrwt>
<pdfrwt beam="1">  1        2 0.61164856E-02 0.30132648E+03</pdfrwt>
<pdfrwt beam="2">  1       -2 0.75738478E-01 0.30132648E+03</pdfrwt>
<totfact> 0.19394873E+03</totfact>
</mgrwt>
</event>
<event>
 4    1  0.1361667E-004  0.3600204E+03  0.7818608E-02  0.1058576E+00
         -2   -1    0    0    0  501 -0.00000000000E+00  0.00000000000E+00  0.40028629675E+02  0.40028629756E+02  0.25500000000E-02 0. -1.
          2   -1    0    0  501    0  0.00000000000E+00 -0.00000000000E+00 -0.80951260114E+03  0.80951260115E+03  0.25500000000E-02 0.  1.
    5000001    1    1    2    0    0  0.82991202130E+02  0.65856646086E+02 -0.21705289015E+03  0.27288384816E+03  0.12700000000E+03 0.  0.
   -5000001    1    1    2    0    0 -0.82991202130E+02 -0.65856646086E+02 -0.55243108132E+03  0.57665738274E+03  0.12700000000E+03 0.  0.
<mgrwt>
<rscale>  0 0.36002044E+03</rscale>
<asrwt>0</asrwt>
<pdfrwt beam="1">  1        2 0.11564465E+00 0.36002044E+03</pdfrwt>
<pdfrwt beam="2">  1       -2 0.57183762E-02 0.36002044E+03</pdfrwt>
<totfact> 0.61540910E+03</totfact>
</mgrwt>
</event>
<event>
 4    1  0.1361667E-004  0.4564892E+03  0.7818608E-02  0.1025804E+00
         -2   -1    0    0    0  501 -0.00000000000E+00  0.00000000000E+00  0.66146172897E+02  0.66146172946E+02  0.25500000000E-02 0. -1.
          2   -1    0    0  501    0  0.00000000000E+00 -0.00000000000E+00 -0.78758288205E+03  0.78758288206E+03  0.25500000000E-02 0.  1.
    5000001    1    1    2    0    0 -0.10441673303E+03  0.30472399169E+02 -0.65126426890E+03  0.67238796033E+03  0.12700000000E+03 0.  0.
   -5000001    1    1    2    0    0  0.10441673303E+03 -0.30472399169E+02 -0.70172440259E+02  0.18134109468E+03  0.12700000000E+03 0.  0.
<mgrwt>
<rscale>  0 0.45648918E+03</rscale>
<asrwt>0</asrwt>
<pdfrwt beam="1">  1        2 0.11251183E+00 0.45648918E+03</pdfrwt>
<pdfrwt beam="2">  1       -2 0.94494537E-02 0.45648918E+03</pdfrwt>
<totfact> 0.29043995E+03</totfact>
</mgrwt>
</event>
<event>
 4    1  0.1361667E-004  0.5348007E+03  0.7818608E-02  0.1005074E+00
          2   -1    0    0  501    0  0.00000000000E+00  0.00000000000E+00  0.40747269923E+04  0.40747269923E+04  0.25500000000E-02 0.  1.
         -2   -1    0    0    0  501 -0.00000000000E+00 -0.00000000000E+00 -0.17547912618E+02  0.17547912803E+02  0.25500000000E-02 0. -1.
    5000001    1    1    2    0    0  0.48147021946E+02  0.21237691217E+03  0.13462393539E+04  0.13696391811E+04  0.12700000000E+03 0.  0.
   -5000001    1    1    2    0    0 -0.48147021946E+02 -0.21237691217E+03  0.27109397258E+04  0.27226357239E+04  0.12700000000E+03 0.  0.
<mgrwt>
<rscale>  0 0.53480072E+03</rscale>
<asrwt>0</asrwt>
<pdfrwt beam="1">  1        2 0.58210419E+00 0.53480072E+03</pdfrwt>
<pdfrwt beam="2">  1       -2 0.25068432E-02 0.53480072E+03</pdfrwt>
<totfact> 0.33797987E+02</totfact>
</mgrwt>
</event>
<event>
 4    1  0.1361667E-004  0.9772196E+03  0.7818608E-02  0.9333889E-01
         -2   -1    0    0    0  501 -0.00000000000E+00  0.00000000000E+00  0.82649705226E+02  0.82649705265E+02  0.25500000000E-02 0. -1.
          2   -1    0    0  501    0  0.00000000000E+00 -0.00000000000E+00 -0.28885709673E+04  0.28885709673E+04  0.25500000000E-02 0.  1.
    5000001    1    1    2    0    0  0.13942114491E+03 -0.27817336115E+03 -0.32458760985E+03  0.46723098246E+03  0.12700000000E+03 0.  0.
   -5000001    1    1    2    0    0 -0.13942114491E+03  0.27817336115E+03 -0.24813336522E+04  0.25039896901E+04  0.12700000000E+03 0.  0.
<mgrwt>
<rscale>  0 0.97721960E+03</rscale>
<asrwt>0</asrwt>
<pdfrwt beam="1">  1        2 0.41265293E+00 0.97721960E+03</pdfrwt>
<pdfrwt beam="2">  1       -2 0.11807103E-01 0.97721960E+03</pdfrwt>
<totfact> 0.14519094E+02</totfact>
</mgrwt>
</event>
<event>
 4    1  0.1361667E-004  0.2932532E+03  0.7818608E-02  0.1088663E+00
          2   -1    0    0  501    0  0.00000000000E+00  0.00000000000E+00  0.25205421851E+04  0.25205421851E+04  0.25500000000E-02 0.  1.
         -2   -1    0    0    0  501 -0.00000000000E+00 -0.00000000000E+00 -0.85296562167E+01  0.85296565978E+01  0.25500000000E-02 0. -1.
    5000001    1    1    2    0    0  0.53496594522E+02 -0.49695454036E+02  0.12022622368E+04  0.12111544120E+04  0.12700000000E+03 0.  0.
   -5000001    1    1    2    0    0 -0.53496594522E+02  0.49695454036E+02  0.13097502921E+04  0.13179174296E+04  0.12700000000E+03 0.  0.
<mgrwt>
<rscale>  0 0.29325319E+03</rscale>
<asrwt>0</asrwt>
<pdfrwt beam="1">  1        2 0.36007757E+00 0.29325319E+03</pdfrwt>
<pdfrwt beam="2">  1       -2 0.12185219E-02 0.29325319E+03</pdfrwt>
<totfact> 0.78313606E+03</totfact>
</mgrwt>
</event>
<event>
 4    1  0.1361667E-004  0.2890136E+03  0.7818608E-02  0.1090865E+00
          2   -1    0    0  501    0  0.00000000000E+00  0.00000000000E+00  0.21010993199E+03  0.21010993201E+03  0.25500000000E-02 0.  1.
         -2   -1    0    0    0  501 -0.00000000000E+00 -0.00000000000E+00 -0.99387123033E+02  0.99387123066E+02  0.25500000000E-02 0. -1.
    5000001    1    1    2    0    0 -0.31668989773E+02 -0.41714763815E+02  0.10337399442E+03  0.17192506843E+03  0.12700000000E+03 0.  0.
   -5000001    1    1    2    0    0  0.31668989773E+02  0.41714763815E+02  0.73488145419E+01  0.13757198664E+03  0.12700000000E+03 0.  0.
<mgrwt>
<rscale>  0 0.28901364E+03</rscale>
<asrwt>0</asrwt>
<pdfrwt beam="1">  1        2 0.30015704E-01 0.28901364E+03</pdfrwt>
<pdfrwt beam="2">  1       -2 0.14198161E-01 0.28901364E+03</pdfrwt>
<totfact> 0.65386427E+03</totfact>
</mgrwt>
</event>
<event>
 4    1  0.1361667E-004  0.3210748E+03  0.7818608E-02  0.1075156E+00
          2   -1    0    0  501    0  0.00000000000E+00  0.00000000000E+00  0.57026210363E+03  0.57026210363E+03  0.25500000000E-02 0.  1.
         -2   -1    0    0    0  501 -0.00000000000E+00 -0.00000000000E+00 -0.45193715844E+02  0.45193715916E+02  0.25500000000E-02 0. -1.
    5000001    1    1    2    0    0 -0.84346000676E+02 -0.50237786751E+02  0.25817130539E+03  0.30400576635E+03  0.12700000000E+03 0.  0.
   -5000001    1    1    2    0    0  0.84346000676E+02  0.50237786751E+02  0.26689708239E+03  0.31145005320E+03  0.12700000000E+03 0.  0.
<mgrwt>
<rscale>  0 0.32107484E+03</rscale>
<asrwt>0</asrwt>
<pdfrwt beam="1">  1        2 0.81466018E-01 0.32107484E+03</pdfrwt>
<pdfrwt beam="2">  1       -2 0.64562449E-02 0.32107484E+03</pdfrwt>
<totfact> 0.77193610E+03</totfact>
</mgrwt>
</event>
<event>
 4    1  0.1361667E-004  0.3552089E+03  0.7818608E-02  0.1060497E+00
         -2   -1    0    0    0  501 -0.00000000000E+00  0.00000000000E+00  0.15790576455E+02  0.15790576661E+02  0.25500000000E-02 0. -1.
          2   -1    0    0  501    0  0.00000000000E+00 -0.00000000000E+00 -0.19976048997E+04  0.19976048997E+04  0.25500000000E-02 0.  1.
    5000001    1    1    2    0    0  0.12002151656E+03  0.25707455359E+02 -0.88512335878E+03  0.90257320920E+03  0.12700000000E+03 0.  0.
   -5000001    1    1    2    0    0 -0.12002151656E+03 -0.25707455359E+02 -0.10966909644E+04  0.11108222671E+04  0.12700000000E+03 0.  0.
<mgrwt>
<rscale>  0 0.35520886E+03</rscale>
<asrwt>0</asrwt>
<pdfrwt beam="1">  1        2 0.28537197E+00 0.35520886E+03</pdfrwt>
<pdfrwt beam="2">  1       -2 0.22557979E-02 0.35520886E+03</pdfrwt>
<totfact> 0.57376348E+03</totfact>
</mgrwt>
</event>
<event>
 4    1  0.1361667E-004  0.3315721E+03  0.7818608E-02  0.1070443E+00
         -2   -1    0    0    0  501 -0.00000000000E+00  0.00000000000E+00  0.96631152019E+02  0.96631152053E+02  0.25500000000E-02 0. -1.
          2   -1    0    0  501    0  0.00000000000E+00 -0.00000000000E+00 -0.28443230903E+03  0.28443230904E+03  0.25500000000E-02 0.  1.
    5000001    1    1    2    0    0 -0.91580887276E+02  0.13356952327E+02 -0.15461117963E+03  0.22045199921E+03  0.12700000000E+03 0.  0.
   -5000001    1    1    2    0    0  0.91580887276E+02 -0.13356952327E+02 -0.33189977383E+02  0.16061146188E+03  0.12700000000E+03 0.  0.
<mgrwt>
<rscale>  0 0.33157214E+03</rscale>
<asrwt>0</asrwt>
<pdfrwt beam="1">  1        2 0.40633186E-01 0.33157214E+03</pdfrwt>
<pdfrwt beam="2">  1       -2 0.13804450E-01 0.33157214E+03</pdfrwt>
<totfact> 0.49434954E+03</totfact>
</mgrwt>
</event>
<event>
 4    1  0.1361667E-004  0.4251735E+03  0.7818608E-02  0.1035396E+00
          2   -1    0    0  501    0  0.00000000000E+00  0.00000000000E+00  0.32692986300E+02  0.32692986399E+02  0.25500000000E-02 0.  1.
         -2   -1    0    0    0  501 -0.00000000000E+00 -0.00000000000E+00 -0.13823495563E+04  0.13823495563E+04  0.25500000000E-02 0. -1.
    5000001    1    1    2    0    0  0.13675835027E+03 -0.88284537506E+02 -0.84345529268E+03  0.86835639958E+03  0.12700000000E+03 0.  0.
   -5000001    1    1    2    0    0 -0.13675835027E+03  0.88284537506E+02 -0.50620127736E+03  0.54668614317E+03  0.12700000000E+03 0.  0.
<mgrwt>
<rscale>  0 0.42517354E+03</rscale>
<asrwt>0</asrwt>
<pdfrwt beam="1">  1        2 0.46704275E-02 0.42517354E+03</pdfrwt>
<pdfrwt beam="2">  1       -2 0.19747847E+00 0.42517354E+03</pdfrwt>
<totfact> 0.25747216E+02</totfact>
</mgrwt>
</event>
<event>
 4    1  0.1361667E-004  0.3856631E+03  0.7818608E-02  0.1048860E+00
         -2   -1    0    0    0  501 -0.00000000000E+00  0.00000000000E+00  0.14324807485E+03  0.14324807487E+03  0.25500000000E-02 0.  1.
          2   -1    0    0  501    0  0.00000000000E+00 -0.00000000000E+00 -0.25957767904E+03  0.25957767906E+03  0.25500000000E-02 0. -1.
    5000001    1    1    2    0    0  0.61736219948E+02  0.13126525247E+03 -0.61941718853E+02  0.20250358983E+03  0.12700000000E+03 0.  0.
   -5000001    1    1    2    0    0 -0.61736219948E+02 -0.13126525247E+03 -0.54387885340E+02  0.20032216410E+03  0.12700000000E+03 0.  0.
<mgrwt>
<rscale>  0 0.38566308E+03</rscale>
<asrwt>0</asrwt>
<pdfrwt beam="1">  1        2 0.37082526E-01 0.38566308E+03</pdfrwt>
<pdfrwt beam="2">  1       -2 0.20464011E-01 0.38566308E+03</pdfrwt>
<totfact> 0.28228401E+03</totfact>
</mgrwt>
</event>
<event>
 4    1  0.1361667E-004  0.6016859E+03  0.7818608E-02  0.9901914E-01
          2   -1    0    0  501    0  0.00000000000E+00  0.00000000000E+00  0.68327819986E+03  0.68327819986E+03  0.25500000000E-02 0.  1.
         -2   -1    0    0    0  501 -0.00000000000E+00 -0.00000000000E+00 -0.13245920647E+03  0.13245920649E+03  0.25500000000E-02 0. -1.
    5000001    1    1    2    0    0 -0.17828680025E+03 -0.16983960419E+03  0.43436140806E+03  0.51519948283E+03  0.12700000000E+03 0.  0.
   -5000001    1    1    2    0    0  0.17828680025E+03  0.16983960419E+03  0.11645758533E+03  0.30053792353E+03  0.12700000000E+03 0.  0.
<mgrwt>
<rscale>  0 0.60168593E+03</rscale>
<asrwt>0</asrwt>
<pdfrwt beam="1">  1        2 0.97611169E-01 0.60168593E+03</pdfrwt>
<pdfrwt beam="2">  1       -2 0.18922744E-01 0.60168593E+03</pdfrwt>
<totfact> 0.10922220E+03</totfact>
</mgrwt>
</event>
<event>
 4    1  0.1361667E-004  0.4328294E+03  0.7818608E-02  0.1032970E+00
         -2   -1    0    0    0  501 -0.00000000000E+00  0.00000000000E+00  0.13725071855E+03  0.13725071858E+03  0.25500000000E-02 0. -1.
          2   -1    0    0  501    0  0.00000000000E+00 -0.00000000000E+00 -0.34123920854E+03  0.34123920855E+03  0.25500000000E-02 0.  1.
    5000001    1    1    2    0    0  0.10016829169E+03  0.95598435296E+02  0.16729633721E+02  0.18863093102E+03  0.12700000000E+03 0.  0.
   -5000001    1    1    2    0    0 -0.10016829169E+03 -0.95598435296E+02 -0.22071812370E+03  0.28985899611E+03  0.12700000000E+03 0.  0.
<mgrwt>
<rscale>  0 0.43282942E+03</rscale>
<asrwt>0</asrwt>
<pdfrwt beam="1">  1        2 0.48748458E-01 0.43282942E+03</pdfrwt>
<pdfrwt beam="2">  1       -2 0.19607246E-01 0.43282942E+03</pdfrwt>
<totfact> 0.22584319E+03</totfact>
</mgrwt>
</event>
<event>
 4    1  0.1361667E-004  0.2944256E+03  0.7818608E-02  0.1088061E+00
         -2   -1    0    0    0  501 -0.00000000000E+00  0.00000000000E+00  0.95895784840E+01  0.95895788231E+01  0.25500000000E-02 0. -1.
          2   -1    0    0  501    0  0.00000000000E+00 -0.00000000000E+00 -0.22599131417E+04  0.22599131417E+04  0.25500000000E-02 0.  1.
    5000001    1    1    2    0    0 -0.44465998383E+02 -0.53995643566E+02 -0.13216629221E+04  0.13295919051E+04  0.12700000000E+03 0.  0.
   -5000001    1    1    2    0    0  0.44465998383E+02  0.53995643566E+02 -0.92866064114E+03  0.93991081542E+03  0.12700000000E+03 0.  0.
<mgrwt>
<rscale>  0 0.29442564E+03</rscale>
<asrwt>0</asrwt>
<pdfrwt beam="1">  1        2 0.32284439E+00 0.29442564E+03</pdfrwt>
<pdfrwt beam="2">  1       -2 0.13699412E-02 0.29442564E+03</pdfrwt>
<totfact> 0.88886823E+03</totfact>
</mgrwt>
</event>
<event>
 4    1  0.1361667E-004  0.1221338E+04  0.7818608E-02  0.9094382E-01
         -2   -1    0    0    0  501 -0.00000000000E+00  0.00000000000E+00  0.52531735940E+03  0.52531735941E+03  0.25500000000E-02 0. -1.
          2   -1    0    0  501    0  0.00000000000E+00 -0.00000000000E+00 -0.70988825364E+03  0.70988825364E+03  0.25500000000E-02 0.  1.
    5000001    1    1    2    0    0  0.12158732541E+03  0.51475169769E+03  0.18841749695E+03  0.57565870195E+03  0.12700000000E+03 0.  0.
   -5000001    1    1    2    0    0 -0.12158732541E+03 -0.51475169769E+03 -0.37298839119E+03  0.65954691110E+03  0.12700000000E+03 0.  0.
<mgrwt>
<rscale>  0 0.12213380E+04</rscale>
<asrwt>0</asrwt>
<pdfrwt beam="1">  1        2 0.10141261E+00 0.12213380E+04</pdfrwt>
<pdfrwt beam="2">  1       -2 0.75045337E-01 0.12213380E+04</pdfrwt>
<totfact> 0.69596297E+01</totfact>
</mgrwt>
</event>
<event>
 4    1  0.1361667E-004  0.3401362E+03  0.7818608E-02  0.1066738E+00
         -2   -1    0    0    0  501 -0.00000000000E+00  0.00000000000E+00  0.52649213176E+02  0.52649213238E+02  0.25500000000E-02 0. -1.
          2   -1    0    0  501    0  0.00000000000E+00 -0.00000000000E+00 -0.54935600800E+03  0.54935600801E+03  0.25500000000E-02 0.  1.
    5000001    1    1    2    0    0 -0.85293313018E+02 -0.40492901769E+02 -0.35859292506E+03  0.39195983244E+03  0.12700000000E+03 0.  0.
   -5000001    1    1    2    0    0  0.85293313018E+02  0.40492901769E+02 -0.13811386977E+03  0.21004538881E+03  0.12700000000E+03 0.  0.
<mgrwt>
<rscale>  0 0.34013622E+03</rscale>
<asrwt>0</asrwt>
<pdfrwt beam="1">  1        2 0.78479427E-01 0.34013622E+03</pdfrwt>
<pdfrwt beam="2">  1       -2 0.75213165E-02 0.34013622E+03</pdfrwt>
<totfact> 0.63616816E+03</totfact>
</mgrwt>
</event>
<event>
 4    1  0.1361667E-004  0.4083273E+03  0.7818608E-02  0.1040934E+00
          2   -1    0    0  501    0  0.00000000000E+00  0.00000000000E+00  0.12485033504E+04  0.12485033504E+04  0.25500000000E-02 0.  1.
         -2   -1    0    0    0  501 -0.00000000000E+00 -0.00000000000E+00 -0.33386211159E+02  0.33386211257E+02  0.25500000000E-02 0. -1.
    5000001    1    1    2    0    0 -0.59568257917E+02 -0.13922391723E+03  0.44680209306E+03  0.48856195804E+03  0.12700000000E+03 0.  0.
   -5000001    1    1    2    0    0  0.59568257917E+02  0.13922391723E+03  0.76831504623E+03  0.79332760367E+03  0.12700000000E+03 0.  0.
<mgrwt>
<rscale>  0 0.40832730E+03</rscale>
<asrwt>0</asrwt>
<pdfrwt beam="1">  1        2 0.17835760E+00 0.40832730E+03</pdfrwt>
<pdfrwt beam="2">  1       -2 0.47694593E-02 0.40832730E+03</pdfrwt>
<totfact> 0.44596977E+03</totfact>
</mgrwt>
</event>
<event>
 4    1  0.1361667E-004  0.4718337E+03  0.7818608E-02  0.1021404E+00
          2   -1    0    0  501    0  0.00000000000E+00  0.00000000000E+00  0.21021783741E+04  0.21021783741E+04  0.25500000000E-02 0. -1.
         -2   -1    0    0    0  501 -0.00000000000E+00 -0.00000000000E+00 -0.26475759856E+02  0.26475759979E+02  0.25500000000E-02 0.  1.
    5000001    1    1    2    0    0  0.15222469761E+03 -0.12071745956E+03  0.12283342147E+04  0.12500716006E+04  0.12700000000E+03 0.  0.
   -5000001    1    1    2    0    0 -0.15222469761E+03  0.12071745956E+03  0.84736839948E+03  0.87858253342E+03  0.12700000000E+03 0.  0.
<mgrwt>
<rscale>  0 0.47183374E+03</rscale>
<asrwt>0</asrwt>
<pdfrwt beam="1">  1        2 0.30031122E+00 0.47183374E+03</pdfrwt>
<pdfrwt beam="2">  1       -2 0.37822512E-02 0.47183374E+03</pdfrwt>
<totfact> 0.23334654E+03</totfact>
</mgrwt>
</event>
<event>
 4    1  0.1361667E-004  0.4005106E+03  0.7818608E-02  0.1043603E+00
         -2   -1    0    0    0  501 -0.00000000000E+00  0.00000000000E+00  0.46170048092E+02  0.46170048163E+02  0.25500000000E-02 0. -1.
          2   -1    0    0  501    0  0.00000000000E+00 -0.00000000000E+00 -0.86857557766E+03  0.86857557767E+03  0.25500000000E-02 0.  1.
    5000001    1    1    2    0    0  0.86418815652E+02 -0.51254256738E+02 -0.68026285284E+03  0.69927230711E+03  0.12700000000E+03 0.  0.
   -5000001    1    1    2    0    0 -0.86418815652E+02  0.51254256738E+02 -0.14214267672E+03  0.21547331872E+03  0.12700000000E+03 0.  0.
<mgrwt>
<rscale>  0 0.40051056E+03</rscale>
<asrwt>0</asrwt>
<pdfrwt beam="1">  1        2 0.12408222E+00 0.40051056E+03</pdfrwt>
<pdfrwt beam="2">  1       -2 0.65957217E-02 0.40051056E+03</pdfrwt>
<totfact> 0.45170743E+03</totfact>
</mgrwt>
</event>
<event>
 4    1  0.1361667E-004  0.8709566E+03  0.7818608E-02  0.9462633E-01
         -2   -1    0    0    0  501 -0.00000000000E+00  0.00000000000E+00  0.20991569528E+03  0.20991569530E+03  0.25500000000E-02 0. -1.
          2   -1    0    0  501    0  0.00000000000E+00 -0.00000000000E+00 -0.90341677453E+03  0.90341677453E+03  0.25500000000E-02 0.  1.
    5000001    1    1    2    0    0 -0.37796751318E+03 -0.11393792761E+03 -0.17682457356E+03  0.45081839157E+03  0.12700000000E+03 0.  0.
   -5000001    1    1    2    0    0  0.37796751318E+03  0.11393792761E+03 -0.51667650568E+03  0.66251407826E+03  0.12700000000E+03 0.  0.
<mgrwt>
<rscale>  0 0.87095662E+03</rscale>
<asrwt>0</asrwt>
<pdfrwt beam="1">  1        2 0.12905954E+00 0.87095662E+03</pdfrwt>
<pdfrwt beam="2">  1       -2 0.29987957E-01 0.87095662E+03</pdfrwt>
<totfact> 0.33216121E+02</totfact>
</mgrwt>
</event>
<event>
 4    1  0.1361667E-004  0.3264483E+03  0.7818608E-02  0.1072719E+00
         -2   -1    0    0    0  501 -0.00000000000E+00  0.00000000000E+00  0.39006463893E+03  0.39006463893E+03  0.25500000000E-02 0. -1.
          2   -1    0    0  501    0  0.00000000000E+00 -0.00000000000E+00 -0.68301797614E+02  0.68301797662E+02  0.25500000000E-02 0.  1.
    5000001    1    1    2    0    0  0.40589909430E+02  0.83434146805E+02  0.99608547981E+02  0.18617105154E+03  0.12700000000E+03 0.  0.
   -5000001    1    1    2    0    0 -0.40589909430E+02 -0.83434146805E+02  0.22215429333E+03  0.27219538506E+03  0.12700000000E+03 0.  0.
<mgrwt>
<rscale>  0 0.32644826E+03</rscale>
<asrwt>0</asrwt>
<pdfrwt beam="1">  1        2 0.97573998E-02 0.32644826E+03</pdfrwt>
<pdfrwt beam="2">  1       -2 0.55723519E-01 0.32644826E+03</pdfrwt>
<totfact> 0.20442380E+03</totfact>
</mgrwt>
</event>
<event>
 4    1  0.1361667E-004  0.5123480E+03  0.7818608E-02  0.1010605E+00
         -2   -1    0    0    0  501 -0.00000000000E+00  0.00000000000E+00  0.16979486557E+03  0.16979486559E+03  0.25500000000E-02 0. -1.
          2   -1    0    0  501    0  0.00000000000E+00 -0.00000000000E+00 -0.38649645030E+03  0.38649645030E+03  0.25500000000E-02 0.  1.
    5000001    1    1    2    0    0 -0.15199652196E+03 -0.14946251495E+03 -0.39217710879E+02  0.25121507700E+03  0.12700000000E+03 0.  0.
   -5000001    1    1    2    0    0  0.15199652196E+03  0.14946251495E+03 -0.17748387385E+03  0.30507623890E+03  0.12700000000E+03 0.  0.
<mgrwt>
<rscale>  0 0.51234798E+03</rscale>
<asrwt>0</asrwt>
<pdfrwt beam="1">  1        2 0.55213778E-01 0.51234798E+03</pdfrwt>
<pdfrwt beam="2">  1       -2 0.24256409E-01 0.51234798E+03</pdfrwt>
<totfact> 0.13581153E+03</totfact>
</mgrwt>
</event>
<event>
 4    1  0.1361667E-004  0.3881174E+03  0.7818608E-02  0.1047974E+00
         -2   -1    0    0    0  501 -0.00000000000E+00  0.00000000000E+00  0.47260106269E+02  0.47260106338E+02  0.25500000000E-02 0. -1.
          2   -1    0    0  501    0  0.00000000000E+00 -0.00000000000E+00 -0.79684063360E+03  0.79684063360E+03  0.25500000000E-02 0.  1.
    5000001    1    1    2    0    0  0.48189618144E+02 -0.99076174797E+02 -0.58555474294E+03  0.60921398924E+03  0.12700000000E+03 0.  0.
   -5000001    1    1    2    0    0 -0.48189618144E+02  0.99076174797E+02 -0.16402578439E+03  0.23488675070E+03  0.12700000000E+03 0.  0.
<mgrwt>
<rscale>  0 0.38811737E+03</rscale>
<asrwt>0</asrwt>
<pdfrwt beam="1">  1        2 0.11383437E+00 0.38811737E+03</pdfrwt>
<pdfrwt beam="2">  1       -2 0.67514442E-02 0.38811737E+03</pdfrwt>
<totfact> 0.48594263E+03</totfact>
</mgrwt>
</event>
<event>
 4    1  0.1361667E-004  0.5827345E+03  0.7818608E-02  0.9941888E-01
         -2   -1    0    0    0  501 -0.00000000000E+00  0.00000000000E+00  0.39859306262E+02  0.39859306344E+02  0.25500000000E-02 0. -1.
          2   -1    0    0  501    0  0.00000000000E+00 -0.00000000000E+00 -0.21298630523E+04  0.21298630523E+04  0.25500000000E-02 0.  1.
    5000001    1    1    2    0    0  0.17742621992E+03  0.18749639134E+03 -0.87312582750E+03  0.91930009841E+03  0.12700000000E+03 0.  0.
   -5000001    1    1    2    0    0 -0.17742621992E+03 -0.18749639134E+03 -0.12168779185E+04  0.12504222603E+04  0.12700000000E+03 0.  0.
<mgrwt>
<rscale>  0 0.58273446E+03</rscale>
<asrwt>0</asrwt>
<pdfrwt beam="1">  1        2 0.30426608E+00 0.58273446E+03</pdfrwt>
<pdfrwt beam="2">  1       -2 0.56941880E-02 0.58273446E+03</pdfrwt>
<totfact> 0.11961769E+03</totfact>
</mgrwt>
</event>
<event>
 4    1  0.1361667E-004  0.4273501E+03  0.7818608E-02  0.1034700E+00
          2   -1    0    0  501    0  0.00000000000E+00  0.00000000000E+00  0.12602236616E+04  0.12602236616E+04  0.25500000000E-02 0.  1.
         -2   -1    0    0    0  501 -0.00000000000E+00 -0.00000000000E+00 -0.36229311146E+02  0.36229311236E+02  0.25500000000E-02 0. -1.
    5000001    1    1    2    0    0  0.69852587188E+02  0.14200744358E+03  0.40888550750E+03  0.45646670877E+03  0.12700000000E+03 0.  0.
   -5000001    1    1    2    0    0 -0.69852587188E+02 -0.14200744358E+03  0.81510884293E+03  0.83998626405E+03  0.12700000000E+03 0.  0.
<mgrwt>
<rscale>  0 0.42735014E+03</rscale>
<asrwt>0</asrwt>
<pdfrwt beam="1">  1        2 0.18003191E+00 0.42735014E+03</pdfrwt>
<pdfrwt beam="2">  1       -2 0.51756171E-02 0.42735014E+03</pdfrwt>
<totfact> 0.38769674E+03</totfact>
</mgrwt>
</event>
<event>
 4    1  0.1361667E-004  0.3432213E+03  0.7818608E-02  0.1065432E+00
          2   -1    0    0  501    0  0.00000000000E+00  0.00000000000E+00  0.79639814056E+03  0.79639814057E+03  0.25500000000E-02 0.  1.
         -2   -1    0    0    0  501 -0.00000000000E+00 -0.00000000000E+00 -0.36979253423E+02  0.36979253511E+02  0.25500000000E-02 0. -1.
    5000001    1    1    2    0    0 -0.12899679146E+02 -0.10747871393E+03  0.28249018307E+03  0.32809720999E+03  0.12700000000E+03 0.  0.
   -5000001    1    1    2    0    0  0.12899679146E+02  0.10747871393E+03  0.47692870407E+03  0.50528018409E+03  0.12700000000E+03 0.  0.
<mgrwt>
<rscale>  0 0.34322126E+03</rscale>
<asrwt>0</asrwt>
<pdfrwt beam="1">  1        2 0.11377116E+00 0.34322126E+03</pdfrwt>
<pdfrwt beam="2">  1       -2 0.52827508E-02 0.34322126E+03</pdfrwt>
<totfact> 0.70872092E+03</totfact>
</mgrwt>
</event>
<event>
 4    1  0.1361667E-004  0.4785069E+03  0.7818608E-02  0.1019546E+00
          2   -1    0    0  501    0  0.00000000000E+00  0.00000000000E+00  0.46548834536E+03  0.46548834537E+03  0.25500000000E-02 0. -1.
         -2   -1    0    0    0  501 -0.00000000000E+00 -0.00000000000E+00 -0.12297237170E+03  0.12297237173E+03  0.25500000000E-02 0.  1.
    5000001    1    1    2    0    0  0.63531161086E+02 -0.18776732541E+03  0.22372860288E+03  0.32477109580E+03  0.12700000000E+03 0.  0.
   -5000001    1    1    2    0    0 -0.63531161086E+02  0.18776732541E+03  0.11878737078E+03  0.26368962129E+03  0.12700000000E+03 0.  0.
<mgrwt>
<rscale>  0 0.47850687E+03</rscale>
<asrwt>0</asrwt>
<pdfrwt beam="1">  1        2 0.66498334E-01 0.47850687E+03</pdfrwt>
<pdfrwt beam="2">  1       -2 0.17567482E-01 0.47850687E+03</pdfrwt>
<totfact> 0.19375508E+03</totfact>
</mgrwt>
</event>
<event>
 4    1  0.1361667E-004  0.2635730E+03  0.7818608E-02  0.1105015E+00
         -2   -1    0    0    0  501 -0.00000000000E+00  0.00000000000E+00  0.18666871134E+03  0.18666871136E+03  0.25500000000E-02 0. -1.
          2   -1    0    0  501    0  0.00000000000E+00 -0.00000000000E+00 -0.93040101506E+02  0.93040101541E+02  0.25500000000E-02 0.  1.
    5000001    1    1    2    0    0  0.22868240443E+02  0.88114876883E+01  0.20007695370E+02  0.13088126913E+03  0.12700000000E+03 0.  0.
   -5000001    1    1    2    0    0 -0.22868240443E+02 -0.88114876883E+01  0.73620914463E+02  0.14882754376E+03  0.12700000000E+03 0.  0.
<mgrwt>
<rscale>  0 0.26357296E+03</rscale>
<asrwt>0</asrwt>
<pdfrwt beam="1">  1        2 0.13291443E-01 0.26357296E+03</pdfrwt>
<pdfrwt beam="2">  1       -2 0.26666959E-01 0.26357296E+03</pdfrwt>
<totfact> 0.56566116E+03</totfact>
</mgrwt>
</event>
<event>
 4    1  0.1361667E-004  0.3822020E+03  0.7818608E-02  0.1050123E+00
          2   -1    0    0  501    0  0.00000000000E+00  0.00000000000E+00  0.12619199186E+04  0.12619199186E+04  0.25500000000E-02 0.  1.
         -2   -1    0    0    0  501 -0.00000000000E+00 -0.00000000000E+00 -0.28939710036E+02  0.28939710148E+02  0.25500000000E-02 0. -1.
    5000001    1    1    2    0    0  0.70518768824E+02  0.12401304205E+03  0.59554317693E+03  0.62542210302E+03  0.12700000000E+03 0.  0.
   -5000001    1    1    2    0    0 -0.70518768824E+02 -0.12401304205E+03  0.63743703159E+03  0.66543752569E+03  0.12700000000E+03 0.  0.
<mgrwt>
<rscale>  0 0.38220202E+03</rscale>
<asrwt>0</asrwt>
<pdfrwt beam="1">  1        2 0.18027429E+00 0.38220202E+03</pdfrwt>
<pdfrwt beam="2">  1       -2 0.41342439E-02 0.38220202E+03</pdfrwt>
<totfact> 0.54518213E+03</totfact>
</mgrwt>
</event>
<event>
 4    1  0.1361667E-004  0.7420217E+03  0.7818608E-02  0.9647951E-01
         -2   -1    0    0    0  501 -0.00000000000E+00  0.00000000000E+00  0.13996536302E+03  0.13996536304E+03  0.25500000000E-02 0. -1.
          2   -1    0    0  501    0  0.00000000000E+00 -0.00000000000E+00 -0.98345076391E+03  0.98345076391E+03  0.25500000000E-02 0.  1.
    5000001    1    1    2    0    0 -0.22778453588E+03 -0.23704523134E+03 -0.24619902393E+03  0.42990603144E+03  0.12700000000E+03 0.  0.
   -5000001    1    1    2    0    0  0.22778453588E+03  0.23704523134E+03 -0.59728637696E+03  0.69351009551E+03  0.12700000000E+03 0.  0.
<mgrwt>
<rscale>  0 0.74202168E+03</rscale>
<asrwt>0</asrwt>
<pdfrwt beam="1">  1        2 0.14049296E+00 0.74202168E+03</pdfrwt>
<pdfrwt beam="2">  1       -2 0.19995052E-01 0.74202168E+03</pdfrwt>
<totfact> 0.61616484E+02</totfact>
</mgrwt>
</event>
<event>
 4    1  0.1361667E-004  0.2840723E+03  0.7818608E-02  0.1093485E+00
          2   -1    0    0  501    0  0.00000000000E+00  0.00000000000E+00  0.11068557386E+04  0.11068557386E+04  0.25500000000E-02 0.  1.
         -2   -1    0    0    0  501 -0.00000000000E+00 -0.00000000000E+00 -0.18226642022E+02  0.18226642200E+02  0.25500000000E-02 0. -1.
    5000001    1    1    2    0    0 -0.47917224648E+02 -0.27067025581E+02  0.67059207821E+03  0.68472725932E+03  0.12700000000E+03 0.  0.
   -5000001    1    1    2    0    0  0.47917224648E+02  0.27067025581E+02  0.41803701832E+03  0.44035512144E+03  0.12700000000E+03 0.  0.
<mgrwt>
<rscale>  0 0.28407227E+03</rscale>
<asrwt>0</asrwt>
<pdfrwt beam="1">  1        2 0.15812225E+00 0.28407227E+03</pdfrwt>
<pdfrwt beam="2">  1       -2 0.26038060E-02 0.28407227E+03</pdfrwt>
<totfact> 0.13195691E+04</totfact>
</mgrwt>
</event>
<event>
 4    1  0.1361667E-004  0.3418341E+03  0.7818608E-02  0.1066017E+00
          2   -1    0    0  501    0  0.00000000000E+00  0.00000000000E+00  0.21775462623E+03  0.21775462625E+03  0.25500000000E-02 0.  1.
         -2   -1    0    0    0  501 -0.00000000000E+00 -0.00000000000E+00 -0.13415393871E+03  0.13415393873E+03  0.25500000000E-02 0. -1.
    5000001    1    1    2    0    0  0.11279419516E+03 -0.11197283740E+02  0.57606378446E+02  0.17970922198E+03  0.12700000000E+03 0.  0.
   -5000001    1    1    2    0    0 -0.11279419516E+03  0.11197283740E+02  0.25994309076E+02  0.17219934300E+03  0.12700000000E+03 0.  0.
<mgrwt>
<rscale>  0 0.34183412E+03</rscale>
<asrwt>0</asrwt>
<pdfrwt beam="1">  1        2 0.31107803E-01 0.34183412E+03</pdfrwt>
<pdfrwt beam="2">  1       -2 0.19164849E-01 0.34183412E+03</pdfrwt>
<totfact> 0.38225047E+03</totfact>
</mgrwt>
</event>
<event>
 4    1  0.1361667E-004  0.2735521E+03  0.7818608E-02  0.1099264E+00
          2   -1    0    0  501    0  0.00000000000E+00  0.00000000000E+00  0.77721246771E+02  0.77721246813E+02  0.25500000000E-02 0.  1.
         -2   -1    0    0    0  501 -0.00000000000E+00 -0.00000000000E+00 -0.24070240801E+03  0.24070240803E+03  0.25500000000E-02 0. -1.
    5000001    1    1    2    0    0  0.37070108112E+02  0.12411452980E+02 -0.11921771222E+03  0.17852198741E+03  0.12700000000E+03 0.  0.
   -5000001    1    1    2    0    0 -0.37070108112E+02 -0.12411452980E+02 -0.43763449024E+02  0.13990166743E+03  0.12700000000E+03 0.  0.
<mgrwt>
<rscale>  0 0.27355212E+03</rscale>
<asrwt>0</asrwt>
<pdfrwt beam="1">  1        2 0.11103035E-01 0.27355212E+03</pdfrwt>
<pdfrwt beam="2">  1       -2 0.34386058E-01 0.27355212E+03</pdfrwt>
<totfact> 0.44392769E+03</totfact>
</mgrwt>
</event>
<event>
 4    1  0.1361667E-004  0.4868196E+03  0.7818608E-02  0.1017278E+00
          2   -1    0    0  501    0  0.00000000000E+00  0.00000000000E+00  0.83428708105E+03  0.83428708105E+03  0.25500000000E-02 0.  1.
         -2   -1    0    0    0  501 -0.00000000000E+00 -0.00000000000E+00 -0.71016713669E+02  0.71016713714E+02  0.25500000000E-02 0. -1.
    5000001    1    1    2    0    0  0.55481389593E+02 -0.19967332140E+03  0.35726716722E+03  0.43210698750E+03  0.12700000000E+03 0.  0.
   -5000001    1    1    2    0    0 -0.55481389593E+02  0.19967332140E+03  0.40600320015E+03  0.47319680726E+03  0.12700000000E+03 0.  0.
<mgrwt>
<rscale>  0 0.48681958E+03</rscale>
<asrwt>0</asrwt>
<pdfrwt beam="1">  1        2 0.11918387E+00 0.48681958E+03</pdfrwt>
<pdfrwt beam="2">  1       -2 0.10145245E-01 0.48681958E+03</pdfrwt>
<totfact> 0.24084056E+03</totfact>
</mgrwt>
</event>
<event>
 4    1  0.1361667E-004  0.4038105E+03  0.7818608E-02  0.1042468E+00
          2   -1    0    0  501    0  0.00000000000E+00  0.00000000000E+00  0.13291595835E+04  0.13291595835E+04  0.25500000000E-02 0.  1.
         -2   -1    0    0    0  501 -0.00000000000E+00 -0.00000000000E+00 -0.30670311017E+02  0.30670311123E+02  0.25500000000E-02 0. -1.
    5000001    1    1    2    0    0  0.63565442285E+02  0.12799056625E+03  0.86786190620E+03  0.88867060193E+03  0.12700000000E+03 0.  0.
   -5000001    1    1    2    0    0 -0.63565442285E+02 -0.12799056625E+03  0.43062736627E+03  0.47115929268E+03  0.12700000000E+03 0.  0.
<mgrwt>
<rscale>  0 0.40381054E+03</rscale>
<asrwt>0</asrwt>
<pdfrwt beam="1">  1        2 0.18987991E+00 0.40381054E+03</pdfrwt>
<pdfrwt beam="2">  1       -2 0.43814736E-02 0.40381054E+03</pdfrwt>
<totfact> 0.45952754E+03</totfact>
</mgrwt>
</event>
<event>
 4    1  0.1361667E-004  0.6926365E+03  0.7818608E-02  0.9729908E-01
         -2   -1    0    0    0  501 -0.00000000000E+00  0.00000000000E+00  0.33699978050E+03  0.33699978051E+03  0.25500000000E-02 0. -1.
          2   -1    0    0  501    0  0.00000000000E+00 -0.00000000000E+00 -0.35589434415E+03  0.35589434416E+03  0.25500000000E-02 0.  1.
    5000001    1    1    2    0    0 -0.10855252119E+03 -0.16410607665E+03  0.24578065700E+03  0.33948723923E+03  0.12700000000E+03 0.  0.
   -5000001    1    1    2    0    0  0.10855252119E+03  0.16410607665E+03 -0.26467522064E+03  0.35340688543E+03  0.12700000000E+03 0.  0.
<mgrwt>
<rscale>  0 0.69263646E+03</rscale>
<asrwt>0</asrwt>
<pdfrwt beam="1">  1        2 0.50842049E-01 0.69263646E+03</pdfrwt>
<pdfrwt beam="2">  1       -2 0.48142826E-01 0.69263646E+03</pdfrwt>
<totfact> 0.40609039E+02</totfact>
</mgrwt>
</event>
<event>
 4    1  0.1361667E-004  0.4916699E+03  0.7818608E-02  0.1015976E+00
          2   -1    0    0  501    0  0.00000000000E+00  0.00000000000E+00  0.68977917474E+03  0.68977917475E+03  0.25500000000E-02 0.  1.
         -2   -1    0    0    0  501 -0.00000000000E+00 -0.00000000000E+00 -0.87614730950E+02  0.87614730987E+02  0.25500000000E-02 0. -1.
    5000001    1    1    2    0    0 -0.31343261216E+02  0.20730415268E+03  0.27156946558E+03  0.36583655692E+03  0.12700000000E+03 0.  0.
   -5000001    1    1    2    0    0  0.31343261216E+02 -0.20730415268E+03  0.33059497821E+03  0.41155734882E+03  0.12700000000E+03 0.  0.
<mgrwt>
<rscale>  0 0.49166988E+03</rscale>
<asrwt>0</asrwt>
<pdfrwt beam="1">  1        2 0.98539882E-01 0.49166988E+03</pdfrwt>
<pdfrwt beam="2">  1       -2 0.12516390E-01 0.49166988E+03</pdfrwt>
<totfact> 0.21680125E+03</totfact>
</mgrwt>
</event>
<event>
 4    1  0.1361667E-004  0.7834198E+03  0.7818608E-02  0.9584331E-01
          2   -1    0    0  501    0  0.00000000000E+00  0.00000000000E+00  0.29129319009E+04  0.29129319009E+04  0.25500000000E-02 0.  1.
         -2   -1    0    0    0  501 -0.00000000000E+00 -0.00000000000E+00 -0.52674302708E+02  0.52674302769E+02  0.25500000000E-02 0. -1.
    5000001    1    1    2    0    0  0.94832259241E+02  0.35584248569E+03  0.15857764386E+04  0.16329215980E+04  0.12700000000E+03 0.  0.
   -5000001    1    1    2    0    0 -0.94832259241E+02 -0.35584248569E+03  0.12744811596E+04  0.13326846057E+04  0.12700000000E+03 0.  0.
<mgrwt>
<rscale>  0 0.78341983E+03</rscale>
<asrwt>0</asrwt>
<pdfrwt beam="1">  1        2 0.41613317E+00 0.78341983E+03</pdfrwt>
<pdfrwt beam="2">  1       -2 0.75248996E-02 0.78341983E+03</pdfrwt>
<totfact> 0.29808525E+02</totfact>
</mgrwt>
</event>
<event>
 4    1  0.1361667E-004  0.4095265E+03  0.7818608E-02  0.1040530E+00
          2   -1    0    0  501    0  0.00000000000E+00  0.00000000000E+00  0.18071902500E+03  0.18071902501E+03  0.25500000000E-02 0. -1.
         -2   -1    0    0    0  501 -0.00000000000E+00 -0.00000000000E+00 -0.23200654094E+03  0.23200654096E+03  0.25500000000E-02 0.  1.
    5000001    1    1    2    0    0 -0.10040890764E+03 -0.59901541907E+02  0.85347603835E+02  0.19257039475E+03  0.12700000000E+03 0.  0.
   -5000001    1    1    2    0    0  0.10040890764E+03  0.59901541907E+02 -0.13663511978E+03  0.22015517122E+03  0.12700000000E+03 0.  0.
<mgrwt>
<rscale>  0 0.40952654E+03</rscale>
<asrwt>0</asrwt>
<pdfrwt beam="1">  1        2 0.25817004E-01 0.40952654E+03</pdfrwt>
<pdfrwt beam="2">  1       -2 0.33143791E-01 0.40952654E+03</pdfrwt>
<totfact> 0.17788526E+03</totfact>
</mgrwt>
</event>
<event>
 4    1  0.1361667E-004  0.4034254E+03  0.7818608E-02  0.1042600E+00
          2   -1    0    0  501    0  0.00000000000E+00  0.00000000000E+00  0.76568730836E+03  0.76568730837E+03  0.25500000000E-02 0.  1.
         -2   -1    0    0    0  501 -0.00000000000E+00 -0.00000000000E+00 -0.53139207061E+02  0.53139207123E+02  0.25500000000E-02 0. -1.
    5000001    1    1    2    0    0 -0.11207662583E+03  0.10940363365E+03  0.36714591535E+03  0.41887402434E+03  0.12700000000E+03 0.  0.
   -5000001    1    1    2    0    0  0.11207662583E+03 -0.10940363365E+03  0.34540218595E+03  0.39995249115E+03  0.12700000000E+03 0.  0.
<mgrwt>
<rscale>  0 0.40342542E+03</rscale>
<asrwt>0</asrwt>
<pdfrwt beam="1">  1        2 0.10938390E+00 0.40342542E+03</pdfrwt>
<pdfrwt beam="2">  1       -2 0.75913150E-02 0.40342542E+03</pdfrwt>
<totfact> 0.42531621E+03</totfact>
</mgrwt>
</event>
<event>
 4    1  0.1361667E-004  0.3218114E+03  0.7818608E-02  0.1074819E+00
         -2   -1    0    0    0  501 -0.00000000000E+00  0.00000000000E+00  0.64651784870E+02  0.64651784920E+02  0.25500000000E-02 0. -1.
          2   -1    0    0  501    0  0.00000000000E+00 -0.00000000000E+00 -0.40046284624E+03  0.40046284625E+03  0.25500000000E-02 0.  1.
    5000001    1    1    2    0    0  0.56291906105E+02  0.75599920150E+02 -0.21071944738E+03  0.26346880674E+03  0.12700000000E+03 0.  0.
   -5000001    1    1    2    0    0 -0.56291906105E+02 -0.75599920150E+02 -0.12509161399E+03  0.20164582443E+03  0.12700000000E+03 0.  0.
<mgrwt>
<rscale>  0 0.32181136E+03</rscale>
<asrwt>0</asrwt>
<pdfrwt beam="1">  1        2 0.57208976E-01 0.32181136E+03</pdfrwt>
<pdfrwt beam="2">  1       -2 0.92359695E-02 0.32181136E+03</pdfrwt>
<totfact> 0.65203455E+03</totfact>
</mgrwt>
</event>
<event>
 4    1  0.1361667E-004  0.3504825E+03  0.7818608E-02  0.1062417E+00
          2   -1    0    0  501    0  0.00000000000E+00  0.00000000000E+00  0.76929306887E+03  0.76929306887E+03  0.25500000000E-02 0.  1.
         -2   -1    0    0    0  501 -0.00000000000E+00 -0.00000000000E+00 -0.39919120610E+02  0.39919120692E+02  0.25500000000E-02 0. -1.
    5000001    1    1    2    0    0  0.11048541895E+02  0.11107976751E+03  0.47098741158E+03  0.50041875154E+03  0.12700000000E+03 0.  0.
   -5000001    1    1    2    0    0 -0.11048541895E+02 -0.11107976751E+03  0.25838653668E+03  0.30879343802E+03  0.12700000000E+03 0.  0.
<mgrwt>
<rscale>  0 0.35048254E+03</rscale>
<asrwt>0</asrwt>
<pdfrwt beam="1">  1        2 0.10989900E+00 0.35048254E+03</pdfrwt>
<pdfrwt beam="2">  1       -2 0.57027321E-02 0.35048254E+03</pdfrwt>
<totfact> 0.65811982E+03</totfact>
</mgrwt>
</event>
<event>
 4    1  0.1361667E-004  0.3579640E+03  0.7818608E-02  0.1059393E+00
          2   -1    0    0  501    0  0.00000000000E+00  0.00000000000E+00  0.25482354615E+03  0.25482354616E+03  0.25500000000E-02 0.  1.
         -2   -1    0    0    0  501 -0.00000000000E+00 -0.00000000000E+00 -0.12571268291E+03  0.12571268294E+03  0.25500000000E-02 0. -1.
    5000001    1    1    2    0    0 -0.95372955201E+02  0.81501293877E+02  0.50813994729E+02  0.18560582843E+03  0.12700000000E+03 0.  0.
   -5000001    1    1    2    0    0  0.95372955201E+02 -0.81501293877E+02  0.78296868504E+02  0.19493040067E+03  0.12700000000E+03 0.  0.
<mgrwt>
<rscale>  0 0.35796397E+03</rscale>
<asrwt>0</asrwt>
<pdfrwt beam="1">  1        2 0.36403364E-01 0.35796397E+03</pdfrwt>
<pdfrwt beam="2">  1       -2 0.17958955E-01 0.35796397E+03</pdfrwt>
<totfact> 0.35972756E+03</totfact>
</mgrwt>
</event>
<event>
 4    1  0.1361667E-004  0.3408452E+03  0.7818608E-02  0.1066437E+00
         -2   -1    0    0    0  501 -0.00000000000E+00  0.00000000000E+00  0.10254415970E+03  0.10254415973E+03  0.25500000000E-02 0. -1.
          2   -1    0    0  501    0  0.00000000000E+00 -0.00000000000E+00 -0.28323265765E+03  0.28323265766E+03  0.25500000000E-02 0.  1.
    5000001    1    1    2    0    0  0.65664946914E+02  0.75312723841E+02 -0.15161937152E+03  0.22158818887E+03  0.12700000000E+03 0.  0.
   -5000001    1    1    2    0    0 -0.65664946914E+02 -0.75312723841E+02 -0.29069126425E+02  0.16418862852E+03  0.12700000000E+03 0.  0.
<mgrwt>
<rscale>  0 0.34084515E+03</rscale>
<asrwt>0</asrwt>
<pdfrwt beam="1">  1        2 0.40461808E-01 0.34084515E+03</pdfrwt>
<pdfrwt beam="2">  1       -2 0.14649166E-01 0.34084515E+03</pdfrwt>
<totfact> 0.45058576E+03</totfact>
</mgrwt>
</event>
<event>
 4    1  0.1361667E-004  0.3198166E+03  0.7818608E-02  0.1075734E+00
         -2   -1    0    0    0  501 -0.00000000000E+00  0.00000000000E+00  0.39918820067E+02  0.39918820148E+02  0.25500000000E-02 0.  1.
          2   -1    0    0  501    0  0.00000000000E+00 -0.00000000000E+00 -0.64056675473E+03  0.64056675474E+03  0.25500000000E-02 0. -1.
    5000001    1    1    2    0    0  0.29702847675E+02  0.89460358501E+02 -0.35050672390E+03  0.38453787642E+03  0.12700000000E+03 0.  0.
   -5000001    1    1    2    0    0 -0.29702847675E+02 -0.89460358501E+02 -0.25014121077E+03  0.29594769847E+03  0.12700000000E+03 0.  0.
<mgrwt>
<rscale>  0 0.31981663E+03</rscale>
<asrwt>0</asrwt>
<pdfrwt beam="1">  1        2 0.91509531E-01 0.31981663E+03</pdfrwt>
<pdfrwt beam="2">  1       -2 0.57026889E-02 0.31981663E+03</pdfrwt>
<totfact> 0.81753364E+03</totfact>
</mgrwt>
</event>
<event>
 4    1  0.1361667E-004  0.5950202E+03  0.7818608E-02  0.9915792E-01
         -2   -1    0    0    0  501 -0.00000000000E+00  0.00000000000E+00  0.80298379208E+02  0.80298379248E+02  0.25500000000E-02 0. -1.
          2   -1    0    0  501    0  0.00000000000E+00 -0.00000000000E+00 -0.11022921126E+04  0.11022921126E+04  0.25500000000E-02 0.  1.
    5000001    1    1    2    0    0  0.10833070606E+03  0.15199497259E+03 -0.12589095496E+03  0.25848703277E+03  0.12700000000E+03 0.  0.
   -5000001    1    1    2    0    0 -0.10833070606E+03 -0.15199497259E+03 -0.89610277842E+03  0.92410345907E+03  0.12700000000E+03 0.  0.
<mgrwt>
<rscale>  0 0.59502024E+03</rscale>
<asrwt>0</asrwt>
<pdfrwt beam="1">  1        2 0.15747029E+00 0.59502024E+03</pdfrwt>
<pdfrwt beam="2">  1       -2 0.11471198E-01 0.59502024E+03</pdfrwt>
<totfact> 0.13436044E+03</totfact>
</mgrwt>
</event>
<event>
 4    1  0.1361667E-004  0.4268932E+03  0.7818608E-02  0.1034846E+00
         -2   -1    0    0    0  501 -0.00000000000E+00  0.00000000000E+00  0.20357461948E+02  0.20357462108E+02  0.25500000000E-02 0. -1.
          2   -1    0    0  501    0  0.00000000000E+00 -0.00000000000E+00 -0.22379728128E+04  0.22379728128E+04  0.25500000000E-02 0.  1.
    5000001    1    1    2    0    0  0.13831413348E+03 -0.98546277289E+02 -0.98049792941E+03  0.10031686587E+04  0.12700000000E+03 0.  0.
   -5000001    1    1    2    0    0 -0.13831413348E+03  0.98546277289E+02 -0.12371174215E+04  0.12551616162E+04  0.12700000000E+03 0.  0.
<mgrwt>
<rscale>  0 0.42689318E+03</rscale>
<asrwt>0</asrwt>
<pdfrwt beam="1">  1        2 0.31971025E+00 0.42689318E+03</pdfrwt>
<pdfrwt beam="2">  1       -2 0.29082103E-02 0.42689318E+03</pdfrwt>
<totfact> 0.29786142E+03</totfact>
</mgrwt>
</event>
<event>
 4    1  0.1361667E-004  0.5532645E+03  0.7818608E-02  0.1000741E+00
          2   -1    0    0  501    0  0.00000000000E+00  0.00000000000E+00  0.12603770409E+04  0.12603770409E+04  0.25500000000E-02 0.  1.
         -2   -1    0    0    0  501 -0.00000000000E+00 -0.00000000000E+00 -0.60716268053E+02  0.60716268107E+02  0.25500000000E-02 0. -1.
    5000001    1    1    2    0    0 -0.19866635256E+03 -0.39518702820E+02  0.93212593845E+03  0.96229819320E+03  0.12700000000E+03 0.  0.
   -5000001    1    1    2    0    0  0.19866635256E+03  0.39518702820E+02  0.26753483442E+03  0.35879511583E+03  0.12700000000E+03 0.  0.
<mgrwt>
<rscale>  0 0.55326446E+03</rscale>
<asrwt>0</asrwt>
<pdfrwt beam="1">  1        2 0.18005386E+00 0.55326446E+03</pdfrwt>
<pdfrwt beam="2">  1       -2 0.86737528E-02 0.55326446E+03</pdfrwt>
<totfact> 0.17224482E+03</totfact>
</mgrwt>
</event>
<event>
 4    1  0.1361667E-004  0.2976607E+03  0.7818608E-02  0.1086416E+00
          2   -1    0    0  501    0  0.00000000000E+00  0.00000000000E+00  0.12365099444E+04  0.12365099444E+04  0.25500000000E-02 0.  1.
         -2   -1    0    0    0  501 -0.00000000000E+00 -0.00000000000E+00 -0.17913706994E+02  0.17913707175E+02  0.25500000000E-02 0. -1.
    5000001    1    1    2    0    0  0.53794078546E+02  0.52731641491E+02  0.53078946973E+03  0.55094545109E+03  0.12700000000E+03 0.  0.
   -5000001    1    1    2    0    0 -0.53794078546E+02 -0.52731641491E+02  0.68780676769E+03  0.70347820050E+03  0.12700000000E+03 0.  0.
<mgrwt>
<rscale>  0 0.29766073E+03</rscale>
<asrwt>0</asrwt>
<pdfrwt beam="1">  1        2 0.17664427E+00 0.29766073E+03</pdfrwt>
<pdfrwt beam="2">  1       -2 0.25591011E-02 0.29766073E+03</pdfrwt>
<totfact> 0.11506351E+04</totfact>
</mgrwt>
</event>
<event>
 4    1  0.1361667E-004  0.4502378E+03  0.7818608E-02  0.1027651E+00
         -2   -1    0    0    0  501 -0.00000000000E+00  0.00000000000E+00  0.43498047130E+02  0.43498047204E+02  0.25500000000E-02 0. -1.
          2   -1    0    0  501    0  0.00000000000E+00 -0.00000000000E+00 -0.11650755046E+04  0.11650755046E+04  0.25500000000E-02 0.  1.
    5000001    1    1    2    0    0 -0.25984073325E+02 -0.16625052694E+03 -0.34882923758E+03  0.40758464982E+03  0.12700000000E+03 0.  0.
   -5000001    1    1    2    0    0  0.25984073325E+02  0.16625052694E+03 -0.77274821989E+03  0.80098890200E+03  0.12700000000E+03 0.  0.
<mgrwt>
<rscale>  0 0.45023776E+03</rscale>
<asrwt>0</asrwt>
<pdfrwt beam="1">  1        2 0.16643934E+00 0.45023776E+03</pdfrwt>
<pdfrwt beam="2">  1       -2 0.62140075E-02 0.45023776E+03</pdfrwt>
<totfact> 0.32961694E+03</totfact>
</mgrwt>
</event>
<event>
 4    1  0.1361667E-004  0.5545368E+03  0.7818608E-02  0.1000449E+00
         -2   -1    0    0    0  501 -0.00000000000E+00  0.00000000000E+00  0.86921681032E+02  0.86921681069E+02  0.25500000000E-02 0. -1.
          2   -1    0    0  501    0  0.00000000000E+00 -0.00000000000E+00 -0.88444854350E+03  0.88444854351E+03  0.25500000000E-02 0.  1.
    5000001    1    1    2    0    0  0.19449090854E+03  0.49771648815E+02 -0.14829895844E+03  0.28004555273E+03  0.12700000000E+03 0.  0.
   -5000001    1    1    2    0    0 -0.19449090854E+03 -0.49771648815E+02 -0.64922790403E+03  0.69132467184E+03  0.12700000000E+03 0.  0.
<mgrwt>
<rscale>  0 0.55453676E+03</rscale>
<asrwt>0</asrwt>
<pdfrwt beam="1">  1        2 0.12634979E+00 0.55453676E+03</pdfrwt>
<pdfrwt beam="2">  1       -2 0.12417384E-01 0.55453676E+03</pdfrwt>
<totfact> 0.16045430E+03</totfact>
</mgrwt>
</event>
<event>
 4    1  0.1361667E-004  0.3461052E+03  0.7818608E-02  0.1064225E+00
          2   -1    0    0  501    0  0.00000000000E+00  0.00000000000E+00  0.30183212140E+03  0.30183212141E+03  0.25500000000E-02 0.  1.
         -2   -1    0    0    0  501 -0.00000000000E+00 -0.00000000000E+00 -0.99218054654E+02  0.99218054687E+02  0.25500000000E-02 0. -1.
    5000001    1    1    2    0    0 -0.35683110222E+02 -0.61441032392E+02  0.20982164727E+03  0.25534762282E+03  0.12700000000E+03 0.  0.
   -5000001    1    1    2    0    0  0.35683110222E+02  0.61441032392E+02 -0.72075805170E+01  0.14570255328E+03  0.12700000000E+03 0.  0.
<mgrwt>
<rscale>  0 0.34610516E+03</rscale>
<asrwt>0</asrwt>
<pdfrwt beam="1">  1        2 0.43118874E-01 0.34610516E+03</pdfrwt>
<pdfrwt beam="2">  1       -2 0.14174008E-01 0.34610516E+03</pdfrwt>
<totfact> 0.44429501E+03</totfact>
</mgrwt>
</event>
<event>
 4    1  0.1361667E-004  0.7560143E+03  0.7818608E-02  0.9625962E-01
          2   -1    0    0  501    0  0.00000000000E+00  0.00000000000E+00  0.35861152358E+03  0.35861152359E+03  0.25500000000E-02 0.  1.
         -2   -1    0    0    0  501 -0.00000000000E+00 -0.00000000000E+00 -0.39845183412E+03  0.39845183413E+03  0.25500000000E-02 0. -1.
    5000001    1    1    2    0    0  0.10406579371E+02  0.34247657203E+03  0.76971117052E+02  0.37343279468E+03  0.12700000000E+03 0.  0.
   -5000001    1    1    2    0    0 -0.10406579371E+02 -0.34247657203E+03 -0.11681142760E+03  0.38363056304E+03  0.12700000000E+03 0.  0.
<mgrwt>
<rscale>  0 0.75601434E+03</rscale>
<asrwt>0</asrwt>
<pdfrwt beam="1">  1        2 0.51230217E-01 0.75601434E+03</pdfrwt>
<pdfrwt beam="2">  1       -2 0.56921691E-01 0.75601434E+03</pdfrwt>
<totfact> 0.28505882E+02</totfact>
</mgrwt>
</event>
<event>
 4    1  0.1361667E-004  0.3899153E+03  0.7818608E-02  0.1047329E+00
         -2   -1    0    0    0  501 -0.00000000000E+00  0.00000000000E+00  0.24183182719E+02  0.24183182854E+02  0.25500000000E-02 0. -1.
          2   -1    0    0  501    0  0.00000000000E+00 -0.00000000000E+00 -0.15716904317E+04  0.15716904317E+04  0.25500000000E-02 0.  1.
    5000001    1    1    2    0    0  0.10662711633E+03  0.10245265281E+03 -0.78884128545E+03  0.81256720438E+03  0.12700000000E+03 0.  0.
   -5000001    1    1    2    0    0 -0.10662711633E+03 -0.10245265281E+03 -0.75866596358E+03  0.78330641022E+03  0.12700000000E+03 0.  0.
<mgrwt>
<rscale>  0 0.38991526E+03</rscale>
<asrwt>0</asrwt>
<pdfrwt beam="1">  1        2 0.22452714E+00 0.38991526E+03</pdfrwt>
<pdfrwt beam="2">  1       -2 0.34547414E-02 0.38991526E+03</pdfrwt>
<totfact> 0.49353923E+03</totfact>
</mgrwt>
</event>
<event>
 4    1  0.1361667E-004  0.4347708E+03  0.7818608E-02  0.1032363E+00
         -2   -1    0    0    0  501 -0.00000000000E+00  0.00000000000E+00  0.42766398388E+03  0.42766398389E+03  0.25500000000E-02 0. -1.
          2   -1    0    0  501    0  0.00000000000E+00 -0.00000000000E+00 -0.11049895020E+03  0.11049895023E+03  0.25500000000E-02 0.  1.
    5000001    1    1    2    0    0  0.12080314706E+03  0.39778370485E+02  0.30993818544E+03  0.35828256711E+03  0.12700000000E+03 0.  0.
   -5000001    1    1    2    0    0 -0.12080314706E+03 -0.39778370485E+02  0.72268482371E+01  0.17988036701E+03  0.12700000000E+03 0.  0.
<mgrwt>
<rscale>  0 0.43477084E+03</rscale>
<asrwt>0</asrwt>
<pdfrwt beam="1">  1        2 0.15785564E-01 0.43477084E+03</pdfrwt>
<pdfrwt beam="2">  1       -2 0.61094855E-01 0.43477084E+03</pdfrwt>
<totfact> 0.94123727E+02</totfact>
</mgrwt>
</event>
<event>
 4    1  0.1361667E-004  0.4920782E+03  0.7818608E-02  0.1015868E+00
          2   -1    0    0  501    0  0.00000000000E+00  0.00000000000E+00  0.55317586828E+03  0.55317586828E+03  0.25500000000E-02 0.  1.
         -2   -1    0    0    0  501 -0.00000000000E+00 -0.00000000000E+00 -0.10943216446E+03  0.10943216449E+03  0.25500000000E-02 0. -1.
    5000001    1    1    2    0    0 -0.14117716334E+02 -0.14235527626E+03  0.43022587053E+03  0.47083716322E+03  0.12700000000E+03 0.  0.
   -5000001    1    1    2    0    0  0.14117716334E+02  0.14235527626E+03  0.13517833291E+02  0.19177086956E+03  0.12700000000E+03 0.  0.
<mgrwt>
<rscale>  0 0.49207818E+03</rscale>
<asrwt>0</asrwt>
<pdfrwt beam="1">  1        2 0.79025123E-01 0.49207818E+03</pdfrwt>
<pdfrwt beam="2">  1       -2 0.15633166E-01 0.49207818E+03</pdfrwt>
<totfact> 0.19418639E+03</totfact>
</mgrwt>
</event>
<event>
 4    1  0.1361667E-004  0.4825422E+03  0.7818608E-02  0.1018439E+00
          2   -1    0    0  501    0  0.00000000000E+00  0.00000000000E+00  0.33938746903E+03  0.33938746904E+03  0.25500000000E-02 0.  1.
         -2   -1    0    0    0  501 -0.00000000000E+00 -0.00000000000E+00 -0.17152001514E+03  0.17152001516E+03  0.25500000000E-02 0. -1.
    5000001    1    1    2    0    0 -0.70749218648E+02 -0.19233651711E+03  0.93635096358E+02  0.25864129412E+03  0.12700000000E+03 0.  0.
   -5000001    1    1    2    0    0  0.70749218648E+02  0.19233651711E+03  0.74232357535E+02  0.25226619008E+03  0.12700000000E+03 0.  0.
<mgrwt>
<rscale>  0 0.48254220E+03</rscale>
<asrwt>0</asrwt>
<pdfrwt beam="1">  1        2 0.48483923E-01 0.48254220E+03</pdfrwt>
<pdfrwt beam="2">  1       -2 0.24502860E-01 0.48254220E+03</pdfrwt>
<totfact> 0.15386788E+03</totfact>
</mgrwt>
</event>
<event>
 4    1  0.1361667E-004  0.4237469E+03  0.7818608E-02  0.1035854E+00
         -2   -1    0    0    0  501 -0.00000000000E+00  0.00000000000E+00  0.25151499016E+02  0.25151499145E+02  0.25500000000E-02 0. -1.
          2   -1    0    0  501    0  0.00000000000E+00 -0.00000000000E+00 -0.17847985851E+04  0.17847985851E+04  0.25500000000E-02 0.  1.
    5000001    1    1    2    0    0  0.66710047939E+02  0.13535765650E+03 -0.12103855687E+04  0.12263499299E+04  0.12700000000E+03 0.  0.
   -5000001    1    1    2    0    0 -0.66710047939E+02 -0.13535765650E+03 -0.54926151742E+03  0.58360015437E+03  0.12700000000E+03 0.  0.
<mgrwt>
<rscale>  0 0.42374691E+03</rscale>
<asrwt>0</asrwt>
<pdfrwt beam="1">  1        2 0.25497115E+00 0.42374691E+03</pdfrwt>
<pdfrwt beam="2">  1       -2 0.35930724E-02 0.42374691E+03</pdfrwt>
<totfact> 0.36341422E+03</totfact>
</mgrwt>
</event>
<event>
 4    1  0.1361667E-004  0.3103759E+03  0.7818608E-02  0.1080166E+00
         -2   -1    0    0    0  501 -0.00000000000E+00  0.00000000000E+00  0.20437778021E+04  0.20437778021E+04  0.25500000000E-02 0. -1.
          2   -1    0    0  501    0  0.00000000000E+00 -0.00000000000E+00 -0.11783720302E+02  0.11783720578E+02  0.25500000000E-02 0.  1.
    5000001    1    1    2    0    0 -0.92824355681E+01 -0.88374983404E+02  0.10664370329E+04  0.10776424484E+04  0.12700000000E+03 0.  0.
   -5000001    1    1    2    0    0  0.92824355681E+01  0.88374983404E+02  0.96555704887E+03  0.97791907432E+03  0.12700000000E+03 0.  0.
<mgrwt>
<rscale>  0 0.31037594E+03</rscale>
<asrwt>0</asrwt>
<pdfrwt beam="1">  1        2 0.16833891E-02 0.31037594E+03</pdfrwt>
<pdfrwt beam="2">  1       -2 0.29196817E+00 0.31037594E+03</pdfrwt>
<totfact> 0.28370237E+02</totfact>
</mgrwt>
</event>
<event>
 4    1  0.1361667E-004  0.4105226E+03  0.7818608E-02  0.1040196E+00
          2   -1    0    0  501    0  0.00000000000E+00  0.00000000000E+00  0.11085544197E+04  0.11085544197E+04  0.25500000000E-02 0.  1.
         -2   -1    0    0    0  501 -0.00000000000E+00 -0.00000000000E+00 -0.38006439067E+02  0.38006439153E+02  0.25500000000E-02 0. -1.
    5000001    1    1    2    0    0  0.11752277366E+03  0.28454647411E+02  0.23730703679E+03  0.29506761767E+03  0.12700000000E+03 0.  0.
   -5000001    1    1    2    0    0 -0.11752277366E+03 -0.28454647411E+02  0.83324094381E+03  0.85149324115E+03  0.12700000000E+03 0.  0.
<mgrwt>
<rscale>  0 0.41052262E+03</rscale>
<asrwt>0</asrwt>
<pdfrwt beam="1">  1        2 0.15836490E+00 0.41052262E+03</pdfrwt>
<pdfrwt beam="2">  1       -2 0.54294917E-02 0.41052262E+03</pdfrwt>
<totfact> 0.43716056E+03</totfact>
</mgrwt>
</event>
<event>
 4    1  0.1361667E-004  0.4706996E+03  0.7818608E-02  0.1021723E+00
          2   -1    0    0  501    0  0.00000000000E+00  0.00000000000E+00  0.17089971611E+04  0.17089971611E+04  0.25500000000E-02 0.  1.
         -2   -1    0    0    0  501 -0.00000000000E+00 -0.00000000000E+00 -0.32410546607E+02  0.32410546707E+02  0.25500000000E-02 0. -1.
    5000001    1    1    2    0    0  0.16193831035E+03  0.96642089012E+02  0.61335111810E+03  0.65413477496E+03  0.12700000000E+03 0.  0.
   -5000001    1    1    2    0    0 -0.16193831035E+03 -0.96642089012E+02  0.10632354964E+04  0.10872729328E+04  0.12700000000E+03 0.  0.
<mgrwt>
<rscale>  0 0.47069962E+03</rscale>
<asrwt>0</asrwt>
<pdfrwt beam="1">  1        2 0.24414244E+00 0.47069962E+03</pdfrwt>
<pdfrwt beam="2">  1       -2 0.46300782E-02 0.47069962E+03</pdfrwt>
<totfact> 0.26910094E+03</totfact>
</mgrwt>
</event>
<event>
 4    1  0.1361667E-004  0.7270052E+03  0.7818608E-02  0.9672133E-01
         -2   -1    0    0    0  501 -0.00000000000E+00  0.00000000000E+00  0.12995423343E+03  0.12995423345E+03  0.25500000000E-02 0. -1.
          2   -1    0    0  501    0  0.00000000000E+00 -0.00000000000E+00 -0.10167743116E+04  0.10167743116E+04  0.25500000000E-02 0.  1.
    5000001    1    1    2    0    0 -0.12092772856E+03  0.21689896283E+03 -0.75731093036E+02  0.28902054263E+03  0.12700000000E+03 0.  0.
   -5000001    1    1    2    0    0  0.12092772856E+03 -0.21689896283E+03 -0.81108898511E+03  0.85770800240E+03  0.12700000000E+03 0.  0.
<mgrwt>
<rscale>  0 0.72700516E+03</rscale>
<asrwt>0</asrwt>
<pdfrwt beam="1">  1        2 0.14525347E+00 0.72700516E+03</pdfrwt>
<pdfrwt beam="2">  1       -2 0.18564891E-01 0.72700516E+03</pdfrwt>
<totfact> 0.66920795E+02</totfact>
</mgrwt>
</event>
<event>
 4    1  0.1361667E-004  0.8764796E+03  0.7818608E-02  0.9455470E-01
          2   -1    0    0  501    0  0.00000000000E+00  0.00000000000E+00  0.12996477597E+04  0.12996477597E+04  0.25500000000E-02 0.  1.
         -2   -1    0    0    0  501 -0.00000000000E+00 -0.00000000000E+00 -0.14777398907E+03  0.14777398909E+03  0.25500000000E-02 0. -1.
    5000001    1    1    2    0    0  0.25957043816E+03 -0.11976610390E+03  0.69075896213E+02  0.32034545642E+03  0.12700000000E+03 0.  0.
   -5000001    1    1    2    0    0 -0.25957043816E+03  0.11976610390E+03  0.10827978744E+04  0.11270762924E+04  0.12700000000E+03 0.  0.
<mgrwt>
<rscale>  0 0.87647963E+03</rscale>
<asrwt>0</asrwt>
<pdfrwt beam="1">  1        2 0.18566397E+00 0.87647963E+03</pdfrwt>
<pdfrwt beam="2">  1       -2 0.21110569E-01 0.87647963E+03</pdfrwt>
<totfact> 0.36496335E+02</totfact>
</mgrwt>
</event>
<event>
 4    1  0.1361667E-004  0.4014962E+03  0.7818608E-02  0.1043263E+00
          2   -1    0    0  501    0  0.00000000000E+00  0.00000000000E+00  0.30834490813E+04  0.30834490813E+04  0.25500000000E-02 0.  1.
         -2   -1    0    0    0  501 -0.00000000000E+00 -0.00000000000E+00 -0.13069716564E+02  0.13069716813E+02  0.25500000000E-02 0. -1.
    5000001    1    1    2    0    0 -0.12316476418E+03 -0.94816818002E+02  0.15095896897E+04  0.15228755101E+04  0.12700000000E+03 0.  0.
   -5000001    1    1    2    0    0  0.12316476418E+03  0.94816818002E+02  0.15607896750E+04  0.15736432879E+04  0.12700000000E+03 0.  0.
<mgrwt>
<rscale>  0 0.40149623E+03</rscale>
<asrwt>0</asrwt>
<pdfrwt beam="1">  1        2 0.44049302E+00 0.40149623E+03</pdfrwt>
<pdfrwt beam="2">  1       -2 0.18671011E-02 0.40149623E+03</pdfrwt>
<totfact> 0.21157696E+03</totfact>
</mgrwt>
</event>
<event>
 4    1  0.1361667E-004  0.3673899E+03  0.7818608E-02  0.1055696E+00
         -2   -1    0    0    0  501 -0.00000000000E+00  0.00000000000E+00  0.36703537796E+03  0.36703537797E+03  0.25500000000E-02 0. -1.
          2   -1    0    0  501    0  0.00000000000E+00 -0.00000000000E+00 -0.91936177768E+02  0.91936177803E+02  0.25500000000E-02 0.  1.
    5000001    1    1    2    0    0  0.75925448472E+02 -0.10376152970E+03  0.17867530227E+03  0.25413577555E+03  0.12700000000E+03 0.  0.
   -5000001    1    1    2    0    0 -0.75925448472E+02  0.10376152970E+03  0.96423897918E+02  0.20483578023E+03  0.12700000000E+03 0.  0.
<mgrwt>
<rscale>  0 0.36738987E+03</rscale>
<asrwt>0</asrwt>
<pdfrwt beam="1">  1        2 0.13133740E-01 0.36738987E+03</pdfrwt>
<pdfrwt beam="2">  1       -2 0.52433626E-01 0.36738987E+03</pdfrwt>
<totfact> 0.16071987E+03</totfact>
</mgrwt>
</event>
<event>
 4    1  0.1361667E-004  0.2725923E+03  0.7818608E-02  0.1099805E+00
         -2   -1    0    0    0  501 -0.00000000000E+00  0.00000000000E+00  0.11146625911E+02  0.11146626202E+02  0.25500000000E-02 0.  1.
          2   -1    0    0  501    0  0.00000000000E+00 -0.00000000000E+00 -0.16665702974E+04  0.16665702974E+04  0.25500000000E-02 0. -1.
    5000001    1    1    2    0    0 -0.39903957834E+02  0.12952117362E+02 -0.66632869832E+03  0.67961975943E+03  0.12700000000E+03 0.  0.
   -5000001    1    1    2    0    0  0.39903957834E+02 -0.12952117362E+02 -0.98909497316E+03  0.99809716417E+03  0.12700000000E+03 0.  0.
<mgrwt>
<rscale>  0 0.27259227E+03</rscale>
<asrwt>0</asrwt>
<pdfrwt beam="1">  1        2 0.23808131E+00 0.27259227E+03</pdfrwt>
<pdfrwt beam="2">  1       -2 0.15923762E-02 0.27259227E+03</pdfrwt>
<totfact> 0.13907878E+04</totfact>
</mgrwt>
</event>
<event>
 4    1  0.1361667E-004  0.4936064E+03  0.7818608E-02  0.1015461E+00
          2   -1    0    0  501    0  0.00000000000E+00  0.00000000000E+00  0.45506686088E+03  0.45506686089E+03  0.25500000000E-02 0.  1.
         -2   -1    0    0    0  501 -0.00000000000E+00 -0.00000000000E+00 -0.13385245898E+03  0.13385245900E+03  0.25500000000E-02 0. -1.
    5000001    1    1    2    0    0  0.95076683401E+02 -0.18656485247E+03  0.19712445409E+03  0.31437727383E+03  0.12700000000E+03 0.  0.
   -5000001    1    1    2    0    0 -0.95076683401E+02  0.18656485247E+03  0.12408994782E+03  0.27454204606E+03  0.12700000000E+03 0.  0.
<mgrwt>
<rscale>  0 0.49360640E+03</rscale>
<asrwt>0</asrwt>
<pdfrwt beam="1">  1        2 0.65009551E-01 0.49360640E+03</pdfrwt>
<pdfrwt beam="2">  1       -2 0.19121780E-01 0.49360640E+03</pdfrwt>
<totfact> 0.17187503E+03</totfact>
</mgrwt>
</event>
<event>
 4    1  0.1361667E-004  0.4743611E+03  0.7818608E-02  0.1020696E+00
          2   -1    0    0  501    0  0.00000000000E+00  0.00000000000E+00  0.70581833622E+03  0.70581833623E+03  0.25500000000E-02 0.  1.
         -2   -1    0    0    0  501 -0.00000000000E+00 -0.00000000000E+00 -0.79701276960E+02  0.79701277000E+02  0.25500000000E-02 0. -1.
    5000001    1    1    2    0    0 -0.72467942606E+02  0.17357907402E+03  0.42711899748E+03  0.48367441079E+03  0.12700000000E+03 0.  0.
   -5000001    1    1    2    0    0  0.72467942606E+02 -0.17357907402E+03  0.19899806178E+03  0.30184520244E+03  0.12700000000E+03 0.  0.
<mgrwt>
<rscale>  0 0.47436114E+03</rscale>
<asrwt>0</asrwt>
<pdfrwt beam="1">  1        2 0.10083119E+00 0.47436114E+03</pdfrwt>
<pdfrwt beam="2">  1       -2 0.11385896E-01 0.47436114E+03</pdfrwt>
<totfact> 0.24613693E+03</totfact>
</mgrwt>
</event>
<event>
 4    1  0.1361667E-004  0.4769041E+03  0.7818608E-02  0.1019989E+00
         -2   -1    0    0    0  501 -0.00000000000E+00  0.00000000000E+00  0.42112922283E+02  0.42112922360E+02  0.25500000000E-02 0. -1.
          2   -1    0    0  501    0  0.00000000000E+00 -0.00000000000E+00 -0.13501645723E+04  0.13501645723E+04  0.25500000000E-02 0.  1.
    5000001    1    1    2    0    0 -0.16207357202E+03 -0.14044782306E+02 -0.10027121136E+04  0.10237312544E+04  0.12700000000E+03 0.  0.
   -5000001    1    1    2    0    0  0.16207357202E+03  0.14044782306E+02 -0.30533953651E+03  0.36854624027E+03  0.12700000000E+03 0.  0.
<mgrwt>
<rscale>  0 0.47690408E+03</rscale>
<asrwt>0</asrwt>
<pdfrwt beam="1">  1        2 0.19288063E+00 0.47690408E+03</pdfrwt>
<pdfrwt beam="2">  1       -2 0.60161326E-02 0.47690408E+03</pdfrwt>
<totfact> 0.27473850E+03</totfact>
</mgrwt>
</event>
<event>
 4    1  0.1361667E-004  0.1348267E+04  0.7818608E-02  0.8992141E-01
         -2   -1    0    0    0  501 -0.00000000000E+00  0.00000000000E+00  0.59503767822E+03  0.59503767823E+03  0.25500000000E-02 0. -1.
          2   -1    0    0  501    0  0.00000000000E+00 -0.00000000000E+00 -0.76374316659E+03  0.76374316659E+03  0.25500000000E-02 0.  1.
    5000001    1    1    2    0    0 -0.11249169354E+03  0.45757358706E+03  0.38435352869E+03  0.62119610729E+03  0.12700000000E+03 0.  0.
   -5000001    1    1    2    0    0  0.11249169354E+03 -0.45757358706E+03 -0.55305901706E+03  0.73758473753E+03  0.12700000000E+03 0.  0.
<mgrwt>
<rscale>  0 0.13482670E+04</rscale>
<asrwt>0</asrwt>
<pdfrwt beam="1">  1        2 0.10910617E+00 0.13482670E+04</pdfrwt>
<pdfrwt beam="2">  1       -2 0.85005383E-01 0.13482670E+04</pdfrwt>
<totfact> 0.47562167E+01</totfact>
</mgrwt>
</event>
<event>
 4    1  0.1361667E-004  0.4817766E+03  0.7818608E-02  0.1018648E+00
          2   -1    0    0  501    0  0.00000000000E+00  0.00000000000E+00  0.98866879657E+03  0.98866879657E+03  0.25500000000E-02 0.  1.
         -2   -1    0    0    0  501 -0.00000000000E+00 -0.00000000000E+00 -0.58692233633E+02  0.58692233688E+02  0.25500000000E-02 0. -1.
    5000001    1    1    2    0    0 -0.84352046289E+02  0.37503673290E+02  0.86215270796E+03  0.87633217735E+03  0.12700000000E+03 0.  0.
   -5000001    1    1    2    0    0  0.84352046289E+02 -0.37503673290E+02  0.67823854980E+02  0.17102885291E+03  0.12700000000E+03 0.  0.
<mgrwt>
<rscale>  0 0.48177663E+03</rscale>
<asrwt>0</asrwt>
<pdfrwt beam="1">  1        2 0.14123839E+00 0.48177663E+03</pdfrwt>
<pdfrwt beam="2">  1       -2 0.83846054E-02 0.48177663E+03</pdfrwt>
<totfact> 0.26065591E+03</totfact>
</mgrwt>
</event>
<event>
 4    1  0.1361667E-004  0.4079409E+03  0.7818608E-02  0.1041064E+00
         -2   -1    0    0    0  501 -0.00000000000E+00  0.00000000000E+00  0.48140359427E+02  0.48140359495E+02  0.25500000000E-02 0. -1.
          2   -1    0    0  501    0  0.00000000000E+00 -0.00000000000E+00 -0.86422154743E+03  0.86422154743E+03  0.25500000000E-02 0.  1.
    5000001    1    1    2    0    0 -0.99430124144E+02 -0.12400787311E+03 -0.44049950465E+03  0.48521450491E+03  0.12700000000E+03 0.  0.
   -5000001    1    1    2    0    0  0.99430124144E+02  0.12400787311E+03 -0.37558168335E+03  0.42714740202E+03  0.12700000000E+03 0.  0.
<mgrwt>
<rscale>  0 0.40794086E+03</rscale>
<asrwt>0</asrwt>
<pdfrwt beam="1">  1        2 0.12346021E+00 0.40794086E+03</pdfrwt>
<pdfrwt beam="2">  1       -2 0.68771948E-02 0.40794086E+03</pdfrwt>
<totfact> 0.42605912E+03</totfact>
</mgrwt>
</event>
<event>
 4    1  0.1361667E-004  0.3240984E+03  0.7818608E-02  0.1073778E+00
         -2   -1    0    0    0  501 -0.00000000000E+00  0.00000000000E+00  0.10579500007E+02  0.10579500314E+02  0.25500000000E-02 0. -1.
          2   -1    0    0  501    0  0.00000000000E+00 -0.00000000000E+00 -0.24821534849E+04  0.24821534849E+04  0.25500000000E-02 0.  1.
    5000001    1    1    2    0    0 -0.50519021270E+02  0.72548750243E+02 -0.86568908763E+03  0.87941008017E+03  0.12700000000E+03 0.  0.
   -5000001    1    1    2    0    0  0.50519021270E+02 -0.72548750243E+02 -0.16058848973E+04  0.16133229050E+04  0.12700000000E+03 0.  0.
<mgrwt>
<rscale>  0 0.32409840E+03</rscale>
<asrwt>0</asrwt>
<pdfrwt beam="1">  1        2 0.35459298E+00 0.32409840E+03</pdfrwt>
<pdfrwt beam="2">  1       -2 0.15113588E-02 0.32409840E+03</pdfrwt>
<totfact> 0.59703599E+03</totfact>
</mgrwt>
</event>
<event>
 4    1  0.1361667E-004  0.4808401E+03  0.7818608E-02  0.1018905E+00
         -2   -1    0    0    0  501 -0.00000000000E+00  0.00000000000E+00  0.28849798499E+02  0.28849798612E+02  0.25500000000E-02 0. -1.
          2   -1    0    0  501    0  0.00000000000E+00 -0.00000000000E+00 -0.20035422250E+04  0.20035422250E+04  0.25500000000E-02 0.  1.
    5000001    1    1    2    0    0 -0.16716915933E+03  0.30280750276E+01 -0.14824015055E+04  0.14971966874E+04  0.12700000000E+03 0.  0.
   -5000001    1    1    2    0    0  0.16716915933E+03 -0.30280750276E+01 -0.49229092098E+03  0.53519533625E+03  0.12700000000E+03 0.  0.
<mgrwt>
<rscale>  0 0.48084005E+03</rscale>
<asrwt>0</asrwt>
<pdfrwt beam="1">  1        2 0.28622023E+00 0.48084005E+03</pdfrwt>
<pdfrwt beam="2">  1       -2 0.41214011E-02 0.48084005E+03</pdfrwt>
<totfact> 0.22910244E+03</totfact>
</mgrwt>
</event>
<event>
 4    1  0.1361667E-004  0.3578149E+03  0.7818608E-02  0.1059452E+00
          2   -1    0    0  501    0  0.00000000000E+00  0.00000000000E+00  0.62114851959E+03  0.62114851959E+03  0.25500000000E-02 0.  1.
         -2   -1    0    0    0  501 -0.00000000000E+00 -0.00000000000E+00 -0.51530147175E+02  0.51530147238E+02  0.25500000000E-02 0. -1.
    5000001    1    1    2    0    0 -0.70333317085E+02  0.92922168631E+02  0.37492138598E+03  0.41264555079E+03  0.12700000000E+03 0.  0.
   -5000001    1    1    2    0    0  0.70333317085E+02 -0.92922168631E+02  0.19469698643E+03  0.26003311604E+03  0.12700000000E+03 0.  0.
<mgrwt>
<rscale>  0 0.35781489E+03</rscale>
<asrwt>0</asrwt>
<pdfrwt beam="1">  1        2 0.88735500E-01 0.35781489E+03</pdfrwt>
<pdfrwt beam="2">  1       -2 0.73614499E-02 0.35781489E+03</pdfrwt>
<totfact> 0.57219966E+03</totfact>
</mgrwt>
</event>
<event>
 4    1  0.1361667E-004  0.2897617E+03  0.7818608E-02  0.1090474E+00
          2   -1    0    0  501    0  0.00000000000E+00  0.00000000000E+00  0.25971688868E+02  0.25971688993E+02  0.25500000000E-02 0.  1.
         -2   -1    0    0    0  501 -0.00000000000E+00 -0.00000000000E+00 -0.80820528505E+03  0.80820528505E+03  0.25500000000E-02 0. -1.
    5000001    1    1    2    0    0  0.62746761069E+02 -0.29478528097E+02 -0.36970539827E+03  0.39701035396E+03  0.12700000000E+03 0.  0.
   -5000001    1    1    2    0    0 -0.62746761069E+02  0.29478528097E+02 -0.41252819791E+03  0.43716662008E+03  0.12700000000E+03 0.  0.
<mgrwt>
<rscale>  0 0.28976167E+03</rscale>
<asrwt>0</asrwt>
<pdfrwt beam="1">  1        2 0.37102418E-02 0.28976167E+03</pdfrwt>
<pdfrwt beam="2">  1       -2 0.11545788E+00 0.28976167E+03</pdfrwt>
<totfact> 0.14333896E+03</totfact>
</mgrwt>
</event>
<event>
 4    1  0.1361667E-004  0.4157443E+03  0.7818608E-02  0.1038460E+00
         -2   -1    0    0    0  501 -0.00000000000E+00  0.00000000000E+00  0.13772057925E+03  0.13772057927E+03  0.25500000000E-02 0. -1.
          2   -1    0    0  501    0  0.00000000000E+00 -0.00000000000E+00 -0.31375725259E+03  0.31375725260E+03  0.25500000000E-02 0.  1.
    5000001    1    1    2    0    0 -0.11684441598E+03 -0.11374498519E+03 -0.11208853667E+03  0.23512417837E+03  0.12700000000E+03 0.  0.
   -5000001    1    1    2    0    0  0.11684441598E+03  0.11374498519E+03 -0.63948136667E+02  0.21635365350E+03  0.12700000000E+03 0.  0.
<mgrwt>
<rscale>  0 0.41574430E+03</rscale>
<asrwt>0</asrwt>
<pdfrwt beam="1">  1        2 0.44822464E-01 0.41574430E+03</pdfrwt>
<pdfrwt beam="2">  1       -2 0.19674369E-01 0.41574430E+03</pdfrwt>
<totfact> 0.24595064E+03</totfact>
</mgrwt>
</event>
<event>
 4    1  0.1361667E-004  0.4032970E+03  0.7818608E-02  0.1042644E+00
         -2   -1    0    0    0  501 -0.00000000000E+00  0.00000000000E+00  0.11855075707E+03  0.11855075709E+03  0.25500000000E-02 0. -1.
          2   -1    0    0  501    0  0.00000000000E+00 -0.00000000000E+00 -0.34299325389E+03  0.34299325389E+03  0.25500000000E-02 0.  1.
    5000001    1    1    2    0    0  0.48117027911E+02 -0.13788379376E+03 -0.47422804737E+02  0.19926141465E+03  0.12700000000E+03 0.  0.
   -5000001    1    1    2    0    0 -0.48117027911E+02  0.13788379376E+03 -0.17701969208E+03  0.26228259634E+03  0.12700000000E+03 0.  0.
<mgrwt>
<rscale>  0 0.40329696E+03</rscale>
<asrwt>0</asrwt>
<pdfrwt beam="1">  1        2 0.48999036E-01 0.40329696E+03</pdfrwt>
<pdfrwt beam="2">  1       -2 0.16935823E-01 0.40329696E+03</pdfrwt>
<totfact> 0.28809957E+03</totfact>
</mgrwt>
</event>
<event>
 4    1  0.1361667E-004  0.2995011E+03  0.7818608E-02  0.1085490E+00
          2   -1    0    0  501    0  0.00000000000E+00  0.00000000000E+00  0.82066449890E+03  0.82066449890E+03  0.25500000000E-02 0.  1.
         -2   -1    0    0    0  501 -0.00000000000E+00 -0.00000000000E+00 -0.27325685977E+02  0.27325686096E+02  0.25500000000E-02 0. -1.
    5000001    1    1    2    0    0 -0.52998558676E+02 -0.58614935748E+02  0.41702015058E+03  0.44303426945E+03  0.12700000000E+03 0.  0.
   -5000001    1    1    2    0    0  0.52998558676E+02  0.58614935748E+02  0.37631866234E+03  0.40495591555E+03  0.12700000000E+03 0.  0.
<mgrwt>
<rscale>  0 0.29950105E+03</rscale>
<asrwt>0</asrwt>
<pdfrwt beam="1">  1        2 0.11723778E+00 0.29950105E+03</pdfrwt>
<pdfrwt beam="2">  1       -2 0.39036697E-02 0.29950105E+03</pdfrwt>
<totfact> 0.10765507E+04</totfact>
</mgrwt>
</event>
<event>
 4    1  0.1361667E-004  0.4691689E+03  0.7818608E-02  0.1022155E+00
          2   -1    0    0  501    0  0.00000000000E+00  0.00000000000E+00  0.19111553193E+03  0.19111553194E+03  0.25500000000E-02 0.  1.
         -2   -1    0    0    0  501 -0.00000000000E+00 -0.00000000000E+00 -0.28794025828E+03  0.28794025829E+03  0.25500000000E-02 0. -1.
    5000001    1    1    2    0    0 -0.13453343349E+03 -0.14420819790E+03 -0.50830079131E+02  0.24001655362E+03  0.12700000000E+03 0.  0.
   -5000001    1    1    2    0    0  0.13453343349E+03  0.14420819790E+03 -0.45994647224E+02  0.23903923661E+03  0.12700000000E+03 0.  0.
<mgrwt>
<rscale>  0 0.46916886E+03</rscale>
<asrwt>0</asrwt>
<pdfrwt beam="1">  1        2 0.27302219E-01 0.46916886E+03</pdfrwt>
<pdfrwt beam="2">  1       -2 0.41134322E-01 0.46916886E+03</pdfrwt>
<totfact> 0.11087750E+03</totfact>
</mgrwt>
</event>
<event>
 4    1  0.1361667E-004  0.5798786E+03  0.7818608E-02  0.9948054E-01
         -2   -1    0    0    0  501 -0.00000000000E+00  0.00000000000E+00  0.40655351974E+02  0.40655352054E+02  0.25500000000E-02 0. -1.
          2   -1    0    0  501    0  0.00000000000E+00 -0.00000000000E+00 -0.20677425772E+04  0.20677425772E+04  0.25500000000E-02 0.  1.
    5000001    1    1    2    0    0  0.10682355260E+02  0.25032149795E+03 -0.12747450553E+04  0.13053271318E+04  0.12700000000E+03 0.  0.
   -5000001    1    1    2    0    0 -0.10682355260E+02 -0.25032149795E+03 -0.75234216996E+03  0.80307079747E+03  0.12700000000E+03 0.  0.
<mgrwt>
<rscale>  0 0.57987862E+03</rscale>
<asrwt>0</asrwt>
<pdfrwt beam="1">  1        2 0.29539173E+00 0.57987862E+03</pdfrwt>
<pdfrwt beam="2">  1       -2 0.58079088E-02 0.57987862E+03</pdfrwt>
<totfact> 0.12463464E+03</totfact>
</mgrwt>
</event>
<event>
 4    1  0.1361667E-004  0.4660690E+03  0.7818608E-02  0.1023036E+00
         -2   -1    0    0    0  501 -0.00000000000E+00  0.00000000000E+00  0.16688866695E+03  0.16688866697E+03  0.25500000000E-02 0. -1.
          2   -1    0    0  501    0  0.00000000000E+00 -0.00000000000E+00 -0.32539703489E+03  0.32539703490E+03  0.25500000000E-02 0.  1.
    5000001    1    1    2    0    0  0.12295340516E+03 -0.15055544611E+03 -0.10015608009E+03  0.25287293761E+03  0.12700000000E+03 0.  0.
   -5000001    1    1    2    0    0 -0.12295340516E+03  0.15055544611E+03 -0.58352287848E+02  0.23941276426E+03  0.12700000000E+03 0.  0.
<mgrwt>
<rscale>  0 0.46606900E+03</rscale>
<asrwt>0</asrwt>
<pdfrwt beam="1">  1        2 0.46485291E-01 0.46606900E+03</pdfrwt>
<pdfrwt beam="2">  1       -2 0.23841238E-01 0.46606900E+03</pdfrwt>
<totfact> 0.16912975E+03</totfact>
</mgrwt>
</event>
<event>
 4    1  0.1361667E-004  0.4031670E+03  0.7818608E-02  0.1042689E+00
         -2   -1    0    0    0  501 -0.00000000000E+00  0.00000000000E+00  0.11912624408E+02  0.11912624681E+02  0.25500000000E-02 0. -1.
          2   -1    0    0  501    0  0.00000000000E+00 -0.00000000000E+00 -0.34111628822E+04  0.34111628822E+04  0.25500000000E-02 0.  1.
    5000001    1    1    2    0    0 -0.13088499829E+03  0.80562821297E+02 -0.19523005595E+04  0.19624545156E+04  0.12700000000E+03 0.  0.
   -5000001    1    1    2    0    0  0.13088499829E+03 -0.80562821297E+02 -0.14469496982E+04  0.14606209913E+04  0.12700000000E+03 0.  0.
<mgrwt>
<rscale>  0 0.40316698E+03</rscale>
<asrwt>0</asrwt>
<pdfrwt beam="1">  1        2 0.48730836E+00 0.40316698E+03</pdfrwt>
<pdfrwt beam="2">  1       -2 0.17018057E-02 0.40316698E+03</pdfrwt>
<totfact> 0.15913565E+03</totfact>
</mgrwt>
</event>
<event>
 4    1  0.1361667E-004  0.5943090E+03  0.7818608E-02  0.9917284E-01
         -2   -1    0    0    0  501 -0.00000000000E+00  0.00000000000E+00  0.15426875775E+03  0.15426875777E+03  0.25500000000E-02 0. -1.
          2   -1    0    0  501    0  0.00000000000E+00 -0.00000000000E+00 -0.57238291675E+03  0.57238291676E+03  0.25500000000E-02 0.  1.
    5000001    1    1    2    0    0  0.24973925126E+03  0.34865408518E+02 -0.95759056813E+02  0.29813434437E+03  0.12700000000E+03 0.  0.
   -5000001    1    1    2    0    0 -0.24973925126E+03 -0.34865408518E+02 -0.32235510219E+03  0.42851733016E+03  0.12700000000E+03 0.  0.
<mgrwt>
<rscale>  0 0.59430902E+03</rscale>
<asrwt>0</asrwt>
<pdfrwt beam="1">  1        2 0.81768987E-01 0.59430902E+03</pdfrwt>
<pdfrwt beam="2">  1       -2 0.22038394E-01 0.59430902E+03</pdfrwt>
<totfact> 0.10331344E+03</totfact>
</mgrwt>
</event>
<event>
 4    1  0.1361667E-004  0.4369054E+03  0.7818608E-02  0.1031701E+00
          2   -1    0    0  501    0  0.00000000000E+00  0.00000000000E+00  0.13980879169E+04  0.13980879169E+04  0.25500000000E-02 0.  1.
         -2   -1    0    0    0  501 -0.00000000000E+00 -0.00000000000E+00 -0.34133458463E+02  0.34133458559E+02  0.25500000000E-02 0. -1.
    5000001    1    1    2    0    0  0.13512316123E+03  0.79859058616E+02  0.40855821630E+03  0.45572420832E+03  0.12700000000E+03 0.  0.
   -5000001    1    1    2    0    0 -0.13512316123E+03 -0.79859058616E+02  0.95539624214E+03  0.97649716714E+03  0.12700000000E+03 0.  0.
<mgrwt>
<rscale>  0 0.43690537E+03</rscale>
<asrwt>0</asrwt>
<pdfrwt beam="1">  1        2 0.19972688E+00 0.43690537E+03</pdfrwt>
<pdfrwt beam="2">  1       -2 0.48762074E-02 0.43690537E+03</pdfrwt>
<totfact> 0.35878752E+03</totfact>
</mgrwt>
</event>
<event>
 4    1  0.1361667E-004  0.4447730E+03  0.7818608E-02  0.1029292E+00
         -2   -1    0    0    0  501 -0.00000000000E+00  0.00000000000E+00  0.29336227312E+02  0.29336227422E+02  0.25500000000E-02 0. -1.
          2   -1    0    0  501    0  0.00000000000E+00 -0.00000000000E+00 -0.16858251106E+04  0.16858251106E+04  0.25500000000E-02 0.  1.
    5000001    1    1    2    0    0  0.17629988998E+03 -0.30019113453E+02 -0.68687413245E+03  0.72104637313E+03  0.12700000000E+03 0.  0.
   -5000001    1    1    2    0    0 -0.17629988998E+03  0.30019113453E+02 -0.96961475084E+03  0.99411496489E+03  0.12700000000E+03 0.  0.
<mgrwt>
<rscale>  0 0.44477297E+03</rscale>
<asrwt>0</asrwt>
<pdfrwt beam="1">  1        2 0.24083210E+00 0.44477297E+03</pdfrwt>
<pdfrwt beam="2">  1       -2 0.41908907E-02 0.44477297E+03</pdfrwt>
<totfact> 0.32220327E+03</totfact>
</mgrwt>
</event>
<event>
 4    1  0.1361667E-004  0.3315797E+03  0.7818608E-02  0.1070440E+00
          2   -1    0    0  501    0  0.00000000000E+00  0.00000000000E+00  0.27405404995E+04  0.27405404995E+04  0.25500000000E-02 0.  1.
         -2   -1    0    0    0  501 -0.00000000000E+00 -0.00000000000E+00 -0.10029511093E+02  0.10029511418E+02  0.25500000000E-02 0. -1.
    5000001    1    1    2    0    0 -0.10178980081E+03  0.13116448881E+02  0.16033879602E+04  0.16116808480E+04  0.12700000000E+03 0.  0.
   -5000001    1    1    2    0    0  0.10178980081E+03 -0.13116448881E+02  0.11271230282E+04  0.11388891629E+04  0.12700000000E+03 0.  0.
<mgrwt>
<rscale>  0 0.33157974E+03</rscale>
<asrwt>0</asrwt>
<pdfrwt beam="1">  1        2 0.39150598E+00 0.33157974E+03</pdfrwt>
<pdfrwt beam="2">  1       -2 0.14327866E-02 0.33157974E+03</pdfrwt>
<totfact> 0.47722951E+03</totfact>
</mgrwt>
</event>
<event>
 4    1  0.1361667E-004  0.3377222E+03  0.7818608E-02  0.1067770E+00
         -2   -1    0    0    0  501 -0.00000000000E+00  0.00000000000E+00  0.35814090825E+03  0.35814090826E+03  0.25500000000E-02 0. -1.
          2   -1    0    0  501    0  0.00000000000E+00 -0.00000000000E+00 -0.79616892510E+02  0.79616892551E+02  0.25500000000E-02 0.  1.
    5000001    1    1    2    0    0 -0.10363712536E+03  0.37977220010E+02  0.15769109846E+03  0.23060443519E+03  0.12700000000E+03 0.  0.
   -5000001    1    1    2    0    0  0.10363712536E+03 -0.37977220010E+02  0.12083291728E+03  0.20715336563E+03  0.12700000000E+03 0.  0.
<mgrwt>
<rscale>  0 0.33772217E+03</rscale>
<asrwt>0</asrwt>
<pdfrwt beam="1">  1        2 0.11373842E-01 0.33772217E+03</pdfrwt>
<pdfrwt beam="2">  1       -2 0.51162987E-01 0.33772217E+03</pdfrwt>
<totfact> 0.20110723E+03</totfact>
</mgrwt>
</event>
<event>
 4    1  0.1361667E-004  0.5477425E+03  0.7818608E-02  0.1002018E+00
          2   -1    0    0  501    0  0.00000000000E+00  0.00000000000E+00  0.30304503769E+03  0.30304503770E+03  0.25500000000E-02 0.  1.
         -2   -1    0    0    0  501 -0.00000000000E+00 -0.00000000000E+00 -0.24750595254E+03  0.24750595256E+03  0.25500000000E-02 0. -1.
    5000001    1    1    2    0    0  0.22225519420E+03 -0.90216300013E+02 -0.90255172975E+01  0.27156364282E+03  0.12700000000E+03 0.  0.
   -5000001    1    1    2    0    0 -0.22225519420E+03  0.90216300013E+02  0.64564602441E+02  0.27898734743E+03  0.12700000000E+03 0.  0.
<mgrwt>
<rscale>  0 0.54774246E+03</rscale>
<asrwt>0</asrwt>
<pdfrwt beam="1">  1        2 0.43292148E-01 0.54774246E+03</pdfrwt>
<pdfrwt beam="2">  1       -2 0.35357993E-01 0.54774246E+03</pdfrwt>
<totfact> 0.88860409E+02</totfact>
</mgrwt>
</event>
<event>
 4    1  0.1361667E-004  0.6310942E+03  0.7818608E-02  0.9842916E-01
         -2   -1    0    0    0  501 -0.00000000000E+00  0.00000000000E+00  0.21198513237E+03  0.21198513239E+03  0.25500000000E-02 0. -1.
          2   -1    0    0  501    0  0.00000000000E+00 -0.00000000000E+00 -0.46970262167E+03  0.46970262168E+03  0.25500000000E-02 0.  1.
    5000001    1    1    2    0    0 -0.58169836332E+02  0.27854775341E+03 -0.18252463480E+03  0.36113269459E+03  0.12700000000E+03 0.  0.
   -5000001    1    1    2    0    0  0.58169836332E+02 -0.27854775341E+03 -0.75192854495E+02  0.32055505948E+03  0.12700000000E+03 0.  0.
<mgrwt>
<rscale>  0 0.63109420E+03</rscale>
<asrwt>0</asrwt>
<pdfrwt beam="1">  1        2 0.67100374E-01 0.63109420E+03</pdfrwt>
<pdfrwt beam="2">  1       -2 0.30283590E-01 0.63109420E+03</pdfrwt>
<totfact> 0.72952792E+02</totfact>
</mgrwt>
</event>
<event>
 4    1  0.1361667E-004  0.4256600E+03  0.7818608E-02  0.1035240E+00
         -2   -1    0    0    0  501 -0.00000000000E+00  0.00000000000E+00  0.21454945128E+02  0.21454945279E+02  0.25500000000E-02 0. -1.
          2   -1    0    0  501    0  0.00000000000E+00 -0.00000000000E+00 -0.21112433183E+04  0.21112433183E+04  0.25500000000E-02 0.  1.
    5000001    1    1    2    0    0  0.31611159612E+01  0.15400686399E+03 -0.67536718586E+03  0.70425701455E+03  0.12700000000E+03 0.  0.
   -5000001    1    1    2    0    0 -0.31611159612E+01 -0.15400686399E+03 -0.14144211873E+04  0.14284412490E+04  0.12700000000E+03 0.  0.
<mgrwt>
<rscale>  0 0.42566000E+03</rscale>
<asrwt>0</asrwt>
<pdfrwt beam="1">  1        2 0.30160606E+00 0.42566000E+03</pdfrwt>
<pdfrwt beam="2">  1       -2 0.30649935E-02 0.42566000E+03</pdfrwt>
<totfact> 0.31819035E+03</totfact>
</mgrwt>
</event>
<event>
 4    1  0.1361667E-004  0.6713278E+03  0.7818608E-02  0.9767562E-01
         -2   -1    0    0    0  501 -0.00000000000E+00  0.00000000000E+00  0.36067270157E+02  0.36067270247E+02  0.25500000000E-02 0. -1.
          2   -1    0    0  501    0  0.00000000000E+00 -0.00000000000E+00 -0.31238916926E+04  0.31238916926E+04  0.25500000000E-02 0.  1.
    5000001    1    1    2    0    0 -0.25778473187E+03  0.16606409331E+03 -0.13080438316E+04  0.13494954303E+04  0.12700000000E+03 0.  0.
   -5000001    1    1    2    0    0  0.25778473187E+03 -0.16606409331E+03 -0.17797805909E+04  0.18104635326E+04  0.12700000000E+03 0.  0.
<mgrwt>
<rscale>  0 0.67132778E+03</rscale>
<asrwt>0</asrwt>
<pdfrwt beam="1">  1        2 0.44627007E+00 0.67132778E+03</pdfrwt>
<pdfrwt beam="2">  1       -2 0.51524692E-02 0.67132778E+03</pdfrwt>
<totfact> 0.41924482E+02</totfact>
</mgrwt>
</event>
<event>
 4    1  0.1361667E-004  0.4252288E+03  0.7818608E-02  0.1035378E+00
          2   -1    0    0  501    0  0.00000000000E+00  0.00000000000E+00  0.35078525802E+04  0.35078525802E+04  0.25500000000E-02 0.  1.
         -2   -1    0    0    0  501 -0.00000000000E+00 -0.00000000000E+00 -0.12886767271E+02  0.12886767523E+02  0.25500000000E-02 0. -1.
    5000001    1    1    2    0    0  0.68009507161E+01 -0.15700241912E+03  0.11995319187E+04  0.12164299554E+04  0.12700000000E+03 0.  0.
   -5000001    1    1    2    0    0 -0.68009507161E+01  0.15700241912E+03  0.22954338942E+04  0.23043093923E+04  0.12700000000E+03 0.  0.
<mgrwt>
<rscale>  0 0.42522879E+03</rscale>
<asrwt>0</asrwt>
<pdfrwt beam="1">  1        2 0.50112241E+00 0.42522879E+03</pdfrwt>
<pdfrwt beam="2">  1       -2 0.18409645E-02 0.42522879E+03</pdfrwt>
<totfact> 0.12406968E+03</totfact>
</mgrwt>
</event>
<event>
 4    1  0.1361667E-004  0.4002890E+03  0.7818608E-02  0.1043680E+00
         -2   -1    0    0    0  501 -0.00000000000E+00  0.00000000000E+00  0.16107582852E+03  0.16107582854E+03  0.25500000000E-02 0. -1.
          2   -1    0    0  501    0  0.00000000000E+00 -0.00000000000E+00 -0.24868917680E+03  0.24868917681E+03  0.25500000000E-02 0.  1.
    5000001    1    1    2    0    0 -0.12651441296E+03 -0.74531419994E+02  0.60072553740E+01  0.19423160497E+03  0.12700000000E+03 0.  0.
   -5000001    1    1    2    0    0  0.12651441296E+03  0.74531419994E+02 -0.93620603650E+02  0.21553340038E+03  0.12700000000E+03 0.  0.
<mgrwt>
<rscale>  0 0.40028897E+03</rscale>
<asrwt>0</asrwt>
<pdfrwt beam="1">  1        2 0.35527025E-01 0.40028897E+03</pdfrwt>
<pdfrwt beam="2">  1       -2 0.23010833E-01 0.40028897E+03</pdfrwt>
<totfact> 0.24128949E+03</totfact>
</mgrwt>
</event>
<event>
 4    1  0.1361667E-004  0.4889230E+03  0.7818608E-02  0.1016711E+00
         -2   -1    0    0    0  501 -0.00000000000E+00  0.00000000000E+00  0.58483110328E+02  0.58483110384E+02  0.25500000000E-02 0. -1.
          2   -1    0    0  501    0  0.00000000000E+00 -0.00000000000E+00 -0.10218579783E+04  0.10218579783E+04  0.25500000000E-02 0.  1.
    5000001    1    1    2    0    0 -0.18705421849E+03 -0.66233671594E+02 -0.62584389612E+03  0.66871949442E+03  0.12700000000E+03 0.  0.
   -5000001    1    1    2    0    0  0.18705421849E+03  0.66233671594E+02 -0.33753097184E+03  0.41162159426E+03  0.12700000000E+03 0.  0.
<mgrwt>
<rscale>  0 0.48892303E+03</rscale>
<asrwt>0</asrwt>
<pdfrwt beam="1">  1        2 0.14597970E+00 0.48892303E+03</pdfrwt>
<pdfrwt beam="2">  1       -2 0.83547307E-02 0.48892303E+03</pdfrwt>
<totfact> 0.25033996E+03</totfact>
</mgrwt>
</event>
<event>
 4    1  0.1361667E-004  0.5370513E+03  0.7818608E-02  0.1004536E+00
          2   -1    0    0  501    0  0.00000000000E+00  0.00000000000E+00  0.16907609971E+04  0.16907609971E+04  0.25500000000E-02 0.  1.
         -2   -1    0    0    0  501 -0.00000000000E+00 -0.00000000000E+00 -0.42647086181E+02  0.42647086258E+02  0.25500000000E-02 0. -1.
    5000001    1    1    2    0    0 -0.21045686499E+03  0.10190477308E+02  0.47671296581E+03  0.53645147928E+03  0.12700000000E+03 0.  0.
   -5000001    1    1    2    0    0  0.21045686499E+03 -0.10190477308E+02  0.11714009451E+04  0.11969566041E+04  0.12700000000E+03 0.  0.
<mgrwt>
<rscale>  0 0.53705132E+03</rscale>
<asrwt>0</asrwt>
<pdfrwt beam="1">  1        2 0.24153727E+00 0.53705132E+03</pdfrwt>
<pdfrwt beam="2">  1       -2 0.60924412E-02 0.53705132E+03</pdfrwt>
<totfact> 0.17929136E+03</totfact>
</mgrwt>
</event>
<event>
 4    1  0.1361667E-004  0.4272960E+03  0.7818608E-02  0.1034718E+00
         -2   -1    0    0    0  501 -0.00000000000E+00  0.00000000000E+00  0.29638927329E+02  0.29638927439E+02  0.25500000000E-02 0.  1.
          2   -1    0    0  501    0  0.00000000000E+00 -0.00000000000E+00 -0.15400512463E+04  0.15400512463E+04  0.25500000000E-02 0. -1.
    5000001    1    1    2    0    0 -0.14564764448E+03 -0.76790855047E+02 -0.57500042727E+03  0.61144465254E+03  0.12700000000E+03 0.  0.
   -5000001    1    1    2    0    0  0.14564764448E+03  0.76790855047E+02 -0.93541189165E+03  0.95824552115E+03  0.12700000000E+03 0.  0.
<mgrwt>
<rscale>  0 0.42729600E+03</rscale>
<asrwt>0</asrwt>
<pdfrwt beam="1">  1        2 0.22000727E+00 0.42729600E+03</pdfrwt>
<pdfrwt beam="2">  1       -2 0.42341334E-02 0.42729600E+03</pdfrwt>
<totfact> 0.37610872E+03</totfact>
</mgrwt>
</event>
<event>
 4    1  0.1361667E-004  0.3788558E+03  0.7818608E-02  0.1051357E+00
          2   -1    0    0  501    0  0.00000000000E+00  0.00000000000E+00  0.14310264895E+04  0.14310264895E+04  0.25500000000E-02 0.  1.
         -2   -1    0    0    0  501 -0.00000000000E+00 -0.00000000000E+00 -0.25074959937E+02  0.25074960067E+02  0.25500000000E-02 0. -1.
    5000001    1    1    2    0    0  0.64580826009E+02 -0.93454747702E+02  0.10210626869E+04  0.10351823431E+04  0.12700000000E+03 0.  0.
   -5000001    1    1    2    0    0 -0.64580826009E+02  0.93454747702E+02  0.38488884265E+03  0.42091910643E+03  0.12700000000E+03 0.  0.
<mgrwt>
<rscale>  0 0.37885581E+03</rscale>
<asrwt>0</asrwt>
<pdfrwt beam="1">  1        2 0.20443237E+00 0.37885581E+03</pdfrwt>
<pdfrwt beam="2">  1       -2 0.35821369E-02 0.37885581E+03</pdfrwt>
<totfact> 0.55149643E+03</totfact>
</mgrwt>
</event>
<event>
 4    1  0.1361667E-004  0.4916022E+03  0.7818608E-02  0.1015994E+00
         -2   -1    0    0    0  501 -0.00000000000E+00  0.00000000000E+00  0.20842692737E+02  0.20842692893E+02  0.25500000000E-02 0. -1.
          2   -1    0    0  501    0  0.00000000000E+00 -0.00000000000E+00 -0.28987708862E+04  0.28987708862E+04  0.25500000000E-02 0.  1.
    5000001    1    1    2    0    0 -0.12960462498E+03  0.97071831522E+02 -0.64064360169E+03  0.67288448019E+03  0.12700000000E+03 0.  0.
   -5000001    1    1    2    0    0  0.12960462498E+03 -0.97071831522E+02 -0.22372845918E+04  0.22467290989E+04  0.12700000000E+03 0.  0.
<mgrwt>
<rscale>  0 0.49160224E+03</rscale>
<asrwt>0</asrwt>
<pdfrwt beam="1">  1        2 0.41410987E+00 0.49160224E+03</pdfrwt>
<pdfrwt beam="2">  1       -2 0.29775294E-02 0.49160224E+03</pdfrwt>
<totfact> 0.13114506E+03</totfact>
</mgrwt>
</event>
<event>
 4    1  0.1361667E-004  0.5099101E+03  0.7818608E-02  0.1011224E+00
         -2   -1    0    0    0  501 -0.00000000000E+00  0.00000000000E+00  0.59237306113E+02  0.59237306168E+02  0.25500000000E-02 0. -1.
          2   -1    0    0  501    0  0.00000000000E+00 -0.00000000000E+00 -0.10973163892E+04  0.10973163892E+04  0.25500000000E-02 0.  1.
    5000001    1    1    2    0    0  0.70318909690E+02 -0.16291163626E+03 -0.21995188242E+03  0.30982701765E+03  0.12700000000E+03 0.  0.
   -5000001    1    1    2    0    0 -0.70318909690E+02  0.16291163626E+03 -0.81812720069E+03  0.84672667774E+03  0.12700000000E+03 0.  0.
<mgrwt>
<rscale>  0 0.50991006E+03</rscale>
<asrwt>0</asrwt>
<pdfrwt beam="1">  1        2 0.15675947E+00 0.50991006E+03</pdfrwt>
<pdfrwt beam="2">  1       -2 0.84624730E-02 0.50991006E+03</pdfrwt>
<totfact> 0.22143615E+03</totfact>
</mgrwt>
</event>
<event>
 4    1  0.1361667E-004  0.4617460E+03  0.7818608E-02  0.1024276E+00
         -2   -1    0    0    0  501 -0.00000000000E+00  0.00000000000E+00  0.81804627200E+02  0.81804627240E+02  0.25500000000E-02 0. -1.
          2   -1    0    0  501    0  0.00000000000E+00 -0.00000000000E+00 -0.65158094686E+03  0.65158094687E+03  0.25500000000E-02 0.  1.
    5000001    1    1    2    0    0 -0.16820237109E+03  0.93284996297E+02 -0.26362595533E+03  0.35017391750E+03  0.12700000000E+03 0.  0.
   -5000001    1    1    2    0    0  0.16820237109E+03 -0.93284996297E+02 -0.30615036433E+03  0.38321165661E+03  0.12700000000E+03 0.  0.
<mgrwt>
<rscale>  0 0.46174598E+03</rscale>
<asrwt>0</asrwt>
<pdfrwt beam="1">  1        2 0.93082990E-01 0.46174598E+03</pdfrwt>
<pdfrwt beam="2">  1       -2 0.11686376E-01 0.46174598E+03</pdfrwt>
<totfact> 0.25964792E+03</totfact>
</mgrwt>
</event>
<event>
 4    1  0.1361667E-004  0.6376567E+03  0.7818608E-02  0.9830220E-01
          2   -1    0    0  501    0  0.00000000000E+00  0.00000000000E+00  0.19919439621E+03  0.19919439623E+03  0.25500000000E-02 0.  1.
         -2   -1    0    0    0  501 -0.00000000000E+00 -0.00000000000E+00 -0.51031308453E+03  0.51031308453E+03  0.25500000000E-02 0. -1.
    5000001    1    1    2    0    0 -0.22366030263E+03 -0.69123597826E+02  0.39462941137E+02  0.26923656229E+03  0.12700000000E+03 0.  0.
   -5000001    1    1    2    0    0  0.22366030263E+03  0.69123597826E+02 -0.35058162945E+03  0.44027091848E+03  0.12700000000E+03 0.  0.
<mgrwt>
<rscale>  0 0.63765667E+03</rscale>
<asrwt>0</asrwt>
<pdfrwt beam="1">  1        2 0.28456343E-01 0.63765667E+03</pdfrwt>
<pdfrwt beam="2">  1       -2 0.72901869E-01 0.63765667E+03</pdfrwt>
<totfact> 0.32444226E+02</totfact>
</mgrwt>
</event>
<event>
 4    1  0.1361667E-004  0.4138474E+03  0.7818608E-02  0.1039088E+00
          2   -1    0    0  501    0  0.00000000000E+00  0.00000000000E+00  0.14166557687E+03  0.14166557689E+03  0.25500000000E-02 0.  1.
         -2   -1    0    0    0  501 -0.00000000000E+00 -0.00000000000E+00 -0.30224293515E+03  0.30224293516E+03  0.25500000000E-02 0. -1.
    5000001    1    1    2    0    0 -0.96736791688E+02 -0.53881460480E+02 -0.20912676795E+03  0.26855953478E+03  0.12700000000E+03 0.  0.
   -5000001    1    1    2    0    0  0.96736791688E+02  0.53881460480E+02  0.48549409671E+02  0.17534897727E+03  0.12700000000E+03 0.  0.
<mgrwt>
<rscale>  0 0.41384741E+03</rscale>
<asrwt>0</asrwt>
<pdfrwt beam="1">  1        2 0.20237940E-01 0.41384741E+03</pdfrwt>
<pdfrwt beam="2">  1       -2 0.43177562E-01 0.41384741E+03</pdfrwt>
<totfact> 0.14186257E+03</totfact>
</mgrwt>
</event>
<event>
 4    1  0.1361667E-004  0.6882169E+03  0.7818608E-02  0.9737598E-01
         -2   -1    0    0    0  501 -0.00000000000E+00  0.00000000000E+00  0.69610091482E+02  0.69610091528E+02  0.25500000000E-02 0. -1.
          2   -1    0    0  501    0  0.00000000000E+00 -0.00000000000E+00 -0.17010552560E+04  0.17010552560E+04  0.25500000000E-02 0.  1.
    5000001    1    1    2    0    0 -0.13721948007E+03 -0.26569384959E+03 -0.11074775320E+04  0.11541481236E+04  0.12700000000E+03 0.  0.
   -5000001    1    1    2    0    0  0.13721948007E+03  0.26569384959E+03 -0.52396763251E+03  0.61651722388E+03  0.12700000000E+03 0.  0.
<mgrwt>
<rscale>  0 0.68821686E+03</rscale>
<asrwt>0</asrwt>
<pdfrwt beam="1">  1        2 0.24300787E+00 0.68821686E+03</pdfrwt>
<pdfrwt beam="2">  1       -2 0.99442998E-02 0.68821686E+03</pdfrwt>
<totfact> 0.80652705E+02</totfact>
</mgrwt>
</event>
<event>
 4    1  0.1361667E-004  0.2920630E+03  0.7818608E-02  0.1089277E+00
          2   -1    0    0  501    0  0.00000000000E+00  0.00000000000E+00  0.29753750076E+03  0.29753750077E+03  0.25500000000E-02 0.  1.
         -2   -1    0    0    0  501 -0.00000000000E+00 -0.00000000000E+00 -0.71672311847E+02  0.71672311892E+02  0.25500000000E-02 0. -1.
    5000001    1    1    2    0    0 -0.57782993723E+02  0.36090332486E+02  0.83156315968E+02  0.16638918038E+03  0.12700000000E+03 0.  0.
   -5000001    1    1    2    0    0  0.57782993723E+02 -0.36090332486E+02  0.14270887295E+03  0.20282063229E+03  0.12700000000E+03 0.  0.
<mgrwt>
<rscale>  0 0.29206301E+03</rscale>
<asrwt>0</asrwt>
<pdfrwt beam="1">  1        2 0.42505358E-01 0.29206301E+03</pdfrwt>
<pdfrwt beam="2">  1       -2 0.10238902E-01 0.29206301E+03</pdfrwt>
<totfact> 0.76061014E+03</totfact>
</mgrwt>
</event>
<event>
 4    1  0.1361667E-004  0.2874595E+03  0.7818608E-02  0.1091683E+00
         -2   -1    0    0    0  501 -0.00000000000E+00  0.00000000000E+00  0.55617702312E+02  0.55617702370E+02  0.25500000000E-02 0. -1.
          2   -1    0    0  501    0  0.00000000000E+00 -0.00000000000E+00 -0.37143278243E+03  0.37143278244E+03  0.25500000000E-02 0.  1.
    5000001    1    1    2    0    0  0.19521321224E+02  0.62412558837E+02 -0.18152947995E+03  0.23099428905E+03  0.12700000000E+03 0.  0.
   -5000001    1    1    2    0    0 -0.19521321224E+02 -0.62412558837E+02 -0.13428560017E+03  0.19605619576E+03  0.12700000000E+03 0.  0.
<mgrwt>
<rscale>  0 0.28745948E+03</rscale>
<asrwt>0</asrwt>
<pdfrwt beam="1">  1        2 0.53061824E-01 0.28745948E+03</pdfrwt>
<pdfrwt beam="2">  1       -2 0.79453863E-02 0.28745948E+03</pdfrwt>
<totfact> 0.89310609E+03</totfact>
</mgrwt>
</event>
<event>
 4    1  0.1361667E-004  0.3253246E+03  0.7818608E-02  0.1073225E+00
         -2   -1    0    0    0  501 -0.00000000000E+00  0.00000000000E+00  0.82405023957E+01  0.82405027902E+01  0.25500000000E-02 0. -1.
          2   -1    0    0  501    0  0.00000000000E+00 -0.00000000000E+00 -0.32108512437E+04  0.32108512437E+04  0.25500000000E-02 0.  1.
    5000001    1    1    2    0    0  0.12026448570E+02  0.83566921317E+02 -0.21612234827E+04  0.21665973341E+04  0.12700000000E+03 0.  0.
   -5000001    1    1    2    0    0 -0.12026448570E+02 -0.83566921317E+02 -0.10413872585E+04  0.10524944124E+04  0.12700000000E+03 0.  0.
<mgrwt>
<rscale>  0 0.32532463E+03</rscale>
<asrwt>0</asrwt>
<pdfrwt beam="1">  1        2 0.45869223E+00 0.32532463E+03</pdfrwt>
<pdfrwt beam="2">  1       -2 0.11772167E-02 0.32532463E+03</pdfrwt>
<totfact> 0.35785434E+03</totfact>
</mgrwt>
</event>
<event>
 4    1  0.1361667E-004  0.3146244E+03  0.7818608E-02  0.1078150E+00
          2   -1    0    0  501    0  0.00000000000E+00  0.00000000000E+00  0.20127829415E+04  0.20127829415E+04  0.25500000000E-02 0.  1.
         -2   -1    0    0    0  501 -0.00000000000E+00 -0.00000000000E+00 -0.12294980479E+02  0.12294980744E+02  0.25500000000E-02 0. -1.
    5000001    1    1    2    0    0 -0.48056905980E+02 -0.24650028376E+02  0.14862328049E+04  0.14926265576E+04  0.12700000000E+03 0.  0.
   -5000001    1    1    2    0    0  0.48056905980E+02  0.24650028376E+02  0.51425515620E+03  0.53245136472E+03  0.12700000000E+03 0.  0.
<mgrwt>
<rscale>  0 0.31462439E+03</rscale>
<asrwt>0</asrwt>
<pdfrwt beam="1">  1        2 0.28754016E+00 0.31462439E+03</pdfrwt>
<pdfrwt beam="2">  1       -2 0.17564274E-02 0.31462439E+03</pdfrwt>
<totfact> 0.81633257E+03</totfact>
</mgrwt>
</event>
<event>
 4    1  0.1361667E-004  0.4856450E+03  0.7818608E-02  0.1017595E+00
          2   -1    0    0  501    0  0.00000000000E+00  0.00000000000E+00  0.66132572803E+03  0.66132572803E+03  0.25500000000E-02 0.  1.
         -2   -1    0    0    0  501 -0.00000000000E+00 -0.00000000000E+00 -0.89158441059E+02  0.89158441095E+02  0.25500000000E-02 0. -1.
    5000001    1    1    2    0    0 -0.11315096128E+03  0.14041478224E+03  0.44302698491E+03  0.49489530254E+03  0.12700000000E+03 0.  0.
   -5000001    1    1    2    0    0  0.11315096128E+03 -0.14041478224E+03  0.12914030206E+03  0.25558886659E+03  0.12700000000E+03 0.  0.
<mgrwt>
<rscale>  0 0.48564502E+03</rscale>
<asrwt>0</asrwt>
<pdfrwt beam="1">  1        2 0.94475106E-01 0.48564502E+03</pdfrwt>
<pdfrwt beam="2">  1       -2 0.12736920E-01 0.48564502E+03</pdfrwt>
<totfact> 0.22158985E+03</totfact>
</mgrwt>
</event>
<event>
 4    1  0.1361667E-004  0.5138991E+03  0.7818608E-02  0.1010213E+00
          2   -1    0    0  501    0  0.00000000000E+00  0.00000000000E+00  0.81158217934E+03  0.81158217934E+03  0.25500000000E-02 0. -1.
         -2   -1    0    0    0  501 -0.00000000000E+00 -0.00000000000E+00 -0.81351069353E+02  0.81351069393E+02  0.25500000000E-02 0.  1.
    5000001    1    1    2    0    0 -0.16690114360E+03 -0.76126995298E+02  0.14366788144E+03  0.26536912274E+03  0.12700000000E+03 0.  0.
   -5000001    1    1    2    0    0  0.16690114360E+03  0.76126995298E+02  0.58656322855E+03  0.62756412599E+03  0.12700000000E+03 0.  0.
<mgrwt>
<rscale>  0 0.51389913E+03</rscale>
<asrwt>0</asrwt>
<pdfrwt beam="1">  1        2 0.11594031E+00 0.51389913E+03</pdfrwt>
<pdfrwt beam="2">  1       -2 0.11621582E-01 0.51389913E+03</pdfrwt>
<totfact> 0.20009352E+03</totfact>
</mgrwt>
</event>
<event>
 4    1  0.1361667E-004  0.3256691E+03  0.7818608E-02  0.1073069E+00
         -2   -1    0    0    0  501 -0.00000000000E+00  0.00000000000E+00  0.28181818550E+02  0.28181818665E+02  0.25500000000E-02 0. -1.
          2   -1    0    0  501    0  0.00000000000E+00 -0.00000000000E+00 -0.94085810367E+03  0.94085810367E+03  0.25500000000E-02 0.  1.
    5000001    1    1    2    0    0  0.87792976890E+02 -0.36948068227E+02 -0.34850522586E+03  0.38295908266E+03  0.12700000000E+03 0.  0.
   -5000001    1    1    2    0    0 -0.87792976890E+02  0.36948068227E+02 -0.56417105926E+03  0.58608083968E+03  0.12700000000E+03 0.  0.
<mgrwt>
<rscale>  0 0.32566911E+03</rscale>
<asrwt>0</asrwt>
<pdfrwt beam="1">  1        2 0.13440828E+00 0.32566911E+03</pdfrwt>
<pdfrwt beam="2">  1       -2 0.40259747E-02 0.32566911E+03</pdfrwt>
<totfact> 0.86356519E+03</totfact>
</mgrwt>
</event>
<event>
 4    1  0.1361667E-004  0.1043819E+04  0.7818608E-02  0.9261749E-01
         -2   -1    0    0    0  501 -0.00000000000E+00  0.00000000000E+00  0.95561276559E+02  0.95561276593E+02  0.25500000000E-02 0. -1.
          2   -1    0    0  501    0  0.00000000000E+00 -0.00000000000E+00 -0.28504174752E+04  0.28504174752E+04  0.25500000000E-02 0.  1.
    5000001    1    1    2    0    0  0.13589937371E+03  0.46133413582E+03 -0.93151497391E+03  0.10560051947E+04  0.12700000000E+03 0.  0.
   -5000001    1    1    2    0    0 -0.13589937371E+03 -0.46133413582E+03 -0.18233412247E+04  0.18899735570E+04  0.12700000000E+03 0.  0.
<mgrwt>
<rscale>  0 0.10438190E+04</rscale>
<asrwt>0</asrwt>
<pdfrwt beam="1">  1        2 0.40720244E+00 0.10438190E+04</pdfrwt>
<pdfrwt beam="2">  1       -2 0.13651613E-01 0.10438190E+04</pdfrwt>
<totfact> 0.11879087E+02</totfact>
</mgrwt>
</event>
<event>
 4    1  0.1361667E-004  0.4943843E+03  0.7818608E-02  0.1015255E+00
         -2   -1    0    0    0  501 -0.00000000000E+00  0.00000000000E+00  0.16014187047E+02  0.16014187250E+02  0.25500000000E-02 0. -1.
          2   -1    0    0  501    0  0.00000000000E+00 -0.00000000000E+00 -0.38156144304E+04  0.38156144304E+04  0.25500000000E-02 0.  1.
    5000001    1    1    2    0    0  0.15037307271E+03 -0.11110431329E+03 -0.26755561299E+04  0.26850858149E+04  0.12700000000E+03 0.  0.
   -5000001    1    1    2    0    0 -0.15037307271E+03  0.11110431329E+03 -0.11240441134E+04  0.11465428027E+04  0.12700000000E+03 0.  0.
<mgrwt>
<rscale>  0 0.49438432E+03</rscale>
<asrwt>0</asrwt>
<pdfrwt beam="1">  1        2 0.54508719E+00 0.49438432E+03</pdfrwt>
<pdfrwt beam="2">  1       -2 0.22877435E-02 0.49438432E+03</pdfrwt>
<totfact> 0.57666830E+02</totfact>
</mgrwt>
</event>
<event>
 4    1  0.1361667E-004  0.3285349E+03  0.7818608E-02  0.1071787E+00
          2   -1    0    0  501    0  0.00000000000E+00  0.00000000000E+00  0.19055460425E+04  0.19055460425E+04  0.25500000000E-02 0. -1.
         -2   -1    0    0    0  501 -0.00000000000E+00 -0.00000000000E+00 -0.14160661774E+02  0.14160662003E+02  0.25500000000E-02 0.  1.
    5000001    1    1    2    0    0 -0.87133376505E+02 -0.56350384515E+02  0.89112735493E+03  0.90609301611E+03  0.12700000000E+03 0.  0.
   -5000001    1    1    2    0    0  0.87133376505E+02  0.56350384515E+02  0.10002580258E+04  0.10136136884E+04  0.12700000000E+03 0.  0.
<mgrwt>
<rscale>  0 0.32853489E+03</rscale>
<asrwt>0</asrwt>
<pdfrwt beam="1">  1        2 0.27222096E+00 0.32853489E+03</pdfrwt>
<pdfrwt beam="2">  1       -2 0.20229510E-02 0.32853489E+03</pdfrwt>
<totfact> 0.74826870E+03</totfact>
</mgrwt>
</event>
<event>
 4    1  0.1361667E-004  0.4575950E+03  0.7818608E-02  0.1025481E+00
         -2   -1    0    0    0  501 -0.00000000000E+00  0.00000000000E+00  0.25723793649E+02  0.25723793775E+02  0.25500000000E-02 0. -1.
          2   -1    0    0  501    0  0.00000000000E+00 -0.00000000000E+00 -0.20350143640E+04  0.20350143640E+04  0.25500000000E-02 0.  1.
    5000001    1    1    2    0    0 -0.11382504054E+03  0.26214550943E+02 -0.16812960213E+04  0.16901268159E+04  0.12700000000E+03 0.  0.
   -5000001    1    1    2    0    0  0.11382504054E+03 -0.26214550943E+02 -0.32799454910E+03  0.37061134194E+03  0.12700000000E+03 0.  0.
<mgrwt>
<rscale>  0 0.45759497E+03</rscale>
<asrwt>0</asrwt>
<pdfrwt beam="1">  1        2 0.29071624E+00 0.45759497E+03</pdfrwt>
<pdfrwt beam="2">  1       -2 0.36748290E-02 0.45759497E+03</pdfrwt>
<totfact> 0.26346434E+03</totfact>
</mgrwt>
</event>
<event>
 4    1  0.1361667E-004  0.3408595E+03  0.7818608E-02  0.1066430E+00
         -2   -1    0    0    0  501 -0.00000000000E+00  0.00000000000E+00  0.37809935756E+02  0.37809935842E+02  0.25500000000E-02 0. -1.
          2   -1    0    0  501    0  0.00000000000E+00 -0.00000000000E+00 -0.76821852284E+03  0.76821852285E+03  0.25500000000E-02 0.  1.
    5000001    1    1    2    0    0 -0.16460945629E+01 -0.10986318599E+03 -0.29647894427E+03  0.34073654582E+03  0.12700000000E+03 0.  0.
   -5000001    1    1    2    0    0  0.16460945629E+01  0.10986318599E+03 -0.43392964281E+03  0.46529191286E+03  0.12700000000E+03 0.  0.
<mgrwt>
<rscale>  0 0.34085946E+03</rscale>
<asrwt>0</asrwt>
<pdfrwt beam="1">  1        2 0.10974549E+00 0.34085946E+03</pdfrwt>
<pdfrwt beam="2">  1       -2 0.54014199E-02 0.34085946E+03</pdfrwt>
<totfact> 0.71614801E+03</totfact>
</mgrwt>
</event>
<event>
 4    1  0.1361667E-004  0.4170636E+03  0.7818608E-02  0.1038026E+00
         -2   -1    0    0    0  501 -0.00000000000E+00  0.00000000000E+00  0.25774320106E+02  0.25774320232E+02  0.25500000000E-02 0. -1.
          2   -1    0    0  501    0  0.00000000000E+00 -0.00000000000E+00 -0.16871644787E+04  0.16871644787E+04  0.25500000000E-02 0.  1.
    5000001    1    1    2    0    0  0.11898930679E+03  0.93433603012E+02 -0.55615420932E+03  0.59019047590E+03  0.12700000000E+03 0.  0.
   -5000001    1    1    2    0    0 -0.11898930679E+03 -0.93433603012E+02 -0.11052359493E+04  0.11227483231E+04  0.12700000000E+03 0.  0.
<mgrwt>
<rscale>  0 0.41706363E+03</rscale>
<asrwt>0</asrwt>
<pdfrwt beam="1">  1        2 0.24102343E+00 0.41706363E+03</pdfrwt>
<pdfrwt beam="2">  1       -2 0.36820468E-02 0.41706363E+03</pdfrwt>
<totfact> 0.39190249E+03</totfact>
</mgrwt>
</event>
<event>
 4    1  0.1361667E-004  0.3974815E+03  0.7818608E-02  0.1044655E+00
          2   -1    0    0  501    0  0.00000000000E+00  0.00000000000E+00  0.76950017679E+03  0.76950017679E+03  0.25500000000E-02 0.  1.
         -2   -1    0    0    0  501 -0.00000000000E+00 -0.00000000000E+00 -0.51329278938E+02  0.51329279001E+02  0.25500000000E-02 0. -1.
    5000001    1    1    2    0    0 -0.12140784759E+03 -0.27383819824E+02  0.17577986992E+03  0.25003460103E+03  0.12700000000E+03 0.  0.
   -5000001    1    1    2    0    0  0.12140784759E+03  0.27383819824E+02  0.54239102793E+03  0.57079485476E+03  0.12700000000E+03 0.  0.
<mgrwt>
<rscale>  0 0.39748152E+03</rscale>
<asrwt>0</asrwt>
<pdfrwt beam="1">  1        2 0.10992860E+00 0.39748152E+03</pdfrwt>
<pdfrwt beam="2">  1       -2 0.73327538E-02 0.39748152E+03</pdfrwt>
<totfact> 0.44624309E+03</totfact>
</mgrwt>
</event>
<event>
 4    1  0.1361667E-004  0.3041946E+03  0.7818608E-02  0.1083162E+00
          2   -1    0    0  501    0  0.00000000000E+00  0.00000000000E+00  0.17327011892E+04  0.17327011892E+04  0.25500000000E-02 0.  1.
         -2   -1    0    0    0  501 -0.00000000000E+00 -0.00000000000E+00 -0.13351172784E+02  0.13351173027E+02  0.25500000000E-02 0. -1.
    5000001    1    1    2    0    0  0.57859531017E+02 -0.60457859289E+02  0.86719209899E+03  0.88042831317E+03  0.12700000000E+03 0.  0.
   -5000001    1    1    2    0    0 -0.57859531017E+02  0.60457859289E+02  0.85215791745E+03  0.86562404909E+03  0.12700000000E+03 0.  0.
<mgrwt>
<rscale>  0 0.30419463E+03</rscale>
<asrwt>0</asrwt>
<pdfrwt beam="1">  1        2 0.24752862E+00 0.30419463E+03</pdfrwt>
<pdfrwt beam="2">  1       -2 0.19073114E-02 0.30419463E+03</pdfrwt>
<totfact> 0.99196968E+03</totfact>
</mgrwt>
</event>
<event>
 4    1  0.1361667E-004  0.3938893E+03  0.7818608E-02  0.1045916E+00
         -2   -1    0    0    0  501 -0.00000000000E+00  0.00000000000E+00  0.26549464188E+03  0.26549464190E+03  0.25500000000E-02 0. -1.
          2   -1    0    0  501    0  0.00000000000E+00 -0.00000000000E+00 -0.14609404440E+03  0.14609404442E+03  0.25500000000E-02 0.  1.
    5000001    1    1    2    0    0  0.81274445443E+02 -0.12062080480E+03  0.19186023278E+02  0.19404127788E+03  0.12700000000E+03 0.  0.
   -5000001    1    1    2    0    0 -0.81274445443E+02  0.12062080480E+03  0.10021457421E+03  0.21754740843E+03  0.12700000000E+03 0.  0.
<mgrwt>
<rscale>  0 0.39388925E+03</rscale>
<asrwt>0</asrwt>
<pdfrwt beam="1">  1        2 0.20870578E-01 0.39388925E+03</pdfrwt>
<pdfrwt beam="2">  1       -2 0.37927806E-01 0.39388925E+03</pdfrwt>
<totfact> 0.17572690E+03</totfact>
</mgrwt>
</event>
<event>
 4    1  0.1361667E-004  0.2831575E+03  0.7818608E-02  0.1093977E+00
         -2   -1    0    0    0  501 -0.00000000000E+00  0.00000000000E+00  0.18428934178E+02  0.18428934354E+02  0.25500000000E-02 0. -1.
          2   -1    0    0  501    0  0.00000000000E+00 -0.00000000000E+00 -0.10876667799E+04  0.10876667799E+04  0.25500000000E-02 0.  1.
    5000001    1    1    2    0    0  0.25869968673E+02  0.56097618369E+02 -0.57355301829E+03  0.59068457137E+03  0.12700000000E+03 0.  0.
   -5000001    1    1    2    0    0 -0.25869968673E+02 -0.56097618369E+02 -0.49568482745E+03  0.51541114290E+03  0.12700000000E+03 0.  0.
<mgrwt>
<rscale>  0 0.28315748E+03</rscale>
<asrwt>0</asrwt>
<pdfrwt beam="1">  1        2 0.15538093E+00 0.28315748E+03</pdfrwt>
<pdfrwt beam="2">  1       -2 0.26327056E-02 0.28315748E+03</pdfrwt>
<totfact> 0.13308021E+04</totfact>
</mgrwt>
</event>
<event>
 4    1  0.1361667E-004  0.4935805E+03  0.7818608E-02  0.1015468E+00
         -2   -1    0    0    0  501 -0.00000000000E+00  0.00000000000E+00  0.12939312889E+02  0.12939313140E+02  0.25500000000E-02 0. -1.
          2   -1    0    0  501    0  0.00000000000E+00 -0.00000000000E+00 -0.47070057651E+04  0.47070057651E+04  0.25500000000E-02 0.  1.
    5000001    1    1    2    0    0  0.30959482786E+02  0.17498862829E+03 -0.34455713278E+04  0.34524875503E+04  0.12700000000E+03 0.  0.
   -5000001    1    1    2    0    0 -0.30959482786E+02 -0.17498862829E+03 -0.12484951244E+04  0.12674575280E+04  0.12700000000E+03 0.  0.
<mgrwt>
<rscale>  0 0.49358047E+03</rscale>
<asrwt>0</asrwt>
<pdfrwt beam="1">  1        2 0.67242830E+00 0.49358047E+03</pdfrwt>
<pdfrwt beam="2">  1       -2 0.18484763E-02 0.49358047E+03</pdfrwt>
<totfact> 0.18113931E+02</totfact>
</mgrwt>
</event>
<event>
 4    1  0.1361667E-004  0.5736429E+03  0.7818608E-02  0.9961650E-01
          2   -1    0    0  501    0  0.00000000000E+00  0.00000000000E+00  0.68799249324E+03  0.68799249324E+03  0.25500000000E-02 0.  1.
         -2   -1    0    0    0  501 -0.00000000000E+00 -0.00000000000E+00 -0.11957477690E+03  0.11957477693E+03  0.25500000000E-02 0. -1.
    5000001    1    1    2    0    0  0.21884939088E+03 -0.11435167707E+03  0.38539525554E+03  0.47500512096E+03  0.12700000000E+03 0.  0.
   -5000001    1    1    2    0    0 -0.21884939088E+03  0.11435167707E+03  0.18302246079E+03  0.33256214922E+03  0.12700000000E+03 0.  0.
<mgrwt>
<rscale>  0 0.57364292E+03</rscale>
<asrwt>0</asrwt>
<pdfrwt beam="1">  1        2 0.98284640E-01 0.57364292E+03</pdfrwt>
<pdfrwt beam="2">  1       -2 0.17082111E-01 0.57364292E+03</pdfrwt>
<totfact> 0.12916576E+03</totfact>
</mgrwt>
</event>
<event>
 4    1  0.1361667E-004  0.3703465E+03  0.7818608E-02  0.1054561E+00
         -2   -1    0    0    0  501 -0.00000000000E+00  0.00000000000E+00  0.14521296960E+02  0.14521297184E+02  0.25500000000E-02 0. -1.
          2   -1    0    0  501    0  0.00000000000E+00 -0.00000000000E+00 -0.23612991931E+04  0.23612991931E+04  0.25500000000E-02 0.  1.
    5000001    1    1    2    0    0  0.43065704595E+01  0.86331100942E+02 -0.18366190535E+04  0.18430328682E+04  0.12700000000E+03 0.  0.
   -5000001    1    1    2    0    0 -0.43065704595E+01 -0.86331100942E+02 -0.51015884267E+03  0.53278762213E+03  0.12700000000E+03 0.  0.
<mgrwt>
<rscale>  0 0.37034647E+03</rscale>
<asrwt>0</asrwt>
<pdfrwt beam="1">  1        2 0.33732821E+00 0.37034647E+03</pdfrwt>
<pdfrwt beam="2">  1       -2 0.20744725E-02 0.37034647E+03</pdfrwt>
<totfact> 0.42931847E+03</totfact>
</mgrwt>
</event>
<event>
 4    1  0.1361667E-004  0.5141759E+03  0.7818608E-02  0.1010144E+00
          2   -1    0    0  501    0  0.00000000000E+00  0.00000000000E+00  0.36303000068E+04  0.36303000068E+04  0.25500000000E-02 0.  1.
         -2   -1    0    0    0  501 -0.00000000000E+00 -0.00000000000E+00 -0.18206269160E+02  0.18206269338E+02  0.25500000000E-02 0. -1.
    5000001    1    1    2    0    0 -0.21443501181E+03 -0.53621084385E+02  0.20422032149E+04  0.20580526150E+04  0.12700000000E+03 0.  0.
   -5000001    1    1    2    0    0  0.21443501181E+03  0.53621084385E+02  0.15698905227E+04  0.15904536612E+04  0.12700000000E+03 0.  0.
<mgrwt>
<rscale>  0 0.51417592E+03</rscale>
<asrwt>0</asrwt>
<pdfrwt beam="1">  1        2 0.51861459E+00 0.51417592E+03</pdfrwt>
<pdfrwt beam="2">  1       -2 0.26008941E-02 0.51417592E+03</pdfrwt>
<totfact> 0.61787713E+02</totfact>
</mgrwt>
</event>
<event>
 4    1  0.1361667E-004  0.3407210E+03  0.7818608E-02  0.1066489E+00
          2   -1    0    0  501    0  0.00000000000E+00  0.00000000000E+00  0.19471270948E+03  0.19471270950E+03  0.25500000000E-02 0.  1.
         -2   -1    0    0    0  501 -0.00000000000E+00 -0.00000000000E+00 -0.14905398945E+03  0.14905398947E+03  0.25500000000E-02 0. -1.
    5000001    1    1    2    0    0 -0.18264536104E+02 -0.83453198074E+02 -0.52643561093E+02  0.16185911798E+03  0.12700000000E+03 0.  0.
   -5000001    1    1    2    0    0  0.18264536104E+02  0.83453198074E+02  0.98302281122E+02  0.18190758099E+03  0.12700000000E+03 0.  0.
<mgrwt>
<rscale>  0 0.34072104E+03</rscale>
<asrwt>0</asrwt>
<pdfrwt beam="1">  1        2 0.27816101E-01 0.34072104E+03</pdfrwt>
<pdfrwt beam="2">  1       -2 0.21293427E-01 0.34072104E+03</pdfrwt>
<totfact> 0.36086018E+03</totfact>
</mgrwt>
</event>
<event>
 4    1  0.1361667E-004  0.3691932E+03  0.7818608E-02  0.1055002E+00
          2   -1    0    0  501    0  0.00000000000E+00  0.00000000000E+00  0.11047620405E+04  0.11047620405E+04  0.25500000000E-02 0.  1.
         -2   -1    0    0    0  501 -0.00000000000E+00 -0.00000000000E+00 -0.30844559231E+02  0.30844559336E+02  0.25500000000E-02 0. -1.
    5000001    1    1    2    0    0  0.54215779057E+02  0.42676266953E+02  0.18374672833E+03  0.23377868729E+03  0.12700000000E+03 0.  0.
   -5000001    1    1    2    0    0 -0.54215779057E+02 -0.42676266953E+02  0.89017075295E+03  0.90182791256E+03  0.12700000000E+03 0.  0.
<mgrwt>
<rscale>  0 0.36919316E+03</rscale>
<asrwt>0</asrwt>
<pdfrwt beam="1">  1        2 0.15782312E+00 0.36919316E+03</pdfrwt>
<pdfrwt beam="2">  1       -2 0.44063664E-02 0.36919316E+03</pdfrwt>
<totfact> 0.60425276E+03</totfact>
</mgrwt>
</event>
<event>
 4    1  0.1361667E-004  0.5409724E+03  0.7818608E-02  0.1003605E+00
          2   -1    0    0  501    0  0.00000000000E+00  0.00000000000E+00  0.92135664167E+02  0.92135664202E+02  0.25500000000E-02 0.  1.
         -2   -1    0    0    0  501 -0.00000000000E+00 -0.00000000000E+00 -0.79407667608E+03  0.79407667608E+03  0.25500000000E-02 0. -1.
    5000001    1    1    2    0    0  0.11764958862E+03 -0.20601374010E+03 -0.39585481035E+03  0.47865762052E+03  0.12700000000E+03 0.  0.
   -5000001    1    1    2    0    0 -0.11764958862E+03  0.20601374010E+03 -0.30608620157E+03  0.40755471976E+03  0.12700000000E+03 0.  0.
<mgrwt>
<rscale>  0 0.54097239E+03</rscale>
<asrwt>0</asrwt>
<pdfrwt beam="1">  1        2 0.13162238E-01 0.54097239E+03</pdfrwt>
<pdfrwt beam="2">  1       -2 0.11343952E+00 0.54097239E+03</pdfrwt>
<totfact> 0.29059502E+02</totfact>
</mgrwt>
</event>
<event>
 4    1  0.1361667E-004  0.3086967E+03  0.7818608E-02  0.1080972E+00
          2   -1    0    0  501    0  0.00000000000E+00  0.00000000000E+00  0.13686038024E+03  0.13686038027E+03  0.25500000000E-02 0.  1.
         -2   -1    0    0    0  501 -0.00000000000E+00 -0.00000000000E+00 -0.17407090739E+03  0.17407090741E+03  0.25500000000E-02 0. -1.
    5000001    1    1    2    0    0  0.69697364068E+02 -0.50624870449E+02 -0.19382601901E+01  0.15347102957E+03  0.12700000000E+03 0.  0.
   -5000001    1    1    2    0    0 -0.69697364068E+02  0.50624870449E+02 -0.35272266959E+02  0.15746025810E+03  0.12700000000E+03 0.  0.
<mgrwt>
<rscale>  0 0.30869668E+03</rscale>
<asrwt>0</asrwt>
<pdfrwt beam="1">  1        2 0.19551483E-01 0.30869668E+03</pdfrwt>
<pdfrwt beam="2">  1       -2 0.24867272E-01 0.30869668E+03</pdfrwt>
<totfact> 0.40879546E+03</totfact>
</mgrwt>
</event>
<event>
 4    1  0.1361667E-004  0.3032594E+03  0.7818608E-02  0.1083623E+00
          2   -1    0    0  501    0  0.00000000000E+00  0.00000000000E+00  0.96119786088E+02  0.96119786122E+02  0.25500000000E-02 0.  1.
         -2   -1    0    0    0  501 -0.00000000000E+00 -0.00000000000E+00 -0.23919697057E+03  0.23919697058E+03  0.25500000000E-02 0. -1.
    5000001    1    1    2    0    0 -0.67494228306E+02  0.44813488834E+02 -0.52424140110E+02  0.15950238275E+03  0.12700000000E+03 0.  0.
   -5000001    1    1    2    0    0  0.67494228306E+02 -0.44813488834E+02 -0.90653044372E+02  0.17581437396E+03  0.12700000000E+03 0.  0.
<mgrwt>
<rscale>  0 0.30325937E+03</rscale>
<asrwt>0</asrwt>
<pdfrwt beam="1">  1        2 0.13731398E-01 0.30325937E+03</pdfrwt>
<pdfrwt beam="2">  1       -2 0.34170996E-01 0.30325937E+03</pdfrwt>
<totfact> 0.34808809E+03</totfact>
</mgrwt>
</event>
<event>
 4    1  0.1361667E-004  0.5105420E+03  0.7818608E-02  0.1011063E+00
         -2   -1    0    0    0  501 -0.00000000000E+00  0.00000000000E+00  0.61934733429E+02  0.61934733481E+02  0.25500000000E-02 0. -1.
          2   -1    0    0  501    0  0.00000000000E+00 -0.00000000000E+00 -0.10521283197E+04  0.10521283197E+04  0.25500000000E-02 0.  1.
    5000001    1    1    2    0    0  0.20362739929E+02 -0.11524250619E+03 -0.84888677258E+02  0.19243327139E+03  0.12700000000E+03 0.  0.
   -5000001    1    1    2    0    0 -0.20362739929E+02  0.11524250619E+03 -0.90530490900E+03  0.92162978178E+03  0.12700000000E+03 0.  0.
<mgrwt>
<rscale>  0 0.51054201E+03</rscale>
<asrwt>0</asrwt>
<pdfrwt beam="1">  1        2 0.15030404E+00 0.51054201E+03</pdfrwt>
<pdfrwt beam="2">  1       -2 0.88478197E-02 0.51054201E+03</pdfrwt>
<totfact> 0.21917157E+03</totfact>
</mgrwt>
</event>
<event>
 4    1  0.1361667E-004  0.4151317E+03  0.7818608E-02  0.1038663E+00
          2   -1    0    0  501    0  0.00000000000E+00  0.00000000000E+00  0.82473867236E+03  0.82473867237E+03  0.25500000000E-02 0.  1.
         -2   -1    0    0    0  501 -0.00000000000E+00 -0.00000000000E+00 -0.52239062739E+02  0.52239062801E+02  0.25500000000E-02 0. -1.
    5000001    1    1    2    0    0  0.11833360662E+03 -0.10749700909E+03  0.46518396447E+03  0.50801926166E+03  0.12700000000E+03 0.  0.
   -5000001    1    1    2    0    0 -0.11833360662E+03  0.10749700909E+03  0.30731564516E+03  0.36895847351E+03  0.12700000000E+03 0.  0.
<mgrwt>
<rscale>  0 0.41513167E+03</rscale>
<asrwt>0</asrwt>
<pdfrwt beam="1">  1        2 0.11781982E+00 0.41513167E+03</pdfrwt>
<pdfrwt beam="2">  1       -2 0.74627224E-02 0.41513167E+03</pdfrwt>
<totfact> 0.39812806E+03</totfact>
</mgrwt>
</event>
<event>
 4    1  0.1361667E-004  0.3664334E+03  0.7818608E-02  0.1056065E+00
         -2   -1    0    0    0  501 -0.00000000000E+00  0.00000000000E+00  0.93461784142E+02  0.93461784177E+02  0.25500000000E-02 0. -1.
          2   -1    0    0  501    0  0.00000000000E+00 -0.00000000000E+00 -0.35916675566E+03  0.35916675567E+03  0.25500000000E-02 0.  1.
    5000001    1    1    2    0    0  0.88587252209E+02  0.30970529599E+01 -0.11938490257E+02  0.15533454394E+03  0.12700000000E+03 0.  0.
   -5000001    1    1    2    0    0 -0.88587252209E+02 -0.30970529599E+01 -0.25376648126E+03  0.29729399590E+03  0.12700000000E+03 0.  0.
<mgrwt>
<rscale>  0 0.36643344E+03</rscale>
<asrwt>0</asrwt>
<pdfrwt beam="1">  1        2 0.51309536E-01 0.36643344E+03</pdfrwt>
<pdfrwt beam="2">  1       -2 0.13351684E-01 0.36643344E+03</pdfrwt>
<totfact> 0.40646645E+03</totfact>
</mgrwt>
</event>
<event>
 4    1  0.1361667E-004  0.2969550E+03  0.7818608E-02  0.1086773E+00
          2   -1    0    0  501    0  0.00000000000E+00  0.00000000000E+00  0.20950652732E+04  0.20950652732E+04  0.25500000000E-02 0.  1.
         -2   -1    0    0    0  501 -0.00000000000E+00 -0.00000000000E+00 -0.10522616711E+02  0.10522617019E+02  0.25500000000E-02 0. -1.
    5000001    1    1    2    0    0  0.37818517094E+02 -0.55060548855E+02  0.77183551669E+03  0.78506112444E+03  0.12700000000E+03 0.  0.
   -5000001    1    1    2    0    0 -0.37818517094E+02  0.55060548855E+02  0.13127071398E+04  0.13205267657E+04  0.12700000000E+03 0.  0.
<mgrwt>
<rscale>  0 0.29695501E+03</rscale>
<asrwt>0</asrwt>
<pdfrwt beam="1">  1        2 0.29929467E+00 0.29695501E+03</pdfrwt>
<pdfrwt beam="2">  1       -2 0.15032328E-02 0.29695501E+03</pdfrwt>
<totfact> 0.93470665E+03</totfact>
</mgrwt>
</event>
<event>
 4    1  0.1361667E-004  0.4632903E+03  0.7818608E-02  0.1023831E+00
          2   -1    0    0  501    0  0.00000000000E+00  0.00000000000E+00  0.15096265930E+04  0.15096265930E+04  0.25500000000E-02 0.  1.
         -2   -1    0    0    0  501 -0.00000000000E+00 -0.00000000000E+00 -0.35544859446E+02  0.35544859538E+02  0.25500000000E-02 0. -1.
    5000001    1    1    2    0    0  0.14544522890E+03 -0.58861962357E+02  0.11160158246E+04  0.11341249341E+04  0.12700000000E+03 0.  0.
   -5000001    1    1    2    0    0 -0.14544522890E+03  0.58861962357E+02  0.35806590890E+03  0.41104651846E+03  0.12700000000E+03 0.  0.
<mgrwt>
<rscale>  0 0.46329026E+03</rscale>
<asrwt>0</asrwt>
<pdfrwt beam="1">  1        2 0.21566091E+00 0.46329026E+03</pdfrwt>
<pdfrwt beam="2">  1       -2 0.50778379E-02 0.46329026E+03</pdfrwt>
<totfact> 0.29490810E+03</totfact>
</mgrwt>
</event>
<event>
 4    1  0.1361667E-004  0.7468445E+03  0.7818608E-02  0.9640314E-01
         -2   -1    0    0    0  501 -0.00000000000E+00  0.00000000000E+00  0.46616061459E+03  0.46616061459E+03  0.25500000000E-02 0. -1.
          2   -1    0    0  501    0  0.00000000000E+00 -0.00000000000E+00 -0.29913330021E+03  0.29913330022E+03  0.25500000000E-02 0.  1.
    5000001    1    1    2    0    0  0.22037753405E+03 -0.25458804187E+03 -0.18617100630E+02  0.36035666362E+03  0.12700000000E+03 0.  0.
   -5000001    1    1    2    0    0 -0.22037753405E+03  0.25458804187E+03  0.18564441501E+03  0.40493725119E+03  0.12700000000E+03 0.  0.
<mgrwt>
<rscale>  0 0.74684446E+03</rscale>
<asrwt>0</asrwt>
<pdfrwt beam="1">  1        2 0.42733329E-01 0.74684446E+03</pdfrwt>
<pdfrwt beam="2">  1       -2 0.66594373E-01 0.74684446E+03</pdfrwt>
<totfact> 0.24999413E+02</totfact>
</mgrwt>
</event>
<event>
 4    1  0.1361667E-004  0.3441502E+03  0.7818608E-02  0.1065042E+00
         -2   -1    0    0    0  501 -0.00000000000E+00  0.00000000000E+00  0.54456005141E+03  0.54456005142E+03  0.25500000000E-02 0. -1.
          2   -1    0    0  501    0  0.00000000000E+00 -0.00000000000E+00 -0.54373868830E+02  0.54373868889E+02  0.25500000000E-02 0.  1.
    5000001    1    1    2    0    0 -0.11399807929E+03  0.18383414857E+02  0.22396944734E+03  0.28217871175E+03  0.12700000000E+03 0.  0.
   -5000001    1    1    2    0    0  0.11399807929E+03 -0.18383414857E+02  0.26621673525E+03  0.31675520856E+03  0.12700000000E+03 0.  0.
<mgrwt>
<rscale>  0 0.34415018E+03</rscale>
<asrwt>0</asrwt>
<pdfrwt beam="1">  1        2 0.77676951E-02 0.34415018E+03</pdfrwt>
<pdfrwt beam="2">  1       -2 0.77794298E-01 0.34415018E+03</pdfrwt>
<totfact> 0.13459545E+03</totfact>
</mgrwt>
</event>
<event>
 4    1  0.1361667E-004  0.4476115E+03  0.7818608E-02  0.1028437E+00
         -2   -1    0    0    0  501 -0.00000000000E+00  0.00000000000E+00  0.50211571861E+02  0.50211571926E+02  0.25500000000E-02 0. -1.
          2   -1    0    0  501    0  0.00000000000E+00 -0.00000000000E+00 -0.99755899100E+03  0.99755899100E+03  0.25500000000E-02 0.  1.
    5000001    1    1    2    0    0 -0.53676514845E+02  0.15247995243E+03 -0.26655952462E+03  0.33662187140E+03  0.12700000000E+03 0.  0.
   -5000001    1    1    2    0    0  0.53676514845E+02 -0.15247995243E+03 -0.68078789451E+03  0.71114869153E+03  0.12700000000E+03 0.  0.
<mgrwt>
<rscale>  0 0.44761146E+03</rscale>
<asrwt>0</asrwt>
<pdfrwt beam="1">  1        2 0.14250842E+00 0.44761146E+03</pdfrwt>
<pdfrwt beam="2">  1       -2 0.71730823E-02 0.44761146E+03</pdfrwt>
<totfact> 0.32939584E+03</totfact>
</mgrwt>
</event>
<event>
 4    1  0.1361667E-004  0.3535648E+03  0.7818608E-02  0.1061161E+00
          2   -1    0    0  501    0  0.00000000000E+00  0.00000000000E+00  0.57518173514E+02  0.57518173571E+02  0.25500000000E-02 0.  1.
         -2   -1    0    0    0  501 -0.00000000000E+00 -0.00000000000E+00 -0.54334146058E+03  0.54334146059E+03  0.25500000000E-02 0. -1.
    5000001    1    1    2    0    0 -0.10762617381E+03 -0.58888330816E+02 -0.25730972661E+03  0.31207134473E+03  0.12700000000E+03 0.  0.
   -5000001    1    1    2    0    0  0.10762617381E+03  0.58888330816E+02 -0.22851356046E+03  0.28878828943E+03  0.12700000000E+03 0.  0.
<mgrwt>
<rscale>  0 0.35356475E+03</rscale>
<asrwt>0</asrwt>
<pdfrwt beam="1">  1        2 0.82168823E-02 0.35356475E+03</pdfrwt>
<pdfrwt beam="2">  1       -2 0.77620206E-01 0.35356475E+03</pdfrwt>
<totfact> 0.12591873E+03</totfact>
</mgrwt>
</event>
<event>
 4    1  0.1361667E-004  0.3882743E+03  0.7818608E-02  0.1047917E+00
          2   -1    0    0  501    0  0.00000000000E+00  0.00000000000E+00  0.13668972740E+04  0.13668972740E+04  0.25500000000E-02 0.  1.
         -2   -1    0    0    0  501 -0.00000000000E+00 -0.00000000000E+00 -0.27572836199E+02  0.27572836316E+02  0.25500000000E-02 0. -1.
    5000001    1    1    2    0    0 -0.45978415721E+02 -0.91745662070E+02  0.10468327101E+04  0.10594899736E+04  0.12700000000E+03 0.  0.
   -5000001    1    1    2    0    0  0.45978415721E+02  0.91745662070E+02  0.29249172768E+03  0.33498013670E+03  0.12700000000E+03 0.  0.
<mgrwt>
<rscale>  0 0.38827431E+03</rscale>
<asrwt>0</asrwt>
<pdfrwt beam="1">  1        2 0.19527105E+00 0.38827431E+03</pdfrwt>
<pdfrwt beam="2">  1       -2 0.39389763E-02 0.38827431E+03</pdfrwt>
<totfact> 0.51597383E+03</totfact>
</mgrwt>
</event>
<event>
 4    1  0.1361667E-004  0.6180148E+03  0.7818608E-02  0.9868720E-01
         -2   -1    0    0    0  501 -0.00000000000E+00  0.00000000000E+00  0.75821090798E+02  0.75821090841E+02  0.25500000000E-02 0. -1.
          2   -1    0    0  501    0  0.00000000000E+00 -0.00000000000E+00 -0.12593538191E+04  0.12593538191E+04  0.25500000000E-02 0.  1.
    5000001    1    1    2    0    0  0.11260069078E+03 -0.22201754310E+03 -0.87663035291E+03  0.92009808208E+03  0.12700000000E+03 0.  0.
   -5000001    1    1    2    0    0 -0.11260069078E+03  0.22201754310E+03 -0.30690237539E+03  0.41507682786E+03  0.12700000000E+03 0.  0.
<mgrwt>
<rscale>  0 0.61801482E+03</rscale>
<asrwt>0</asrwt>
<pdfrwt beam="1">  1        2 0.17990768E+00 0.61801482E+03</pdfrwt>
<pdfrwt beam="2">  1       -2 0.10831585E-01 0.61801482E+03</pdfrwt>
<totfact> 0.12023886E+03</totfact>
</mgrwt>
</event>
<event>
 4    1  0.1361667E-004  0.2714000E+03  0.7818608E-02  0.1100481E+00
         -2   -1    0    0    0  501 -0.00000000000E+00  0.00000000000E+00  0.18275433296E+03  0.18275433298E+03  0.25500000000E-02 0. -1.
          2   -1    0    0  501    0  0.00000000000E+00 -0.00000000000E+00 -0.10076093085E+03  0.10076093089E+03  0.25500000000E-02 0.  1.
    5000001    1    1    2    0    0 -0.44057860438E+02  0.13920779614E+02  0.28176390812E+02  0.13804996259E+03  0.12700000000E+03 0.  0.
   -5000001    1    1    2    0    0  0.44057860438E+02 -0.13920779614E+02  0.53817011297E+02  0.14546530128E+03  0.12700000000E+03 0.  0.
<mgrwt>
<rscale>  0 0.27140005E+03</rscale>
<asrwt>0</asrwt>
<pdfrwt beam="1">  1        2 0.14394419E-01 0.27140005E+03</pdfrwt>
<pdfrwt beam="2">  1       -2 0.26107762E-01 0.27140005E+03</pdfrwt>
<totfact> 0.53456949E+03</totfact>
</mgrwt>
</event>
<event>
 4    1  0.1361667E-004  0.5344461E+03  0.7818608E-02  0.1005160E+00
          2   -1    0    0  501    0  0.00000000000E+00  0.00000000000E+00  0.29733309266E+03  0.29733309267E+03  0.25500000000E-02 0.  1.
         -2   -1    0    0    0  501 -0.00000000000E+00 -0.00000000000E+00 -0.24016216726E+03  0.24016216728E+03  0.25500000000E-02 0. -1.
    5000001    1    1    2    0    0 -0.97766737542E+02  0.18869098365E+03  0.12974030402E+03  0.27950701023E+03  0.12700000000E+03 0.  0.
   -5000001    1    1    2    0    0  0.97766737542E+02 -0.18869098365E+03 -0.72569378628E+02  0.25798824972E+03  0.12700000000E+03 0.  0.
<mgrwt>
<rscale>  0 0.53444611E+03</rscale>
<asrwt>0</asrwt>
<pdfrwt beam="1">  1        2 0.42476156E-01 0.53444611E+03</pdfrwt>
<pdfrwt beam="2">  1       -2 0.34308881E-01 0.53444611E+03</pdfrwt>
<totfact> 0.96061454E+02</totfact>
</mgrwt>
</event>
<event>
 4    1  0.1361667E-004  0.8407422E+03  0.7818608E-02  0.9502847E-01
         -2   -1    0    0    0  501 -0.00000000000E+00  0.00000000000E+00  0.44867465525E+03  0.44867465525E+03  0.25500000000E-02 0.  1.
          2   -1    0    0  501    0  0.00000000000E+00 -0.00000000000E+00 -0.39385297712E+03  0.39385297713E+03  0.25500000000E-02 0. -1.
    5000001    1    1    2    0    0 -0.31119391182E+03 -0.19714763726E+02  0.27964464363E+03  0.43767619237E+03  0.12700000000E+03 0.  0.
   -5000001    1    1    2    0    0  0.31119391182E+03  0.19714763726E+02 -0.22482296550E+03  0.40485144001E+03  0.12700000000E+03 0.  0.
<mgrwt>
<rscale>  0 0.84074217E+03</rscale>
<asrwt>0</asrwt>
<pdfrwt beam="1">  1        2 0.56264711E-01 0.84074217E+03</pdfrwt>
<pdfrwt beam="2">  1       -2 0.64096379E-01 0.84074217E+03</pdfrwt>
<totfact> 0.19915713E+02</totfact>
</mgrwt>
</event>
<event>
 4    1  0.1361667E-004  0.1274398E+04  0.7818608E-02  0.9050118E-01
          2   -1    0    0  501    0  0.00000000000E+00  0.00000000000E+00  0.14196891129E+04  0.14196891129E+04  0.25500000000E-02 0.  1.
         -2   -1    0    0    0  501 -0.00000000000E+00 -0.00000000000E+00 -0.28599413671E+03  0.28599413672E+03  0.25500000000E-02 0. -1.
    5000001    1    1    2    0    0 -0.38911970173E+03  0.44676291614E+03  0.83076632098E+03  0.10282572273E+04  0.12700000000E+03 0.  0.
   -5000001    1    1    2    0    0  0.38911970173E+03 -0.44676291614E+03  0.30292865523E+03  0.67742602229E+03  0.12700000000E+03 0.  0.
<mgrwt>
<rscale>  0 0.12743983E+04</rscale>
<asrwt>0</asrwt>
<pdfrwt beam="1">  1        2 0.20281273E+00 0.12743983E+04</pdfrwt>
<pdfrwt beam="2">  1       -2 0.40856305E-01 0.12743983E+04</pdfrwt>
<totfact> 0.89908662E+01</totfact>
</mgrwt>
</event>
<event>
 4    1  0.1361667E-004  0.2674599E+03  0.7818608E-02  0.1102742E+00
         -2   -1    0    0    0  501 -0.00000000000E+00  0.00000000000E+00  0.25846513892E+03  0.25846513893E+03  0.25500000000E-02 0. -1.
          2   -1    0    0  501    0  0.00000000000E+00 -0.00000000000E+00 -0.69191926358E+02  0.69191926405E+02  0.25500000000E-02 0.  1.
    5000001    1    1    2    0    0 -0.14832811217E+02 -0.38924154796E+02  0.89213163528E+02  0.16069564606E+03  0.12700000000E+03 0.  0.
   -5000001    1    1    2    0    0  0.14832811217E+02  0.38924154796E+02  0.10006004904E+03  0.16696141928E+03  0.12700000000E+03 0.  0.
<mgrwt>
<rscale>  0 0.26745991E+03</rscale>
<asrwt>0</asrwt>
<pdfrwt beam="1">  1        2 0.98845608E-02 0.26745991E+03</pdfrwt>
<pdfrwt beam="2">  1       -2 0.36923592E-01 0.26745991E+03</pdfrwt>
<totfact> 0.44824961E+03</totfact>
</mgrwt>
</event>
<event>
 4    1  0.1361667E-004  0.4064849E+03  0.7818608E-02  0.1041557E+00
          2   -1    0    0  501    0  0.00000000000E+00  0.00000000000E+00  0.72533083759E+03  0.72533083760E+03  0.25500000000E-02 0.  1.
         -2   -1    0    0    0  501 -0.00000000000E+00 -0.00000000000E+00 -0.56949853237E+02  0.56949853294E+02  0.25500000000E-02 0. -1.
    5000001    1    1    2    0    0 -0.87262101214E+02 -0.64367729795E+02  0.11124212309E+03  0.20065315571E+03  0.12700000000E+03 0.  0.
   -5000001    1    1    2    0    0  0.87262101214E+02  0.64367729795E+02  0.55713886127E+03  0.58162753518E+03  0.12700000000E+03 0.  0.
<mgrwt>
<rscale>  0 0.40648486E+03</rscale>
<asrwt>0</asrwt>
<pdfrwt beam="1">  1        2 0.10361869E+00 0.40648486E+03</pdfrwt>
<pdfrwt beam="2">  1       -2 0.81356937E-02 0.40648486E+03</pdfrwt>
<totfact> 0.40760799E+03</totfact>
</mgrwt>
</event>
<event>
 4    1  0.1361667E-004  0.3254775E+03  0.7818608E-02  0.1073156E+00
          2   -1    0    0  501    0  0.00000000000E+00  0.00000000000E+00  0.13589693499E+04  0.13589693499E+04  0.25500000000E-02 0.  1.
         -2   -1    0    0    0  501 -0.00000000000E+00 -0.00000000000E+00 -0.19488223271E+02  0.19488223438E+02  0.25500000000E-02 0. -1.
    5000001    1    1    2    0    0  0.74954471290E+02 -0.37185928115E+02  0.91501347866E+03  0.92756651090E+03  0.12700000000E+03 0.  0.
   -5000001    1    1    2    0    0 -0.74954471290E+02  0.37185928115E+02  0.42446764798E+03  0.45089106245E+03  0.12700000000E+03 0.  0.
<mgrwt>
<rscale>  0 0.32547748E+03</rscale>
<asrwt>0</asrwt>
<pdfrwt beam="1">  1        2 0.19413858E+00 0.32547748E+03</pdfrwt>
<pdfrwt beam="2">  1       -2 0.27840305E-02 0.32547748E+03</pdfrwt>
<totfact> 0.87600493E+03</totfact>
</mgrwt>
</event>
<event>
 4    1  0.1361667E-004  0.7097023E+03  0.7818608E-02  0.9700782E-01
          2   -1    0    0  501    0  0.00000000000E+00  0.00000000000E+00  0.10156901898E+04  0.10156901898E+04  0.25500000000E-02 0.  1.
         -2   -1    0    0    0  501 -0.00000000000E+00 -0.00000000000E+00 -0.12397416303E+03  0.12397416305E+03  0.25500000000E-02 0. -1.
    5000001    1    1    2    0    0  0.24262993150E+03  0.52967256791E+02  0.93614201882E+02  0.29422344017E+03  0.12700000000E+03 0.  0.
   -5000001    1    1    2    0    0 -0.24262993150E+03 -0.52967256791E+02  0.79810182490E+03  0.84544091270E+03  0.12700000000E+03 0.  0.
<mgrwt>
<rscale>  0 0.70970231E+03</rscale>
<asrwt>0</asrwt>
<pdfrwt beam="1">  1        2 0.14509861E+00 0.70970231E+03</pdfrwt>
<pdfrwt beam="2">  1       -2 0.17710594E-01 0.70970231E+03</pdfrwt>
<totfact> 0.72741584E+02</totfact>
</mgrwt>
</event>
<event>
 4    1  0.1361667E-004  0.6430218E+03  0.7818608E-02  0.9819962E-01
          2   -1    0    0  501    0  0.00000000000E+00  0.00000000000E+00  0.76785508709E+02  0.76785508751E+02  0.25500000000E-02 0.  1.
         -2   -1    0    0    0  501 -0.00000000000E+00 -0.00000000000E+00 -0.13462078511E+04  0.13462078511E+04  0.25500000000E-02 0. -1.
    5000001    1    1    2    0    0 -0.82466765008E+02 -0.28223538944E+03 -0.57280026329E+03  0.65626726568E+03  0.12700000000E+03 0.  0.
   -5000001    1    1    2    0    0  0.82466765008E+02  0.28223538944E+03 -0.69662207907E+03  0.76672609414E+03  0.12700000000E+03 0.  0.
<mgrwt>
<rscale>  0 0.64302179E+03</rscale>
<asrwt>0</asrwt>
<pdfrwt beam="1">  1        2 0.10969359E-01 0.64302179E+03</pdfrwt>
<pdfrwt beam="2">  1       -2 0.19231539E+00 0.64302179E+03</pdfrwt>
<totfact> 0.90345708E+01</totfact>
</mgrwt>
</event>
<event>
 4    1  0.1361667E-004  0.3538086E+03  0.7818608E-02  0.1061063E+00
         -2   -1    0    0    0  501 -0.00000000000E+00  0.00000000000E+00  0.20398792326E+04  0.20398792326E+04  0.25500000000E-02 0. -1.
          2   -1    0    0  501    0  0.00000000000E+00 -0.00000000000E+00 -0.15341662697E+02  0.15341662909E+02  0.25500000000E-02 0.  1.
    5000001    1    1    2    0    0  0.43328676359E+02 -0.11508737727E+03  0.10506514969E+04  0.10654201268E+04  0.12700000000E+03 0.  0.
   -5000001    1    1    2    0    0 -0.43328676359E+02  0.11508737727E+03  0.97388607304E+03  0.98980076877E+03  0.12700000000E+03 0.  0.
<mgrwt>
<rscale>  0 0.35380865E+03</rscale>
<asrwt>0</asrwt>
<pdfrwt beam="1">  1        2 0.21916664E-02 0.35380865E+03</pdfrwt>
<pdfrwt beam="2">  1       -2 0.29141128E+00 0.35380865E+03</pdfrwt>
<totfact> 0.19754977E+02</totfact>
</mgrwt>
</event>
<event>
 4    1  0.1361667E-004  0.5353969E+03  0.7818608E-02  0.1004932E+00
          2   -1    0    0  501    0  0.00000000000E+00  0.00000000000E+00  0.40175207000E+04  0.40175207000E+04  0.25500000000E-02 0. -1.
         -2   -1    0    0    0  501 -0.00000000000E+00 -0.00000000000E+00 -0.17837486589E+02  0.17837486771E+02  0.25500000000E-02 0.  1.
    5000001    1    1    2    0    0 -0.11272779322E+03 -0.71671647622E+02  0.53660675691E+03  0.56738011244E+03  0.12700000000E+03 0.  0.
   -5000001    1    1    2    0    0  0.11272779322E+03  0.71671647622E+02  0.34630764566E+04  0.34679780744E+04  0.12700000000E+03 0.  0.
<mgrwt>
<rscale>  0 0.53539694E+03</rscale>
<asrwt>0</asrwt>
<pdfrwt beam="1">  1        2 0.57393254E+00 0.53539694E+03</pdfrwt>
<pdfrwt beam="2">  1       -2 0.25482079E-02 0.53539694E+03</pdfrwt>
<totfact> 0.36027426E+02</totfact>
</mgrwt>
</event>
<event>
 4    1  0.1361667E-004  0.3070301E+03  0.7818608E-02  0.1081778E+00
          2   -1    0    0  501    0  0.00000000000E+00  0.00000000000E+00  0.46031392874E+03  0.46031392875E+03  0.25500000000E-02 0.  1.
         -2   -1    0    0    0  501 -0.00000000000E+00 -0.00000000000E+00 -0.51197384444E+02  0.51197384508E+02  0.25500000000E-02 0. -1.
    5000001    1    1    2    0    0 -0.58021288891E+02  0.31842088518E+02  0.11243779914E+03  0.18207593812E+03  0.12700000000E+03 0.  0.
   -5000001    1    1    2    0    0  0.58021288891E+02 -0.31842088518E+02  0.29667874516E+03  0.32943537514E+03  0.12700000000E+03 0.  0.
<mgrwt>
<rscale>  0 0.30703009E+03</rscale>
<asrwt>0</asrwt>
<pdfrwt beam="1">  1        2 0.65759129E-01 0.30703009E+03</pdfrwt>
<pdfrwt beam="2">  1       -2 0.73139125E-02 0.30703009E+03</pdfrwt>
<totfact> 0.80667286E+03</totfact>
</mgrwt>
</event>
<event>
 4    1  0.1361667E-004  0.6099316E+03  0.7818608E-02  0.9885013E-01
         -2   -1    0    0    0  501 -0.00000000000E+00  0.00000000000E+00  0.59068144639E+02  0.59068144694E+02  0.25500000000E-02 0.  1.
          2   -1    0    0  501    0  0.00000000000E+00 -0.00000000000E+00 -0.15745229283E+04  0.15745229283E+04  0.25500000000E-02 0. -1.
    5000001    1    1    2    0    0 -0.90793680377E+02 -0.26022039008E+03 -0.83883243931E+03  0.89203531603E+03  0.12700000000E+03 0.  0.
   -5000001    1    1    2    0    0  0.90793680377E+02  0.26022039008E+03 -0.67662234430E+03  0.74155575692E+03  0.12700000000E+03 0.  0.
<mgrwt>
<rscale>  0 0.60993163E+03</rscale>
<asrwt>0</asrwt>
<pdfrwt beam="1">  1        2 0.22493182E+00 0.60993163E+03</pdfrwt>
<pdfrwt beam="2">  1       -2 0.84383074E-02 0.60993163E+03</pdfrwt>
<totfact> 0.12249017E+03</totfact>
</mgrwt>
</event>
<event>
 4    1  0.1361667E-004  0.6437128E+03  0.7818608E-02  0.9818649E-01
          2   -1    0    0  501    0  0.00000000000E+00  0.00000000000E+00  0.20185700385E+04  0.20185700385E+04  0.25500000000E-02 0.  1.
         -2   -1    0    0    0  501 -0.00000000000E+00 -0.00000000000E+00 -0.51319271038E+02  0.51319271101E+02  0.25500000000E-02 0. -1.
    5000001    1    1    2    0    0  0.20706245155E+03  0.14536602247E+02  0.30624772534E+03  0.39115577578E+03  0.12700000000E+03 0.  0.
   -5000001    1    1    2    0    0 -0.20706245155E+03 -0.14536602247E+02  0.16610030421E+04  0.16787335338E+04  0.12700000000E+03 0.  0.
<mgrwt>
<rscale>  0 0.64371280E+03</rscale>
<asrwt>0</asrwt>
<pdfrwt beam="1">  1        2 0.28836715E+00 0.64371280E+03</pdfrwt>
<pdfrwt beam="2">  1       -2 0.73313243E-02 0.64371280E+03</pdfrwt>
<totfact> 0.91098093E+02</totfact>
</mgrwt>
</event>
<event>
 4    1  0.1361667E-004  0.3623587E+03  0.7818608E-02  0.1057654E+00
         -2   -1    0    0    0  501 -0.00000000000E+00  0.00000000000E+00  0.15177355783E+03  0.15177355785E+03  0.25500000000E-02 0. -1.
          2   -1    0    0  501    0  0.00000000000E+00 -0.00000000000E+00 -0.21628243825E+03  0.21628243827E+03  0.25500000000E-02 0.  1.
    5000001    1    1    2    0    0 -0.95851807816E+02 -0.35514733985E+02  0.48033228183E+02  0.16995604256E+03  0.12700000000E+03 0.  0.
   -5000001    1    1    2    0    0  0.95851807816E+02  0.35514733985E+02 -0.11254210861E+03  0.19809995356E+03  0.12700000000E+03 0.  0.
<mgrwt>
<rscale>  0 0.36235869E+03</rscale>
<asrwt>0</asrwt>
<pdfrwt beam="1">  1        2 0.30897491E-01 0.36235869E+03</pdfrwt>
<pdfrwt beam="2">  1       -2 0.21681937E-01 0.36235869E+03</pdfrwt>
<totfact> 0.31168481E+03</totfact>
</mgrwt>
</event>
<event>
 4    1  0.1361667E-004  0.4800227E+03  0.7818608E-02  0.1019129E+00
         -2   -1    0    0    0  501 -0.00000000000E+00  0.00000000000E+00  0.11744832595E+03  0.11744832597E+03  0.25500000000E-02 0. -1.
          2   -1    0    0  501    0  0.00000000000E+00 -0.00000000000E+00 -0.49047477900E+03  0.49047477900E+03  0.25500000000E-02 0.  1.
    5000001    1    1    2    0    0 -0.18215208613E+03  0.89542869721E+02 -0.20767212490E+03  0.31694482084E+03  0.12700000000E+03 0.  0.
   -5000001    1    1    2    0    0  0.18215208613E+03 -0.89542869721E+02 -0.16535432815E+03  0.29097828413E+03  0.12700000000E+03 0.  0.
<mgrwt>
<rscale>  0 0.48002267E+03</rscale>
<asrwt>0</asrwt>
<pdfrwt beam="1">  1        2 0.70067825E-01 0.48002267E+03</pdfrwt>
<pdfrwt beam="2">  1       -2 0.16778332E-01 0.48002267E+03</pdfrwt>
<totfact> 0.19756567E+03</totfact>
</mgrwt>
</event>
<event>
 4    1  0.1361667E-004  0.3052809E+03  0.7818608E-02  0.1082630E+00
         -2   -1    0    0    0  501 -0.00000000000E+00  0.00000000000E+00  0.11480915806E+03  0.11480915809E+03  0.25500000000E-02 0. -1.
          2   -1    0    0  501    0  0.00000000000E+00 -0.00000000000E+00 -0.20293768682E+03  0.20293768684E+03  0.25500000000E-02 0.  1.
    5000001    1    1    2    0    0 -0.66764775229E+02  0.43811107948E+02 -0.73377320387E+02  0.16700353151E+03  0.12700000000E+03 0.  0.
   -5000001    1    1    2    0    0  0.66764775229E+02 -0.43811107948E+02 -0.14751208376E+02  0.15074331342E+03  0.12700000000E+03 0.  0.
<mgrwt>
<rscale>  0 0.30528089E+03</rscale>
<asrwt>0</asrwt>
<pdfrwt beam="1">  1        2 0.28991098E-01 0.30528089E+03</pdfrwt>
<pdfrwt beam="2">  1       -2 0.16401308E-01 0.30528089E+03</pdfrwt>
<totfact> 0.53581876E+03</totfact>
</mgrwt>
</event>
<event>
 4    1  0.1361667E-004  0.5695248E+03  0.7818608E-02  0.9970731E-01
         -2   -1    0    0    0  501 -0.00000000000E+00  0.00000000000E+00  0.52271861891E+02  0.52271861953E+02  0.25500000000E-02 0. -1.
          2   -1    0    0  501    0  0.00000000000E+00 -0.00000000000E+00 -0.15513053189E+04  0.15513053189E+04  0.25500000000E-02 0.  1.
    5000001    1    1    2    0    0 -0.30325945944E+02  0.25278206603E+03 -0.78309039950E+03  0.83317345715E+03  0.12700000000E+03 0.  0.
   -5000001    1    1    2    0    0  0.30325945944E+02 -0.25278206603E+03 -0.71594305746E+03  0.77040372366E+03  0.12700000000E+03 0.  0.
<mgrwt>
<rscale>  0 0.56952478E+03</rscale>
<asrwt>0</asrwt>
<pdfrwt beam="1">  1        2 0.22161502E+00 0.56952478E+03</pdfrwt>
<pdfrwt beam="2">  1       -2 0.74674098E-02 0.56952478E+03</pdfrwt>
<totfact> 0.15320387E+03</totfact>
</mgrwt>
</event>
<event>
 4    1  0.1361667E-004  0.3174865E+03  0.7818608E-02  0.1076812E+00
         -2   -1    0    0    0  501 -0.00000000000E+00  0.00000000000E+00  0.14602226302E+03  0.14602226305E+03  0.25500000000E-02 0. -1.
          2   -1    0    0  501    0  0.00000000000E+00 -0.00000000000E+00 -0.17257247516E+03  0.17257247518E+03  0.25500000000E-02 0.  1.
    5000001    1    1    2    0    0  0.12525853897E+02 -0.79224712772E+02  0.38255588704E+02  0.15500303931E+03  0.12700000000E+03 0.  0.
   -5000001    1    1    2    0    0 -0.12525853897E+02  0.79224712772E+02 -0.64805800839E+02  0.16359169891E+03  0.12700000000E+03 0.  0.
<mgrwt>
<rscale>  0 0.31748652E+03</rscale>
<asrwt>0</asrwt>
<pdfrwt beam="1">  1        2 0.24653211E-01 0.31748652E+03</pdfrwt>
<pdfrwt beam="2">  1       -2 0.20860323E-01 0.31748652E+03</pdfrwt>
<totfact> 0.42713473E+03</totfact>
</mgrwt>
</event>
<event>
 4    1  0.1361667E-004  0.3918418E+03  0.7818608E-02  0.1046642E+00
          2   -1    0    0  501    0  0.00000000000E+00  0.00000000000E+00  0.30917313566E+03  0.30917313567E+03  0.25500000000E-02 0. -1.
         -2   -1    0    0    0  501 -0.00000000000E+00 -0.00000000000E+00 -0.12415373112E+03  0.12415373114E+03  0.25500000000E-02 0.  1.
    5000001    1    1    2    0    0 -0.10077855672E+03 -0.77306443451E+02  0.59728719842E+01  0.17971443708E+03  0.12700000000E+03 0.  0.
   -5000001    1    1    2    0    0  0.10077855672E+03  0.77306443451E+02  0.17904653256E+03  0.25361242973E+03  0.12700000000E+03 0.  0.
<mgrwt>
<rscale>  0 0.39184180E+03</rscale>
<asrwt>0</asrwt>
<pdfrwt beam="1">  1        2 0.44167591E-01 0.39184180E+03</pdfrwt>
<pdfrwt beam="2">  1       -2 0.17736247E-01 0.39184180E+03</pdfrwt>
<totfact> 0.29816284E+03</totfact>
</mgrwt>
</event>
<event>
 4    1  0.1361667E-004  0.3566979E+03  0.7818608E-02  0.1059899E+00
         -2   -1    0    0    0  501 -0.00000000000E+00  0.00000000000E+00  0.38050950433E+02  0.38050950518E+02  0.25500000000E-02 0. -1.
          2   -1    0    0  501    0  0.00000000000E+00 -0.00000000000E+00 -0.83594100184E+03  0.83594100184E+03  0.25500000000E-02 0.  1.
    5000001    1    1    2    0    0 -0.17186445221E+02 -0.11052459217E+03 -0.26102753312E+03  0.31108749962E+03  0.12700000000E+03 0.  0.
   -5000001    1    1    2    0    0  0.17186445221E+02  0.11052459217E+03 -0.53686251829E+03  0.56290445274E+03  0.12700000000E+03 0.  0.
<mgrwt>
<rscale>  0 0.35669791E+03</rscale>
<asrwt>0</asrwt>
<pdfrwt beam="1">  1        2 0.11942013E+00 0.35669791E+03</pdfrwt>
<pdfrwt beam="2">  1       -2 0.54358506E-02 0.35669791E+03</pdfrwt>
<totfact> 0.63870479E+03</totfact>
</mgrwt>
</event>
<event>
 4    1  0.1361667E-004  0.8327569E+03  0.7818608E-02  0.9513777E-01
          2   -1    0    0  501    0  0.00000000000E+00  0.00000000000E+00  0.26911823415E+04  0.26911823415E+04  0.25500000000E-02 0.  1.
         -2   -1    0    0    0  501 -0.00000000000E+00 -0.00000000000E+00 -0.64421875905E+02  0.64421875956E+02  0.25500000000E-02 0. -1.
    5000001    1    1    2    0    0 -0.29286320051E+03  0.22322951651E+03  0.18001736802E+04  0.18418345610E+04  0.12700000000E+03 0.  0.
   -5000001    1    1    2    0    0  0.29286320051E+03 -0.22322951651E+03  0.82658678539E+03  0.91376965644E+03  0.12700000000E+03 0.  0.
<mgrwt>
<rscale>  0 0.83275690E+03</rscale>
<asrwt>0</asrwt>
<pdfrwt beam="1">  1        2 0.38445456E+00 0.83275690E+03</pdfrwt>
<pdfrwt beam="2">  1       -2 0.92031266E-02 0.83275690E+03</pdfrwt>
<totfact> 0.28209711E+02</totfact>
</mgrwt>
</event>
<event>
 4    1  0.1361667E-004  0.5492030E+03  0.7818608E-02  0.1001679E+00
         -2   -1    0    0    0  501 -0.00000000000E+00  0.00000000000E+00  0.63718892411E+02  0.63718892462E+02  0.25500000000E-02 0. -1.
          2   -1    0    0  501    0  0.00000000000E+00 -0.00000000000E+00 -0.11834164061E+04  0.11834164061E+04  0.25500000000E-02 0.  1.
    5000001    1    1    2    0    0 -0.22298011585E+03 -0.69650153559E+02 -0.71562208642E+03  0.76342337306E+03  0.12700000000E+03 0.  0.
   -5000001    1    1    2    0    0  0.22298011585E+03  0.69650153559E+02 -0.40407542727E+03  0.48371192551E+03  0.12700000000E+03 0.  0.
<mgrwt>
<rscale>  0 0.54920300E+03</rscale>
<asrwt>0</asrwt>
<pdfrwt beam="1">  1        2 0.16905947E+00 0.54920300E+03</pdfrwt>
<pdfrwt beam="2">  1       -2 0.91026996E-02 0.54920300E+03</pdfrwt>
<totfact> 0.17590364E+03</totfact>
</mgrwt>
</event>
<event>
 4    1  0.1361667E-004  0.4325906E+03  0.7818608E-02  0.1033045E+00
         -2   -1    0    0    0  501 -0.00000000000E+00  0.00000000000E+00  0.19503027257E+03  0.19503027258E+03  0.25500000000E-02 0. -1.
          2   -1    0    0  501    0  0.00000000000E+00 -0.00000000000E+00 -0.23987898374E+03  0.23987898375E+03  0.25500000000E-02 0.  1.
    5000001    1    1    2    0    0 -0.14157913379E+03 -0.85143122348E+02 -0.80706283045E+02  0.22346477694E+03  0.12700000000E+03 0.  0.
   -5000001    1    1    2    0    0  0.14157913379E+03  0.85143122348E+02  0.35857571873E+02  0.21144447940E+03  0.12700000000E+03 0.  0.
<mgrwt>
<rscale>  0 0.43259063E+03</rscale>
<asrwt>0</asrwt>
<pdfrwt beam="1">  1        2 0.34268426E-01 0.43259063E+03</pdfrwt>
<pdfrwt beam="2">  1       -2 0.27861468E-01 0.43259063E+03</pdfrwt>
<totfact> 0.17861717E+03</totfact>
</mgrwt>
</event>
<event>
 4    1  0.1361667E-004  0.3081218E+03  0.7818608E-02  0.1081250E+00
          2   -1    0    0  501    0  0.00000000000E+00  0.00000000000E+00  0.97607780685E+03  0.97607780686E+03  0.25500000000E-02 0.  1.
         -2   -1    0    0    0  501 -0.00000000000E+00 -0.00000000000E+00 -0.24316465716E+02  0.24316465850E+02  0.25500000000E-02 0. -1.
    5000001    1    1    2    0    0  0.71829455744E+02  0.42429119133E+02  0.39335562673E+03  0.42168394556E+03  0.12700000000E+03 0.  0.
   -5000001    1    1    2    0    0 -0.71829455744E+02 -0.42429119133E+02  0.55840571441E+03  0.57871032715E+03  0.12700000000E+03 0.  0.
<mgrwt>
<rscale>  0 0.30812181E+03</rscale>
<asrwt>0</asrwt>
<pdfrwt beam="1">  1        2 0.13943968E+00 0.30812181E+03</pdfrwt>
<pdfrwt beam="2">  1       -2 0.34737811E-02 0.30812181E+03</pdfrwt>
<totfact> 0.10249896E+04</totfact>
</mgrwt>
</event>
<event>
 4    1  0.1361667E-004  0.6974961E+03  0.7818608E-02  0.9721524E-01
          2   -1    0    0  501    0  0.00000000000E+00  0.00000000000E+00  0.68873480711E+03  0.68873480711E+03  0.25500000000E-02 0.  1.
         -2   -1    0    0    0  501 -0.00000000000E+00 -0.00000000000E+00 -0.17659223469E+03  0.17659223471E+03  0.25500000000E-02 0. -1.
    5000001    1    1    2    0    0  0.32281967211E+03  0.27062711590E+02  0.28520042161E+03  0.44990355805E+03  0.12700000000E+03 0.  0.
   -5000001    1    1    2    0    0 -0.32281967211E+03 -0.27062711590E+02  0.22694215080E+03  0.41542348377E+03  0.12700000000E+03 0.  0.
<mgrwt>
<rscale>  0 0.69749615E+03</rscale>
<asrwt>0</asrwt>
<pdfrwt beam="1">  1        2 0.98390689E-01 0.69749615E+03</pdfrwt>
<pdfrwt beam="2">  1       -2 0.25227462E-01 0.69749615E+03</pdfrwt>
<totfact> 0.64978905E+02</totfact>
</mgrwt>
</event>
<event>
 4    1  0.1361667E-004  0.3549302E+03  0.7818608E-02  0.1060609E+00
         -2   -1    0    0    0  501 -0.00000000000E+00  0.00000000000E+00  0.93616044325E+02  0.93616044360E+02  0.25500000000E-02 0. -1.
          2   -1    0    0  501    0  0.00000000000E+00 -0.00000000000E+00 -0.33641522233E+03  0.33641522234E+03  0.25500000000E-02 0.  1.
    5000001    1    1    2    0    0 -0.57274736145E+02 -0.73043175159E+02 -0.21863175890E+02  0.15881655864E+03  0.12700000000E+03 0.  0.
   -5000001    1    1    2    0    0  0.57274736145E+02  0.73043175159E+02 -0.22093600211E+03  0.27121470806E+03  0.12700000000E+03 0.  0.
<mgrwt>
<rscale>  0 0.35493020E+03</rscale>
<asrwt>0</asrwt>
<pdfrwt beam="1">  1        2 0.48059317E-01 0.35493020E+03</pdfrwt>
<pdfrwt beam="2">  1       -2 0.13373721E-01 0.35493020E+03</pdfrwt>
<totfact> 0.43492836E+03</totfact>
</mgrwt>
</event>
<event>
 4    1  0.1361667E-004  0.4655672E+03  0.7818608E-02  0.1023179E+00
         -2   -1    0    0    0  501 -0.00000000000E+00  0.00000000000E+00  0.33928467705E+03  0.33928467706E+03  0.25500000000E-02 0. -1.
          2   -1    0    0  501    0  0.00000000000E+00 -0.00000000000E+00 -0.15971307138E+03  0.15971307140E+03  0.25500000000E-02 0.  1.
    5000001    1    1    2    0    0  0.18971527660E+03  0.44973750896E+02  0.96949558649E+02  0.25207685607E+03  0.12700000000E+03 0.  0.
   -5000001    1    1    2    0    0 -0.18971527660E+03 -0.44973750896E+02  0.82622047019E+02  0.24692089239E+03  0.12700000000E+03 0.  0.
<mgrwt>
<rscale>  0 0.46556717E+03</rscale>
<asrwt>0</asrwt>
<pdfrwt beam="1">  1        2 0.22816153E-01 0.46556717E+03</pdfrwt>
<pdfrwt beam="2">  1       -2 0.48469239E-01 0.46556717E+03</pdfrwt>
<totfact> 0.98362286E+02</totfact>
</mgrwt>
</event>
<event>
 4    1  0.1361667E-004  0.5584164E+03  0.7818608E-02  0.9995644E-01
          2   -1    0    0  501    0  0.00000000000E+00  0.00000000000E+00  0.87057881724E+03  0.87057881724E+03  0.25500000000E-02 0.  1.
         -2   -1    0    0    0  501 -0.00000000000E+00 -0.00000000000E+00 -0.89546414152E+02  0.89546414188E+02  0.25500000000E-02 0. -1.
    5000001    1    1    2    0    0  0.21069063332E+03  0.13157930556E+03  0.40970509067E+03  0.49567218799E+03  0.12700000000E+03 0.  0.
   -5000001    1    1    2    0    0 -0.21069063332E+03 -0.13157930556E+03  0.37132731241E+03  0.46445304344E+03  0.12700000000E+03 0.  0.
<mgrwt>
<rscale>  0 0.55841637E+03</rscale>
<asrwt>0</asrwt>
<pdfrwt beam="1">  1        2 0.12436839E+00 0.55841637E+03</pdfrwt>
<pdfrwt beam="2">  1       -2 0.12792346E-01 0.55841637E+03</pdfrwt>
<totfact> 0.15597920E+03</totfact>
</mgrwt>
</event>
<event>
 4    1  0.1361667E-004  0.3497737E+03  0.7818608E-02  0.1062708E+00
          2   -1    0    0  501    0  0.00000000000E+00  0.00000000000E+00  0.74303987860E+03  0.74303987860E+03  0.25500000000E-02 0.  1.
         -2   -1    0    0    0  501 -0.00000000000E+00 -0.00000000000E+00 -0.41162539731E+02  0.41162539810E+02  0.25500000000E-02 0. -1.
    5000001    1    1    2    0    0  0.27172829974E+02  0.10902551797E+03  0.44688809992E+03  0.47797792848E+03  0.12700000000E+03 0.  0.
   -5000001    1    1    2    0    0 -0.27172829974E+02 -0.10902551797E+03  0.25498923894E+03  0.30622448994E+03  0.12700000000E+03 0.  0.
<mgrwt>
<rscale>  0 0.34977369E+03</rscale>
<asrwt>0</asrwt>
<pdfrwt beam="1">  1        2 0.10614855E+00 0.34977369E+03</pdfrwt>
<pdfrwt beam="2">  1       -2 0.58803631E-02 0.34977369E+03</pdfrwt>
<totfact> 0.65502583E+03</totfact>
</mgrwt>
</event>
<event>
 4    1  0.1361667E-004  0.3514685E+03  0.7818608E-02  0.1062014E+00
          2   -1    0    0  501    0  0.00000000000E+00  0.00000000000E+00  0.16455003613E+04  0.16455003613E+04  0.25500000000E-02 0.  1.
         -2   -1    0    0    0  501 -0.00000000000E+00 -0.00000000000E+00 -0.18767859136E+02  0.18767859310E+02  0.25500000000E-02 0. -1.
    5000001    1    1    2    0    0  0.11256565612E+03  0.45632659250E+02  0.81521605117E+03  0.83394219021E+03  0.12700000000E+03 0.  0.
   -5000001    1    1    2    0    0 -0.11256565612E+03 -0.45632659250E+02  0.81151645101E+03  0.83032603042E+03  0.12700000000E+03 0.  0.
<mgrwt>
<rscale>  0 0.35146846E+03</rscale>
<asrwt>0</asrwt>
<pdfrwt beam="1">  1        2 0.23507139E+00 0.35146846E+03</pdfrwt>
<pdfrwt beam="2">  1       -2 0.26811238E-02 0.35146846E+03</pdfrwt>
<totfact> 0.66257051E+03</totfact>
</mgrwt>
</event>
<event>
 4    1  0.1361667E-004  0.4044082E+03  0.7818608E-02  0.1042264E+00
          2   -1    0    0  501    0  0.00000000000E+00  0.00000000000E+00  0.19215873910E+04  0.19215873910E+04  0.25500000000E-02 0.  1.
         -2   -1    0    0    0  501 -0.00000000000E+00 -0.00000000000E+00 -0.21277460146E+02  0.21277460299E+02  0.25500000000E-02 0. -1.
    5000001    1    1    2    0    0  0.12971651754E+03 -0.52712273473E+02  0.60530249428E+03  0.63413332059E+03  0.12700000000E+03 0.  0.
   -5000001    1    1    2    0    0 -0.12971651754E+03  0.52712273473E+02  0.12950074366E+04  0.13087315307E+04  0.12700000000E+03 0.  0.
<mgrwt>
<rscale>  0 0.40440821E+03</rscale>
<asrwt>0</asrwt>
<pdfrwt beam="1">  1        2 0.27451245E+00 0.40440821E+03</pdfrwt>
<pdfrwt beam="2">  1       -2 0.30396376E-02 0.40440821E+03</pdfrwt>
<totfact> 0.40024379E+03</totfact>
</mgrwt>
</event>
<event>
 4    1  0.1361667E-004  0.6694863E+03  0.7818608E-02  0.9770886E-01
         -2   -1    0    0    0  501 -0.00000000000E+00  0.00000000000E+00  0.58763548491E+02  0.58763548546E+02  0.25500000000E-02 0. -1.
          2   -1    0    0  501    0  0.00000000000E+00 -0.00000000000E+00 -0.19068451761E+04  0.19068451761E+04  0.25500000000E-02 0.  1.
    5000001    1    1    2    0    0  0.54443692953E+02 -0.29791478817E+03 -0.73361594648E+03  0.80376532249E+03  0.12700000000E+03 0.  0.
   -5000001    1    1    2    0    0 -0.54443692953E+02  0.29791478817E+03 -0.11144656811E+04  0.11618434021E+04  0.12700000000E+03 0.  0.
<mgrwt>
<rscale>  0 0.66948634E+03</rscale>
<asrwt>0</asrwt>
<pdfrwt beam="1">  1        2 0.27240642E+00 0.66948634E+03</pdfrwt>
<pdfrwt beam="2">  1       -2 0.83947938E-02 0.66948634E+03</pdfrwt>
<totfact> 0.83434708E+02</totfact>
</mgrwt>
</event>
<event>
 4    1  0.1361667E-004  0.2889769E+03  0.7818608E-02  0.1090885E+00
          2   -1    0    0  501    0  0.00000000000E+00  0.00000000000E+00  0.40593822497E+03  0.40593822498E+03  0.25500000000E-02 0. -1.
         -2   -1    0    0    0  501 -0.00000000000E+00 -0.00000000000E+00 -0.51428801239E+02  0.51428801302E+02  0.25500000000E-02 0.  1.
    5000001    1    1    2    0    0  0.61050390264E+02  0.37273018756E+00  0.22781799375E+03  0.26787558186E+03  0.12700000000E+03 0.  0.
   -5000001    1    1    2    0    0 -0.61050390264E+02 -0.37273018756E+00  0.12669142999E+03  0.18949144443E+03  0.12700000000E+03 0.  0.
<mgrwt>
<rscale>  0 0.28897693E+03</rscale>
<asrwt>0</asrwt>
<pdfrwt beam="1">  1        2 0.57991174E-01 0.28897693E+03</pdfrwt>
<pdfrwt beam="2">  1       -2 0.73469718E-02 0.28897693E+03</pdfrwt>
<totfact> 0.91674261E+03</totfact>
</mgrwt>
</event>
<event>
 4    1  0.1361667E-004  0.3504575E+03  0.7818608E-02  0.1062427E+00
          2   -1    0    0  501    0  0.00000000000E+00  0.00000000000E+00  0.17522228461E+04  0.17522228461E+04  0.25500000000E-02 0.  1.
         -2   -1    0    0    0  501 -0.00000000000E+00 -0.00000000000E+00 -0.17523522285E+02  0.17523522470E+02  0.25500000000E-02 0. -1.
    5000001    1    1    2    0    0 -0.35863186673E+02  0.86132211964E+02  0.12542853027E+04  0.12641461730E+04  0.12700000000E+03 0.  0.
   -5000001    1    1    2    0    0  0.35863186673E+02 -0.86132211964E+02  0.48041402112E+03  0.50560019559E+03  0.12700000000E+03 0.  0.
<mgrwt>
<rscale>  0 0.35045751E+03</rscale>
<asrwt>0</asrwt>
<pdfrwt beam="1">  1        2 0.25031759E+00 0.35045751E+03</pdfrwt>
<pdfrwt beam="2">  1       -2 0.25033600E-02 0.35045751E+03</pdfrwt>
<totfact> 0.64938538E+03</totfact>
</mgrwt>
</event>
<event>
 4    1  0.1361667E-004  0.3633091E+03  0.7818608E-02  0.1057281E+00
         -2   -1    0    0    0  501 -0.00000000000E+00  0.00000000000E+00  0.53452542656E+03  0.53452542657E+03  0.25500000000E-02 0. -1.
          2   -1    0    0  501    0  0.00000000000E+00 -0.00000000000E+00 -0.61733981028E+02  0.61733981080E+02  0.25500000000E-02 0.  1.
    5000001    1    1    2    0    0  0.12874850798E+03 -0.12906336820E+02  0.25486408837E+03  0.31277380865E+03  0.12700000000E+03 0.  0.
   -5000001    1    1    2    0    0 -0.12874850798E+03  0.12906336820E+02  0.21792735716E+03  0.28348559900E+03  0.12700000000E+03 0.  0.
<mgrwt>
<rscale>  0 0.36330914E+03</rscale>
<asrwt>0</asrwt>
<pdfrwt beam="1">  1        2 0.88191408E-02 0.36330914E+03</pdfrwt>
<pdfrwt beam="2">  1       -2 0.76360770E-01 0.36330914E+03</pdfrwt>
<totfact> 0.11933196E+03</totfact>
</mgrwt>
</event>
<event>
 4    1  0.1361667E-004  0.3988150E+03  0.7818608E-02  0.1044191E+00
          2   -1    0    0  501    0  0.00000000000E+00  0.00000000000E+00  0.22877124763E+03  0.22877124765E+03  0.25500000000E-02 0.  1.
         -2   -1    0    0    0  501 -0.00000000000E+00 -0.00000000000E+00 -0.17381272613E+03  0.17381272615E+03  0.25500000000E-02 0. -1.
    5000001    1    1    2    0    0 -0.81008273416E+02 -0.10004338732E+03 -0.57358631049E+02  0.18971039050E+03  0.12700000000E+03 0.  0.
   -5000001    1    1    2    0    0  0.81008273416E+02  0.10004338732E+03  0.11231715255E+03  0.21287358330E+03  0.12700000000E+03 0.  0.
<mgrwt>
<rscale>  0 0.39881502E+03</rscale>
<asrwt>0</asrwt>
<pdfrwt beam="1">  1        2 0.32681607E-01 0.39881502E+03</pdfrwt>
<pdfrwt beam="2">  1       -2 0.24830389E-01 0.39881502E+03</pdfrwt>
<totfact> 0.23120204E+03</totfact>
</mgrwt>
</event>
<event>
 4    1  0.1361667E-004  0.1302774E+04  0.7818608E-02  0.9027368E-01
         -2   -1    0    0    0  501 -0.00000000000E+00  0.00000000000E+00  0.21859653411E+03  0.21859653412E+03  0.25500000000E-02 0. -1.
          2   -1    0    0  501    0  0.00000000000E+00 -0.00000000000E+00 -0.19410430438E+04  0.19410430438E+04  0.25500000000E-02 0.  1.
    5000001    1    1    2    0    0 -0.30166440445E+03  0.41661600955E+03 -0.23302270825E+03  0.57879089047E+03  0.12700000000E+03 0.  0.
   -5000001    1    1    2    0    0  0.30166440445E+03 -0.41661600955E+03 -0.14894238014E+04  0.15808486874E+04  0.12700000000E+03 0.  0.
<mgrwt>
<rscale>  0 0.13027744E+04</rscale>
<asrwt>0</asrwt>
<pdfrwt beam="1">  1        2 0.27729185E+00 0.13027744E+04</pdfrwt>
<pdfrwt beam="2">  1       -2 0.31228077E-01 0.13027744E+04</pdfrwt>
<totfact> 0.80247537E+01</totfact>
</mgrwt>
</event>
<event>
 4    1  0.1361667E-004  0.3206146E+03  0.7818608E-02  0.1075367E+00
          2   -1    0    0  501    0  0.00000000000E+00  0.00000000000E+00  0.22939085048E+03  0.22939085049E+03  0.25500000000E-02 0.  1.
         -2   -1    0    0    0  501 -0.00000000000E+00 -0.00000000000E+00 -0.11202903760E+03  0.11202903763E+03  0.25500000000E-02 0. -1.
    5000001    1    1    2    0    0 -0.58220160285E+01  0.74161533607E+02 -0.89678659939E+01  0.14745593090E+03  0.12700000000E+03 0.  0.
   -5000001    1    1    2    0    0  0.58220160285E+01 -0.74161533607E+02  0.12632967887E+03  0.19396395722E+03  0.12700000000E+03 0.  0.
<mgrwt>
<rscale>  0 0.32061464E+03</rscale>
<asrwt>0</asrwt>
<pdfrwt beam="1">  1        2 0.32770121E-01 0.32061464E+03</pdfrwt>
<pdfrwt beam="2">  1       -2 0.16004149E-01 0.32061464E+03</pdfrwt>
<totfact> 0.48859637E+03</totfact>
</mgrwt>
</event>
<event>
 4    1  0.1361667E-004  0.5707678E+03  0.7818608E-02  0.9967981E-01
         -2   -1    0    0    0  501 -0.00000000000E+00  0.00000000000E+00  0.24488041765E+02  0.24488041898E+02  0.25500000000E-02 0. -1.
          2   -1    0    0  501    0  0.00000000000E+00 -0.00000000000E+00 -0.33258670192E+04  0.33258670192E+04  0.25500000000E-02 0.  1.
    5000001    1    1    2    0    0 -0.21718570715E+03  0.91990294741E+02 -0.22283053871E+04  0.22443497374E+04  0.12700000000E+03 0.  0.
   -5000001    1    1    2    0    0  0.21718570715E+03 -0.91990294741E+02 -0.10730735904E+04  0.11060053237E+04  0.12700000000E+03 0.  0.
<mgrwt>
<rscale>  0 0.57076780E+03</rscale>
<asrwt>0</asrwt>
<pdfrwt beam="1">  1        2 0.47512357E+00 0.57076780E+03</pdfrwt>
<pdfrwt beam="2">  1       -2 0.34982938E-02 0.57076780E+03</pdfrwt>
<totfact> 0.59188075E+02</totfact>
</mgrwt>
</event>
<event>
 4    1  0.1361667E-004  0.3642604E+03  0.7818608E-02  0.1056910E+00
          2   -1    0    0  501    0  0.00000000000E+00  0.00000000000E+00  0.18031092274E+04  0.18031092274E+04  0.25500000000E-02 0.  1.
         -2   -1    0    0    0  501 -0.00000000000E+00 -0.00000000000E+00 -0.18396784396E+02  0.18396784573E+02  0.25500000000E-02 0. -1.
    5000001    1    1    2    0    0  0.12037162477E+03 -0.10383316836E+02  0.64508014964E+03  0.66847179505E+03  0.12700000000E+03 0.  0.
   -5000001    1    1    2    0    0 -0.12037162477E+03  0.10383316836E+02  0.11396322933E+04  0.11530342169E+04  0.12700000000E+03 0.  0.
<mgrwt>
<rscale>  0 0.36426041E+03</rscale>
<asrwt>0</asrwt>
<pdfrwt beam="1">  1        2 0.25758703E+00 0.36426041E+03</pdfrwt>
<pdfrwt beam="2">  1       -2 0.26281121E-02 0.36426041E+03</pdfrwt>
<totfact> 0.56995110E+03</totfact>
</mgrwt>
</event>
<event>
 4    1  0.1361667E-004  0.3790544E+03  0.7818608E-02  0.1051284E+00
         -2   -1    0    0    0  501 -0.00000000000E+00  0.00000000000E+00  0.18127758083E+02  0.18127758263E+02  0.25500000000E-02 0. -1.
          2   -1    0    0  501    0  0.00000000000E+00 -0.00000000000E+00 -0.19815223601E+04  0.19815223601E+04  0.25500000000E-02 0.  1.
    5000001    1    1    2    0    0  0.32724239073E+02  0.13556543985E+03 -0.88403979275E+03  0.90393817237E+03  0.12700000000E+03 0.  0.
   -5000001    1    1    2    0    0 -0.32724239073E+02 -0.13556543985E+03 -0.10793548093E+04  0.10957119460E+04  0.12700000000E+03 0.  0.
<mgrwt>
<rscale>  0 0.37905439E+03</rscale>
<asrwt>0</asrwt>
<pdfrwt beam="1">  1        2 0.28307448E+00 0.37905439E+03</pdfrwt>
<pdfrwt beam="2">  1       -2 0.25896810E-02 0.37905439E+03</pdfrwt>
<totfact> 0.47558305E+03</totfact>
</mgrwt>
</event>
<event>
 4    1  0.1361667E-004  0.3550763E+03  0.7818608E-02  0.1060551E+00
         -2   -1    0    0    0  501 -0.00000000000E+00  0.00000000000E+00  0.85967274788E+02  0.85967274825E+02  0.25500000000E-02 0. -1.
          2   -1    0    0  501    0  0.00000000000E+00 -0.00000000000E+00 -0.36664867704E+03  0.36664867705E+03  0.25500000000E-02 0.  1.
    5000001    1    1    2    0    0  0.93001694969E+02 -0.11454470355E+01 -0.24499168866E+03  0.29120534822E+03  0.12700000000E+03 0.  0.
   -5000001    1    1    2    0    0 -0.93001694969E+02  0.11454470355E+01 -0.35689713585E+02  0.16141060365E+03  0.12700000000E+03 0.  0.
<mgrwt>
<rscale>  0 0.35507626E+03</rscale>
<asrwt>0</asrwt>
<pdfrwt beam="1">  1        2 0.52378382E-01 0.35507626E+03</pdfrwt>
<pdfrwt beam="2">  1       -2 0.12281039E-01 0.35507626E+03</pdfrwt>
<totfact> 0.45536380E+03</totfact>
</mgrwt>
</event>
<event>
 4    1  0.1361667E-004  0.3526087E+03  0.7818608E-02  0.1061549E+00
         -2   -1    0    0    0  501 -0.00000000000E+00  0.00000000000E+00  0.22273167343E+02  0.22273167489E+02  0.25500000000E-02 0. -1.
          2   -1    0    0  501    0  0.00000000000E+00 -0.00000000000E+00 -0.13955458560E+04  0.13955458560E+04  0.25500000000E-02 0.  1.
    5000001    1    1    2    0    0  0.61226230007E+02 -0.10453510632E+03 -0.61959544346E+03  0.64397496322E+03  0.12700000000E+03 0.  0.
   -5000001    1    1    2    0    0 -0.61226230007E+02  0.10453510632E+03 -0.75367724520E+03  0.77384406028E+03  0.12700000000E+03 0.  0.
<mgrwt>
<rscale>  0 0.35260872E+03</rscale>
<asrwt>0</asrwt>
<pdfrwt beam="1">  1        2 0.19936364E+00 0.35260872E+03</pdfrwt>
<pdfrwt beam="2">  1       -2 0.31818819E-02 0.35260872E+03</pdfrwt>
<totfact> 0.68733039E+03</totfact>
</mgrwt>
</event>
<event>
 4    1  0.1361667E-004  0.4391044E+03  0.7818608E-02  0.1031022E+00
          2   -1    0    0  501    0  0.00000000000E+00  0.00000000000E+00  0.14546965983E+04  0.14546965983E+04  0.25500000000E-02 0.  1.
         -2   -1    0    0    0  501 -0.00000000000E+00 -0.00000000000E+00 -0.33136230951E+02  0.33136231049E+02  0.25500000000E-02 0. -1.
    5000001    1    1    2    0    0  0.13729835936E+03 -0.76239052886E+02  0.41908938702E+03  0.46521838633E+03  0.12700000000E+03 0.  0.
   -5000001    1    1    2    0    0 -0.13729835936E+03  0.76239052886E+02  0.10024709803E+04  0.10226144430E+04  0.12700000000E+03 0.  0.
<mgrwt>
<rscale>  0 0.43910437E+03</rscale>
<asrwt>0</asrwt>
<pdfrwt beam="1">  1        2 0.20781385E+00 0.43910437E+03</pdfrwt>
<pdfrwt beam="2">  1       -2 0.47337462E-02 0.43910437E+03</pdfrwt>
<totfact> 0.35081744E+03</totfact>
</mgrwt>
</event>
<event>
 4    1  0.1361667E-004  0.4764518E+03  0.7818608E-02  0.1020115E+00
          2   -1    0    0  501    0  0.00000000000E+00  0.00000000000E+00  0.59822116425E+03  0.59822116426E+03  0.25500000000E-02 0.  1.
         -2   -1    0    0    0  501 -0.00000000000E+00 -0.00000000000E+00 -0.94867218574E+02  0.94867218609E+02  0.25500000000E-02 0. -1.
    5000001    1    1    2    0    0 -0.95583621110E+02  0.12188670701E+03  0.64084453293E+02  0.21030552804E+03  0.12700000000E+03 0.  0.
   -5000001    1    1    2    0    0  0.95583621110E+02 -0.12188670701E+03  0.43926949239E+03  0.48278285482E+03  0.12700000000E+03 0.  0.
<mgrwt>
<rscale>  0 0.47645179E+03</rscale>
<asrwt>0</asrwt>
<pdfrwt beam="1">  1        2 0.85460168E-01 0.47645179E+03</pdfrwt>
<pdfrwt beam="2">  1       -2 0.13552460E-01 0.47645179E+03</pdfrwt>
<totfact> 0.22509564E+03</totfact>
</mgrwt>
</event>
<event>
 4    1  0.1361667E-004  0.3484640E+03  0.7818608E-02  0.1063247E+00
          2   -1    0    0  501    0  0.00000000000E+00  0.00000000000E+00  0.28831173651E+03  0.28831173652E+03  0.25500000000E-02 0.  1.
         -2   -1    0    0    0  501 -0.00000000000E+00 -0.00000000000E+00 -0.10529154801E+03  0.10529154804E+03  0.25500000000E-02 0. -1.
    5000001    1    1    2    0    0  0.10384643650E+03 -0.38076653810E+02  0.14194715601E+03  0.22025419188E+03  0.12700000000E+03 0.  0.
   -5000001    1    1    2    0    0 -0.10384643650E+03  0.38076653810E+02  0.41073032483E+02  0.17334909269E+03  0.12700000000E+03 0.  0.
<mgrwt>
<rscale>  0 0.34846400E+03</rscale>
<asrwt>0</asrwt>
<pdfrwt beam="1">  1        2 0.41187391E-01 0.34846400E+03</pdfrwt>
<pdfrwt beam="2">  1       -2 0.15041650E-01 0.34846400E+03</pdfrwt>
<totfact> 0.42323538E+03</totfact>
</mgrwt>
</event>
<event>
 4    1  0.1361667E-004  0.5273331E+03  0.7818608E-02  0.1006881E+00
         -2   -1    0    0    0  501 -0.00000000000E+00  0.00000000000E+00  0.21325998987E+04  0.21325998987E+04  0.25500000000E-02 0. -1.
          2   -1    0    0  501    0  0.00000000000E+00 -0.00000000000E+00 -0.32598725105E+02  0.32598725205E+02  0.25500000000E-02 0.  1.
    5000001    1    1    2    0    0 -0.18089517441E+03  0.31773706898E+02  0.16256882063E+04  0.16409520946E+04  0.12700000000E+03 0.  0.
   -5000001    1    1    2    0    0  0.18089517441E+03 -0.31773706898E+02  0.47431296729E+03  0.52424652933E+03  0.12700000000E+03 0.  0.
<mgrwt>
<rscale>  0 0.52733306E+03</rscale>
<asrwt>0</asrwt>
<pdfrwt beam="1">  1        2 0.46569581E-02 0.52733306E+03</pdfrwt>
<pdfrwt beam="2">  1       -2 0.30465730E+00 0.52733306E+03</pdfrwt>
<totfact> 0.57701589E+01</totfact>
</mgrwt>
</event>
<event>
 4    1  0.1361667E-004  0.3262675E+03  0.7818608E-02  0.1072800E+00
          2   -1    0    0  501    0  0.00000000000E+00  0.00000000000E+00  0.20354336583E+04  0.20354336583E+04  0.25500000000E-02 0.  1.
         -2   -1    0    0    0  501 -0.00000000000E+00 -0.00000000000E+00 -0.13074670839E+02  0.13074671088E+02  0.25500000000E-02 0. -1.
    5000001    1    1    2    0    0  0.61727673688E+02  0.66342205478E+02  0.13104549113E+04  0.13197093122E+04  0.12700000000E+03 0.  0.
   -5000001    1    1    2    0    0 -0.61727673688E+02 -0.66342205478E+02  0.71190407610E+03  0.72879901722E+03  0.12700000000E+03 0.  0.
<mgrwt>
<rscale>  0 0.32626753E+03</rscale>
<asrwt>0</asrwt>
<pdfrwt beam="1">  1        2 0.29077634E+00 0.32626753E+03</pdfrwt>
<pdfrwt beam="2">  1       -2 0.18678095E-02 0.32626753E+03</pdfrwt>
<totfact> 0.72691939E+03</totfact>
</mgrwt>
</event>
<event>
 4    1  0.1361667E-004  0.5091733E+03  0.7818608E-02  0.1011412E+00
          2   -1    0    0  501    0  0.00000000000E+00  0.00000000000E+00  0.87415474586E+03  0.87415474586E+03  0.25500000000E-02 0.  1.
         -2   -1    0    0    0  501 -0.00000000000E+00 -0.00000000000E+00 -0.74145182683E+02  0.74145182727E+02  0.25500000000E-02 0. -1.
    5000001    1    1    2    0    0  0.80418623937E+02  0.20430409296E+03  0.44072544806E+03  0.50850293809E+03  0.12700000000E+03 0.  0.
   -5000001    1    1    2    0    0 -0.80418623937E+02 -0.20430409296E+03  0.35928411511E+03  0.43979699050E+03  0.12700000000E+03 0.  0.
<mgrwt>
<rscale>  0 0.50917330E+03</rscale>
<asrwt>0</asrwt>
<pdfrwt beam="1">  1        2 0.12487924E+00 0.50917330E+03</pdfrwt>
<pdfrwt beam="2">  1       -2 0.10592170E-01 0.50917330E+03</pdfrwt>
<totfact> 0.21138769E+03</totfact>
</mgrwt>
</event>
<event>
 4    1  0.1361667E-004  0.7728380E+03  0.7818608E-02  0.9600187E-01
         -2   -1    0    0    0  501 -0.00000000000E+00  0.00000000000E+00  0.57769177172E+02  0.57769177229E+02  0.25500000000E-02 0.  1.
          2   -1    0    0  501    0  0.00000000000E+00 -0.00000000000E+00 -0.25847630507E+04  0.25847630507E+04  0.25500000000E-02 0. -1.
    5000001    1    1    2    0    0  0.20088754300E+03  0.19986454427E+03 -0.47714947450E+03  0.56929979976E+03  0.12700000000E+03 0.  0.
   -5000001    1    1    2    0    0 -0.20088754300E+03 -0.19986454427E+03 -0.20498443990E+04  0.20732324282E+04  0.12700000000E+03 0.  0.
<mgrwt>
<rscale>  0 0.77283798E+03</rscale>
<asrwt>0</asrwt>
<pdfrwt beam="1">  1        2 0.36925179E+00 0.77283798E+03</pdfrwt>
<pdfrwt beam="2">  1       -2 0.82527412E-02 0.77283798E+03</pdfrwt>
<totfact> 0.38435324E+02</totfact>
</mgrwt>
</event>
<event>
 4    1  0.1361667E-004  0.3067475E+03  0.7818608E-02  0.1081915E+00
         -2   -1    0    0    0  501 -0.00000000000E+00  0.00000000000E+00  0.14093954144E+02  0.14093954375E+02  0.25500000000E-02 0. -1.
          2   -1    0    0  501    0  0.00000000000E+00 -0.00000000000E+00 -0.16690489698E+04  0.16690489698E+04  0.25500000000E-02 0.  1.
    5000001    1    1    2    0    0  0.74584333094E+02 -0.18333817902E+02 -0.10396749974E+04  0.10502152407E+04  0.12700000000E+03 0.  0.
   -5000001    1    1    2    0    0 -0.74584333094E+02  0.18333817902E+02 -0.61528001828E+03  0.63292768348E+03  0.12700000000E+03 0.  0.
<mgrwt>
<rscale>  0 0.30674745E+03</rscale>
<asrwt>0</asrwt>
<pdfrwt beam="1">  1        2 0.23843544E+00 0.30674745E+03</pdfrwt>
<pdfrwt beam="2">  1       -2 0.20134231E-02 0.30674745E+03</pdfrwt>
<totfact> 0.98491998E+03</totfact>
</mgrwt>
</event>
<event>
 4    1  0.1361667E-004  0.3299065E+03  0.7818608E-02  0.1071178E+00
         -2   -1    0    0    0  501 -0.00000000000E+00  0.00000000000E+00  0.16778748330E+02  0.16778748524E+02  0.25500000000E-02 0. -1.
          2   -1    0    0  501    0  0.00000000000E+00 -0.00000000000E+00 -0.16216686474E+04  0.16216686474E+04  0.25500000000E-02 0.  1.
    5000001    1    1    2    0    0 -0.90022295008E+02 -0.49797370727E+02 -0.91313869409E+03  0.92765029315E+03  0.12700000000E+03 0.  0.
   -5000001    1    1    2    0    0  0.90022295008E+02  0.49797370727E+02 -0.69175120500E+03  0.71079710280E+03  0.12700000000E+03 0.  0.
<mgrwt>
<rscale>  0 0.32990647E+03</rscale>
<asrwt>0</asrwt>
<pdfrwt beam="1">  1        2 0.23166685E+00 0.32990647E+03</pdfrwt>
<pdfrwt beam="2">  1       -2 0.23969651E-02 0.32990647E+03</pdfrwt>
<totfact> 0.80416948E+03</totfact>
</mgrwt>
</event>
<event>
 4    1  0.1361667E-004  0.5968140E+03  0.7818608E-02  0.9912038E-01
         -2   -1    0    0    0  501 -0.00000000000E+00  0.00000000000E+00  0.84691017040E+02  0.84691017079E+02  0.25500000000E-02 0. -1.
          2   -1    0    0  501    0  0.00000000000E+00 -0.00000000000E+00 -0.10514306368E+04  0.10514306368E+04  0.25500000000E-02 0.  1.
    5000001    1    1    2    0    0 -0.38843141108E+02 -0.14266890221E+03 -0.53236602367E+02  0.20205529218E+03  0.12700000000E+03 0.  0.
   -5000001    1    1    2    0    0  0.38843141108E+02  0.14266890221E+03 -0.91350301741E+03  0.93406636171E+03  0.12700000000E+03 0.  0.
<mgrwt>
<rscale>  0 0.59681397E+03</rscale>
<asrwt>0</asrwt>
<pdfrwt beam="1">  1        2 0.15020437E+00 0.59681397E+03</pdfrwt>
<pdfrwt beam="2">  1       -2 0.12098717E-01 0.59681397E+03</pdfrwt>
<totfact> 0.13186397E+03</totfact>
</mgrwt>
</event>
<event>
 4    1  0.1361667E-004  0.4016468E+03  0.7818608E-02  0.1043211E+00
         -2   -1    0    0    0  501 -0.00000000000E+00  0.00000000000E+00  0.40968150104E+02  0.40968150184E+02  0.25500000000E-02 0.  1.
          2   -1    0    0  501    0  0.00000000000E+00 -0.00000000000E+00 -0.98442419105E+03  0.98442419106E+03  0.25500000000E-02 0. -1.
    5000001    1    1    2    0    0  0.14802369067E+03 -0.46951545784E+02 -0.44811098717E+03  0.49096630992E+03  0.12700000000E+03 0.  0.
   -5000001    1    1    2    0    0 -0.14802369067E+03  0.46951545784E+02 -0.49534505378E+03  0.53442603132E+03  0.12700000000E+03 0.  0.
<mgrwt>
<rscale>  0 0.40164680E+03</rscale>
<asrwt>0</asrwt>
<pdfrwt beam="1">  1        2 0.14063201E+00 0.40164680E+03</pdfrwt>
<pdfrwt beam="2">  1       -2 0.58525935E-02 0.40164680E+03</pdfrwt>
<totfact> 0.46029643E+03</totfact>
</mgrwt>
</event>
<event>
 4    1  0.1361667E-004  0.4235662E+03  0.7818608E-02  0.1035912E+00
          2   -1    0    0  501    0  0.00000000000E+00  0.00000000000E+00  0.64447471449E+02  0.64447471499E+02  0.25500000000E-02 0.  1.
         -2   -1    0    0    0  501 -0.00000000000E+00 -0.00000000000E+00 -0.69594772818E+03  0.69594772818E+03  0.25500000000E-02 0. -1.
    5000001    1    1    2    0    0  0.44003524705E+02  0.15377245118E+03 -0.21514088683E+03  0.29664267750E+03  0.12700000000E+03 0.  0.
   -5000001    1    1    2    0    0 -0.44003524705E+02 -0.15377245118E+03 -0.41635936989E+03  0.46375252218E+03  0.12700000000E+03 0.  0.
<mgrwt>
<rscale>  0 0.42356615E+03</rscale>
<asrwt>0</asrwt>
<pdfrwt beam="1">  1        2 0.92067820E-02 0.42356615E+03</pdfrwt>
<pdfrwt beam="2">  1       -2 0.99421100E-01 0.42356615E+03</pdfrwt>
<totfact> 0.62251901E+02</totfact>
</mgrwt>
</event>
<event>
 4    1  0.1361667E-004  0.3493125E+03  0.7818608E-02  0.1062898E+00
          2   -1    0    0  501    0  0.00000000000E+00  0.00000000000E+00  0.41956371843E+02  0.41956371920E+02  0.25500000000E-02 0.  1.
         -2   -1    0    0    0  501 -0.00000000000E+00 -0.00000000000E+00 -0.72706033046E+03  0.72706033046E+03  0.25500000000E-02 0. -1.
    5000001    1    1    2    0    0  0.70598189030E+02 -0.39417254423E+02 -0.14764655589E+03  0.21087040975E+03  0.12700000000E+03 0.  0.
   -5000001    1    1    2    0    0 -0.70598189030E+02  0.39417254423E+02 -0.53745740272E+03  0.55814629263E+03  0.12700000000E+03 0.  0.
<mgrwt>
<rscale>  0 0.34931255E+03</rscale>
<asrwt>0</asrwt>
<pdfrwt beam="1">  1        2 0.59937679E-02 0.34931255E+03</pdfrwt>
<pdfrwt beam="2">  1       -2 0.10386575E+00 0.34931255E+03</pdfrwt>
<totfact> 0.97656825E+02</totfact>
</mgrwt>
</event>
<event>
 4    1  0.1361667E-004  0.5519608E+03  0.7818608E-02  0.1001041E+00
          2   -1    0    0  501    0  0.00000000000E+00  0.00000000000E+00  0.52152871898E+03  0.52152871899E+03  0.25500000000E-02 0.  1.
         -2   -1    0    0    0  501 -0.00000000000E+00 -0.00000000000E+00 -0.14604218458E+03  0.14604218461E+03  0.25500000000E-02 0. -1.
    5000001    1    1    2    0    0  0.14387432440E+03  0.33201259740E+02 -0.48747545048E+02  0.20076719856E+03  0.12700000000E+03 0.  0.
   -5000001    1    1    2    0    0 -0.14387432440E+03 -0.33201259740E+02  0.42423407944E+03  0.46680370503E+03  0.12700000000E+03 0.  0.
<mgrwt>
<rscale>  0 0.55196084E+03</rscale>
<asrwt>0</asrwt>
<pdfrwt beam="1">  1        2 0.74504103E-01 0.55196084E+03</pdfrwt>
<pdfrwt beam="2">  1       -2 0.20863169E-01 0.55196084E+03</pdfrwt>
<totfact> 0.12667455E+03</totfact>
</mgrwt>
</event>
<event>
 4    1  0.1361667E-004  0.3624565E+03  0.7818608E-02  0.1057615E+00
         -2   -1    0    0    0  501 -0.00000000000E+00  0.00000000000E+00  0.28221872543E+02  0.28221872658E+02  0.25500000000E-02 0. -1.
          2   -1    0    0  501    0  0.00000000000E+00 -0.00000000000E+00 -0.11637669867E+04  0.11637669867E+04  0.25500000000E-02 0.  1.
    5000001    1    1    2    0    0 -0.10348452342E+03 -0.39363916655E+02 -0.78730295587E+03  0.80512949818E+03  0.12700000000E+03 0.  0.
   -5000001    1    1    2    0    0  0.10348452342E+03  0.39363916655E+02 -0.34824215829E+03  0.38685936118E+03  0.12700000000E+03 0.  0.
<mgrwt>
<rscale>  0 0.36245653E+03</rscale>
<asrwt>0</asrwt>
<pdfrwt beam="1">  1        2 0.16625240E+00 0.36245653E+03</pdfrwt>
<pdfrwt beam="2">  1       -2 0.40316968E-02 0.36245653E+03</pdfrwt>
<totfact> 0.64054526E+03</totfact>
</mgrwt>
</event>
<event>
 4    1  0.1361667E-004  0.5468410E+03  0.7818608E-02  0.1002228E+00
         -2   -1    0    0    0  501 -0.00000000000E+00  0.00000000000E+00  0.17593165786E+03  0.17593165788E+03  0.25500000000E-02 0. -1.
          2   -1    0    0  501    0  0.00000000000E+00 -0.00000000000E+00 -0.42493068201E+03  0.42493068202E+03  0.25500000000E-02 0.  1.
    5000001    1    1    2    0    0  0.22853842981E+03  0.56449406601E+02 -0.62212569407E+02  0.27461928774E+03  0.12700000000E+03 0.  0.
   -5000001    1    1    2    0    0 -0.22853842981E+03 -0.56449406601E+02 -0.18678645474E+03  0.32624305216E+03  0.12700000000E+03 0.  0.
<mgrwt>
<rscale>  0 0.54684096E+03</rscale>
<asrwt>0</asrwt>
<pdfrwt beam="1">  1        2 0.60704383E-01 0.54684096E+03</pdfrwt>
<pdfrwt beam="2">  1       -2 0.25133094E-01 0.54684096E+03</pdfrwt>
<totfact> 0.11474434E+03</totfact>
</mgrwt>
</event>
<event>
 4    1  0.1361667E-004  0.3627286E+03  0.7818608E-02  0.1057509E+00
          2   -1    0    0  501    0  0.00000000000E+00  0.00000000000E+00  0.77940437166E+02  0.77940437208E+02  0.25500000000E-02 0.  1.
         -2   -1    0    0    0  501 -0.00000000000E+00 -0.00000000000E+00 -0.42202761839E+03  0.42202761840E+03  0.25500000000E-02 0. -1.
    5000001    1    1    2    0    0  0.69403516565E+02  0.10927653506E+03 -0.16872182901E+03  0.24769793058E+03  0.12700000000E+03 0.  0.
   -5000001    1    1    2    0    0 -0.69403516565E+02 -0.10927653506E+03 -0.17536535221E+03  0.25227012503E+03  0.12700000000E+03 0.  0.
<mgrwt>
<rscale>  0 0.36272864E+03</rscale>
<asrwt>0</asrwt>
<pdfrwt beam="1">  1        2 0.11134348E-01 0.36272864E+03</pdfrwt>
<pdfrwt beam="2">  1       -2 0.60289659E-01 0.36272864E+03</pdfrwt>
<totfact> 0.14768357E+03</totfact>
</mgrwt>
</event>
<event>
 4    1  0.1361667E-004  0.8784550E+03  0.7818608E-02  0.9452922E-01
          2   -1    0    0  501    0  0.00000000000E+00  0.00000000000E+00  0.25334166166E+03  0.25334166168E+03  0.25500000000E-02 0.  1.
         -2   -1    0    0    0  501 -0.00000000000E+00 -0.00000000000E+00 -0.76150441348E+03  0.76150441349E+03  0.25500000000E-02 0. -1.
    5000001    1    1    2    0    0 -0.93762734850E+02  0.26579854124E+03  0.10637435674E+03  0.32693243758E+03  0.12700000000E+03 0.  0.
   -5000001    1    1    2    0    0  0.93762734850E+02 -0.26579854124E+03 -0.61453710857E+03  0.68791363758E+03  0.12700000000E+03 0.  0.
<mgrwt>
<rscale>  0 0.87845499E+03</rscale>
<asrwt>0</asrwt>
<pdfrwt beam="1">  1        2 0.36191666E-01 0.87845499E+03</pdfrwt>
<pdfrwt beam="2">  1       -2 0.10878634E+00 0.87845499E+03</pdfrwt>
<totfact> 0.97643216E+01</totfact>
</mgrwt>
</event>
<event>
 4    1  0.1361667E-004  0.3819876E+03  0.7818608E-02  0.1050202E+00
          2   -1    0    0  501    0  0.00000000000E+00  0.00000000000E+00  0.10587582103E+03  0.10587582106E+03  0.25500000000E-02 0.  1.
         -2   -1    0    0    0  501 -0.00000000000E+00 -0.00000000000E+00 -0.34454167900E+03  0.34454167901E+03  0.25500000000E-02 0. -1.
    5000001    1    1    2    0    0 -0.13903319903E+03  0.11573530845E+02 -0.84245665353E+02  0.20661681727E+03  0.12700000000E+03 0.  0.
   -5000001    1    1    2    0    0  0.13903319903E+03 -0.11573530845E+02 -0.15442019262E+03  0.24380068280E+03  0.12700000000E+03 0.  0.
<mgrwt>
<rscale>  0 0.38198761E+03</rscale>
<asrwt>0</asrwt>
<pdfrwt beam="1">  1        2 0.15125117E-01 0.38198761E+03</pdfrwt>
<pdfrwt beam="2">  1       -2 0.49220239E-01 0.38198761E+03</pdfrwt>
<totfact> 0.15407651E+03</totfact>
</mgrwt>
</event>
<event>
 4    1  0.1361667E-004  0.4506265E+03  0.7818608E-02  0.1027535E+00
         -2   -1    0    0    0  501 -0.00000000000E+00  0.00000000000E+00  0.19864170450E+04  0.19864170450E+04  0.25500000000E-02 0. -1.
          2   -1    0    0  501    0  0.00000000000E+00 -0.00000000000E+00 -0.25556593490E+02  0.25556593617E+02  0.25500000000E-02 0.  1.
    5000001    1    1    2    0    0  0.44366459585E+02 -0.14468017054E+03  0.49673529538E+03  0.53457991747E+03  0.12700000000E+03 0.  0.
   -5000001    1    1    2    0    0 -0.44366459585E+02  0.14468017054E+03  0.14641251561E+04  0.14773937211E+04  0.12700000000E+03 0.  0.
<mgrwt>
<rscale>  0 0.45062647E+03</rscale>
<asrwt>0</asrwt>
<pdfrwt beam="1">  1        2 0.36509420E-02 0.45062647E+03</pdfrwt>
<pdfrwt beam="2">  1       -2 0.28377386E+00 0.45062647E+03</pdfrwt>
<totfact> 0.10763654E+02</totfact>
</mgrwt>
</event>
<event>
 4    1  0.1361667E-004  0.3534938E+03  0.7818608E-02  0.1061190E+00
         -2   -1    0    0    0  501 -0.00000000000E+00  0.00000000000E+00  0.27412852267E+02  0.27412852386E+02  0.25500000000E-02 0. -1.
          2   -1    0    0  501    0  0.00000000000E+00 -0.00000000000E+00 -0.11395922247E+04  0.11395922247E+04  0.25500000000E-02 0.  1.
    5000001    1    1    2    0    0 -0.60253009844E+02 -0.97170730504E+02 -0.70512254967E+03  0.72553386284E+03  0.12700000000E+03 0.  0.
   -5000001    1    1    2    0    0  0.60253009844E+02  0.97170730504E+02 -0.40705682278E+03  0.44147121428E+03  0.12700000000E+03 0.  0.
<mgrwt>
<rscale>  0 0.35349384E+03</rscale>
<asrwt>0</asrwt>
<pdfrwt beam="1">  1        2 0.16279886E+00 0.35349384E+03</pdfrwt>
<pdfrwt beam="2">  1       -2 0.39161225E-02 0.35349384E+03</pdfrwt>
<totfact> 0.69024408E+03</totfact>
</mgrwt>
</event>
<event>
 4    1  0.1361667E-004  0.5987733E+03  0.7818608E-02  0.9907954E-01
         -2   -1    0    0    0  501 -0.00000000000E+00  0.00000000000E+00  0.55603200509E+02  0.55603200568E+02  0.25500000000E-02 0. -1.
          2   -1    0    0  501    0  0.00000000000E+00 -0.00000000000E+00 -0.16120002222E+04  0.16120002222E+04  0.25500000000E-02 0.  1.
    5000001    1    1    2    0    0 -0.16849801377E+03  0.95201996613E+02 -0.24942077703E+03  0.34028623953E+03  0.12700000000E+03 0.  0.
   -5000001    1    1    2    0    0  0.16849801377E+03 -0.95201996613E+02 -0.13069762447E+04  0.13273171833E+04  0.12700000000E+03 0.  0.
<mgrwt>
<rscale>  0 0.59877332E+03</rscale>
<asrwt>0</asrwt>
<pdfrwt beam="1">  1        2 0.23028572E+00 0.59877332E+03</pdfrwt>
<pdfrwt beam="2">  1       -2 0.79433154E-02 0.59877332E+03</pdfrwt>
<totfact> 0.12910085E+03</totfact>
</mgrwt>
</event>
<event>
 4    1  0.1361667E-004  0.3037348E+03  0.7818608E-02  0.1083388E+00
          2   -1    0    0  501    0  0.00000000000E+00  0.00000000000E+00  0.89244350759E+03  0.89244350759E+03  0.25500000000E-02 0.  1.
         -2   -1    0    0    0  501 -0.00000000000E+00 -0.00000000000E+00 -0.25843322512E+02  0.25843322637E+02  0.25500000000E-02 0. -1.
    5000001    1    1    2    0    0 -0.41041372770E+02 -0.72401885983E+02  0.42460150896E+03  0.45093443956E+03  0.12700000000E+03 0.  0.
   -5000001    1    1    2    0    0  0.41041372770E+02  0.72401885983E+02  0.44199867612E+03  0.46735239067E+03  0.12700000000E+03 0.  0.
<mgrwt>
<rscale>  0 0.30373479E+03</rscale>
<asrwt>0</asrwt>
<pdfrwt beam="1">  1        2 0.12749189E+00 0.30373479E+03</pdfrwt>
<pdfrwt beam="2">  1       -2 0.36919042E-02 0.30373479E+03</pdfrwt>
<totfact> 0.10525829E+04</totfact>
</mgrwt>
</event>
<event>
 4    1  0.1361667E-004  0.3766434E+03  0.7818608E-02  0.1052181E+00
          2   -1    0    0  501    0  0.00000000000E+00  0.00000000000E+00  0.19485910496E+04  0.19485910496E+04  0.25500000000E-02 0.  1.
         -2   -1    0    0    0  501 -0.00000000000E+00 -0.00000000000E+00 -0.18200362226E+02  0.18200362405E+02  0.25500000000E-02 0. -1.
    5000001    1    1    2    0    0  0.23119213643E+02 -0.12853766829E+03  0.12145172261E+04  0.12281032215E+04  0.12700000000E+03 0.  0.
   -5000001    1    1    2    0    0 -0.23119213643E+02  0.12853766829E+03  0.71587346126E+03  0.73868819047E+03  0.12700000000E+03 0.  0.
<mgrwt>
<rscale>  0 0.37664340E+03</rscale>
<asrwt>0</asrwt>
<pdfrwt beam="1">  1        2 0.27837017E+00 0.37664340E+03</pdfrwt>
<pdfrwt beam="2">  1       -2 0.26000516E-02 0.37664340E+03</pdfrwt>
<totfact> 0.49079077E+03</totfact>
</mgrwt>
</event>
<event>
 4    1  0.1361667E-004  0.5625309E+03  0.7818608E-02  0.9986344E-01
          2   -1    0    0  501    0  0.00000000000E+00  0.00000000000E+00  0.25105206120E+03  0.25105206121E+03  0.25500000000E-02 0.  1.
         -2   -1    0    0    0  501 -0.00000000000E+00 -0.00000000000E+00 -0.31511491318E+03  0.31511491319E+03  0.25500000000E-02 0. -1.
    5000001    1    1    2    0    0  0.24159452927E+03  0.45533611427E+02 -0.82755825352E+02  0.28882304785E+03  0.12700000000E+03 0.  0.
   -5000001    1    1    2    0    0 -0.24159452927E+03 -0.45533611427E+02  0.18692973375E+02  0.27734392655E+03  0.12700000000E+03 0.  0.
<mgrwt>
<rscale>  0 0.56253088E+03</rscale>
<asrwt>0</asrwt>
<pdfrwt beam="1">  1        2 0.35864580E-01 0.56253088E+03</pdfrwt>
<pdfrwt beam="2">  1       -2 0.45016416E-01 0.56253088E+03</pdfrwt>
<totfact> 0.68499707E+02</totfact>
</mgrwt>
</event>
<event>
 4    1  0.1361667E-004  0.4266397E+03  0.7818608E-02  0.1034927E+00
         -2   -1    0    0    0  501 -0.00000000000E+00  0.00000000000E+00  0.25897973755E+02  0.25897973880E+02  0.25500000000E-02 0. -1.
          2   -1    0    0  501    0  0.00000000000E+00 -0.00000000000E+00 -0.17571013389E+04  0.17571013389E+04  0.25500000000E-02 0.  1.
    5000001    1    1    2    0    0 -0.31266720734E+02 -0.15422942228E+03 -0.58178592372E+03  0.61592871630E+03  0.12700000000E+03 0.  0.
   -5000001    1    1    2    0    0  0.31266720734E+02  0.15422942228E+03 -0.11494174414E+04  0.11670705965E+04  0.12700000000E+03 0.  0.
<mgrwt>
<rscale>  0 0.42663973E+03</rscale>
<asrwt>0</asrwt>
<pdfrwt beam="1">  1        2 0.25101440E+00 0.42663973E+03</pdfrwt>
<pdfrwt beam="2">  1       -2 0.36997116E-02 0.42663973E+03</pdfrwt>
<totfact> 0.35887360E+03</totfact>
</mgrwt>
</event>
<event>
 4    1  0.1361667E-004  0.2931963E+03  0.7818608E-02  0.1088692E+00
         -2   -1    0    0    0  501 -0.00000000000E+00  0.00000000000E+00  0.26873131290E+02  0.26873131411E+02  0.25500000000E-02 0. -1.
          2   -1    0    0  501    0  0.00000000000E+00 -0.00000000000E+00 -0.79972146331E+03  0.79972146332E+03  0.25500000000E-02 0.  1.
    5000001    1    1    2    0    0  0.30088067947E+00 -0.69694029865E+02 -0.32308993732E+03  0.35408114313E+03  0.12700000000E+03 0.  0.
   -5000001    1    1    2    0    0 -0.30088067947E+00  0.69694029865E+02 -0.44975839471E+03  0.47251345160E+03  0.12700000000E+03 0.  0.
<mgrwt>
<rscale>  0 0.29319632E+03</rscale>
<asrwt>0</asrwt>
<pdfrwt beam="1">  1        2 0.11424591E+00 0.29319632E+03</pdfrwt>
<pdfrwt beam="2">  1       -2 0.38390193E-02 0.29319632E+03</pdfrwt>
<totfact> 0.11393076E+04</totfact>
</mgrwt>
</event>
<event>
 4    1  0.1361667E-004  0.4233832E+03  0.7818608E-02  0.1035971E+00
          2   -1    0    0  501    0  0.00000000000E+00  0.00000000000E+00  0.31879505634E+03  0.31879505635E+03  0.25500000000E-02 0.  1.
         -2   -1    0    0    0  501 -0.00000000000E+00 -0.00000000000E+00 -0.14057096789E+03  0.14057096791E+03  0.25500000000E-02 0. -1.
    5000001    1    1    2    0    0  0.48342976268E+02  0.15289217339E+03  0.14825408386E+03  0.25262884518E+03  0.12700000000E+03 0.  0.
   -5000001    1    1    2    0    0 -0.48342976268E+02 -0.15289217339E+03  0.29970004594E+02  0.20673717908E+03  0.12700000000E+03 0.  0.
<mgrwt>
<rscale>  0 0.42338318E+03</rscale>
<asrwt>0</asrwt>
<pdfrwt beam="1">  1        2 0.45542151E-01 0.42338318E+03</pdfrwt>
<pdfrwt beam="2">  1       -2 0.20081567E-01 0.42338318E+03</pdfrwt>
<totfact> 0.23336751E+03</totfact>
</mgrwt>
</event>
<event>
 4    1  0.1361667E-004  0.3442581E+03  0.7818608E-02  0.1064997E+00
         -2   -1    0    0    0  501 -0.00000000000E+00  0.00000000000E+00  0.77007164299E+02  0.77007164342E+02  0.25500000000E-02 0.  1.
          2   -1    0    0  501    0  0.00000000000E+00 -0.00000000000E+00 -0.38474876460E+03  0.38474876461E+03  0.25500000000E-02 0. -1.
    5000001    1    1    2    0    0 -0.34567868106E+02 -0.73470014990E+02 -0.26534167780E+03  0.30516878377E+03  0.12700000000E+03 0.  0.
   -5000001    1    1    2    0    0  0.34567868106E+02  0.73470014990E+02 -0.42399922499E+02  0.15658714518E+03  0.12700000000E+03 0.  0.
<mgrwt>
<rscale>  0 0.34425811E+03</rscale>
<asrwt>0</asrwt>
<pdfrwt beam="1">  1        2 0.54964109E-01 0.34425811E+03</pdfrwt>
<pdfrwt beam="2">  1       -2 0.11001024E-01 0.34425811E+03</pdfrwt>
<totfact> 0.51603375E+03</totfact>
</mgrwt>
</event>
<event>
 4    1  0.1361667E-004  0.3182088E+03  0.7818608E-02  0.1076477E+00
         -2   -1    0    0    0  501 -0.00000000000E+00  0.00000000000E+00  0.14524566178E+02  0.14524566402E+02  0.25500000000E-02 0. -1.
          2   -1    0    0  501    0  0.00000000000E+00 -0.00000000000E+00 -0.17428543376E+04  0.17428543376E+04  0.25500000000E-02 0.  1.
    5000001    1    1    2    0    0 -0.50258002511E+02  0.59246208424E+02 -0.55424102669E+03  0.57388857428E+03  0.12700000000E+03 0.  0.
   -5000001    1    1    2    0    0  0.50258002511E+02 -0.59246208424E+02 -0.11740887448E+04  0.11834903298E+04  0.12700000000E+03 0.  0.
<mgrwt>
<rscale>  0 0.31820876E+03</rscale>
<asrwt>0</asrwt>
<pdfrwt beam="1">  1        2 0.24897906E+00 0.31820876E+03</pdfrwt>
<pdfrwt beam="2">  1       -2 0.20749391E-02 0.31820876E+03</pdfrwt>
<totfact> 0.86648341E+03</totfact>
</mgrwt>
</event>
<event>
 4    1  0.1361667E-004  0.3001159E+03  0.7818608E-02  0.1085183E+00
          2   -1    0    0  501    0  0.00000000000E+00  0.00000000000E+00  0.24374053690E+03  0.24374053691E+03  0.25500000000E-02 0.  1.
         -2   -1    0    0    0  501 -0.00000000000E+00 -0.00000000000E+00 -0.92382598967E+02  0.92382599003E+02  0.25500000000E-02 0. -1.
    5000001    1    1    2    0    0 -0.36441453252E+02 -0.48963622289E+02  0.17883678270E+02  0.14203605800E+03  0.12700000000E+03 0.  0.
   -5000001    1    1    2    0    0  0.36441453252E+02  0.48963622289E+02  0.13347425966E+03  0.19408707792E+03  0.12700000000E+03 0.  0.
<mgrwt>
<rscale>  0 0.30011587E+03</rscale>
<asrwt>0</asrwt>
<pdfrwt beam="1">  1        2 0.34820077E-01 0.30011587E+03</pdfrwt>
<pdfrwt beam="2">  1       -2 0.13197514E-01 0.30011587E+03</pdfrwt>
<totfact> 0.62739980E+03</totfact>
</mgrwt>
</event>
<event>
 4    1  0.1361667E-004  0.5162581E+03  0.7818608E-02  0.1009620E+00
         -2   -1    0    0    0  501 -0.00000000000E+00  0.00000000000E+00  0.32031535231E+03  0.32031535232E+03  0.25500000000E-02 0. -1.
          2   -1    0    0  501    0  0.00000000000E+00 -0.00000000000E+00 -0.20801565413E+03  0.20801565414E+03  0.25500000000E-02 0.  1.
    5000001    1    1    2    0    0 -0.94677112437E+02 -0.12877348539E+03 -0.10551667630E+03  0.22980238279E+03  0.12700000000E+03 0.  0.
   -5000001    1    1    2    0    0  0.94677112437E+02  0.12877348539E+03  0.21781637448E+03  0.29852862367E+03  0.12700000000E+03 0.  0.
<mgrwt>
<rscale>  0 0.51625810E+03</rscale>
<asrwt>0</asrwt>
<pdfrwt beam="1">  1        2 0.29716522E-01 0.51625810E+03</pdfrwt>
<pdfrwt beam="2">  1       -2 0.45759336E-01 0.51625810E+03</pdfrwt>
<totfact> 0.81793706E+02</totfact>
</mgrwt>
</event>
<event>
 4    1  0.1361667E-004  0.4806332E+03  0.7818608E-02  0.1018961E+00
          2   -1    0    0  501    0  0.00000000000E+00  0.00000000000E+00  0.47501349452E+03  0.47501349453E+03  0.25500000000E-02 0.  1.
         -2   -1    0    0    0  501 -0.00000000000E+00 -0.00000000000E+00 -0.12157985053E+03  0.12157985055E+03  0.25500000000E-02 0. -1.
    5000001    1    1    2    0    0 -0.15866152851E+02  0.15137105647E+03  0.34535603948E+03  0.39820186533E+03  0.12700000000E+03 0.  0.
   -5000001    1    1    2    0    0  0.15866152851E+02 -0.15137105647E+03  0.80776045111E+01  0.19839147975E+03  0.12700000000E+03 0.  0.
<mgrwt>
<rscale>  0 0.48063321E+03</rscale>
<asrwt>0</asrwt>
<pdfrwt beam="1">  1        2 0.67859072E-01 0.48063321E+03</pdfrwt>
<pdfrwt beam="2">  1       -2 0.17368550E-01 0.48063321E+03</pdfrwt>
<totfact> 0.19312505E+03</totfact>
</mgrwt>
</event>
<event>
 4    1  0.1361667E-004  0.1085331E+04  0.7818608E-02  0.9219608E-01
         -2   -1    0    0    0  501 -0.00000000000E+00  0.00000000000E+00  0.32060653174E+03  0.32060653175E+03  0.25500000000E-02 0. -1.
          2   -1    0    0  501    0  0.00000000000E+00 -0.00000000000E+00 -0.91852728563E+03  0.91852728564E+03  0.25500000000E-02 0.  1.
    5000001    1    1    2    0    0  0.22094360502E+02  0.51146152502E+03 -0.15330480408E+03  0.54928354727E+03  0.12700000000E+03 0.  0.
   -5000001    1    1    2    0    0 -0.22094360502E+02 -0.51146152502E+03 -0.44461594982E+03  0.68985027012E+03  0.12700000000E+03 0.  0.
<mgrwt>
<rscale>  0 0.10853310E+04</rscale>
<asrwt>0</asrwt>
<pdfrwt beam="1">  1        2 0.13121818E+00 0.10853310E+04</pdfrwt>
<pdfrwt beam="2">  1       -2 0.45800934E-01 0.10853310E+04</pdfrwt>
<totfact> 0.14197716E+02</totfact>
</mgrwt>
</event>
<event>
 4    1  0.1361667E-004  0.2965675E+03  0.7818608E-02  0.1086969E+00
          2   -1    0    0  501    0  0.00000000000E+00  0.00000000000E+00  0.11547258585E+03  0.11547258587E+03  0.25500000000E-02 0.  1.
         -2   -1    0    0    0  501 -0.00000000000E+00 -0.00000000000E+00 -0.19041804701E+03  0.19041804702E+03  0.25500000000E-02 0. -1.
    5000001    1    1    2    0    0  0.72891235483E+02 -0.21347196824E+02 -0.47270255807E+02  0.15534578239E+03  0.12700000000E+03 0.  0.
   -5000001    1    1    2    0    0 -0.72891235483E+02  0.21347196824E+02 -0.27675205353E+02  0.15054485051E+03  0.12700000000E+03 0.  0.
<mgrwt>
<rscale>  0 0.29656746E+03</rscale>
<asrwt>0</asrwt>
<pdfrwt beam="1">  1        2 0.16496084E-01 0.29656746E+03</pdfrwt>
<pdfrwt beam="2">  1       -2 0.27202578E-01 0.29656746E+03</pdfrwt>
<totfact> 0.42413881E+03</totfact>
</mgrwt>
</event>
<event>
 4    1  0.1361667E-004  0.9218351E+03  0.7818608E-02  0.9398691E-01
          2   -1    0    0  501    0  0.00000000000E+00  0.00000000000E+00  0.13436649974E+04  0.13436649974E+04  0.25500000000E-02 0.  1.
         -2   -1    0    0    0  501 -0.00000000000E+00 -0.00000000000E+00 -0.15810858626E+03  0.15810858628E+03  0.25500000000E-02 0. -1.
    5000001    1    1    2    0    0  0.26815741468E+03  0.26814597374E+03  0.96607378971E+03  0.10455803314E+04  0.12700000000E+03 0.  0.
   -5000001    1    1    2    0    0 -0.26815741468E+03 -0.26814597374E+03  0.21948262139E+03  0.45619325222E+03  0.12700000000E+03 0.  0.
<mgrwt>
<rscale>  0 0.92183507E+03</rscale>
<asrwt>0</asrwt>
<pdfrwt beam="1">  1        2 0.19195214E+00 0.92183507E+03</pdfrwt>
<pdfrwt beam="2">  1       -2 0.22586941E-01 0.92183507E+03</pdfrwt>
<totfact> 0.30551783E+02</totfact>
</mgrwt>
</event>
<event>
 4    1  0.1361667E-004  0.4209894E+03  0.7818608E-02  0.1036745E+00
          2   -1    0    0  501    0  0.00000000000E+00  0.00000000000E+00  0.12135184591E+04  0.12135184591E+04  0.25500000000E-02 0.  1.
         -2   -1    0    0    0  501 -0.00000000000E+00 -0.00000000000E+00 -0.36512031909E+02  0.36512031998E+02  0.25500000000E-02 0. -1.
    5000001    1    1    2    0    0  0.38022678852E+02 -0.14162838658E+03  0.34591744662E+03  0.39660081174E+03  0.12700000000E+03 0.  0.
   -5000001    1    1    2    0    0 -0.38022678852E+02  0.14162838658E+03  0.83108898056E+03  0.85342967935E+03  0.12700000000E+03 0.  0.
<mgrwt>
<rscale>  0 0.42098943E+03</rscale>
<asrwt>0</asrwt>
<pdfrwt beam="1">  1        2 0.17335978E+00 0.42098943E+03</pdfrwt>
<pdfrwt beam="2">  1       -2 0.52160047E-02 0.42098943E+03</pdfrwt>
<totfact> 0.40623565E+03</totfact>
</mgrwt>
</event>
<event>
 4    1  0.1361667E-004  0.3061703E+03  0.7818608E-02  0.1082196E+00
         -2   -1    0    0    0  501 -0.00000000000E+00  0.00000000000E+00  0.32414986149E+02  0.32414986249E+02  0.25500000000E-02 0. -1.
          2   -1    0    0  501    0  0.00000000000E+00 -0.00000000000E+00 -0.72296997967E+03  0.72296997968E+03  0.25500000000E-02 0.  1.
    5000001    1    1    2    0    0  0.47069734323E+02  0.71077866685E+02 -0.32998104385E+03  0.36370882904E+03  0.12700000000E+03 0.  0.
   -5000001    1    1    2    0    0 -0.47069734323E+02 -0.71077866685E+02 -0.36057394968E+03  0.39167613689E+03  0.12700000000E+03 0.  0.
<mgrwt>
<rscale>  0 0.30617029E+03</rscale>
<asrwt>0</asrwt>
<pdfrwt beam="1">  1        2 0.10328142E+00 0.30617029E+03</pdfrwt>
<pdfrwt beam="2">  1       -2 0.46307128E-02 0.30617029E+03</pdfrwt>
<totfact> 0.97220902E+03</totfact>
</mgrwt>
</event>
<event>
 4    1  0.1361667E-004  0.4700014E+03  0.7818608E-02  0.1021920E+00
         -2   -1    0    0    0  501 -0.00000000000E+00  0.00000000000E+00  0.29209713568E+03  0.29209713569E+03  0.25500000000E-02 0. -1.
          2   -1    0    0  501    0  0.00000000000E+00 -0.00000000000E+00 -0.18906493521E+03  0.18906493523E+03  0.25500000000E-02 0.  1.
    5000001    1    1    2    0    0 -0.16202125374E+03 -0.66200278564E+02 -0.42662765058E+02  0.22041432591E+03  0.12700000000E+03 0.  0.
   -5000001    1    1    2    0    0  0.16202125374E+03  0.66200278564E+02  0.14569496553E+03  0.26074774500E+03  0.12700000000E+03 0.  0.
<mgrwt>
<rscale>  0 0.47000139E+03</rscale>
<asrwt>0</asrwt>
<pdfrwt beam="1">  1        2 0.27009277E-01 0.47000139E+03</pdfrwt>
<pdfrwt beam="2">  1       -2 0.41728162E-01 0.47000139E+03</pdfrwt>
<totfact> 0.10914895E+03</totfact>
</mgrwt>
</event>
<event>
 4    1  0.1361667E-004  0.3075202E+03  0.7818608E-02  0.1081541E+00
          2   -1    0    0  501    0  0.00000000000E+00  0.00000000000E+00  0.57310042398E+03  0.57310042399E+03  0.25500000000E-02 0.  1.
         -2   -1    0    0    0  501 -0.00000000000E+00 -0.00000000000E+00 -0.41253106568E+02  0.41253106647E+02  0.25500000000E-02 0. -1.
    5000001    1    1    2    0    0 -0.67972910829E+02 -0.20433149206E+02  0.16652916293E+03  0.22113071315E+03  0.12700000000E+03 0.  0.
   -5000001    1    1    2    0    0  0.67972910829E+02  0.20433149206E+02  0.36531815448E+03  0.39322281748E+03  0.12700000000E+03 0.  0.
<mgrwt>
<rscale>  0 0.30752023E+03</rscale>
<asrwt>0</asrwt>
<pdfrwt beam="1">  1        2 0.81871483E-01 0.30752023E+03</pdfrwt>
<pdfrwt beam="2">  1       -2 0.58933014E-02 0.30752023E+03</pdfrwt>
<totfact> 0.88229791E+03</totfact>
</mgrwt>
</event>
<event>
 4    1  0.1361667E-004  0.6598035E+03  0.7818608E-02  0.9788556E-01
         -2   -1    0    0    0  501 -0.00000000000E+00  0.00000000000E+00  0.58541542447E+03  0.58541542447E+03  0.25500000000E-02 0.  1.
          2   -1    0    0  501    0  0.00000000000E+00 -0.00000000000E+00 -0.18591097412E+03  0.18591097413E+03  0.25500000000E-02 0. -1.
    5000001    1    1    2    0    0  0.11388536531E+03  0.18673515102E+03  0.44737097943E+03  0.51391603039E+03  0.12700000000E+03 0.  0.
   -5000001    1    1    2    0    0 -0.11388536531E+03 -0.18673515102E+03 -0.47866529072E+02  0.25741036822E+03  0.12700000000E+03 0.  0.
<mgrwt>
<rscale>  0 0.65980346E+03</rscale>
<asrwt>0</asrwt>
<pdfrwt beam="1">  1        2 0.26558710E-01 0.65980346E+03</pdfrwt>
<pdfrwt beam="2">  1       -2 0.83630775E-01 0.65980346E+03</pdfrwt>
<totfact> 0.25820903E+02</totfact>
</mgrwt>
</event>
<event>
 4    1  0.1361667E-004  0.7296763E+03  0.7818608E-02  0.9667786E-01
         -2   -1    0    0    0  501 -0.00000000000E+00  0.00000000000E+00  0.90905907876E+02  0.90905907912E+02  0.25500000000E-02 0. -1.
          2   -1    0    0  501    0  0.00000000000E+00 -0.00000000000E+00 -0.14642267296E+04  0.14642267296E+04  0.25500000000E-02 0.  1.
    5000001    1    1    2    0    0 -0.48450558810E+01  0.15577776578E+03 -0.13355162406E+04  0.13505638881E+04  0.12700000000E+03 0.  0.
   -5000001    1    1    2    0    0  0.48450558810E+01 -0.15577776578E+03 -0.37804581087E+02  0.20456874940E+03  0.12700000000E+03 0.  0.
<mgrwt>
<rscale>  0 0.72967626E+03</rscale>
<asrwt>0</asrwt>
<pdfrwt beam="1">  1        2 0.20917523E+00 0.72967626E+03</pdfrwt>
<pdfrwt beam="2">  1       -2 0.12986559E-01 0.72967626E+03</pdfrwt>
<totfact> 0.68861518E+02</totfact>
</mgrwt>
</event>
<event>
 4    1  0.1361667E-004  0.3795488E+03  0.7818608E-02  0.1051101E+00
          2   -1    0    0  501    0  0.00000000000E+00  0.00000000000E+00  0.20133507037E+04  0.20133507037E+04  0.25500000000E-02 0.  1.
         -2   -1    0    0    0  501 -0.00000000000E+00 -0.00000000000E+00 -0.17887754333E+02  0.17887754515E+02  0.25500000000E-02 0. -1.
    5000001    1    1    2    0    0 -0.12798638514E+03 -0.56049594654E+02  0.10997306751E+04  0.11158219525E+04  0.12700000000E+03 0.  0.
   -5000001    1    1    2    0    0  0.12798638514E+03  0.56049594654E+02  0.89573227426E+03  0.91541650575E+03  0.12700000000E+03 0.  0.
<mgrwt>
<rscale>  0 0.37954880E+03</rscale>
<asrwt>0</asrwt>
<pdfrwt beam="1">  1        2 0.28762119E+00 0.37954880E+03</pdfrwt>
<pdfrwt beam="2">  1       -2 0.25553965E-02 0.37954880E+03</pdfrwt>
<totfact> 0.46791561E+03</totfact>
</mgrwt>
</event>
<event>
 4    1  0.1361667E-004  0.4121552E+03  0.7818608E-02  0.1039650E+00
          2   -1    0    0  501    0  0.00000000000E+00  0.00000000000E+00  0.13636420477E+03  0.13636420480E+03  0.25500000000E-02 0.  1.
         -2   -1    0    0    0  501 -0.00000000000E+00 -0.00000000000E+00 -0.31143050827E+03  0.31143050828E+03  0.25500000000E-02 0. -1.
    5000001    1    1    2    0    0 -0.14469942563E+03 -0.39954723849E+02 -0.20517431953E+02  0.19769741715E+03  0.12700000000E+03 0.  0.
   -5000001    1    1    2    0    0  0.14469942563E+03  0.39954723849E+02 -0.15454887154E+03  0.25009729592E+03  0.12700000000E+03 0.  0.
<mgrwt>
<rscale>  0 0.41215518E+03</rscale>
<asrwt>0</asrwt>
<pdfrwt beam="1">  1        2 0.19480601E-01 0.41215518E+03</pdfrwt>
<pdfrwt beam="2">  1       -2 0.44490072E-01 0.41215518E+03</pdfrwt>
<totfact> 0.13982157E+03</totfact>
</mgrwt>
</event>
<event>
 4    1  0.1361667E-004  0.3822720E+03  0.7818608E-02  0.1050097E+00
         -2   -1    0    0    0  501 -0.00000000000E+00  0.00000000000E+00  0.17972470483E+02  0.17972470664E+02  0.25500000000E-02 0. -1.
          2   -1    0    0  501    0  0.00000000000E+00 -0.00000000000E+00 -0.20327186618E+04  0.20327186618E+04  0.25500000000E-02 0.  1.
    5000001    1    1    2    0    0  0.21689970101E+00  0.14041699207E+03 -0.11479795799E+04  0.11634874707E+04  0.12700000000E+03 0.  0.
   -5000001    1    1    2    0    0 -0.21689970101E+00 -0.14041699207E+03 -0.86676661149E+03  0.88720366179E+03  0.12700000000E+03 0.  0.
<mgrwt>
<rscale>  0 0.38227203E+03</rscale>
<asrwt>0</asrwt>
<pdfrwt beam="1">  1        2 0.29038823E+00 0.38227203E+03</pdfrwt>
<pdfrwt beam="2">  1       -2 0.25674971E-02 0.38227203E+03</pdfrwt>
<totfact> 0.45448761E+03</totfact>
</mgrwt>
</event>
<event>
 4    1  0.1361667E-004  0.4211442E+03  0.7818608E-02  0.1036695E+00
          2   -1    0    0  501    0  0.00000000000E+00  0.00000000000E+00  0.16813426156E+03  0.16813426158E+03  0.25500000000E-02 0.  1.
         -2   -1    0    0    0  501 -0.00000000000E+00 -0.00000000000E+00 -0.26372147046E+03  0.26372147047E+03  0.25500000000E-02 0. -1.
    5000001    1    1    2    0    0 -0.69340560064E+01 -0.16224221425E+03 -0.37954524778E+01  0.20618928846E+03  0.12700000000E+03 0.  0.
   -5000001    1    1    2    0    0  0.69340560064E+01  0.16224221425E+03 -0.91791756416E+02  0.22566644359E+03  0.12700000000E+03 0.  0.
<mgrwt>
<rscale>  0 0.42114423E+03</rscale>
<asrwt>0</asrwt>
<pdfrwt beam="1">  1        2 0.24019180E-01 0.42114423E+03</pdfrwt>
<pdfrwt beam="2">  1       -2 0.37674496E-01 0.42114423E+03</pdfrwt>
<totfact> 0.15166912E+03</totfact>
</mgrwt>
</event>
<event>
 4    1  0.1361667E-004  0.5427063E+03  0.7818608E-02  0.1003196E+00
          2   -1    0    0  501    0  0.00000000000E+00  0.00000000000E+00  0.16351939226E+03  0.16351939228E+03  0.25500000000E-02 0.  1.
         -2   -1    0    0    0  501 -0.00000000000E+00 -0.00000000000E+00 -0.45029843433E+03  0.45029843434E+03  0.25500000000E-02 0. -1.
    5000001    1    1    2    0    0 -0.21608846981E+03 -0.10379658058E+03 -0.13664404026E+03  0.30375738783E+03  0.12700000000E+03 0.  0.
   -5000001    1    1    2    0    0  0.21608846981E+03  0.10379658058E+03 -0.15013500182E+03  0.31006043878E+03  0.12700000000E+03 0.  0.
<mgrwt>
<rscale>  0 0.54270628E+03</rscale>
<asrwt>0</asrwt>
<pdfrwt beam="1">  1        2 0.23359913E-01 0.54270628E+03</pdfrwt>
<pdfrwt beam="2">  1       -2 0.64328347E-01 0.54270628E+03</pdfrwt>
<totfact> 0.53337580E+02</totfact>
</mgrwt>
</event>
<event>
 4    1  0.1361667E-004  0.1280650E+04  0.7818608E-02  0.9045052E-01
          2   -1    0    0  501    0  0.00000000000E+00  0.00000000000E+00  0.18640602778E+03  0.18640602780E+03  0.25500000000E-02 0.  1.
         -2   -1    0    0    0  501 -0.00000000000E+00 -0.00000000000E+00 -0.21995855022E+04  0.21995855023E+04  0.25500000000E-02 0. -1.
    5000001    1    1    2    0    0  0.47559794762E+02 -0.35157936621E+03 -0.19711284914E+04  0.20068249835E+04  0.12700000000E+03 0.  0.
   -5000001    1    1    2    0    0 -0.47559794762E+02  0.35157936621E+03 -0.42050983046E+02  0.37916654652E+03  0.12700000000E+03 0.  0.
<mgrwt>
<rscale>  0 0.12806498E+04</rscale>
<asrwt>0</asrwt>
<pdfrwt beam="1">  1        2 0.26629434E-01 0.12806498E+04</pdfrwt>
<pdfrwt beam="2">  1       -2 0.31422649E+00 0.12806498E+04</pdfrwt>
<totfact> 0.52549119E+00</totfact>
</mgrwt>
</event>
<event>
 4    1  0.1361667E-004  0.3626096E+03  0.7818608E-02  0.1057555E+00
         -2   -1    0    0    0  501 -0.00000000000E+00  0.00000000000E+00  0.94645146086E+01  0.94645149522E+01  0.25500000000E-02 0. -1.
          2   -1    0    0  501    0  0.00000000000E+00 -0.00000000000E+00 -0.34731245931E+04  0.34731245931E+04  0.25500000000E-02 0.  1.
    5000001    1    1    2    0    0 -0.11151964186E+03  0.65615546091E+02 -0.17256905363E+04  0.17351884213E+04  0.12700000000E+03 0.  0.
   -5000001    1    1    2    0    0  0.11151964186E+03 -0.65615546091E+02 -0.17379695423E+04  0.17474006868E+04  0.12700000000E+03 0.  0.
<mgrwt>
<rscale>  0 0.36260965E+03</rscale>
<asrwt>0</asrwt>
<pdfrwt beam="1">  1        2 0.49615984E+00 0.36260965E+03</pdfrwt>
<pdfrwt beam="2">  1       -2 0.13520758E-02 0.36260965E+03</pdfrwt>
<totfact> 0.20674168E+03</totfact>
</mgrwt>
</event>
<event>
 4    1  0.1361667E-004  0.3378072E+03  0.7818608E-02  0.1067734E+00
         -2   -1    0    0    0  501 -0.00000000000E+00  0.00000000000E+00  0.68613341720E+01  0.68613346459E+01  0.25500000000E-02 0. -1.
          2   -1    0    0  501    0  0.00000000000E+00 -0.00000000000E+00 -0.41578536494E+04  0.41578536494E+04  0.25500000000E-02 0.  1.
    5000001    1    1    2    0    0 -0.50199108449E+02  0.97930381618E+02 -0.18658672867E+04  0.18734193448E+04  0.12700000000E+03 0.  0.
   -5000001    1    1    2    0    0  0.50199108449E+02 -0.97930381618E+02 -0.22851250286E+04  0.22912956392E+04  0.12700000000E+03 0.  0.
<mgrwt>
<rscale>  0 0.33780719E+03</rscale>
<asrwt>0</asrwt>
<pdfrwt beam="1">  1        2 0.59397748E+00 0.33780719E+03</pdfrwt>
<pdfrwt beam="2">  1       -2 0.98019329E-03 0.33780719E+03</pdfrwt>
<totfact> 0.12330501E+03</totfact>
</mgrwt>
</event>
<event>
 4    1  0.1361667E-004  0.5325959E+03  0.7818608E-02  0.1005605E+00
          2   -1    0    0  501    0  0.00000000000E+00  0.00000000000E+00  0.38527812082E+03  0.38527812083E+03  0.25500000000E-02 0.  1.
         -2   -1    0    0    0  501 -0.00000000000E+00 -0.00000000000E+00 -0.18406080544E+03  0.18406080546E+03  0.25500000000E-02 0. -1.
    5000001    1    1    2    0    0  0.13445846056E+03  0.20820584303E+01 -0.10418619240E+03  0.21229030894E+03  0.12700000000E+03 0.  0.
   -5000001    1    1    2    0    0 -0.13445846056E+03 -0.20820584303E+01  0.30540350778E+03  0.35704861734E+03  0.12700000000E+03 0.  0.
<mgrwt>
<rscale>  0 0.53259591E+03</rscale>
<asrwt>0</asrwt>
<pdfrwt beam="1">  1        2 0.55039732E-01 0.53259591E+03</pdfrwt>
<pdfrwt beam="2">  1       -2 0.26294401E-01 0.53259591E+03</pdfrwt>
<totfact> 0.11793379E+03</totfact>
</mgrwt>
</event>
<event>
 4    1  0.1361667E-004  0.5647747E+03  0.7818608E-02  0.9981308E-01
          2   -1    0    0  501    0  0.00000000000E+00  0.00000000000E+00  0.13326852124E+04  0.13326852124E+04  0.25500000000E-02 0.  1.
         -2   -1    0    0    0  501 -0.00000000000E+00 -0.00000000000E+00 -0.59836057145E+02  0.59836057200E+02  0.25500000000E-02 0. -1.
    5000001    1    1    2    0    0  0.24938544814E+03  0.35608076168E+02  0.60596723074E+03  0.66842076685E+03  0.12700000000E+03 0.  0.
   -5000001    1    1    2    0    0 -0.24938544814E+03 -0.35608076168E+02  0.66688192448E+03  0.72410050271E+03  0.12700000000E+03 0.  0.
<mgrwt>
<rscale>  0 0.56477475E+03</rscale>
<asrwt>0</asrwt>
<pdfrwt beam="1">  1        2 0.19038361E+00 0.56477475E+03</pdfrwt>
<pdfrwt beam="2">  1       -2 0.85480079E-02 0.56477475E+03</pdfrwt>
<totfact> 0.16103043E+03</totfact>
</mgrwt>
</event>
<event>
 4    1  0.1361667E-004  0.5245848E+03  0.7818608E-02  0.1007554E+00
         -2   -1    0    0    0  501 -0.00000000000E+00  0.00000000000E+00  0.55598641711E+02  0.55598641769E+02  0.25500000000E-02 0. -1.
          2   -1    0    0  501    0  0.00000000000E+00 -0.00000000000E+00 -0.12373917101E+04  0.12373917101E+04  0.25500000000E-02 0.  1.
    5000001    1    1    2    0    0  0.31703408309E+02 -0.13551985537E+03 -0.14113137641E+03  0.23540986111E+03  0.12700000000E+03 0.  0.
   -5000001    1    1    2    0    0 -0.31703408309E+02  0.13551985537E+03 -0.10406616919E+04  0.10575804907E+04  0.12700000000E+03 0.  0.
<mgrwt>
<rscale>  0 0.52458478E+03</rscale>
<asrwt>0</asrwt>
<pdfrwt beam="1">  1        2 0.17677023E+00 0.52458478E+03</pdfrwt>
<pdfrwt beam="2">  1       -2 0.79426639E-02 0.52458478E+03</pdfrwt>
<totfact> 0.20415807E+03</totfact>
</mgrwt>
</event>
<event>
 4    1  0.1361667E-004  0.6076131E+03  0.7818608E-02  0.9889736E-01
          2   -1    0    0  501    0  0.00000000000E+00  0.00000000000E+00  0.43717692694E+04  0.43717692694E+04  0.25500000000E-02 0.  1.
         -2   -1    0    0    0  501 -0.00000000000E+00 -0.00000000000E+00 -0.21112375050E+02  0.21112375204E+02  0.25500000000E-02 0. -1.
    5000001    1    1    2    0    0 -0.25303024254E+03 -0.10870068772E+03  0.23065216625E+04  0.23263729973E+04  0.12700000000E+03 0.  0.
   -5000001    1    1    2    0    0  0.25303024254E+03  0.10870068772E+03  0.20441352319E+04  0.20665086473E+04  0.12700000000E+03 0.  0.
<mgrwt>
<rscale>  0 0.60761314E+03</rscale>
<asrwt>0</asrwt>
<pdfrwt beam="1">  1        2 0.62453808E+00 0.60761314E+03</pdfrwt>
<pdfrwt beam="2">  1       -2 0.30160554E-02 0.60761314E+03</pdfrwt>
<totfact> 0.15539777E+02</totfact>
</mgrwt>
</event>
<event>
 4    1  0.1361667E-004  0.3055993E+03  0.7818608E-02  0.1082475E+00
         -2   -1    0    0    0  501 -0.00000000000E+00  0.00000000000E+00  0.50200245802E+02  0.50200245867E+02  0.25500000000E-02 0. -1.
          2   -1    0    0  501    0  0.00000000000E+00 -0.00000000000E+00 -0.46509194513E+03  0.46509194513E+03  0.25500000000E-02 0.  1.
    5000001    1    1    2    0    0 -0.38667623877E+02 -0.10715082748E+02 -0.81166140537E+02  0.15597096045E+03  0.12700000000E+03 0.  0.
   -5000001    1    1    2    0    0  0.38667623877E+02  0.10715082748E+02 -0.33372555879E+03  0.35932123055E+03  0.12700000000E+03 0.  0.
<mgrwt>
<rscale>  0 0.30559928E+03</rscale>
<asrwt>0</asrwt>
<pdfrwt beam="1">  1        2 0.66441704E-01 0.30559928E+03</pdfrwt>
<pdfrwt beam="2">  1       -2 0.71714639E-02 0.30559928E+03</pdfrwt>
<totfact> 0.82222485E+03</totfact>
</mgrwt>
</event>
<event>
 4    1  0.1361667E-004  0.3762255E+03  0.7818608E-02  0.1052338E+00
          2   -1    0    0  501    0  0.00000000000E+00  0.00000000000E+00  0.81732587223E+02  0.81732587262E+02  0.25500000000E-02 0.  1.
         -2   -1    0    0    0  501 -0.00000000000E+00 -0.00000000000E+00 -0.43295356033E+03  0.43295356033E+03  0.25500000000E-02 0. -1.
    5000001    1    1    2    0    0  0.87533756112E+02 -0.78605667470E+02 -0.27629200973E+03  0.32604797816E+03  0.12700000000E+03 0.  0.
   -5000001    1    1    2    0    0 -0.87533756112E+02  0.78605667470E+02 -0.74928963369E+02  0.18863816944E+03  0.12700000000E+03 0.  0.
<mgrwt>
<rscale>  0 0.37622554E+03</rscale>
<asrwt>0</asrwt>
<pdfrwt beam="1">  1        2 0.11676084E-01 0.37622554E+03</pdfrwt>
<pdfrwt beam="2">  1       -2 0.61850508E-01 0.37622554E+03</pdfrwt>
<totfact> 0.13208514E+03</totfact>
</mgrwt>
</event>
<event>
 4    1  0.1361667E-004  0.3010195E+03  0.7818608E-02  0.1084732E+00
          2   -1    0    0  501    0  0.00000000000E+00  0.00000000000E+00  0.45424554178E+02  0.45424554249E+02  0.25500000000E-02 0.  1.
         -2   -1    0    0    0  501 -0.00000000000E+00 -0.00000000000E+00 -0.49869907370E+03  0.49869907370E+03  0.25500000000E-02 0. -1.
    5000001    1    1    2    0    0 -0.69819459644E+02  0.16787462993E+02 -0.29348452881E+03  0.32774798933E+03  0.12700000000E+03 0.  0.
   -5000001    1    1    2    0    0  0.69819459644E+02 -0.16787462993E+02 -0.15978999071E+03  0.21637563862E+03  0.12700000000E+03 0.  0.
<mgrwt>
<rscale>  0 0.30101949E+03</rscale>
<asrwt>0</asrwt>
<pdfrwt beam="1">  1        2 0.64892223E-02 0.30101949E+03</pdfrwt>
<pdfrwt beam="2">  1       -2 0.71242722E-01 0.30101949E+03</pdfrwt>
<totfact> 0.20504201E+03</totfact>
</mgrwt>
</event>
<event>
 4    1  0.1361667E-004  0.9629658E+03  0.7818608E-02  0.9350123E-01
         -2   -1    0    0    0  501 -0.00000000000E+00  0.00000000000E+00  0.36554616113E+03  0.36554616114E+03  0.25500000000E-02 0. -1.
          2   -1    0    0  501    0  0.00000000000E+00 -0.00000000000E+00 -0.63419015806E+03  0.63419015807E+03  0.25500000000E-02 0.  1.
    5000001    1    1    2    0    0  0.49788869407E+02  0.35945239250E+03 -0.43523767796E+03  0.58072867185E+03  0.12700000000E+03 0.  0.
   -5000001    1    1    2    0    0 -0.49788869407E+02 -0.35945239250E+03  0.16659368103E+03  0.41900764736E+03  0.12700000000E+03 0.  0.
<mgrwt>
<rscale>  0 0.96296579E+03</rscale>
<asrwt>0</asrwt>
<pdfrwt beam="1">  1        2 0.90598594E-01 0.96296579E+03</pdfrwt>
<pdfrwt beam="2">  1       -2 0.52220880E-01 0.96296579E+03</pdfrwt>
<totfact> 0.17579369E+02</totfact>
</mgrwt>
</event>
<event>
 4    1  0.1361667E-004  0.3238938E+03  0.7818608E-02  0.1073871E+00
          2   -1    0    0  501    0  0.00000000000E+00  0.00000000000E+00  0.48605285279E+03  0.48605285280E+03  0.25500000000E-02 0.  1.
         -2   -1    0    0    0  501 -0.00000000000E+00 -0.00000000000E+00 -0.53958745867E+02  0.53958745927E+02  0.25500000000E-02 0. -1.
    5000001    1    1    2    0    0  0.88606067602E+02 -0.44264089910E+02  0.18777956336E+03  0.24738736687E+03  0.12700000000E+03 0.  0.
   -5000001    1    1    2    0    0 -0.88606067602E+02  0.44264089910E+02  0.24431454356E+03  0.29262423185E+03  0.12700000000E+03 0.  0.
<mgrwt>
<rscale>  0 0.32389382E+03</rscale>
<asrwt>0</asrwt>
<pdfrwt beam="1">  1        2 0.69436123E-01 0.32389382E+03</pdfrwt>
<pdfrwt beam="2">  1       -2 0.77083922E-02 0.32389382E+03</pdfrwt>
<totfact> 0.70108938E+03</totfact>
</mgrwt>
</event>
<event>
 4    1  0.1361667E-004  0.3302823E+03  0.7818608E-02  0.1071012E+00
          2   -1    0    0  501    0  0.00000000000E+00  0.00000000000E+00  0.15750828296E+04  0.15750828296E+04  0.25500000000E-02 0.  1.
         -2   -1    0    0    0  501 -0.00000000000E+00 -0.00000000000E+00 -0.17314387185E+02  0.17314387372E+02  0.25500000000E-02 0. -1.
    5000001    1    1    2    0    0 -0.73544694229E+02 -0.50585944906E+02  0.10505448362E+04  0.10619516057E+04  0.12700000000E+03 0.  0.
   -5000001    1    1    2    0    0  0.73544694229E+02  0.50585944906E+02  0.50722360616E+03  0.53044561127E+03  0.12700000000E+03 0.  0.
<mgrwt>
<rscale>  0 0.33028227E+03</rscale>
<asrwt>0</asrwt>
<pdfrwt beam="1">  1        2 0.22501173E+00 0.33028227E+03</pdfrwt>
<pdfrwt beam="2">  1       -2 0.24734850E-02 0.33028227E+03</pdfrwt>
<totfact> 0.80993510E+03</totfact>
</mgrwt>
</event>
<event>
 4    1  0.1361667E-004  0.3284771E+03  0.7818608E-02  0.1071813E+00
         -2   -1    0    0    0  501 -0.00000000000E+00  0.00000000000E+00  0.46251784725E+02  0.46251784796E+02  0.25500000000E-02 0. -1.
          2   -1    0    0  501    0  0.00000000000E+00 -0.00000000000E+00 -0.58320555291E+03  0.58320555292E+03  0.25500000000E-02 0.  1.
    5000001    1    1    2    0    0 -0.80913482493E+02  0.33912687905E+02 -0.16095549946E+03  0.22300837396E+03  0.12700000000E+03 0.  0.
   -5000001    1    1    2    0    0  0.80913482493E+02 -0.33912687905E+02 -0.37599826873E+03  0.40644896375E+03  0.12700000000E+03 0.  0.
<mgrwt>
<rscale>  0 0.32847708E+03</rscale>
<asrwt>0</asrwt>
<pdfrwt beam="1">  1        2 0.83315075E-01 0.32847708E+03</pdfrwt>
<pdfrwt beam="2">  1       -2 0.66073982E-02 0.32847708E+03</pdfrwt>
<totfact> 0.72645208E+03</totfact>
</mgrwt>
</event>
<event>
 4    1  0.1361667E-004  0.5242509E+03  0.7818608E-02  0.1007636E+00
         -2   -1    0    0    0  501 -0.00000000000E+00  0.00000000000E+00  0.23700214768E+02  0.23700214906E+02  0.25500000000E-02 0. -1.
          2   -1    0    0  501    0  0.00000000000E+00 -0.00000000000E+00 -0.28991196931E+04  0.28991196931E+04  0.25500000000E-02 0.  1.
    5000001    1    1    2    0    0 -0.15784271122E+03 -0.16462754279E+03 -0.15701388084E+04  0.15916913731E+04  0.12700000000E+03 0.  0.
   -5000001    1    1    2    0    0  0.15784271122E+03  0.16462754279E+03 -0.13052806699E+04  0.13311285349E+04  0.12700000000E+03 0.  0.
<mgrwt>
<rscale>  0 0.52425093E+03</rscale>
<asrwt>0</asrwt>
<pdfrwt beam="1">  1        2 0.41415973E+00 0.52425093E+03</pdfrwt>
<pdfrwt beam="2">  1       -2 0.33857468E-02 0.52425093E+03</pdfrwt>
<totfact> 0.10757042E+03</totfact>
</mgrwt>
</event>
<event>
 4    1  0.1361667E-004  0.3727681E+03  0.7818608E-02  0.1053640E+00
          2   -1    0    0  501    0  0.00000000000E+00  0.00000000000E+00  0.23694925298E+04  0.23694925298E+04  0.25500000000E-02 0.  1.
         -2   -1    0    0    0  501 -0.00000000000E+00 -0.00000000000E+00 -0.14660952824E+02  0.14660953046E+02  0.25500000000E-02 0. -1.
    5000001    1    1    2    0    0 -0.28446773759E+02 -0.10867873047E+03  0.16724089250E+04  0.16809821230E+04  0.12700000000E+03 0.  0.
   -5000001    1    1    2    0    0  0.28446773759E+02  0.10867873047E+03  0.68242265196E+03  0.70317135984E+03  0.12700000000E+03 0.  0.
<mgrwt>
<rscale>  0 0.37276812E+03</rscale>
<asrwt>0</asrwt>
<pdfrwt beam="1">  1        2 0.33849920E+00 0.37276812E+03</pdfrwt>
<pdfrwt beam="2">  1       -2 0.20944202E-02 0.37276812E+03</pdfrwt>
<totfact> 0.41925370E+03</totfact>
</mgrwt>
</event>
<event>
 4    1  0.1361667E-004  0.3943158E+03  0.7818608E-02  0.1045766E+00
         -2   -1    0    0    0  501 -0.00000000000E+00  0.00000000000E+00  0.14486666197E+03  0.14486666200E+03  0.25500000000E-02 0. -1.
          2   -1    0    0  501    0  0.00000000000E+00 -0.00000000000E+00 -0.26832424790E+03  0.26832424791E+03  0.25500000000E-02 0.  1.
    5000001    1    1    2    0    0  0.39430747066E+02 -0.14534994890E+03 -0.69902611195E+02  0.20903771552E+03  0.12700000000E+03 0.  0.
   -5000001    1    1    2    0    0 -0.39430747066E+02  0.14534994890E+03 -0.53554974729E+02  0.20415319438E+03  0.12700000000E+03 0.  0.
<mgrwt>
<rscale>  0 0.39431580E+03</rscale>
<asrwt>0</asrwt>
<pdfrwt beam="1">  1        2 0.38332035E-01 0.39431580E+03</pdfrwt>
<pdfrwt beam="2">  1       -2 0.20695238E-01 0.39431580E+03</pdfrwt>
<totfact> 0.26709049E+03</totfact>
</mgrwt>
</event>
<event>
 4    1  0.1361667E-004  0.2865877E+03  0.7818608E-02  0.1092144E+00
          2   -1    0    0  501    0  0.00000000000E+00  0.00000000000E+00  0.72453628906E+01  0.72453633394E+01  0.25500000000E-02 0.  1.
         -2   -1    0    0    0  501 -0.00000000000E+00 -0.00000000000E+00 -0.28339690051E+04  0.28339690051E+04  0.25500000000E-02 0. -1.
    5000001    1    1    2    0    0  0.53915880560E+02  0.92824236227E+01 -0.17857684634E+04  0.17911144828E+04  0.12700000000E+03 0.  0.
   -5000001    1    1    2    0    0 -0.53915880560E+02 -0.92824236227E+01 -0.10409551788E+04  0.10500998856E+04  0.12700000000E+03 0.  0.
<mgrwt>
<rscale>  0 0.28658775E+03</rscale>
<asrwt>0</asrwt>
<pdfrwt beam="1">  1        2 0.10350537E-02 0.28658775E+03</pdfrwt>
<pdfrwt beam="2">  1       -2 0.40485201E+00 0.28658775E+03</pdfrwt>
<totfact> 0.11542720E+02</totfact>
</mgrwt>
</event>
<event>
 4    1  0.1361667E-004  0.3126055E+03  0.7818608E-02  0.1079104E+00
          2   -1    0    0  501    0  0.00000000000E+00  0.00000000000E+00  0.27338636260E+04  0.27338636260E+04  0.25500000000E-02 0.  1.
         -2   -1    0    0    0  501 -0.00000000000E+00 -0.00000000000E+00 -0.89362715725E+01  0.89362719363E+01  0.25500000000E-02 0. -1.
    5000001    1    1    2    0    0 -0.88840408198E+02  0.63619587441E+01  0.11940450450E+04  0.12040787607E+04  0.12700000000E+03 0.  0.
   -5000001    1    1    2    0    0  0.88840408198E+02 -0.63619587441E+01  0.15308823094E+04  0.15387211371E+04  0.12700000000E+03 0.  0.
<mgrwt>
<rscale>  0 0.31260549E+03</rscale>
<asrwt>0</asrwt>
<pdfrwt beam="1">  1        2 0.39055226E+00 0.31260549E+03</pdfrwt>
<pdfrwt beam="2">  1       -2 0.12766092E-02 0.31260549E+03</pdfrwt>
<totfact> 0.57011833E+03</totfact>
</mgrwt>
</event>
<event>
 4    1  0.1361667E-004  0.3439913E+03  0.7818608E-02  0.1065109E+00
          2   -1    0    0  501    0  0.00000000000E+00  0.00000000000E+00  0.86660404457E+03  0.86660404457E+03  0.25500000000E-02 0.  1.
         -2   -1    0    0    0  501 -0.00000000000E+00 -0.00000000000E+00 -0.34136127734E+02  0.34136127830E+02  0.25500000000E-02 0. -1.
    5000001    1    1    2    0    0  0.64329806236E+02  0.86810286684E+02  0.30578563281E+03  0.34829327165E+03  0.12700000000E+03 0.  0.
   -5000001    1    1    2    0    0 -0.64329806236E+02 -0.86810286684E+02  0.52668228403E+03  0.55244690075E+03  0.12700000000E+03 0.  0.
<mgrwt>
<rscale>  0 0.34399132E+03</rscale>
<asrwt>0</asrwt>
<pdfrwt beam="1">  1        2 0.12380058E+00 0.34399132E+03</pdfrwt>
<pdfrwt beam="2">  1       -2 0.48765898E-02 0.34399132E+03</pdfrwt>
<totfact> 0.71970486E+03</totfact>
</mgrwt>
</event>
<event>
 4    1  0.1361667E-004  0.4907425E+03  0.7818608E-02  0.1016224E+00
          2   -1    0    0  501    0  0.00000000000E+00  0.00000000000E+00  0.23687285299E+03  0.23687285300E+03  0.25500000000E-02 0.  1.
         -2   -1    0    0    0  501 -0.00000000000E+00 -0.00000000000E+00 -0.25417459939E+03  0.25417459940E+03  0.25500000000E-02 0. -1.
    5000001    1    1    2    0    0  0.14597760366E+03 -0.13240242228E+03 -0.81071253110E+02  0.24807541248E+03  0.12700000000E+03 0.  0.
   -5000001    1    1    2    0    0 -0.14597760366E+03  0.13240242228E+03  0.63769506709E+02  0.24297203992E+03  0.12700000000E+03 0.  0.
<mgrwt>
<rscale>  0 0.49074255E+03</rscale>
<asrwt>0</asrwt>
<pdfrwt beam="1">  1        2 0.33838979E-01 0.49074255E+03</pdfrwt>
<pdfrwt beam="2">  1       -2 0.36310657E-01 0.49074255E+03</pdfrwt>
<totfact> 0.11089417E+03</totfact>
</mgrwt>
</event>
<event>
 4    1  0.1361667E-004  0.2717187E+03  0.7818608E-02  0.1100300E+00
          2   -1    0    0  501    0  0.00000000000E+00  0.00000000000E+00  0.14191670045E+03  0.14191670048E+03  0.25500000000E-02 0.  1.
         -2   -1    0    0    0  501 -0.00000000000E+00 -0.00000000000E+00 -0.13006054714E+03  0.13006054716E+03  0.25500000000E-02 0. -1.
    5000001    1    1    2    0    0 -0.20563398324E+01  0.48213020109E+02  0.57282014164E+01  0.13597991077E+03  0.12700000000E+03 0.  0.
   -5000001    1    1    2    0    0  0.20563398324E+01 -0.48213020109E+02  0.61279519000E+01  0.13599733687E+03  0.12700000000E+03 0.  0.
<mgrwt>
<rscale>  0 0.27171871E+03</rscale>
<asrwt>0</asrwt>
<pdfrwt beam="1">  1        2 0.20273814E-01 0.27171871E+03</pdfrwt>
<pdfrwt beam="2">  1       -2 0.18580078E-01 0.27171871E+03</pdfrwt>
<totfact> 0.64637616E+03</totfact>
</mgrwt>
</event>
<event>
 4    1  0.1361667E-004  0.3180733E+03  0.7818608E-02  0.1076539E+00
          2   -1    0    0  501    0  0.00000000000E+00  0.00000000000E+00  0.19682498781E+04  0.19682498781E+04  0.25500000000E-02 0.  1.
         -2   -1    0    0    0  501 -0.00000000000E+00 -0.00000000000E+00 -0.12850328484E+02  0.12850328737E+02  0.25500000000E-02 0. -1.
    5000001    1    1    2    0    0  0.83687047004E+02 -0.45683076486E+02  0.10309856665E+04  0.10431447215E+04  0.12700000000E+03 0.  0.
   -5000001    1    1    2    0    0 -0.83687047004E+02  0.45683076486E+02  0.92441388305E+03  0.93795548534E+03  0.12700000000E+03 0.  0.
<mgrwt>
<rscale>  0 0.31807331E+03</rscale>
<asrwt>0</asrwt>
<pdfrwt beam="1">  1        2 0.28117875E+00 0.31807331E+03</pdfrwt>
<pdfrwt beam="2">  1       -2 0.18357600E-02 0.31807331E+03</pdfrwt>
<totfact> 0.80436981E+03</totfact>
</mgrwt>
</event>
<event>
 4    1  0.1361667E-004  0.5676760E+03  0.7818608E-02  0.9974834E-01
          2   -1    0    0  501    0  0.00000000000E+00  0.00000000000E+00  0.18024220273E+04  0.18024220273E+04  0.25500000000E-02 0.  1.
         -2   -1    0    0    0  501 -0.00000000000E+00 -0.00000000000E+00 -0.44697641914E+02  0.44697641986E+02  0.25500000000E-02 0. -1.
    5000001    1    1    2    0    0 -0.31360660945E+02 -0.22111155670E+03  0.12715009027E+04  0.12971959594E+04  0.12700000000E+03 0.  0.
   -5000001    1    1    2    0    0  0.31360660945E+02  0.22111155670E+03  0.48622348268E+03  0.54992370987E+03  0.12700000000E+03 0.  0.
<mgrwt>
<rscale>  0 0.56767601E+03</rscale>
<asrwt>0</asrwt>
<pdfrwt beam="1">  1        2 0.25748886E+00 0.56767601E+03</pdfrwt>
<pdfrwt beam="2">  1       -2 0.63853774E-02 0.56767601E+03</pdfrwt>
<totfact> 0.14610385E+03</totfact>
</mgrwt>
</event>
<event>
 4    1  0.1361667E-004  0.5712096E+03  0.7818608E-02  0.9967006E-01
         -2   -1    0    0    0  501 -0.00000000000E+00  0.00000000000E+00  0.64411439074E+02  0.64411439125E+02  0.25500000000E-02 0. -1.
          2   -1    0    0  501    0  0.00000000000E+00 -0.00000000000E+00 -0.12663913920E+04  0.12663913921E+04  0.25500000000E-02 0.  1.
    5000001    1    1    2    0    0  0.20455358567E+03 -0.12411163948E+03 -0.81190069300E+03  0.85589579025E+03  0.12700000000E+03 0.  0.
   -5000001    1    1    2    0    0 -0.20455358567E+03  0.12411163948E+03 -0.39007925997E+03  0.47490704093E+03  0.12700000000E+03 0.  0.
<mgrwt>
<rscale>  0 0.57120957E+03</rscale>
<asrwt>0</asrwt>
<pdfrwt beam="1">  1        2 0.18091304E+00 0.57120957E+03</pdfrwt>
<pdfrwt beam="2">  1       -2 0.92016349E-02 0.57120957E+03</pdfrwt>
<totfact> 0.15542048E+03</totfact>
</mgrwt>
</event>
<event>
 4    1  0.1361667E-004  0.3370664E+03  0.7818608E-02  0.1068052E+00
          2   -1    0    0  501    0  0.00000000000E+00  0.00000000000E+00  0.23250073328E+04  0.23250073328E+04  0.25500000000E-02 0.  1.
         -2   -1    0    0    0  501 -0.00000000000E+00 -0.00000000000E+00 -0.12216497135E+02  0.12216497401E+02  0.25500000000E-02 0. -1.
    5000001    1    1    2    0    0  0.88135701071E+02  0.27304311007E+02  0.15816387689E+04  0.15894098347E+04  0.12700000000E+03 0.  0.
   -5000001    1    1    2    0    0 -0.88135701071E+02 -0.27304311007E+02  0.73115206668E+03  0.74781399547E+03  0.12700000000E+03 0.  0.
<mgrwt>
<rscale>  0 0.33706644E+03</rscale>
<asrwt>0</asrwt>
<pdfrwt beam="1">  1        2 0.33214411E+00 0.33706644E+03</pdfrwt>
<pdfrwt beam="2">  1       -2 0.17452128E-02 0.33706644E+03</pdfrwt>
<totfact> 0.57845378E+03</totfact>
</mgrwt>
</event>
<event>
 4    1  0.1361667E-004  0.3458507E+03  0.7818608E-02  0.1064331E+00
          2   -1    0    0  501    0  0.00000000000E+00  0.00000000000E+00  0.88888031175E+03  0.88888031175E+03  0.25500000000E-02 0.  1.
         -2   -1    0    0    0  501 -0.00000000000E+00 -0.00000000000E+00 -0.33641392095E+02  0.33641392192E+02  0.25500000000E-02 0. -1.
    5000001    1    1    2    0    0  0.11217998824E+03 -0.27343288591E+02  0.37153008226E+03  0.40926227192E+03  0.12700000000E+03 0.  0.
   -5000001    1    1    2    0    0 -0.11217998824E+03  0.27343288591E+02  0.48370883739E+03  0.51325943203E+03  0.12700000000E+03 0.  0.
<mgrwt>
<rscale>  0 0.34585067E+03</rscale>
<asrwt>0</asrwt>
<pdfrwt beam="1">  1        2 0.12698292E+00 0.34585067E+03</pdfrwt>
<pdfrwt beam="2">  1       -2 0.48059126E-02 0.34585067E+03</pdfrwt>
<totfact> 0.71221887E+03</totfact>
</mgrwt>
</event>
<event>
 4    1  0.1361667E-004  0.5038719E+03  0.7818608E-02  0.1012773E+00
         -2   -1    0    0    0  501 -0.00000000000E+00  0.00000000000E+00  0.15283493364E+03  0.15283493366E+03  0.25500000000E-02 0. -1.
          2   -1    0    0  501    0  0.00000000000E+00 -0.00000000000E+00 -0.41529597223E+03  0.41529597224E+03  0.25500000000E-02 0.  1.
    5000001    1    1    2    0    0  0.16286230204E+03  0.14056335393E+03 -0.94511329069E+02  0.26710218497E+03  0.12700000000E+03 0.  0.
   -5000001    1    1    2    0    0 -0.16286230204E+03 -0.14056335393E+03 -0.16794970952E+03  0.30102872093E+03  0.12700000000E+03 0.  0.
<mgrwt>
<rscale>  0 0.50387194E+03</rscale>
<asrwt>0</asrwt>
<pdfrwt beam="1">  1        2 0.59327996E-01 0.50387194E+03</pdfrwt>
<pdfrwt beam="2">  1       -2 0.21833562E-01 0.50387194E+03</pdfrwt>
<totfact> 0.15108212E+03</totfact>
</mgrwt>
</event>
<event>
 4    1  0.1361667E-004  0.4778765E+03  0.7818608E-02  0.1019720E+00
         -2   -1    0    0    0  501 -0.00000000000E+00  0.00000000000E+00  0.27023186658E+02  0.27023186779E+02  0.25500000000E-02 0. -1.
          2   -1    0    0  501    0  0.00000000000E+00 -0.00000000000E+00 -0.21126852486E+04  0.21126852487E+04  0.25500000000E-02 0.  1.
    5000001    1    1    2    0    0 -0.15396373090E+03  0.13022718952E+03 -0.96546724125E+03  0.99444454107E+03  0.12700000000E+03 0.  0.
   -5000001    1    1    2    0    0  0.15396373090E+03 -0.13022718952E+03 -0.11201948207E+04  0.11452638944E+04  0.12700000000E+03 0.  0.
<mgrwt>
<rscale>  0 0.47787650E+03</rscale>
<asrwt>0</asrwt>
<pdfrwt beam="1">  1        2 0.30181207E+00 0.47787650E+03</pdfrwt>
<pdfrwt beam="2">  1       -2 0.38604566E-02 0.47787650E+03</pdfrwt>
<totfact> 0.22340821E+03</totfact>
</mgrwt>
</event>
<event>
 4    1  0.1361667E-004  0.4354881E+03  0.7818608E-02  0.1032140E+00
          2   -1    0    0  501    0  0.00000000000E+00  0.00000000000E+00  0.17240684584E+03  0.17240684586E+03  0.25500000000E-02 0.  1.
         -2   -1    0    0    0  501 -0.00000000000E+00 -0.00000000000E+00 -0.27500344858E+03  0.27500344859E+03  0.25500000000E-02 0. -1.
    5000001    1    1    2    0    0  0.14067693511E+03 -0.95635726666E+02 -0.15231539823E+01  0.21229110270E+03  0.12700000000E+03 0.  0.
   -5000001    1    1    2    0    0 -0.14067693511E+03  0.95635726666E+02 -0.10107344876E+03  0.23511919175E+03  0.12700000000E+03 0.  0.
<mgrwt>
<rscale>  0 0.43548813E+03</rscale>
<asrwt>0</asrwt>
<pdfrwt beam="1">  1        2 0.24629550E-01 0.43548813E+03</pdfrwt>
<pdfrwt beam="2">  1       -2 0.39286207E-01 0.43548813E+03</pdfrwt>
<totfact> 0.13608531E+03</totfact>
</mgrwt>
</event>
<event>
 4    1  0.1361667E-004  0.4881901E+03  0.7818608E-02  0.1016908E+00
         -2   -1    0    0    0  501 -0.00000000000E+00  0.00000000000E+00  0.15322852549E+03  0.15322852551E+03  0.25500000000E-02 0. -1.
          2   -1    0    0  501    0  0.00000000000E+00 -0.00000000000E+00 -0.38884654771E+03  0.38884654772E+03  0.25500000000E-02 0.  1.
    5000001    1    1    2    0    0 -0.18957213917E+03  0.55255383545E+02 -0.43632579525E+02  0.23879605390E+03  0.12700000000E+03 0.  0.
   -5000001    1    1    2    0    0  0.18957213917E+03 -0.55255383545E+02 -0.19198544270E+03  0.30327901933E+03  0.12700000000E+03 0.  0.
<mgrwt>
<rscale>  0 0.48819006E+03</rscale>
<asrwt>0</asrwt>
<pdfrwt beam="1">  1        2 0.55549506E-01 0.48819006E+03</pdfrwt>
<pdfrwt beam="2">  1       -2 0.21889790E-01 0.48819006E+03</pdfrwt>
<totfact> 0.16173095E+03</totfact>
</mgrwt>
</event>
<event>
 4    1  0.1361667E-004  0.3203650E+03  0.7818608E-02  0.1075481E+00
         -2   -1    0    0    0  501 -0.00000000000E+00  0.00000000000E+00  0.27026567359E+03  0.27026567360E+03  0.25500000000E-02 0. -1.
          2   -1    0    0  501    0  0.00000000000E+00 -0.00000000000E+00 -0.94937844741E+02  0.94937844775E+02  0.25500000000E-02 0.  1.
    5000001    1    1    2    0    0 -0.77520141054E+02  0.55042830904E+02  0.62420670705E+02  0.17048291889E+03  0.12700000000E+03 0.  0.
   -5000001    1    1    2    0    0  0.77520141054E+02 -0.55042830904E+02  0.11290715814E+03  0.19472059948E+03  0.12700000000E+03 0.  0.
<mgrwt>
<rscale>  0 0.32036505E+03</rscale>
<asrwt>0</asrwt>
<pdfrwt beam="1">  1        2 0.13562549E-01 0.32036505E+03</pdfrwt>
<pdfrwt beam="2">  1       -2 0.38609382E-01 0.32036505E+03</pdfrwt>
<totfact> 0.28118488E+03</totfact>
</mgrwt>
</event>
<event>
 4    1  0.1361667E-004  0.4587086E+03  0.7818608E-02  0.1025156E+00
         -2   -1    0    0    0  501 -0.00000000000E+00  0.00000000000E+00  0.94368518756E+02  0.94368518791E+02  0.25500000000E-02 0. -1.
          2   -1    0    0  501    0  0.00000000000E+00 -0.00000000000E+00 -0.55742529249E+03  0.55742529250E+03  0.25500000000E-02 0.  1.
    5000001    1    1    2    0    0 -0.36378562103E+02  0.18732273535E+03 -0.24264369338E+03  0.33379360224E+03  0.12700000000E+03 0.  0.
   -5000001    1    1    2    0    0  0.36378562103E+02 -0.18732273535E+03 -0.22041308036E+03  0.31800020905E+03  0.12700000000E+03 0.  0.
<mgrwt>
<rscale>  0 0.45870862E+03</rscale>
<asrwt>0</asrwt>
<pdfrwt beam="1">  1        2 0.79632183E-01 0.45870862E+03</pdfrwt>
<pdfrwt beam="2">  1       -2 0.13481217E-01 0.45870862E+03</pdfrwt>
<totfact> 0.24633079E+03</totfact>
</mgrwt>
</event>
<event>
 4    1  0.1361667E-004  0.4705774E+03  0.7818608E-02  0.1021757E+00
          2   -1    0    0  501    0  0.00000000000E+00  0.00000000000E+00  0.38330435544E+04  0.38330435544E+04  0.25500000000E-02 0.  1.
         -2   -1    0    0    0  501 -0.00000000000E+00 -0.00000000000E+00 -0.14443030369E+02  0.14443030594E+02  0.25500000000E-02 0. -1.
    5000001    1    1    2    0    0  0.15106594111E+03  0.90763154608E+02  0.26484527899E+04  0.26573464300E+04  0.12700000000E+03 0.  0.
   -5000001    1    1    2    0    0 -0.15106594111E+03 -0.90763154608E+02  0.11701477342E+04  0.11901401550E+04  0.12700000000E+03 0.  0.
<mgrwt>
<rscale>  0 0.47057737E+03</rscale>
<asrwt>0</asrwt>
<pdfrwt beam="1">  1        2 0.54757883E+00 0.47057737E+03</pdfrwt>
<pdfrwt beam="2">  1       -2 0.20632856E-02 0.47057737E+03</pdfrwt>
<totfact> 0.65851750E+02</totfact>
</mgrwt>
</event>
<event>
 4    1  0.1361667E-004  0.5079091E+03  0.7818608E-02  0.1011735E+00
         -2   -1    0    0    0  501 -0.00000000000E+00  0.00000000000E+00  0.20102222164E+02  0.20102222325E+02  0.25500000000E-02 0. -1.
          2   -1    0    0  501    0  0.00000000000E+00 -0.00000000000E+00 -0.32082477332E+04  0.32082477332E+04  0.25500000000E-02 0.  1.
    5000001    1    1    2    0    0 -0.11956467217E+02 -0.12827081506E+03 -0.46118603085E+03  0.49539672400E+03  0.12700000000E+03 0.  0.
   -5000001    1    1    2    0    0  0.11956467217E+02  0.12827081506E+03 -0.27269594802E+04  0.27329532315E+04  0.12700000000E+03 0.  0.
<mgrwt>
<rscale>  0 0.50790908E+03</rscale>
<asrwt>0</asrwt>
<pdfrwt beam="1">  1        2 0.45832078E+00 0.50790908E+03</pdfrwt>
<pdfrwt beam="2">  1       -2 0.28717481E-02 0.50790908E+03</pdfrwt>
<totfact> 0.93754442E+02</totfact>
</mgrwt>
</event>
<event>
 4    1  0.1361667E-004  0.3331722E+03  0.7818608E-02  0.1069742E+00
         -2   -1    0    0    0  501 -0.00000000000E+00  0.00000000000E+00  0.57002213363E+03  0.57002213364E+03  0.25500000000E-02 0. -1.
          2   -1    0    0  501    0  0.00000000000E+00 -0.00000000000E+00 -0.48683953665E+02  0.48683953732E+02  0.25500000000E-02 0.  1.
    5000001    1    1    2    0    0 -0.10578720684E+03  0.14454340459E+02  0.23299581032E+03  0.28603480333E+03  0.12700000000E+03 0.  0.
   -5000001    1    1    2    0    0  0.10578720684E+03 -0.14454340459E+02  0.28834236965E+03  0.33267128404E+03  0.12700000000E+03 0.  0.
<mgrwt>
<rscale>  0 0.33317221E+03</rscale>
<asrwt>0</asrwt>
<pdfrwt beam="1">  1        2 0.69548512E-02 0.33317221E+03</pdfrwt>
<pdfrwt beam="2">  1       -2 0.81431726E-01 0.33317221E+03</pdfrwt>
<totfact> 0.14020493E+03</totfact>
</mgrwt>
</event>
<event>
 4    1  0.1361667E-004  0.4817041E+03  0.7818608E-02  0.1018668E+00
         -2   -1    0    0    0  501 -0.00000000000E+00  0.00000000000E+00  0.12169301058E+03  0.12169301061E+03  0.25500000000E-02 0. -1.
          2   -1    0    0  501    0  0.00000000000E+00 -0.00000000000E+00 -0.47668901121E+03  0.47668901122E+03  0.25500000000E-02 0.  1.
    5000001    1    1    2    0    0 -0.24367412661E+02  0.20264324691E+03 -0.19603432891E+03  0.31018786957E+03  0.12700000000E+03 0.  0.
   -5000001    1    1    2    0    0  0.24367412661E+02 -0.20264324691E+03 -0.15896167172E+03  0.28819415226E+03  0.12700000000E+03 0.  0.
<mgrwt>
<rscale>  0 0.48170415E+03</rscale>
<asrwt>0</asrwt>
<pdfrwt beam="1">  1        2 0.68098429E-01 0.48170415E+03</pdfrwt>
<pdfrwt beam="2">  1       -2 0.17384716E-01 0.48170415E+03</pdfrwt>
<totfact> 0.19206204E+03</totfact>
</mgrwt>
</event>
<event>
 4    1  0.1361667E-004  0.3809254E+03  0.7818608E-02  0.1050592E+00
          2   -1    0    0  501    0  0.00000000000E+00  0.00000000000E+00  0.43558918992E+03  0.43558918992E+03  0.25500000000E-02 0.  1.
         -2   -1    0    0    0  501 -0.00000000000E+00 -0.00000000000E+00 -0.83280405926E+02  0.83280405965E+02  0.25500000000E-02 0. -1.
    5000001    1    1    2    0    0 -0.56593040205E+02 -0.60051177962E+02  0.18840994395E+02  0.15262011415E+03  0.12700000000E+03 0.  0.
   -5000001    1    1    2    0    0  0.56593040205E+02  0.60051177962E+02  0.33346778960E+03  0.36624948174E+03  0.12700000000E+03 0.  0.
<mgrwt>
<rscale>  0 0.38092542E+03</rscale>
<asrwt>0</asrwt>
<pdfrwt beam="1">  1        2 0.62227026E-01 0.38092542E+03</pdfrwt>
<pdfrwt beam="2">  1       -2 0.11897201E-01 0.38092542E+03</pdfrwt>
<totfact> 0.39777178E+03</totfact>
</mgrwt>
</event>
<event>
 4    1  0.1361667E-004  0.6106673E+03  0.7818608E-02  0.9883519E-01
         -2   -1    0    0    0  501 -0.00000000000E+00  0.00000000000E+00  0.28421772000E+03  0.28421772001E+03  0.25500000000E-02 0. -1.
          2   -1    0    0  501    0  0.00000000000E+00 -0.00000000000E+00 -0.32801836985E+03  0.32801836986E+03  0.25500000000E-02 0.  1.
    5000001    1    1    2    0    0  0.16607814978E+03 -0.14102891761E+03  0.15067126239E+03  0.29377191279E+03  0.12700000000E+03 0.  0.
   -5000001    1    1    2    0    0 -0.16607814978E+03  0.14102891761E+03 -0.19447191223E+03  0.31846417708E+03  0.12700000000E+03 0.  0.
<mgrwt>
<rscale>  0 0.61066728E+03</rscale>
<asrwt>0</asrwt>
<pdfrwt beam="1">  1        2 0.46859767E-01 0.61066728E+03</pdfrwt>
<pdfrwt beam="2">  1       -2 0.40602532E-01 0.61066728E+03</pdfrwt>
<totfact> 0.62392656E+02</totfact>
</mgrwt>
</event>
<event>
 4    1  0.1361667E-004  0.3838644E+03  0.7818608E-02  0.1049515E+00
          2   -1    0    0  501    0  0.00000000000E+00  0.00000000000E+00  0.18865477386E+04  0.18865477386E+04  0.25500000000E-02 0.  1.
         -2   -1    0    0    0  501 -0.00000000000E+00 -0.00000000000E+00 -0.19526657966E+02  0.19526658132E+02  0.25500000000E-02 0. -1.
    5000001    1    1    2    0    0  0.21173420016E+02 -0.14048479974E+03  0.10472494897E+04  0.10644457649E+04  0.12700000000E+03 0.  0.
   -5000001    1    1    2    0    0 -0.21173420016E+02  0.14048479974E+03  0.81977159098E+03  0.84162863191E+03  0.12700000000E+03 0.  0.
<mgrwt>
<rscale>  0 0.38386442E+03</rscale>
<asrwt>0</asrwt>
<pdfrwt beam="1">  1        2 0.26950688E+00 0.38386442E+03</pdfrwt>
<pdfrwt beam="2">  1       -2 0.27895219E-02 0.38386442E+03</pdfrwt>
<totfact> 0.47402335E+03</totfact>
</mgrwt>
</event>
<event>
 4    1  0.1361667E-004  0.5964469E+03  0.7818608E-02  0.9912805E-01
          2   -1    0    0  501    0  0.00000000000E+00  0.00000000000E+00  0.63943126445E+03  0.63943126445E+03  0.25500000000E-02 0.  1.
         -2   -1    0    0    0  501 -0.00000000000E+00 -0.00000000000E+00 -0.13908803206E+03  0.13908803209E+03  0.25500000000E-02 0. -1.
    5000001    1    1    2    0    0  0.13328468776E+03  0.23454836196E+03  0.25737946583E+03  0.39389203028E+03  0.12700000000E+03 0.  0.
   -5000001    1    1    2    0    0 -0.13328468776E+03 -0.23454836196E+03  0.24296376656E+03  0.38462726626E+03  0.12700000000E+03 0.  0.
<mgrwt>
<rscale>  0 0.59644693E+03</rscale>
<asrwt>0</asrwt>
<pdfrwt beam="1">  1        2 0.91347323E-01 0.59644693E+03</pdfrwt>
<pdfrwt beam="2">  1       -2 0.19869719E-01 0.59644693E+03</pdfrwt>
<totfact> 0.10870464E+03</totfact>
</mgrwt>
</event>
<event>
 4    1  0.1361667E-004  0.3008756E+03  0.7818608E-02  0.1084804E+00
         -2   -1    0    0    0  501 -0.00000000000E+00  0.00000000000E+00  0.25506680548E+02  0.25506680676E+02  0.25500000000E-02 0. -1.
          2   -1    0    0  501    0  0.00000000000E+00 -0.00000000000E+00 -0.88727848839E+03  0.88727848839E+03  0.25500000000E-02 0.  1.
    5000001    1    1    2    0    0 -0.79376282843E+02 -0.81318208150E+01 -0.46624040231E+03  0.48977120529E+03  0.12700000000E+03 0.  0.
   -5000001    1    1    2    0    0  0.79376282843E+02  0.81318208150E+01 -0.39553140553E+03  0.42301396377E+03  0.12700000000E+03 0.  0.
<mgrwt>
<rscale>  0 0.30087558E+03</rscale>
<asrwt>0</asrwt>
<pdfrwt beam="1">  1        2 0.12675405E+00 0.30087558E+03</pdfrwt>
<pdfrwt beam="2">  1       -2 0.36438121E-02 0.30087558E+03</pdfrwt>
<totfact> 0.10813025E+04</totfact>
</mgrwt>
</event>
<event>
 4    1  0.1361667E-004  0.4086395E+03  0.7818608E-02  0.1040829E+00
         -2   -1    0    0    0  501 -0.00000000000E+00  0.00000000000E+00  0.11310769012E+03  0.11310769014E+03  0.25500000000E-02 0. -1.
          2   -1    0    0  501    0  0.00000000000E+00 -0.00000000000E+00 -0.36908681730E+03  0.36908681731E+03  0.25500000000E-02 0.  1.
    5000001    1    1    2    0    0  0.99841230551E+02 -0.12509611918E+03 -0.12857603021E+03  0.24140858704E+03  0.12700000000E+03 0.  0.
   -5000001    1    1    2    0    0 -0.99841230551E+02  0.12509611918E+03 -0.12740309698E+03  0.24078592042E+03  0.12700000000E+03 0.  0.
<mgrwt>
<rscale>  0 0.40863949E+03</rscale>
<asrwt>0</asrwt>
<pdfrwt beam="1">  1        2 0.52726687E-01 0.40863949E+03</pdfrwt>
<pdfrwt beam="2">  1       -2 0.16158242E-01 0.40863949E+03</pdfrwt>
<totfact> 0.28792626E+03</totfact>
</mgrwt>
</event>
<event>
 4    1  0.1361667E-004  0.4007097E+03  0.7818608E-02  0.1043534E+00
         -2   -1    0    0    0  501 -0.00000000000E+00  0.00000000000E+00  0.15470413437E+03  0.15470413439E+03  0.25500000000E-02 0. -1.
          2   -1    0    0  501    0  0.00000000000E+00 -0.00000000000E+00 -0.25947641512E+03  0.25947641513E+03  0.25500000000E-02 0.  1.
    5000001    1    1    2    0    0 -0.77419704239E-01  0.11550961048E+03 -0.15915735441E+03  0.23409942240E+03  0.12700000000E+03 0.  0.
   -5000001    1    1    2    0    0  0.77419704239E-01 -0.11550961048E+03  0.54385073667E+02  0.18008112712E+03  0.12700000000E+03 0.  0.
<mgrwt>
<rscale>  0 0.40070974E+03</rscale>
<asrwt>0</asrwt>
<pdfrwt beam="1">  1        2 0.37068059E-01 0.40070974E+03</pdfrwt>
<pdfrwt beam="2">  1       -2 0.22100591E-01 0.40070974E+03</pdfrwt>
<totfact> 0.24720146E+03</totfact>
</mgrwt>
</event>
<event>
 4    1  0.1361667E-004  0.4322330E+03  0.7818608E-02  0.1033157E+00
          2   -1    0    0  501    0  0.00000000000E+00  0.00000000000E+00  0.40534464923E+03  0.40534464924E+03  0.25500000000E-02 0.  1.
         -2   -1    0    0    0  501 -0.00000000000E+00 -0.00000000000E+00 -0.11522623830E+03  0.11522623833E+03  0.25500000000E-02 0. -1.
    5000001    1    1    2    0    0  0.14410845381E+03 -0.74734528496E+02  0.22334216782E+03  0.30391317861E+03  0.12700000000E+03 0.  0.
   -5000001    1    1    2    0    0 -0.14410845381E+03  0.74734528496E+02  0.66776243107E+02  0.21665770896E+03  0.12700000000E+03 0.  0.
<mgrwt>
<rscale>  0 0.43223299E+03</rscale>
<asrwt>0</asrwt>
<pdfrwt beam="1">  1        2 0.57906380E-01 0.43223299E+03</pdfrwt>
<pdfrwt beam="2">  1       -2 0.16460891E-01 0.43223299E+03</pdfrwt>
<totfact> 0.25198274E+03</totfact>
</mgrwt>
</event>
<event>
 4    1  0.1361667E-004  0.2938979E+03  0.7818608E-02  0.1088331E+00
          2   -1    0    0  501    0  0.00000000000E+00  0.00000000000E+00  0.29196973767E+02  0.29196973878E+02  0.25500000000E-02 0.  1.
         -2   -1    0    0    0  501 -0.00000000000E+00 -0.00000000000E+00 -0.73959718887E+03  0.73959718888E+03  0.25500000000E-02 0. -1.
    5000001    1    1    2    0    0  0.61409191410E+02  0.31469124012E+02 -0.42458709923E+03  0.44851376722E+03  0.12700000000E+03 0.  0.
   -5000001    1    1    2    0    0 -0.61409191410E+02 -0.31469124012E+02 -0.28581311588E+03  0.32028039553E+03  0.12700000000E+03 0.  0.
<mgrwt>
<rscale>  0 0.29389794E+03</rscale>
<asrwt>0</asrwt>
<pdfrwt beam="1">  1        2 0.41709967E-02 0.29389794E+03</pdfrwt>
<pdfrwt beam="2">  1       -2 0.10565673E+00 0.29389794E+03</pdfrwt>
<totfact> 0.15127976E+03</totfact>
</mgrwt>
</event>
<event>
 4    1  0.1361667E-004  0.5211786E+03  0.7818608E-02  0.1008394E+00
          2   -1    0    0  501    0  0.00000000000E+00  0.00000000000E+00  0.13764695681E+03  0.13764695683E+03  0.25500000000E-02 0.  1.
         -2   -1    0    0    0  501 -0.00000000000E+00 -0.00000000000E+00 -0.49334028998E+03  0.49334028999E+03  0.25500000000E-02 0. -1.
    5000001    1    1    2    0    0  0.14923823179E+03 -0.15365165725E+03 -0.27081737973E+03  0.36790207225E+03  0.12700000000E+03 0.  0.
   -5000001    1    1    2    0    0 -0.14923823179E+03  0.15365165725E+03 -0.84875953437E+02  0.26308517456E+03  0.12700000000E+03 0.  0.
<mgrwt>
<rscale>  0 0.52117862E+03</rscale>
<asrwt>0</asrwt>
<pdfrwt beam="1">  1        2 0.19663851E-01 0.52117862E+03</pdfrwt>
<pdfrwt beam="2">  1       -2 0.70477183E-01 0.52117862E+03</pdfrwt>
<totfact> 0.53522945E+02</totfact>
</mgrwt>
</event>
<event>
 4    1  0.1361667E-004  0.6043575E+03  0.7818608E-02  0.9896407E-01
         -2   -1    0    0    0  501 -0.00000000000E+00  0.00000000000E+00  0.14051714173E+04  0.14051714173E+04  0.25500000000E-02 0. -1.
          2   -1    0    0  501    0  0.00000000000E+00 -0.00000000000E+00 -0.64982810762E+02  0.64982810812E+02  0.25500000000E-02 0.  1.
    5000001    1    1    2    0    0  0.14158919961E+03  0.10189083053E+03  0.15547781615E+03  0.26595412031E+03  0.12700000000E+03 0.  0.
   -5000001    1    1    2    0    0 -0.14158919961E+03 -0.10189083053E+03  0.11847107904E+04  0.12042001078E+04  0.12700000000E+03 0.  0.
<mgrwt>
<rscale>  0 0.60435747E+03</rscale>
<asrwt>0</asrwt>
<pdfrwt beam="1">  1        2 0.92832591E-02 0.60435747E+03</pdfrwt>
<pdfrwt beam="2">  1       -2 0.20073876E+00 0.60435747E+03</pdfrwt>
<totfact> 0.98592160E+01</totfact>
</mgrwt>
</event>
<event>
 4    1  0.1361667E-004  0.5785622E+03  0.7818608E-02  0.9950909E-01
         -2   -1    0    0    0  501 -0.00000000000E+00  0.00000000000E+00  0.28291631152E+03  0.28291631154E+03  0.25500000000E-02 0.  1.
          2   -1    0    0  501    0  0.00000000000E+00 -0.00000000000E+00 -0.29578902915E+03  0.29578902916E+03  0.25500000000E-02 0. -1.
    5000001    1    1    2    0    0 -0.59402462639E+02 -0.25290470671E+03  0.16339636371E+01  0.28917315415E+03  0.12700000000E+03 0.  0.
   -5000001    1    1    2    0    0  0.59402462639E+02  0.25290470671E+03 -0.14506681263E+02  0.28953218655E+03  0.12700000000E+03 0.  0.
<mgrwt>
<rscale>  0 0.57856215E+03</rscale>
<asrwt>0</asrwt>
<pdfrwt beam="1">  1        2 0.42255576E-01 0.57856215E+03</pdfrwt>
<pdfrwt beam="2">  1       -2 0.40416616E-01 0.57856215E+03</pdfrwt>
<totfact> 0.70591783E+02</totfact>
</mgrwt>
</event>
<event>
 4    1  0.1361667E-004  0.6511132E+03  0.7818608E-02  0.9804693E-01
          2   -1    0    0  501    0  0.00000000000E+00  0.00000000000E+00  0.19736789375E+04  0.19736789375E+04  0.25500000000E-02 0.  1.
         -2   -1    0    0    0  501 -0.00000000000E+00 -0.00000000000E+00 -0.53700273565E+02  0.53700273626E+02  0.25500000000E-02 0. -1.
    5000001    1    1    2    0    0  0.11743639927E+03 -0.22546614144E+03  0.14545877178E+04  0.14820866094E+04  0.12700000000E+03 0.  0.
   -5000001    1    1    2    0    0 -0.11743639927E+03  0.22546614144E+03  0.46539094607E+03  0.54529260173E+03  0.12700000000E+03 0.  0.
<mgrwt>
<rscale>  0 0.65111320E+03</rscale>
<asrwt>0</asrwt>
<pdfrwt beam="1">  1        2 0.28195404E+00 0.65111320E+03</pdfrwt>
<pdfrwt beam="2">  1       -2 0.76714702E-02 0.65111320E+03</pdfrwt>
<totfact> 0.89251221E+02</totfact>
</mgrwt>
</event>
<event>
 4    1  0.1361667E-004  0.3479746E+03  0.7818608E-02  0.1063449E+00
          2   -1    0    0  501    0  0.00000000000E+00  0.00000000000E+00  0.53951619897E+03  0.53951619897E+03  0.25500000000E-02 0.  1.
         -2   -1    0    0    0  501 -0.00000000000E+00 -0.00000000000E+00 -0.56108757476E+02  0.56108757534E+02  0.25500000000E-02 0. -1.
    5000001    1    1    2    0    0 -0.34882390946E+02 -0.93588156942E+02  0.13120934852E+03  0.20813557470E+03  0.12700000000E+03 0.  0.
   -5000001    1    1    2    0    0  0.34882390946E+02  0.93588156942E+02  0.35219809297E+03  0.38748938181E+03  0.12700000000E+03 0.  0.
<mgrwt>
<rscale>  0 0.34797462E+03</rscale>
<asrwt>0</asrwt>
<pdfrwt beam="1">  1        2 0.77073743E-01 0.34797462E+03</pdfrwt>
<pdfrwt beam="2">  1       -2 0.80155368E-02 0.34797462E+03</pdfrwt>
<totfact> 0.58797234E+03</totfact>
</mgrwt>
</event>
<event>
 4    1  0.1361667E-004  0.3305441E+03  0.7818608E-02  0.1070896E+00
          2   -1    0    0  501    0  0.00000000000E+00  0.00000000000E+00  0.20263263409E+04  0.20263263409E+04  0.25500000000E-02 0.  1.
         -2   -1    0    0    0  501 -0.00000000000E+00 -0.00000000000E+00 -0.13479984068E+02  0.13479984309E+02  0.25500000000E-02 0. -1.
    5000001    1    1    2    0    0 -0.13029695050E+02  0.15199029812E+02  0.16472946020E+04  0.16523042363E+04  0.12700000000E+03 0.  0.
   -5000001    1    1    2    0    0  0.13029695050E+02 -0.15199029812E+02  0.36555175479E+03  0.38750208888E+03  0.12700000000E+03 0.  0.
<mgrwt>
<rscale>  0 0.33054408E+03</rscale>
<asrwt>0</asrwt>
<pdfrwt beam="1">  1        2 0.28947478E+00 0.33054408E+03</pdfrwt>
<pdfrwt beam="2">  1       -2 0.19257148E-02 0.33054408E+03</pdfrwt>
<totfact> 0.70209800E+03</totfact>
</mgrwt>
</event>
<event>
 4    1  0.1361667E-004  0.3030287E+03  0.7818608E-02  0.1083736E+00
         -2   -1    0    0    0  501 -0.00000000000E+00  0.00000000000E+00  0.56679044039E+02  0.56679044096E+02  0.25500000000E-02 0. -1.
          2   -1    0    0  501    0  0.00000000000E+00 -0.00000000000E+00 -0.40502787686E+03  0.40502787687E+03  0.25500000000E-02 0.  1.
    5000001    1    1    2    0    0 -0.79308543826E+02 -0.18490816226E+02 -0.19549654579E+03  0.24694058967E+03  0.12700000000E+03 0.  0.
   -5000001    1    1    2    0    0  0.79308543826E+02  0.18490816226E+02 -0.15285228703E+03  0.21476633130E+03  0.12700000000E+03 0.  0.
<mgrwt>
<rscale>  0 0.30302866E+03</rscale>
<asrwt>0</asrwt>
<pdfrwt beam="1">  1        2 0.57861123E-01 0.30302866E+03</pdfrwt>
<pdfrwt beam="2">  1       -2 0.80970065E-02 0.30302866E+03</pdfrwt>
<totfact> 0.79094420E+03</totfact>
</mgrwt>
</event>
<event>
 4    1  0.1361667E-004  0.1673558E+04  0.7818608E-02  0.8776591E-01
         -2   -1    0    0    0  501 -0.00000000000E+00  0.00000000000E+00  0.86737549723E+03  0.86737549724E+03  0.25500000000E-02 0.  1.
          2   -1    0    0  501    0  0.00000000000E+00 -0.00000000000E+00 -0.80726148397E+03  0.80726148397E+03  0.25500000000E-02 0. -1.
    5000001    1    1    2    0    0  0.58914167289E+03  0.25080641044E+03 -0.49380527579E+03  0.81851354090E+03  0.12700000000E+03 0.  0.
   -5000001    1    1    2    0    0 -0.58914167289E+03 -0.25080641044E+03  0.55391928906E+03  0.85612344030E+03  0.12700000000E+03 0.  0.
<mgrwt>
<rscale>  0 0.16735577E+04</rscale>
<asrwt>0</asrwt>
<pdfrwt beam="1">  1        2 0.11532307E+00 0.16735577E+04</pdfrwt>
<pdfrwt beam="2">  1       -2 0.12391079E+00 0.16735577E+04</pdfrwt>
<totfact> 0.17602101E+01</totfact>
</mgrwt>
</event>
<event>
 4    1  0.1361667E-004  0.3299410E+03  0.7818608E-02  0.1071163E+00
         -2   -1    0    0    0  501 -0.00000000000E+00  0.00000000000E+00  0.12053929981E+03  0.12053929983E+03  0.25500000000E-02 0. -1.
          2   -1    0    0  501    0  0.00000000000E+00 -0.00000000000E+00 -0.22577921396E+03  0.22577921398E+03  0.25500000000E-02 0.  1.
    5000001    1    1    2    0    0  0.39485536985E+02  0.97041993151E+02 -0.63629265321E+02  0.17650478597E+03  0.12700000000E+03 0.  0.
   -5000001    1    1    2    0    0 -0.39485536985E+02 -0.97041993151E+02 -0.41610648834E+02  0.16981372784E+03  0.12700000000E+03 0.  0.
<mgrwt>
<rscale>  0 0.32994102E+03</rscale>
<asrwt>0</asrwt>
<pdfrwt beam="1">  1        2 0.32254173E-01 0.32994102E+03</pdfrwt>
<pdfrwt beam="2">  1       -2 0.17219900E-01 0.32994102E+03</pdfrwt>
<totfact> 0.44007493E+03</totfact>
</mgrwt>
</event>
<event>
 4    1  0.1361667E-004  0.4528745E+03  0.7818608E-02  0.1026868E+00
         -2   -1    0    0    0  501 -0.00000000000E+00  0.00000000000E+00  0.35682835907E+02  0.35682835998E+02  0.25500000000E-02 0. -1.
          2   -1    0    0  501    0  0.00000000000E+00 -0.00000000000E+00 -0.14369325818E+04  0.14369325818E+04  0.25500000000E-02 0.  1.
    5000001    1    1    2    0    0 -0.14553144996E+03 -0.35514831784E+02 -0.10671331788E+04  0.10850543432E+04  0.12700000000E+03 0.  0.
   -5000001    1    1    2    0    0  0.14553144996E+03  0.35514831784E+02 -0.33411656704E+03  0.38756107464E+03  0.12700000000E+03 0.  0.
<mgrwt>
<rscale>  0 0.45287451E+03</rscale>
<asrwt>0</asrwt>
<pdfrwt beam="1">  1        2 0.20527605E+00 0.45287451E+03</pdfrwt>
<pdfrwt beam="2">  1       -2 0.50975489E-02 0.45287451E+03</pdfrwt>
<totfact> 0.31974912E+03</totfact>
</mgrwt>
</event>
<event>
 4    1  0.1361667E-004  0.3337419E+03  0.7818608E-02  0.1069493E+00
         -2   -1    0    0    0  501 -0.00000000000E+00  0.00000000000E+00  0.25219267427E+02  0.25219267556E+02  0.25500000000E-02 0. -1.
          2   -1    0    0  501    0  0.00000000000E+00 -0.00000000000E+00 -0.11041520562E+04  0.11041520562E+04  0.25500000000E-02 0.  1.
    5000001    1    1    2    0    0 -0.74564655528E+02  0.10013241150E+02 -0.80282409557E+03  0.81628161886E+03  0.12700000000E+03 0.  0.
   -5000001    1    1    2    0    0  0.74564655528E+02 -0.10013241150E+02 -0.27610869317E+03  0.31308970487E+03  0.12700000000E+03 0.  0.
<mgrwt>
<rscale>  0 0.33374185E+03</rscale>
<asrwt>0</asrwt>
<pdfrwt beam="1">  1        2 0.15773598E+00 0.33374185E+03</pdfrwt>
<pdfrwt beam="2">  1       -2 0.36027532E-02 0.33374185E+03</pdfrwt>
<totfact> 0.81879558E+03</totfact>
</mgrwt>
</event>
<event>
 4    1  0.1361667E-004  0.3554304E+03  0.7818608E-02  0.1060408E+00
         -2   -1    0    0    0  501 -0.00000000000E+00  0.00000000000E+00  0.56883919573E+02  0.56883919630E+02  0.25500000000E-02 0.  1.
          2   -1    0    0  501    0  0.00000000000E+00 -0.00000000000E+00 -0.55521314520E+03  0.55521314520E+03  0.25500000000E-02 0. -1.
    5000001    1    1    2    0    0  0.38748695390E+02  0.10602575634E+03 -0.33882747777E+03  0.37904614771E+03  0.12700000000E+03 0.  0.
   -5000001    1    1    2    0    0 -0.38748695390E+02 -0.10602575634E+03 -0.15950174785E+03  0.23305091712E+03  0.12700000000E+03 0.  0.
<mgrwt>
<rscale>  0 0.35543044E+03</rscale>
<asrwt>0</asrwt>
<pdfrwt beam="1">  1        2 0.79316160E-01 0.35543044E+03</pdfrwt>
<pdfrwt beam="2">  1       -2 0.81262746E-02 0.35543044E+03</pdfrwt>
<totfact> 0.55731195E+03</totfact>
</mgrwt>
</event>
<event>
 4    1  0.1361667E-004  0.2996855E+03  0.7818608E-02  0.1085398E+00
         -2   -1    0    0    0  501 -0.00000000000E+00  0.00000000000E+00  0.11391511812E+02  0.11391512097E+02  0.25500000000E-02 0. -1.
          2   -1    0    0  501    0  0.00000000000E+00 -0.00000000000E+00 -0.19710153351E+04  0.19710153351E+04  0.25500000000E-02 0.  1.
    5000001    1    1    2    0    0  0.66770673226E+02  0.38791150114E+02 -0.85416798885E+03  0.86700347710E+03  0.12700000000E+03 0.  0.
   -5000001    1    1    2    0    0 -0.66770673226E+02 -0.38791150114E+02 -0.11054558344E+04  0.11154033701E+04  0.12700000000E+03 0.  0.
<mgrwt>
<rscale>  0 0.29968547E+03</rscale>
<asrwt>0</asrwt>
<pdfrwt beam="1">  1        2 0.28157340E+00 0.29968547E+03</pdfrwt>
<pdfrwt beam="2">  1       -2 0.16273601E-02 0.29968547E+03</pdfrwt>
<totfact> 0.95683903E+03</totfact>
</mgrwt>
</event>
<event>
 4    1  0.1361667E-004  0.4362575E+03  0.7818608E-02  0.1031901E+00
         -2   -1    0    0    0  501 -0.00000000000E+00  0.00000000000E+00  0.49281806725E+03  0.49281806725E+03  0.25500000000E-02 0. -1.
          2   -1    0    0  501    0  0.00000000000E+00 -0.00000000000E+00 -0.96547097662E+02  0.96547097695E+02  0.25500000000E-02 0.  1.
    5000001    1    1    2    0    0  0.12904018553E+03  0.39977321205E+00  0.33786548533E+02  0.18417942383E+03  0.12700000000E+03 0.  0.
   -5000001    1    1    2    0    0 -0.12904018553E+03 -0.39977321205E+00  0.36248442105E+03  0.40518574112E+03  0.12700000000E+03 0.  0.
<mgrwt>
<rscale>  0 0.43625751E+03</rscale>
<asrwt>0</asrwt>
<pdfrwt beam="1">  1        2 0.13792443E-01 0.43625751E+03</pdfrwt>
<pdfrwt beam="2">  1       -2 0.70402581E-01 0.43625751E+03</pdfrwt>
<totfact> 0.81862961E+02</totfact>
</mgrwt>
</event>
<event>
 4    1  0.1361667E-004  0.6232311E+03  0.7818608E-02  0.9858348E-01
         -2   -1    0    0    0  501 -0.00000000000E+00  0.00000000000E+00  0.21580002578E+03  0.21580002580E+03  0.25500000000E-02 0. -1.
          2   -1    0    0  501    0  0.00000000000E+00 -0.00000000000E+00 -0.44997324490E+03  0.44997324491E+03  0.25500000000E-02 0.  1.
    5000001    1    1    2    0    0 -0.13259936706E+03  0.23446915798E+03 -0.21509252979E+03  0.36735837347E+03  0.12700000000E+03 0.  0.
   -5000001    1    1    2    0    0  0.13259936706E+03 -0.23446915798E+03 -0.19080689331E+02  0.29841489724E+03  0.12700000000E+03 0.  0.
<mgrwt>
<rscale>  0 0.62323106E+03</rscale>
<asrwt>0</asrwt>
<pdfrwt beam="1">  1        2 0.64281892E-01 0.62323106E+03</pdfrwt>
<pdfrwt beam="2">  1       -2 0.30828575E-01 0.62323106E+03</pdfrwt>
<totfact> 0.74086575E+02</totfact>
</mgrwt>
</event>
<event>
 4    1  0.1361667E-004  0.3790393E+03  0.7818608E-02  0.1051289E+00
          2   -1    0    0  501    0  0.00000000000E+00  0.00000000000E+00  0.77347554818E+03  0.77347554818E+03  0.25500000000E-02 0.  1.
         -2   -1    0    0    0  501 -0.00000000000E+00 -0.00000000000E+00 -0.46436752426E+02  0.46436752496E+02  0.25500000000E-02 0. -1.
    5000001    1    1    2    0    0 -0.10663897766E+03  0.46540960585E+02  0.53454046185E+03  0.56160523317E+03  0.12700000000E+03 0.  0.
   -5000001    1    1    2    0    0  0.10663897766E+03 -0.46540960585E+02  0.19249833390E+03  0.25830706750E+03  0.12700000000E+03 0.  0.
<mgrwt>
<rscale>  0 0.37903927E+03</rscale>
<asrwt>0</asrwt>
<pdfrwt beam="1">  1        2 0.11049651E+00 0.37903927E+03</pdfrwt>
<pdfrwt beam="2">  1       -2 0.66338218E-02 0.37903927E+03</pdfrwt>
<totfact> 0.51809973E+03</totfact>
</mgrwt>
</event>
<event>
 4    1  0.1361667E-004  0.3658132E+03  0.7818608E-02  0.1056306E+00
          2   -1    0    0  501    0  0.00000000000E+00  0.00000000000E+00  0.19880777566E+04  0.19880777566E+04  0.25500000000E-02 0.  1.
         -2   -1    0    0    0  501 -0.00000000000E+00 -0.00000000000E+00 -0.16827722698E+02  0.16827722891E+02  0.25500000000E-02 0. -1.
    5000001    1    1    2    0    0 -0.12766423836E+03  0.29914595332E+02  0.92247086792E+03  0.94035873098E+03  0.12700000000E+03 0.  0.
   -5000001    1    1    2    0    0  0.12766423836E+03 -0.29914595332E+02  0.10487791660E+04  0.10645467485E+04  0.12700000000E+03 0.  0.
<mgrwt>
<rscale>  0 0.36581318E+03</rscale>
<asrwt>0</asrwt>
<pdfrwt beam="1">  1        2 0.28401108E+00 0.36581318E+03</pdfrwt>
<pdfrwt beam="2">  1       -2 0.24039607E-02 0.36581318E+03</pdfrwt>
<totfact> 0.52757677E+03</totfact>
</mgrwt>
</event>
<event>
 4    1  0.1361667E-004  0.3723971E+03  0.7818608E-02  0.1053780E+00
         -2   -1    0    0    0  501 -0.00000000000E+00  0.00000000000E+00  0.24816018013E+03  0.24816018014E+03  0.25500000000E-02 0. -1.
          2   -1    0    0  501    0  0.00000000000E+00 -0.00000000000E+00 -0.13970778327E+03  0.13970778329E+03  0.25500000000E-02 0.  1.
    5000001    1    1    2    0    0 -0.40861851053E+02 -0.10907916880E+03  0.12767500288E+03  0.21447112229E+03  0.12700000000E+03 0.  0.
   -5000001    1    1    2    0    0  0.40861851053E+02  0.10907916880E+03 -0.19222606019E+02  0.17339684114E+03  0.12700000000E+03 0.  0.
<mgrwt>
<rscale>  0 0.37239715E+03</rscale>
<asrwt>0</asrwt>
<pdfrwt beam="1">  1        2 0.19958255E-01 0.37239715E+03</pdfrwt>
<pdfrwt beam="2">  1       -2 0.35451454E-01 0.37239715E+03</pdfrwt>
<totfact> 0.21008019E+03</totfact>
</mgrwt>
</event>
<event>
 4    1  0.1361667E-004  0.5066473E+03  0.7818608E-02  0.1012058E+00
          2   -1    0    0  501    0  0.00000000000E+00  0.00000000000E+00  0.35413214542E+03  0.35413214543E+03  0.25500000000E-02 0.  1.
         -2   -1    0    0    0  501 -0.00000000000E+00 -0.00000000000E+00 -0.18121168736E+03  0.18121168738E+03  0.25500000000E-02 0. -1.
    5000001    1    1    2    0    0  0.16250762669E+03  0.41793398113E+02  0.23547443839E+03  0.31580473080E+03  0.12700000000E+03 0.  0.
   -5000001    1    1    2    0    0 -0.16250762669E+03 -0.41793398113E+02 -0.62553980328E+02  0.21953910201E+03  0.12700000000E+03 0.  0.
<mgrwt>
<rscale>  0 0.50664735E+03</rscale>
<asrwt>0</asrwt>
<pdfrwt beam="1">  1        2 0.50590306E-01 0.50664735E+03</pdfrwt>
<pdfrwt beam="2">  1       -2 0.25887384E-01 0.50664735E+03</pdfrwt>
<totfact> 0.13310840E+03</totfact>
</mgrwt>
</event>
<event>
 4    1  0.1361667E-004  0.4250149E+03  0.7818608E-02  0.1035446E+00
         -2   -1    0    0    0  501 -0.00000000000E+00  0.00000000000E+00  0.33907516335E+03  0.33907516336E+03  0.25500000000E-02 0. -1.
          2   -1    0    0  501    0  0.00000000000E+00 -0.00000000000E+00 -0.13318407078E+03  0.13318407081E+03  0.25500000000E-02 0.  1.
    5000001    1    1    2    0    0  0.95294703890E+02 -0.31099436195E+02 -0.50145252348E+02  0.16938654567E+03  0.12700000000E+03 0.  0.
   -5000001    1    1    2    0    0 -0.95294703890E+02  0.31099436195E+02  0.25603634492E+03  0.30287268850E+03  0.12700000000E+03 0.  0.
<mgrwt>
<rscale>  0 0.42501487E+03</rscale>
<asrwt>0</asrwt>
<pdfrwt beam="1">  1        2 0.19026296E-01 0.42501487E+03</pdfrwt>
<pdfrwt beam="2">  1       -2 0.48439309E-01 0.42501487E+03</pdfrwt>
<totfact> 0.12144475E+03</totfact>
</mgrwt>
</event>
<event>
 4    1  0.1361667E-004  0.1626424E+04  0.7818608E-02  0.8804477E-01
         -2   -1    0    0    0  501 -0.00000000000E+00  0.00000000000E+00  0.10011613250E+04  0.10011613250E+04  0.25500000000E-02 0. -1.
          2   -1    0    0  501    0  0.00000000000E+00 -0.00000000000E+00 -0.66054693627E+03  0.66054693627E+03  0.25500000000E-02 0.  1.
    5000001    1    1    2    0    0 -0.21437628012E+02  0.80023597977E+03  0.23767590298E+03  0.84466326431E+03  0.12700000000E+03 0.  0.
   -5000001    1    1    2    0    0  0.21437628012E+02 -0.80023597977E+03  0.10293848575E+03  0.81704499697E+03  0.12700000000E+03 0.  0.
<mgrwt>
<rscale>  0 0.16264244E+04</rscale>
<asrwt>0</asrwt>
<pdfrwt beam="1">  1        2 0.94363849E-01 0.16264244E+04</pdfrwt>
<pdfrwt beam="2">  1       -2 0.14302305E+00 0.16264244E+04</pdfrwt>
<totfact> 0.15743139E+01</totfact>
</mgrwt>
</event>
<event>
 4    1  0.1361667E-004  0.3558739E+03  0.7818608E-02  0.1060230E+00
         -2   -1    0    0    0  501 -0.00000000000E+00  0.00000000000E+00  0.59842707435E+02  0.59842707489E+02  0.25500000000E-02 0. -1.
          2   -1    0    0  501    0  0.00000000000E+00 -0.00000000000E+00 -0.52907953778E+03  0.52907953778E+03  0.25500000000E-02 0.  1.
    5000001    1    1    2    0    0  0.96045465875E+01 -0.12414558959E+03 -0.24340280038E+03  0.30146027593E+03  0.12700000000E+03 0.  0.
   -5000001    1    1    2    0    0 -0.96045465875E+01  0.12414558959E+03 -0.22583402996E+03  0.28746196934E+03  0.12700000000E+03 0.  0.
<mgrwt>
<rscale>  0 0.35587387E+03</rscale>
<asrwt>0</asrwt>
<pdfrwt beam="1">  1        2 0.75582788E-01 0.35587387E+03</pdfrwt>
<pdfrwt beam="2">  1       -2 0.85489585E-02 0.35587387E+03</pdfrwt>
<totfact> 0.54333149E+03</totfact>
</mgrwt>
</event>
<event>
 4    1  0.1361667E-004  0.9461234E+03  0.7818608E-02  0.9369693E-01
         -2   -1    0    0    0  501 -0.00000000000E+00  0.00000000000E+00  0.45920079191E+03  0.45920079191E+03  0.25500000000E-02 0. -1.
          2   -1    0    0  501    0  0.00000000000E+00 -0.00000000000E+00 -0.48734099887E+03  0.48734099888E+03  0.25500000000E-02 0.  1.
    5000001    1    1    2    0    0 -0.41335362985E+03 -0.10484395638E+03  0.14663995145E+03  0.46849306704E+03  0.12700000000E+03 0.  0.
   -5000001    1    1    2    0    0  0.41335362985E+03  0.10484395638E+03 -0.17478015841E+03  0.47804872375E+03  0.12700000000E+03 0.  0.
<mgrwt>
<rscale>  0 0.94612340E+03</rscale>
<asrwt>0</asrwt>
<pdfrwt beam="1">  1        2 0.69620142E-01 0.94612340E+03</pdfrwt>
<pdfrwt beam="2">  1       -2 0.65600114E-01 0.94612340E+03</pdfrwt>
<totfact> 0.14826439E+02</totfact>
</mgrwt>
</event>
<event>
 4    1  0.1361667E-004  0.3168576E+03  0.7818608E-02  0.1077105E+00
         -2   -1    0    0    0  501 -0.00000000000E+00  0.00000000000E+00  0.95746506111E+01  0.95746509507E+01  0.25500000000E-02 0. -1.
          2   -1    0    0  501    0  0.00000000000E+00 -0.00000000000E+00 -0.26214723595E+04  0.26214723595E+04  0.25500000000E-02 0.  1.
    5000001    1    1    2    0    0  0.19980205773E+02  0.23954343242E+02 -0.20485336534E+04  0.20527036192E+04  0.12700000000E+03 0.  0.
   -5000001    1    1    2    0    0 -0.19980205773E+02 -0.23954343242E+02 -0.56336405549E+03  0.57834339125E+03  0.12700000000E+03 0.  0.
<mgrwt>
<rscale>  0 0.31685759E+03</rscale>
<asrwt>0</asrwt>
<pdfrwt beam="1">  1        2 0.37449559E+00 0.31685759E+03</pdfrwt>
<pdfrwt beam="2">  1       -2 0.13678089E-02 0.31685759E+03</pdfrwt>
<totfact> 0.58805177E+03</totfact>
</mgrwt>
</event>
<event>
 4    1  0.1361667E-004  0.4374799E+03  0.7818608E-02  0.1031523E+00
         -2   -1    0    0    0  501 -0.00000000000E+00  0.00000000000E+00  0.16647338391E+03  0.16647338393E+03  0.25500000000E-02 0. -1.
          2   -1    0    0  501    0  0.00000000000E+00 -0.00000000000E+00 -0.28741635016E+03  0.28741635018E+03  0.25500000000E-02 0.  1.
    5000001    1    1    2    0    0  0.93917635734E+02 -0.92472585670E+02 -0.18474104528E+03  0.26005759980E+03  0.12700000000E+03 0.  0.
   -5000001    1    1    2    0    0 -0.93917635734E+02  0.92472585670E+02  0.63798079024E+02  0.19383213431E+03  0.12700000000E+03 0.  0.
<mgrwt>
<rscale>  0 0.43747993E+03</rscale>
<asrwt>0</asrwt>
<pdfrwt beam="1">  1        2 0.41059478E-01 0.43747993E+03</pdfrwt>
<pdfrwt beam="2">  1       -2 0.23781912E-01 0.43747993E+03</pdfrwt>
<totfact> 0.19447738E+03</totfact>
</mgrwt>
</event>
<event>
 4    1  0.1361667E-004  0.2963447E+03  0.7818608E-02  0.1087082E+00
         -2   -1    0    0    0  501 -0.00000000000E+00  0.00000000000E+00  0.22483521068E+02  0.22483521212E+02  0.25500000000E-02 0. -1.
          2   -1    0    0  501    0  0.00000000000E+00 -0.00000000000E+00 -0.97649481584E+03  0.97649481584E+03  0.25500000000E-02 0.  1.
    5000001    1    1    2    0    0  0.64037214542E+02  0.20111765638E+02 -0.59951703631E+03  0.61648594858E+03  0.12700000000E+03 0.  0.
   -5000001    1    1    2    0    0 -0.64037214542E+02 -0.20111765638E+02 -0.35449425846E+03  0.38249238848E+03  0.12700000000E+03 0.  0.
<mgrwt>
<rscale>  0 0.29634468E+03</rscale>
<asrwt>0</asrwt>
<pdfrwt beam="1">  1        2 0.13949923E+00 0.29634468E+03</pdfrwt>
<pdfrwt beam="2">  1       -2 0.32119322E-02 0.29634468E+03</pdfrwt>
<totfact> 0.11506020E+04</totfact>
</mgrwt>
</event>
<event>
 4    1  0.1361667E-004  0.4782552E+03  0.7818608E-02  0.1019616E+00
          2   -1    0    0  501    0  0.00000000000E+00  0.00000000000E+00  0.52912369951E+03  0.52912369952E+03  0.25500000000E-02 0.  1.
         -2   -1    0    0    0  501 -0.00000000000E+00 -0.00000000000E+00 -0.10806925837E+03  0.10806925840E+03  0.25500000000E-02 0. -1.
    5000001    1    1    2    0    0 -0.16410564576E+03  0.15659738577E+02  0.53577379794E+02  0.21488468072E+03  0.12700000000E+03 0.  0.
   -5000001    1    1    2    0    0  0.16410564576E+03 -0.15659738577E+02  0.36747706135E+03  0.42230827721E+03  0.12700000000E+03 0.  0.
<mgrwt>
<rscale>  0 0.47825519E+03</rscale>
<asrwt>0</asrwt>
<pdfrwt beam="1">  1        2 0.75589100E-01 0.47825519E+03</pdfrwt>
<pdfrwt beam="2">  1       -2 0.15438465E-01 0.47825519E+03</pdfrwt>
<totfact> 0.20863686E+03</totfact>
</mgrwt>
</event>
<event>
 4    1  0.1361667E-004  0.7515123E+03  0.7818608E-02  0.9632981E-01
          2   -1    0    0  501    0  0.00000000000E+00  0.00000000000E+00  0.78088125825E+03  0.78088125826E+03  0.25500000000E-02 0.  1.
         -2   -1    0    0    0  501 -0.00000000000E+00 -0.00000000000E+00 -0.18081199991E+03  0.18081199992E+03  0.25500000000E-02 0. -1.
    5000001    1    1    2    0    0 -0.35263839225E+03  0.10010876323E+02  0.26843803542E+03  0.46113125268E+03  0.12700000000E+03 0.  0.
   -5000001    1    1    2    0    0  0.35263839225E+03 -0.10010876323E+02  0.33163122292E+03  0.50056200550E+03  0.12700000000E+03 0.  0.
<mgrwt>
<rscale>  0 0.75151235E+03</rscale>
<asrwt>0</asrwt>
<pdfrwt beam="1">  1        2 0.11155447E+00 0.75151235E+03</pdfrwt>
<pdfrwt beam="2">  1       -2 0.25830285E-01 0.75151235E+03</pdfrwt>
<totfact> 0.53140338E+02</totfact>
</mgrwt>
</event>
<event>
 4    1  0.1361667E-004  0.6063779E+03  0.7818608E-02  0.9892262E-01
         -2   -1    0    0    0  501 -0.00000000000E+00  0.00000000000E+00  0.53302130410E+02  0.53302130471E+02  0.25500000000E-02 0. -1.
          2   -1    0    0  501    0  0.00000000000E+00 -0.00000000000E+00 -0.17245755717E+04  0.17245755717E+04  0.25500000000E-02 0.  1.
    5000001    1    1    2    0    0  0.18470714821E+02 -0.24242452794E+03 -0.12143452655E+04  0.12449394535E+04  0.12700000000E+03 0.  0.
   -5000001    1    1    2    0    0 -0.18470714821E+02  0.24242452794E+03 -0.45692817572E+03  0.53293824859E+03  0.12700000000E+03 0.  0.
<mgrwt>
<rscale>  0 0.60637794E+03</rscale>
<asrwt>0</asrwt>
<pdfrwt beam="1">  1        2 0.24636791E+00 0.60637794E+03</pdfrwt>
<pdfrwt beam="2">  1       -2 0.76145911E-02 0.60637794E+03</pdfrwt>
<totfact> 0.12093363E+03</totfact>
</mgrwt>
</event>
<event>
 4    1  0.1361667E-004  0.4403448E+03  0.7818608E-02  0.1030641E+00
         -2   -1    0    0    0  501 -0.00000000000E+00  0.00000000000E+00  0.43183766713E+03  0.43183766714E+03  0.25500000000E-02 0. -1.
          2   -1    0    0  501    0  0.00000000000E+00 -0.00000000000E+00 -0.11225487625E+03  0.11225487628E+03  0.25500000000E-02 0.  1.
    5000001    1    1    2    0    0 -0.17010883843E+00 -0.17954831553E+03  0.14687607348E+03  0.26446021914E+03  0.12700000000E+03 0.  0.
   -5000001    1    1    2    0    0  0.17010883843E+00  0.17954831553E+03  0.17270671741E+03  0.27963232428E+03  0.12700000000E+03 0.  0.
<mgrwt>
<rscale>  0 0.44034479E+03</rscale>
<asrwt>0</asrwt>
<pdfrwt beam="1">  1        2 0.16036411E-01 0.44034479E+03</pdfrwt>
<pdfrwt beam="2">  1       -2 0.61691093E-01 0.44034479E+03</pdfrwt>
<totfact> 0.90509352E+02</totfact>
</mgrwt>
</event>
<event>
 4    1  0.1361667E-004  0.3910042E+03  0.7818608E-02  0.1046940E+00
          2   -1    0    0  501    0  0.00000000000E+00  0.00000000000E+00  0.11683691616E+04  0.11683691616E+04  0.25500000000E-02 0.  1.
         -2   -1    0    0    0  501 -0.00000000000E+00 -0.00000000000E+00 -0.32713178615E+02  0.32713178714E+02  0.25500000000E-02 0. -1.
    5000001    1    1    2    0    0  0.62987657562E+02 -0.89166667097E+02  0.87766674340E+03  0.89350212759E+03  0.12700000000E+03 0.  0.
   -5000001    1    1    2    0    0 -0.62987657562E+02  0.89166667097E+02  0.25798923961E+03  0.30758021276E+03  0.12700000000E+03 0.  0.
<mgrwt>
<rscale>  0 0.39100419E+03</rscale>
<asrwt>0</asrwt>
<pdfrwt beam="1">  1        2 0.16690990E+00 0.39100419E+03</pdfrwt>
<pdfrwt beam="2">  1       -2 0.46733107E-02 0.39100419E+03</pdfrwt>
<totfact> 0.50903787E+03</totfact>
</mgrwt>
</event>
<event>
 4    1  0.1361667E-004  0.3759552E+03  0.7818608E-02  0.1052439E+00
         -2   -1    0    0    0  501 -0.00000000000E+00  0.00000000000E+00  0.21987416565E+02  0.21987416712E+02  0.25500000000E-02 0. -1.
          2   -1    0    0  501    0  0.00000000000E+00 -0.00000000000E+00 -0.16070820238E+04  0.16070820238E+04  0.25500000000E-02 0.  1.
    5000001    1    1    2    0    0  0.13814802468E+03  0.10652221362E+02 -0.78011223508E+03  0.80243532193E+03  0.12700000000E+03 0.  0.
   -5000001    1    1    2    0    0 -0.13814802468E+03 -0.10652221362E+02 -0.80498237218E+03  0.82663411862E+03  0.12700000000E+03 0.  0.
<mgrwt>
<rscale>  0 0.37595522E+03</rscale>
<asrwt>0</asrwt>
<pdfrwt beam="1">  1        2 0.22958307E+00 0.37595522E+03</pdfrwt>
<pdfrwt beam="2">  1       -2 0.31410605E-02 0.37595522E+03</pdfrwt>
<totfact> 0.54660665E+03</totfact>
</mgrwt>
</event>
<event>
 4    1  0.1361667E-004  0.3903217E+03  0.7818608E-02  0.1047183E+00
         -2   -1    0    0    0  501 -0.00000000000E+00  0.00000000000E+00  0.13987831088E+02  0.13987831321E+02  0.25500000000E-02 0. -1.
          2   -1    0    0  501    0  0.00000000000E+00 -0.00000000000E+00 -0.27229206268E+04  0.27229206268E+04  0.25500000000E-02 0.  1.
    5000001    1    1    2    0    0 -0.77499001862E+02 -0.12574452379E+03 -0.12712121444E+04  0.12860509697E+04  0.12700000000E+03 0.  0.
   -5000001    1    1    2    0    0  0.77499001862E+02  0.12574452379E+03 -0.14377206513E+04  0.14508574884E+04  0.12700000000E+03 0.  0.
<mgrwt>
<rscale>  0 0.39032168E+03</rscale>
<asrwt>0</asrwt>
<pdfrwt beam="1">  1        2 0.38898832E+00 0.39032168E+03</pdfrwt>
<pdfrwt beam="2">  1       -2 0.19982633E-02 0.39032168E+03</pdfrwt>
<totfact> 0.29719814E+03</totfact>
</mgrwt>
</event>
<event>
 4    1  0.1361667E-004  0.6258670E+03  0.7818608E-02  0.9853147E-01
          2   -1    0    0  501    0  0.00000000000E+00  0.00000000000E+00  0.11856631907E+04  0.11856631907E+04  0.25500000000E-02 0.  1.
         -2   -1    0    0    0  501 -0.00000000000E+00 -0.00000000000E+00 -0.82592908697E+02  0.82592908736E+02  0.25500000000E-02 0. -1.
    5000001    1    1    2    0    0 -0.74760452489E+02 -0.24220609928E+03  0.28311988647E+03  0.40067292134E+03  0.12700000000E+03 0.  0.
   -5000001    1    1    2    0    0  0.74760452489E+02  0.24220609928E+03  0.81995039558E+03  0.86758317814E+03  0.12700000000E+03 0.  0.
<mgrwt>
<rscale>  0 0.62586699E+03</rscale>
<asrwt>0</asrwt>
<pdfrwt beam="1">  1        2 0.16938045E+00 0.62586699E+03</pdfrwt>
<pdfrwt beam="2">  1       -2 0.11798987E-01 0.62586699E+03</pdfrwt>
<totfact> 0.11484581E+03</totfact>
</mgrwt>
</event>
<event>
 4    1  0.1361667E-004  0.3404504E+03  0.7818608E-02  0.1066604E+00
          2   -1    0    0  501    0  0.00000000000E+00  0.00000000000E+00  0.71337910470E+02  0.71337910516E+02  0.25500000000E-02 0.  1.
         -2   -1    0    0    0  501 -0.00000000000E+00 -0.00000000000E+00 -0.40618833559E+03  0.40618833560E+03  0.25500000000E-02 0. -1.
    5000001    1    1    2    0    0  0.67781187275E+02  0.90833342467E+02 -0.16970494217E+03  0.24036171253E+03  0.12700000000E+03 0.  0.
   -5000001    1    1    2    0    0 -0.67781187275E+02 -0.90833342467E+02 -0.16514548295E+03  0.23716453358E+03  0.12700000000E+03 0.  0.
<mgrwt>
<rscale>  0 0.34045045E+03</rscale>
<asrwt>0</asrwt>
<pdfrwt beam="1">  1        2 0.10191130E-01 0.34045045E+03</pdfrwt>
<pdfrwt beam="2">  1       -2 0.58026904E-01 0.34045045E+03</pdfrwt>
<totfact> 0.17829334E+03</totfact>
</mgrwt>
</event>
<event>
 4    1  0.1361667E-004  0.3987855E+03  0.7818608E-02  0.1044201E+00
         -2   -1    0    0    0  501 -0.00000000000E+00  0.00000000000E+00  0.21843101490E+03  0.21843101491E+03  0.25500000000E-02 0. -1.
          2   -1    0    0  501    0  0.00000000000E+00 -0.00000000000E+00 -0.18201388630E+03  0.18201388632E+03  0.25500000000E-02 0.  1.
    5000001    1    1    2    0    0  0.10246964237E+03  0.31707726309E+02  0.12877152834E+03  0.21027723135E+03  0.12700000000E+03 0.  0.
   -5000001    1    1    2    0    0 -0.10246964237E+03 -0.31707726309E+02 -0.92354399741E+02  0.19016766988E+03  0.12700000000E+03 0.  0.
<mgrwt>
<rscale>  0 0.39878555E+03</rscale>
<asrwt>0</asrwt>
<pdfrwt beam="1">  1        2 0.26001984E-01 0.39878555E+03</pdfrwt>
<pdfrwt beam="2">  1       -2 0.31204431E-01 0.39878555E+03</pdfrwt>
<totfact> 0.19724648E+03</totfact>
</mgrwt>
</event>
<event>
 4    1  0.1361667E-004  0.6102925E+03  0.7818608E-02  0.9884280E-01
          2   -1    0    0  501    0  0.00000000000E+00  0.00000000000E+00  0.18075437340E+04  0.18075437340E+04  0.25500000000E-02 0.  1.
         -2   -1    0    0    0  501 -0.00000000000E+00 -0.00000000000E+00 -0.51514232206E+02  0.51514232269E+02  0.25500000000E-02 0. -1.
    5000001    1    1    2    0    0 -0.21584594849E+03 -0.76745118679E+02  0.40115506913E+03  0.47909672949E+03  0.12700000000E+03 0.  0.
   -5000001    1    1    2    0    0  0.21584594849E+03  0.76745118679E+02  0.13548744326E+04  0.13799612368E+04  0.12700000000E+03 0.  0.
<mgrwt>
<rscale>  0 0.61029248E+03</rscale>
<asrwt>0</asrwt>
<pdfrwt beam="1">  1        2 0.25822061E+00 0.61029248E+03</pdfrwt>
<pdfrwt beam="2">  1       -2 0.73591740E-02 0.61029248E+03</pdfrwt>
<totfact> 0.11587138E+03</totfact>
</mgrwt>
</event>
<event>
 4    1  0.1361667E-004  0.2590013E+03  0.7818608E-02  0.1107745E+00
         -2   -1    0    0    0  501 -0.00000000000E+00  0.00000000000E+00  0.25549403270E+02  0.25549403398E+02  0.25500000000E-02 0. -1.
          2   -1    0    0  501    0  0.00000000000E+00 -0.00000000000E+00 -0.65639195825E+03  0.65639195826E+03  0.25500000000E-02 0.  1.
    5000001    1    1    2    0    0 -0.17572526495E+01 -0.25150818906E+02 -0.32174656690E+03  0.34682200758E+03  0.12700000000E+03 0.  0.
   -5000001    1    1    2    0    0  0.17572526495E+01  0.25150818906E+02 -0.30909598808E+03  0.33511935408E+03  0.12700000000E+03 0.  0.
<mgrwt>
<rscale>  0 0.25900134E+03</rscale>
<asrwt>0</asrwt>
<pdfrwt beam="1">  1        2 0.93770270E-01 0.25900134E+03</pdfrwt>
<pdfrwt beam="2">  1       -2 0.36499152E-02 0.25900134E+03</pdfrwt>
<totfact> 0.15497639E+04</totfact>
</mgrwt>
</event>
<event>
 4    1  0.1361667E-004  0.3463132E+03  0.7818608E-02  0.1064138E+00
          2   -1    0    0  501    0  0.00000000000E+00  0.00000000000E+00  0.22594468009E+04  0.22594468009E+04  0.25500000000E-02 0.  1.
         -2   -1    0    0    0  501 -0.00000000000E+00 -0.00000000000E+00 -0.13270154391E+02  0.13270154636E+02  0.25500000000E-02 0. -1.
    5000001    1    1    2    0    0  0.11007851420E+03 -0.17185849983E+02  0.87391875853E+03  0.89009866265E+03  0.12700000000E+03 0.  0.
   -5000001    1    1    2    0    0 -0.11007851420E+03  0.17185849983E+02  0.13722578879E+04  0.13826182929E+04  0.12700000000E+03 0.  0.
<mgrwt>
<rscale>  0 0.34631320E+03</rscale>
<asrwt>0</asrwt>
<pdfrwt beam="1">  1        2 0.32277806E+00 0.34631320E+03</pdfrwt>
<pdfrwt beam="2">  1       -2 0.18957367E-02 0.34631320E+03</pdfrwt>
<totfact> 0.55161491E+03</totfact>
</mgrwt>
</event>
<event>
 4    1  0.1361667E-004  0.2771653E+03  0.7818608E-02  0.1097247E+00
          2   -1    0    0  501    0  0.00000000000E+00  0.00000000000E+00  0.25719284877E+03  0.25719284878E+03  0.25500000000E-02 0. -1.
         -2   -1    0    0    0  501 -0.00000000000E+00 -0.00000000000E+00 -0.74672184249E+02  0.74672184293E+02  0.25500000000E-02 0.  1.
    5000001    1    1    2    0    0  0.53587870600E+02  0.14249842589E+02  0.89826548367E+02  0.16514395745E+03  0.12700000000E+03 0.  0.
   -5000001    1    1    2    0    0 -0.53587870600E+02 -0.14249842589E+02  0.92694116152E+02  0.16672107563E+03  0.12700000000E+03 0.  0.
<mgrwt>
<rscale>  0 0.27716531E+03</rscale>
<asrwt>0</asrwt>
<pdfrwt beam="1">  1        2 0.36741836E-01 0.27716531E+03</pdfrwt>
<pdfrwt beam="2">  1       -2 0.10667455E-01 0.27716531E+03</pdfrwt>
<totfact> 0.83218809E+03</totfact>
</mgrwt>
</event>
<event>
 4    1  0.1361667E-004  0.2971303E+03  0.7818608E-02  0.1086684E+00
         -2   -1    0    0    0  501 -0.00000000000E+00  0.00000000000E+00  0.22401659127E+02  0.22401659272E+02  0.25500000000E-02 0. -1.
          2   -1    0    0  501    0  0.00000000000E+00 -0.00000000000E+00 -0.98526656377E+03  0.98526656378E+03  0.25500000000E-02 0.  1.
    5000001    1    1    2    0    0  0.79209621438E+01 -0.76516561425E+02 -0.49841622349E+03  0.52006274395E+03  0.12700000000E+03 0.  0.
   -5000001    1    1    2    0    0 -0.79209621438E+01  0.76516561425E+02 -0.46444868116E+03  0.48760547910E+03  0.12700000000E+03 0.  0.
<mgrwt>
<rscale>  0 0.29713031E+03</rscale>
<asrwt>0</asrwt>
<pdfrwt beam="1">  1        2 0.14075234E+00 0.29713031E+03</pdfrwt>
<pdfrwt beam="2">  1       -2 0.32002376E-02 0.29713031E+03</pdfrwt>
<totfact> 0.11430982E+04</totfact>
</mgrwt>
</event>
<event>
 4    1  0.1361667E-004  0.6182909E+03  0.7818608E-02  0.9868169E-01
         -2   -1    0    0    0  501 -0.00000000000E+00  0.00000000000E+00  0.93571379165E+03  0.93571379165E+03  0.25500000000E-02 0. -1.
          2   -1    0    0  501    0  0.00000000000E+00 -0.00000000000E+00 -0.10213688951E+03  0.10213688954E+03  0.25500000000E-02 0.  1.
    5000001    1    1    2    0    0 -0.47554760905E+02 -0.24696702207E+03  0.63035588908E+03  0.69045761070E+03  0.12700000000E+03 0.  0.
   -5000001    1    1    2    0    0  0.47554760905E+02  0.24696702207E+03  0.20322101307E+03  0.34739307049E+03  0.12700000000E+03 0.  0.
<mgrwt>
<rscale>  0 0.61829086E+03</rscale>
<asrwt>0</asrwt>
<pdfrwt beam="1">  1        2 0.14590984E-01 0.61829086E+03</pdfrwt>
<pdfrwt beam="2">  1       -2 0.13367340E+00 0.61829086E+03</pdfrwt>
<totfact> 0.17016837E+02</totfact>
</mgrwt>
</event>
<event>
 4    1  0.1361667E-004  0.2975007E+03  0.7818608E-02  0.1086497E+00
          2   -1    0    0  501    0  0.00000000000E+00  0.00000000000E+00  0.28109096799E+03  0.28109096800E+03  0.25500000000E-02 0.  1.
         -2   -1    0    0    0  501 -0.00000000000E+00 -0.00000000000E+00 -0.78717091642E+02  0.78717091684E+02  0.25500000000E-02 0. -1.
    5000001    1    1    2    0    0 -0.73627438357E+02 -0.11140170711E+02  0.12691583749E+03  0.19437523733E+03  0.12700000000E+03 0.  0.
   -5000001    1    1    2    0    0  0.73627438357E+02  0.11140170711E+02  0.75458038857E+02  0.16543282235E+03  0.12700000000E+03 0.  0.
<mgrwt>
<rscale>  0 0.29750068E+03</rscale>
<asrwt>0</asrwt>
<pdfrwt beam="1">  1        2 0.40155852E-01 0.29750068E+03</pdfrwt>
<pdfrwt beam="2">  1       -2 0.11245299E-01 0.29750068E+03</pdfrwt>
<totfact> 0.69644562E+03</totfact>
</mgrwt>
</event>
<event>
 4    1  0.1361667E-004  0.4658369E+03  0.7818608E-02  0.1023102E+00
          2   -1    0    0  501    0  0.00000000000E+00  0.00000000000E+00  0.50450970462E+03  0.50450970462E+03  0.25500000000E-02 0.  1.
         -2   -1    0    0    0  501 -0.00000000000E+00 -0.00000000000E+00 -0.10753211974E+03  0.10753211977E+03  0.25500000000E-02 0. -1.
    5000001    1    1    2    0    0  0.19475825484E+03  0.66251656358E+01  0.21443615591E+03  0.31636456125E+03  0.12700000000E+03 0.  0.
   -5000001    1    1    2    0    0 -0.19475825484E+03 -0.66251656358E+01  0.18254142897E+03  0.29567726314E+03  0.12700000000E+03 0.  0.
<mgrwt>
<rscale>  0 0.46583687E+03</rscale>
<asrwt>0</asrwt>
<pdfrwt beam="1">  1        2 0.72072816E-01 0.46583687E+03</pdfrwt>
<pdfrwt beam="2">  1       -2 0.15361731E-01 0.46583687E+03</pdfrwt>
<totfact> 0.22202804E+03</totfact>
</mgrwt>
</event>
<event>
 4    1  0.1361667E-004  0.4352992E+03  0.7818608E-02  0.1032199E+00
         -2   -1    0    0    0  501 -0.00000000000E+00  0.00000000000E+00  0.54119698139E+02  0.54119698199E+02  0.25500000000E-02 0. -1.
          2   -1    0    0  501    0  0.00000000000E+00 -0.00000000000E+00 -0.87530715505E+03  0.87530715505E+03  0.25500000000E-02 0.  1.
    5000001    1    1    2    0    0  0.11929213571E+03 -0.46946127914E+02 -0.15077367779E+03  0.23515155641E+03  0.12700000000E+03 0.  0.
   -5000001    1    1    2    0    0 -0.11929213571E+03  0.46946127914E+02 -0.67041377912E+03  0.69427529684E+03  0.12700000000E+03 0.  0.
<mgrwt>
<rscale>  0 0.43529925E+03</rscale>
<asrwt>0</asrwt>
<pdfrwt beam="1">  1        2 0.12504387E+00 0.43529925E+03</pdfrwt>
<pdfrwt beam="2">  1       -2 0.77313860E-02 0.43529925E+03</pdfrwt>
<totfact> 0.34890702E+03</totfact>
</mgrwt>
</event>
<event>
 4    1  0.1361667E-004  0.6335878E+03  0.7818608E-02  0.9838072E-01
         -2   -1    0    0    0  501 -0.00000000000E+00  0.00000000000E+00  0.29049986477E+02  0.29049986589E+02  0.25500000000E-02 0. -1.
          2   -1    0    0  501    0  0.00000000000E+00 -0.00000000000E+00 -0.34546790589E+04  0.34546790589E+04  0.25500000000E-02 0.  1.
    5000001    1    1    2    0    0 -0.28721006082E+03 -0.25078319327E+02 -0.18960726081E+04  0.19220663039E+04  0.12700000000E+03 0.  0.
   -5000001    1    1    2    0    0  0.28721006082E+03  0.25078319327E+02 -0.15295564643E+04  0.15616627417E+04  0.12700000000E+03 0.  0.
<mgrwt>
<rscale>  0 0.63358782E+03</rscale>
<asrwt>0</asrwt>
<pdfrwt beam="1">  1        2 0.49352532E+00 0.63358782E+03</pdfrwt>
<pdfrwt beam="2">  1       -2 0.41500003E-02 0.63358782E+03</pdfrwt>
<totfact> 0.38064717E+02</totfact>
</mgrwt>
</event>
<event>
 4    1  0.1361667E-004  0.4906455E+03  0.7818608E-02  0.1016250E+00
          2   -1    0    0  501    0  0.00000000000E+00  0.00000000000E+00  0.12594363595E+04  0.12594363595E+04  0.25500000000E-02 0.  1.
         -2   -1    0    0    0  501 -0.00000000000E+00 -0.00000000000E+00 -0.47785868622E+02  0.47785868690E+02  0.25500000000E-02 0. -1.
    5000001    1    1    2    0    0  0.17457429748E+03 -0.10992361298E+03  0.70883632259E+03  0.74909099464E+03  0.12700000000E+03 0.  0.
   -5000001    1    1    2    0    0 -0.17457429748E+03  0.10992361298E+03  0.50281416827E+03  0.55813123353E+03  0.12700000000E+03 0.  0.
<mgrwt>
<rscale>  0 0.49064554E+03</rscale>
<asrwt>0</asrwt>
<pdfrwt beam="1">  1        2 0.17991943E+00 0.49064554E+03</pdfrwt>
<pdfrwt beam="2">  1       -2 0.68265544E-02 0.49064554E+03</pdfrwt>
<totfact> 0.25230074E+03</totfact>
</mgrwt>
</event>
<event>
 4    1  0.1361667E-004  0.4004190E+03  0.7818608E-02  0.1043635E+00
         -2   -1    0    0    0  501 -0.00000000000E+00  0.00000000000E+00  0.14508314239E+03  0.14508314242E+03  0.25500000000E-02 0. -1.
          2   -1    0    0  501    0  0.00000000000E+00 -0.00000000000E+00 -0.27628181769E+03  0.27628181770E+03  0.25500000000E-02 0.  1.
    5000001    1    1    2    0    0 -0.10294762143E+01 -0.11964908347E+03 -0.16890743293E+03  0.24284909696E+03  0.12700000000E+03 0.  0.
   -5000001    1    1    2    0    0  0.10294762143E+01  0.11964908347E+03  0.37708757630E+02  0.17851586316E+03  0.12700000000E+03 0.  0.
<mgrwt>
<rscale>  0 0.40041895E+03</rscale>
<asrwt>0</asrwt>
<pdfrwt beam="1">  1        2 0.39468831E-01 0.40041895E+03</pdfrwt>
<pdfrwt beam="2">  1       -2 0.20726163E-01 0.40041895E+03</pdfrwt>
<totfact> 0.25808652E+03</totfact>
</mgrwt>
</event>
<event>
 4    1  0.1361667E-004  0.4394371E+03  0.7818608E-02  0.1030920E+00
         -2   -1    0    0    0  501 -0.00000000000E+00  0.00000000000E+00  0.19632532171E+02  0.19632532337E+02  0.25500000000E-02 0. -1.
          2   -1    0    0  501    0  0.00000000000E+00 -0.00000000000E+00 -0.24589925488E+04  0.24589925488E+04  0.25500000000E-02 0.  1.
    5000001    1    1    2    0    0  0.15249452789E+03  0.84477269035E+02 -0.98330119594E+03  0.10066783160E+04  0.12700000000E+03 0.  0.
   -5000001    1    1    2    0    0 -0.15249452789E+03 -0.84477269035E+02 -0.14560588207E+04  0.14719467651E+04  0.12700000000E+03 0.  0.
<mgrwt>
<rscale>  0 0.43943714E+03</rscale>
<asrwt>0</asrwt>
<pdfrwt beam="1">  1        2 0.35128445E+00 0.43943714E+03</pdfrwt>
<pdfrwt beam="2">  1       -2 0.28046490E-02 0.43943714E+03</pdfrwt>
<totfact> 0.24351917E+03</totfact>
</mgrwt>
</event>
<event>
 4    1  0.1361667E-004  0.3799137E+03  0.7818608E-02  0.1050966E+00
          2   -1    0    0  501    0  0.00000000000E+00  0.00000000000E+00  0.48224040494E+03  0.48224040495E+03  0.25500000000E-02 0.  1.
         -2   -1    0    0    0  501 -0.00000000000E+00 -0.00000000000E+00 -0.74824942393E+02  0.74824942437E+02  0.25500000000E-02 0. -1.
    5000001    1    1    2    0    0 -0.86018860078E+02 -0.88580602920E+02  0.10308913332E+03  0.20494422878E+03  0.12700000000E+03 0.  0.
   -5000001    1    1    2    0    0  0.86018860078E+02  0.88580602920E+02  0.30432632923E+03  0.35212111860E+03  0.12700000000E+03 0.  0.
<mgrwt>
<rscale>  0 0.37991373E+03</rscale>
<asrwt>0</asrwt>
<pdfrwt beam="1">  1        2 0.68891486E-01 0.37991373E+03</pdfrwt>
<pdfrwt beam="2">  1       -2 0.10689278E-01 0.37991373E+03</pdfrwt>
<totfact> 0.42262833E+03</totfact>
</mgrwt>
</event>
<event>
 4    1  0.1361667E-004  0.3953008E+03  0.7818608E-02  0.1045419E+00
         -2   -1    0    0    0  501 -0.00000000000E+00  0.00000000000E+00  0.12161874865E+03  0.12161874868E+03  0.25500000000E-02 0. -1.
          2   -1    0    0  501    0  0.00000000000E+00 -0.00000000000E+00 -0.32121428868E+03  0.32121428869E+03  0.25500000000E-02 0.  1.
    5000001    1    1    2    0    0 -0.18900908532E+02 -0.14053967358E+03 -0.40224043817E+02  0.19456520217E+03  0.12700000000E+03 0.  0.
   -5000001    1    1    2    0    0  0.18900908532E+02  0.14053967358E+03 -0.15937149621E+03  0.24826783521E+03  0.12700000000E+03 0.  0.
<mgrwt>
<rscale>  0 0.39530080E+03</rscale>
<asrwt>0</asrwt>
<pdfrwt beam="1">  1        2 0.45887755E-01 0.39530080E+03</pdfrwt>
<pdfrwt beam="2">  1       -2 0.17374107E-01 0.39530080E+03</pdfrwt>
<totfact> 0.29624854E+03</totfact>
</mgrwt>
</event>
<event>
 4    1  0.1361667E-004  0.6193464E+03  0.7818608E-02  0.9866062E-01
         -2   -1    0    0    0  501 -0.00000000000E+00  0.00000000000E+00  0.27326291777E+03  0.27326291778E+03  0.25500000000E-02 0. -1.
          2   -1    0    0  501    0  0.00000000000E+00 -0.00000000000E+00 -0.35093488095E+03  0.35093488096E+03  0.25500000000E-02 0.  1.
    5000001    1    1    2    0    0  0.23142056275E+03 -0.13315072097E+03 -0.13166555219E+03  0.32365013362E+03  0.12700000000E+03 0.  0.
   -5000001    1    1    2    0    0 -0.23142056275E+03  0.13315072097E+03  0.53993589001E+02  0.30054766512E+03  0.12700000000E+03 0.  0.
<mgrwt>
<rscale>  0 0.61934640E+03</rscale>
<asrwt>0</asrwt>
<pdfrwt beam="1">  1        2 0.50133554E-01 0.61934640E+03</pdfrwt>
<pdfrwt beam="2">  1       -2 0.39037560E-01 0.61934640E+03</pdfrwt>
<totfact> 0.62484900E+02</totfact>
</mgrwt>
</event>
<event>
 4    1  0.1361667E-004  0.4155681E+03  0.7818608E-02  0.1038518E+00
          2   -1    0    0  501    0  0.00000000000E+00  0.00000000000E+00  0.23787146131E+04  0.23787146131E+04  0.25500000000E-02 0.  1.
         -2   -1    0    0    0  501 -0.00000000000E+00 -0.00000000000E+00 -0.18150226405E+02  0.18150226585E+02  0.25500000000E-02 0. -1.
    5000001    1    1    2    0    0 -0.70766299456E+01  0.15111422281E+03  0.80829474516E+03  0.83207871147E+03  0.12700000000E+03 0.  0.
   -5000001    1    1    2    0    0  0.70766299456E+01 -0.15111422281E+03  0.15522696415E+04  0.15647861282E+04  0.12700000000E+03 0.  0.
<mgrwt>
<rscale>  0 0.41556809E+03</rscale>
<asrwt>0</asrwt>
<pdfrwt beam="1">  1        2 0.33981610E+00 0.41556809E+03</pdfrwt>
<pdfrwt beam="2">  1       -2 0.25928916E-02 0.41556809E+03</pdfrwt>
<totfact> 0.30110460E+03</totfact>
</mgrwt>
</event>
<event>
 4    1  0.1361667E-004  0.3240988E+03  0.7818608E-02  0.1073778E+00
         -2   -1    0    0    0  501 -0.00000000000E+00  0.00000000000E+00  0.94123316269E+01  0.94123319723E+01  0.25500000000E-02 0. -1.
          2   -1    0    0  501    0  0.00000000000E+00 -0.00000000000E+00 -0.27899577692E+04  0.27899577692E+04  0.25500000000E-02 0.  1.
    5000001    1    1    2    0    0  0.72330329180E+02  0.67609907479E+02 -0.15467579794E+04  0.15551180093E+04  0.12700000000E+03 0.  0.
   -5000001    1    1    2    0    0 -0.72330329180E+02 -0.67609907479E+02 -0.12337874582E+04  0.12442520918E+04  0.12700000000E+03 0.  0.
<mgrwt>
<rscale>  0 0.32409880E+03</rscale>
<asrwt>0</asrwt>
<pdfrwt beam="1">  1        2 0.39856487E+00 0.32409880E+03</pdfrwt>
<pdfrwt beam="2">  1       -2 0.13446206E-02 0.32409880E+03</pdfrwt>
<totfact> 0.49411261E+03</totfact>
</mgrwt>
</event>
<event>
 4    1  0.1361667E-004  0.3486966E+03  0.7818608E-02  0.1063151E+00
          2   -1    0    0  501    0  0.00000000000E+00  0.00000000000E+00  0.58137837583E+03  0.58137837584E+03  0.25500000000E-02 0.  1.
         -2   -1    0    0    0  501 -0.00000000000E+00 -0.00000000000E+00 -0.52284922866E+02  0.52284922928E+02  0.25500000000E-02 0. -1.
    5000001    1    1    2    0    0 -0.93028703582E+02 -0.73849534437E+02  0.24154380594E+03  0.29762476983E+03  0.12700000000E+03 0.  0.
   -5000001    1    1    2    0    0  0.93028703582E+02  0.73849534437E+02  0.28754964703E+03  0.33603852894E+03  0.12700000000E+03 0.  0.
<mgrwt>
<rscale>  0 0.34869656E+03</rscale>
<asrwt>0</asrwt>
<pdfrwt beam="1">  1        2 0.83054041E-01 0.34869656E+03</pdfrwt>
<pdfrwt beam="2">  1       -2 0.74692758E-02 0.34869656E+03</pdfrwt>
<totfact> 0.60332280E+03</totfact>
</mgrwt>
</event>
<event>
 4    1  0.1361667E-004  0.3996478E+03  0.7818608E-02  0.1043902E+00
          2   -1    0    0  501    0  0.00000000000E+00  0.00000000000E+00  0.22967128889E+04  0.22967128889E+04  0.25500000000E-02 0.  1.
         -2   -1    0    0    0  501 -0.00000000000E+00 -0.00000000000E+00 -0.17385535315E+02  0.17385535502E+02  0.25500000000E-02 0. -1.
    5000001    1    1    2    0    0  0.73588230668E+02 -0.11964919540E+03  0.15090416541E+04  0.15208770073E+04  0.12700000000E+03 0.  0.
   -5000001    1    1    2    0    0 -0.73588230668E+02  0.11964919540E+03  0.77028569946E+03  0.79322141704E+03  0.12700000000E+03 0.  0.
<mgrwt>
<rscale>  0 0.39964776E+03</rscale>
<asrwt>0</asrwt>
<pdfrwt beam="1">  1        2 0.32810150E+00 0.39964776E+03</pdfrwt>
<pdfrwt beam="2">  1       -2 0.24836505E-02 0.39964776E+03</pdfrwt>
<totfact> 0.35320445E+03</totfact>
</mgrwt>
</event>
<event>
 4    1  0.1361667E-004  0.3813708E+03  0.7818608E-02  0.1050428E+00
          2   -1    0    0  501    0  0.00000000000E+00  0.00000000000E+00  0.41695173110E+03  0.41695173111E+03  0.25500000000E-02 0.  1.
         -2   -1    0    0    0  501 -0.00000000000E+00 -0.00000000000E+00 -0.87206562388E+02  0.87206562425E+02  0.25500000000E-02 0. -1.
    5000001    1    1    2    0    0 -0.63184921678E+02 -0.94452093153E+02  0.27796340798E+03  0.32604629795E+03  0.12700000000E+03 0.  0.
   -5000001    1    1    2    0    0  0.63184921678E+02  0.94452093153E+02  0.51781760736E+02  0.17811199559E+03  0.12700000000E+03 0.  0.
<mgrwt>
<rscale>  0 0.38137083E+03</rscale>
<asrwt>0</asrwt>
<pdfrwt beam="1">  1        2 0.59564534E-01 0.38137083E+03</pdfrwt>
<pdfrwt beam="2">  1       -2 0.12458080E-01 0.38137083E+03</pdfrwt>
<totfact> 0.38717283E+03</totfact>
</mgrwt>
</event>
<event>
 4    1  0.1361667E-004  0.4278857E+03  0.7818608E-02  0.1034530E+00
          2   -1    0    0  501    0  0.00000000000E+00  0.00000000000E+00  0.20612161466E+03  0.20612161468E+03  0.25500000000E-02 0.  1.
         -2   -1    0    0    0  501 -0.00000000000E+00 -0.00000000000E+00 -0.22206081487E+03  0.22206081488E+03  0.25500000000E-02 0. -1.
    5000001    1    1    2    0    0  0.14455378585E+03 -0.71259406651E+01  0.85347196713E+02  0.21061747321E+03  0.12700000000E+03 0.  0.
   -5000001    1    1    2    0    0 -0.14455378585E+03  0.71259406651E+01 -0.10128639692E+03  0.21756495636E+03  0.12700000000E+03 0.  0.
<mgrwt>
<rscale>  0 0.42788566E+03</rscale>
<asrwt>0</asrwt>
<pdfrwt beam="1">  1        2 0.29445945E-01 0.42788566E+03</pdfrwt>
<pdfrwt beam="2">  1       -2 0.31722973E-01 0.42788566E+03</pdfrwt>
<totfact> 0.16658799E+03</totfact>
</mgrwt>
</event>
<event>
 4    1  0.1361667E-004  0.3646641E+03  0.7818608E-02  0.1056752E+00
          2   -1    0    0  501    0  0.00000000000E+00  0.00000000000E+00  0.35439082664E+02  0.35439082755E+02  0.25500000000E-02 0.  1.
         -2   -1    0    0    0  501 -0.00000000000E+00 -0.00000000000E+00 -0.93808796331E+03  0.93808796332E+03  0.25500000000E-02 0. -1.
    5000001    1    1    2    0    0 -0.39005817053E+02  0.30065757575E+02 -0.77489900924E+03  0.78678006969E+03  0.12700000000E+03 0.  0.
   -5000001    1    1    2    0    0  0.39005817053E+02 -0.30065757575E+02 -0.12774987141E+03  0.18674697638E+03  0.12700000000E+03 0.  0.
<mgrwt>
<rscale>  0 0.36466410E+03</rscale>
<asrwt>0</asrwt>
<pdfrwt beam="1">  1        2 0.50627267E-02 0.36466410E+03</pdfrwt>
<pdfrwt beam="2">  1       -2 0.13401255E+00 0.36466410E+03</pdfrwt>
<totfact> 0.65754938E+02</totfact>
</mgrwt>
</event>
<event>
 4    1  0.1361667E-004  0.3828149E+03  0.7818608E-02  0.1049898E+00
          2   -1    0    0  501    0  0.00000000000E+00  0.00000000000E+00  0.16541599681E+04  0.16541599681E+04  0.25500000000E-02 0.  1.
         -2   -1    0    0    0  501 -0.00000000000E+00 -0.00000000000E+00 -0.22148291269E+02  0.22148291416E+02  0.25500000000E-02 0. -1.
    5000001    1    1    2    0    0 -0.21299351849E+02  0.12323202238E+03  0.51048464578E+03  0.54070635960E+03  0.12700000000E+03 0.  0.
   -5000001    1    1    2    0    0  0.21299351849E+02 -0.12323202238E+03  0.11215270311E+04  0.11356018999E+04  0.12700000000E+03 0.  0.
<mgrwt>
<rscale>  0 0.38281493E+03</rscale>
<asrwt>0</asrwt>
<pdfrwt beam="1">  1        2 0.23630857E+00 0.38281493E+03</pdfrwt>
<pdfrwt beam="2">  1       -2 0.31640416E-02 0.38281493E+03</pdfrwt>
<totfact> 0.51198867E+03</totfact>
</mgrwt>
</event>
<event>
 4    1  0.1361667E-004  0.3718068E+03  0.7818608E-02  0.1054004E+00
          2   -1    0    0  501    0  0.00000000000E+00  0.00000000000E+00  0.68834825814E+03  0.68834825815E+03  0.25500000000E-02 0.  1.
         -2   -1    0    0    0  501 -0.00000000000E+00 -0.00000000000E+00 -0.50207241276E+02  0.50207241340E+02  0.25500000000E-02 0. -1.
    5000001    1    1    2    0    0  0.91869012321E+02  0.99853732854E+02  0.32803875443E+03  0.37702666722E+03  0.12700000000E+03 0.  0.
   -5000001    1    1    2    0    0 -0.91869012321E+02 -0.99853732854E+02  0.31010226244E+03  0.36152883227E+03  0.12700000000E+03 0.  0.
<mgrwt>
<rscale>  0 0.37180676E+03</rscale>
<asrwt>0</asrwt>
<pdfrwt beam="1">  1        2 0.98335461E-01 0.37180676E+03</pdfrwt>
<pdfrwt beam="2">  1       -2 0.71724634E-02 0.37180676E+03</pdfrwt>
<totfact> 0.52843527E+03</totfact>
</mgrwt>
</event>
<event>
 4    1  0.1361667E-004  0.3867290E+03  0.7818608E-02  0.1048474E+00
          2   -1    0    0  501    0  0.00000000000E+00  0.00000000000E+00  0.10745037711E+04  0.10745037711E+04  0.25500000000E-02 0.  1.
         -2   -1    0    0    0  501 -0.00000000000E+00 -0.00000000000E+00 -0.34797307567E+02  0.34797307661E+02  0.25500000000E-02 0. -1.
    5000001    1    1    2    0    0  0.98086280901E+02 -0.77056079367E+02  0.30324900323E+03  0.35163548716E+03  0.12700000000E+03 0.  0.
   -5000001    1    1    2    0    0 -0.98086280901E+02  0.77056079367E+02  0.73645746028E+03  0.75766559158E+03  0.12700000000E+03 0.  0.
<mgrwt>
<rscale>  0 0.38672904E+03</rscale>
<asrwt>0</asrwt>
<pdfrwt beam="1">  1        2 0.15350055E+00 0.38672904E+03</pdfrwt>
<pdfrwt beam="2">  1       -2 0.49710437E-02 0.38672904E+03</pdfrwt>
<totfact> 0.52339854E+03</totfact>
</mgrwt>
</event>
<event>
 4    1  0.1361667E-004  0.7549483E+03  0.7818608E-02  0.9627619E-01
         -2   -1    0    0    0  501 -0.00000000000E+00  0.00000000000E+00  0.20787199968E+03  0.20787199970E+03  0.25500000000E-02 0. -1.
          2   -1    0    0  501    0  0.00000000000E+00 -0.00000000000E+00 -0.68545424049E+03  0.68545424049E+03  0.25500000000E-02 0.  1.
    5000001    1    1    2    0    0 -0.25974365866E+03  0.22782084262E+03 -0.13986996685E+03  0.39377876044E+03  0.12700000000E+03 0.  0.
   -5000001    1    1    2    0    0  0.25974365866E+03 -0.22782084262E+03 -0.33771227396E+03  0.49954747975E+03  0.12700000000E+03 0.  0.
<mgrwt>
<rscale>  0 0.75494833E+03</rscale>
<asrwt>0</asrwt>
<pdfrwt beam="1">  1        2 0.97922033E-01 0.75494833E+03</pdfrwt>
<pdfrwt beam="2">  1       -2 0.29696000E-01 0.75494833E+03</pdfrwt>
<totfact> 0.48439279E+02</totfact>
</mgrwt>
</event>
<event>
 4    1  0.1361667E-004  0.3385706E+03  0.7818608E-02  0.1067406E+00
         -2   -1    0    0    0  501 -0.00000000000E+00  0.00000000000E+00  0.90650351843E+02  0.90650351879E+02  0.25500000000E-02 0. -1.
          2   -1    0    0  501    0  0.00000000000E+00 -0.00000000000E+00 -0.31613236807E+03  0.31613236808E+03  0.25500000000E-02 0.  1.
    5000001    1    1    2    0    0  0.45214521375E+02  0.78397313705E+02 -0.33607762405E+02  0.15952734384E+03  0.12700000000E+03 0.  0.
   -5000001    1    1    2    0    0 -0.45214521375E+02 -0.78397313705E+02 -0.19187425383E+03  0.24725537612E+03  0.12700000000E+03 0.  0.
<mgrwt>
<rscale>  0 0.33857059E+03</rscale>
<asrwt>0</asrwt>
<pdfrwt beam="1">  1        2 0.45161767E-01 0.33857059E+03</pdfrwt>
<pdfrwt beam="2">  1       -2 0.12950050E-01 0.33857059E+03</pdfrwt>
<totfact> 0.48989725E+03</totfact>
</mgrwt>
</event>
<event>
 4    1  0.1361667E-004  0.4516913E+03  0.7818608E-02  0.1027219E+00
          2   -1    0    0  501    0  0.00000000000E+00  0.00000000000E+00  0.75199267949E+03  0.75199267950E+03  0.25500000000E-02 0.  1.
         -2   -1    0    0    0  501 -0.00000000000E+00 -0.00000000000E+00 -0.67828122779E+02  0.67828122827E+02  0.25500000000E-02 0. -1.
    5000001    1    1    2    0    0  0.15128962194E+03  0.10868681475E+03  0.36615268868E+03  0.42999786608E+03  0.12700000000E+03 0.  0.
   -5000001    1    1    2    0    0 -0.15128962194E+03 -0.10868681475E+03  0.31801186803E+03  0.38982293624E+03  0.12700000000E+03 0.  0.
<mgrwt>
<rscale>  0 0.45169127E+03</rscale>
<asrwt>0</asrwt>
<pdfrwt beam="1">  1        2 0.10742753E+00 0.45169127E+03</pdfrwt>
<pdfrwt beam="2">  1       -2 0.96897312E-02 0.45169127E+03</pdfrwt>
<totfact> 0.29551221E+03</totfact>
</mgrwt>
</event>
<event>
 4    1  0.1361667E-004  0.3083139E+03  0.7818608E-02  0.1081157E+00
          2   -1    0    0  501    0  0.00000000000E+00  0.00000000000E+00  0.11044978584E+03  0.11044978587E+03  0.25500000000E-02 0.  1.
         -2   -1    0    0    0  501 -0.00000000000E+00 -0.00000000000E+00 -0.21515993131E+03  0.21515993133E+03  0.25500000000E-02 0. -1.
    5000001    1    1    2    0    0 -0.42532786879E+02 -0.56967859079E+02 -0.10600852508E+03  0.18005883016E+03  0.12700000000E+03 0.  0.
   -5000001    1    1    2    0    0  0.42532786879E+02  0.56967859079E+02  0.12983796084E+01  0.14555088704E+03  0.12700000000E+03 0.  0.
<mgrwt>
<rscale>  0 0.30831392E+03</rscale>
<asrwt>0</asrwt>
<pdfrwt beam="1">  1        2 0.15778541E-01 0.30831392E+03</pdfrwt>
<pdfrwt beam="2">  1       -2 0.30737133E-01 0.30831392E+03</pdfrwt>
<totfact> 0.35873597E+03</totfact>
</mgrwt>
</event>
<event>
 4    1  0.1361667E-004  0.3539690E+03  0.7818608E-02  0.1060998E+00
          2   -1    0    0  501    0  0.00000000000E+00  0.00000000000E+00  0.53465454543E+03  0.53465454544E+03  0.25500000000E-02 0.  1.
         -2   -1    0    0    0  501 -0.00000000000E+00 -0.00000000000E+00 -0.58586448791E+02  0.58586448847E+02  0.25500000000E-02 0. -1.
    5000001    1    1    2    0    0  0.11090145729E+03  0.37350458684E+02  0.30295099108E+03  0.34871549003E+03  0.12700000000E+03 0.  0.
   -5000001    1    1    2    0    0 -0.11090145729E+03 -0.37350458684E+02  0.17311710556E+03  0.24452550425E+03  0.12700000000E+03 0.  0.
<mgrwt>
<rscale>  0 0.35396899E+03</rscale>
<asrwt>0</asrwt>
<pdfrwt beam="1">  1        2 0.76379217E-01 0.35396899E+03</pdfrwt>
<pdfrwt beam="2">  1       -2 0.83694932E-02 0.35396899E+03</pdfrwt>
<totfact> 0.55516711E+03</totfact>
</mgrwt>
</event>
<event>
 4    1  0.1361667E-004  0.8272246E+03  0.7818608E-02  0.9521426E-01
          2   -1    0    0  501    0  0.00000000000E+00  0.00000000000E+00  0.66508619460E+03  0.66508619460E+03  0.25500000000E-02 0.  1.
         -2   -1    0    0    0  501 -0.00000000000E+00 -0.00000000000E+00 -0.25722247939E+03  0.25722247940E+03  0.25500000000E-02 0. -1.
    5000001    1    1    2    0    0 -0.32302067815E+03  0.21803707564E+03  0.26564370611E+03  0.48844457563E+03  0.12700000000E+03 0.  0.
   -5000001    1    1    2    0    0  0.32302067815E+03 -0.21803707564E+03  0.14222000909E+03  0.43386409837E+03  0.12700000000E+03 0.  0.
<mgrwt>
<rscale>  0 0.82722456E+03</rscale>
<asrwt>0</asrwt>
<pdfrwt beam="1">  1        2 0.95012315E-01 0.82722456E+03</pdfrwt>
<pdfrwt beam="2">  1       -2 0.36746068E-01 0.82722456E+03</pdfrwt>
<totfact> 0.33547947E+02</totfact>
</mgrwt>
</event>
<event>
 4    1  0.1361667E-004  0.6401188E+03  0.7818608E-02  0.9825499E-01
          2   -1    0    0  501    0  0.00000000000E+00  0.00000000000E+00  0.80211318101E+02  0.80211318141E+02  0.25500000000E-02 0.  1.
         -2   -1    0    0    0  501 -0.00000000000E+00 -0.00000000000E+00 -0.12771017457E+04  0.12771017457E+04  0.25500000000E-02 0. -1.
    5000001    1    1    2    0    0 -0.82701672881E+02  0.23720591862E+03 -0.27545478380E+03  0.39384077042E+03  0.12700000000E+03 0.  0.
   -5000001    1    1    2    0    0  0.82701672881E+02 -0.23720591862E+03 -0.92143564380E+03  0.96347229342E+03  0.12700000000E+03 0.  0.
<mgrwt>
<rscale>  0 0.64011878E+03</rscale>
<asrwt>0</asrwt>
<pdfrwt beam="1">  1        2 0.11458761E-01 0.64011878E+03</pdfrwt>
<pdfrwt beam="2">  1       -2 0.18244309E+00 0.64011878E+03</pdfrwt>
<totfact> 0.99566394E+01</totfact>
</mgrwt>
</event>
<event>
 4    1  0.1361667E-004  0.2800197E+03  0.7818608E-02  0.1095678E+00
         -2   -1    0    0    0  501 -0.00000000000E+00  0.00000000000E+00  0.32617258581E+02  0.32617258681E+02  0.25500000000E-02 0. -1.
          2   -1    0    0  501    0  0.00000000000E+00 -0.00000000000E+00 -0.60099357664E+03  0.60099357665E+03  0.25500000000E-02 0.  1.
    5000001    1    1    2    0    0 -0.36513115723E+02 -0.45143694225E+02 -0.30710803432E+03  0.33736553691E+03  0.12700000000E+03 0.  0.
   -5000001    1    1    2    0    0  0.36513115723E+02  0.45143694225E+02 -0.26126828374E+03  0.29624529842E+03  0.12700000000E+03 0.  0.
<mgrwt>
<rscale>  0 0.28001973E+03</rscale>
<asrwt>0</asrwt>
<pdfrwt beam="1">  1        2 0.85856218E-01 0.28001973E+03</pdfrwt>
<pdfrwt beam="2">  1       -2 0.46596088E-02 0.28001973E+03</pdfrwt>
<totfact> 0.11919075E+04</totfact>
</mgrwt>
</event>
<event>
 4    1  0.1361667E-004  0.4163545E+03  0.7818608E-02  0.1038259E+00
          2   -1    0    0  501    0  0.00000000000E+00  0.00000000000E+00  0.30468596440E+03  0.30468596441E+03  0.25500000000E-02 0.  1.
         -2   -1    0    0    0  501 -0.00000000000E+00 -0.00000000000E+00 -0.14223752459E+03  0.14223752461E+03  0.25500000000E-02 0. -1.
    5000001    1    1    2    0    0 -0.63133623009E+02 -0.14947601178E+03  0.49384229345E+02  0.21188849559E+03  0.12700000000E+03 0.  0.
   -5000001    1    1    2    0    0  0.63133623009E+02  0.14947601178E+03  0.11306421046E+03  0.23503499344E+03  0.12700000000E+03 0.  0.
<mgrwt>
<rscale>  0 0.41635455E+03</rscale>
<asrwt>0</asrwt>
<pdfrwt beam="1">  1        2 0.43526566E-01 0.41635455E+03</pdfrwt>
<pdfrwt beam="2">  1       -2 0.20319646E-01 0.41635455E+03</pdfrwt>
<totfact> 0.24018504E+03</totfact>
</mgrwt>
</event>
<event>
 4    1  0.1361667E-004  0.3007057E+03  0.7818608E-02  0.1084888E+00
          2   -1    0    0  501    0  0.00000000000E+00  0.00000000000E+00  0.21015586207E+04  0.21015586207E+04  0.25500000000E-02 0.  1.
         -2   -1    0    0    0  501 -0.00000000000E+00 -0.00000000000E+00 -0.10756766305E+02  0.10756766607E+02  0.25500000000E-02 0. -1.
    5000001    1    1    2    0    0  0.35665099309E+02 -0.22767106145E+01  0.53886511911E+03  0.55478085702E+03  0.12700000000E+03 0.  0.
   -5000001    1    1    2    0    0 -0.35665099309E+02  0.22767106145E+01  0.15519367353E+04  0.15575345303E+04  0.12700000000E+03 0.  0.
<mgrwt>
<rscale>  0 0.30070567E+03</rscale>
<asrwt>0</asrwt>
<pdfrwt beam="1">  1        2 0.30022287E+00 0.30070567E+03</pdfrwt>
<pdfrwt beam="2">  1       -2 0.15366798E-02 0.30070567E+03</pdfrwt>
<totfact> 0.89853669E+03</totfact>
</mgrwt>
</event>
<event>
 4    1  0.1361667E-004  0.3786395E+03  0.7818608E-02  0.1051438E+00
          2   -1    0    0  501    0  0.00000000000E+00  0.00000000000E+00  0.55708602472E+03  0.55708602473E+03  0.25500000000E-02 0.  1.
         -2   -1    0    0    0  501 -0.00000000000E+00 -0.00000000000E+00 -0.64338306851E+02  0.64338306901E+02  0.25500000000E-02 0. -1.
    5000001    1    1    2    0    0 -0.12306088016E+02 -0.11023323488E+03  0.10509529446E+03  0.19868776206E+03  0.12700000000E+03 0.  0.
   -5000001    1    1    2    0    0  0.12306088016E+02  0.11023323488E+03  0.38765242341E+03  0.42273656957E+03  0.12700000000E+03 0.  0.
<mgrwt>
<rscale>  0 0.37863952E+03</rscale>
<asrwt>0</asrwt>
<pdfrwt beam="1">  1        2 0.79583719E-01 0.37863952E+03</pdfrwt>
<pdfrwt beam="2">  1       -2 0.91911866E-02 0.37863952E+03</pdfrwt>
<totfact> 0.45749907E+03</totfact>
</mgrwt>
</event>
<event>
 4    1  0.1361667E-004  0.3075462E+03  0.7818608E-02  0.1081528E+00
         -2   -1    0    0    0  501 -0.00000000000E+00  0.00000000000E+00  0.56318588388E+02  0.56318588446E+02  0.25500000000E-02 0.  1.
          2   -1    0    0  501    0  0.00000000000E+00 -0.00000000000E+00 -0.41986425612E+03  0.41986425613E+03  0.25500000000E-02 0. -1.
    5000001    1    1    2    0    0 -0.81008713882E+02  0.30897874916E+02 -0.18135784829E+03  0.23777459817E+03  0.12700000000E+03 0.  0.
   -5000001    1    1    2    0    0  0.81008713882E+02 -0.30897874916E+02 -0.18218781944E+03  0.23840824640E+03  0.12700000000E+03 0.  0.
<mgrwt>
<rscale>  0 0.30754617E+03</rscale>
<asrwt>0</asrwt>
<pdfrwt beam="1">  1        2 0.59980606E-01 0.30754617E+03</pdfrwt>
<pdfrwt beam="2">  1       -2 0.80455129E-02 0.30754617E+03</pdfrwt>
<totfact> 0.76864129E+03</totfact>
</mgrwt>
</event>
<event>
 4    1  0.1361667E-004  0.6118352E+03  0.7818608E-02  0.9881152E-01
          2   -1    0    0  501    0  0.00000000000E+00  0.00000000000E+00  0.29299152165E+03  0.29299152166E+03  0.25500000000E-02 0.  1.
         -2   -1    0    0    0  501 -0.00000000000E+00 -0.00000000000E+00 -0.31941392838E+03  0.31941392839E+03  0.25500000000E-02 0. -1.
    5000001    1    1    2    0    0  0.72703515803E+02 -0.25599441106E+03 -0.94758811029E+02  0.30972111967E+03  0.12700000000E+03 0.  0.
   -5000001    1    1    2    0    0 -0.72703515803E+02  0.25599441106E+03  0.68336404299E+02  0.30268433038E+03  0.12700000000E+03 0.  0.
<mgrwt>
<rscale>  0 0.61183518E+03</rscale>
<asrwt>0</asrwt>
<pdfrwt beam="1">  1        2 0.41855932E-01 0.61183518E+03</pdfrwt>
<pdfrwt beam="2">  1       -2 0.45630561E-01 0.61183518E+03</pdfrwt>
<totfact> 0.56164413E+02</totfact>
</mgrwt>
</event>
<event>
 4    1  0.1361667E-004  0.4439511E+03  0.7818608E-02  0.1029541E+00
          2   -1    0    0  501    0  0.00000000000E+00  0.00000000000E+00  0.66867552028E+03  0.66867552029E+03  0.25500000000E-02 0.  1.
         -2   -1    0    0    0  501 -0.00000000000E+00 -0.00000000000E+00 -0.73687689315E+02  0.73687689359E+02  0.25500000000E-02 0. -1.
    5000001    1    1    2    0    0 -0.10443606340E+03  0.14234108270E+03  0.37183097446E+03  0.43076112723E+03  0.12700000000E+03 0.  0.
   -5000001    1    1    2    0    0  0.10443606340E+03 -0.14234108270E+03  0.22315685651E+03  0.31160208242E+03  0.12700000000E+03 0.  0.
<mgrwt>
<rscale>  0 0.44395114E+03</rscale>
<asrwt>0</asrwt>
<pdfrwt beam="1">  1        2 0.95525080E-01 0.44395114E+03</pdfrwt>
<pdfrwt beam="2">  1       -2 0.10526812E-01 0.44395114E+03</pdfrwt>
<totfact> 0.29821477E+03</totfact>
</mgrwt>
</event>
<event>
 4    1  0.1361667E-004  0.4998705E+03  0.7818608E-02  0.1013813E+00
          2   -1    0    0  501    0  0.00000000000E+00  0.00000000000E+00  0.41353507972E+03  0.41353507973E+03  0.25500000000E-02 0.  1.
         -2   -1    0    0    0  501 -0.00000000000E+00 -0.00000000000E+00 -0.15105763018E+03  0.15105763020E+03  0.25500000000E-02 0. -1.
    5000001    1    1    2    0    0 -0.19754722693E+03  0.58730856856E+02  0.61025440776E+02  0.24965441081E+03  0.12700000000E+03 0.  0.
   -5000001    1    1    2    0    0  0.19754722693E+03 -0.58730856856E+02  0.20145200877E+03  0.31493829912E+03  0.12700000000E+03 0.  0.
<mgrwt>
<rscale>  0 0.49987050E+03</rscale>
<asrwt>0</asrwt>
<pdfrwt beam="1">  1        2 0.59076440E-01 0.49987050E+03</pdfrwt>
<pdfrwt beam="2">  1       -2 0.21579661E-01 0.49987050E+03</pdfrwt>
<totfact> 0.15493759E+03</totfact>
</mgrwt>
</event>
<event>
 4    1  0.1361667E-004  0.5370534E+03  0.7818608E-02  0.1004536E+00
          2   -1    0    0  501    0  0.00000000000E+00  0.00000000000E+00  0.75407045250E+03  0.75407045251E+03  0.25500000000E-02 0.  1.
         -2   -1    0    0    0  501 -0.00000000000E+00 -0.00000000000E+00 -0.95623141384E+02  0.95623141418E+02  0.25500000000E-02 0. -1.
    5000001    1    1    2    0    0  0.11513834743E+03  0.12547202658E+03  0.58908750678E+03  0.62622133399E+03  0.12700000000E+03 0.  0.
   -5000001    1    1    2    0    0 -0.11513834743E+03 -0.12547202658E+03  0.69359804342E+02  0.22347225994E+03  0.12700000000E+03 0.  0.
<mgrwt>
<rscale>  0 0.53705339E+03</rscale>
<asrwt>0</asrwt>
<pdfrwt beam="1">  1        2 0.10772435E+00 0.53705339E+03</pdfrwt>
<pdfrwt beam="2">  1       -2 0.13660448E-01 0.53705339E+03</pdfrwt>
<totfact> 0.16815631E+03</totfact>
</mgrwt>
</event>
<event>
 4    1  0.1361667E-004  0.2700874E+03  0.7818608E-02  0.1101230E+00
         -2   -1    0    0    0  501 -0.00000000000E+00  0.00000000000E+00  0.13115214009E+02  0.13115214257E+02  0.25500000000E-02 0. -1.
          2   -1    0    0  501    0  0.00000000000E+00 -0.00000000000E+00 -0.13905074877E+04  0.13905074877E+04  0.25500000000E-02 0.  1.
    5000001    1    1    2    0    0 -0.10002267860E+02 -0.43270932592E+02 -0.74916481631E+03  0.76115001213E+03  0.12700000000E+03 0.  0.
   -5000001    1    1    2    0    0  0.10002267860E+02  0.43270932592E+02 -0.62822745743E+03  0.64247268988E+03  0.12700000000E+03 0.  0.
<mgrwt>
<rscale>  0 0.27008742E+03</rscale>
<asrwt>0</asrwt>
<pdfrwt beam="1">  1        2 0.19864383E+00 0.27008742E+03</pdfrwt>
<pdfrwt beam="2">  1       -2 0.18736029E-02 0.27008742E+03</pdfrwt>
<totfact> 0.15084937E+04</totfact>
</mgrwt>
</event>
<event>
 4    1  0.1361667E-004  0.4204658E+03  0.7818608E-02  0.1036915E+00
          2   -1    0    0  501    0  0.00000000000E+00  0.00000000000E+00  0.75892461506E+03  0.75892461507E+03  0.25500000000E-02 0.  1.
         -2   -1    0    0    0  501 -0.00000000000E+00 -0.00000000000E+00 -0.58237511502E+02  0.58237511558E+02  0.25500000000E-02 0. -1.
    5000001    1    1    2    0    0 -0.10448238344E+01  0.14173885175E+03  0.52393225458E+03  0.55742712631E+03  0.12700000000E+03 0.  0.
   -5000001    1    1    2    0    0  0.10448238344E+01 -0.14173885175E+03  0.17675484898E+03  0.25973500032E+03  0.12700000000E+03 0.  0.
<mgrwt>
<rscale>  0 0.42046584E+03</rscale>
<asrwt>0</asrwt>
<pdfrwt beam="1">  1        2 0.10841779E+00 0.42046584E+03</pdfrwt>
<pdfrwt beam="2">  1       -2 0.83196452E-02 0.42046584E+03</pdfrwt>
<totfact> 0.37232729E+03</totfact>
</mgrwt>
</event>
<event>
 4    1  0.1361667E-004  0.3601723E+03  0.7818608E-02  0.1058516E+00
         -2   -1    0    0    0  501 -0.00000000000E+00  0.00000000000E+00  0.79221991367E+02  0.79221991408E+02  0.25500000000E-02 0. -1.
          2   -1    0    0  501    0  0.00000000000E+00 -0.00000000000E+00 -0.40936892310E+03  0.40936892311E+03  0.25500000000E-02 0.  1.
    5000001    1    1    2    0    0 -0.11022745853E+03  0.63844032271E+02 -0.17688931837E+03  0.25227957513E+03  0.12700000000E+03 0.  0.
   -5000001    1    1    2    0    0  0.11022745853E+03 -0.63844032271E+02 -0.15325761336E+03  0.23631133939E+03  0.12700000000E+03 0.  0.
<mgrwt>
<rscale>  0 0.36017230E+03</rscale>
<asrwt>0</asrwt>
<pdfrwt beam="1">  1        2 0.58481274E-01 0.36017230E+03</pdfrwt>
<pdfrwt beam="2">  1       -2 0.11317427E-01 0.36017230E+03</pdfrwt>
<totfact> 0.46118681E+03</totfact>
</mgrwt>
</event>
<event>
 4    1  0.1361667E-004  0.7582093E+03  0.7818608E-02  0.9622559E-01
          2   -1    0    0  501    0  0.00000000000E+00  0.00000000000E+00  0.35027959965E+04  0.35027959965E+04  0.25500000000E-02 0.  1.
         -2   -1    0    0    0  501 -0.00000000000E+00 -0.00000000000E+00 -0.41030180307E+02  0.41030180386E+02  0.25500000000E-02 0. -1.
    5000001    1    1    2    0    0 -0.76441514446E+02 -0.34883414574E+03  0.16938479764E+04  0.17357357327E+04  0.12700000000E+03 0.  0.
   -5000001    1    1    2    0    0  0.76441514446E+02  0.34883414574E+03  0.17679178397E+04  0.18080904442E+04  0.12700000000E+03 0.  0.
<mgrwt>
<rscale>  0 0.75820934E+03</rscale>
<asrwt>0</asrwt>
<pdfrwt beam="1">  1        2 0.50039953E+00 0.75820934E+03</pdfrwt>
<pdfrwt beam="2">  1       -2 0.58614531E-02 0.75820934E+03</pdfrwt>
<totfact> 0.20535169E+02</totfact>
</mgrwt>
</event>
<event>
 4    1  0.1361667E-004  0.5396946E+03  0.7818608E-02  0.1003908E+00
          2   -1    0    0  501    0  0.00000000000E+00  0.00000000000E+00  0.50687596899E+03  0.50687596900E+03  0.25500000000E-02 0.  1.
         -2   -1    0    0    0  501 -0.00000000000E+00 -0.00000000000E+00 -0.14365952193E+03  0.14365952195E+03  0.25500000000E-02 0. -1.
    5000001    1    1    2    0    0 -0.19796156629E+03  0.99135998912E+02  0.28718598866E+03  0.38421546051E+03  0.12700000000E+03 0.  0.
   -5000001    1    1    2    0    0  0.19796156629E+03 -0.99135998912E+02  0.76030458402E+02  0.26632003044E+03  0.12700000000E+03 0.  0.
<mgrwt>
<rscale>  0 0.53969458E+03</rscale>
<asrwt>0</asrwt>
<pdfrwt beam="1">  1        2 0.72410854E-01 0.53969458E+03</pdfrwt>
<pdfrwt beam="2">  1       -2 0.20522789E-01 0.53969458E+03</pdfrwt>
<totfact> 0.13467276E+03</totfact>
</mgrwt>
</event>
<event>
 4    1  0.1361667E-004  0.2912028E+03  0.7818608E-02  0.1089723E+00
          2   -1    0    0  501    0  0.00000000000E+00  0.00000000000E+00  0.99027960284E+03  0.99027960285E+03  0.25500000000E-02 0.  1.
         -2   -1    0    0    0  501 -0.00000000000E+00 -0.00000000000E+00 -0.21407858649E+02  0.21407858800E+02  0.25500000000E-02 0. -1.
    5000001    1    1    2    0    0  0.93938172314E+01  0.70555234822E+02  0.47708172535E+03  0.49880081959E+03  0.12700000000E+03 0.  0.
   -5000001    1    1    2    0    0 -0.93938172314E+01 -0.70555234822E+02  0.49179001885E+03  0.51288664206E+03  0.12700000000E+03 0.  0.
<mgrwt>
<rscale>  0 0.29120279E+03</rscale>
<asrwt>0</asrwt>
<pdfrwt beam="1">  1        2 0.14146848E+00 0.29120279E+03</pdfrwt>
<pdfrwt beam="2">  1       -2 0.30582662E-02 0.29120279E+03</pdfrwt>
<totfact> 0.12140620E+04</totfact>
</mgrwt>
</event>
<event>
 4    1  0.1361667E-004  0.3376309E+03  0.7818608E-02  0.1067809E+00
          2   -1    0    0  501    0  0.00000000000E+00  0.00000000000E+00  0.36399990863E+02  0.36399990952E+02  0.25500000000E-02 0.  1.
         -2   -1    0    0    0  501 -0.00000000000E+00 -0.00000000000E+00 -0.78293018554E+03  0.78293018555E+03  0.25500000000E-02 0. -1.
    5000001    1    1    2    0    0 -0.59187646415E+02 -0.76488508059E+02 -0.23999546743E+03  0.28823687089E+03  0.12700000000E+03 0.  0.
   -5000001    1    1    2    0    0  0.59187646415E+02  0.76488508059E+02 -0.50653472725E+03  0.53109330561E+03  0.12700000000E+03 0.  0.
<mgrwt>
<rscale>  0 0.33763087E+03</rscale>
<asrwt>0</asrwt>
<pdfrwt beam="1">  1        2 0.51999992E-02 0.33763087E+03</pdfrwt>
<pdfrwt beam="2">  1       -2 0.11184716E+00 0.33763087E+03</pdfrwt>
<totfact> 0.98756642E+02</totfact>
</mgrwt>
</event>
<event>
 4    1  0.1361667E-004  0.3254707E+03  0.7818608E-02  0.1073159E+00
         -2   -1    0    0    0  501 -0.00000000000E+00  0.00000000000E+00  0.37254264573E+02  0.37254264660E+02  0.25500000000E-02 0. -1.
          2   -1    0    0  501    0  0.00000000000E+00 -0.00000000000E+00 -0.71086617256E+03  0.71086617257E+03  0.25500000000E-02 0.  1.
    5000001    1    1    2    0    0  0.43828549691E+02 -0.63077882414E+02 -0.18340204087E+03  0.23593446042E+03  0.12700000000E+03 0.  0.
   -5000001    1    1    2    0    0 -0.43828549691E+02  0.63077882414E+02 -0.49020986712E+03  0.51218597681E+03  0.12700000000E+03 0.  0.
<mgrwt>
<rscale>  0 0.32547071E+03</rscale>
<asrwt>0</asrwt>
<pdfrwt beam="1">  1        2 0.10155230E+00 0.32547071E+03</pdfrwt>
<pdfrwt beam="2">  1       -2 0.53220383E-02 0.32547071E+03</pdfrwt>
<totfact> 0.80401853E+03</totfact>
</mgrwt>
</event>
<event>
 4    1  0.1361667E-004  0.6916634E+03  0.7818608E-02  0.9731596E-01
          2   -1    0    0  501    0  0.00000000000E+00  0.00000000000E+00  0.76041943336E+03  0.76041943336E+03  0.25500000000E-02 0.  1.
         -2   -1    0    0    0  501 -0.00000000000E+00 -0.00000000000E+00 -0.15728103801E+03  0.15728103803E+03  0.25500000000E-02 0. -1.
    5000001    1    1    2    0    0  0.44047693969E+02 -0.27741714662E+03  0.50954341743E+03  0.59553670485E+03  0.12700000000E+03 0.  0.
   -5000001    1    1    2    0    0 -0.44047693969E+02  0.27741714662E+03  0.93594977919E+02  0.32216376654E+03  0.12700000000E+03 0.  0.
<mgrwt>
<rscale>  0 0.69166338E+03</rscale>
<asrwt>0</asrwt>
<pdfrwt beam="1">  1        2 0.10863135E+00 0.69166338E+03</pdfrwt>
<pdfrwt beam="2">  1       -2 0.22468720E-01 0.69166338E+03</pdfrwt>
<totfact> 0.70687974E+02</totfact>
</mgrwt>
</event>
<event>
 4    1  0.1361667E-004  0.2767855E+03  0.7818608E-02  0.1097458E+00
          2   -1    0    0  501    0  0.00000000000E+00  0.00000000000E+00  0.81340127908E+02  0.81340127948E+02  0.25500000000E-02 0.  1.
         -2   -1    0    0    0  501 -0.00000000000E+00 -0.00000000000E+00 -0.23546251017E+03  0.23546251018E+03  0.25500000000E-02 0. -1.
    5000001    1    1    2    0    0  0.43581799397E+02 -0.83504608760E+00 -0.38696810812E+02  0.13973730249E+03  0.12700000000E+03 0.  0.
   -5000001    1    1    2    0    0 -0.43581799397E+02  0.83504608760E+00 -0.11542557145E+03  0.17706533564E+03  0.12700000000E+03 0.  0.
<mgrwt>
<rscale>  0 0.27678548E+03</rscale>
<asrwt>0</asrwt>
<pdfrwt beam="1">  1        2 0.11620018E-01 0.27678548E+03</pdfrwt>
<pdfrwt beam="2">  1       -2 0.33637501E-01 0.27678548E+03</pdfrwt>
<totfact> 0.43753590E+03</totfact>
</mgrwt>
</event>
<event>
 4    1  0.1361667E-004  0.4700779E+03  0.7818608E-02  0.1021898E+00
          2   -1    0    0  501    0  0.00000000000E+00  0.00000000000E+00  0.13567256104E+04  0.13567256104E+04  0.25500000000E-02 0.  1.
         -2   -1    0    0    0  501 -0.00000000000E+00 -0.00000000000E+00 -0.40718121747E+02  0.40718121827E+02  0.25500000000E-02 0. -1.
    5000001    1    1    2    0    0  0.32685247849E+02 -0.11929094002E+03  0.19923290064E+03  0.26668596231E+03  0.12700000000E+03 0.  0.
   -5000001    1    1    2    0    0 -0.32685247849E+02  0.11929094002E+03  0.11167745881E+04  0.11307577700E+04  0.12700000000E+03 0.  0.
<mgrwt>
<rscale>  0 0.47007795E+03</rscale>
<asrwt>0</asrwt>
<pdfrwt beam="1">  1        2 0.19381799E+00 0.47007795E+03</pdfrwt>
<pdfrwt beam="2">  1       -2 0.58168732E-02 0.47007795E+03</pdfrwt>
<totfact> 0.28721805E+03</totfact>
</mgrwt>
</event>
<event>
 4    1  0.1361667E-004  0.5782201E+03  0.7818608E-02  0.9951652E-01
          2   -1    0    0  501    0  0.00000000000E+00  0.00000000000E+00  0.13885312715E+04  0.13885312715E+04  0.25500000000E-02 0.  1.
         -2   -1    0    0    0  501 -0.00000000000E+00 -0.00000000000E+00 -0.60196432982E+02  0.60196433036E+02  0.25500000000E-02 0. -1.
    5000001    1    1    2    0    0 -0.22313006857E+03 -0.12842898102E+03  0.57829803035E+03  0.64563042259E+03  0.12700000000E+03 0.  0.
   -5000001    1    1    2    0    0  0.22313006857E+03  0.12842898102E+03  0.75003680814E+03  0.80309728193E+03  0.12700000000E+03 0.  0.
<mgrwt>
<rscale>  0 0.57822013E+03</rscale>
<asrwt>0</asrwt>
<pdfrwt beam="1">  1        2 0.19836159E+00 0.57822013E+03</pdfrwt>
<pdfrwt beam="2">  1       -2 0.85994912E-02 0.57822013E+03</pdfrwt>
<totfact> 0.14883692E+03</totfact>
</mgrwt>
</event>
<event>
 4    1  0.1361667E-004  0.4093697E+03  0.7818608E-02  0.1040583E+00
          2   -1    0    0  501    0  0.00000000000E+00  0.00000000000E+00  0.19060709103E+03  0.19060709105E+03  0.25500000000E-02 0.  1.
         -2   -1    0    0    0  501 -0.00000000000E+00 -0.00000000000E+00 -0.21980235657E+03  0.21980235658E+03  0.25500000000E-02 0. -1.
    5000001    1    1    2    0    0 -0.12700492410E+03  0.67935239872E+02 -0.85639734956E+02  0.21025844041E+03  0.12700000000E+03 0.  0.
   -5000001    1    1    2    0    0  0.12700492410E+03 -0.67935239872E+02  0.56444469421E+02  0.20015100722E+03  0.12700000000E+03 0.  0.
<mgrwt>
<rscale>  0 0.40936970E+03</rscale>
<asrwt>0</asrwt>
<pdfrwt beam="1">  1        2 0.27229585E-01 0.40936970E+03</pdfrwt>
<pdfrwt beam="2">  1       -2 0.31400337E-01 0.40936970E+03</pdfrwt>
<totfact> 0.18519824E+03</totfact>
</mgrwt>
</event>
<event>
 4    1  0.1361667E-004  0.4708753E+03  0.7818608E-02  0.1021673E+00
          2   -1    0    0  501    0  0.00000000000E+00  0.00000000000E+00  0.13775760735E+04  0.13775760735E+04  0.25500000000E-02 0.  1.
         -2   -1    0    0    0  501 -0.00000000000E+00 -0.00000000000E+00 -0.40237983540E+02  0.40237983621E+02  0.25500000000E-02 0. -1.
    5000001    1    1    2    0    0  0.15078288244E+03 -0.99650526195E+02  0.91395484627E+03  0.94027026222E+03  0.12700000000E+03 0.  0.
   -5000001    1    1    2    0    0 -0.15078288244E+03  0.99650526195E+02  0.42338324372E+03  0.47754379492E+03  0.12700000000E+03 0.  0.
<mgrwt>
<rscale>  0 0.47087528E+03</rscale>
<asrwt>0</asrwt>
<pdfrwt beam="1">  1        2 0.19679660E+00 0.47087528E+03</pdfrwt>
<pdfrwt beam="2">  1       -2 0.57482829E-02 0.47087528E+03</pdfrwt>
<totfact> 0.28520907E+03</totfact>
</mgrwt>
</event>
<event>
 4    1  0.1361667E-004  0.3781369E+03  0.7818608E-02  0.1051625E+00
         -2   -1    0    0    0  501 -0.00000000000E+00  0.00000000000E+00  0.26523074372E+02  0.26523074494E+02  0.25500000000E-02 0. -1.
          2   -1    0    0  501    0  0.00000000000E+00 -0.00000000000E+00 -0.13477650082E+04  0.13477650082E+04  0.25500000000E-02 0.  1.
    5000001    1    1    2    0    0  0.26794309491E+02  0.99240871230E+02 -0.10063863504E+04  0.10195632260E+04  0.12700000000E+03 0.  0.
   -5000001    1    1    2    0    0 -0.26794309491E+02 -0.99240871230E+02 -0.31485558346E+03  0.35472485673E+03  0.12700000000E+03 0.  0.
<mgrwt>
<rscale>  0 0.37813686E+03</rscale>
<asrwt>0</asrwt>
<pdfrwt beam="1">  1        2 0.19253782E+00 0.37813686E+03</pdfrwt>
<pdfrwt beam="2">  1       -2 0.37890115E-02 0.37813686E+03</pdfrwt>
<totfact> 0.55996525E+03</totfact>
</mgrwt>
</event>
<event>
 4    1  0.1361667E-004  0.3995318E+03  0.7818608E-02  0.1043942E+00
         -2   -1    0    0    0  501 -0.00000000000E+00  0.00000000000E+00  0.48538627937E+02  0.48538628004E+02  0.25500000000E-02 0. -1.
          2   -1    0    0  501    0  0.00000000000E+00 -0.00000000000E+00 -0.82215794704E+03  0.82215794704E+03  0.25500000000E-02 0.  1.
    5000001    1    1    2    0    0  0.11914735951E+03  0.81319374078E+02 -0.50554578720E+03  0.54084607499E+03  0.12700000000E+03 0.  0.
   -5000001    1    1    2    0    0 -0.11914735951E+03 -0.81319374078E+02 -0.26807353190E+03  0.32985050006E+03  0.12700000000E+03 0.  0.
<mgrwt>
<rscale>  0 0.39953182E+03</rscale>
<asrwt>0</asrwt>
<pdfrwt beam="1">  1        2 0.11745113E+00 0.39953182E+03</pdfrwt>
<pdfrwt beam="2">  1       -2 0.69340902E-02 0.39953182E+03</pdfrwt>
<totfact> 0.44827636E+03</totfact>
</mgrwt>
</event>
<event>
 4    1  0.1361667E-004  0.4853775E+03  0.7818608E-02  0.1017668E+00
          2   -1    0    0  501    0  0.00000000000E+00  0.00000000000E+00  0.13960157635E+04  0.13960157635E+04  0.25500000000E-02 0.  1.
         -2   -1    0    0    0  501 -0.00000000000E+00 -0.00000000000E+00 -0.42189948597E+02  0.42189948674E+02  0.25500000000E-02 0. -1.
    5000001    1    1    2    0    0  0.13467590835E+03 -0.11039253169E+03  0.34636534857E+03  0.40794860709E+03  0.12700000000E+03 0.  0.
   -5000001    1    1    2    0    0 -0.13467590835E+03  0.11039253169E+03  0.10074604663E+04  0.10302571051E+04  0.12700000000E+03 0.  0.
<mgrwt>
<rscale>  0 0.48537752E+03</rscale>
<asrwt>0</asrwt>
<pdfrwt beam="1">  1        2 0.19943090E+00 0.48537752E+03</pdfrwt>
<pdfrwt beam="2">  1       -2 0.60271331E-02 0.48537752E+03</pdfrwt>
<totfact> 0.25903342E+03</totfact>
</mgrwt>
</event>
<event>
 4    1  0.1361667E-004  0.5091783E+03  0.7818608E-02  0.1011411E+00
          2   -1    0    0  501    0  0.00000000000E+00  0.00000000000E+00  0.36309390886E+03  0.36309390887E+03  0.25500000000E-02 0.  1.
         -2   -1    0    0    0  501 -0.00000000000E+00 -0.00000000000E+00 -0.17850928458E+03  0.17850928460E+03  0.25500000000E-02 0. -1.
    5000001    1    1    2    0    0 -0.12732938455E+03 -0.15313572671E+03  0.19333253518E+03  0.30523727184E+03  0.12700000000E+03 0.  0.
   -5000001    1    1    2    0    0  0.12732938455E+03  0.15313572671E+03 -0.87479109019E+01  0.23636592163E+03  0.12700000000E+03 0.  0.
<mgrwt>
<rscale>  0 0.50917829E+03</rscale>
<asrwt>0</asrwt>
<pdfrwt beam="1">  1        2 0.51870558E-01 0.50917829E+03</pdfrwt>
<pdfrwt beam="2">  1       -2 0.25501327E-01 0.50917829E+03</pdfrwt>
<totfact> 0.13304088E+03</totfact>
</mgrwt>
</event>
<event>
 4    1  0.1361667E-004  0.3802915E+03  0.7818608E-02  0.1050826E+00
         -2   -1    0    0    0  501 -0.00000000000E+00  0.00000000000E+00  0.36360866950E+02  0.36360867039E+02  0.25500000000E-02 0. -1.
          2   -1    0    0  501    0  0.00000000000E+00 -0.00000000000E+00 -0.99434931562E+03  0.99434931563E+03  0.25500000000E-02 0.  1.
    5000001    1    1    2    0    0 -0.13674194921E+03 -0.16198336615E+02 -0.56747085415E+03  0.59758925450E+03  0.12700000000E+03 0.  0.
   -5000001    1    1    2    0    0  0.13674194921E+03  0.16198336615E+02 -0.39051759453E+03  0.43312092817E+03  0.12700000000E+03 0.  0.
<mgrwt>
<rscale>  0 0.38029148E+03</rscale>
<asrwt>0</asrwt>
<pdfrwt beam="1">  1        2 0.14204989E+00 0.38029148E+03</pdfrwt>
<pdfrwt beam="2">  1       -2 0.51944102E-02 0.38029148E+03</pdfrwt>
<totfact> 0.54526863E+03</totfact>
</mgrwt>
</event>
<event>
 4    1  0.1361667E-004  0.2788147E+03  0.7818608E-02  0.1096338E+00
          2   -1    0    0  501    0  0.00000000000E+00  0.00000000000E+00  0.18214619799E+04  0.18214619799E+04  0.25500000000E-02 0.  1.
         -2   -1    0    0    0  501 -0.00000000000E+00 -0.00000000000E+00 -0.10669676397E+02  0.10669676701E+02  0.25500000000E-02 0. -1.
    5000001    1    1    2    0    0  0.54434440280E+02  0.15064309302E+02  0.97597662565E+03  0.98582423156E+03  0.12700000000E+03 0.  0.
   -5000001    1    1    2    0    0 -0.54434440280E+02 -0.15064309302E+02  0.83481567784E+03  0.84630742503E+03  0.12700000000E+03 0.  0.
<mgrwt>
<rscale>  0 0.27881471E+03</rscale>
<asrwt>0</asrwt>
<pdfrwt beam="1">  1        2 0.26020865E+00 0.27881471E+03</pdfrwt>
<pdfrwt beam="2">  1       -2 0.15242407E-02 0.27881471E+03</pdfrwt>
<totfact> 0.12448868E+04</totfact>
</mgrwt>
</event>
<event>
 4    1  0.1361667E-004  0.3477223E+03  0.7818608E-02  0.1063554E+00
          2   -1    0    0  501    0  0.00000000000E+00  0.00000000000E+00  0.99771306866E+03  0.99771306867E+03  0.25500000000E-02 0.  1.
         -2   -1    0    0    0  501 -0.00000000000E+00 -0.00000000000E+00 -0.30296994359E+02  0.30296994467E+02  0.25500000000E-02 0. -1.
    5000001    1    1    2    0    0  0.91785716131E+02  0.33022754000E+02  0.28355254091E+03  0.32564729912E+03  0.12700000000E+03 0.  0.
   -5000001    1    1    2    0    0 -0.91785716131E+02 -0.33022754000E+02  0.68386353339E+03  0.70236276401E+03  0.12700000000E+03 0.  0.
<mgrwt>
<rscale>  0 0.34772234E+03</rscale>
<asrwt>0</asrwt>
<pdfrwt beam="1">  1        2 0.14253048E+00 0.34772234E+03</pdfrwt>
<pdfrwt beam="2">  1       -2 0.43281409E-02 0.34772234E+03</pdfrwt>
<totfact> 0.71603131E+03</totfact>
</mgrwt>
</event>
<event>
 4    1  0.1361667E-004  0.4629463E+03  0.7818608E-02  0.1023930E+00
          2   -1    0    0  501    0  0.00000000000E+00  0.00000000000E+00  0.14720140005E+04  0.14720140005E+04  0.25500000000E-02 0.  1.
         -2   -1    0    0    0  501 -0.00000000000E+00 -0.00000000000E+00 -0.36398985360E+02  0.36398985449E+02  0.25500000000E-02 0. -1.
    5000001    1    1    2    0    0  0.10414162674E+03 -0.14120273551E+03  0.98385487290E+03  0.10074140667E+04  0.12700000000E+03 0.  0.
   -5000001    1    1    2    0    0 -0.10414162674E+03  0.14120273551E+03  0.45176014225E+03  0.50099891922E+03  0.12700000000E+03 0.  0.
<mgrwt>
<rscale>  0 0.46294629E+03</rscale>
<asrwt>0</asrwt>
<pdfrwt beam="1">  1        2 0.21028771E+00 0.46294629E+03</pdfrwt>
<pdfrwt beam="2">  1       -2 0.51998551E-02 0.46294629E+03</pdfrwt>
<totfact> 0.29731089E+03</totfact>
</mgrwt>
</event>
<event>
 4    1  0.1361667E-004  0.4897769E+03  0.7818608E-02  0.1016482E+00
         -2   -1    0    0    0  501 -0.00000000000E+00  0.00000000000E+00  0.42247113049E+02  0.42247113126E+02  0.25500000000E-02 0. -1.
          2   -1    0    0  501    0  0.00000000000E+00 -0.00000000000E+00 -0.14195134714E+04  0.14195134714E+04  0.25500000000E-02 0.  1.
    5000001    1    1    2    0    0 -0.12118080904E+03  0.17067130088E+03 -0.67287864996E+03  0.71603642295E+03  0.12700000000E+03 0.  0.
   -5000001    1    1    2    0    0  0.12118080904E+03 -0.17067130088E+03 -0.70438770837E+03  0.74572416155E+03  0.12700000000E+03 0.  0.
<mgrwt>
<rscale>  0 0.48977687E+03</rscale>
<asrwt>0</asrwt>
<pdfrwt beam="1">  1        2 0.20278761E+00 0.48977687E+03</pdfrwt>
<pdfrwt beam="2">  1       -2 0.60353027E-02 0.48977687E+03</pdfrwt>
<totfact> 0.25121900E+03</totfact>
</mgrwt>
</event>
<event>
 4    1  0.1361667E-004  0.4988988E+03  0.7818608E-02  0.1014067E+00
          2   -1    0    0  501    0  0.00000000000E+00  0.00000000000E+00  0.37888240075E+04  0.37888240075E+04  0.25500000000E-02 0.  1.
         -2   -1    0    0    0  501 -0.00000000000E+00 -0.00000000000E+00 -0.16423301780E+02  0.16423301978E+02  0.25500000000E-02 0. -1.
    5000001    1    1    2    0    0 -0.19496265053E+02 -0.99750526345E+02  0.33286610076E+04  0.33326330995E+04  0.12700000000E+03 0.  0.
   -5000001    1    1    2    0    0  0.19496265053E+02  0.99750526345E+02  0.44373969809E+03  0.47261421002E+03  0.12700000000E+03 0.  0.
<mgrwt>
<rscale>  0 0.49889879E+03</rscale>
<asrwt>0</asrwt>
<pdfrwt beam="1">  1        2 0.54126072E+00 0.49889879E+03</pdfrwt>
<pdfrwt beam="2">  1       -2 0.23461854E-02 0.49889879E+03</pdfrwt>
<totfact> 0.57692704E+02</totfact>
</mgrwt>
</event>
<event>
 4    1  0.1361667E-004  0.4118650E+03  0.7818608E-02  0.1039747E+00
          2   -1    0    0  501    0  0.00000000000E+00  0.00000000000E+00  0.29387237444E+04  0.29387237444E+04  0.25500000000E-02 0.  1.
         -2   -1    0    0    0  501 -0.00000000000E+00 -0.00000000000E+00 -0.14430823403E+02  0.14430823629E+02  0.25500000000E-02 0. -1.
    5000001    1    1    2    0    0  0.12267603213E+03 -0.99328376515E+02  0.17269267456E+04  0.17387698294E+04  0.12700000000E+03 0.  0.
   -5000001    1    1    2    0    0 -0.12267603213E+03  0.99328376515E+02  0.11973661754E+04  0.12143847385E+04  0.12700000000E+03 0.  0.
<mgrwt>
<rscale>  0 0.41186504E+03</rscale>
<asrwt>0</asrwt>
<pdfrwt beam="1">  1        2 0.41981780E+00 0.41186504E+03</pdfrwt>
<pdfrwt beam="2">  1       -2 0.20615456E-02 0.41186504E+03</pdfrwt>
<totfact> 0.21826531E+03</totfact>
</mgrwt>
</event>
<event>
 4    1  0.1361667E-004  0.3582380E+03  0.7818608E-02  0.1059284E+00
          2   -1    0    0  501    0  0.00000000000E+00  0.00000000000E+00  0.61164963310E+03  0.61164963311E+03  0.25500000000E-02 0.  1.
         -2   -1    0    0    0  501 -0.00000000000E+00 -0.00000000000E+00 -0.52454250002E+02  0.52454250064E+02  0.25500000000E-02 0. -1.
    5000001    1    1    2    0    0  0.74151546994E+02  0.99815701681E+02  0.32075872504E+03  0.36671076602E+03  0.12700000000E+03 0.  0.
   -5000001    1    1    2    0    0 -0.74151546994E+02 -0.99815701681E+02  0.23843665806E+03  0.29739311716E+03  0.12700000000E+03 0.  0.
<mgrwt>
<rscale>  0 0.35823804E+03</rscale>
<asrwt>0</asrwt>
<pdfrwt beam="1">  1        2 0.87378516E-01 0.35823804E+03</pdfrwt>
<pdfrwt beam="2">  1       -2 0.74934645E-02 0.35823804E+03</pdfrwt>
<totfact> 0.56655862E+03</totfact>
</mgrwt>
</event>
<event>
 4    1  0.1361667E-004  0.4815356E+03  0.7818608E-02  0.1018714E+00
         -2   -1    0    0    0  501 -0.00000000000E+00  0.00000000000E+00  0.34317611300E+02  0.34317611394E+02  0.25500000000E-02 0. -1.
          2   -1    0    0  501    0  0.00000000000E+00 -0.00000000000E+00 -0.16891946622E+04  0.16891946622E+04  0.25500000000E-02 0.  1.
    5000001    1    1    2    0    0  0.17083796173E+03  0.81336198705E+02 -0.11055803819E+04  0.11288215834E+04  0.12700000000E+03 0.  0.
   -5000001    1    1    2    0    0 -0.17083796173E+03 -0.81336198705E+02 -0.54929666901E+03  0.59469069017E+03  0.12700000000E+03 0.  0.
<mgrwt>
<rscale>  0 0.48153557E+03</rscale>
<asrwt>0</asrwt>
<pdfrwt beam="1">  1        2 0.24131347E+00 0.48153557E+03</pdfrwt>
<pdfrwt beam="2">  1       -2 0.49025170E-02 0.48153557E+03</pdfrwt>
<totfact> 0.25209555E+03</totfact>
</mgrwt>
</event>
<event>
 4    1  0.1361667E-004  0.4063932E+03  0.7818608E-02  0.1041588E+00
         -2   -1    0    0    0  501 -0.00000000000E+00  0.00000000000E+00  0.33007639909E+03  0.33007639910E+03  0.25500000000E-02 0. -1.
          2   -1    0    0  501    0  0.00000000000E+00 -0.00000000000E+00 -0.12508879362E+03  0.12508879365E+03  0.25500000000E-02 0.  1.
    5000001    1    1    2    0    0  0.32079963589E+02  0.42591721470E+02 -0.64822169018E+02  0.15223039249E+03  0.12700000000E+03 0.  0.
   -5000001    1    1    2    0    0 -0.32079963589E+02 -0.42591721470E+02  0.26980977449E+03  0.30293480026E+03  0.12700000000E+03 0.  0.
<mgrwt>
<rscale>  0 0.40639320E+03</rscale>
<asrwt>0</asrwt>
<pdfrwt beam="1">  1        2 0.17869828E-01 0.40639320E+03</pdfrwt>
<pdfrwt beam="2">  1       -2 0.47153771E-01 0.40639320E+03</pdfrwt>
<totfact> 0.13784611E+03</totfact>
</mgrwt>
</event>
<event>
 4    1  0.1361667E-004  0.4020487E+03  0.7818608E-02  0.1043073E+00
         -2   -1    0    0    0  501 -0.00000000000E+00  0.00000000000E+00  0.81696164865E+02  0.81696164905E+02  0.25500000000E-02 0. -1.
          2   -1    0    0  501    0  0.00000000000E+00 -0.00000000000E+00 -0.49464739098E+03  0.49464739099E+03  0.25500000000E-02 0.  1.
    5000001    1    1    2    0    0  0.82859282727E+02 -0.74395751469E+02 -0.50219623884E+02  0.17621407207E+03  0.12700000000E+03 0.  0.
   -5000001    1    1    2    0    0 -0.82859282727E+02  0.74395751469E+02 -0.36273160223E+03  0.40012948383E+03  0.12700000000E+03 0.  0.
<mgrwt>
<rscale>  0 0.40204873E+03</rscale>
<asrwt>0</asrwt>
<pdfrwt beam="1">  1        2 0.70663911E-01 0.40204873E+03</pdfrwt>
<pdfrwt beam="2">  1       -2 0.11670881E-01 0.40204873E+03</pdfrwt>
<totfact> 0.35673195E+03</totfact>
</mgrwt>
</event>
<event>
 4    1  0.1361667E-004  0.5015129E+03  0.7818608E-02  0.1013385E+00
         -2   -1    0    0    0  501 -0.00000000000E+00  0.00000000000E+00  0.86390783821E+03  0.86390783821E+03  0.25500000000E-02 0. -1.
          2   -1    0    0  501    0  0.00000000000E+00 -0.00000000000E+00 -0.72784145683E+02  0.72784145728E+02  0.25500000000E-02 0.  1.
    5000001    1    1    2    0    0 -0.18929717045E+03  0.72056602730E+02  0.53687185121E+03  0.58769546311E+03  0.12700000000E+03 0.  0.
   -5000001    1    1    2    0    0  0.18929717045E+03 -0.72056602730E+02  0.25425184132E+03  0.34899652083E+03  0.12700000000E+03 0.  0.
<mgrwt>
<rscale>  0 0.50151289E+03</rscale>
<asrwt>0</asrwt>
<pdfrwt beam="1">  1        2 0.10397735E-01 0.50151289E+03</pdfrwt>
<pdfrwt beam="2">  1       -2 0.12341541E+00 0.50151289E+03</pdfrwt>
<totfact> 0.31719961E+02</totfact>
</mgrwt>
</event>
<event>
 4    1  0.1361667E-004  0.4785811E+03  0.7818608E-02  0.1019526E+00
         -2   -1    0    0    0  501 -0.00000000000E+00  0.00000000000E+00  0.33134576752E+02  0.33134576850E+02  0.25500000000E-02 0. -1.
          2   -1    0    0  501    0  0.00000000000E+00 -0.00000000000E+00 -0.17281032058E+04  0.17281032058E+04  0.25500000000E-02 0.  1.
    5000001    1    1    2    0    0  0.15164914125E+03 -0.13450625328E+03 -0.87121303437E+03  0.90345478330E+03  0.12700000000E+03 0.  0.
   -5000001    1    1    2    0    0 -0.15164914125E+03  0.13450625328E+03 -0.82375559471E+03  0.85778299939E+03  0.12700000000E+03 0.  0.
<mgrwt>
<rscale>  0 0.47858110E+03</rscale>
<asrwt>0</asrwt>
<pdfrwt beam="1">  1        2 0.24687183E+00 0.47858110E+03</pdfrwt>
<pdfrwt beam="2">  1       -2 0.47335121E-02 0.47858110E+03</pdfrwt>
<totfact> 0.25436345E+03</totfact>
</mgrwt>
</event>
<event>
 4    1  0.1361667E-004  0.4243685E+03  0.7818608E-02  0.1035654E+00
          2   -1    0    0  501    0  0.00000000000E+00  0.00000000000E+00  0.20377485429E+03  0.20377485431E+03  0.25500000000E-02 0.  1.
         -2   -1    0    0    0  501 -0.00000000000E+00 -0.00000000000E+00 -0.22094072218E+03  0.22094072220E+03  0.25500000000E-02 0. -1.
    5000001    1    1    2    0    0 -0.11737244766E+03  0.10852922601E+02  0.11398797647E+03  0.20740379981E+03  0.12700000000E+03 0.  0.
   -5000001    1    1    2    0    0  0.11737244766E+03 -0.10852922601E+02 -0.13115384436E+03  0.21731177669E+03  0.12700000000E+03 0.  0.
<mgrwt>
<rscale>  0 0.42436854E+03</rscale>
<asrwt>0</asrwt>
<pdfrwt beam="1">  1        2 0.29110694E-01 0.42436854E+03</pdfrwt>
<pdfrwt beam="2">  1       -2 0.31562960E-01 0.42436854E+03</pdfrwt>
<totfact> 0.17030125E+03</totfact>
</mgrwt>
</event>
<event>
 4    1  0.1361667E-004  0.3665050E+03  0.7818608E-02  0.1056037E+00
          2   -1    0    0  501    0  0.00000000000E+00  0.00000000000E+00  0.14651843159E+03  0.14651843161E+03  0.25500000000E-02 0.  1.
         -2   -1    0    0    0  501 -0.00000000000E+00 -0.00000000000E+00 -0.22919623458E+03  0.22919623459E+03  0.25500000000E-02 0. -1.
    5000001    1    1    2    0    0  0.70749227875E+02 -0.11083920235E+03 -0.28303604291E+02  0.18498885382E+03  0.12700000000E+03 0.  0.
   -5000001    1    1    2    0    0 -0.70749227875E+02  0.11083920235E+03 -0.54374198700E+02  0.19072581238E+03  0.12700000000E+03 0.  0.
<mgrwt>
<rscale>  0 0.36650497E+03</rscale>
<asrwt>0</asrwt>
<pdfrwt beam="1">  1        2 0.20931205E-01 0.36650497E+03</pdfrwt>
<pdfrwt beam="2">  1       -2 0.32742319E-01 0.36650497E+03</pdfrwt>
<totfact> 0.23063439E+03</totfact>
</mgrwt>
</event>
<event>
 4    1  0.1361667E-004  0.6663461E+03  0.7818608E-02  0.9776581E-01
          2   -1    0    0  501    0  0.00000000000E+00  0.00000000000E+00  0.12684590723E+04  0.12684590723E+04  0.25500000000E-02 0.  1.
         -2   -1    0    0    0  501 -0.00000000000E+00 -0.00000000000E+00 -0.87511127880E+02  0.87511127917E+02  0.25500000000E-02 0. -1.
    5000001    1    1    2    0    0 -0.28428352971E+03 -0.94282687774E+01  0.34996178803E+03  0.46851709744E+03  0.12700000000E+03 0.  0.
   -5000001    1    1    2    0    0  0.28428352971E+03  0.94282687774E+01  0.83098615641E+03  0.88745310279E+03  0.12700000000E+03 0.  0.
<mgrwt>
<rscale>  0 0.66634611E+03</rscale>
<asrwt>0</asrwt>
<pdfrwt beam="1">  1        2 0.18120844E+00 0.66634611E+03</pdfrwt>
<pdfrwt beam="2">  1       -2 0.12501590E-01 0.66634611E+03</pdfrwt>
<totfact> 0.93745935E+02</totfact>
</mgrwt>
</event>
<event>
 4    1  0.1361667E-004  0.3953904E+03  0.7818608E-02  0.1045388E+00
          2   -1    0    0  501    0  0.00000000000E+00  0.00000000000E+00  0.17695323825E+04  0.17695323825E+04  0.25500000000E-02 0.  1.
         -2   -1    0    0    0  501 -0.00000000000E+00 -0.00000000000E+00 -0.22086845136E+02  0.22086845283E+02  0.25500000000E-02 0. -1.
    5000001    1    1    2    0    0  0.11450958906E+03  0.61264063967E+02  0.52014874746E+03  0.55095322035E+03  0.12700000000E+03 0.  0.
   -5000001    1    1    2    0    0 -0.11450958906E+03 -0.61264063967E+02  0.12272967899E+04  0.12406660075E+04  0.12700000000E+03 0.  0.
<mgrwt>
<rscale>  0 0.39539038E+03</rscale>
<asrwt>0</asrwt>
<pdfrwt beam="1">  1        2 0.25279028E+00 0.39539038E+03</pdfrwt>
<pdfrwt beam="2">  1       -2 0.31552644E-02 0.39539038E+03</pdfrwt>
<totfact> 0.45021816E+03</totfact>
</mgrwt>
</event>
<event>
 4    1  0.1361667E-004  0.4268206E+03  0.7818608E-02  0.1034869E+00
         -2   -1    0    0    0  501 -0.00000000000E+00  0.00000000000E+00  0.23002720052E+02  0.23002720194E+02  0.25500000000E-02 0. -1.
          2   -1    0    0  501    0  0.00000000000E+00 -0.00000000000E+00 -0.19799376854E+04  0.19799376854E+04  0.25500000000E-02 0.  1.
    5000001    1    1    2    0    0  0.14837558311E+03 -0.68726681490E+02 -0.73570106351E+03  0.76427987365E+03  0.12700000000E+03 0.  0.
   -5000001    1    1    2    0    0 -0.14837558311E+03  0.68726681490E+02 -0.12212339019E+04  0.12386605320E+04  0.12700000000E+03 0.  0.
<mgrwt>
<rscale>  0 0.42682058E+03</rscale>
<asrwt>0</asrwt>
<pdfrwt beam="1">  1        2 0.28284813E+00 0.42682058E+03</pdfrwt>
<pdfrwt beam="2">  1       -2 0.32861041E-02 0.42682058E+03</pdfrwt>
<totfact> 0.33274763E+03</totfact>
</mgrwt>
</event>
<event>
 4    1  0.1361667E-004  0.3974690E+03  0.7818608E-02  0.1044660E+00
         -2   -1    0    0    0  501 -0.00000000000E+00  0.00000000000E+00  0.13418922971E+02  0.13418923214E+02  0.25500000000E-02 0. -1.
          2   -1    0    0  501    0  0.00000000000E+00 -0.00000000000E+00 -0.29432622558E+04  0.29432622558E+04  0.25500000000E-02 0.  1.
    5000001    1    1    2    0    0 -0.14447066638E+03  0.49166610425E+02 -0.13995277910E+04  0.14135402954E+04  0.12700000000E+03 0.  0.
   -5000001    1    1    2    0    0  0.14447066638E+03 -0.49166610425E+02 -0.15303155419E+04  0.15431408836E+04  0.12700000000E+03 0.  0.
<mgrwt>
<rscale>  0 0.39746904E+03</rscale>
<asrwt>0</asrwt>
<pdfrwt beam="1">  1        2 0.42046563E+00 0.39746904E+03</pdfrwt>
<pdfrwt beam="2">  1       -2 0.19169909E-02 0.39746904E+03</pdfrwt>
<totfact> 0.24212866E+03</totfact>
</mgrwt>
</event>
<event>
 4    1  0.1361667E-004  0.5620899E+03  0.7818608E-02  0.9987337E-01
         -2   -1    0    0    0  501 -0.00000000000E+00  0.00000000000E+00  0.12893566731E+03  0.12893566734E+03  0.25500000000E-02 0. -1.
          2   -1    0    0  501    0  0.00000000000E+00 -0.00000000000E+00 -0.61260210894E+03  0.61260210894E+03  0.25500000000E-02 0.  1.
    5000001    1    1    2    0    0 -0.22754894247E+03  0.10153870202E+03 -0.20525800682E+03  0.34691278240E+03  0.12700000000E+03 0.  0.
   -5000001    1    1    2    0    0  0.22754894247E+03 -0.10153870202E+03 -0.27840843481E+03  0.39462499388E+03  0.12700000000E+03 0.  0.
<mgrwt>
<rscale>  0 0.56208989E+03</rscale>
<asrwt>0</asrwt>
<pdfrwt beam="1">  1        2 0.87514586E-01 0.56208989E+03</pdfrwt>
<pdfrwt beam="2">  1       -2 0.18419381E-01 0.56208989E+03</pdfrwt>
<totfact> 0.13044801E+03</totfact>
</mgrwt>
</event>
<event>
 4    1  0.1361667E-004  0.4480469E+03  0.7818608E-02  0.1028306E+00
         -2   -1    0    0    0  501 -0.00000000000E+00  0.00000000000E+00  0.77463560191E+02  0.77463560233E+02  0.25500000000E-02 0. -1.
          2   -1    0    0  501    0  0.00000000000E+00 -0.00000000000E+00 -0.64787256313E+03  0.64787256313E+03  0.25500000000E-02 0.  1.
    5000001    1    1    2    0    0  0.95789137403E+01 -0.14786328885E+03 -0.46329800942E+03  0.50272194433E+03  0.12700000000E+03 0.  0.
   -5000001    1    1    2    0    0 -0.95789137403E+01  0.14786328885E+03 -0.10711099352E+03  0.22261417904E+03  0.12700000000E+03 0.  0.
<mgrwt>
<rscale>  0 0.44804694E+03</rscale>
<asrwt>0</asrwt>
<pdfrwt beam="1">  1        2 0.92553221E-01 0.44804694E+03</pdfrwt>
<pdfrwt beam="2">  1       -2 0.11066223E-01 0.44804694E+03</pdfrwt>
<totfact> 0.28559786E+03</totfact>
</mgrwt>
</event>
<event>
 4    1  0.1361667E-004  0.4190400E+03  0.7818608E-02  0.1037379E+00
         -2   -1    0    0    0  501 -0.00000000000E+00  0.00000000000E+00  0.14763737538E+02  0.14763737758E+02  0.25500000000E-02 0. -1.
          2   -1    0    0  501    0  0.00000000000E+00 -0.00000000000E+00 -0.29734084896E+04  0.29734084896E+04  0.25500000000E-02 0.  1.
    5000001    1    1    2    0    0 -0.14692487918E+03  0.41610547650E+01 -0.91939667746E+03  0.93969329306E+03  0.12700000000E+03 0.  0.
   -5000001    1    1    2    0    0  0.14692487918E+03 -0.41610547650E+01 -0.20392480746E+04  0.20484789343E+04  0.12700000000E+03 0.  0.
<mgrwt>
<rscale>  0 0.41903996E+03</rscale>
<asrwt>0</asrwt>
<pdfrwt beam="1">  1        2 0.42477226E+00 0.41903996E+03</pdfrwt>
<pdfrwt beam="2">  1       -2 0.21091073E-02 0.41903996E+03</pdfrwt>
<totfact> 0.20204399E+03</totfact>
</mgrwt>
</event>
<event>
 4    1  0.1361667E-004  0.2823248E+03  0.7818608E-02  0.1094426E+00
          2   -1    0    0  501    0  0.00000000000E+00  0.00000000000E+00  0.24406292507E+03  0.24406292508E+03  0.25500000000E-02 0.  1.
         -2   -1    0    0    0  501 -0.00000000000E+00 -0.00000000000E+00 -0.81646248730E+02  0.81646248770E+02  0.25500000000E-02 0. -1.
    5000001    1    1    2    0    0  0.32184899213E+02  0.48842266441E+02  0.58826352913E+02  0.15169368651E+03  0.12700000000E+03 0.  0.
   -5000001    1    1    2    0    0 -0.32184899213E+02 -0.48842266441E+02  0.10359032342E+03  0.17401548734E+03  0.12700000000E+03 0.  0.
<mgrwt>
<rscale>  0 0.28232479E+03</rscale>
<asrwt>0</asrwt>
<pdfrwt beam="1">  1        2 0.34866131E-01 0.28232479E+03</pdfrwt>
<pdfrwt beam="2">  1       -2 0.11663750E-01 0.28232479E+03</pdfrwt>
<totfact> 0.76385559E+03</totfact>
</mgrwt>
</event>
<event>
 4    1  0.1361667E-004  0.4715424E+03  0.7818608E-02  0.1021486E+00
          2   -1    0    0  501    0  0.00000000000E+00  0.00000000000E+00  0.12394394630E+04  0.12394394630E+04  0.25500000000E-02 0.  1.
         -2   -1    0    0    0  501 -0.00000000000E+00 -0.00000000000E+00 -0.44849359199E+02  0.44849359272E+02  0.25500000000E-02 0. -1.
    5000001    1    1    2    0    0 -0.48378051759E+02 -0.18677994838E+03  0.72596508607E+03  0.76182773066E+03  0.12700000000E+03 0.  0.
   -5000001    1    1    2    0    0  0.48378051759E+02  0.18677994838E+03  0.46862501774E+03  0.52246109162E+03  0.12700000000E+03 0.  0.
<mgrwt>
<rscale>  0 0.47154243E+03</rscale>
<asrwt>0</asrwt>
<pdfrwt beam="1">  1        2 0.17706279E+00 0.47154243E+03</pdfrwt>
<pdfrwt beam="2">  1       -2 0.64070508E-02 0.47154243E+03</pdfrwt>
<totfact> 0.28579631E+03</totfact>
</mgrwt>
</event>
<event>
 4    1  0.1361667E-004  0.4279750E+03  0.7818608E-02  0.1034502E+00
         -2   -1    0    0    0  501 -0.00000000000E+00  0.00000000000E+00  0.13571694355E+03  0.13571694357E+03  0.25500000000E-02 0.  1.
          2   -1    0    0  501    0  0.00000000000E+00 -0.00000000000E+00 -0.33739811736E+03  0.33739811737E+03  0.25500000000E-02 0. -1.
    5000001    1    1    2    0    0  0.53066461555E+02  0.16377689690E+03 -0.10610987769E+03  0.23880374252E+03  0.12700000000E+03 0.  0.
   -5000001    1    1    2    0    0 -0.53066461555E+02 -0.16377689690E+03 -0.95571296116E+02  0.23431131842E+03  0.12700000000E+03 0.  0.
<mgrwt>
<rscale>  0 0.42797496E+03</rscale>
<asrwt>0</asrwt>
<pdfrwt beam="1">  1        2 0.48199731E-01 0.42797496E+03</pdfrwt>
<pdfrwt beam="2">  1       -2 0.19388135E-01 0.42797496E+03</pdfrwt>
<totfact> 0.23309497E+03</totfact>
</mgrwt>
</event>
<event>
 4    1  0.1361667E-004  0.3262755E+03  0.7818608E-02  0.1072797E+00
          2   -1    0    0  501    0  0.00000000000E+00  0.00000000000E+00  0.38183258478E+03  0.38183258479E+03  0.25500000000E-02 0.  1.
         -2   -1    0    0    0  501 -0.00000000000E+00 -0.00000000000E+00 -0.69700522787E+02  0.69700522834E+02  0.25500000000E-02 0. -1.
    5000001    1    1    2    0    0 -0.16953652980E+02 -0.10098251515E+03  0.15632887118E+03  0.22594824779E+03  0.12700000000E+03 0.  0.
   -5000001    1    1    2    0    0  0.16953652980E+02  0.10098251515E+03  0.15580319081E+03  0.22558485983E+03  0.12700000000E+03 0.  0.
<mgrwt>
<rscale>  0 0.32627553E+03</rscale>
<asrwt>0</asrwt>
<pdfrwt beam="1">  1        2 0.54547512E-01 0.32627553E+03</pdfrwt>
<pdfrwt beam="2">  1       -2 0.99572176E-02 0.32627553E+03</pdfrwt>
<totfact> 0.60956690E+03</totfact>
</mgrwt>
</event>
<event>
 4    1  0.1361667E-004  0.5064093E+03  0.7818608E-02  0.1012119E+00
         -2   -1    0    0    0  501 -0.00000000000E+00  0.00000000000E+00  0.37849852882E+02  0.37849852968E+02  0.25500000000E-02 0. -1.
          2   -1    0    0  501    0  0.00000000000E+00 -0.00000000000E+00 -0.16938664233E+04  0.16938664233E+04  0.25500000000E-02 0.  1.
    5000001    1    1    2    0    0  0.70095442561E+02  0.16753739125E+03 -0.12468419999E+04  0.12663830863E+04  0.12700000000E+03 0.  0.
   -5000001    1    1    2    0    0 -0.70095442561E+02 -0.16753739125E+03 -0.40917457051E+03  0.46533318997E+03  0.12700000000E+03 0.  0.
<mgrwt>
<rscale>  0 0.50640930E+03</rscale>
<asrwt>0</asrwt>
<pdfrwt beam="1">  1        2 0.24198087E+00 0.50640930E+03</pdfrwt>
<pdfrwt beam="2">  1       -2 0.54071229E-02 0.50640930E+03</pdfrwt>
<totfact> 0.21533367E+03</totfact>
</mgrwt>
</event>
<event>
 4    1  0.1361667E-004  0.5414037E+03  0.7818608E-02  0.1003503E+00
         -2   -1    0    0    0  501 -0.00000000000E+00  0.00000000000E+00  0.79298085182E+02  0.79298085223E+02  0.25500000000E-02 0.  1.
          2   -1    0    0  501    0  0.00000000000E+00 -0.00000000000E+00 -0.92410178105E+03  0.92410178106E+03  0.25500000000E-02 0. -1.
    5000001    1    1    2    0    0 -0.36934676574E+02 -0.20065704233E+03 -0.19149236103E+03  0.30728772072E+03  0.12700000000E+03 0.  0.
   -5000001    1    1    2    0    0  0.36934676574E+02  0.20065704233E+03 -0.65331133484E+03  0.69611214556E+03  0.12700000000E+03 0.  0.
<mgrwt>
<rscale>  0 0.54140374E+03</rscale>
<asrwt>0</asrwt>
<pdfrwt beam="1">  1        2 0.13201453E+00 0.54140374E+03</pdfrwt>
<pdfrwt beam="2">  1       -2 0.11328298E-01 0.54140374E+03</pdfrwt>
<totfact> 0.17594838E+03</totfact>
</mgrwt>
</event>
<event>
 4    1  0.1361667E-004  0.3866170E+03  0.7818608E-02  0.1048515E+00
         -2   -1    0    0    0  501 -0.00000000000E+00  0.00000000000E+00  0.16541216122E+03  0.16541216124E+03  0.25500000000E-02 0. -1.
          2   -1    0    0  501    0  0.00000000000E+00 -0.00000000000E+00 -0.22590951193E+03  0.22590951194E+03  0.25500000000E-02 0.  1.
    5000001    1    1    2    0    0  0.13872894470E+03  0.32590670678E+02  0.64003385649E+00  0.19088551950E+03  0.12700000000E+03 0.  0.
   -5000001    1    1    2    0    0 -0.13872894470E+03 -0.32590670678E+02 -0.61137384561E+02  0.20043615368E+03  0.12700000000E+03 0.  0.
<mgrwt>
<rscale>  0 0.38661702E+03</rscale>
<asrwt>0</asrwt>
<pdfrwt beam="1">  1        2 0.32272787E-01 0.38661702E+03</pdfrwt>
<pdfrwt beam="2">  1       -2 0.23630309E-01 0.38661702E+03</pdfrwt>
<totfact> 0.25579734E+03</totfact>
</mgrwt>
</event>
<event>
 4    1  0.1361667E-004  0.3661602E+03  0.7818608E-02  0.1056171E+00
          2   -1    0    0  501    0  0.00000000000E+00  0.00000000000E+00  0.96680285206E+03  0.96680285207E+03  0.25500000000E-02 0.  1.
         -2   -1    0    0    0  501 -0.00000000000E+00 -0.00000000000E+00 -0.34669235271E+02  0.34669235365E+02  0.25500000000E-02 0. -1.
    5000001    1    1    2    0    0 -0.87490557310E+02  0.60250987852E+02  0.25237193383E+03  0.30183666467E+03  0.12700000000E+03 0.  0.
   -5000001    1    1    2    0    0  0.87490557310E+02 -0.60250987852E+02  0.67976168297E+03  0.69963542276E+03  0.12700000000E+03 0.  0.
<mgrwt>
<rscale>  0 0.36616016E+03</rscale>
<asrwt>0</asrwt>
<pdfrwt beam="1">  1        2 0.13811467E+00 0.36616016E+03</pdfrwt>
<pdfrwt beam="2">  1       -2 0.49527489E-02 0.36616016E+03</pdfrwt>
<totfact> 0.60911847E+03</totfact>
</mgrwt>
</event>
<event>
 4    1  0.1361667E-004  0.3441776E+03  0.7818608E-02  0.1065030E+00
          2   -1    0    0  501    0  0.00000000000E+00  0.00000000000E+00  0.76221033597E+03  0.76221033597E+03  0.25500000000E-02 0.  1.
         -2   -1    0    0    0  501 -0.00000000000E+00 -0.00000000000E+00 -0.38853520923E+02  0.38853521007E+02  0.25500000000E-02 0. -1.
    5000001    1    1    2    0    0  0.53442325998E+02  0.92170738237E+02  0.25415956050E+03  0.30344292608E+03  0.12700000000E+03 0.  0.
   -5000001    1    1    2    0    0 -0.53442325998E+02 -0.92170738237E+02  0.46919725455E+03  0.49762093090E+03  0.12700000000E+03 0.  0.
<mgrwt>
<rscale>  0 0.34417760E+03</rscale>
<asrwt>0</asrwt>
<pdfrwt beam="1">  1        2 0.10888719E+00 0.34417760E+03</pdfrwt>
<pdfrwt beam="2">  1       -2 0.55505033E-02 0.34417760E+03</pdfrwt>
<totfact> 0.69365551E+03</totfact>
</mgrwt>
</event>
<event>
 4    1  0.1361667E-004  0.3094196E+03  0.7818608E-02  0.1080624E+00
         -2   -1    0    0    0  501 -0.00000000000E+00  0.00000000000E+00  0.12126697612E+02  0.12126697880E+02  0.25500000000E-02 0. -1.
          2   -1    0    0  501    0  0.00000000000E+00 -0.00000000000E+00 -0.19737539440E+04  0.19737539440E+04  0.25500000000E-02 0.  1.
    5000001    1    1    2    0    0 -0.19969840109E+02 -0.72087349776E+02 -0.12825821233E+04  0.12910233474E+04  0.12700000000E+03 0.  0.
   -5000001    1    1    2    0    0  0.19969840109E+02  0.72087349776E+02 -0.67904512311E+03  0.69485729451E+03  0.12700000000E+03 0.  0.
<mgrwt>
<rscale>  0 0.30941957E+03</rscale>
<asrwt>0</asrwt>
<pdfrwt beam="1">  1        2 0.28196464E+00 0.30941957E+03</pdfrwt>
<pdfrwt beam="2">  1       -2 0.17323867E-02 0.30941957E+03</pdfrwt>
<totfact> 0.87042268E+03</totfact>
</mgrwt>
</event>
<event>
 4    1  0.1361667E-004  0.3362873E+03  0.7818608E-02  0.1068388E+00
         -2   -1    0    0    0  501 -0.00000000000E+00  0.00000000000E+00  0.19548492761E+04  0.19548492761E+04  0.25500000000E-02 0. -1.
          2   -1    0    0  501    0  0.00000000000E+00 -0.00000000000E+00 -0.14462640118E+02  0.14462640343E+02  0.25500000000E-02 0.  1.
    5000001    1    1    2    0    0 -0.55470305156E+01  0.82733232438E+02  0.54516720905E+03  0.56587263860E+03  0.12700000000E+03 0.  0.
   -5000001    1    1    2    0    0  0.55470305156E+01 -0.82733232438E+02  0.13952194270E+04  0.14034392779E+04  0.12700000000E+03 0.  0.
<mgrwt>
<rscale>  0 0.33628727E+03</rscale>
<asrwt>0</asrwt>
<pdfrwt beam="1">  1        2 0.20660906E-02 0.33628727E+03</pdfrwt>
<pdfrwt beam="2">  1       -2 0.27926430E+00 0.33628727E+03</pdfrwt>
<totfact> 0.25290052E+02</totfact>
</mgrwt>
</event>
<event>
 4    1  0.1361667E-004  0.3060310E+03  0.7818608E-02  0.1082264E+00
          2   -1    0    0  501    0  0.00000000000E+00  0.00000000000E+00  0.27787875032E+04  0.27787875032E+04  0.25500000000E-02 0.  1.
         -2   -1    0    0    0  501 -0.00000000000E+00 -0.00000000000E+00 -0.84258846035E+01  0.84258849894E+01  0.25500000000E-02 0. -1.
    5000001    1    1    2    0    0 -0.67796089805E+02 -0.50485976911E+02  0.14927894321E+04  0.15005647045E+04  0.12700000000E+03 0.  0.
   -5000001    1    1    2    0    0  0.67796089805E+02  0.50485976911E+02  0.12775721865E+04  0.12866486837E+04  0.12700000000E+03 0.  0.
<mgrwt>
<rscale>  0 0.30603100E+03</rscale>
<asrwt>0</asrwt>
<pdfrwt beam="1">  1        2 0.39697007E+00 0.30603100E+03</pdfrwt>
<pdfrwt beam="2">  1       -2 0.12036965E-02 0.30603100E+03</pdfrwt>
<totfact> 0.58920096E+03</totfact>
</mgrwt>
</event>
<event>
 4    1  0.1361667E-004  0.3446688E+03  0.7818608E-02  0.1064825E+00
         -2   -1    0    0    0  501 -0.00000000000E+00  0.00000000000E+00  0.41420643026E+03  0.41420643027E+03  0.25500000000E-02 0. -1.
          2   -1    0    0  501    0  0.00000000000E+00 -0.00000000000E+00 -0.71701305517E+02  0.71701305563E+02  0.25500000000E-02 0.  1.
    5000001    1    1    2    0    0 -0.46666622431E+02  0.10593967471E+03  0.18958804511E+03  0.25587812563E+03  0.12700000000E+03 0.  0.
   -5000001    1    1    2    0    0  0.46666622431E+02 -0.10593967471E+03  0.15291707964E+03  0.23002961021E+03  0.12700000000E+03 0.  0.
<mgrwt>
<rscale>  0 0.34466878E+03</rscale>
<asrwt>0</asrwt>
<pdfrwt beam="1">  1        2 0.10243044E-01 0.34466878E+03</pdfrwt>
<pdfrwt beam="2">  1       -2 0.59172346E-01 0.34466878E+03</pdfrwt>
<totfact> 0.17017833E+03</totfact>
</mgrwt>
</event>
<event>
 4    1  0.1361667E-004  0.4433954E+03  0.7818608E-02  0.1029710E+00
         -2   -1    0    0    0  501 -0.00000000000E+00  0.00000000000E+00  0.11313546301E+02  0.11313546588E+02  0.25500000000E-02 0. -1.
          2   -1    0    0  501    0  0.00000000000E+00 -0.00000000000E+00 -0.43443388993E+04  0.43443388993E+04  0.25500000000E-02 0.  1.
    5000001    1    1    2    0    0  0.13936226958E+02 -0.16436097316E+03 -0.14176025097E+04  0.14328065547E+04  0.12700000000E+03 0.  0.
   -5000001    1    1    2    0    0 -0.13936226958E+02  0.16436097316E+03 -0.29154228434E+04  0.29228458912E+04  0.12700000000E+03 0.  0.
<mgrwt>
<rscale>  0 0.44339544E+03</rscale>
<asrwt>0</asrwt>
<pdfrwt beam="1">  1        2 0.62061878E+00 0.44339544E+03</pdfrwt>
<pdfrwt beam="2">  1       -2 0.16162237E-02 0.44339544E+03</pdfrwt>
<totfact> 0.42765400E+02</totfact>
</mgrwt>
</event>
<event>
 4    1  0.1361667E-004  0.4102656E+03  0.7818608E-02  0.1040282E+00
          2   -1    0    0  501    0  0.00000000000E+00  0.00000000000E+00  0.71637530435E+02  0.71637530480E+02  0.25500000000E-02 0.  1.
         -2   -1    0    0    0  501 -0.00000000000E+00 -0.00000000000E+00 -0.58739426373E+03  0.58739426373E+03  0.25500000000E-02 0. -1.
    5000001    1    1    2    0    0  0.88782151630E+02  0.12672985776E+03 -0.32985569601E+03  0.38584518591E+03  0.12700000000E+03 0.  0.
   -5000001    1    1    2    0    0 -0.88782151630E+02 -0.12672985776E+03 -0.18590103728E+03  0.27318660830E+03  0.12700000000E+03 0.  0.
<mgrwt>
<rscale>  0 0.41026564E+03</rscale>
<asrwt>0</asrwt>
<pdfrwt beam="1">  1        2 0.10233933E-01 0.41026564E+03</pdfrwt>
<pdfrwt beam="2">  1       -2 0.83913463E-01 0.41026564E+03</pdfrwt>
<totfact> 0.80316499E+02</totfact>
</mgrwt>
</event>
<event>
 4    1  0.1361667E-004  0.2982237E+03  0.7818608E-02  0.1086132E+00
          2   -1    0    0  501    0  0.00000000000E+00  0.00000000000E+00  0.22640147798E+03  0.22640147800E+03  0.25500000000E-02 0.  1.
         -2   -1    0    0    0  501 -0.00000000000E+00 -0.00000000000E+00 -0.98207608196E+02  0.98207608229E+02  0.25500000000E-02 0. -1.
    5000001    1    1    2    0    0  0.24419084225E+02 -0.16844965312E+02  0.14277872373E+03  0.19337737324E+03  0.12700000000E+03 0.  0.
   -5000001    1    1    2    0    0 -0.24419084225E+02  0.16844965312E+02 -0.14584853937E+02  0.13123171299E+03  0.12700000000E+03 0.  0.
<mgrwt>
<rscale>  0 0.29822373E+03</rscale>
<asrwt>0</asrwt>
<pdfrwt beam="1">  1        2 0.32343068E-01 0.29822373E+03</pdfrwt>
<pdfrwt beam="2">  1       -2 0.14029658E-01 0.29822373E+03</pdfrwt>
<totfact> 0.61506403E+03</totfact>
</mgrwt>
</event>
<event>
 4    1  0.1361667E-004  0.2807990E+03  0.7818608E-02  0.1095253E+00
         -2   -1    0    0    0  501 -0.00000000000E+00  0.00000000000E+00  0.39399089243E+02  0.39399089326E+02  0.25500000000E-02 0. -1.
          2   -1    0    0  501    0  0.00000000000E+00 -0.00000000000E+00 -0.50031655166E+03  0.50031655167E+03  0.25500000000E-02 0.  1.
    5000001    1    1    2    0    0 -0.52427704015E+02 -0.28657104151E+02 -0.22349596982E+03  0.26391161833E+03  0.12700000000E+03 0.  0.
   -5000001    1    1    2    0    0  0.52427704015E+02  0.28657104151E+02 -0.23742149260E+03  0.27580402266E+03  0.12700000000E+03 0.  0.
<mgrwt>
<rscale>  0 0.28079898E+03</rscale>
<asrwt>0</asrwt>
<pdfrwt beam="1">  1        2 0.71473789E-01 0.28079898E+03</pdfrwt>
<pdfrwt beam="2">  1       -2 0.56284416E-02 0.28079898E+03</pdfrwt>
<totfact> 0.10987438E+04</totfact>
</mgrwt>
</event>
<event>
 4    1  0.1361667E-004  0.1374851E+04  0.7818608E-02  0.8972226E-01
          2   -1    0    0  501    0  0.00000000000E+00  0.00000000000E+00  0.96267479175E+03  0.96267479175E+03  0.25500000000E-02 0.  1.
         -2   -1    0    0    0  501 -0.00000000000E+00 -0.00000000000E+00 -0.49087593203E+03  0.49087593203E+03  0.25500000000E-02 0. -1.
    5000001    1    1    2    0    0 -0.79404027369E+02 -0.32957702961E+03 -0.38193080944E+03  0.52623774210E+03  0.12700000000E+03 0.  0.
   -5000001    1    1    2    0    0  0.79404027369E+02  0.32957702961E+03  0.85372966916E+03  0.92731298169E+03  0.12700000000E+03 0.  0.
<mgrwt>
<rscale>  0 0.13748511E+04</rscale>
<asrwt>0</asrwt>
<pdfrwt beam="1">  1        2 0.13752497E+00 0.13748511E+04</pdfrwt>
<pdfrwt beam="2">  1       -2 0.70125133E-01 0.13748511E+04</pdfrwt>
<totfact> 0.53589121E+01</totfact>
</mgrwt>
</event>
<event>
 4    1  0.1361667E-004  0.4072524E+03  0.7818608E-02  0.1041297E+00
         -2   -1    0    0    0  501 -0.00000000000E+00  0.00000000000E+00  0.96883471390E+02  0.96883471424E+02  0.25500000000E-02 0. -1.
          2   -1    0    0  501    0  0.00000000000E+00 -0.00000000000E+00 -0.42797425394E+03  0.42797425394E+03  0.25500000000E-02 0.  1.
    5000001    1    1    2    0    0  0.54408448884E+02  0.14647727663E+03 -0.12648119831E+03  0.23778638608E+03  0.12700000000E+03 0.  0.
   -5000001    1    1    2    0    0 -0.54408448884E+02 -0.14647727663E+03 -0.20460958423E+03  0.28707133928E+03  0.12700000000E+03 0.  0.
<mgrwt>
<rscale>  0 0.40725241E+03</rscale>
<asrwt>0</asrwt>
<pdfrwt beam="1">  1        2 0.61139178E-01 0.40725241E+03</pdfrwt>
<pdfrwt beam="2">  1       -2 0.13840496E-01 0.40725241E+03</pdfrwt>
<totfact> 0.31684389E+03</totfact>
</mgrwt>
</event>
<event>
 4    1  0.1361667E-004  0.3805885E+03  0.7818608E-02  0.1050716E+00
          2   -1    0    0  501    0  0.00000000000E+00  0.00000000000E+00  0.16252503273E+04  0.16252503273E+04  0.25500000000E-02 0.  1.
         -2   -1    0    0    0  501 -0.00000000000E+00 -0.00000000000E+00 -0.22280813991E+02  0.22280814137E+02  0.25500000000E-02 0. -1.
    5000001    1    1    2    0    0 -0.11871624541E+03  0.48070541647E+02  0.10640382927E+04  0.10792176853E+04  0.12700000000E+03 0.  0.
   -5000001    1    1    2    0    0  0.11871624541E+03 -0.48070541647E+02  0.53893122056E+03  0.56831345611E+03  0.12700000000E+03 0.  0.
<mgrwt>
<rscale>  0 0.38058849E+03</rscale>
<asrwt>0</asrwt>
<pdfrwt beam="1">  1        2 0.23217860E+00 0.38058849E+03</pdfrwt>
<pdfrwt beam="2">  1       -2 0.31829737E-02 0.38058849E+03</pdfrwt>
<totfact> 0.52466636E+03</totfact>
</mgrwt>
</event>
<event>
 4    1  0.1361667E-004  0.7911663E+03  0.7818608E-02  0.9572892E-01
         -2   -1    0    0    0  501 -0.00000000000E+00  0.00000000000E+00  0.77580507532E+02  0.77580507574E+02  0.25500000000E-02 0. -1.
          2   -1    0    0  501    0  0.00000000000E+00 -0.00000000000E+00 -0.20170794428E+04  0.20170794428E+04  0.25500000000E-02 0.  1.
    5000001    1    1    2    0    0 -0.29250671494E+03 -0.16021208330E+02 -0.35144263599E+03  0.47482395032E+03  0.12700000000E+03 0.  0.
   -5000001    1    1    2    0    0  0.29250671494E+03  0.16021208330E+02 -0.15880562993E+04  0.16198360001E+04  0.12700000000E+03 0.  0.
<mgrwt>
<rscale>  0 0.79116635E+03</rscale>
<asrwt>0</asrwt>
<pdfrwt beam="1">  1        2 0.28815417E+00 0.79116635E+03</pdfrwt>
<pdfrwt beam="2">  1       -2 0.11082931E-01 0.79116635E+03</pdfrwt>
<totfact> 0.46411645E+02</totfact>
</mgrwt>
</event>
<event>
 4    1  0.1361667E-004  0.9551478E+03  0.7818608E-02  0.9359154E-01
         -2   -1    0    0    0  501 -0.00000000000E+00  0.00000000000E+00  0.20198908329E+03  0.20198908330E+03  0.25500000000E-02 0. -1.
          2   -1    0    0  501    0  0.00000000000E+00 -0.00000000000E+00 -0.11291542889E+04  0.11291542889E+04  0.25500000000E-02 0.  1.
    5000001    1    1    2    0    0  0.41644305048E+03  0.19488698523E+03 -0.43113450047E+03  0.64297100153E+03  0.12700000000E+03 0.  0.
   -5000001    1    1    2    0    0 -0.41644305048E+03 -0.19488698523E+03 -0.49603070510E+03  0.68817237064E+03  0.12700000000E+03 0.  0.
<mgrwt>
<rscale>  0 0.95514782E+03</rscale>
<asrwt>0</asrwt>
<pdfrwt beam="1">  1        2 0.16130775E+00 0.95514782E+03</pdfrwt>
<pdfrwt beam="2">  1       -2 0.28855584E-01 0.95514782E+03</pdfrwt>
<totfact> 0.25822445E+02</totfact>
</mgrwt>
</event>
<event>
 4    1  0.1361667E-004  0.3400276E+03  0.7818608E-02  0.1066784E+00
         -2   -1    0    0    0  501 -0.00000000000E+00  0.00000000000E+00  0.23723911329E+02  0.23723911466E+02  0.25500000000E-02 0. -1.
          2   -1    0    0  501    0  0.00000000000E+00 -0.00000000000E+00 -0.12183783381E+04  0.12183783381E+04  0.25500000000E-02 0.  1.
    5000001    1    1    2    0    0 -0.80963079519E+02 -0.64196117812E+02 -0.76470776192E+03  0.78203780147E+03  0.12700000000E+03 0.  0.
   -5000001    1    1    2    0    0  0.80963079519E+02  0.64196117812E+02 -0.42994666484E+03  0.46006444809E+03  0.12700000000E+03 0.  0.
<mgrwt>
<rscale>  0 0.34002764E+03</rscale>
<asrwt>0</asrwt>
<pdfrwt beam="1">  1        2 0.17405401E+00 0.34002764E+03</pdfrwt>
<pdfrwt beam="2">  1       -2 0.33891310E-02 0.34002764E+03</pdfrwt>
<totfact> 0.77603396E+03</totfact>
</mgrwt>
</event>
<event>
 4    1  0.1361667E-004  0.7450839E+03  0.7818608E-02  0.9643095E-01
          2   -1    0    0  501    0  0.00000000000E+00  0.00000000000E+00  0.97430425746E+03  0.97430425747E+03  0.25500000000E-02 0.  1.
         -2   -1    0    0    0  501 -0.00000000000E+00 -0.00000000000E+00 -0.14244781089E+03  0.14244781092E+03  0.25500000000E-02 0. -1.
    5000001    1    1    2    0    0 -0.10525244468E+03 -0.20602916211E+03  0.21840916459E+02  0.26482469368E+03  0.12700000000E+03 0.  0.
   -5000001    1    1    2    0    0  0.10525244468E+03  0.20602916211E+03  0.81001553011E+03  0.85192737471E+03  0.12700000000E+03 0.  0.
<mgrwt>
<rscale>  0 0.74508391E+03</rscale>
<asrwt>0</asrwt>
<pdfrwt beam="1">  1        2 0.13918632E+00 0.74508391E+03</pdfrwt>
<pdfrwt beam="2">  1       -2 0.20349687E-01 0.74508391E+03</pdfrwt>
<totfact> 0.60528640E+02</totfact>
</mgrwt>
</event>
<event>
 4    1  0.1361667E-004  0.4729437E+03  0.7818608E-02  0.1021093E+00
          2   -1    0    0  501    0  0.00000000000E+00  0.00000000000E+00  0.96588120964E+03  0.96588120965E+03  0.25500000000E-02 0.  1.
         -2   -1    0    0    0  501 -0.00000000000E+00 -0.00000000000E+00 -0.57894220647E+02  0.57894220703E+02  0.25500000000E-02 0. -1.
    5000001    1    1    2    0    0  0.18759307908E+03  0.28830844253E+02  0.32112400289E+03  0.39404569041E+03  0.12700000000E+03 0.  0.
   -5000001    1    1    2    0    0 -0.18759307908E+03 -0.28830844253E+02  0.58686298610E+03  0.62972973994E+03  0.12700000000E+03 0.  0.
<mgrwt>
<rscale>  0 0.47294372E+03</rscale>
<asrwt>0</asrwt>
<pdfrwt beam="1">  1        2 0.13798302E+00 0.47294372E+03</pdfrwt>
<pdfrwt beam="2">  1       -2 0.82706034E-02 0.47294372E+03</pdfrwt>
<totfact> 0.27506322E+03</totfact>
</mgrwt>
</event>
<event>
 4    1  0.1361667E-004  0.6066969E+03  0.7818608E-02  0.9891609E-01
          2   -1    0    0  501    0  0.00000000000E+00  0.00000000000E+00  0.11940571793E+04  0.11940571793E+04  0.25500000000E-02 0.  1.
         -2   -1    0    0    0  501 -0.00000000000E+00 -0.00000000000E+00 -0.77065210524E+02  0.77065210566E+02  0.25500000000E-02 0. -1.
    5000001    1    1    2    0    0  0.73320233753E+02  0.26335512611E+03  0.62983857980E+03  0.69825311724E+03  0.12700000000E+03 0.  0.
   -5000001    1    1    2    0    0 -0.73320233753E+02 -0.26335512611E+03  0.48715338893E+03  0.57286927259E+03  0.12700000000E+03 0.  0.
<mgrwt>
<rscale>  0 0.60669685E+03</rscale>
<asrwt>0</asrwt>
<pdfrwt beam="1">  1        2 0.17057958E+00 0.60669685E+03</pdfrwt>
<pdfrwt beam="2">  1       -2 0.11009317E-01 0.60669685E+03</pdfrwt>
<totfact> 0.12733653E+03</totfact>
</mgrwt>
</event>
<event>
 4    1  0.1361667E-004  0.5459098E+03  0.7818608E-02  0.1002445E+00
         -2   -1    0    0    0  501 -0.00000000000E+00  0.00000000000E+00  0.47083077725E+03  0.47083077726E+03  0.25500000000E-02 0. -1.
          2   -1    0    0  501    0  0.00000000000E+00 -0.00000000000E+00 -0.15824026390E+03  0.15824026392E+03  0.25500000000E-02 0.  1.
    5000001    1    1    2    0    0 -0.15260207540E+03  0.15797694848E+03  0.40307842495E+02  0.25690043175E+03  0.12700000000E+03 0.  0.
   -5000001    1    1    2    0    0  0.15260207540E+03 -0.15797694848E+03  0.27228267086E+03  0.37217060942E+03  0.12700000000E+03 0.  0.
<mgrwt>
<rscale>  0 0.54590983E+03</rscale>
<asrwt>0</asrwt>
<pdfrwt beam="1">  1        2 0.22605752E-01 0.54590983E+03</pdfrwt>
<pdfrwt beam="2">  1       -2 0.67261540E-01 0.54590983E+03</pdfrwt>
<totfact> 0.50346196E+02</totfact>
</mgrwt>
</event>
<event>
 4    1  0.1361667E-004  0.5472861E+03  0.7818608E-02  0.1002124E+00
          2   -1    0    0  501    0  0.00000000000E+00  0.00000000000E+00  0.35631618790E+04  0.35631618790E+04  0.25500000000E-02 0.  1.
         -2   -1    0    0    0  501 -0.00000000000E+00 -0.00000000000E+00 -0.21015187750E+02  0.21015187905E+02  0.25500000000E-02 0. -1.
    5000001    1    1    2    0    0 -0.56296097529E+02  0.11915017748E+03  0.31033645282E+04  0.31087564089E+04  0.12700000000E+03 0.  0.
   -5000001    1    1    2    0    0  0.56296097529E+02 -0.11915017748E+03  0.43878216312E+03  0.47542065801E+03  0.12700000000E+03 0.  0.
<mgrwt>
<rscale>  0 0.54728609E+03</rscale>
<asrwt>0</asrwt>
<pdfrwt beam="1">  1        2 0.50902218E+00 0.54728609E+03</pdfrwt>
<pdfrwt beam="2">  1       -2 0.30021753E-02 0.54728609E+03</pdfrwt>
<totfact> 0.54376207E+02</totfact>
</mgrwt>
</event>
<event>
 4    1  0.1361667E-004  0.3159103E+03  0.7818608E-02  0.1077547E+00
          2   -1    0    0  501    0  0.00000000000E+00  0.00000000000E+00  0.57699976757E+03  0.57699976757E+03  0.25500000000E-02 0.  1.
         -2   -1    0    0    0  501 -0.00000000000E+00 -0.00000000000E+00 -0.43240613538E+02  0.43240613614E+02  0.25500000000E-02 0. -1.
    5000001    1    1    2    0    0  0.58673055956E+02  0.69292029589E+02  0.21972207884E+03  0.26953794685E+03  0.12700000000E+03 0.  0.
   -5000001    1    1    2    0    0 -0.58673055956E+02 -0.69292029589E+02  0.31403707518E+03  0.35070243434E+03  0.12700000000E+03 0.  0.
<mgrwt>
<rscale>  0 0.31591027E+03</rscale>
<asrwt>0</asrwt>
<pdfrwt beam="1">  1        2 0.82428541E-01 0.31591027E+03</pdfrwt>
<pdfrwt beam="2">  1       -2 0.61772303E-02 0.31591027E+03</pdfrwt>
<totfact> 0.81506132E+03</totfact>
</mgrwt>
</event>
<event>
 4    1  0.1361667E-004  0.2808752E+03  0.7818608E-02  0.1095212E+00
          2   -1    0    0  501    0  0.00000000000E+00  0.00000000000E+00  0.59561192119E+02  0.59561192173E+02  0.25500000000E-02 0.  1.
         -2   -1    0    0    0  501 -0.00000000000E+00 -0.00000000000E+00 -0.33113377849E+03  0.33113377850E+03  0.25500000000E-02 0. -1.
    5000001    1    1    2    0    0 -0.55619992176E+02 -0.20988800606E+02 -0.14652573011E+03  0.20281248203E+03  0.12700000000E+03 0.  0.
   -5000001    1    1    2    0    0  0.55619992176E+02  0.20988800606E+02 -0.12504685626E+03  0.18788248865E+03  0.12700000000E+03 0.  0.
<mgrwt>
<rscale>  0 0.28087522E+03</rscale>
<asrwt>0</asrwt>
<pdfrwt beam="1">  1        2 0.85087419E-02 0.28087522E+03</pdfrwt>
<pdfrwt beam="2">  1       -2 0.47304824E-01 0.28087522E+03</pdfrwt>
<totfact> 0.33620907E+03</totfact>
</mgrwt>
</event>
<event>
 4    1  0.1361667E-004  0.2951812E+03  0.7818608E-02  0.1087675E+00
         -2   -1    0    0    0  501 -0.00000000000E+00  0.00000000000E+00  0.27176584291E+02  0.27176584411E+02  0.25500000000E-02 0. -1.
          2   -1    0    0  501    0  0.00000000000E+00 -0.00000000000E+00 -0.80153502706E+03  0.80153502706E+03  0.25500000000E-02 0.  1.
    5000001    1    1    2    0    0  0.39692105753E+02  0.59153453302E+02 -0.31960201575E+03  0.35121082382E+03  0.12700000000E+03 0.  0.
   -5000001    1    1    2    0    0 -0.39692105753E+02 -0.59153453302E+02 -0.45475642701E+03  0.47750078765E+03  0.12700000000E+03 0.  0.
<mgrwt>
<rscale>  0 0.29518119E+03</rscale>
<asrwt>0</asrwt>
<pdfrwt beam="1">  1        2 0.11450499E+00 0.29518119E+03</pdfrwt>
<pdfrwt beam="2">  1       -2 0.38823697E-02 0.29518119E+03</pdfrwt>
<totfact> 0.11173347E+04</totfact>
</mgrwt>
</event>
<event>
 4    1  0.1361667E-004  0.4114111E+03  0.7818608E-02  0.1039899E+00
          2   -1    0    0  501    0  0.00000000000E+00  0.00000000000E+00  0.47022328347E+03  0.47022328347E+03  0.25500000000E-02 0.  1.
         -2   -1    0    0    0  501 -0.00000000000E+00 -0.00000000000E+00 -0.89988694621E+02  0.89988694657E+02  0.25500000000E-02 0. -1.
    5000001    1    1    2    0    0 -0.14083038139E+03  0.77972817802E+02  0.16762588294E+03  0.26484031655E+03  0.12700000000E+03 0.  0.
   -5000001    1    1    2    0    0  0.14083038139E+03 -0.77972817802E+02  0.21260870591E+03  0.29537166158E+03  0.12700000000E+03 0.  0.
<mgrwt>
<rscale>  0 0.41141113E+03</rscale>
<asrwt>0</asrwt>
<pdfrwt beam="1">  1        2 0.67174756E-01 0.41141113E+03</pdfrwt>
<pdfrwt beam="2">  1       -2 0.12855528E-01 0.41141113E+03</pdfrwt>
<totfact> 0.32245622E+03</totfact>
</mgrwt>
</event>
<event>
 4    1  0.1361667E-004  0.3378215E+03  0.7818608E-02  0.1067728E+00
         -2   -1    0    0    0  501 -0.00000000000E+00  0.00000000000E+00  0.11756986794E+02  0.11756987070E+02  0.25500000000E-02 0. -1.
          2   -1    0    0  501    0  0.00000000000E+00 -0.00000000000E+00 -0.24267136644E+04  0.24267136644E+04  0.25500000000E-02 0.  1.
    5000001    1    1    2    0    0 -0.21544007774E+01  0.86948952343E+02 -0.70545738342E+03  0.72205531753E+03  0.12700000000E+03 0.  0.
   -5000001    1    1    2    0    0  0.21544007774E+01 -0.86948952343E+02 -0.17094992942E+04  0.17164153340E+04  0.12700000000E+03 0.  0.
<mgrwt>
<rscale>  0 0.33782150E+03</rscale>
<asrwt>0</asrwt>
<pdfrwt beam="1">  1        2 0.34667306E+00 0.33782150E+03</pdfrwt>
<pdfrwt beam="2">  1       -2 0.16795711E-02 0.33782150E+03</pdfrwt>
<totfact> 0.54471175E+03</totfact>
</mgrwt>
</event>
<event>
 4    1  0.1361667E-004  0.4155195E+03  0.7818608E-02  0.1038534E+00
         -2   -1    0    0    0  501 -0.00000000000E+00  0.00000000000E+00  0.19419512944E+04  0.19419512944E+04  0.25500000000E-02 0. -1.
          2   -1    0    0  501    0  0.00000000000E+00 -0.00000000000E+00 -0.22227189060E+02  0.22227189206E+02  0.25500000000E-02 0.  1.
    5000001    1    1    2    0    0 -0.10440270466E+03  0.11965570656E+03  0.11613974416E+04  0.11790633699E+04  0.12700000000E+03 0.  0.
   -5000001    1    1    2    0    0  0.10440270466E+03 -0.11965570656E+03  0.75832666374E+03  0.78511511372E+03  0.12700000000E+03 0.  0.
<mgrwt>
<rscale>  0 0.41551952E+03</rscale>
<asrwt>0</asrwt>
<pdfrwt beam="1">  1        2 0.31753127E-02 0.41551952E+03</pdfrwt>
<pdfrwt beam="2">  1       -2 0.27742162E+00 0.41551952E+03</pdfrwt>
<totfact> 0.14246143E+02</totfact>
</mgrwt>
</event>
<event>
 4    1  0.1361667E-004  0.4487239E+03  0.7818608E-02  0.1028103E+00
          2   -1    0    0  501    0  0.00000000000E+00  0.00000000000E+00  0.52549807006E+03  0.52549807007E+03  0.25500000000E-02 0.  1.
         -2   -1    0    0    0  501 -0.00000000000E+00 -0.00000000000E+00 -0.95791582092E+02  0.95791582126E+02  0.25500000000E-02 0. -1.
    5000001    1    1    2    0    0  0.17271544531E+03  0.25589975949E+02  0.29934400199E+03  0.36908170294E+03  0.12700000000E+03 0.  0.
   -5000001    1    1    2    0    0 -0.17271544531E+03 -0.25589975949E+02  0.13036248598E+03  0.25220794925E+03  0.12700000000E+03 0.  0.
<mgrwt>
<rscale>  0 0.44872393E+03</rscale>
<asrwt>0</asrwt>
<pdfrwt beam="1">  1        2 0.75071150E-01 0.44872393E+03</pdfrwt>
<pdfrwt beam="2">  1       -2 0.13684512E-01 0.44872393E+03</pdfrwt>
<totfact> 0.25698772E+03</totfact>
</mgrwt>
</event>
<event>
 4    1  0.1361667E-004  0.5082930E+03  0.7818608E-02  0.1011637E+00
          2   -1    0    0  501    0  0.00000000000E+00  0.00000000000E+00  0.72572098084E+03  0.72572098085E+03  0.25500000000E-02 0. -1.
         -2   -1    0    0    0  501 -0.00000000000E+00 -0.00000000000E+00 -0.89001744932E+02  0.89001744968E+02  0.25500000000E-02 0.  1.
    5000001    1    1    2    0    0 -0.21689571502E+03  0.35932729518E+02  0.33638887070E+03  0.42145152103E+03  0.12700000000E+03 0.  0.
   -5000001    1    1    2    0    0  0.21689571502E+03 -0.35932729518E+02  0.30033036521E+03  0.39327120479E+03  0.12700000000E+03 0.  0.
<mgrwt>
<rscale>  0 0.50829296E+03</rscale>
<asrwt>0</asrwt>
<pdfrwt beam="1">  1        2 0.10367442E+00 0.50829296E+03</pdfrwt>
<pdfrwt beam="2">  1       -2 0.12714536E-01 0.50829296E+03</pdfrwt>
<totfact> 0.19858799E+03</totfact>
</mgrwt>
</event>
<event>
 4    1  0.1361667E-004  0.3496598E+03  0.7818608E-02  0.1062755E+00
          2   -1    0    0  501    0  0.00000000000E+00  0.00000000000E+00  0.71442598545E+03  0.71442598546E+03  0.25500000000E-02 0.  1.
         -2   -1    0    0    0  501 -0.00000000000E+00 -0.00000000000E+00 -0.42783297902E+02  0.42783297978E+02  0.25500000000E-02 0. -1.
    5000001    1    1    2    0    0  0.58671412938E+01 -0.11983742620E+03  0.34969914073E+03  0.39091421193E+03  0.12700000000E+03 0.  0.
   -5000001    1    1    2    0    0 -0.58671412938E+01  0.11983742620E+03  0.32194354682E+03  0.36629507150E+03  0.12700000000E+03 0.  0.
<mgrwt>
<rscale>  0 0.34965983E+03</rscale>
<asrwt>0</asrwt>
<pdfrwt beam="1">  1        2 0.10206085E+00 0.34965983E+03</pdfrwt>
<pdfrwt beam="2">  1       -2 0.61119002E-02 0.34965983E+03</pdfrwt>
<totfact> 0.64720804E+03</totfact>
</mgrwt>
</event>
<event>
 4    1  0.1361667E-004  0.3505852E+03  0.7818608E-02  0.1062375E+00
         -2   -1    0    0    0  501 -0.00000000000E+00  0.00000000000E+00  0.24068137160E+03  0.24068137161E+03  0.25500000000E-02 0. -1.
          2   -1    0    0  501    0  0.00000000000E+00 -0.00000000000E+00 -0.12766873819E+03  0.12766873822E+03  0.25500000000E-02 0.  1.
    5000001    1    1    2    0    0  0.94710181906E+02 -0.59256479354E+02  0.81623945066E+01  0.16934276951E+03  0.12700000000E+03 0.  0.
   -5000001    1    1    2    0    0 -0.94710181906E+02  0.59256479354E+02  0.10485023890E+03  0.19900734032E+03  0.12700000000E+03 0.  0.
<mgrwt>
<rscale>  0 0.35058515E+03</rscale>
<asrwt>0</asrwt>
<pdfrwt beam="1">  1        2 0.18238391E-01 0.35058515E+03</pdfrwt>
<pdfrwt beam="2">  1       -2 0.34383053E-01 0.35058515E+03</pdfrwt>
<totfact> 0.24675650E+03</totfact>
</mgrwt>
</event>
<event>
 4    1  0.1361667E-004  0.4654446E+03  0.7818608E-02  0.1023214E+00
         -2   -1    0    0    0  501 -0.00000000000E+00  0.00000000000E+00  0.91243853521E+02  0.91243853557E+02  0.25500000000E-02 0. -1.
          2   -1    0    0  501    0  0.00000000000E+00 -0.00000000000E+00 -0.59357072626E+03  0.59357072627E+03  0.25500000000E-02 0.  1.
    5000001    1    1    2    0    0 -0.40667027436E+02  0.10070993878E+03 -0.12854476623E+02  0.16760231639E+03  0.12700000000E+03 0.  0.
   -5000001    1    1    2    0    0  0.40667027436E+02 -0.10070993878E+03 -0.48947239612E+03  0.51721226344E+03  0.12700000000E+03 0.  0.
<mgrwt>
<rscale>  0 0.46544465E+03</rscale>
<asrwt>0</asrwt>
<pdfrwt beam="1">  1        2 0.84795816E-01 0.46544465E+03</pdfrwt>
<pdfrwt beam="2">  1       -2 0.13034837E-01 0.46544465E+03</pdfrwt>
<totfact> 0.24221698E+03</totfact>
</mgrwt>
</event>
<event>
 4    1  0.1361667E-004  0.4143529E+03  0.7818608E-02  0.1038920E+00
         -2   -1    0    0    0  501 -0.00000000000E+00  0.00000000000E+00  0.84463193527E+02  0.84463193565E+02  0.25500000000E-02 0. -1.
          2   -1    0    0  501    0  0.00000000000E+00 -0.00000000000E+00 -0.50817506300E+03  0.50817506301E+03  0.25500000000E-02 0.  1.
    5000001    1    1    2    0    0 -0.97994681986E+02 -0.12794326037E+03 -0.17088281057E+03  0.26702503725E+03  0.12700000000E+03 0.  0.
   -5000001    1    1    2    0    0  0.97994681986E+02  0.12794326037E+03 -0.25282905891E+03  0.32561321933E+03  0.12700000000E+03 0.  0.
<mgrwt>
<rscale>  0 0.41435294E+03</rscale>
<asrwt>0</asrwt>
<pdfrwt beam="1">  1        2 0.72596436E-01 0.41435294E+03</pdfrwt>
<pdfrwt beam="2">  1       -2 0.12066171E-01 0.41435294E+03</pdfrwt>
<totfact> 0.32796198E+03</totfact>
</mgrwt>
</event>
<event>
 4    1  0.1361667E-004  0.5166106E+03  0.7818608E-02  0.1009532E+00
          2   -1    0    0  501    0  0.00000000000E+00  0.00000000000E+00  0.83457297852E+03  0.83457297852E+03  0.25500000000E-02 0.  1.
         -2   -1    0    0    0  501 -0.00000000000E+00 -0.00000000000E+00 -0.79947031345E+02  0.79947031386E+02  0.25500000000E-02 0. -1.
    5000001    1    1    2    0    0 -0.33167213246E+02 -0.11303612834E+03  0.38114391220E+02  0.17736667433E+03  0.12700000000E+03 0.  0.
   -5000001    1    1    2    0    0  0.33167213246E+02  0.11303612834E+03  0.71651155595E+03  0.73715333558E+03  0.12700000000E+03 0.  0.
<mgrwt>
<rscale>  0 0.51661062E+03</rscale>
<asrwt>0</asrwt>
<pdfrwt beam="1">  1        2 0.11922471E+00 0.51661062E+03</pdfrwt>
<pdfrwt beam="2">  1       -2 0.11421004E-01 0.51661062E+03</pdfrwt>
<totfact> 0.19861679E+03</totfact>
</mgrwt>
</event>
<event>
 4    1  0.1361667E-004  0.3612419E+03  0.7818608E-02  0.1058093E+00
          2   -1    0    0  501    0  0.00000000000E+00  0.00000000000E+00  0.41380566429E+03  0.41380566430E+03  0.25500000000E-02 0.  1.
         -2   -1    0    0    0  501 -0.00000000000E+00 -0.00000000000E+00 -0.78838762363E+02  0.78838762404E+02  0.25500000000E-02 0. -1.
    5000001    1    1    2    0    0 -0.29916016202E+02  0.12477926993E+03  0.16000240127E+03  0.24123557499E+03  0.12700000000E+03 0.  0.
   -5000001    1    1    2    0    0  0.29916016202E+02 -0.12477926993E+03  0.17496450066E+03  0.25140885172E+03  0.12700000000E+03 0.  0.
<mgrwt>
<rscale>  0 0.36124189E+03</rscale>
<asrwt>0</asrwt>
<pdfrwt beam="1">  1        2 0.59115096E-01 0.36124189E+03</pdfrwt>
<pdfrwt beam="2">  1       -2 0.11262680E-01 0.36124189E+03</pdfrwt>
<totfact> 0.45939976E+03</totfact>
</mgrwt>
</event>
<event>
 4    1  0.1361667E-004  0.1027101E+04  0.7818608E-02  0.9279310E-01
         -2   -1    0    0    0  501 -0.00000000000E+00  0.00000000000E+00  0.23539045226E+03  0.23539045227E+03  0.25500000000E-02 0. -1.
          2   -1    0    0  501    0  0.00000000000E+00 -0.00000000000E+00 -0.11204117949E+04  0.11204117949E+04  0.25500000000E-02 0.  1.
    5000001    1    1    2    0    0  0.48822449146E+03 -0.70654709789E+02 -0.52856592906E+03  0.73407505300E+03  0.12700000000E+03 0.  0.
   -5000001    1    1    2    0    0 -0.48822449146E+03  0.70654709789E+02 -0.35645541353E+03  0.62172719413E+03  0.12700000000E+03 0.  0.
<mgrwt>
<rscale>  0 0.10271012E+04</rscale>
<asrwt>0</asrwt>
<pdfrwt beam="1">  1        2 0.16005882E+00 0.10271012E+04</pdfrwt>
<pdfrwt beam="2">  1       -2 0.33627208E-01 0.10271012E+04</pdfrwt>
<totfact> 0.19545802E+02</totfact>
</mgrwt>
</event>
<event>
 4    1  0.1361667E-004  0.4238981E+03  0.7818608E-02  0.1035805E+00
          2   -1    0    0  501    0  0.00000000000E+00  0.00000000000E+00  0.20058058864E+04  0.20058058864E+04  0.25500000000E-02 0.  1.
         -2   -1    0    0    0  501 -0.00000000000E+00 -0.00000000000E+00 -0.22396181738E+02  0.22396181883E+02  0.25500000000E-02 0. -1.
    5000001    1    1    2    0    0 -0.10692609765E+03 -0.13147673394E+03  0.95052592643E+03  0.97383153509E+03  0.12700000000E+03 0.  0.
   -5000001    1    1    2    0    0  0.10692609765E+03  0.13147673394E+03  0.10328837782E+04  0.10543705332E+04  0.12700000000E+03 0.  0.
<mgrwt>
<rscale>  0 0.42389807E+03</rscale>
<asrwt>0</asrwt>
<pdfrwt beam="1">  1        2 0.28654367E+00 0.42389807E+03</pdfrwt>
<pdfrwt beam="2">  1       -2 0.31994548E-02 0.42389807E+03</pdfrwt>
<totfact> 0.33640171E+03</totfact>
</mgrwt>
</event>
<event>
 4    1  0.1361667E-004  0.3914579E+03  0.7818608E-02  0.1046778E+00
         -2   -1    0    0    0  501 -0.00000000000E+00  0.00000000000E+00  0.64289544558E+02  0.64289544609E+02  0.25500000000E-02 0. -1.
          2   -1    0    0  501    0  0.00000000000E+00 -0.00000000000E+00 -0.59589503393E+03  0.59589503394E+03  0.25500000000E-02 0.  1.
    5000001    1    1    2    0    0 -0.73275651047E+02  0.86341268612E+02 -0.42893555514E+03  0.46145297286E+03  0.12700000000E+03 0.  0.
   -5000001    1    1    2    0    0  0.73275651047E+02 -0.86341268612E+02 -0.10266993424E+03  0.19873160569E+03  0.12700000000E+03 0.  0.
<mgrwt>
<rscale>  0 0.39145789E+03</rscale>
<asrwt>0</asrwt>
<pdfrwt beam="1">  1        2 0.85127859E-01 0.39145789E+03</pdfrwt>
<pdfrwt beam="2">  1       -2 0.91842210E-02 0.39145789E+03</pdfrwt>
<totfact> 0.42425678E+03</totfact>
</mgrwt>
</event>
<event>
 4    1  0.1361667E-004  0.4390452E+03  0.7818608E-02  0.1031040E+00
          2   -1    0    0  501    0  0.00000000000E+00  0.00000000000E+00  0.45570906407E+03  0.45570906408E+03  0.25500000000E-02 0.  1.
         -2   -1    0    0    0  501 -0.00000000000E+00 -0.00000000000E+00 -0.10574764784E+03  0.10574764787E+03  0.25500000000E-02 0. -1.
    5000001    1    1    2    0    0 -0.24030314765E+01 -0.17902887197E+03  0.17755429445E+03  0.28233249730E+03  0.12700000000E+03 0.  0.
   -5000001    1    1    2    0    0  0.24030314765E+01  0.17902887197E+03  0.17240712179E+03  0.27912421464E+03  0.12700000000E+03 0.  0.
<mgrwt>
<rscale>  0 0.43904515E+03</rscale>
<asrwt>0</asrwt>
<pdfrwt beam="1">  1        2 0.65101296E-01 0.43904515E+03</pdfrwt>
<pdfrwt beam="2">  1       -2 0.15106807E-01 0.43904515E+03</pdfrwt>
<totfact> 0.25576670E+03</totfact>
</mgrwt>
</event>
<event>
 4    1  0.1361667E-004  0.3883410E+03  0.7818608E-02  0.1047893E+00
         -2   -1    0    0    0  501 -0.00000000000E+00  0.00000000000E+00  0.19845842044E+02  0.19845842208E+02  0.25500000000E-02 0. -1.
          2   -1    0    0  501    0  0.00000000000E+00 -0.00000000000E+00 -0.18997520221E+04  0.18997520221E+04  0.25500000000E-02 0.  1.
    5000001    1    1    2    0    0 -0.14114404518E+03  0.15078593913E+02 -0.75341030883E+03  0.77711331152E+03  0.12700000000E+03 0.  0.
   -5000001    1    1    2    0    0  0.14114404518E+03 -0.15078593913E+02 -0.11264958712E+04  0.11424845528E+04  0.12700000000E+03 0.  0.
<mgrwt>
<rscale>  0 0.38834098E+03</rscale>
<asrwt>0</asrwt>
<pdfrwt beam="1">  1        2 0.27139303E+00 0.38834098E+03</pdfrwt>
<pdfrwt beam="2">  1       -2 0.28351215E-02 0.38834098E+03</pdfrwt>
<totfact> 0.45571328E+03</totfact>
</mgrwt>
</event>
<event>
 4    1  0.1361667E-004  0.7855235E+03  0.7818608E-02  0.9581211E-01
         -2   -1    0    0    0  501 -0.00000000000E+00  0.00000000000E+00  0.69612528571E+02  0.69612528618E+02  0.25500000000E-02 0. -1.
          2   -1    0    0  501    0  0.00000000000E+00 -0.00000000000E+00 -0.22160064415E+04  0.22160064415E+04  0.25500000000E-02 0.  1.
    5000001    1    1    2    0    0 -0.19705099183E+03 -0.30490904595E+03 -0.84162272187E+03  0.92534124822E+03  0.12700000000E+03 0.  0.
   -5000001    1    1    2    0    0  0.19705099183E+03  0.30490904595E+03 -0.13047711911E+04  0.13602777219E+04  0.12700000000E+03 0.  0.
<mgrwt>
<rscale>  0 0.78552355E+03</rscale>
<asrwt>0</asrwt>
<pdfrwt beam="1">  1        2 0.31657231E+00 0.78552355E+03</pdfrwt>
<pdfrwt beam="2">  1       -2 0.99446483E-02 0.78552355E+03</pdfrwt>
<totfact> 0.43941711E+02</totfact>
</mgrwt>
</event>
<event>
 4    1  0.1361667E-004  0.4336325E+03  0.7818608E-02  0.1032719E+00
         -2   -1    0    0    0  501 -0.00000000000E+00  0.00000000000E+00  0.13370512512E+02  0.13370512756E+02  0.25500000000E-02 0. -1.
          2   -1    0    0  501    0  0.00000000000E+00 -0.00000000000E+00 -0.35158932794E+04  0.35158932794E+04  0.25500000000E-02 0.  1.
    5000001    1    1    2    0    0  0.57377199549E+02  0.16505645167E+03 -0.19023283922E+04  0.19145542790E+04  0.12700000000E+03 0.  0.
   -5000001    1    1    2    0    0 -0.57377199549E+02 -0.16505645167E+03 -0.16001943746E+04  0.16147095132E+04  0.12700000000E+03 0.  0.
<mgrwt>
<rscale>  0 0.43363254E+03</rscale>
<asrwt>0</asrwt>
<pdfrwt beam="1">  1        2 0.50226988E+00 0.43363254E+03</pdfrwt>
<pdfrwt beam="2">  1       -2 0.19100755E-02 0.43363254E+03</pdfrwt>
<totfact> 0.11606079E+03</totfact>
</mgrwt>
</event>
<event>
 4    1  0.1361667E-004  0.3755824E+03  0.7818608E-02  0.1052579E+00
          2   -1    0    0  501    0  0.00000000000E+00  0.00000000000E+00  0.36845198435E+04  0.36845198435E+04  0.25500000000E-02 0.  1.
         -2   -1    0    0    0  501 -0.00000000000E+00 -0.00000000000E+00 -0.95712712883E+01  0.95712716280E+01  0.25500000000E-02 0. -1.
    5000001    1    1    2    0    0 -0.12300080664E+03  0.21190892314E+02  0.12507651594E+04  0.12633767199E+04  0.12700000000E+03 0.  0.
   -5000001    1    1    2    0    0  0.12300080664E+03 -0.21190892314E+02  0.24241834128E+04  0.24307143952E+04  0.12700000000E+03 0.  0.
<mgrwt>
<rscale>  0 0.37558243E+03</rscale>
<asrwt>0</asrwt>
<pdfrwt beam="1">  1        2 0.52635996E+00 0.37558243E+03</pdfrwt>
<pdfrwt beam="2">  1       -2 0.13673245E-02 0.37558243E+03</pdfrwt>
<totfact> 0.15198211E+03</totfact>
</mgrwt>
</event>
<event>
 4    1  0.1361667E-004  0.4786356E+03  0.7818608E-02  0.1019511E+00
         -2   -1    0    0    0  501 -0.00000000000E+00  0.00000000000E+00  0.20688909871E+03  0.20688909873E+03  0.25500000000E-02 0.  1.
          2   -1    0    0  501    0  0.00000000000E+00 -0.00000000000E+00 -0.27682950969E+03  0.27682950970E+03  0.25500000000E-02 0. -1.
    5000001    1    1    2    0    0  0.70627322406E+02  0.16445797950E+03  0.61486358163E+02  0.22791274193E+03  0.12700000000E+03 0.  0.
   -5000001    1    1    2    0    0 -0.70627322406E+02 -0.16445797950E+03 -0.13142676914E+03  0.25580586651E+03  0.12700000000E+03 0.  0.
<mgrwt>
<rscale>  0 0.47863559E+03</rscale>
<asrwt>0</asrwt>
<pdfrwt beam="1">  1        2 0.39547073E-01 0.47863559E+03</pdfrwt>
<pdfrwt beam="2">  1       -2 0.29555586E-01 0.47863559E+03</pdfrwt>
<totfact> 0.13708507E+03</totfact>
</mgrwt>
</event>
<event>
 4    1  0.1361667E-004  0.5734982E+03  0.7818608E-02  0.9961967E-01
          2   -1    0    0  501    0  0.00000000000E+00  0.00000000000E+00  0.19197839174E+03  0.19197839176E+03  0.25500000000E-02 0.  1.
         -2   -1    0    0    0  501 -0.00000000000E+00 -0.00000000000E+00 -0.42830359494E+03  0.42830359495E+03  0.25500000000E-02 0. -1.
    5000001    1    1    2    0    0 -0.12056254483E+03  0.22359206092E+03 -0.75343949999E+02  0.29382724129E+03  0.12700000000E+03 0.  0.
   -5000001    1    1    2    0    0  0.12056254483E+03 -0.22359206092E+03 -0.16098125320E+03  0.32645474541E+03  0.12700000000E+03 0.  0.
<mgrwt>
<rscale>  0 0.57349816E+03</rscale>
<asrwt>0</asrwt>
<pdfrwt beam="1">  1        2 0.27425485E-01 0.57349816E+03</pdfrwt>
<pdfrwt beam="2">  1       -2 0.61186228E-01 0.57349816E+03</pdfrwt>
<totfact> 0.49376115E+02</totfact>
</mgrwt>
</event>
<event>
 4    1  0.1361667E-004  0.3877055E+03  0.7818608E-02  0.1048122E+00
          2   -1    0    0  501    0  0.00000000000E+00  0.00000000000E+00  0.34094814547E+03  0.34094814547E+03  0.25500000000E-02 0.  1.
         -2   -1    0    0    0  501 -0.00000000000E+00 -0.00000000000E+00 -0.11021876520E+03  0.11021876523E+03  0.25500000000E-02 0. -1.
    5000001    1    1    2    0    0 -0.11991941093E+03 -0.76949090582E+02  0.15479378728E+03  0.24574772479E+03  0.12700000000E+03 0.  0.
   -5000001    1    1    2    0    0  0.11991941093E+03  0.76949090582E+02  0.75935592985E+02  0.20541918591E+03  0.12700000000E+03 0.  0.
<mgrwt>
<rscale>  0 0.38770547E+03</rscale>
<asrwt>0</asrwt>
<pdfrwt beam="1">  1        2 0.48706878E-01 0.38770547E+03</pdfrwt>
<pdfrwt beam="2">  1       -2 0.15745538E-01 0.38770547E+03</pdfrwt>
<totfact> 0.32757792E+03</totfact>
</mgrwt>
</event>
<event>
 4    1  0.1361667E-004  0.7574685E+03  0.7818608E-02  0.9623706E-01
          2   -1    0    0  501    0  0.00000000000E+00  0.00000000000E+00  0.12149327348E+04  0.12149327348E+04  0.25500000000E-02 0.  1.
         -2   -1    0    0    0  501 -0.00000000000E+00 -0.00000000000E+00 -0.11806383937E+03  0.11806383940E+03  0.25500000000E-02 0. -1.
    5000001    1    1    2    0    0  0.13617208811E+03  0.54207071627E+02  0.11209240373E+04  0.11375767849E+04  0.12700000000E+03 0.  0.
   -5000001    1    1    2    0    0 -0.13617208811E+03 -0.54207071627E+02 -0.24055141868E+02  0.19541978929E+03  0.12700000000E+03 0.  0.
<mgrwt>
<rscale>  0 0.75746848E+03</rscale>
<asrwt>0</asrwt>
<pdfrwt beam="1">  1        2 0.17356182E+00 0.75746848E+03</pdfrwt>
<pdfrwt beam="2">  1       -2 0.16866262E-01 0.75746848E+03</pdfrwt>
<totfact> 0.60425688E+02</totfact>
</mgrwt>
</event>
<event>
 4    1  0.1361667E-004  0.4109159E+03  0.7818608E-02  0.1040064E+00
         -2   -1    0    0    0  501 -0.00000000000E+00  0.00000000000E+00  0.31890937845E+02  0.31890937947E+02  0.25500000000E-02 0.  1.
          2   -1    0    0  501    0  0.00000000000E+00 -0.00000000000E+00 -0.13236665455E+04  0.13236665455E+04  0.25500000000E-02 0. -1.
    5000001    1    1    2    0    0  0.13682635096E+03  0.74209518537E+02 -0.50378869884E+03  0.54236570323E+03  0.12700000000E+03 0.  0.
   -5000001    1    1    2    0    0 -0.13682635096E+03 -0.74209518537E+02 -0.78798690881E+03  0.81319178022E+03  0.12700000000E+03 0.  0.
<mgrwt>
<rscale>  0 0.41091589E+03</rscale>
<asrwt>0</asrwt>
<pdfrwt beam="1">  1        2 0.18909519E+00 0.41091589E+03</pdfrwt>
<pdfrwt beam="2">  1       -2 0.45558491E-02 0.41091589E+03</pdfrwt>
<totfact> 0.43588544E+03</totfact>
</mgrwt>
</event>
<event>
 4    1  0.1361667E-004  0.3644323E+03  0.7818608E-02  0.1056843E+00
          2   -1    0    0  501    0  0.00000000000E+00  0.00000000000E+00  0.11691630102E+04  0.11691630102E+04  0.25500000000E-02 0. -1.
         -2   -1    0    0    0  501 -0.00000000000E+00 -0.00000000000E+00 -0.28398714788E+02  0.28398714902E+02  0.25500000000E-02 0.  1.
    5000001    1    1    2    0    0  0.10822256937E+03 -0.45557705874E+02  0.75875628672E+03  0.77822087593E+03  0.12700000000E+03 0.  0.
   -5000001    1    1    2    0    0 -0.10822256937E+03  0.45557705874E+02  0.38200800867E+03  0.41934084916E+03  0.12700000000E+03 0.  0.
<mgrwt>
<rscale>  0 0.36443231E+03</rscale>
<asrwt>0</asrwt>
<pdfrwt beam="1">  1        2 0.16702327E+00 0.36443231E+03</pdfrwt>
<pdfrwt beam="2">  1       -2 0.40569598E-02 0.36443231E+03</pdfrwt>
<totfact> 0.63019281E+03</totfact>
</mgrwt>
</event>
<event>
 4    1  0.1361667E-004  0.4561767E+03  0.7818608E-02  0.1025896E+00
         -2   -1    0    0    0  501 -0.00000000000E+00  0.00000000000E+00  0.44338006275E+02  0.44338006348E+02  0.25500000000E-02 0. -1.
          2   -1    0    0  501    0  0.00000000000E+00 -0.00000000000E+00 -0.11733567628E+04  0.11733567629E+04  0.25500000000E-02 0.  1.
    5000001    1    1    2    0    0  0.12543582983E+03  0.13192158755E+03 -0.70469078049E+03  0.73882037653E+03  0.12700000000E+03 0.  0.
   -5000001    1    1    2    0    0 -0.12543582983E+03 -0.13192158755E+03 -0.42432797609E+03  0.47887439267E+03  0.12700000000E+03 0.  0.
<mgrwt>
<rscale>  0 0.45617672E+03</rscale>
<asrwt>0</asrwt>
<pdfrwt beam="1">  1        2 0.16762238E+00 0.45617672E+03</pdfrwt>
<pdfrwt beam="2">  1       -2 0.63340016E-02 0.45617672E+03</pdfrwt>
<totfact> 0.31653947E+03</totfact>
</mgrwt>
</event>
<event>
 4    1  0.1361667E-004  0.3564850E+03  0.7818608E-02  0.1059984E+00
         -2   -1    0    0    0  501 -0.00000000000E+00  0.00000000000E+00  0.20250955366E+03  0.20250955368E+03  0.25500000000E-02 0. -1.
          2   -1    0    0  501    0  0.00000000000E+00 -0.00000000000E+00 -0.15688339103E+03  0.15688339106E+03  0.25500000000E-02 0.  1.
    5000001    1    1    2    0    0 -0.62837442700E+02  0.10010746643E+03 -0.18402388357E+02  0.17446402763E+03  0.12700000000E+03 0.  0.
   -5000001    1    1    2    0    0  0.62837442700E+02 -0.10010746643E+03  0.64028550984E+02  0.18492891710E+03  0.12700000000E+03 0.  0.
<mgrwt>
<rscale>  0 0.35648498E+03</rscale>
<asrwt>0</asrwt>
<pdfrwt beam="1">  1        2 0.22411913E-01 0.35648498E+03</pdfrwt>
<pdfrwt beam="2">  1       -2 0.28929936E-01 0.35648498E+03</pdfrwt>
<totfact> 0.26754372E+03</totfact>
</mgrwt>
</event>
<event>
 4    1  0.1361667E-004  0.3726399E+03  0.7818608E-02  0.1053688E+00
         -2   -1    0    0    0  501 -0.00000000000E+00  0.00000000000E+00  0.25321193755E+02  0.25321193883E+02  0.25500000000E-02 0. -1.
          2   -1    0    0  501    0  0.00000000000E+00 -0.00000000000E+00 -0.13709908571E+04  0.13709908571E+04  0.25500000000E-02 0.  1.
    5000001    1    1    2    0    0 -0.49560418652E+02 -0.10580323364E+03 -0.93608072143E+03  0.95185433569E+03  0.12700000000E+03 0.  0.
   -5000001    1    1    2    0    0  0.49560418652E+02  0.10580323364E+03 -0.40958894197E+03  0.44445771534E+03  0.12700000000E+03 0.  0.
<mgrwt>
<rscale>  0 0.37263991E+03</rscale>
<asrwt>0</asrwt>
<pdfrwt beam="1">  1        2 0.19585579E+00 0.37263991E+03</pdfrwt>
<pdfrwt beam="2">  1       -2 0.36173143E-02 0.37263991E+03</pdfrwt>
<totfact> 0.58391775E+03</totfact>
</mgrwt>
</event>
<event>
 4    1  0.1361667E-004  0.3467487E+03  0.7818608E-02  0.1063957E+00
          2   -1    0    0  501    0  0.00000000000E+00  0.00000000000E+00  0.56639614337E+03  0.56639614337E+03  0.25500000000E-02 0.  1.
         -2   -1    0    0    0  501 -0.00000000000E+00 -0.00000000000E+00 -0.53070052143E+02  0.53070052204E+02  0.25500000000E-02 0. -1.
    5000001    1    1    2    0    0 -0.58266291403E+02  0.29272822891E+02  0.80914657410E+02  0.16409765586E+03  0.12700000000E+03 0.  0.
   -5000001    1    1    2    0    0  0.58266291403E+02 -0.29272822891E+02  0.43241143381E+03  0.45536853972E+03  0.12700000000E+03 0.  0.
<mgrwt>
<rscale>  0 0.34674874E+03</rscale>
<asrwt>0</asrwt>
<pdfrwt beam="1">  1        2 0.80913737E-01 0.34674874E+03</pdfrwt>
<pdfrwt beam="2">  1       -2 0.75814358E-02 0.34674874E+03</pdfrwt>
<totfact> 0.60716777E+03</totfact>
</mgrwt>
</event>
<event>
 4    1  0.1361667E-004  0.3366325E+03  0.7818608E-02  0.1068239E+00
         -2   -1    0    0    0  501 -0.00000000000E+00  0.00000000000E+00  0.12059244927E+02  0.12059245197E+02  0.25500000000E-02 0. -1.
          2   -1    0    0  501    0  0.00000000000E+00 -0.00000000000E+00 -0.23492653413E+04  0.23492653413E+04  0.25500000000E-02 0.  1.
    5000001    1    1    2    0    0 -0.39546160835E+02 -0.53519960604E+02 -0.17870411044E+04  0.17927836439E+04  0.12700000000E+03 0.  0.
   -5000001    1    1    2    0    0  0.39546160835E+02  0.53519960604E+02 -0.55016499202E+03  0.56854094265E+03  0.12700000000E+03 0.  0.
<mgrwt>
<rscale>  0 0.33663254E+03</rscale>
<asrwt>0</asrwt>
<pdfrwt beam="1">  1        2 0.33560904E+00 0.33663254E+03</pdfrwt>
<pdfrwt beam="2">  1       -2 0.17227508E-02 0.33663254E+03</pdfrwt>
<totfact> 0.57348671E+03</totfact>
</mgrwt>
</event>
<event>
 4    1  0.1361667E-004  0.5778607E+03  0.7818608E-02  0.9952433E-01
          2   -1    0    0  501    0  0.00000000000E+00  0.00000000000E+00  0.33809945189E+03  0.33809945190E+03  0.25500000000E-02 0.  1.
         -2   -1    0    0    0  501 -0.00000000000E+00 -0.00000000000E+00 -0.24691184097E+03  0.24691184099E+03  0.25500000000E-02 0. -1.
    5000001    1    1    2    0    0  0.18329592957E+03  0.15863581992E+03  0.13941766568E+03  0.30713027637E+03  0.12700000000E+03 0.  0.
   -5000001    1    1    2    0    0 -0.18329592957E+03 -0.15863581992E+03 -0.48230054754E+02  0.27788101652E+03  0.12700000000E+03 0.  0.
<mgrwt>
<rscale>  0 0.57786074E+03</rscale>
<asrwt>0</asrwt>
<pdfrwt beam="1">  1        2 0.48299922E-01 0.57786074E+03</pdfrwt>
<pdfrwt beam="2">  1       -2 0.35273120E-01 0.57786074E+03</pdfrwt>
<totfact> 0.79108078E+02</totfact>
</mgrwt>
</event>
<event>
 4    1  0.1361667E-004  0.4524024E+03  0.7818608E-02  0.1027008E+00
          2   -1    0    0  501    0  0.00000000000E+00  0.00000000000E+00  0.11862187985E+04  0.11862187985E+04  0.25500000000E-02 0.  1.
         -2   -1    0    0    0  501 -0.00000000000E+00 -0.00000000000E+00 -0.43134526050E+02  0.43134526126E+02  0.25500000000E-02 0. -1.
    5000001    1    1    2    0    0  0.21249968320E+02 -0.11422789739E+03  0.97034534880E+03  0.98549412461E+03  0.12700000000E+03 0.  0.
   -5000001    1    1    2    0    0 -0.21249968320E+02  0.11422789739E+03  0.17273892367E+03  0.24385920004E+03  0.12700000000E+03 0.  0.
<mgrwt>
<rscale>  0 0.45240241E+03</rscale>
<asrwt>0</asrwt>
<pdfrwt beam="1">  1        2 0.16945984E+00 0.45240241E+03</pdfrwt>
<pdfrwt beam="2">  1       -2 0.61620747E-02 0.45240241E+03</pdfrwt>
<totfact> 0.32499400E+03</totfact>
</mgrwt>
</event>
<event>
 4    1  0.1361667E-004  0.4258457E+03  0.7818608E-02  0.1035180E+00
         -2   -1    0    0    0  501 -0.00000000000E+00  0.00000000000E+00  0.14291595194E+02  0.14291595422E+02  0.25500000000E-02 0. -1.
          2   -1    0    0  501    0  0.00000000000E+00 -0.00000000000E+00 -0.31722240754E+04  0.31722240754E+04  0.25500000000E-02 0.  1.
    5000001    1    1    2    0    0  0.13882912119E+03  0.65342107968E+02 -0.21421192732E+04  0.21513593602E+04  0.12700000000E+03 0.  0.
   -5000001    1    1    2    0    0 -0.13882912119E+03 -0.65342107968E+02 -0.10158132070E+04  0.10351563107E+04  0.12700000000E+03 0.  0.
<mgrwt>
<rscale>  0 0.42584571E+03</rscale>
<asrwt>0</asrwt>
<pdfrwt beam="1">  1        2 0.45317442E+00 0.42584571E+03</pdfrwt>
<pdfrwt beam="2">  1       -2 0.20416585E-02 0.42584571E+03</pdfrwt>
<totfact> 0.16521848E+03</totfact>
</mgrwt>
</event>
<event>
 4    1  0.1361667E-004  0.9087815E+03  0.7818608E-02  0.9414670E-01
          2   -1    0    0  501    0  0.00000000000E+00  0.00000000000E+00  0.24373023352E+03  0.24373023353E+03  0.25500000000E-02 0.  1.
         -2   -1    0    0    0  501 -0.00000000000E+00 -0.00000000000E+00 -0.84712902183E+03  0.84712902183E+03  0.25500000000E-02 0. -1.
    5000001    1    1    2    0    0 -0.34205000468E+03  0.25955065178E+03 -0.20889716268E+03  0.49409692482E+03  0.12700000000E+03 0.  0.
   -5000001    1    1    2    0    0  0.34205000468E+03 -0.25955065178E+03 -0.39450162562E+03  0.59676233055E+03  0.12700000000E+03 0.  0.
<mgrwt>
<rscale>  0 0.90878150E+03</rscale>
<asrwt>0</asrwt>
<pdfrwt beam="1">  1        2 0.34818605E-01 0.90878150E+03</pdfrwt>
<pdfrwt beam="2">  1       -2 0.12101843E+00 0.90878150E+03</pdfrwt>
<totfact> 0.78445447E+01</totfact>
</mgrwt>
</event>
<event>
 4    1  0.1361667E-004  0.4442946E+03  0.7818608E-02  0.1029437E+00
          2   -1    0    0  501    0  0.00000000000E+00  0.00000000000E+00  0.98253608996E+03  0.98253608996E+03  0.25500000000E-02 0.  1.
         -2   -1    0    0    0  501 -0.00000000000E+00 -0.00000000000E+00 -0.50226576288E+02  0.50226576352E+02  0.25500000000E-02 0. -1.
    5000001    1    1    2    0    0  0.92626534150E+02 -0.44202243105E+02  0.11603455316E+03  0.20031607687E+03  0.12700000000E+03 0.  0.
   -5000001    1    1    2    0    0 -0.92626534150E+02  0.44202243105E+02  0.81627496051E+03  0.83244658945E+03  0.12700000000E+03 0.  0.
<mgrwt>
<rscale>  0 0.44429460E+03</rscale>
<asrwt>0</asrwt>
<pdfrwt beam="1">  1        2 0.14036229E+00 0.44429460E+03</pdfrwt>
<pdfrwt beam="2">  1       -2 0.71752255E-02 0.44429460E+03</pdfrwt>
<totfact> 0.33619618E+03</totfact>
</mgrwt>
</event>
<event>
 4    1  0.1361667E-004  0.2925690E+03  0.7818608E-02  0.1089015E+00
          2   -1    0    0  501    0  0.00000000000E+00  0.00000000000E+00  0.81385056005E+03  0.81385056005E+03  0.25500000000E-02 0.  1.
         -2   -1    0    0    0  501 -0.00000000000E+00 -0.00000000000E+00 -0.26293716813E+02  0.26293716937E+02  0.25500000000E-02 0. -1.
    5000001    1    1    2    0    0  0.18331641976E+01  0.72435344002E+02  0.38096297448E+03  0.40805885295E+03  0.12700000000E+03 0.  0.
   -5000001    1    1    2    0    0 -0.18331641976E+01 -0.72435344002E+02  0.40659386876E+03  0.43208542403E+03  0.12700000000E+03 0.  0.
<mgrwt>
<rscale>  0 0.29256901E+03</rscale>
<asrwt>0</asrwt>
<pdfrwt beam="1">  1        2 0.11626434E+00 0.29256901E+03</pdfrwt>
<pdfrwt beam="2">  1       -2 0.37562460E-02 0.29256901E+03</pdfrwt>
<totfact> 0.11517857E+04</totfact>
</mgrwt>
</event>
<event>
 4    1  0.1361667E-004  0.3344499E+03  0.7818608E-02  0.1069185E+00
          2   -1    0    0  501    0  0.00000000000E+00  0.00000000000E+00  0.96249154452E+03  0.96249154452E+03  0.25500000000E-02 0.  1.
         -2   -1    0    0    0  501 -0.00000000000E+00 -0.00000000000E+00 -0.29053957401E+02  0.29053957513E+02  0.25500000000E-02 0. -1.
    5000001    1    1    2    0    0  0.57053921419E+02 -0.52328052972E+02  0.69331643259E+03  0.70909100317E+03  0.12700000000E+03 0.  0.
   -5000001    1    1    2    0    0 -0.57053921419E+02  0.52328052972E+02  0.24012115453E+03  0.28245449887E+03  0.12700000000E+03 0.  0.
<mgrwt>
<rscale>  0 0.33444993E+03</rscale>
<asrwt>0</asrwt>
<pdfrwt beam="1">  1        2 0.13749880E+00 0.33444993E+03</pdfrwt>
<pdfrwt beam="2">  1       -2 0.41505650E-02 0.33444993E+03</pdfrwt>
<totfact> 0.80048775E+03</totfact>
</mgrwt>
</event>
<event>
 4    1  0.1361667E-004  0.6147490E+03  0.7818608E-02  0.9875270E-01
          2   -1    0    0  501    0  0.00000000000E+00  0.00000000000E+00  0.53332362615E+03  0.53332362615E+03  0.25500000000E-02 0.  1.
         -2   -1    0    0    0  501 -0.00000000000E+00 -0.00000000000E+00 -0.17715149857E+03  0.17715149859E+03  0.25500000000E-02 0. -1.
    5000001    1    1    2    0    0  0.74560287153E+02 -0.25208149554E+03  0.66958337718E+02  0.29952752095E+03  0.12700000000E+03 0.  0.
   -5000001    1    1    2    0    0 -0.74560287153E+02  0.25208149554E+03  0.28921378986E+03  0.41094760379E+03  0.12700000000E+03 0.  0.
<mgrwt>
<rscale>  0 0.61474899E+03</rscale>
<asrwt>0</asrwt>
<pdfrwt beam="1">  1        2 0.76189090E-01 0.61474899E+03</pdfrwt>
<pdfrwt beam="2">  1       -2 0.25307357E-01 0.61474899E+03</pdfrwt>
<totfact> 0.87613008E+02</totfact>
</mgrwt>
</event>
<event>
 4    1  0.1361667E-004  0.3140524E+03  0.7818608E-02  0.1078420E+00
         -2   -1    0    0    0  501 -0.00000000000E+00  0.00000000000E+00  0.27620639436E+02  0.27620639554E+02  0.25500000000E-02 0. -1.
          2   -1    0    0  501    0  0.00000000000E+00 -0.00000000000E+00 -0.89271028825E+03  0.89271028825E+03  0.25500000000E-02 0.  1.
    5000001    1    1    2    0    0  0.36227125345E+02 -0.82508562427E+02 -0.49174976358E+03  0.51581672856E+03  0.12700000000E+03 0.  0.
   -5000001    1    1    2    0    0 -0.36227125345E+02  0.82508562427E+02 -0.37333988524E+03  0.40451419925E+03  0.12700000000E+03 0.  0.
<mgrwt>
<rscale>  0 0.31405241E+03</rscale>
<asrwt>0</asrwt>
<pdfrwt beam="1">  1        2 0.12753002E+00 0.31405241E+03</pdfrwt>
<pdfrwt beam="2">  1       -2 0.39458062E-02 0.31405241E+03</pdfrwt>
<totfact> 0.95285750E+03</totfact>
</mgrwt>
</event>
<event>
 4    1  0.1361667E-004  0.5916871E+03  0.7818608E-02  0.9922804E-01
         -2   -1    0    0    0  501 -0.00000000000E+00  0.00000000000E+00  0.43254682382E+02  0.43254682458E+02  0.25500000000E-02 0. -1.
          2   -1    0    0  501    0  0.00000000000E+00 -0.00000000000E+00 -0.20234435401E+04  0.20234435401E+04  0.25500000000E-02 0.  1.
    5000001    1    1    2    0    0  0.19387377005E+03 -0.14122141679E+03 -0.14013647435E+04  0.14274041725E+04  0.12700000000E+03 0.  0.
   -5000001    1    1    2    0    0 -0.19387377005E+03  0.14122141679E+03 -0.57882411422E+03  0.63929405009E+03  0.12700000000E+03 0.  0.
<mgrwt>
<rscale>  0 0.59168711E+03</rscale>
<asrwt>0</asrwt>
<pdfrwt beam="1">  1        2 0.28906330E+00 0.59168711E+03</pdfrwt>
<pdfrwt beam="2">  1       -2 0.61792416E-02 0.59168711E+03</pdfrwt>
<totfact> 0.11897659E+03</totfact>
</mgrwt>
</event>
<event>
 4    1  0.1361667E-004  0.3249380E+03  0.7818608E-02  0.1073399E+00
          2   -1    0    0  501    0  0.00000000000E+00  0.00000000000E+00  0.22490839610E+04  0.22490839610E+04  0.25500000000E-02 0.  1.
         -2   -1    0    0    0  501 -0.00000000000E+00 -0.00000000000E+00 -0.11736409825E+02  0.11736410102E+02  0.25500000000E-02 0. -1.
    5000001    1    1    2    0    0  0.30094691814E+02  0.80874601783E+02  0.74914337006E+03  0.76471640534E+03  0.12700000000E+03 0.  0.
   -5000001    1    1    2    0    0 -0.30094691814E+02 -0.80874601783E+02  0.14882041811E+04  0.14961039657E+04  0.12700000000E+03 0.  0.
<mgrwt>
<rscale>  0 0.32493797E+03</rscale>
<asrwt>0</asrwt>
<pdfrwt beam="1">  1        2 0.32129803E+00 0.32493797E+03</pdfrwt>
<pdfrwt beam="2">  1       -2 0.16766283E-02 0.32493797E+03</pdfrwt>
<totfact> 0.66919643E+03</totfact>
</mgrwt>
</event>
<event>
 4    1  0.1361667E-004  0.5026910E+03  0.7818608E-02  0.1013079E+00
          2   -1    0    0  501    0  0.00000000000E+00  0.00000000000E+00  0.75661806823E+03  0.75661806823E+03  0.25500000000E-02 0.  1.
         -2   -1    0    0    0  501 -0.00000000000E+00 -0.00000000000E+00 -0.83495985834E+02  0.83495985873E+02  0.25500000000E-02 0. -1.
    5000001    1    1    2    0    0 -0.87358414145E+01 -0.70261122935E+02 -0.60729068146E+01  0.14552944897E+03  0.12700000000E+03 0.  0.
   -5000001    1    1    2    0    0  0.87358414145E+01  0.70261122935E+02  0.67919498921E+03  0.69458460513E+03  0.12700000000E+03 0.  0.
<mgrwt>
<rscale>  0 0.50269104E+03</rscale>
<asrwt>0</asrwt>
<pdfrwt beam="1">  1        2 0.10808829E+00 0.50269104E+03</pdfrwt>
<pdfrwt beam="2">  1       -2 0.11927998E-01 0.50269104E+03</pdfrwt>
<totfact> 0.20947173E+03</totfact>
</mgrwt>
</event>
<event>
 4    1  0.1361667E-004  0.8050655E+03  0.7818608E-02  0.9552714E-01
         -2   -1    0    0    0  501 -0.00000000000E+00  0.00000000000E+00  0.78913850211E+02  0.78913850253E+02  0.25500000000E-02 0. -1.
          2   -1    0    0  501    0  0.00000000000E+00 -0.00000000000E+00 -0.20532849856E+04  0.20532849856E+04  0.25500000000E-02 0.  1.
    5000001    1    1    2    0    0  0.34861490842E+03  0.51420017329E+02 -0.59679540319E+03  0.70460636232E+03  0.12700000000E+03 0.  0.
   -5000001    1    1    2    0    0 -0.34861490842E+03 -0.51420017329E+02 -0.13775757322E+04  0.14275924735E+04  0.12700000000E+03 0.  0.
<mgrwt>
<rscale>  0 0.80506552E+03</rscale>
<asrwt>0</asrwt>
<pdfrwt beam="1">  1        2 0.29332639E+00 0.80506552E+03</pdfrwt>
<pdfrwt beam="2">  1       -2 0.11273408E-01 0.80506552E+03</pdfrwt>
<totfact> 0.43222360E+02</totfact>
</mgrwt>
</event>
<event>
 4    1  0.1361667E-004  0.5471492E+03  0.7818608E-02  0.1002156E+00
          2   -1    0    0  501    0  0.00000000000E+00  0.00000000000E+00  0.73744246077E+03  0.73744246077E+03  0.25500000000E-02 0.  1.
         -2   -1    0    0    0  501 -0.00000000000E+00 -0.00000000000E+00 -0.10149002145E+03  0.10149002149E+03  0.25500000000E-02 0. -1.
    5000001    1    1    2    0    0 -0.43667227014E+02  0.12403165955E+03  0.59119860240E+01  0.18290607115E+03  0.12700000000E+03 0.  0.
   -5000001    1    1    2    0    0  0.43667227014E+02 -0.12403165955E+03  0.63004045329E+03  0.65602641110E+03  0.12700000000E+03 0.  0.
<mgrwt>
<rscale>  0 0.54714916E+03</rscale>
<asrwt>0</asrwt>
<pdfrwt beam="1">  1        2 0.10534892E+00 0.54714916E+03</pdfrwt>
<pdfrwt beam="2">  1       -2 0.14498575E-01 0.54714916E+03</pdfrwt>
<totfact> 0.15652273E+03</totfact>
</mgrwt>
</event>
<event>
 4    1  0.1361667E-004  0.4234331E+03  0.7818608E-02  0.1035955E+00
         -2   -1    0    0    0  501 -0.00000000000E+00  0.00000000000E+00  0.28846282641E+02  0.28846282754E+02  0.25500000000E-02 0. -1.
          2   -1    0    0  501    0  0.00000000000E+00 -0.00000000000E+00 -0.15538880917E+04  0.15538880917E+04  0.25500000000E-02 0.  1.
    5000001    1    1    2    0    0 -0.54818463883E+02 -0.14421920113E+03 -0.50112024630E+03  0.53949489637E+03  0.12700000000E+03 0.  0.
   -5000001    1    1    2    0    0  0.54818463883E+02  0.14421920113E+03 -0.10239215627E+04  0.10432394780E+04  0.12700000000E+03 0.  0.
<mgrwt>
<rscale>  0 0.42343309E+03</rscale>
<asrwt>0</asrwt>
<pdfrwt beam="1">  1        2 0.22198396E+00 0.42343309E+03</pdfrwt>
<pdfrwt beam="2">  1       -2 0.41208985E-02 0.42343309E+03</pdfrwt>
<totfact> 0.38566689E+03</totfact>
</mgrwt>
</event>
<event>
 4    1  0.1361667E-004  0.6188539E+03  0.7818608E-02  0.9867044E-01
         -2   -1    0    0    0  501 -0.00000000000E+00  0.00000000000E+00  0.88440975363E+02  0.88440975400E+02  0.25500000000E-02 0. -1.
          2   -1    0    0  501    0  0.00000000000E+00 -0.00000000000E+00 -0.10825869816E+04  0.10825869816E+04  0.25500000000E-02 0.  1.
    5000001    1    1    2    0    0  0.25287429890E+03  0.59285633551E+02 -0.70570061830E+03  0.76262871704E+03  0.12700000000E+03 0.  0.
   -5000001    1    1    2    0    0 -0.25287429890E+03 -0.59285633551E+02 -0.28844538798E+03  0.40839924000E+03  0.12700000000E+03 0.  0.
<mgrwt>
<rscale>  0 0.61885394E+03</rscale>
<asrwt>0</asrwt>
<pdfrwt beam="1">  1        2 0.15465528E+00 0.61885394E+03</pdfrwt>
<pdfrwt beam="2">  1       -2 0.12634426E-01 0.61885394E+03</pdfrwt>
<totfact> 0.11760674E+03</totfact>
</mgrwt>
</event>
<event>
 4    1  0.1361667E-004  0.3996966E+03  0.7818608E-02  0.1043885E+00
          2   -1    0    0  501    0  0.00000000000E+00  0.00000000000E+00  0.73259295139E+03  0.73259295139E+03  0.25500000000E-02 0.  1.
         -2   -1    0    0    0  501 -0.00000000000E+00 -0.00000000000E+00 -0.54517777581E+02  0.54517777641E+02  0.25500000000E-02 0. -1.
    5000001    1    1    2    0    0 -0.97605849089E+02 -0.10947517997E+03  0.43345220744E+03  0.47489107482E+03  0.12700000000E+03 0.  0.
   -5000001    1    1    2    0    0  0.97605849089E+02  0.10947517997E+03  0.24462296636E+03  0.31221965421E+03  0.12700000000E+03 0.  0.
<mgrwt>
<rscale>  0 0.39969658E+03</rscale>
<asrwt>0</asrwt>
<pdfrwt beam="1">  1        2 0.10465614E+00 0.39969658E+03</pdfrwt>
<pdfrwt beam="2">  1       -2 0.77882536E-02 0.39969658E+03</pdfrwt>
<totfact> 0.43127037E+03</totfact>
</mgrwt>
</event>
<event>
 4    1  0.1361667E-004  0.5184535E+03  0.7818608E-02  0.1009071E+00
          2   -1    0    0  501    0  0.00000000000E+00  0.00000000000E+00  0.77229143409E+03  0.77229143409E+03  0.25500000000E-02 0.  1.
         -2   -1    0    0    0  501 -0.00000000000E+00 -0.00000000000E+00 -0.87011866653E+02  0.87011866690E+02  0.25500000000E-02 0. -1.
    5000001    1    1    2    0    0  0.95886913825E+02  0.18818473022E+03  0.47587250980E+03  0.53590245242E+03  0.12700000000E+03 0.  0.
   -5000001    1    1    2    0    0 -0.95886913825E+02 -0.18818473022E+03  0.20940705764E+03  0.32340084836E+03  0.12700000000E+03 0.  0.
<mgrwt>
<rscale>  0 0.51845354E+03</rscale>
<asrwt>0</asrwt>
<pdfrwt beam="1">  1        2 0.11032735E+00 0.51845354E+03</pdfrwt>
<pdfrwt beam="2">  1       -2 0.12430267E-01 0.51845354E+03</pdfrwt>
<totfact> 0.19079905E+03</totfact>
</mgrwt>
</event>
<event>
 4    1  0.1361667E-004  0.3623306E+03  0.7818608E-02  0.1057665E+00
         -2   -1    0    0    0  501 -0.00000000000E+00  0.00000000000E+00  0.47957361923E+03  0.47957361924E+03  0.25500000000E-02 0. -1.
          2   -1    0    0  501    0  0.00000000000E+00 -0.00000000000E+00 -0.68437613842E+02  0.68437613890E+02  0.25500000000E-02 0.  1.
    5000001    1    1    2    0    0  0.23822043919E+02 -0.12533550990E+03  0.23639382636E+03  0.29713216076E+03  0.12700000000E+03 0.  0.
   -5000001    1    1    2    0    0 -0.23822043919E+02  0.12533550990E+03  0.17474217903E+03  0.25087907236E+03  0.12700000000E+03 0.  0.
<mgrwt>
<rscale>  0 0.36233065E+03</rscale>
<asrwt>0</asrwt>
<pdfrwt beam="1">  1        2 0.97768022E-02 0.36233065E+03</pdfrwt>
<pdfrwt beam="2">  1       -2 0.68510516E-01 0.36233065E+03</pdfrwt>
<totfact> 0.13255663E+03</totfact>
</mgrwt>
</event>
<event>
 4    1  0.1361667E-004  0.3991692E+03  0.7818608E-02  0.1044068E+00
          2   -1    0    0  501    0  0.00000000000E+00  0.00000000000E+00  0.13158583807E+03  0.13158583809E+03  0.25500000000E-02 0.  1.
         -2   -1    0    0    0  501 -0.00000000000E+00 -0.00000000000E+00 -0.30272261861E+03  0.30272261862E+03  0.25500000000E-02 0. -1.
    5000001    1    1    2    0    0 -0.15152884066E+03  0.22549430192E+02 -0.68869927327E+02  0.21057429388E+03  0.12700000000E+03 0.  0.
   -5000001    1    1    2    0    0  0.15152884066E+03 -0.22549430192E+02 -0.10226685322E+03  0.22373416284E+03  0.12700000000E+03 0.  0.
<mgrwt>
<rscale>  0 0.39916918E+03</rscale>
<asrwt>0</asrwt>
<pdfrwt beam="1">  1        2 0.18797977E-01 0.39916918E+03</pdfrwt>
<pdfrwt beam="2">  1       -2 0.43246088E-01 0.39916918E+03</pdfrwt>
<totfact> 0.15402569E+03</totfact>
</mgrwt>
</event>
<event>
 4    1  0.1361667E-004  0.3093418E+03  0.7818608E-02  0.1080662E+00
         -2   -1    0    0    0  501 -0.00000000000E+00  0.00000000000E+00  0.18257943977E+03  0.18257943979E+03  0.25500000000E-02 0. -1.
          2   -1    0    0  501    0  0.00000000000E+00 -0.00000000000E+00 -0.13102834593E+03  0.13102834596E+03  0.25500000000E-02 0.  1.
    5000001    1    1    2    0    0 -0.87249720679E+02 -0.13279324241E+02  0.28093514390E+02  0.15718492218E+03  0.12700000000E+03 0.  0.
   -5000001    1    1    2    0    0  0.87249720679E+02  0.13279324241E+02  0.23457579450E+02  0.15642286356E+03  0.12700000000E+03 0.  0.
<mgrwt>
<rscale>  0 0.30934177E+03</rscale>
<asrwt>0</asrwt>
<pdfrwt beam="1">  1        2 0.18718335E-01 0.30934177E+03</pdfrwt>
<pdfrwt beam="2">  1       -2 0.26082777E-01 0.30934177E+03</pdfrwt>
<totfact> 0.39501160E+03</totfact>
</mgrwt>
</event>
<event>
 4    1  0.1361667E-004  0.6404696E+03  0.7818608E-02  0.9824828E-01
          2   -1    0    0  501    0  0.00000000000E+00  0.00000000000E+00  0.36179926276E+03  0.36179926277E+03  0.25500000000E-02 0. -1.
         -2   -1    0    0    0  501 -0.00000000000E+00 -0.00000000000E+00 -0.28344540407E+03  0.28344540409E+03  0.25500000000E-02 0.  1.
    5000001    1    1    2    0    0 -0.24805203765E+03 -0.60038098140E+02 -0.10781131954E+03  0.30477314060E+03  0.12700000000E+03 0.  0.
   -5000001    1    1    2    0    0  0.24805203765E+03  0.60038098140E+02  0.18616517822E+03  0.34047152626E+03  0.12700000000E+03 0.  0.
<mgrwt>
<rscale>  0 0.64046963E+03</rscale>
<asrwt>0</asrwt>
<pdfrwt beam="1">  1        2 0.51685609E-01 0.64046963E+03</pdfrwt>
<pdfrwt beam="2">  1       -2 0.40492201E-01 0.64046963E+03</pdfrwt>
<totfact> 0.56248085E+02</totfact>
</mgrwt>
</event>
<event>
 4    1  0.1361667E-004  0.3737582E+03  0.7818608E-02  0.1053265E+00
         -2   -1    0    0    0  501 -0.00000000000E+00  0.00000000000E+00  0.40288760084E+03  0.40288760085E+03  0.25500000000E-02 0. -1.
          2   -1    0    0  501    0  0.00000000000E+00 -0.00000000000E+00 -0.86683717857E+02  0.86683717894E+02  0.25500000000E-02 0.  1.
    5000001    1    1    2    0    0  0.12279946251E+03 -0.47755456184E+02  0.10849116006E+03  0.21274309249E+03  0.12700000000E+03 0.  0.
   -5000001    1    1    2    0    0 -0.12279946251E+03  0.47755456184E+02  0.20771272292E+03  0.27682822626E+03  0.12700000000E+03 0.  0.
<mgrwt>
<rscale>  0 0.37375818E+03</rscale>
<asrwt>0</asrwt>
<pdfrwt beam="1">  1        2 0.12383388E-01 0.37375818E+03</pdfrwt>
<pdfrwt beam="2">  1       -2 0.57555372E-01 0.37375818E+03</pdfrwt>
<totfact> 0.14272556E+03</totfact>
</mgrwt>
</event>
<event>
 4    1  0.1361667E-004  0.1120636E+04  0.7818608E-02  0.9185309E-01
         -2   -1    0    0    0  501 -0.00000000000E+00  0.00000000000E+00  0.88344305863E+03  0.88344305864E+03  0.25500000000E-02 0.  1.
          2   -1    0    0  501    0  0.00000000000E+00 -0.00000000000E+00 -0.35537800435E+03  0.35537800436E+03  0.25500000000E-02 0. -1.
    5000001    1    1    2    0    0 -0.43138860630E+03 -0.19625717552E+03 -0.35084929339E+02  0.49190747184E+03  0.12700000000E+03 0.  0.
   -5000001    1    1    2    0    0  0.43138860630E+03  0.19625717552E+03  0.56314998362E+03  0.74691359115E+03  0.12700000000E+03 0.  0.
<mgrwt>
<rscale>  0 0.11206359E+04</rscale>
<asrwt>0</asrwt>
<pdfrwt beam="1">  1        2 0.50768287E-01 0.11206359E+04</pdfrwt>
<pdfrwt beam="2">  1       -2 0.12620615E+00 0.11206359E+04</pdfrwt>
<totfact> 0.45837069E+01</totfact>
</mgrwt>
</event>
<event>
 4    1  0.1361667E-004  0.9139991E+03  0.7818608E-02  0.9408249E-01
          2   -1    0    0  501    0  0.00000000000E+00  0.00000000000E+00  0.29373255464E+04  0.29373255464E+04  0.25500000000E-02 0.  1.
         -2   -1    0    0    0  501 -0.00000000000E+00 -0.00000000000E+00 -0.71101616622E+02  0.71101616667E+02  0.25500000000E-02 0. -1.
    5000001    1    1    2    0    0  0.22685487757E+03  0.17459109159E+03  0.25286146589E+04  0.25479337271E+04  0.12700000000E+03 0.  0.
   -5000001    1    1    2    0    0 -0.22685487757E+03 -0.17459109159E+03  0.33760927087E+03  0.46049343591E+03  0.12700000000E+03 0.  0.
<mgrwt>
<rscale>  0 0.91399911E+03</rscale>
<asrwt>0</asrwt>
<pdfrwt beam="1">  1        2 0.41961781E+00 0.91399911E+03</pdfrwt>
<pdfrwt beam="2">  1       -2 0.10157377E-01 0.91399911E+03</pdfrwt>
<totfact> 0.17598558E+02</totfact>
</mgrwt>
</event>
<event>
 4    1  0.1361667E-004  0.3129557E+03  0.7818608E-02  0.1078938E+00
         -2   -1    0    0    0  501 -0.00000000000E+00  0.00000000000E+00  0.19290697299E+02  0.19290697468E+02  0.25500000000E-02 0. -1.
          2   -1    0    0  501    0  0.00000000000E+00 -0.00000000000E+00 -0.12692807129E+04  0.12692807129E+04  0.25500000000E-02 0.  1.
    5000001    1    1    2    0    0 -0.70463218899E+02  0.28234742680E+02 -0.83470270847E+03  0.84771450232E+03  0.12700000000E+03 0.  0.
   -5000001    1    1    2    0    0  0.70463218899E+02 -0.28234742680E+02 -0.41528730709E+03  0.44085690801E+03  0.12700000000E+03 0.  0.
<mgrwt>
<rscale>  0 0.31295565E+03</rscale>
<asrwt>0</asrwt>
<pdfrwt beam="1">  1        2 0.18132576E+00 0.31295565E+03</pdfrwt>
<pdfrwt beam="2">  1       -2 0.27558147E-02 0.31295565E+03</pdfrwt>
<totfact> 0.99107801E+03</totfact>
</mgrwt>
</event>
<event>
 4    1  0.1361667E-004  0.4476803E+03  0.7818608E-02  0.1028416E+00
         -2   -1    0    0    0  501 -0.00000000000E+00  0.00000000000E+00  0.71336223607E+02  0.71336223653E+02  0.25500000000E-02 0. -1.
          2   -1    0    0  501    0  0.00000000000E+00 -0.00000000000E+00 -0.70236981252E+03  0.70236981252E+03  0.25500000000E-02 0.  1.
    5000001    1    1    2    0    0 -0.40276252783E+02  0.17924172705E+03 -0.34147728819E+03  0.40802636141E+03  0.12700000000E+03 0.  0.
   -5000001    1    1    2    0    0  0.40276252783E+02 -0.17924172705E+03 -0.28955630072E+03  0.36567967477E+03  0.12700000000E+03 0.  0.
<mgrwt>
<rscale>  0 0.44768029E+03</rscale>
<asrwt>0</asrwt>
<pdfrwt beam="1">  1        2 0.10033854E+00 0.44768029E+03</pdfrwt>
<pdfrwt beam="2">  1       -2 0.10190890E-01 0.44768029E+03</pdfrwt>
<totfact> 0.29621619E+03</totfact>
</mgrwt>
</event>
<event>
 4    1  0.1361667E-004  0.5627413E+03  0.7818608E-02  0.9985871E-01
          2   -1    0    0  501    0  0.00000000000E+00  0.00000000000E+00  0.14188774022E+04  0.14188774022E+04  0.25500000000E-02 0.  1.
         -2   -1    0    0    0  501 -0.00000000000E+00 -0.00000000000E+00 -0.55797239832E+02  0.55797239891E+02  0.25500000000E-02 0. -1.
    5000001    1    1    2    0    0 -0.22375361718E+03 -0.98342611244E+02  0.53092305238E+03  0.59811808026E+03  0.12700000000E+03 0.  0.
   -5000001    1    1    2    0    0  0.22375361718E+03  0.98342611244E+02  0.83215710999E+03  0.87655656183E+03  0.12700000000E+03 0.  0.
<mgrwt>
<rscale>  0 0.56274130E+03</rscale>
<asrwt>0</asrwt>
<pdfrwt beam="1">  1        2 0.20269678E+00 0.56274130E+03</pdfrwt>
<pdfrwt beam="2">  1       -2 0.79710339E-02 0.56274130E+03</pdfrwt>
<totfact> 0.16196717E+03</totfact>
</mgrwt>
</event>
<event>
 4    1  0.1361667E-004  0.3459964E+03  0.7818608E-02  0.1064270E+00
          2   -1    0    0  501    0  0.00000000000E+00  0.00000000000E+00  0.11430437226E+03  0.11430437229E+03  0.25500000000E-02 0.  1.
         -2   -1    0    0    0  501 -0.00000000000E+00 -0.00000000000E+00 -0.26183051678E+03  0.26183051680E+03  0.25500000000E-02 0. -1.
    5000001    1    1    2    0    0  0.11453664754E+01 -0.51894310544E+02  0.40796705921E+02  0.14313525962E+03  0.12700000000E+03 0.  0.
   -5000001    1    1    2    0    0 -0.11453664754E+01  0.51894310544E+02 -0.18832285045E+03  0.23299962947E+03  0.12700000000E+03 0.  0.
<mgrwt>
<rscale>  0 0.34599637E+03</rscale>
<asrwt>0</asrwt>
<pdfrwt beam="1">  1        2 0.16329196E-01 0.34599637E+03</pdfrwt>
<pdfrwt beam="2">  1       -2 0.37404359E-01 0.34599637E+03</pdfrwt>
<totfact> 0.23971827E+03</totfact>
</mgrwt>
</event>
<event>
 4    1  0.1361667E-004  0.6911609E+03  0.7818608E-02  0.9732469E-01
          2   -1    0    0  501    0  0.00000000000E+00  0.00000000000E+00  0.23919570902E+04  0.23919570902E+04  0.25500000000E-02 0.  1.
         -2   -1    0    0    0  501 -0.00000000000E+00 -0.00000000000E+00 -0.49928089186E+02  0.49928089251E+02  0.25500000000E-02 0. -1.
    5000001    1    1    2    0    0 -0.25155476696E+03 -0.19350024028E+03  0.13502853466E+04  0.13928825008E+04  0.12700000000E+03 0.  0.
   -5000001    1    1    2    0    0  0.25155476696E+03  0.19350024028E+03  0.99174365445E+03  0.10490026787E+04  0.12700000000E+03 0.  0.
<mgrwt>
<rscale>  0 0.69116090E+03</rscale>
<asrwt>0</asrwt>
<pdfrwt beam="1">  1        2 0.34170821E+00 0.69116090E+03</pdfrwt>
<pdfrwt beam="2">  1       -2 0.71325831E-02 0.69116090E+03</pdfrwt>
<totfact> 0.61386215E+02</totfact>
</mgrwt>
</event>
<event>
 4    1  0.1361667E-004  0.3218992E+03  0.7818608E-02  0.1074779E+00
          2   -1    0    0  501    0  0.00000000000E+00  0.00000000000E+00  0.71938183862E+03  0.71938183863E+03  0.25500000000E-02 0.  1.
         -2   -1    0    0    0  501 -0.00000000000E+00 -0.00000000000E+00 -0.36009762332E+02  0.36009762422E+02  0.25500000000E-02 0. -1.
    5000001    1    1    2    0    0 -0.36882072376E+02  0.62778284412E+02  0.18471548698E+03  0.23569092343E+03  0.12700000000E+03 0.  0.
   -5000001    1    1    2    0    0  0.36882072376E+02 -0.62778284412E+02  0.49865658931E+03  0.51970067762E+03  0.12700000000E+03 0.  0.
<mgrwt>
<rscale>  0 0.32189917E+03</rscale>
<asrwt>0</asrwt>
<pdfrwt beam="1">  1        2 0.10276884E+00 0.32189917E+03</pdfrwt>
<pdfrwt beam="2">  1       -2 0.51442517E-02 0.32189917E+03</pdfrwt>
<totfact> 0.83459721E+03</totfact>
</mgrwt>
</event>
<event>
 4    1  0.1361667E-004  0.3743790E+03  0.7818608E-02  0.1053031E+00
         -2   -1    0    0    0  501 -0.00000000000E+00  0.00000000000E+00  0.21056535275E+03  0.21056535276E+03  0.25500000000E-02 0. -1.
          2   -1    0    0  501    0  0.00000000000E+00 -0.00000000000E+00 -0.16640868632E+03  0.16640868634E+03  0.25500000000E-02 0.  1.
    5000001    1    1    2    0    0  0.34640251456E+02 -0.95477403343E+02 -0.71273638587E+02  0.17755228280E+03  0.12700000000E+03 0.  0.
   -5000001    1    1    2    0    0 -0.34640251456E+02  0.95477403343E+02  0.11543030502E+03  0.19942175630E+03  0.12700000000E+03 0.  0.
<mgrwt>
<rscale>  0 0.37437897E+03</rscale>
<asrwt>0</asrwt>
<pdfrwt beam="1">  1        2 0.23772670E-01 0.37437897E+03</pdfrwt>
<pdfrwt beam="2">  1       -2 0.30080764E-01 0.37437897E+03</pdfrwt>
<totfact> 0.23324244E+03</totfact>
</mgrwt>
</event>
<event>
 4    1  0.1361667E-004  0.4126068E+03  0.7818608E-02  0.1039500E+00
         -2   -1    0    0    0  501 -0.00000000000E+00  0.00000000000E+00  0.11892507959E+03  0.11892507962E+03  0.25500000000E-02 0. -1.
          2   -1    0    0  501    0  0.00000000000E+00 -0.00000000000E+00 -0.35788158595E+03  0.35788158596E+03  0.25500000000E-02 0.  1.
    5000001    1    1    2    0    0 -0.13152997154E+03 -0.81650854275E+00 -0.90520522720E+01  0.18306211992E+03  0.12700000000E+03 0.  0.
   -5000001    1    1    2    0    0  0.13152997154E+03  0.81650854275E+00 -0.22990445409E+03  0.29374454567E+03  0.12700000000E+03 0.  0.
<mgrwt>
<rscale>  0 0.41260682E+03</rscale>
<asrwt>0</asrwt>
<pdfrwt beam="1">  1        2 0.51125940E-01 0.41260682E+03</pdfrwt>
<pdfrwt beam="2">  1       -2 0.16989297E-01 0.41260682E+03</pdfrwt>
<totfact> 0.27367690E+03</totfact>
</mgrwt>
</event>
<event>
 4    1  0.1361667E-004  0.4577567E+03  0.7818608E-02  0.1025434E+00
         -2   -1    0    0    0  501 -0.00000000000E+00  0.00000000000E+00  0.16038203825E+03  0.16038203827E+03  0.25500000000E-02 0. -1.
          2   -1    0    0  501    0  0.00000000000E+00 -0.00000000000E+00 -0.32662815684E+03  0.32662815685E+03  0.25500000000E-02 0.  1.
    5000001    1    1    2    0    0  0.16093209669E+03 -0.69088278881E+02 -0.16262441120E+03  0.27064373102E+03  0.12700000000E+03 0.  0.
   -5000001    1    1    2    0    0 -0.16093209669E+03  0.69088278881E+02 -0.36217073898E+01  0.21636646410E+03  0.12700000000E+03 0.  0.
<mgrwt>
<rscale>  0 0.45775666E+03</rscale>
<asrwt>0</asrwt>
<pdfrwt beam="1">  1        2 0.46661165E-01 0.45775666E+03</pdfrwt>
<pdfrwt beam="2">  1       -2 0.22911720E-01 0.45775666E+03</pdfrwt>
<totfact> 0.18067709E+03</totfact>
</mgrwt>
</event>
<event>
 4    1  0.1361667E-004  0.5300857E+03  0.7818608E-02  0.1006211E+00
          2   -1    0    0  501    0  0.00000000000E+00  0.00000000000E+00  0.25910302282E+03  0.25910302283E+03  0.25500000000E-02 0.  1.
         -2   -1    0    0    0  501 -0.00000000000E+00 -0.00000000000E+00 -0.27111884775E+03  0.27111884776E+03  0.25500000000E-02 0. -1.
    5000001    1    1    2    0    0  0.12045805891E+03 -0.15942527044E+03 -0.12516933436E+03  0.26781135726E+03  0.12700000000E+03 0.  0.
   -5000001    1    1    2    0    0 -0.12045805891E+03  0.15942527044E+03  0.11315350943E+03  0.26241051333E+03  0.12700000000E+03 0.  0.
<mgrwt>
<rscale>  0 0.53008570E+03</rscale>
<asrwt>0</asrwt>
<pdfrwt beam="1">  1        2 0.37014718E-01 0.53008570E+03</pdfrwt>
<pdfrwt beam="2">  1       -2 0.38731264E-01 0.53008570E+03</pdfrwt>
<totfact> 0.88751466E+02</totfact>
</mgrwt>
</event>
<event>
 4    1  0.1361667E-004  0.4614923E+03  0.7818608E-02  0.1024349E+00
          2   -1    0    0  501    0  0.00000000000E+00  0.00000000000E+00  0.46949620733E+03  0.46949620734E+03  0.25500000000E-02 0.  1.
         -2   -1    0    0    0  501 -0.00000000000E+00 -0.00000000000E+00 -0.11340618643E+03  0.11340618646E+03  0.25500000000E-02 0. -1.
    5000001    1    1    2    0    0  0.14741380376E+03  0.50847776484E+02  0.35152295257E+02  0.20415927550E+03  0.12700000000E+03 0.  0.
   -5000001    1    1    2    0    0 -0.14741380376E+03 -0.50847776484E+02  0.32093772565E+03  0.37874311830E+03  0.12700000000E+03 0.  0.
<mgrwt>
<rscale>  0 0.46149225E+03</rscale>
<asrwt>0</asrwt>
<pdfrwt beam="1">  1        2 0.67070887E-01 0.46149225E+03</pdfrwt>
<pdfrwt beam="2">  1       -2 0.16200884E-01 0.46149225E+03</pdfrwt>
<totfact> 0.22009605E+03</totfact>
</mgrwt>
</event>
<event>
 4    1  0.1361667E-004  0.6163535E+03  0.7818608E-02  0.9872047E-01
          2   -1    0    0  501    0  0.00000000000E+00  0.00000000000E+00  0.10082929525E+04  0.10082929525E+04  0.25500000000E-02 0.  1.
         -2   -1    0    0    0  501 -0.00000000000E+00 -0.00000000000E+00 -0.94191785043E+02  0.94191785078E+02  0.25500000000E-02 0. -1.
    5000001    1    1    2    0    0  0.97225927646E+02 -0.22175519832E+03  0.71137421558E+03  0.76210925961E+03  0.12700000000E+03 0.  0.
   -5000001    1    1    2    0    0 -0.97225927646E+02  0.22175519832E+03  0.20272695187E+03  0.34037547796E+03  0.12700000000E+03 0.  0.
<mgrwt>
<rscale>  0 0.61635351E+03</rscale>
<asrwt>0</asrwt>
<pdfrwt beam="1">  1        2 0.14404185E+00 0.61635351E+03</pdfrwt>
<pdfrwt beam="2">  1       -2 0.13455969E-01 0.61635351E+03</pdfrwt>
<totfact> 0.11731758E+03</totfact>
</mgrwt>
</event>
<event>
 4    1  0.1361667E-004  0.3277558E+03  0.7818608E-02  0.1072134E+00
         -2   -1    0    0    0  501 -0.00000000000E+00  0.00000000000E+00  0.23967793642E+03  0.23967793643E+03  0.25500000000E-02 0. -1.
          2   -1    0    0  501    0  0.00000000000E+00 -0.00000000000E+00 -0.11205021428E+03  0.11205021431E+03  0.25500000000E-02 0.  1.
    5000001    1    1    2    0    0  0.68458160521E+02 -0.77711632955E+02  0.65059122223E+02  0.17631592958E+03  0.12700000000E+03 0.  0.
   -5000001    1    1    2    0    0 -0.68458160521E+02  0.77711632955E+02  0.62568599916E+02  0.17541222116E+03  0.12700000000E+03 0.  0.
<mgrwt>
<rscale>  0 0.32775579E+03</rscale>
<asrwt>0</asrwt>
<pdfrwt beam="1">  1        2 0.16007174E-01 0.32775579E+03</pdfrwt>
<pdfrwt beam="2">  1       -2 0.34239705E-01 0.32775579E+03</pdfrwt>
<totfact> 0.28945084E+03</totfact>
</mgrwt>
</event>
<event>
 4    1  0.1361667E-004  0.4022421E+03  0.7818608E-02  0.1043006E+00
         -2   -1    0    0    0  501 -0.00000000000E+00  0.00000000000E+00  0.48005661251E+02  0.48005661319E+02  0.25500000000E-02 0. -1.
          2   -1    0    0  501    0  0.00000000000E+00 -0.00000000000E+00 -0.84260202806E+03  0.84260202806E+03  0.25500000000E-02 0.  1.
    5000001    1    1    2    0    0  0.80559030232E+02 -0.53691590457E+01 -0.10188194140E+03  0.18173473857E+03  0.12700000000E+03 0.  0.
   -5000001    1    1    2    0    0 -0.80559030232E+02  0.53691590457E+01 -0.69271442541E+03  0.70887295081E+03  0.12700000000E+03 0.  0.
<mgrwt>
<rscale>  0 0.40224205E+03</rscale>
<asrwt>0</asrwt>
<pdfrwt beam="1">  1        2 0.12037171E+00 0.40224205E+03</pdfrwt>
<pdfrwt beam="2">  1       -2 0.68579521E-02 0.40224205E+03</pdfrwt>
<totfact> 0.44204829E+03</totfact>
</mgrwt>
</event>
<event>
 4    1  0.1361667E-004  0.5103055E+03  0.7818608E-02  0.1011123E+00
          2   -1    0    0  501    0  0.00000000000E+00  0.00000000000E+00  0.95303862572E+03  0.95303862572E+03  0.25500000000E-02 0.  1.
         -2   -1    0    0    0  501 -0.00000000000E+00 -0.00000000000E+00 -0.68310896151E+02  0.68310896199E+02  0.25500000000E-02 0. -1.
    5000001    1    1    2    0    0 -0.13540616634E+03  0.75554856200E+02  0.75838064034E+03  0.78441925130E+03  0.12700000000E+03 0.  0.
   -5000001    1    1    2    0    0  0.13540616634E+03 -0.75554856200E+02  0.12634708923E+03  0.23693027062E+03  0.12700000000E+03 0.  0.
<mgrwt>
<rscale>  0 0.51030549E+03</rscale>
<asrwt>0</asrwt>
<pdfrwt beam="1">  1        2 0.13614837E+00 0.51030549E+03</pdfrwt>
<pdfrwt beam="2">  1       -2 0.97587001E-02 0.51030549E+03</pdfrwt>
<totfact> 0.21499483E+03</totfact>
</mgrwt>
</event>
<event>
 4    1  0.1361667E-004  0.4374716E+03  0.7818608E-02  0.1031525E+00
         -2   -1    0    0    0  501 -0.00000000000E+00  0.00000000000E+00  0.13519095421E+02  0.13519095662E+02  0.25500000000E-02 0. -1.
          2   -1    0    0  501    0  0.00000000000E+00 -0.00000000000E+00 -0.35390941528E+04  0.35390941528E+04  0.25500000000E-02 0.  1.
    5000001    1    1    2    0    0 -0.15797746338E+03  0.27873021083E+02 -0.11346686148E+04  0.11529681911E+04  0.12700000000E+03 0.  0.
   -5000001    1    1    2    0    0  0.15797746338E+03 -0.27873021083E+02 -0.23909064426E+04  0.23996450574E+04  0.12700000000E+03 0.  0.
<mgrwt>
<rscale>  0 0.43747161E+03</rscale>
<asrwt>0</asrwt>
<pdfrwt beam="1">  1        2 0.50558429E+00 0.43747161E+03</pdfrwt>
<pdfrwt beam="2">  1       -2 0.19313016E-02 0.43747161E+03</pdfrwt>
<totfact> 0.11056403E+03</totfact>
</mgrwt>
</event>
<event>
 4    1  0.1361667E-004  0.3338034E+03  0.7818608E-02  0.1069466E+00
         -2   -1    0    0    0  501 -0.00000000000E+00  0.00000000000E+00  0.62640805703E+02  0.62640805755E+02  0.25500000000E-02 0. -1.
          2   -1    0    0  501    0  0.00000000000E+00 -0.00000000000E+00 -0.44469702425E+03  0.44469702426E+03  0.25500000000E-02 0.  1.
    5000001    1    1    2    0    0  0.82347928738E+02 -0.36903391696E+02 -0.28201919495E+03  0.32219073234E+03  0.12700000000E+03 0.  0.
   -5000001    1    1    2    0    0 -0.82347928738E+02  0.36903391696E+02 -0.10003702360E+03  0.18514709767E+03  0.12700000000E+03 0.  0.
<mgrwt>
<rscale>  0 0.33380341E+03</rscale>
<asrwt>0</asrwt>
<pdfrwt beam="1">  1        2 0.63528144E-01 0.33380341E+03</pdfrwt>
<pdfrwt beam="2">  1       -2 0.89486868E-02 0.33380341E+03</pdfrwt>
<totfact> 0.61207117E+03</totfact>
</mgrwt>
</event>
<event>
 4    1  0.1361667E-004  0.6724747E+03  0.7818608E-02  0.9765497E-01
         -2   -1    0    0    0  501 -0.00000000000E+00  0.00000000000E+00  0.21618595385E+03  0.21618595387E+03  0.25500000000E-02 0. -1.
          2   -1    0    0  501    0  0.00000000000E+00 -0.00000000000E+00 -0.52295518849E+03  0.52295518849E+03  0.25500000000E-02 0.  1.
    5000001    1    1    2    0    0  0.27713720354E+03  0.19733695870E+02 -0.30778140396E+03  0.43365059778E+03  0.12700000000E+03 0.  0.
   -5000001    1    1    2    0    0 -0.27713720354E+03 -0.19733695870E+02  0.10121693214E+01  0.30549054457E+03  0.12700000000E+03 0.  0.
<mgrwt>
<rscale>  0 0.67247473E+03</rscale>
<asrwt>0</asrwt>
<pdfrwt beam="1">  1        2 0.74707884E-01 0.67247473E+03</pdfrwt>
<pdfrwt beam="2">  1       -2 0.30883708E-01 0.67247473E+03</pdfrwt>
<totfact> 0.62189105E+02</totfact>
</mgrwt>
</event>
<event>
 4    1  0.1361667E-004  0.3712128E+03  0.7818608E-02  0.1054230E+00
          2   -1    0    0  501    0  0.00000000000E+00  0.00000000000E+00  0.20000049664E+04  0.20000049664E+04  0.25500000000E-02 0.  1.
         -2   -1    0    0    0  501 -0.00000000000E+00 -0.00000000000E+00 -0.17224823818E+02  0.17224824007E+02  0.25500000000E-02 0. -1.
    5000001    1    1    2    0    0 -0.20897020010E+02 -0.11920172322E+03  0.13208184022E+04  0.13324173474E+04  0.12700000000E+03 0.  0.
   -5000001    1    1    2    0    0  0.20897020010E+02  0.11920172322E+03  0.66196174039E+03  0.68481244294E+03  0.12700000000E+03 0.  0.
<mgrwt>
<rscale>  0 0.37121279E+03</rscale>
<asrwt>0</asrwt>
<pdfrwt beam="1">  1        2 0.28571490E+00 0.37121279E+03</pdfrwt>
<pdfrwt beam="2">  1       -2 0.24606900E-02 0.37121279E+03</pdfrwt>
<totfact> 0.50267044E+03</totfact>
</mgrwt>
</event>
<event>
 4    1  0.1361667E-004  0.4428228E+03  0.7818608E-02  0.1029884E+00
          2   -1    0    0  501    0  0.00000000000E+00  0.00000000000E+00  0.86020752795E+03  0.86020752796E+03  0.25500000000E-02 0.  1.
         -2   -1    0    0    0  501 -0.00000000000E+00 -0.00000000000E+00 -0.56989744351E+02  0.56989744408E+02  0.25500000000E-02 0. -1.
    5000001    1    1    2    0    0 -0.16869545284E+03  0.49810044317E+02  0.49318562585E+03  0.53879519102E+03  0.12700000000E+03 0.  0.
   -5000001    1    1    2    0    0  0.16869545284E+03 -0.49810044317E+02  0.31003215775E+03  0.37840208134E+03  0.12700000000E+03 0.  0.
<mgrwt>
<rscale>  0 0.44282280E+03</rscale>
<asrwt>0</asrwt>
<pdfrwt beam="1">  1        2 0.12288678E+00 0.44282280E+03</pdfrwt>
<pdfrwt beam="2">  1       -2 0.81413927E-02 0.44282280E+03</pdfrwt>
<totfact> 0.32895348E+03</totfact>
</mgrwt>
</event>
<event>
 4    1  0.1361667E-004  0.1048028E+04  0.7818608E-02  0.9257382E-01
          2   -1    0    0  501    0  0.00000000000E+00  0.00000000000E+00  0.14082208572E+04  0.14082208572E+04  0.25500000000E-02 0.  1.
         -2   -1    0    0    0  501 -0.00000000000E+00 -0.00000000000E+00 -0.19499118540E+03  0.19499118541E+03  0.25500000000E-02 0. -1.
    5000001    1    1    2    0    0 -0.15119753712E+03 -0.48537490015E+03  0.60127927556E+03  0.79756833948E+03  0.12700000000E+03 0.  0.
   -5000001    1    1    2    0    0  0.15119753712E+03  0.48537490015E+03  0.61195039621E+03  0.80564370310E+03  0.12700000000E+03 0.  0.
<mgrwt>
<rscale>  0 0.10480280E+04</rscale>
<asrwt>0</asrwt>
<pdfrwt beam="1">  1        2 0.20117440E+00 0.10480280E+04</pdfrwt>
<pdfrwt beam="2">  1       -2 0.27855885E-01 0.10480280E+04</pdfrwt>
<totfact> 0.19147699E+02</totfact>
</mgrwt>
</event>
<event>
 4    1  0.1361667E-004  0.3409222E+03  0.7818608E-02  0.1066404E+00
          2   -1    0    0  501    0  0.00000000000E+00  0.00000000000E+00  0.53413106702E+03  0.53413106702E+03  0.25500000000E-02 0.  1.
         -2   -1    0    0    0  501 -0.00000000000E+00 -0.00000000000E+00 -0.54400488570E+02  0.54400488630E+02  0.25500000000E-02 0. -1.
    5000001    1    1    2    0    0  0.43303373491E+02  0.98742999957E+02  0.17756001940E+03  0.24347879309E+03  0.12700000000E+03 0.  0.
   -5000001    1    1    2    0    0 -0.43303373491E+02 -0.98742999957E+02  0.30217055905E+03  0.34505276256E+03  0.12700000000E+03 0.  0.
<mgrwt>
<rscale>  0 0.34092223E+03</rscale>
<asrwt>0</asrwt>
<pdfrwt beam="1">  1        2 0.76304438E-01 0.34092223E+03</pdfrwt>
<pdfrwt beam="2">  1       -2 0.77714983E-02 0.34092223E+03</pdfrwt>
<totfact> 0.62391493E+03</totfact>
</mgrwt>
</event>
<event>
 4    1  0.1361667E-004  0.3857722E+03  0.7818608E-02  0.1048821E+00
          2   -1    0    0  501    0  0.00000000000E+00  0.00000000000E+00  0.53579124911E+03  0.53579124912E+03  0.25500000000E-02 0. -1.
         -2   -1    0    0    0  501 -0.00000000000E+00 -0.00000000000E+00 -0.69439445790E+02  0.69439445837E+02  0.25500000000E-02 0.  1.
    5000001    1    1    2    0    0  0.19329704655E+02  0.96853073869E+02  0.66240086187E+02  0.17398535691E+03  0.12700000000E+03 0.  0.
   -5000001    1    1    2    0    0 -0.19329704655E+02 -0.96853073869E+02  0.40011171714E+03  0.43124533805E+03  0.12700000000E+03 0.  0.
<mgrwt>
<rscale>  0 0.38577220E+03</rscale>
<asrwt>0</asrwt>
<pdfrwt beam="1">  1        2 0.76541610E-01 0.38577220E+03</pdfrwt>
<pdfrwt beam="2">  1       -2 0.99199204E-02 0.38577220E+03</pdfrwt>
<totfact> 0.42351078E+03</totfact>
</mgrwt>
</event>
<event>
 4    1  0.1361667E-004  0.2937450E+03  0.7818608E-02  0.1088410E+00
         -2   -1    0    0    0  501 -0.00000000000E+00  0.00000000000E+00  0.43798463388E+02  0.43798463463E+02  0.25500000000E-02 0. -1.
          2   -1    0    0  501    0  0.00000000000E+00 -0.00000000000E+00 -0.49251814400E+03  0.49251814400E+03  0.25500000000E-02 0.  1.
    5000001    1    1    2    0    0 -0.46379181280E+02  0.54835573623E+02 -0.19356026414E+03  0.24238924160E+03  0.12700000000E+03 0.  0.
   -5000001    1    1    2    0    0  0.46379181280E+02 -0.54835573623E+02 -0.25515941647E+03  0.29392736586E+03  0.12700000000E+03 0.  0.
<mgrwt>
<rscale>  0 0.29374505E+03</rscale>
<asrwt>0</asrwt>
<pdfrwt beam="1">  1        2 0.70359732E-01 0.29374505E+03</pdfrwt>
<pdfrwt beam="2">  1       -2 0.62569236E-02 0.29374505E+03</pdfrwt>
<totfact> 0.95199437E+03</totfact>
</mgrwt>
</event>
<event>
 4    1  0.1361667E-004  0.4372389E+03  0.7818608E-02  0.1031597E+00
         -2   -1    0    0    0  501 -0.00000000000E+00  0.00000000000E+00  0.26514615159E+02  0.26514615282E+02  0.25500000000E-02 0. -1.
          2   -1    0    0  501    0  0.00000000000E+00 -0.00000000000E+00 -0.18025701400E+04  0.18025701400E+04  0.25500000000E-02 0.  1.
    5000001    1    1    2    0    0 -0.17324983628E+03  0.31399709059E+02 -0.99582338936E+03  0.10192127699E+04  0.12700000000E+03 0.  0.
   -5000001    1    1    2    0    0  0.17324983628E+03 -0.31399709059E+02 -0.78023213553E+03  0.80987198544E+03  0.12700000000E+03 0.  0.
<mgrwt>
<rscale>  0 0.43723885E+03</rscale>
<asrwt>0</asrwt>
<pdfrwt beam="1">  1        2 0.25750994E+00 0.43723885E+03</pdfrwt>
<pdfrwt beam="2">  1       -2 0.37878033E-02 0.43723885E+03</pdfrwt>
<totfact> 0.32856899E+03</totfact>
</mgrwt>
</event>
<event>
 4    1  0.1361667E-004  0.3696357E+03  0.7818608E-02  0.1054832E+00
         -2   -1    0    0    0  501 -0.00000000000E+00  0.00000000000E+00  0.10626367397E+02  0.10626367703E+02  0.25500000000E-02 0. -1.
          2   -1    0    0  501    0  0.00000000000E+00 -0.00000000000E+00 -0.32144235883E+04  0.32144235883E+04  0.25500000000E-02 0.  1.
    5000001    1    1    2    0    0  0.66141649837E+02  0.78374946151E+02 -0.23580694631E+04  0.23637127454E+04  0.12700000000E+03 0.  0.
   -5000001    1    1    2    0    0 -0.66141649837E+02 -0.78374946151E+02 -0.84572775781E+03  0.86133721059E+03  0.12700000000E+03 0.  0.
<mgrwt>
<rscale>  0 0.36963575E+03</rscale>
<asrwt>0</asrwt>
<pdfrwt beam="1">  1        2 0.45920275E+00 0.36963575E+03</pdfrwt>
<pdfrwt beam="2">  1       -2 0.15180546E-02 0.36963575E+03</pdfrwt>
<totfact> 0.24426341E+03</totfact>
</mgrwt>
</event>
<event>
 4    1  0.1361667E-004  0.2979743E+03  0.7818608E-02  0.1086258E+00
          2   -1    0    0  501    0  0.00000000000E+00  0.00000000000E+00  0.68888707819E+03  0.68888707820E+03  0.25500000000E-02 0. -1.
         -2   -1    0    0    0  501 -0.00000000000E+00 -0.00000000000E+00 -0.32221785564E+02  0.32221785665E+02  0.25500000000E-02 0.  1.
    5000001    1    1    2    0    0 -0.22988763204E+02  0.41225336539E+02  0.17836530749E+03  0.22398927323E+03  0.12700000000E+03 0.  0.
   -5000001    1    1    2    0    0  0.22988763204E+02 -0.41225336539E+02  0.47829998514E+03  0.49711959063E+03  0.12700000000E+03 0.  0.
<mgrwt>
<rscale>  0 0.29797431E+03</rscale>
<asrwt>0</asrwt>
<pdfrwt beam="1">  1        2 0.98412438E-01 0.29797431E+03</pdfrwt>
<pdfrwt beam="2">  1       -2 0.46031123E-02 0.29797431E+03</pdfrwt>
<totfact> 0.10383421E+04</totfact>
</mgrwt>
</event>
<event>
 4    1  0.1361667E-004  0.5288345E+03  0.7818608E-02  0.1006515E+00
          2   -1    0    0  501    0  0.00000000000E+00  0.00000000000E+00  0.45138982470E+03  0.45138982470E+03  0.25500000000E-02 0.  1.
         -2   -1    0    0    0  501 -0.00000000000E+00 -0.00000000000E+00 -0.15489158951E+03  0.15489158953E+03  0.25500000000E-02 0. -1.
    5000001    1    1    2    0    0  0.12842316434E+03  0.94474907991E+02  0.34134813784E+03  0.39757460757E+03  0.12700000000E+03 0.  0.
   -5000001    1    1    2    0    0 -0.12842316434E+03 -0.94474907991E+02 -0.44849902656E+02  0.20870680666E+03  0.12700000000E+03 0.  0.
<mgrwt>
<rscale>  0 0.52883452E+03</rscale>
<asrwt>0</asrwt>
<pdfrwt beam="1">  1        2 0.64484259E-01 0.52883452E+03</pdfrwt>
<pdfrwt beam="2">  1       -2 0.22127370E-01 0.52883452E+03</pdfrwt>
<totfact> 0.13450941E+03</totfact>
</mgrwt>
</event>
<event>
 4    1  0.1361667E-004  0.3329232E+03  0.7818608E-02  0.1069851E+00
         -2   -1    0    0    0  501 -0.00000000000E+00  0.00000000000E+00  0.25456060978E+02  0.25456061105E+02  0.25500000000E-02 0. -1.
          2   -1    0    0  501    0  0.00000000000E+00 -0.00000000000E+00 -0.10885214863E+04  0.10885214863E+04  0.25500000000E-02 0.  1.
    5000001    1    1    2    0    0  0.11304885359E+02 -0.48653318087E+02 -0.21259394071E+03  0.25262646223E+03  0.12700000000E+03 0.  0.
   -5000001    1    1    2    0    0 -0.11304885359E+02  0.48653318087E+02 -0.85047148460E+03  0.86135108516E+03  0.12700000000E+03 0.  0.
<mgrwt>
<rscale>  0 0.33292323E+03</rscale>
<asrwt>0</asrwt>
<pdfrwt beam="1">  1        2 0.15550304E+00 0.33292323E+03</pdfrwt>
<pdfrwt beam="2">  1       -2 0.36365808E-02 0.33292323E+03</pdfrwt>
<totfact> 0.82400337E+03</totfact>
</mgrwt>
</event>
<event>
 4    1  0.1361667E-004  0.3095078E+03  0.7818608E-02  0.1080582E+00
          2   -1    0    0  501    0  0.00000000000E+00  0.00000000000E+00  0.16796579565E+04  0.16796579565E+04  0.25500000000E-02 0.  1.
         -2   -1    0    0    0  501 -0.00000000000E+00 -0.00000000000E+00 -0.14258126827E+02  0.14258127055E+02  0.25500000000E-02 0. -1.
    5000001    1    1    2    0    0  0.36051606923E+02 -0.66945872839E+02  0.10797899028E+04  0.10898883899E+04  0.12700000000E+03 0.  0.
   -5000001    1    1    2    0    0 -0.36051606923E+02  0.66945872839E+02  0.58560992692E+03  0.60402769370E+03  0.12700000000E+03 0.  0.
<mgrwt>
<rscale>  0 0.30950784E+03</rscale>
<asrwt>0</asrwt>
<pdfrwt beam="1">  1        2 0.23995124E+00 0.30950784E+03</pdfrwt>
<pdfrwt beam="2">  1       -2 0.20368744E-02 0.30950784E+03</pdfrwt>
<totfact> 0.95669066E+03</totfact>
</mgrwt>
</event>
<event>
 4    1  0.1361667E-004  0.2995987E+03  0.7818608E-02  0.1085441E+00
          2   -1    0    0  501    0  0.00000000000E+00  0.00000000000E+00  0.14914529643E+04  0.14914529643E+04  0.25500000000E-02 0.  1.
         -2   -1    0    0    0  501 -0.00000000000E+00 -0.00000000000E+00 -0.15045628530E+02  0.15045628746E+02  0.25500000000E-02 0. -1.
    5000001    1    1    2    0    0  0.33728696872E+02 -0.63698897058E+02  0.90616033102E+03  0.91785114262E+03  0.12700000000E+03 0.  0.
   -5000001    1    1    2    0    0 -0.33728696872E+02  0.63698897058E+02  0.57024700473E+03  0.58864745042E+03  0.12700000000E+03 0.  0.
<mgrwt>
<rscale>  0 0.29959871E+03</rscale>
<asrwt>0</asrwt>
<pdfrwt beam="1">  1        2 0.21306461E+00 0.29959871E+03</pdfrwt>
<pdfrwt beam="2">  1       -2 0.21493765E-02 0.29959871E+03</pdfrwt>
<totfact> 0.10973865E+04</totfact>
</mgrwt>
</event>
<event>
 4    1  0.1361667E-004  0.6766431E+03  0.7818608E-02  0.9758031E-01
          2   -1    0    0  501    0  0.00000000000E+00  0.00000000000E+00  0.14451862074E+04  0.14451862074E+04  0.25500000000E-02 0.  1.
         -2   -1    0    0    0  501 -0.00000000000E+00 -0.00000000000E+00 -0.79201875921E+02  0.79201875962E+02  0.25500000000E-02 0. -1.
    5000001    1    1    2    0    0  0.11491396165E+03 -0.28699022391E+03  0.80143076574E+03  0.86832533044E+03  0.12700000000E+03 0.  0.
   -5000001    1    1    2    0    0 -0.11491396165E+03  0.28699022391E+03  0.56455356577E+03  0.65606275297E+03  0.12700000000E+03 0.  0.
<mgrwt>
<rscale>  0 0.67664306E+03</rscale>
<asrwt>0</asrwt>
<pdfrwt beam="1">  1        2 0.20645516E+00 0.67664306E+03</pdfrwt>
<pdfrwt beam="2">  1       -2 0.11314554E-01 0.67664306E+03</pdfrwt>
<totfact> 0.88714845E+02</totfact>
</mgrwt>
</event>
<event>
 4    1  0.1361667E-004  0.5208866E+03  0.7818608E-02  0.1008467E+00
          2   -1    0    0  501    0  0.00000000000E+00  0.00000000000E+00  0.22828704329E+03  0.22828704330E+03  0.25500000000E-02 0.  1.
         -2   -1    0    0    0  501 -0.00000000000E+00 -0.00000000000E+00 -0.29712908826E+03  0.29712908827E+03  0.25500000000E-02 0. -1.
    5000001    1    1    2    0    0  0.49517674254E+02 -0.22182036905E+03 -0.27621122371E+02  0.26181711669E+03  0.12700000000E+03 0.  0.
   -5000001    1    1    2    0    0 -0.49517674254E+02  0.22182036905E+03 -0.41220922602E+02  0.26359901489E+03  0.12700000000E+03 0.  0.
<mgrwt>
<rscale>  0 0.52088663E+03</rscale>
<asrwt>0</asrwt>
<pdfrwt beam="1">  1        2 0.32612435E-01 0.52088663E+03</pdfrwt>
<pdfrwt beam="2">  1       -2 0.42447013E-01 0.52088663E+03</pdfrwt>
<totfact> 0.85498095E+02</totfact>
</mgrwt>
</event>
<event>
 4    1  0.1361667E-004  0.2905275E+03  0.7818608E-02  0.1090074E+00
         -2   -1    0    0    0  501 -0.00000000000E+00  0.00000000000E+00  0.99200963338E+01  0.99200966616E+01  0.25500000000E-02 0. -1.
          2   -1    0    0  501    0  0.00000000000E+00 -0.00000000000E+00 -0.21271528927E+04  0.21271528927E+04  0.25500000000E-02 0.  1.
    5000001    1    1    2    0    0 -0.56793809787E+02 -0.11926863238E+02 -0.13532885822E+04  0.13604729963E+04  0.12700000000E+03 0.  0.
   -5000001    1    1    2    0    0  0.56793809787E+02  0.11926863238E+02 -0.76394421416E+03  0.77659999308E+03  0.12700000000E+03 0.  0.
<mgrwt>
<rscale>  0 0.29052753E+03</rscale>
<asrwt>0</asrwt>
<pdfrwt beam="1">  1        2 0.30387869E+00 0.29052753E+03</pdfrwt>
<pdfrwt beam="2">  1       -2 0.14171580E-02 0.29052753E+03</pdfrwt>
<totfact> 0.98258890E+03</totfact>
</mgrwt>
</event>
<event>
 4    1  0.1361667E-004  0.2671962E+03  0.7818608E-02  0.1102895E+00
         -2   -1    0    0    0  501 -0.00000000000E+00  0.00000000000E+00  0.15443337350E+02  0.15443337560E+02  0.25500000000E-02 0. -1.
          2   -1    0    0  501    0  0.00000000000E+00 -0.00000000000E+00 -0.11557384373E+04  0.11557384373E+04  0.25500000000E-02 0.  1.
    5000001    1    1    2    0    0  0.30753257220E+02 -0.11877797967E+01 -0.69195749976E+03  0.70418843722E+03  0.12700000000E+03 0.  0.
   -5000001    1    1    2    0    0 -0.30753257220E+02  0.11877797967E+01 -0.44833760014E+03  0.46699333759E+03  0.12700000000E+03 0.  0.
<mgrwt>
<rscale>  0 0.26719625E+03</rscale>
<asrwt>0</asrwt>
<pdfrwt beam="1">  1        2 0.16510544E+00 0.26719625E+03</pdfrwt>
<pdfrwt beam="2">  1       -2 0.22061918E-02 0.26719625E+03</pdfrwt>
<totfact> 0.15800089E+04</totfact>
</mgrwt>
</event>
<event>
 4    1  0.1361667E-004  0.2931021E+03  0.7818608E-02  0.1088741E+00
         -2   -1    0    0    0  501 -0.00000000000E+00  0.00000000000E+00  0.11072044218E+02  0.11072044512E+02  0.25500000000E-02 0. -1.
          2   -1    0    0  501    0  0.00000000000E+00 -0.00000000000E+00 -0.19397693409E+04  0.19397693409E+04  0.25500000000E-02 0.  1.
    5000001    1    1    2    0    0  0.63804196942E+02  0.15361569219E+02 -0.11791229733E+04  0.11877571046E+04  0.12700000000E+03 0.  0.
   -5000001    1    1    2    0    0 -0.63804196942E+02 -0.15361569219E+02 -0.74957432336E+03  0.76308428079E+03  0.12700000000E+03 0.  0.
<mgrwt>
<rscale>  0 0.29310211E+03</rscale>
<asrwt>0</asrwt>
<pdfrwt beam="1">  1        2 0.27710969E+00 0.29310211E+03</pdfrwt>
<pdfrwt beam="2">  1       -2 0.15817219E-02 0.29310211E+03</pdfrwt>
<totfact> 0.10330281E+04</totfact>
</mgrwt>
</event>
<event>
 4    1  0.1361667E-004  0.3501184E+03  0.7818608E-02  0.1062566E+00
         -2   -1    0    0    0  501 -0.00000000000E+00  0.00000000000E+00  0.11387311059E+02  0.11387311345E+02  0.25500000000E-02 0. -1.
          2   -1    0    0  501    0  0.00000000000E+00 -0.00000000000E+00 -0.26912162234E+04  0.26912162234E+04  0.25500000000E-02 0.  1.
    5000001    1    1    2    0    0 -0.93844094040E+02 -0.63587067713E+02 -0.10247809793E+04  0.10388238950E+04  0.12700000000E+03 0.  0.
   -5000001    1    1    2    0    0  0.93844094040E+02  0.63587067713E+02 -0.16550479330E+04  0.16637796398E+04  0.12700000000E+03 0.  0.
<mgrwt>
<rscale>  0 0.35011836E+03</rscale>
<asrwt>0</asrwt>
<pdfrwt beam="1">  1        2 0.38445905E+00 0.35011836E+03</pdfrwt>
<pdfrwt beam="2">  1       -2 0.16267605E-02 0.35011836E+03</pdfrwt>
<totfact> 0.41934869E+03</totfact>
</mgrwt>
</event>
<event>
 4    1  0.1361667E-004  0.4696293E+03  0.7818608E-02  0.1022025E+00
         -2   -1    0    0    0  501 -0.00000000000E+00  0.00000000000E+00  0.31640623392E+02  0.31640623494E+02  0.25500000000E-02 0. -1.
          2   -1    0    0  501    0  0.00000000000E+00 -0.00000000000E+00 -0.17426308311E+04  0.17426308311E+04  0.25500000000E-02 0.  1.
    5000001    1    1    2    0    0  0.87659103367E+02  0.17516224752E+03 -0.95129576563E+03  0.97951955829E+03  0.12700000000E+03 0.  0.
   -5000001    1    1    2    0    0 -0.87659103367E+02 -0.17516224752E+03 -0.75969444204E+03  0.79475189627E+03  0.12700000000E+03 0.  0.
<mgrwt>
<rscale>  0 0.46962933E+03</rscale>
<asrwt>0</asrwt>
<pdfrwt beam="1">  1        2 0.24894720E+00 0.46962933E+03</pdfrwt>
<pdfrwt beam="2">  1       -2 0.45200901E-02 0.46962933E+03</pdfrwt>
<totfact> 0.26856430E+03</totfact>
</mgrwt>
</event>
<event>
 4    1  0.1361667E-004  0.3224653E+03  0.7818608E-02  0.1074520E+00
          2   -1    0    0  501    0  0.00000000000E+00  0.00000000000E+00  0.29244733721E+03  0.29244733722E+03  0.25500000000E-02 0.  1.
         -2   -1    0    0    0  501 -0.00000000000E+00 -0.00000000000E+00 -0.88891094883E+02  0.88891094919E+02  0.25500000000E-02 0. -1.
    5000001    1    1    2    0    0 -0.54197291934E+02  0.75366540940E+02  0.14358002926E+03  0.21298283205E+03  0.12700000000E+03 0.  0.
   -5000001    1    1    2    0    0  0.54197291934E+02 -0.75366540940E+02  0.59976213060E+02  0.16835560008E+03  0.12700000000E+03 0.  0.
<mgrwt>
<rscale>  0 0.32246528E+03</rscale>
<asrwt>0</asrwt>
<pdfrwt beam="1">  1        2 0.41778191E-01 0.32246528E+03</pdfrwt>
<pdfrwt beam="2">  1       -2 0.12698728E-01 0.32246528E+03</pdfrwt>
<totfact> 0.54951733E+03</totfact>
</mgrwt>
</event>
<event>
 4    1  0.1361667E-004  0.3101719E+03  0.7818608E-02  0.1080264E+00
          2   -1    0    0  501    0  0.00000000000E+00  0.00000000000E+00  0.20647453150E+03  0.20647453151E+03  0.25500000000E-02 0.  1.
         -2   -1    0    0    0  501 -0.00000000000E+00 -0.00000000000E+00 -0.11648726102E+03  0.11648726105E+03  0.25500000000E-02 0. -1.
    5000001    1    1    2    0    0 -0.58634427392E+02  0.25811493406E+02 -0.19347797899E+02  0.14355335785E+03  0.12700000000E+03 0.  0.
   -5000001    1    1    2    0    0  0.58634427392E+02 -0.25811493406E+02  0.10933506838E+03  0.17940843471E+03  0.12700000000E+03 0.  0.
<mgrwt>
<rscale>  0 0.31017190E+03</rscale>
<asrwt>0</asrwt>
<pdfrwt beam="1">  1        2 0.29496361E-01 0.31017190E+03</pdfrwt>
<pdfrwt beam="2">  1       -2 0.16641037E-01 0.31017190E+03</pdfrwt>
<totfact> 0.51333680E+03</totfact>
</mgrwt>
</event>
<event>
 4    1  0.1361667E-004  0.3467556E+03  0.7818608E-02  0.1063955E+00
          2   -1    0    0  501    0  0.00000000000E+00  0.00000000000E+00  0.11809299341E+04  0.11809299341E+04  0.25500000000E-02 0.  1.
         -2   -1    0    0    0  501 -0.00000000000E+00 -0.00000000000E+00 -0.25454402278E+02  0.25454402405E+02  0.25500000000E-02 0. -1.
    5000001    1    1    2    0    0  0.12764082983E+02 -0.67002449744E+02  0.91286040509E+03  0.92417280271E+03  0.12700000000E+03 0.  0.
   -5000001    1    1    2    0    0 -0.12764082983E+02  0.67002449744E+02  0.24261512668E+03  0.28221153375E+03  0.12700000000E+03 0.  0.
<mgrwt>
<rscale>  0 0.34675562E+03</rscale>
<asrwt>0</asrwt>
<pdfrwt beam="1">  1        2 0.16870429E+00 0.34675562E+03</pdfrwt>
<pdfrwt beam="2">  1       -2 0.36363430E-02 0.34675562E+03</pdfrwt>
<totfact> 0.73199489E+03</totfact>
</mgrwt>
</event>
<event>
 4    1  0.1361667E-004  0.3346276E+03  0.7818608E-02  0.1069107E+00
         -2   -1    0    0    0  501 -0.00000000000E+00  0.00000000000E+00  0.33116979235E+02  0.33116979334E+02  0.25500000000E-02 0. -1.
          2   -1    0    0  501    0  0.00000000000E+00 -0.00000000000E+00 -0.84530358393E+03  0.84530358393E+03  0.25500000000E-02 0.  1.
    5000001    1    1    2    0    0 -0.34011561269E+02  0.10320877013E+03 -0.42574887623E+03  0.45738380179E+03  0.12700000000E+03 0.  0.
   -5000001    1    1    2    0    0  0.34011561269E+02 -0.10320877013E+03 -0.38643772847E+03  0.42103676148E+03  0.12700000000E+03 0.  0.
<mgrwt>
<rscale>  0 0.33462756E+03</rscale>
<asrwt>0</asrwt>
<pdfrwt beam="1">  1        2 0.12075764E+00 0.33462756E+03</pdfrwt>
<pdfrwt beam="2">  1       -2 0.47309976E-02 0.33462756E+03</pdfrwt>
<totfact> 0.77765032E+03</totfact>
</mgrwt>
</event>
<event>
 4    1  0.1361667E-004  0.3189424E+03  0.7818608E-02  0.1076137E+00
         -2   -1    0    0    0  501 -0.00000000000E+00  0.00000000000E+00  0.51610805502E+02  0.51610805565E+02  0.25500000000E-02 0. -1.
          2   -1    0    0  501    0  0.00000000000E+00 -0.00000000000E+00 -0.49274702334E+03  0.49274702334E+03  0.25500000000E-02 0.  1.
    5000001    1    1    2    0    0 -0.11199047256E+01 -0.73161422928E+02 -0.11332411465E+03  0.18527062086E+03  0.12700000000E+03 0.  0.
   -5000001    1    1    2    0    0  0.11199047256E+01  0.73161422928E+02 -0.32781210319E+03  0.35908720805E+03  0.12700000000E+03 0.  0.
<mgrwt>
<rscale>  0 0.31894244E+03</rscale>
<asrwt>0</asrwt>
<pdfrwt beam="1">  1        2 0.70392429E-01 0.31894244E+03</pdfrwt>
<pdfrwt beam="2">  1       -2 0.73729725E-02 0.31894244E+03</pdfrwt>
<totfact> 0.73987312E+03</totfact>
</mgrwt>
</event>
<event>
 4    1  0.1361667E-004  0.2923740E+03  0.7818608E-02  0.1089116E+00
         -2   -1    0    0    0  501 -0.00000000000E+00  0.00000000000E+00  0.10505554765E+02  0.10505555075E+02  0.25500000000E-02 0. -1.
          2   -1    0    0  501    0  0.00000000000E+00 -0.00000000000E+00 -0.20342233734E+04  0.20342233734E+04  0.25500000000E-02 0.  1.
    5000001    1    1    2    0    0  0.63228353392E+02  0.15269550102E+02 -0.78952802455E+03  0.80231819460E+03  0.12700000000E+03 0.  0.
   -5000001    1    1    2    0    0 -0.63228353392E+02 -0.15269550102E+02 -0.12341897941E+04  0.12424107338E+04  0.12700000000E+03 0.  0.
<mgrwt>
<rscale>  0 0.29237404E+03</rscale>
<asrwt>0</asrwt>
<pdfrwt beam="1">  1        2 0.29060309E+00 0.29237404E+03</pdfrwt>
<pdfrwt beam="2">  1       -2 0.15007949E-02 0.29237404E+03</pdfrwt>
<totfact> 0.10031722E+04</totfact>
</mgrwt>
</event>
<event>
 4    1  0.1361667E-004  0.3107642E+03  0.7818608E-02  0.1079980E+00
         -2   -1    0    0    0  501 -0.00000000000E+00  0.00000000000E+00  0.68600398152E+02  0.68600398199E+02  0.25500000000E-02 0. -1.
          2   -1    0    0  501    0  0.00000000000E+00 -0.00000000000E+00 -0.35194552176E+03  0.35194552177E+03  0.25500000000E-02 0.  1.
    5000001    1    1    2    0    0 -0.22706169880E+02 -0.79710312324E+02 -0.18747006571E+03  0.24112927980E+03  0.12700000000E+03 0.  0.
   -5000001    1    1    2    0    0  0.22706169880E+02  0.79710312324E+02 -0.95875057903E+02  0.17941664017E+03  0.12700000000E+03 0.  0.
<mgrwt>
<rscale>  0 0.31076424E+03</rscale>
<asrwt>0</asrwt>
<pdfrwt beam="1">  1        2 0.50277931E-01 0.31076424E+03</pdfrwt>
<pdfrwt beam="2">  1       -2 0.98000571E-02 0.31076424E+03</pdfrwt>
<totfact> 0.68189359E+03</totfact>
</mgrwt>
</event>
<event>
 4    1  0.1361667E-004  0.8637541E+03  0.7818608E-02  0.9472060E-01
          2   -1    0    0  501    0  0.00000000000E+00  0.00000000000E+00  0.15292747893E+03  0.15292747895E+03  0.25500000000E-02 0.  1.
         -2   -1    0    0    0  501 -0.00000000000E+00 -0.00000000000E+00 -0.12196487199E+04  0.12196487199E+04  0.25500000000E-02 0. -1.
    5000001    1    1    2    0    0  0.25814285369E+03 -0.18184299997E+03 -0.11087933333E+03  0.35794948821E+03  0.12700000000E+03 0.  0.
   -5000001    1    1    2    0    0 -0.25814285369E+03  0.18184299997E+03 -0.95584190767E+03  0.10146267107E+04  0.12700000000E+03 0.  0.
<mgrwt>
<rscale>  0 0.86375414E+03</rscale>
<asrwt>0</asrwt>
<pdfrwt beam="1">  1        2 0.21846783E-01 0.86375414E+03</pdfrwt>
<pdfrwt beam="2">  1       -2 0.17423553E+00 0.86375414E+03</pdfrwt>
<totfact> 0.51341965E+01</totfact>
</mgrwt>
</event>
<event>
 4    1  0.1361667E-004  0.4463625E+03  0.7818608E-02  0.1028812E+00
         -2   -1    0    0    0  501 -0.00000000000E+00  0.00000000000E+00  0.15892886680E+02  0.15892886885E+02  0.25500000000E-02 0. -1.
          2   -1    0    0  501    0  0.00000000000E+00 -0.00000000000E+00 -0.31340978843E+04  0.31340978843E+04  0.25500000000E-02 0.  1.
    5000001    1    1    2    0    0  0.88667056268E+02 -0.15954513671E+03 -0.14243955074E+04  0.14416476890E+04  0.12700000000E+03 0.  0.
   -5000001    1    1    2    0    0 -0.88667056268E+02  0.15954513671E+03 -0.16938094902E+04  0.17083430822E+04  0.12700000000E+03 0.  0.
<mgrwt>
<rscale>  0 0.44636247E+03</rscale>
<asrwt>0</asrwt>
<pdfrwt beam="1">  1        2 0.44772787E+00 0.44636247E+03</pdfrwt>
<pdfrwt beam="2">  1       -2 0.22704144E-02 0.44636247E+03</pdfrwt>
<totfact> 0.14768627E+03</totfact>
</mgrwt>
</event>
<event>
 4    1  0.1361667E-004  0.6443088E+03  0.7818608E-02  0.9817517E-01
          2   -1    0    0  501    0  0.00000000000E+00  0.00000000000E+00  0.36636360657E+03  0.36636360658E+03  0.25500000000E-02 0. -1.
         -2   -1    0    0    0  501 -0.00000000000E+00 -0.00000000000E+00 -0.28327992714E+03  0.28327992715E+03  0.25500000000E-02 0.  1.
    5000001    1    1    2    0    0  0.99545130697E+02  0.17466285338E+03 -0.17760101705E+03  0.29679532788E+03  0.12700000000E+03 0.  0.
   -5000001    1    1    2    0    0 -0.99545130697E+02 -0.17466285338E+03  0.26068469648E+03  0.35284820585E+03  0.12700000000E+03 0.  0.
<mgrwt>
<rscale>  0 0.64430879E+03</rscale>
<asrwt>0</asrwt>
<pdfrwt beam="1">  1        2 0.52337658E-01 0.64430879E+03</pdfrwt>
<pdfrwt beam="2">  1       -2 0.40468561E-01 0.64430879E+03</pdfrwt>
<totfact> 0.55530358E+02</totfact>
</mgrwt>
</event>
<event>
 4    1  0.1361667E-004  0.3026148E+03  0.7818608E-02  0.1083941E+00
          2   -1    0    0  501    0  0.00000000000E+00  0.00000000000E+00  0.84683197445E+03  0.84683197446E+03  0.25500000000E-02 0.  1.
         -2   -1    0    0    0  501 -0.00000000000E+00 -0.00000000000E+00 -0.27034791119E+02  0.27034791239E+02  0.25500000000E-02 0. -1.
    5000001    1    1    2    0    0  0.68276842508E+02  0.16264943010E+02  0.53372253399E+03  0.55309584963E+03  0.12700000000E+03 0.  0.
   -5000001    1    1    2    0    0 -0.68276842508E+02 -0.16264943010E+02  0.28607464935E+03  0.32077091606E+03  0.12700000000E+03 0.  0.
<mgrwt>
<rscale>  0 0.30261478E+03</rscale>
<asrwt>0</asrwt>
<pdfrwt beam="1">  1        2 0.12097601E+00 0.30261478E+03</pdfrwt>
<pdfrwt beam="2">  1       -2 0.38621125E-02 0.30261478E+03</pdfrwt>
<totfact> 0.10519196E+04</totfact>
</mgrwt>
</event>
<event>
 4    1  0.1361667E-004  0.3160570E+03  0.7818608E-02  0.1077478E+00
         -2   -1    0    0    0  501 -0.00000000000E+00  0.00000000000E+00  0.12704313145E+03  0.12704313147E+03  0.25500000000E-02 0. -1.
          2   -1    0    0  501    0  0.00000000000E+00 -0.00000000000E+00 -0.19657114505E+03  0.19657114507E+03  0.25500000000E-02 0.  1.
    5000001    1    1    2    0    0  0.89637709662E+02  0.61986851031E+01 -0.63392508386E+01  0.15570012457E+03  0.12700000000E+03 0.  0.
   -5000001    1    1    2    0    0 -0.89637709662E+02 -0.61986851031E+01 -0.63188762766E+02  0.16791415197E+03  0.12700000000E+03 0.  0.
<mgrwt>
<rscale>  0 0.31605704E+03</rscale>
<asrwt>0</asrwt>
<pdfrwt beam="1">  1        2 0.28081592E-01 0.31605704E+03</pdfrwt>
<pdfrwt beam="2">  1       -2 0.18149019E-01 0.31605704E+03</pdfrwt>
<totfact> 0.46857193E+03</totfact>
</mgrwt>
</event>
<event>
 4    1  0.1361667E-004  0.4064435E+03  0.7818608E-02  0.1041571E+00
         -2   -1    0    0    0  501 -0.00000000000E+00  0.00000000000E+00  0.28416546786E+02  0.28416546900E+02  0.25500000000E-02 0. -1.
          2   -1    0    0  501    0  0.00000000000E+00 -0.00000000000E+00 -0.14533461945E+04  0.14533461945E+04  0.25500000000E-02 0.  1.
    5000001    1    1    2    0    0  0.46104680202E+02 -0.13971954689E+03 -0.49607948337E+03  0.53279550217E+03  0.12700000000E+03 0.  0.
   -5000001    1    1    2    0    0 -0.46104680202E+02  0.13971954689E+03 -0.92885016433E+03  0.94896723921E+03  0.12700000000E+03 0.  0.
<mgrwt>
<rscale>  0 0.40644350E+03</rscale>
<asrwt>0</asrwt>
<pdfrwt beam="1">  1        2 0.20762084E+00 0.40644350E+03</pdfrwt>
<pdfrwt beam="2">  1       -2 0.40595076E-02 0.40644350E+03</pdfrwt>
<totfact> 0.44439103E+03</totfact>
</mgrwt>
</event>
<event>
 4    1  0.1361667E-004  0.2668868E+03  0.7818608E-02  0.1103075E+00
         -2   -1    0    0    0  501 -0.00000000000E+00  0.00000000000E+00  0.48959824736E+02  0.48959824803E+02  0.25500000000E-02 0. -1.
          2   -1    0    0  501    0  0.00000000000E+00 -0.00000000000E+00 -0.36370937395E+03  0.36370937396E+03  0.25500000000E-02 0.  1.
    5000001    1    1    2    0    0 -0.60550846260E+00 -0.40002489840E+02 -0.14375551026E+03  0.19594696365E+03  0.12700000000E+03 0.  0.
   -5000001    1    1    2    0    0  0.60550846260E+00  0.40002489840E+02 -0.17099403896E+03  0.21672223511E+03  0.12700000000E+03 0.  0.
<mgrwt>
<rscale>  0 0.26688685E+03</rscale>
<asrwt>0</asrwt>
<pdfrwt beam="1">  1        2 0.51958480E-01 0.26688685E+03</pdfrwt>
<pdfrwt beam="2">  1       -2 0.69942609E-02 0.26688685E+03</pdfrwt>
<totfact> 0.11104401E+04</totfact>
</mgrwt>
</event>
<event>
 4    1  0.1361667E-004  0.3535489E+03  0.7818608E-02  0.1061168E+00
         -2   -1    0    0    0  501 -0.00000000000E+00  0.00000000000E+00  0.54937635629E+02  0.54937635688E+02  0.25500000000E-02 0. -1.
          2   -1    0    0  501    0  0.00000000000E+00 -0.00000000000E+00 -0.56881232261E+03  0.56881232262E+03  0.25500000000E-02 0.  1.
    5000001    1    1    2    0    0  0.70171723728E+02  0.99506228176E+02 -0.22665358536E+03  0.28692578834E+03  0.12700000000E+03 0.  0.
   -5000001    1    1    2    0    0 -0.70171723728E+02 -0.99506228176E+02 -0.28722110163E+03  0.33682416997E+03  0.12700000000E+03 0.  0.
<mgrwt>
<rscale>  0 0.35354889E+03</rscale>
<asrwt>0</asrwt>
<pdfrwt beam="1">  1        2 0.81258900E-01 0.35354889E+03</pdfrwt>
<pdfrwt beam="2">  1       -2 0.78482340E-02 0.35354889E+03</pdfrwt>
<totfact> 0.57260101E+03</totfact>
</mgrwt>
</event>
<event>
 4    1  0.1361667E-004  0.3073933E+03  0.7818608E-02  0.1081602E+00
          2   -1    0    0  501    0  0.00000000000E+00  0.00000000000E+00  0.54105384446E+03  0.54105384447E+03  0.25500000000E-02 0.  1.
         -2   -1    0    0    0  501 -0.00000000000E+00 -0.00000000000E+00 -0.43660446675E+02  0.43660446750E+02  0.25500000000E-02 0. -1.
    5000001    1    1    2    0    0 -0.74435275778E+02 -0.24812579707E+02  0.17913398859E+03  0.23318289015E+03  0.12700000000E+03 0.  0.
   -5000001    1    1    2    0    0  0.74435275778E+02  0.24812579707E+02  0.31825940920E+03  0.35153140107E+03  0.12700000000E+03 0.  0.
<mgrwt>
<rscale>  0 0.30739325E+03</rscale>
<asrwt>0</asrwt>
<pdfrwt beam="1">  1        2 0.77293404E-01 0.30739325E+03</pdfrwt>
<pdfrwt beam="2">  1       -2 0.62372068E-02 0.30739325E+03</pdfrwt>
<totfact> 0.86285088E+03</totfact>
</mgrwt>
</event>
<event>
 4    1  0.1361667E-004  0.2654036E+03  0.7818608E-02  0.1103939E+00
          2   -1    0    0  501    0  0.00000000000E+00  0.00000000000E+00  0.40350737316E+03  0.40350737317E+03  0.25500000000E-02 0.  1.
         -2   -1    0    0    0  501 -0.00000000000E+00 -0.00000000000E+00 -0.43641753125E+02  0.43641753199E+02  0.25500000000E-02 0. -1.
    5000001    1    1    2    0    0  0.37712298239E+02 -0.73360066636E+01  0.18359882371E+03  0.22652497103E+03  0.12700000000E+03 0.  0.
   -5000001    1    1    2    0    0 -0.37712298239E+02  0.73360066636E+01  0.17626679633E+03  0.22062415534E+03  0.12700000000E+03 0.  0.
<mgrwt>
<rscale>  0 0.26540361E+03</rscale>
<asrwt>0</asrwt>
<pdfrwt beam="1">  1        2 0.57643912E-01 0.26540361E+03</pdfrwt>
<pdfrwt beam="2">  1       -2 0.62345360E-02 0.26540361E+03</pdfrwt>
<totfact> 0.11849917E+04</totfact>
</mgrwt>
</event>
<event>
 4    1  0.1361667E-004  0.3523725E+03  0.7818608E-02  0.1061645E+00
         -2   -1    0    0    0  501 -0.00000000000E+00  0.00000000000E+00  0.18640277261E+03  0.18640277263E+03  0.25500000000E-02 0. -1.
          2   -1    0    0  501    0  0.00000000000E+00 -0.00000000000E+00 -0.16652966973E+03  0.16652966975E+03  0.25500000000E-02 0.  1.
    5000001    1    1    2    0    0  0.49992547277E+02  0.65736156976E+02 -0.80162471039E+02  0.17139287873E+03  0.12700000000E+03 0.  0.
   -5000001    1    1    2    0    0 -0.49992547277E+02 -0.65736156976E+02  0.10003557392E+03  0.18153956364E+03  0.12700000000E+03 0.  0.
<mgrwt>
<rscale>  0 0.35237249E+03</rscale>
<asrwt>0</asrwt>
<pdfrwt beam="1">  1        2 0.23789953E-01 0.35237249E+03</pdfrwt>
<pdfrwt beam="2">  1       -2 0.26628967E-01 0.35237249E+03</pdfrwt>
<totfact> 0.29026205E+03</totfact>
</mgrwt>
</event>
<event>
 4    1  0.1361667E-004  0.3785212E+03  0.7818608E-02  0.1051482E+00
          2   -1    0    0  501    0  0.00000000000E+00  0.00000000000E+00  0.53721815227E+03  0.53721815227E+03  0.25500000000E-02 0.  1.
         -2   -1    0    0    0  501 -0.00000000000E+00 -0.00000000000E+00 -0.66676025422E+02  0.66676025471E+02  0.25500000000E-02 0. -1.
    5000001    1    1    2    0    0  0.11623900466E+03  0.77863384078E+02  0.21806151230E+03  0.28853775477E+03  0.12700000000E+03 0.  0.
   -5000001    1    1    2    0    0 -0.11623900466E+03 -0.77863384078E+02  0.25248061455E+03  0.31535642297E+03  0.12700000000E+03 0.  0.
<mgrwt>
<rscale>  0 0.37852118E+03</rscale>
<asrwt>0</asrwt>
<pdfrwt beam="1">  1        2 0.76745449E-01 0.37852118E+03</pdfrwt>
<pdfrwt beam="2">  1       -2 0.95251467E-02 0.37852118E+03</pdfrwt>
<totfact> 0.45039627E+03</totfact>
</mgrwt>
</event>
<event>
 4    1  0.1361667E-004  0.5282069E+03  0.7818608E-02  0.1006668E+00
         -2   -1    0    0    0  501 -0.00000000000E+00  0.00000000000E+00  0.20403722901E+02  0.20403723061E+02  0.25500000000E-02 0. -1.
          2   -1    0    0  501    0  0.00000000000E+00 -0.00000000000E+00 -0.34185243444E+04  0.34185243444E+04  0.25500000000E-02 0.  1.
    5000001    1    1    2    0    0 -0.20554787738E+03  0.10063988335E+03 -0.14694938902E+04  0.14926217234E+04  0.12700000000E+03 0.  0.
   -5000001    1    1    2    0    0  0.20554787738E+03 -0.10063988335E+03 -0.19286267313E+04  0.19463063440E+04  0.12700000000E+03 0.  0.
<mgrwt>
<rscale>  0 0.52820687E+03</rscale>
<asrwt>0</asrwt>
<pdfrwt beam="1">  1        2 0.48836025E+00 0.52820687E+03</pdfrwt>
<pdfrwt beam="2">  1       -2 0.29148198E-02 0.52820687E+03</pdfrwt>
<totfact> 0.69389990E+02</totfact>
</mgrwt>
</event>
<event>
 4    1  0.1361667E-004  0.5779214E+03  0.7818608E-02  0.9952301E-01
          2   -1    0    0  501    0  0.00000000000E+00  0.00000000000E+00  0.30487466806E+03  0.30487466807E+03  0.25500000000E-02 0.  1.
         -2   -1    0    0    0  501 -0.00000000000E+00 -0.00000000000E+00 -0.27387737485E+03  0.27387737486E+03  0.25500000000E-02 0. -1.
    5000001    1    1    2    0    0 -0.85085979172E+02 -0.18579087703E+03  0.17576429749E+03  0.29795966524E+03  0.12700000000E+03 0.  0.
   -5000001    1    1    2    0    0  0.85085979172E+02  0.18579087703E+03 -0.14476700428E+03  0.28079237769E+03  0.12700000000E+03 0.  0.
<mgrwt>
<rscale>  0 0.57792136E+03</rscale>
<asrwt>0</asrwt>
<pdfrwt beam="1">  1        2 0.43553524E-01 0.57792136E+03</pdfrwt>
<pdfrwt beam="2">  1       -2 0.39125339E-01 0.57792136E+03</pdfrwt>
<totfact> 0.72710226E+02</totfact>
</mgrwt>
</event>
<event>
 4    1  0.1361667E-004  0.2790889E+03  0.7818608E-02  0.1096188E+00
          2   -1    0    0  501    0  0.00000000000E+00  0.00000000000E+00  0.51337160145E+03  0.51337160146E+03  0.25500000000E-02 0.  1.
         -2   -1    0    0    0  501 -0.00000000000E+00 -0.00000000000E+00 -0.37930912820E+02  0.37930912905E+02  0.25500000000E-02 0. -1.
    5000001    1    1    2    0    0 -0.38705154380E+02 -0.39026244540E+02  0.20224525119E+03  0.24505770416E+03  0.12700000000E+03 0.  0.
   -5000001    1    1    2    0    0  0.38705154380E+02  0.39026244540E+02  0.27319543744E+03  0.30624481021E+03  0.12700000000E+03 0.  0.
<mgrwt>
<rscale>  0 0.27908890E+03</rscale>
<asrwt>0</asrwt>
<pdfrwt beam="1">  1        2 0.73338796E-01 0.27908890E+03</pdfrwt>
<pdfrwt beam="2">  1       -2 0.54187021E-02 0.27908890E+03</pdfrwt>
<totfact> 0.11312998E+04</totfact>
</mgrwt>
</event>
<event>
 4    1  0.1361667E-004  0.3381390E+03  0.7818608E-02  0.1067591E+00
         -2   -1    0    0    0  501 -0.00000000000E+00  0.00000000000E+00  0.14748865809E+03  0.14748865811E+03  0.25500000000E-02 0. -1.
          2   -1    0    0  501    0  0.00000000000E+00 -0.00000000000E+00 -0.19380814117E+03  0.19380814118E+03  0.25500000000E-02 0.  1.
    5000001    1    1    2    0    0 -0.10206685438E+03 -0.42919379361E+02 -0.37282794526E+02  0.17256512584E+03  0.12700000000E+03 0.  0.
   -5000001    1    1    2    0    0  0.10206685438E+03  0.42919379361E+02 -0.90366885522E+01  0.16873167346E+03  0.12700000000E+03 0.  0.
<mgrwt>
<rscale>  0 0.33813904E+03</rscale>
<asrwt>0</asrwt>
<pdfrwt beam="1">  1        2 0.27686877E-01 0.33813904E+03</pdfrwt>
<pdfrwt beam="2">  1       -2 0.21069808E-01 0.33813904E+03</pdfrwt>
<totfact> 0.36935909E+03</totfact>
</mgrwt>
</event>
<event>
 4    1  0.1361667E-004  0.4235621E+03  0.7818608E-02  0.1035913E+00
          2   -1    0    0  501    0  0.00000000000E+00  0.00000000000E+00  0.32925635130E+03  0.32925635131E+03  0.25500000000E-02 0. -1.
         -2   -1    0    0    0  501 -0.00000000000E+00 -0.00000000000E+00 -0.13621975132E+03  0.13621975135E+03  0.25500000000E-02 0.  1.
    5000001    1    1    2    0    0  0.50961598092E+02  0.16066147463E+03  0.11596157249E+03  0.24080132932E+03  0.12700000000E+03 0.  0.
   -5000001    1    1    2    0    0 -0.50961598092E+02 -0.16066147463E+03  0.77075027490E+02  0.22467477333E+03  0.12700000000E+03 0.  0.
<mgrwt>
<rscale>  0 0.42356212E+03</rscale>
<asrwt>0</asrwt>
<pdfrwt beam="1">  1        2 0.47036621E-01 0.42356212E+03</pdfrwt>
<pdfrwt beam="2">  1       -2 0.19459965E-01 0.42356212E+03</pdfrwt>
<totfact> 0.23784771E+03</totfact>
</mgrwt>
</event>
<event>
 4    1  0.1361667E-004  0.2973004E+03  0.7818608E-02  0.1086598E+00
         -2   -1    0    0    0  501 -0.00000000000E+00  0.00000000000E+00  0.95974921185E+02  0.95974921219E+02  0.25500000000E-02 0. -1.
          2   -1    0    0  501    0  0.00000000000E+00 -0.00000000000E+00 -0.23023593735E+03  0.23023593736E+03  0.25500000000E-02 0.  1.
    5000001    1    1    2    0    0  0.60014332869E+02 -0.48385176831E+02 -0.61640949655E+02  0.16084605112E+03  0.12700000000E+03 0.  0.
   -5000001    1    1    2    0    0 -0.60014332869E+02  0.48385176831E+02 -0.72620066508E+02  0.16536480746E+03  0.12700000000E+03 0.  0.
<mgrwt>
<rscale>  0 0.29730036E+03</rscale>
<asrwt>0</asrwt>
<pdfrwt beam="1">  1        2 0.32890848E-01 0.29730036E+03</pdfrwt>
<pdfrwt beam="2">  1       -2 0.13710703E-01 0.29730036E+03</pdfrwt>
<totfact> 0.62703949E+03</totfact>
</mgrwt>
</event>
<event>
 4    1  0.1361667E-004  0.5757662E+03  0.7818608E-02  0.9956999E-01
          2   -1    0    0  501    0  0.00000000000E+00  0.00000000000E+00  0.17719430158E+04  0.17719430158E+04  0.25500000000E-02 0.  1.
         -2   -1    0    0    0  501 -0.00000000000E+00 -0.00000000000E+00 -0.46771635775E+02  0.46771635845E+02  0.25500000000E-02 0. -1.
    5000001    1    1    2    0    0  0.22612629183E+03  0.12493764774E+03  0.86975947003E+03  0.91616213160E+03  0.12700000000E+03 0.  0.
   -5000001    1    1    2    0    0 -0.22612629183E+03 -0.12493764774E+03  0.85541191004E+03  0.90255252009E+03  0.12700000000E+03 0.  0.
<mgrwt>
<rscale>  0 0.57576618E+03</rscale>
<asrwt>0</asrwt>
<pdfrwt beam="1">  1        2 0.25313468E+00 0.57576618E+03</pdfrwt>
<pdfrwt beam="2">  1       -2 0.66816632E-02 0.57576618E+03</pdfrwt>
<totfact> 0.14090307E+03</totfact>
</mgrwt>
</event>
<event>
 4    1  0.1361667E-004  0.8153598E+03  0.7818608E-02  0.9538047E-01
          2   -1    0    0  501    0  0.00000000000E+00  0.00000000000E+00  0.19860369576E+04  0.19860369576E+04  0.25500000000E-02 0.  1.
         -2   -1    0    0    0  501 -0.00000000000E+00 -0.00000000000E+00 -0.83685714042E+02  0.83685714081E+02  0.25500000000E-02 0. -1.
    5000001    1    1    2    0    0 -0.37639949381E+03  0.61683782643E+02  0.11231980976E+04  0.11929729395E+04  0.12700000000E+03 0.  0.
   -5000001    1    1    2    0    0  0.37639949381E+03 -0.61683782643E+02  0.77915314595E+03  0.87674973215E+03  0.12700000000E+03 0.  0.
<mgrwt>
<rscale>  0 0.81535985E+03</rscale>
<asrwt>0</asrwt>
<pdfrwt beam="1">  1        2 0.28371954E+00 0.81535985E+03</pdfrwt>
<pdfrwt beam="2">  1       -2 0.11955103E-01 0.81535985E+03</pdfrwt>
<totfact> 0.42406104E+02</totfact>
</mgrwt>
</event>
<event>
 4    1  0.1361667E-004  0.3340740E+03  0.7818608E-02  0.1069348E+00
         -2   -1    0    0    0  501 -0.00000000000E+00  0.00000000000E+00  0.25061940575E+02  0.25061940705E+02  0.25500000000E-02 0. -1.
          2   -1    0    0  501    0  0.00000000000E+00 -0.00000000000E+00 -0.11132959260E+04  0.11132959260E+04  0.25500000000E-02 0.  1.
    5000001    1    1    2    0    0 -0.69735786738E+02  0.26408265275E+02 -0.81268092511E+03  0.82591752764E+03  0.12700000000E+03 0.  0.
   -5000001    1    1    2    0    0  0.69735786738E+02 -0.26408265275E+02 -0.27555306031E+03  0.31244033906E+03  0.12700000000E+03 0.  0.
<mgrwt>
<rscale>  0 0.33407398E+03</rscale>
<asrwt>0</asrwt>
<pdfrwt beam="1">  1        2 0.15904224E+00 0.33407398E+03</pdfrwt>
<pdfrwt beam="2">  1       -2 0.35802779E-02 0.33407398E+03</pdfrwt>
<totfact> 0.81677554E+03</totfact>
</mgrwt>
</event>
<event>
 4    1  0.1361667E-004  0.2705622E+03  0.7818608E-02  0.1100958E+00
         -2   -1    0    0    0  501 -0.00000000000E+00  0.00000000000E+00  0.42771019397E+02  0.42771019473E+02  0.25500000000E-02 0. -1.
          2   -1    0    0  501    0  0.00000000000E+00 -0.00000000000E+00 -0.42788261263E+03  0.42788261264E+03  0.25500000000E-02 0.  1.
    5000001    1    1    2    0    0  0.67293348495E+01  0.30477285227E+02 -0.13235097277E+03  0.18606431376E+03  0.12700000000E+03 0.  0.
   -5000001    1    1    2    0    0 -0.67293348495E+01 -0.30477285227E+02 -0.25276062046E+03  0.28458931835E+03  0.12700000000E+03 0.  0.
<mgrwt>
<rscale>  0 0.27056220E+03</rscale>
<asrwt>0</asrwt>
<pdfrwt beam="1">  1        2 0.61126085E-01 0.27056220E+03</pdfrwt>
<pdfrwt beam="2">  1       -2 0.61101459E-02 0.27056220E+03</pdfrwt>
<totfact> 0.11480293E+04</totfact>
</mgrwt>
</event>
<event>
 4    1  0.1361667E-004  0.3020357E+03  0.7818608E-02  0.1084227E+00
          2   -1    0    0  501    0  0.00000000000E+00  0.00000000000E+00  0.27328547909E+04  0.27328547909E+04  0.25500000000E-02 0.  1.
         -2   -1    0    0    0  501 -0.00000000000E+00 -0.00000000000E+00 -0.83452602191E+01  0.83452606087E+01  0.25500000000E-02 0. -1.
    5000001    1    1    2    0    0  0.41608437209E+02 -0.40576588551E+02  0.18835902972E+04  0.18887612684E+04  0.12700000000E+03 0.  0.
   -5000001    1    1    2    0    0 -0.41608437209E+02  0.40576588551E+02  0.84091923357E+03  0.85243878312E+03  0.12700000000E+03 0.  0.
<mgrwt>
<rscale>  0 0.30203566E+03</rscale>
<asrwt>0</asrwt>
<pdfrwt beam="1">  1        2 0.39040748E+00 0.30203566E+03</pdfrwt>
<pdfrwt beam="2">  1       -2 0.11921811E-02 0.30203566E+03</pdfrwt>
<totfact> 0.63102523E+03</totfact>
</mgrwt>
</event>
<event>
 4    1  0.1361667E-004  0.3886758E+03  0.7818608E-02  0.1047773E+00
          2   -1    0    0  501    0  0.00000000000E+00  0.00000000000E+00  0.11916055103E+03  0.11916055105E+03  0.25500000000E-02 0.  1.
         -2   -1    0    0    0  501 -0.00000000000E+00 -0.00000000000E+00 -0.31694394164E+03  0.31694394165E+03  0.25500000000E-02 0. -1.
    5000001    1    1    2    0    0  0.10850347280E+03  0.68913336421E+02 -0.18636107358E+02  0.18165449635E+03  0.12700000000E+03 0.  0.
   -5000001    1    1    2    0    0 -0.10850347280E+03 -0.68913336421E+02 -0.17914728326E+03  0.25444999635E+03  0.12700000000E+03 0.  0.
<mgrwt>
<rscale>  0 0.38867578E+03</rscale>
<asrwt>0</asrwt>
<pdfrwt beam="1">  1        2 0.17022936E-01 0.38867578E+03</pdfrwt>
<pdfrwt beam="2">  1       -2 0.45277706E-01 0.38867578E+03</pdfrwt>
<totfact> 0.15807808E+03</totfact>
</mgrwt>
</event>
<event>
 4    1  0.1361667E-004  0.7291936E+03  0.7818608E-02  0.9668570E-01
          2   -1    0    0  501    0  0.00000000000E+00  0.00000000000E+00  0.30689261394E+04  0.30689261394E+04  0.25500000000E-02 0.  1.
         -2   -1    0    0    0  501 -0.00000000000E+00 -0.00000000000E+00 -0.43315088893E+02  0.43315088968E+02  0.25500000000E-02 0. -1.
    5000001    1    1    2    0    0  0.27978166859E+03  0.32656709406E+02  0.23388438718E+04  0.23591659330E+04  0.12700000000E+03 0.  0.
   -5000001    1    1    2    0    0 -0.27978166859E+03 -0.32656709406E+02  0.68676717867E+03  0.75307529534E+03  0.12700000000E+03 0.  0.
<mgrwt>
<rscale>  0 0.72919355E+03</rscale>
<asrwt>0</asrwt>
<pdfrwt beam="1">  1        2 0.43841790E+00 0.72919355E+03</pdfrwt>
<pdfrwt beam="2">  1       -2 0.61878716E-02 0.72919355E+03</pdfrwt>
<totfact> 0.33566050E+02</totfact>
</mgrwt>
</event>
<event>
 4    1  0.1361667E-004  0.6696730E+03  0.7818608E-02  0.9770549E-01
          2   -1    0    0  501    0  0.00000000000E+00  0.00000000000E+00  0.81726197100E+03  0.81726197101E+03  0.25500000000E-02 0.  1.
         -2   -1    0    0    0  501 -0.00000000000E+00 -0.00000000000E+00 -0.13718424854E+03  0.13718424857E+03  0.25500000000E-02 0. -1.
    5000001    1    1    2    0    0  0.15481079570E+03  0.17539335414E+03  0.50545320272E+02  0.27094840937E+03  0.12700000000E+03 0.  0.
   -5000001    1    1    2    0    0 -0.15481079570E+03 -0.17539335414E+03  0.62953240219E+03  0.68349781020E+03  0.12700000000E+03 0.  0.
<mgrwt>
<rscale>  0 0.66967296E+03</rscale>
<asrwt>0</asrwt>
<pdfrwt beam="1">  1        2 0.11675171E+00 0.66967296E+03</pdfrwt>
<pdfrwt beam="2">  1       -2 0.19597750E-01 0.66967296E+03</pdfrwt>
<totfact> 0.82024175E+02</totfact>
</mgrwt>
</event>
<event>
 4    1  0.1361667E-004  0.4876770E+03  0.7818608E-02  0.1017046E+00
          2   -1    0    0  501    0  0.00000000000E+00  0.00000000000E+00  0.19800808667E+03  0.19800808668E+03  0.25500000000E-02 0.  1.
         -2   -1    0    0    0  501 -0.00000000000E+00 -0.00000000000E+00 -0.30027665553E+03  0.30027665554E+03  0.25500000000E-02 0. -1.
    5000001    1    1    2    0    0 -0.12674950132E+02  0.18158831729E+03 -0.15429191464E+03  0.27031456908E+03  0.12700000000E+03 0.  0.
   -5000001    1    1    2    0    0  0.12674950132E+02 -0.18158831729E+03  0.52023345775E+02  0.22797017314E+03  0.12700000000E+03 0.  0.
<mgrwt>
<rscale>  0 0.48767697E+03</rscale>
<asrwt>0</asrwt>
<pdfrwt beam="1">  1        2 0.28286870E-01 0.48767697E+03</pdfrwt>
<pdfrwt beam="2">  1       -2 0.42896665E-01 0.48767697E+03</pdfrwt>
<totfact> 0.98190870E+02</totfact>
</mgrwt>
</event>
<event>
 4    1  0.1361667E-004  0.3408492E+03  0.7818608E-02  0.1066435E+00
          2   -1    0    0  501    0  0.00000000000E+00  0.00000000000E+00  0.79707620928E+03  0.79707620929E+03  0.25500000000E-02 0.  1.
         -2   -1    0    0    0  501 -0.00000000000E+00 -0.00000000000E+00 -0.36438850133E+02  0.36438850223E+02  0.25500000000E-02 0. -1.
    5000001    1    1    2    0    0 -0.76021997585E+02 -0.38490683430E+02  0.19643017037E+03  0.24894716038E+03  0.12700000000E+03 0.  0.
   -5000001    1    1    2    0    0  0.76021997585E+02  0.38490683430E+02  0.56420718878E+03  0.58456789913E+03  0.12700000000E+03 0.  0.
<mgrwt>
<rscale>  0 0.34084918E+03</rscale>
<asrwt>0</asrwt>
<pdfrwt beam="1">  1        2 0.11386803E+00 0.34084918E+03</pdfrwt>
<pdfrwt beam="2">  1       -2 0.52055501E-02 0.34084918E+03</pdfrwt>
<totfact> 0.72399872E+03</totfact>
</mgrwt>
</event>
<event>
 4    1  0.1361667E-004  0.5278837E+03  0.7818608E-02  0.1006747E+00
         -2   -1    0    0    0  501 -0.00000000000E+00  0.00000000000E+00  0.37245545680E+03  0.37245545681E+03  0.25500000000E-02 0. -1.
          2   -1    0    0  501    0  0.00000000000E+00 -0.00000000000E+00 -0.18704333077E+03  0.18704333079E+03  0.25500000000E-02 0.  1.
    5000001    1    1    2    0    0 -0.78736837407E+02  0.20380280604E+03  0.11978631974E+02  0.25299715599E+03  0.12700000000E+03 0.  0.
   -5000001    1    1    2    0    0  0.78736837407E+02 -0.20380280604E+03  0.17343349406E+03  0.30650163161E+03  0.12700000000E+03 0.  0.
<mgrwt>
<rscale>  0 0.52788373E+03</rscale>
<asrwt>0</asrwt>
<pdfrwt beam="1">  1        2 0.26720475E-01 0.52788373E+03</pdfrwt>
<pdfrwt beam="2">  1       -2 0.53207923E-01 0.52788373E+03</pdfrwt>
<totfact> 0.68016969E+02</totfact>
</mgrwt>
</event>
<event>
 4    1  0.1361667E-004  0.3562344E+03  0.7818608E-02  0.1060085E+00
         -2   -1    0    0    0  501 -0.00000000000E+00  0.00000000000E+00  0.57160820960E+03  0.57160820961E+03  0.25500000000E-02 0. -1.
          2   -1    0    0  501    0  0.00000000000E+00 -0.00000000000E+00 -0.55502602347E+02  0.55502602406E+02  0.25500000000E-02 0.  1.
    5000001    1    1    2    0    0  0.12063335849E+03 -0.21552879082E+02  0.21566401401E+03  0.27866987766E+03  0.12700000000E+03 0.  0.
   -5000001    1    1    2    0    0 -0.12063335849E+03  0.21552879082E+02  0.30044159325E+03  0.34844093435E+03  0.12700000000E+03 0.  0.
<mgrwt>
<rscale>  0 0.35623444E+03</rscale>
<asrwt>0</asrwt>
<pdfrwt beam="1">  1        2 0.79289426E-02 0.35623444E+03</pdfrwt>
<pdfrwt beam="2">  1       -2 0.81658322E-01 0.35623444E+03</pdfrwt>
<totfact> 0.11780995E+03</totfact>
</mgrwt>
</event>
<event>
 4    1  0.1361667E-004  0.2829496E+03  0.7818608E-02  0.1094089E+00
         -2   -1    0    0    0  501 -0.00000000000E+00  0.00000000000E+00  0.11004759746E+02  0.11004760041E+02  0.25500000000E-02 0. -1.
          2   -1    0    0  501    0  0.00000000000E+00 -0.00000000000E+00 -0.18187695105E+04  0.18187695105E+04  0.25500000000E-02 0.  1.
    5000001    1    1    2    0    0 -0.32683229156E+02  0.52528760587E+02 -0.85435439830E+03  0.86595490763E+03  0.12700000000E+03 0.  0.
   -5000001    1    1    2    0    0  0.32683229156E+02 -0.52528760587E+02 -0.95341035246E+03  0.96381936292E+03  0.12700000000E+03 0.  0.
<mgrwt>
<rscale>  0 0.28294962E+03</rscale>
<asrwt>0</asrwt>
<pdfrwt beam="1">  1        2 0.25982402E+00 0.28294962E+03</pdfrwt>
<pdfrwt beam="2">  1       -2 0.15721097E-02 0.28294962E+03</pdfrwt>
<totfact> 0.11937658E+04</totfact>
</mgrwt>
</event>
<event>
 4    1  0.1361667E-004  0.8390496E+03  0.7818608E-02  0.9505153E-01
         -2   -1    0    0    0  501 -0.00000000000E+00  0.00000000000E+00  0.38162019306E+03  0.38162019306E+03  0.25500000000E-02 0. -1.
          2   -1    0    0  501    0  0.00000000000E+00 -0.00000000000E+00 -0.46119425759E+03  0.46119425759E+03  0.25500000000E-02 0.  1.
    5000001    1    1    2    0    0  0.35173876531E+03 -0.58275108831E+02  0.14201096266E+03  0.40424282411E+03  0.12700000000E+03 0.  0.
   -5000001    1    1    2    0    0 -0.35173876531E+03  0.58275108831E+02 -0.22158502719E+03  0.43857162654E+03  0.12700000000E+03 0.  0.
<mgrwt>
<rscale>  0 0.83904956E+03</rscale>
<asrwt>0</asrwt>
<pdfrwt beam="1">  1        2 0.65884894E-01 0.83904956E+03</pdfrwt>
<pdfrwt beam="2">  1       -2 0.54517170E-01 0.83904956E+03</pdfrwt>
<totfact> 0.23446309E+02</totfact>
</mgrwt>
</event>
<event>
 4    1  0.1361667E-004  0.5185930E+03  0.7818608E-02  0.1009037E+00
          2   -1    0    0  501    0  0.00000000000E+00  0.00000000000E+00  0.15949379236E+04  0.15949379236E+04  0.25500000000E-02 0.  1.
         -2   -1    0    0    0  501 -0.00000000000E+00 -0.00000000000E+00 -0.42155033947E+02  0.42155034024E+02  0.25500000000E-02 0. -1.
    5000001    1    1    2    0    0  0.41891472445E+02  0.22203111659E+03  0.79936247411E+03  0.84033450317E+03  0.12700000000E+03 0.  0.
   -5000001    1    1    2    0    0 -0.41891472445E+02 -0.22203111659E+03  0.75342041556E+03  0.79675845448E+03  0.12700000000E+03 0.  0.
<mgrwt>
<rscale>  0 0.51859295E+03</rscale>
<asrwt>0</asrwt>
<pdfrwt beam="1">  1        2 0.22784822E+00 0.51859295E+03</pdfrwt>
<pdfrwt beam="2">  1       -2 0.60221491E-02 0.51859295E+03</pdfrwt>
<totfact> 0.20439219E+03</totfact>
</mgrwt>
</event>
<event>
 4    1  0.1361667E-004  0.2984423E+03  0.7818608E-02  0.1086022E+00
          2   -1    0    0  501    0  0.00000000000E+00  0.00000000000E+00  0.24017502421E+03  0.24017502422E+03  0.25500000000E-02 0.  1.
         -2   -1    0    0    0  501 -0.00000000000E+00 -0.00000000000E+00 -0.92711370847E+02  0.92711370883E+02  0.25500000000E-02 0. -1.
    5000001    1    1    2    0    0  0.30171080013E+02 -0.56013478108E+02  0.12472646982E+03  0.18903305550E+03  0.12700000000E+03 0.  0.
   -5000001    1    1    2    0    0 -0.30171080013E+02  0.56013478108E+02  0.22737183540E+02  0.14385333960E+03  0.12700000000E+03 0.  0.
<mgrwt>
<rscale>  0 0.29844233E+03</rscale>
<asrwt>0</asrwt>
<pdfrwt beam="1">  1        2 0.34310718E-01 0.29844233E+03</pdfrwt>
<pdfrwt beam="2">  1       -2 0.13244482E-01 0.29844233E+03</pdfrwt>
<totfact> 0.63374437E+03</totfact>
</mgrwt>
</event>
<event>
 4    1  0.1361667E-004  0.2870618E+03  0.7818608E-02  0.1091893E+00
          2   -1    0    0  501    0  0.00000000000E+00  0.00000000000E+00  0.14323154141E+04  0.14323154141E+04  0.25500000000E-02 0.  1.
         -2   -1    0    0    0  501 -0.00000000000E+00 -0.00000000000E+00 -0.14383085024E+02  0.14383085250E+02  0.25500000000E-02 0. -1.
    5000001    1    1    2    0    0  0.21400129878E+02  0.33713143261E+02  0.43862271643E+03  0.45838131392E+03  0.12700000000E+03 0.  0.
   -5000001    1    1    2    0    0 -0.21400129878E+02 -0.33713143261E+02  0.97930961260E+03  0.98831718538E+03  0.12700000000E+03 0.  0.
<mgrwt>
<rscale>  0 0.28706177E+03</rscale>
<asrwt>0</asrwt>
<pdfrwt beam="1">  1        2 0.20461645E+00 0.28706177E+03</pdfrwt>
<pdfrwt beam="2">  1       -2 0.20547269E-02 0.28706177E+03</pdfrwt>
<totfact> 0.12557705E+04</totfact>
</mgrwt>
</event>
<event>
 4    1  0.1361667E-004  0.4694103E+03  0.7818608E-02  0.1022087E+00
          2   -1    0    0  501    0  0.00000000000E+00  0.00000000000E+00  0.92504560833E+03  0.92504560834E+03  0.25500000000E-02 0.  1.
         -2   -1    0    0    0  501 -0.00000000000E+00 -0.00000000000E+00 -0.59550041311E+02  0.59550041365E+02  0.25500000000E-02 0. -1.
    5000001    1    1    2    0    0  0.68254039552E+02 -0.11263104290E+03  0.74111217964E+03  0.76336140101E+03  0.12700000000E+03 0.  0.
   -5000001    1    1    2    0    0 -0.68254039552E+02  0.11263104290E+03  0.12438338739E+03  0.22123424870E+03  0.12700000000E+03 0.  0.
<mgrwt>
<rscale>  0 0.46941029E+03</rscale>
<asrwt>0</asrwt>
<pdfrwt beam="1">  1        2 0.13214936E+00 0.46941029E+03</pdfrwt>
<pdfrwt beam="2">  1       -2 0.85071498E-02 0.46941029E+03</pdfrwt>
<totfact> 0.27884050E+03</totfact>
</mgrwt>
</event>
<event>
 4    1  0.1361667E-004  0.3776206E+03  0.7818608E-02  0.1051817E+00
          2   -1    0    0  501    0  0.00000000000E+00  0.00000000000E+00  0.18875499331E+04  0.18875499331E+04  0.25500000000E-02 0.  1.
         -2   -1    0    0    0  501 -0.00000000000E+00 -0.00000000000E+00 -0.18886561811E+02  0.18886561984E+02  0.25500000000E-02 0. -1.
    5000001    1    1    2    0    0 -0.49099852501E+01  0.10811653884E+03  0.48825479466E+03  0.51597968801E+03  0.12700000000E+03 0.  0.
   -5000001    1    1    2    0    0  0.49099852501E+01 -0.10811653884E+03  0.13804085766E+04  0.13904568071E+04  0.12700000000E+03 0.  0.
<mgrwt>
<rscale>  0 0.37762060E+03</rscale>
<asrwt>0</asrwt>
<pdfrwt beam="1">  1        2 0.26965003E+00 0.37762060E+03</pdfrwt>
<pdfrwt beam="2">  1       -2 0.26980799E-02 0.37762060E+03</pdfrwt>
<totfact> 0.49773910E+03</totfact>
</mgrwt>
</event>
<event>
 4    1  0.1361667E-004  0.5182953E+03  0.7818608E-02  0.1009111E+00
          2   -1    0    0  501    0  0.00000000000E+00  0.00000000000E+00  0.27459780031E+04  0.27459780031E+04  0.25500000000E-02 0. -1.
         -2   -1    0    0    0  501 -0.00000000000E+00 -0.00000000000E+00 -0.24456678837E+02  0.24456678970E+02  0.25500000000E-02 0.  1.
    5000001    1    1    2    0    0  0.86565885903E+02 -0.20310010312E+03  0.11052361595E+04  0.11342042465E+04  0.12700000000E+03 0.  0.
   -5000001    1    1    2    0    0 -0.86565885903E+02  0.20310010312E+03  0.16162851647E+04  0.16362304355E+04  0.12700000000E+03 0.  0.
<mgrwt>
<rscale>  0 0.51829529E+03</rscale>
<asrwt>0</asrwt>
<pdfrwt beam="1">  1        2 0.39228225E+00 0.51829529E+03</pdfrwt>
<pdfrwt beam="2">  1       -2 0.34938141E-02 0.51829529E+03</pdfrwt>
<totfact> 0.12362285E+03</totfact>
</mgrwt>
</event>
<event>
 4    1  0.1361667E-004  0.3232170E+03  0.7818608E-02  0.1074178E+00
         -2   -1    0    0    0  501 -0.00000000000E+00  0.00000000000E+00  0.70693327573E+02  0.70693327619E+02  0.25500000000E-02 0. -1.
          2   -1    0    0  501    0  0.00000000000E+00 -0.00000000000E+00 -0.36944517349E+03  0.36944517350E+03  0.25500000000E-02 0.  1.
    5000001    1    1    2    0    0 -0.83386097110E+02  0.54659239670E+02 -0.13999717971E+03  0.21370326155E+03  0.12700000000E+03 0.  0.
   -5000001    1    1    2    0    0  0.83386097110E+02 -0.54659239670E+02 -0.15875466621E+03  0.22643523956E+03  0.12700000000E+03 0.  0.
<mgrwt>
<rscale>  0 0.32321701E+03</rscale>
<asrwt>0</asrwt>
<pdfrwt beam="1">  1        2 0.52777881E-01 0.32321701E+03</pdfrwt>
<pdfrwt beam="2">  1       -2 0.10099047E-01 0.32321701E+03</pdfrwt>
<totfact> 0.61750116E+03</totfact>
</mgrwt>
</event>
<event>
 4    1  0.1361667E-004  0.3702892E+03  0.7818608E-02  0.1054582E+00
          2   -1    0    0  501    0  0.00000000000E+00  0.00000000000E+00  0.17795321306E+04  0.17795321306E+04  0.25500000000E-02 0.  1.
         -2   -1    0    0    0  501 -0.00000000000E+00 -0.00000000000E+00 -0.19262658880E+02  0.19262659048E+02  0.25500000000E-02 0. -1.
    5000001    1    1    2    0    0  0.34033277720E+02  0.27332305736E+02  0.14992760378E+04  0.15052783651E+04  0.12700000000E+03 0.  0.
   -5000001    1    1    2    0    0 -0.34033277720E+02 -0.27332305736E+02  0.26099343393E+03  0.29351642455E+03  0.12700000000E+03 0.  0.
<mgrwt>
<rscale>  0 0.37028919E+03</rscale>
<asrwt>0</asrwt>
<pdfrwt beam="1">  1        2 0.25421867E+00 0.37028919E+03</pdfrwt>
<pdfrwt beam="2">  1       -2 0.27518107E-02 0.37028919E+03</pdfrwt>
<totfact> 0.54660505E+03</totfact>
</mgrwt>
</event>
<event>
 4    1  0.1361667E-004  0.3375902E+03  0.7818608E-02  0.1067827E+00
          2   -1    0    0  501    0  0.00000000000E+00  0.00000000000E+00  0.10011596573E+03  0.10011596576E+03  0.25500000000E-02 0.  1.
         -2   -1    0    0    0  501 -0.00000000000E+00 -0.00000000000E+00 -0.28458789466E+03  0.28458789467E+03  0.25500000000E-02 0. -1.
    5000001    1    1    2    0    0 -0.88875517965E+02 -0.38004849702E+02 -0.15485536459E+03  0.22237897886E+03  0.12700000000E+03 0.  0.
   -5000001    1    1    2    0    0  0.88875517965E+02  0.38004849702E+02 -0.29616564345E+02  0.16232488157E+03  0.12700000000E+03 0.  0.
<mgrwt>
<rscale>  0 0.33759024E+03</rscale>
<asrwt>0</asrwt>
<pdfrwt beam="1">  1        2 0.14302281E-01 0.33759024E+03</pdfrwt>
<pdfrwt beam="2">  1       -2 0.40655413E-01 0.33759024E+03</pdfrwt>
<totfact> 0.23926578E+03</totfact>
</mgrwt>
</event>
<event>
 4    1  0.1361667E-004  0.4503782E+03  0.7818608E-02  0.1027609E+00
         -2   -1    0    0    0  501 -0.00000000000E+00  0.00000000000E+00  0.63666723656E+02  0.63666723707E+02  0.25500000000E-02 0. -1.
          2   -1    0    0  501    0  0.00000000000E+00 -0.00000000000E+00 -0.79649349464E+03  0.79649349465E+03  0.25500000000E-02 0.  1.
    5000001    1    1    2    0    0  0.13978834060E+02 -0.18347637854E+03 -0.41773653267E+03  0.47380565637E+03  0.12700000000E+03 0.  0.
   -5000001    1    1    2    0    0 -0.13978834060E+02  0.18347637854E+03 -0.31509023832E+03  0.38635456199E+03  0.12700000000E+03 0.  0.
<mgrwt>
<rscale>  0 0.45037820E+03</rscale>
<asrwt>0</asrwt>
<pdfrwt beam="1">  1        2 0.11378478E+00 0.45037820E+03</pdfrwt>
<pdfrwt beam="2">  1       -2 0.90952467E-02 0.45037820E+03</pdfrwt>
<totfact> 0.30437899E+03</totfact>
</mgrwt>
</event>
<event>
 4    1  0.1361667E-004  0.5988429E+03  0.7818608E-02  0.9907810E-01
          2   -1    0    0  501    0  0.00000000000E+00  0.00000000000E+00  0.45272282625E+03  0.45272282626E+03  0.25500000000E-02 0.  1.
         -2   -1    0    0    0  501 -0.00000000000E+00 -0.00000000000E+00 -0.19803110841E+03  0.19803110843E+03  0.25500000000E-02 0. -1.
    5000001    1    1    2    0    0  0.24007281130E+03 -0.11305817686E+03  0.66772548604E+02  0.30166981839E+03  0.12700000000E+03 0.  0.
   -5000001    1    1    2    0    0 -0.24007281130E+03  0.11305817686E+03  0.18791916924E+03  0.34908411629E+03  0.12700000000E+03 0.  0.
<mgrwt>
<rscale>  0 0.59884289E+03</rscale>
<asrwt>0</asrwt>
<pdfrwt beam="1">  1        2 0.64674690E-01 0.59884289E+03</pdfrwt>
<pdfrwt beam="2">  1       -2 0.28290158E-01 0.59884289E+03</pdfrwt>
<totfact> 0.86241219E+02</totfact>
</mgrwt>
</event>
<event>
 4    1  0.1361667E-004  0.3641074E+03  0.7818608E-02  0.1056969E+00
         -2   -1    0    0    0  501 -0.00000000000E+00  0.00000000000E+00  0.24241338548E+03  0.24241338549E+03  0.25500000000E-02 0. -1.
          2   -1    0    0  501    0  0.00000000000E+00 -0.00000000000E+00 -0.13672327481E+03  0.13672327483E+03  0.25500000000E-02 0.  1.
    5000001    1    1    2    0    0  0.94046354554E+02  0.78217725796E+02  0.56782835119E+01  0.17641987512E+03  0.12700000000E+03 0.  0.
   -5000001    1    1    2    0    0 -0.94046354554E+02 -0.78217725796E+02  0.10001182716E+03  0.20271678521E+03  0.12700000000E+03 0.  0.
<mgrwt>
<rscale>  0 0.36410741E+03</rscale>
<asrwt>0</asrwt>
<pdfrwt beam="1">  1        2 0.19531897E-01 0.36410741E+03</pdfrwt>
<pdfrwt beam="2">  1       -2 0.34630483E-01 0.36410741E+03</pdfrwt>
<totfact> 0.22498953E+03</totfact>
</mgrwt>
</event>
<event>
 4    1  0.1361667E-004  0.3040385E+03  0.7818608E-02  0.1083239E+00
          2   -1    0    0  501    0  0.00000000000E+00  0.00000000000E+00  0.19201894169E+04  0.19201894169E+04  0.25500000000E-02 0.  1.
         -2   -1    0    0    0  501 -0.00000000000E+00 -0.00000000000E+00 -0.12035192442E+02  0.12035192712E+02  0.25500000000E-02 0. -1.
    5000001    1    1    2    0    0 -0.65240468030E+02  0.24455694284E+02  0.12471371625E+04  0.12555216054E+04  0.12700000000E+03 0.  0.
   -5000001    1    1    2    0    0  0.65240468030E+02 -0.24455694284E+02  0.66101706197E+03  0.67670300418E+03  0.12700000000E+03 0.  0.
<mgrwt>
<rscale>  0 0.30403848E+03</rscale>
<asrwt>0</asrwt>
<pdfrwt beam="1">  1        2 0.27431227E+00 0.30403848E+03</pdfrwt>
<pdfrwt beam="2">  1       -2 0.17193164E-02 0.30403848E+03</pdfrwt>
<totfact> 0.93478801E+03</totfact>
</mgrwt>
</event>
<event>
 4    1  0.1361667E-004  0.5147595E+03  0.7818608E-02  0.1009997E+00
          2   -1    0    0  501    0  0.00000000000E+00  0.00000000000E+00  0.58954423325E+02  0.58954423380E+02  0.25500000000E-02 0.  1.
         -2   -1    0    0    0  501 -0.00000000000E+00 -0.00000000000E+00 -0.11236533155E+04  0.11236533155E+04  0.25500000000E-02 0. -1.
    5000001    1    1    2    0    0  0.18666599840E+03 -0.12086413745E+03 -0.59150460892E+03  0.64456111972E+03  0.12700000000E+03 0.  0.
   -5000001    1    1    2    0    0 -0.18666599840E+03  0.12086413745E+03 -0.47319428322E+03  0.53804661913E+03  0.12700000000E+03 0.  0.
<mgrwt>
<rscale>  0 0.51475949E+03</rscale>
<asrwt>0</asrwt>
<pdfrwt beam="1">  1        2 0.84220612E-02 0.51475949E+03</pdfrwt>
<pdfrwt beam="2">  1       -2 0.16052189E+00 0.51475949E+03</pdfrwt>
<totfact> 0.21082625E+02</totfact>
</mgrwt>
</event>
<event>
 4    1  0.1361667E-004  0.4189518E+03  0.7818608E-02  0.1037408E+00
          2   -1    0    0  501    0  0.00000000000E+00  0.00000000000E+00  0.19690748872E+03  0.19690748874E+03  0.25500000000E-02 0.  1.
         -2   -1    0    0    0  501 -0.00000000000E+00 -0.00000000000E+00 -0.22284653292E+03  0.22284653294E+03  0.25500000000E-02 0. -1.
    5000001    1    1    2    0    0  0.32390665935E+02  0.86469461090E+02 -0.15188937211E+03  0.21846167696E+03  0.12700000000E+03 0.  0.
   -5000001    1    1    2    0    0 -0.32390665935E+02 -0.86469461090E+02  0.12595032791E+03  0.20129234471E+03  0.12700000000E+03 0.  0.
<mgrwt>
<rscale>  0 0.41895179E+03</rscale>
<asrwt>0</asrwt>
<pdfrwt beam="1">  1        2 0.28129641E-01 0.41895179E+03</pdfrwt>
<pdfrwt beam="2">  1       -2 0.31835219E-01 0.41895179E+03</pdfrwt>
<totfact> 0.17413626E+03</totfact>
</mgrwt>
</event>
<event>
 4    1  0.1361667E-004  0.4376604E+03  0.7818608E-02  0.1031467E+00
          2   -1    0    0  501    0  0.00000000000E+00  0.00000000000E+00  0.17708365880E+04  0.17708365880E+04  0.25500000000E-02 0. -1.
         -2   -1    0    0    0  501 -0.00000000000E+00 -0.00000000000E+00 -0.27041821494E+02  0.27041821615E+02  0.25500000000E-02 0.  1.
    5000001    1    1    2    0    0  0.50391143907E+01  0.17565762177E+03  0.99352642368E+03  0.10169094096E+04  0.12700000000E+03 0.  0.
   -5000001    1    1    2    0    0 -0.50391143907E+01 -0.17565762177E+03  0.75026834285E+03  0.78096900005E+03  0.12700000000E+03 0.  0.
<mgrwt>
<rscale>  0 0.43766036E+03</rscale>
<asrwt>0</asrwt>
<pdfrwt beam="1">  1        2 0.25297669E+00 0.43766036E+03</pdfrwt>
<pdfrwt beam="2">  1       -2 0.38631169E-02 0.43766036E+03</pdfrwt>
<totfact> 0.33072318E+03</totfact>
</mgrwt>
</event>
<event>
 4    1  0.1361667E-004  0.4265387E+03  0.7818608E-02  0.1034959E+00
          2   -1    0    0  501    0  0.00000000000E+00  0.00000000000E+00  0.63421167475E+03  0.63421167476E+03  0.25500000000E-02 0.  1.
         -2   -1    0    0    0  501 -0.00000000000E+00 -0.00000000000E+00 -0.71717096767E+02  0.71717096812E+02  0.25500000000E-02 0. -1.
    5000001    1    1    2    0    0 -0.13891328339E+03  0.92358909665E+02  0.21655853442E+03  0.30141942095E+03  0.12700000000E+03 0.  0.
   -5000001    1    1    2    0    0  0.13891328339E+03 -0.92358909665E+02  0.34593604357E+03  0.40450935062E+03  0.12700000000E+03 0.  0.
<mgrwt>
<rscale>  0 0.42653872E+03</rscale>
<asrwt>0</asrwt>
<pdfrwt beam="1">  1        2 0.90601663E-01 0.42653872E+03</pdfrwt>
<pdfrwt beam="2">  1       -2 0.10245300E-01 0.42653872E+03</pdfrwt>
<totfact> 0.33157244E+03</totfact>
</mgrwt>
</event>
<event>
 4    1  0.1361667E-004  0.3541079E+03  0.7818608E-02  0.1060942E+00
          2   -1    0    0  501    0  0.00000000000E+00  0.00000000000E+00  0.21378228727E+04  0.21378228727E+04  0.25500000000E-02 0. -1.
         -2   -1    0    0    0  501 -0.00000000000E+00 -0.00000000000E+00 -0.14663562591E+02  0.14663562813E+02  0.25500000000E-02 0.  1.
    5000001    1    1    2    0    0 -0.90145000308E+01 -0.11952282497E+03  0.12390224911E+04  0.12512684366E+04  0.12700000000E+03 0.  0.
   -5000001    1    1    2    0    0  0.90145000308E+01  0.11952282497E+03  0.88413681900E+03  0.90121799893E+03  0.12700000000E+03 0.  0.
<mgrwt>
<rscale>  0 0.35410789E+03</rscale>
<asrwt>0</asrwt>
<pdfrwt beam="1">  1        2 0.30540381E+00 0.35410789E+03</pdfrwt>
<pdfrwt beam="2">  1       -2 0.20947910E-02 0.35410789E+03</pdfrwt>
<totfact> 0.54630602E+03</totfact>
</mgrwt>
</event>
<event>
 4    1  0.1361667E-004  0.2911739E+03  0.7818608E-02  0.1089738E+00
          2   -1    0    0  501    0  0.00000000000E+00  0.00000000000E+00  0.23335376726E+03  0.23335376728E+03  0.25500000000E-02 0.  1.
         -2   -1    0    0    0  501 -0.00000000000E+00 -0.00000000000E+00 -0.90830163903E+02  0.90830163939E+02  0.25500000000E-02 0. -1.
    5000001    1    1    2    0    0 -0.56584539986E+01 -0.68223478283E+02  0.92968205485E+02  0.17163492745E+03  0.12700000000E+03 0.  0.
   -5000001    1    1    2    0    0  0.56584539986E+01  0.68223478283E+02  0.49555397875E+02  0.15254900376E+03  0.12700000000E+03 0.  0.
<mgrwt>
<rscale>  0 0.29117391E+03</rscale>
<asrwt>0</asrwt>
<pdfrwt beam="1">  1        2 0.33336252E-01 0.29117391E+03</pdfrwt>
<pdfrwt beam="2">  1       -2 0.12975738E-01 0.29117391E+03</pdfrwt>
<totfact> 0.67564015E+03</totfact>
</mgrwt>
</event>
<event>
 4    1  0.1361667E-004  0.3060563E+03  0.7818608E-02  0.1082252E+00
          2   -1    0    0  501    0  0.00000000000E+00  0.00000000000E+00  0.22183186149E+03  0.22183186151E+03  0.25500000000E-02 0.  1.
         -2   -1    0    0    0  501 -0.00000000000E+00 -0.00000000000E+00 -0.10556470796E+03  0.10556470799E+03  0.25500000000E-02 0. -1.
    5000001    1    1    2    0    0 -0.66242981453E+02 -0.53671909142E+02  0.62894672549E+02  0.16538907539E+03  0.12700000000E+03 0.  0.
   -5000001    1    1    2    0    0  0.66242981453E+02  0.53671909142E+02  0.53372480978E+02  0.16200749411E+03  0.12700000000E+03 0.  0.
<mgrwt>
<rscale>  0 0.30605631E+03</rscale>
<asrwt>0</asrwt>
<pdfrwt beam="1">  1        2 0.31690266E-01 0.30605631E+03</pdfrwt>
<pdfrwt beam="2">  1       -2 0.15080673E-01 0.30605631E+03</pdfrwt>
<totfact> 0.55874519E+03</totfact>
</mgrwt>
</event>
<event>
 4    1  0.1361667E-004  0.1051065E+04  0.7818608E-02  0.9254245E-01
          2   -1    0    0  501    0  0.00000000000E+00  0.00000000000E+00  0.16931357146E+04  0.16931357146E+04  0.25500000000E-02 0.  1.
         -2   -1    0    0    0  501 -0.00000000000E+00 -0.00000000000E+00 -0.16312019049E+03  0.16312019051E+03  0.25500000000E-02 0. -1.
    5000001    1    1    2    0    0 -0.37906800625E+03  0.61082757833E+02  0.13577132317E+04  0.14166643485E+04  0.12700000000E+03 0.  0.
   -5000001    1    1    2    0    0  0.37906800625E+03 -0.61082757833E+02  0.17230229233E+03  0.43959155657E+03  0.12700000000E+03 0.  0.
<mgrwt>
<rscale>  0 0.10510654E+04</rscale>
<asrwt>0</asrwt>
<pdfrwt beam="1">  1        2 0.24187654E+00 0.10510654E+04</pdfrwt>
<pdfrwt beam="2">  1       -2 0.23302883E-01 0.10510654E+04</pdfrwt>
<totfact> 0.18731760E+02</totfact>
</mgrwt>
</event>
<event>
 4    1  0.1361667E-004  0.3375896E+03  0.7818608E-02  0.1067827E+00
         -2   -1    0    0    0  501 -0.00000000000E+00  0.00000000000E+00  0.13013413894E+03  0.13013413896E+03  0.25500000000E-02 0. -1.
          2   -1    0    0  501    0  0.00000000000E+00 -0.00000000000E+00 -0.21894087073E+03  0.21894087075E+03  0.25500000000E-02 0.  1.
    5000001    1    1    2    0    0 -0.87550159394E+02  0.42631035785E+02  0.11090440914E+02  0.16041955461E+03  0.12700000000E+03 0.  0.
   -5000001    1    1    2    0    0  0.87550159394E+02 -0.42631035785E+02 -0.99897172710E+02  0.18865545510E+03  0.12700000000E+03 0.  0.
<mgrwt>
<rscale>  0 0.33758958E+03</rscale>
<asrwt>0</asrwt>
<pdfrwt beam="1">  1        2 0.31277267E-01 0.33758958E+03</pdfrwt>
<pdfrwt beam="2">  1       -2 0.18590591E-01 0.33758958E+03</pdfrwt>
<totfact> 0.40008765E+03</totfact>
</mgrwt>
</event>
<event>
 4    1  0.1361667E-004  0.3414430E+03  0.7818608E-02  0.1066183E+00
         -2   -1    0    0    0  501 -0.00000000000E+00  0.00000000000E+00  0.24416159325E+02  0.24416159459E+02  0.25500000000E-02 0. -1.
          2   -1    0    0  501    0  0.00000000000E+00 -0.00000000000E+00 -0.11937104610E+04  0.11937104611E+04  0.25500000000E-02 0.  1.
    5000001    1    1    2    0    0 -0.83201547291E+02 -0.25915643857E+02 -0.32193369019E+03  0.35688151948E+03  0.12700000000E+03 0.  0.
   -5000001    1    1    2    0    0  0.83201547291E+02  0.25915643857E+02 -0.84736061153E+03  0.86124510103E+03  0.12700000000E+03 0.  0.
<mgrwt>
<rscale>  0 0.34144297E+03</rscale>
<asrwt>0</asrwt>
<pdfrwt beam="1">  1        2 0.17053003E+00 0.34144297E+03</pdfrwt>
<pdfrwt beam="2">  1       -2 0.34880235E-02 0.34144297E+03</pdfrwt>
<totfact> 0.76666411E+03</totfact>
</mgrwt>
</event>
<event>
 4    1  0.1361667E-004  0.3644439E+03  0.7818608E-02  0.1056838E+00
         -2   -1    0    0    0  501 -0.00000000000E+00  0.00000000000E+00  0.10454804381E+02  0.10454804692E+02  0.25500000000E-02 0. -1.
          2   -1    0    0  501    0  0.00000000000E+00 -0.00000000000E+00 -0.31760354710E+04  0.31760354710E+04  0.25500000000E-02 0.  1.
    5000001    1    1    2    0    0 -0.11676128742E+03 -0.74922645813E+01 -0.10739783056E+04  0.10877719123E+04  0.12700000000E+03 0.  0.
   -5000001    1    1    2    0    0  0.11676128742E+03  0.74922645813E+01 -0.20916023611E+04  0.20987183635E+04  0.12700000000E+03 0.  0.
<mgrwt>
<rscale>  0 0.36444385E+03</rscale>
<asrwt>0</asrwt>
<pdfrwt beam="1">  1        2 0.45371874E+00 0.36444385E+03</pdfrwt>
<pdfrwt beam="2">  1       -2 0.14935455E-02 0.36444385E+03</pdfrwt>
<totfact> 0.26283968E+03</totfact>
</mgrwt>
</event>
<event>
 4    1  0.1361667E-004  0.3810510E+03  0.7818608E-02  0.1050546E+00
         -2   -1    0    0    0  501 -0.00000000000E+00  0.00000000000E+00  0.19908188072E+02  0.19908188235E+02  0.25500000000E-02 0. -1.
          2   -1    0    0  501    0  0.00000000000E+00 -0.00000000000E+00 -0.18233681808E+04  0.18233681808E+04  0.25500000000E-02 0.  1.
    5000001    1    1    2    0    0  0.34069171927E+01  0.87642680456E+02 -0.36137171013E+03  0.39295210828E+03  0.12700000000E+03 0.  0.
   -5000001    1    1    2    0    0 -0.34069171927E+01 -0.87642680456E+02 -0.14420882826E+04  0.14503242607E+04  0.12700000000E+03 0.  0.
<mgrwt>
<rscale>  0 0.38105095E+03</rscale>
<asrwt>0</asrwt>
<pdfrwt beam="1">  1        2 0.26048106E+00 0.38105095E+03</pdfrwt>
<pdfrwt beam="2">  1       -2 0.28440280E-02 0.38105095E+03</pdfrwt>
<totfact> 0.49486956E+03</totfact>
</mgrwt>
</event>
<event>
 4    1  0.1361667E-004  0.3626386E+03  0.7818608E-02  0.1057544E+00
         -2   -1    0    0    0  501 -0.00000000000E+00  0.00000000000E+00  0.80643598470E+02  0.80643598511E+02  0.25500000000E-02 0. -1.
          2   -1    0    0  501    0  0.00000000000E+00 -0.00000000000E+00 -0.40767884448E+03  0.40767884449E+03  0.25500000000E-02 0.  1.
    5000001    1    1    2    0    0  0.25919177629E+02  0.11946153420E+03 -0.22072479210E+03  0.28247353110E+03  0.12700000000E+03 0.  0.
   -5000001    1    1    2    0    0 -0.25919177629E+02 -0.11946153420E+03 -0.10631045391E+03  0.20584891190E+03  0.12700000000E+03 0.  0.
<mgrwt>
<rscale>  0 0.36263860E+03</rscale>
<asrwt>0</asrwt>
<pdfrwt beam="1">  1        2 0.58239834E-01 0.36263860E+03</pdfrwt>
<pdfrwt beam="2">  1       -2 0.11520514E-01 0.36263860E+03</pdfrwt>
<totfact> 0.45020229E+03</totfact>
</mgrwt>
</event>
<event>
 4    1  0.1361667E-004  0.7473888E+03  0.7818608E-02  0.9639456E-01
         -2   -1    0    0    0  501 -0.00000000000E+00  0.00000000000E+00  0.82689881379E+02  0.82689881419E+02  0.25500000000E-02 0. -1.
          2   -1    0    0  501    0  0.00000000000E+00 -0.00000000000E+00 -0.16888098540E+04  0.16888098540E+04  0.25500000000E-02 0.  1.
    5000001    1    1    2    0    0 -0.96995318883E+02 -0.33101714514E+03 -0.64338793721E+03  0.74098412939E+03  0.12700000000E+03 0.  0.
   -5000001    1    1    2    0    0  0.96995318883E+02  0.33101714514E+03 -0.96273203541E+03  0.10305156060E+04  0.12700000000E+03 0.  0.
<mgrwt>
<rscale>  0 0.74738875E+03</rscale>
<asrwt>0</asrwt>
<pdfrwt beam="1">  1        2 0.24125853E+00 0.74738875E+03</pdfrwt>
<pdfrwt beam="2">  1       -2 0.11812841E-01 0.74738875E+03</pdfrwt>
<totfact> 0.61530757E+02</totfact>
</mgrwt>
</event>
<event>
 4    1  0.1361667E-004  0.3420717E+03  0.7818608E-02  0.1065917E+00
         -2   -1    0    0    0  501 -0.00000000000E+00  0.00000000000E+00  0.70478594130E+01  0.70478598743E+01  0.25500000000E-02 0. -1.
          2   -1    0    0  501    0  0.00000000000E+00 -0.00000000000E+00 -0.41506593521E+04  0.41506593521E+04  0.25500000000E-02 0.  1.
    5000001    1    1    2    0    0 -0.11111227305E+03 -0.23659066748E+01 -0.17339350158E+04  0.17421283460E+04  0.12700000000E+03 0.  0.
   -5000001    1    1    2    0    0  0.11111227305E+03  0.23659066748E+01 -0.24096764768E+04  0.24155788660E+04  0.12700000000E+03 0.  0.
<mgrwt>
<rscale>  0 0.34207171E+03</rscale>
<asrwt>0</asrwt>
<pdfrwt beam="1">  1        2 0.59294977E+00 0.34207171E+03</pdfrwt>
<pdfrwt beam="2">  1       -2 0.10068397E-02 0.34207171E+03</pdfrwt>
<totfact> 0.11983085E+03</totfact>
</mgrwt>
</event>
<event>
 4    1  0.1361667E-004  0.4608240E+03  0.7818608E-02  0.1024543E+00
          2   -1    0    0  501    0  0.00000000000E+00  0.00000000000E+00  0.66583724786E+02  0.66583724835E+02  0.25500000000E-02 0.  1.
         -2   -1    0    0    0  501 -0.00000000000E+00 -0.00000000000E+00 -0.79733731999E+03  0.79733732000E+03  0.25500000000E-02 0. -1.
    5000001    1    1    2    0    0  0.69283838903E+02 -0.17033350381E+03 -0.47054462764E+03  0.52091745935E+03  0.12700000000E+03 0.  0.
   -5000001    1    1    2    0    0 -0.69283838903E+02  0.17033350381E+03 -0.26020896756E+03  0.34300358548E+03  0.12700000000E+03 0.  0.
<mgrwt>
<rscale>  0 0.46082400E+03</rscale>
<asrwt>0</asrwt>
<pdfrwt beam="1">  1        2 0.95119612E-02 0.46082400E+03</pdfrwt>
<pdfrwt beam="2">  1       -2 0.11390533E+00 0.46082400E+03</pdfrwt>
<totfact> 0.43208749E+02</totfact>
</mgrwt>
</event>
<event>
 4    1  0.1361667E-004  0.2829237E+03  0.7818608E-02  0.1094103E+00
         -2   -1    0    0    0  501 -0.00000000000E+00  0.00000000000E+00  0.93474036744E+02  0.93474036778E+02  0.25500000000E-02 0. -1.
          2   -1    0    0  501    0  0.00000000000E+00 -0.00000000000E+00 -0.21408573643E+03  0.21408573644E+03  0.25500000000E-02 0.  1.
    5000001    1    1    2    0    0 -0.16686587147E+02  0.50277918923E+02 -0.24644653762E+02  0.13979510106E+03  0.12700000000E+03 0.  0.
   -5000001    1    1    2    0    0  0.16686587147E+02 -0.50277918923E+02 -0.95967045922E+02  0.16776467216E+03  0.12700000000E+03 0.  0.
<mgrwt>
<rscale>  0 0.28292372E+03</rscale>
<asrwt>0</asrwt>
<pdfrwt beam="1">  1        2 0.30583676E-01 0.28292372E+03</pdfrwt>
<pdfrwt beam="2">  1       -2 0.13353434E-01 0.28292372E+03</pdfrwt>
<totfact> 0.70773810E+03</totfact>
</mgrwt>
</event>
<event>
 4    1  0.1361667E-004  0.4595644E+03  0.7818608E-02  0.1024908E+00
         -2   -1    0    0    0  501 -0.00000000000E+00  0.00000000000E+00  0.83778193178E+02  0.83778193216E+02  0.25500000000E-02 0. -1.
          2   -1    0    0  501    0  0.00000000000E+00 -0.00000000000E+00 -0.63023398572E+03  0.63023398573E+03  0.25500000000E-02 0.  1.
    5000001    1    1    2    0    0 -0.13569855170E+03 -0.12393338868E+03 -0.35685646570E+03  0.42100964226E+03  0.12700000000E+03 0.  0.
   -5000001    1    1    2    0    0  0.13569855170E+03  0.12393338868E+03 -0.18959932685E+03  0.29300253669E+03  0.12700000000E+03 0.  0.
<mgrwt>
<rscale>  0 0.45956442E+03</rscale>
<asrwt>0</asrwt>
<pdfrwt beam="1">  1        2 0.90033424E-01 0.45956442E+03</pdfrwt>
<pdfrwt beam="2">  1       -2 0.11968314E-01 0.45956442E+03</pdfrwt>
<totfact> 0.25976087E+03</totfact>
</mgrwt>
</event>
<event>
 4    1  0.1361667E-004  0.7054953E+03  0.7818608E-02  0.9707880E-01
          2   -1    0    0  501    0  0.00000000000E+00  0.00000000000E+00  0.12081357889E+04  0.12081357889E+04  0.25500000000E-02 0.  1.
         -2   -1    0    0    0  501 -0.00000000000E+00 -0.00000000000E+00 -0.10299413551E+03  0.10299413555E+03  0.25500000000E-02 0. -1.
    5000001    1    1    2    0    0  0.32074737997E+03  0.95309562471E+01  0.68827838100E+03  0.76995184956E+03  0.12700000000E+03 0.  0.
   -5000001    1    1    2    0    0 -0.32074737997E+03 -0.95309562471E+01  0.41686327241E+03  0.54117807491E+03  0.12700000000E+03 0.  0.
<mgrwt>
<rscale>  0 0.70549529E+03</rscale>
<asrwt>0</asrwt>
<pdfrwt beam="1">  1        2 0.17259083E+00 0.70549529E+03</pdfrwt>
<pdfrwt beam="2">  1       -2 0.14713448E-01 0.70549529E+03</pdfrwt>
<totfact> 0.77035534E+02</totfact>
</mgrwt>
</event>
<event>
 4    1  0.1361667E-004  0.3376227E+03  0.7818608E-02  0.1067813E+00
          2   -1    0    0  501    0  0.00000000000E+00  0.00000000000E+00  0.13966211640E+03  0.13966211643E+03  0.25500000000E-02 0.  1.
         -2   -1    0    0    0  501 -0.00000000000E+00 -0.00000000000E+00 -0.20404436010E+03  0.20404436011E+03  0.25500000000E-02 0. -1.
    5000001    1    1    2    0    0  0.26571454392E+02 -0.81502198431E+02 -0.10431704556E+03  0.18536368720E+03  0.12700000000E+03 0.  0.
   -5000001    1    1    2    0    0 -0.26571454392E+02  0.81502198431E+02  0.39934801863E+02  0.15834278934E+03  0.12700000000E+03 0.  0.
<mgrwt>
<rscale>  0 0.33762267E+03</rscale>
<asrwt>0</asrwt>
<pdfrwt beam="1">  1        2 0.19951731E-01 0.33762267E+03</pdfrwt>
<pdfrwt beam="2">  1       -2 0.29149194E-01 0.33762267E+03</pdfrwt>
<totfact> 0.30116871E+03</totfact>
</mgrwt>
</event>
<event>
 4    1  0.1361667E-004  0.1220805E+04  0.7818608E-02  0.9094838E-01
          2   -1    0    0  501    0  0.00000000000E+00  0.00000000000E+00  0.10495087737E+04  0.10495087737E+04  0.25500000000E-02 0.  1.
         -2   -1    0    0    0  501 -0.00000000000E+00 -0.00000000000E+00 -0.35501485145E+03  0.35501485146E+03  0.25500000000E-02 0. -1.
    5000001    1    1    2    0    0 -0.32213291171E+03 -0.24824601262E+03 -0.15564539712E+03  0.45359694138E+03  0.12700000000E+03 0.  0.
   -5000001    1    1    2    0    0  0.32213291171E+03  0.24824601262E+03  0.85013931938E+03  0.95092668379E+03  0.12700000000E+03 0.  0.
<mgrwt>
<rscale>  0 0.12208050E+04</rscale>
<asrwt>0</asrwt>
<pdfrwt beam="1">  1        2 0.14992982E+00 0.12208050E+04</pdfrwt>
<pdfrwt beam="2">  1       -2 0.50716408E-01 0.12208050E+04</pdfrwt>
<totfact> 0.94885514E+01</totfact>
</mgrwt>
</event>
<event>
 4    1  0.1361667E-004  0.5522714E+03  0.7818608E-02  0.1000970E+00
         -2   -1    0    0    0  501 -0.00000000000E+00  0.00000000000E+00  0.58167969350E+02  0.58167969406E+02  0.25500000000E-02 0. -1.
          2   -1    0    0  501    0  0.00000000000E+00 -0.00000000000E+00 -0.13108747732E+04  0.13108747732E+04  0.25500000000E-02 0.  1.
    5000001    1    1    2    0    0  0.72796200496E+02 -0.23101902070E+03 -0.72084097351E+03  0.77097975578E+03  0.12700000000E+03 0.  0.
   -5000001    1    1    2    0    0 -0.72796200496E+02  0.23101902070E+03 -0.53186583033E+03  0.59806298682E+03  0.12700000000E+03 0.  0.
<mgrwt>
<rscale>  0 0.55227140E+03</rscale>
<asrwt>0</asrwt>
<pdfrwt beam="1">  1        2 0.18726781E+00 0.55227140E+03</pdfrwt>
<pdfrwt beam="2">  1       -2 0.83097107E-02 0.55227140E+03</pdfrwt>
<totfact> 0.17314638E+03</totfact>
</mgrwt>
</event>
<event>
 4    1  0.1361667E-004  0.2878174E+03  0.7818608E-02  0.1091494E+00
          2   -1    0    0  501    0  0.00000000000E+00  0.00000000000E+00  0.16392696089E+04  0.16392696089E+04  0.25500000000E-02 0.  1.
         -2   -1    0    0    0  501 -0.00000000000E+00 -0.00000000000E+00 -0.12633497037E+02  0.12633497294E+02  0.25500000000E-02 0. -1.
    5000001    1    1    2    0    0 -0.27466622778E+02  0.47455347406E+02  0.10410421243E+04  0.10501924252E+04  0.12700000000E+03 0.  0.
   -5000001    1    1    2    0    0  0.27466622778E+02 -0.47455347406E+02  0.58559398757E+03  0.60171068101E+03  0.12700000000E+03 0.  0.
<mgrwt>
<rscale>  0 0.28781736E+03</rscale>
<asrwt>0</asrwt>
<pdfrwt beam="1">  1        2 0.23418134E+00 0.28781736E+03</pdfrwt>
<pdfrwt beam="2">  1       -2 0.18047856E-02 0.28781736E+03</pdfrwt>
<totfact> 0.11956801E+04</totfact>
</mgrwt>
</event>
<event>
 4    1  0.1361667E-004  0.3570691E+03  0.7818608E-02  0.1059750E+00
         -2   -1    0    0    0  501 -0.00000000000E+00  0.00000000000E+00  0.14651924097E+03  0.14651924100E+03  0.25500000000E-02 0. -1.
          2   -1    0    0  501    0  0.00000000000E+00 -0.00000000000E+00 -0.21754541106E+03  0.21754541108E+03  0.25500000000E-02 0.  1.
    5000001    1    1    2    0    0 -0.10503799760E+01  0.10028008768E+03 -0.11241211791E+03  0.19703472673E+03  0.12700000000E+03 0.  0.
   -5000001    1    1    2    0    0  0.10503799760E+01 -0.10028008768E+03  0.41385947825E+02  0.16702992534E+03  0.12700000000E+03 0.  0.
<mgrwt>
<rscale>  0 0.35706912E+03</rscale>
<asrwt>0</asrwt>
<pdfrwt beam="1">  1        2 0.31077916E-01 0.35706912E+03</pdfrwt>
<pdfrwt beam="2">  1       -2 0.20931320E-01 0.35706912E+03</pdfrwt>
<totfact> 0.32911701E+03</totfact>
</mgrwt>
</event>
<event>
 4    1  0.1361667E-004  0.3543462E+03  0.7818608E-02  0.1060845E+00
          2   -1    0    0  501    0  0.00000000000E+00  0.00000000000E+00  0.17569286205E+04  0.17569286205E+04  0.25500000000E-02 0.  1.
         -2   -1    0    0    0  501 -0.00000000000E+00 -0.00000000000E+00 -0.17866579459E+02  0.17866579641E+02  0.25500000000E-02 0. -1.
    5000001    1    1    2    0    0 -0.76124597568E+02  0.97278252502E+02  0.87861892031E+03  0.89630252699E+03  0.12700000000E+03 0.  0.
   -5000001    1    1    2    0    0  0.76124597568E+02 -0.97278252502E+02  0.86044312071E+03  0.87849267313E+03  0.12700000000E+03 0.  0.
<mgrwt>
<rscale>  0 0.35434619E+03</rscale>
<asrwt>0</asrwt>
<pdfrwt beam="1">  1        2 0.25098982E+00 0.35434619E+03</pdfrwt>
<pdfrwt beam="2">  1       -2 0.25523683E-02 0.35434619E+03</pdfrwt>
<totfact> 0.62754045E+03</totfact>
</mgrwt>
</event>
<event>
 4    1  0.1361667E-004  0.5226263E+03  0.7818608E-02  0.1008036E+00
         -2   -1    0    0    0  501 -0.00000000000E+00  0.00000000000E+00  0.31205257837E+02  0.31205257942E+02  0.25500000000E-02 0. -1.
          2   -1    0    0  501    0  0.00000000000E+00 -0.00000000000E+00 -0.21882392385E+04  0.21882392385E+04  0.25500000000E-02 0.  1.
    5000001    1    1    2    0    0 -0.20773243761E+03  0.88055933626E+02 -0.12285983282E+04  0.12555833167E+04  0.12700000000E+03 0.  0.
   -5000001    1    1    2    0    0  0.20773243761E+03 -0.88055933626E+02 -0.92843565245E+03  0.96386117975E+03  0.12700000000E+03 0.  0.
<mgrwt>
<rscale>  0 0.52262633E+03</rscale>
<asrwt>0</asrwt>
<pdfrwt beam="1">  1        2 0.31260551E+00 0.52262633E+03</pdfrwt>
<pdfrwt beam="2">  1       -2 0.44578954E-02 0.52262633E+03</pdfrwt>
<totfact> 0.16392929E+03</totfact>
</mgrwt>
</event>
<event>
 4    1  0.1361667E-004  0.3027019E+03  0.7818608E-02  0.1083898E+00
         -2   -1    0    0    0  501 -0.00000000000E+00  0.00000000000E+00  0.15176043589E+02  0.15176043803E+02  0.25500000000E-02 0. -1.
          2   -1    0    0  501    0  0.00000000000E+00 -0.00000000000E+00 -0.15094254055E+04  0.15094254056E+04  0.25500000000E-02 0.  1.
    5000001    1    1    2    0    0  0.49607804799E+02  0.58168110558E+02 -0.59322719182E+03  0.61146705921E+03  0.12700000000E+03 0.  0.
   -5000001    1    1    2    0    0 -0.49607804799E+02 -0.58168110558E+02 -0.90102217014E+03  0.91313439014E+03  0.12700000000E+03 0.  0.
<mgrwt>
<rscale>  0 0.30270187E+03</rscale>
<asrwt>0</asrwt>
<pdfrwt beam="1">  1        2 0.21563210E+00 0.30270187E+03</pdfrwt>
<pdfrwt beam="2">  1       -2 0.21680072E-02 0.30270187E+03</pdfrwt>
<totfact> 0.10612265E+04</totfact>
</mgrwt>
</event>
<event>
 4    1  0.1361667E-004  0.3795609E+03  0.7818608E-02  0.1051096E+00
          2   -1    0    0  501    0  0.00000000000E+00  0.00000000000E+00  0.56893882096E+02  0.56893882153E+02  0.25500000000E-02 0.  1.
         -2   -1    0    0    0  501 -0.00000000000E+00 -0.00000000000E+00 -0.63304901958E+03  0.63304901959E+03  0.25500000000E-02 0. -1.
    5000001    1    1    2    0    0 -0.12789327188E+02  0.12272129261E+03 -0.16394399383E+03  0.24131041350E+03  0.12700000000E+03 0.  0.
   -5000001    1    1    2    0    0  0.12789327188E+02 -0.12272129261E+03 -0.41221114365E+03  0.44863248824E+03  0.12700000000E+03 0.  0.
<mgrwt>
<rscale>  0 0.37956088E+03</rscale>
<asrwt>0</asrwt>
<pdfrwt beam="1">  1        2 0.81276978E-02 0.37956088E+03</pdfrwt>
<pdfrwt beam="2">  1       -2 0.90435570E-01 0.37956088E+03</pdfrwt>
<totfact> 0.90751135E+02</totfact>
</mgrwt>
</event>
<event>
 4    1  0.1361667E-004  0.4400245E+03  0.7818608E-02  0.1030739E+00
         -2   -1    0    0    0  501 -0.00000000000E+00  0.00000000000E+00  0.12377125184E+03  0.12377125187E+03  0.25500000000E-02 0. -1.
          2   -1    0    0  501    0  0.00000000000E+00 -0.00000000000E+00 -0.39108752985E+03  0.39108752986E+03  0.25500000000E-02 0.  1.
    5000001    1    1    2    0    0 -0.68868688959E+02 -0.15041154816E+03 -0.51670960469E+02  0.21486139322E+03  0.12700000000E+03 0.  0.
   -5000001    1    1    2    0    0  0.68868688959E+02  0.15041154816E+03 -0.21564531754E+03  0.29999738852E+03  0.12700000000E+03 0.  0.
<mgrwt>
<rscale>  0 0.44002451E+03</rscale>
<asrwt>0</asrwt>
<pdfrwt beam="1">  1        2 0.55869646E-01 0.44002451E+03</pdfrwt>
<pdfrwt beam="2">  1       -2 0.17681608E-01 0.44002451E+03</pdfrwt>
<totfact> 0.23222260E+03</totfact>
</mgrwt>
</event>
<event>
 4    1  0.1361667E-004  0.2962720E+03  0.7818608E-02  0.1087119E+00
         -2   -1    0    0    0  501 -0.00000000000E+00  0.00000000000E+00  0.91951769999E+03  0.91951769999E+03  0.25500000000E-02 0. -1.
          2   -1    0    0  501    0  0.00000000000E+00 -0.00000000000E+00 -0.23864981857E+02  0.23864981993E+02  0.25500000000E-02 0.  1.
    5000001    1    1    2    0    0  0.66384635515E+02  0.14860037918E+02  0.33809769367E+03  0.36751434125E+03  0.12700000000E+03 0.  0.
   -5000001    1    1    2    0    0 -0.66384635515E+02 -0.14860037918E+02  0.55755502447E+03  0.57586834074E+03  0.12700000000E+03 0.  0.
<mgrwt>
<rscale>  0 0.29627199E+03</rscale>
<asrwt>0</asrwt>
<pdfrwt beam="1">  1        2 0.34092831E-02 0.29627199E+03</pdfrwt>
<pdfrwt beam="2">  1       -2 0.13135967E+00 0.29627199E+03</pdfrwt>
<totfact> 0.11726356E+03</totfact>
</mgrwt>
</event>
<event>
 4    1  0.1361667E-004  0.5925784E+03  0.7818608E-02  0.9920924E-01
         -2   -1    0    0    0  501 -0.00000000000E+00  0.00000000000E+00  0.12563881973E+03  0.12563881976E+03  0.25500000000E-02 0.  1.
          2   -1    0    0  501    0  0.00000000000E+00 -0.00000000000E+00 -0.69872748127E+03  0.69872748127E+03  0.25500000000E-02 0. -1.
    5000001    1    1    2    0    0  0.92864694977E+02  0.25099772012E+03 -0.27836263456E+03  0.40649534241E+03  0.12700000000E+03 0.  0.
   -5000001    1    1    2    0    0 -0.92864694977E+02 -0.25099772012E+03 -0.29472602698E+03  0.41787095862E+03  0.12700000000E+03 0.  0.
<mgrwt>
<rscale>  0 0.59257842E+03</rscale>
<asrwt>0</asrwt>
<pdfrwt beam="1">  1        2 0.99818209E-01 0.59257842E+03</pdfrwt>
<pdfrwt beam="2">  1       -2 0.17948403E-01 0.59257842E+03</pdfrwt>
<totfact> 0.11643629E+03</totfact>
</mgrwt>
</event>
<event>
 4    1  0.1361667E-004  0.8462627E+03  0.7818608E-02  0.9495367E-01
         -2   -1    0    0    0  501 -0.00000000000E+00  0.00000000000E+00  0.12893970513E+04  0.12893970513E+04  0.25500000000E-02 0. -1.
          2   -1    0    0  501    0  0.00000000000E+00 -0.00000000000E+00 -0.13885570746E+03  0.13885570749E+03  0.25500000000E-02 0.  1.
    5000001    1    1    2    0    0  0.15227533787E+02 -0.12803642879E+03 -0.70236627445E+02  0.19413239997E+03  0.12700000000E+03 0.  0.
   -5000001    1    1    2    0    0 -0.15227533787E+02  0.12803642879E+03  0.12207779713E+04  0.12341203588E+04  0.12700000000E+03 0.  0.
<mgrwt>
<rscale>  0 0.84626270E+03</rscale>
<asrwt>0</asrwt>
<pdfrwt beam="1">  1        2 0.19836531E-01 0.84626270E+03</pdfrwt>
<pdfrwt beam="2">  1       -2 0.18419957E+00 0.84626270E+03</pdfrwt>
<totfact> 0.49141069E+01</totfact>
</mgrwt>
</event>
<event>
 4    1  0.1361667E-004  0.4169558E+03  0.7818608E-02  0.1038062E+00
         -2   -1    0    0    0  501 -0.00000000000E+00  0.00000000000E+00  0.17016509095E+02  0.17016509286E+02  0.25500000000E-02 0. -1.
          2   -1    0    0  501    0  0.00000000000E+00 -0.00000000000E+00 -0.25541683163E+04  0.25541683163E+04  0.25500000000E-02 0.  1.
    5000001    1    1    2    0    0  0.84673403417E+02 -0.14174782508E+03 -0.13209000226E+04  0.13372239531E+04  0.12700000000E+03 0.  0.
   -5000001    1    1    2    0    0 -0.84673403417E+02  0.14174782508E+03 -0.12162517846E+04  0.12339608725E+04  0.12700000000E+03 0.  0.
<mgrwt>
<rscale>  0 0.41695577E+03</rscale>
<asrwt>0</asrwt>
<pdfrwt beam="1">  1        2 0.36488094E+00 0.41695577E+03</pdfrwt>
<pdfrwt beam="2">  1       -2 0.24309315E-02 0.41695577E+03</pdfrwt>
<totfact> 0.27037811E+03</totfact>
</mgrwt>
</event>
<event>
 4    1  0.1361667E-004  0.6268243E+03  0.7818608E-02  0.9851266E-01
          2   -1    0    0  501    0  0.00000000000E+00  0.00000000000E+00  0.81733595133E+03  0.81733595134E+03  0.25500000000E-02 0.  1.
         -2   -1    0    0    0  501 -0.00000000000E+00 -0.00000000000E+00 -0.12017969922E+03  0.12017969924E+03  0.25500000000E-02 0. -1.
    5000001    1    1    2    0    0  0.18829391252E+03  0.75576857444E+02  0.45982446253E+02  0.24374134700E+03  0.12700000000E+03 0.  0.
   -5000001    1    1    2    0    0 -0.18829391252E+03 -0.75576857444E+02  0.65117380586E+03  0.69377430359E+03  0.12700000000E+03 0.  0.
<mgrwt>
<rscale>  0 0.62682434E+03</rscale>
<asrwt>0</asrwt>
<pdfrwt beam="1">  1        2 0.11676228E+00 0.62682434E+03</pdfrwt>
<pdfrwt beam="2">  1       -2 0.17168528E-01 0.62682434E+03</pdfrwt>
<totfact> 0.10315054E+03</totfact>
</mgrwt>
</event>
<event>
 4    1  0.1361667E-004  0.5162560E+03  0.7818608E-02  0.1009621E+00
          2   -1    0    0  501    0  0.00000000000E+00  0.00000000000E+00  0.12473062523E+04  0.12473062523E+04  0.25500000000E-02 0.  1.
         -2   -1    0    0    0  501 -0.00000000000E+00 -0.00000000000E+00 -0.53419169191E+02  0.53419169251E+02  0.25500000000E-02 0. -1.
    5000001    1    1    2    0    0  0.82067183290E+01  0.19588903600E+03  0.87364774830E+03  0.90433912487E+03  0.12700000000E+03 0.  0.
   -5000001    1    1    2    0    0 -0.82067183290E+01 -0.19588903600E+03  0.32023933484E+03  0.39638629672E+03  0.12700000000E+03 0.  0.
<mgrwt>
<rscale>  0 0.51625600E+03</rscale>
<asrwt>0</asrwt>
<pdfrwt beam="1">  1        2 0.17818659E+00 0.51625600E+03</pdfrwt>
<pdfrwt beam="2">  1       -2 0.76313107E-02 0.51625600E+03</pdfrwt>
<totfact> 0.21483728E+03</totfact>
</mgrwt>
</event>
<event>
 4    1  0.1361667E-004  0.3580954E+03  0.7818608E-02  0.1059341E+00
         -2   -1    0    0    0  501 -0.00000000000E+00  0.00000000000E+00  0.11763496344E+02  0.11763496620E+02  0.25500000000E-02 0. -1.
          2   -1    0    0  501    0  0.00000000000E+00 -0.00000000000E+00 -0.27252162431E+04  0.27252162431E+04  0.25500000000E-02 0.  1.
    5000001    1    1    2    0    0  0.35275041641E+02 -0.10700554447E+03 -0.92203575690E+03  0.93753584044E+03  0.12700000000E+03 0.  0.
   -5000001    1    1    2    0    0 -0.35275041641E+02  0.10700554447E+03 -0.17914169898E+04  0.17994438993E+04  0.12700000000E+03 0.  0.
<mgrwt>
<rscale>  0 0.35809536E+03</rscale>
<asrwt>0</asrwt>
<pdfrwt beam="1">  1        2 0.38931620E+00 0.35809536E+03</pdfrwt>
<pdfrwt beam="2">  1       -2 0.16805012E-02 0.35809536E+03</pdfrwt>
<totfact> 0.38378316E+03</totfact>
</mgrwt>
</event>
<event>
 4    1  0.1361667E-004  0.3716383E+03  0.7818608E-02  0.1054068E+00
          2   -1    0    0  501    0  0.00000000000E+00  0.00000000000E+00  0.12329935189E+04  0.12329935189E+04  0.25500000000E-02 0.  1.
         -2   -1    0    0    0  501 -0.00000000000E+00 -0.00000000000E+00 -0.28004003695E+02  0.28004003811E+02  0.25500000000E-02 0. -1.
    5000001    1    1    2    0    0  0.80766481402E+02  0.67395543823E+01  0.23342666071E+03  0.27782305887E+03  0.12700000000E+03 0.  0.
   -5000001    1    1    2    0    0 -0.80766481402E+02 -0.67395543823E+01  0.97156285451E+03  0.98317446385E+03  0.12700000000E+03 0.  0.
<mgrwt>
<rscale>  0 0.37163829E+03</rscale>
<asrwt>0</asrwt>
<pdfrwt beam="1">  1        2 0.17614201E+00 0.37163829E+03</pdfrwt>
<pdfrwt beam="2">  1       -2 0.40005701E-02 0.37163829E+03</pdfrwt>
<totfact> 0.59394606E+03</totfact>
</mgrwt>
</event>
<event>
 4    1  0.1361667E-004  0.5046818E+03  0.7818608E-02  0.1012564E+00
         -2   -1    0    0    0  501 -0.00000000000E+00  0.00000000000E+00  0.33053795933E+02  0.33053796031E+02  0.25500000000E-02 0. -1.
          2   -1    0    0  501    0  0.00000000000E+00 -0.00000000000E+00 -0.19264334835E+04  0.19264334835E+04  0.25500000000E-02 0.  1.
    5000001    1    1    2    0    0  0.13260927515E+03  0.13994869977E+03 -0.13421852538E+04  0.13618961466E+04  0.12700000000E+03 0.  0.
   -5000001    1    1    2    0    0 -0.13260927515E+03 -0.13994869977E+03 -0.55119443375E+03  0.59759113298E+03  0.12700000000E+03 0.  0.
<mgrwt>
<rscale>  0 0.50468184E+03</rscale>
<asrwt>0</asrwt>
<pdfrwt beam="1">  1        2 0.27520471E+00 0.50468184E+03</pdfrwt>
<pdfrwt beam="2">  1       -2 0.47219721E-02 0.50468184E+03</pdfrwt>
<totfact> 0.20294082E+03</totfact>
</mgrwt>
</event>
<event>
 4    1  0.1361667E-004  0.8975369E+03  0.7818608E-02  0.9428666E-01
         -2   -1    0    0    0  501 -0.00000000000E+00  0.00000000000E+00  0.18015966688E+03  0.18015966690E+03  0.25500000000E-02 0. -1.
          2   -1    0    0  501    0  0.00000000000E+00 -0.00000000000E+00 -0.11178591095E+04  0.11178591095E+04  0.25500000000E-02 0.  1.
    5000001    1    1    2    0    0  0.21155324548E+03 -0.32781545661E+03 -0.73174971507E+03  0.83893050652E+03  0.12700000000E+03 0.  0.
   -5000001    1    1    2    0    0 -0.21155324548E+03  0.32781545661E+03 -0.20594972754E+03  0.45908826988E+03  0.12700000000E+03 0.  0.
<mgrwt>
<rscale>  0 0.89753691E+03</rscale>
<asrwt>0</asrwt>
<pdfrwt beam="1">  1        2 0.15969416E+00 0.89753691E+03</pdfrwt>
<pdfrwt beam="2">  1       -2 0.25737096E-01 0.89753691E+03</pdfrwt>
<totfact> 0.32419366E+02</totfact>
</mgrwt>
</event>
<event>
 4    1  0.1361667E-004  0.3008566E+03  0.7818608E-02  0.1084813E+00
          2   -1    0    0  501    0  0.00000000000E+00  0.00000000000E+00  0.19497909237E+04  0.19497909237E+04  0.25500000000E-02 0.  1.
         -2   -1    0    0    0  501 -0.00000000000E+00 -0.00000000000E+00 -0.11605688457E+02  0.11605688737E+02  0.25500000000E-02 0. -1.
    5000001    1    1    2    0    0  0.76355234069E+02  0.13753854874E+02  0.82620434159E+03  0.83950098532E+03  0.12700000000E+03 0.  0.
   -5000001    1    1    2    0    0 -0.76355234069E+02 -0.13753854874E+02  0.11119808937E+04  0.11218956271E+04  0.12700000000E+03 0.  0.
<mgrwt>
<rscale>  0 0.30085655E+03</rscale>
<asrwt>0</asrwt>
<pdfrwt beam="1">  1        2 0.27854125E+00 0.30085655E+03</pdfrwt>
<pdfrwt beam="2">  1       -2 0.16579574E-02 0.30085655E+03</pdfrwt>
<totfact> 0.95359120E+03</totfact>
</mgrwt>
</event>
<event>
 4    1  0.1361667E-004  0.3752069E+03  0.7818608E-02  0.1052720E+00
         -2   -1    0    0    0  501 -0.00000000000E+00  0.00000000000E+00  0.10004998236E+03  0.10004998239E+03  0.25500000000E-02 0. -1.
          2   -1    0    0  501    0  0.00000000000E+00 -0.00000000000E+00 -0.35177475680E+03  0.35177475681E+03  0.25500000000E-02 0.  1.
    5000001    1    1    2    0    0  0.91041046411E+02 -0.54277766050E+02 -0.23242918748E+03  0.28528385024E+03  0.12700000000E+03 0.  0.
   -5000001    1    1    2    0    0 -0.91041046411E+02  0.54277766050E+02 -0.19295586963E+02  0.16654088896E+03  0.12700000000E+03 0.  0.
<mgrwt>
<rscale>  0 0.37520692E+03</rscale>
<asrwt>0</asrwt>
<pdfrwt beam="1">  1        2 0.50253536E-01 0.37520692E+03</pdfrwt>
<pdfrwt beam="2">  1       -2 0.14292855E-01 0.37520692E+03</pdfrwt>
<totfact> 0.37176063E+03</totfact>
</mgrwt>
</event>
<event>
 4    1  0.1361667E-004  0.3337567E+03  0.7818608E-02  0.1069487E+00
          2   -1    0    0  501    0  0.00000000000E+00  0.00000000000E+00  0.81416008238E+03  0.81416008238E+03  0.25500000000E-02 0.  1.
         -2   -1    0    0    0  501 -0.00000000000E+00 -0.00000000000E+00 -0.34205039565E+02  0.34205039660E+02  0.25500000000E-02 0. -1.
    5000001    1    1    2    0    0 -0.57206432926E+01 -0.10475368647E+03  0.32208933116E+03  0.36176870766E+03  0.12700000000E+03 0.  0.
   -5000001    1    1    2    0    0  0.57206432926E+01  0.10475368647E+03  0.45786571165E+03  0.48659641438E+03  0.12700000000E+03 0.  0.
<mgrwt>
<rscale>  0 0.33375667E+03</rscale>
<asrwt>0</asrwt>
<pdfrwt beam="1">  1        2 0.11630857E+00 0.33375667E+03</pdfrwt>
<pdfrwt beam="2">  1       -2 0.48864348E-02 0.33375667E+03</pdfrwt>
<totfact> 0.77619281E+03</totfact>
</mgrwt>
</event>
<event>
 4    1  0.1361667E-004  0.4133328E+03  0.7818608E-02  0.1039258E+00
         -2   -1    0    0    0  501 -0.00000000000E+00  0.00000000000E+00  0.49966434452E+02  0.49966434517E+02  0.25500000000E-02 0. -1.
          2   -1    0    0  501    0  0.00000000000E+00 -0.00000000000E+00 -0.85479397544E+03  0.85479397544E+03  0.25500000000E-02 0.  1.
    5000001    1    1    2    0    0  0.11098230400E+03  0.11833764350E+03 -0.36704106223E+03  0.42091449373E+03  0.12700000000E+03 0.  0.
   -5000001    1    1    2    0    0 -0.11098230400E+03 -0.11833764350E+03 -0.43778647875E+03  0.48384591622E+03  0.12700000000E+03 0.  0.
<mgrwt>
<rscale>  0 0.41333283E+03</rscale>
<asrwt>0</asrwt>
<pdfrwt beam="1">  1        2 0.12211342E+00 0.41333283E+03</pdfrwt>
<pdfrwt beam="2">  1       -2 0.71380626E-02 0.41333283E+03</pdfrwt>
<totfact> 0.40774678E+03</totfact>
</mgrwt>
</event>
<event>
 4    1  0.1361667E-004  0.4646856E+03  0.7818608E-02  0.1023431E+00
         -2   -1    0    0    0  501 -0.00000000000E+00  0.00000000000E+00  0.48720491047E+02  0.48720491113E+02  0.25500000000E-02 0. -1.
          2   -1    0    0  501    0  0.00000000000E+00 -0.00000000000E+00 -0.11080179861E+04  0.11080179861E+04  0.25500000000E-02 0.  1.
    5000001    1    1    2    0    0  0.20970855116E+02  0.19320808959E+03 -0.50669350626E+03  0.55734769393E+03  0.12700000000E+03 0.  0.
   -5000001    1    1    2    0    0 -0.20970855116E+02 -0.19320808959E+03 -0.55260398876E+03  0.59939078325E+03  0.12700000000E+03 0.  0.
<mgrwt>
<rscale>  0 0.46468562E+03</rscale>
<asrwt>0</asrwt>
<pdfrwt beam="1">  1        2 0.15828827E+00 0.46468562E+03</pdfrwt>
<pdfrwt beam="2">  1       -2 0.69600708E-02 0.46468562E+03</pdfrwt>
<totfact> 0.29743505E+03</totfact>
</mgrwt>
</event>
<event>
 4    1  0.1361667E-004  0.2776619E+03  0.7818608E-02  0.1096973E+00
          2   -1    0    0  501    0  0.00000000000E+00  0.00000000000E+00  0.43646820927E+03  0.43646820927E+03  0.25500000000E-02 0.  1.
         -2   -1    0    0    0  501 -0.00000000000E+00 -0.00000000000E+00 -0.44159064022E+02  0.44159064096E+02  0.25500000000E-02 0. -1.
    5000001    1    1    2    0    0 -0.53343821241E+02  0.17235732050E+02  0.19883278175E+03  0.24249970891E+03  0.12700000000E+03 0.  0.
   -5000001    1    1    2    0    0  0.53343821241E+02 -0.17235732050E+02  0.19347636349E+03  0.23812756446E+03  0.12700000000E+03 0.  0.
<mgrwt>
<rscale>  0 0.27766186E+03</rscale>
<asrwt>0</asrwt>
<pdfrwt beam="1">  1        2 0.62352606E-01 0.27766186E+03</pdfrwt>
<pdfrwt beam="2">  1       -2 0.63084372E-02 0.27766186E+03</pdfrwt>
<totfact> 0.10708930E+04</totfact>
</mgrwt>
</event>
<event>
 4    1  0.1361667E-004  0.2972519E+03  0.7818608E-02  0.1086622E+00
         -2   -1    0    0    0  501 -0.00000000000E+00  0.00000000000E+00  0.12013701383E+02  0.12013701654E+02  0.25500000000E-02 0. -1.
          2   -1    0    0  501    0  0.00000000000E+00 -0.00000000000E+00 -0.18387071564E+04  0.18387071564E+04  0.25500000000E-02 0.  1.
    5000001    1    1    2    0    0 -0.51533926029E+02 -0.57400099629E+02 -0.89349923618E+03  0.90577061225E+03  0.12700000000E+03 0.  0.
   -5000001    1    1    2    0    0  0.51533926029E+02  0.57400099629E+02 -0.93319421886E+03  0.94495024582E+03  0.12700000000E+03 0.  0.
<mgrwt>
<rscale>  0 0.29725194E+03</rscale>
<asrwt>0</asrwt>
<pdfrwt beam="1">  1        2 0.26267227E+00 0.29725194E+03</pdfrwt>
<pdfrwt beam="2">  1       -2 0.17162442E-02 0.29725194E+03</pdfrwt>
<totfact> 0.10271670E+04</totfact>
</mgrwt>
</event>
<event>
 4    1  0.1361667E-004  0.8193582E+03  0.7818608E-02  0.9532412E-01
          2   -1    0    0  501    0  0.00000000000E+00  0.00000000000E+00  0.10026692990E+04  0.10026692990E+04  0.25500000000E-02 0.  1.
         -2   -1    0    0    0  501 -0.00000000000E+00 -0.00000000000E+00 -0.16739013512E+03  0.16739013514E+03  0.25500000000E-02 0. -1.
    5000001    1    1    2    0    0  0.51349871135E+02 -0.33844052441E+03  0.15228469375E+03  0.39559881924E+03  0.12700000000E+03 0.  0.
   -5000001    1    1    2    0    0 -0.51349871135E+02  0.33844052441E+03  0.68299447014E+03  0.77446061493E+03  0.12700000000E+03 0.  0.
<mgrwt>
<rscale>  0 0.81935816E+03</rscale>
<asrwt>0</asrwt>
<pdfrwt beam="1">  1        2 0.14323847E+00 0.81935816E+03</pdfrwt>
<pdfrwt beam="2">  1       -2 0.23912876E-01 0.81935816E+03</pdfrwt>
<totfact> 0.43545475E+02</totfact>
</mgrwt>
</event>
<event>
 4    1  0.1361667E-004  0.3681675E+03  0.7818608E-02  0.1055396E+00
         -2   -1    0    0    0  501 -0.00000000000E+00  0.00000000000E+00  0.34477905555E+02  0.34477905649E+02  0.25500000000E-02 0. -1.
          2   -1    0    0  501    0  0.00000000000E+00 -0.00000000000E+00 -0.98285604431E+03  0.98285604431E+03  0.25500000000E-02 0.  1.
    5000001    1    1    2    0    0 -0.12392895038E+03 -0.22587681332E+02 -0.59429391921E+03  0.62063100994E+03  0.12700000000E+03 0.  0.
   -5000001    1    1    2    0    0  0.12392895038E+03  0.22587681332E+02 -0.35408421954E+03  0.39670294002E+03  0.12700000000E+03 0.  0.
<mgrwt>
<rscale>  0 0.36816745E+03</rscale>
<asrwt>0</asrwt>
<pdfrwt beam="1">  1        2 0.14040799E+00 0.36816745E+03</pdfrwt>
<pdfrwt beam="2">  1       -2 0.49254157E-02 0.36816745E+03</pdfrwt>
<totfact> 0.60076176E+03</totfact>
</mgrwt>
</event>
<event>
 4    1  0.1361667E-004  0.5761581E+03  0.7818608E-02  0.9956143E-01
         -2   -1    0    0    0  501 -0.00000000000E+00  0.00000000000E+00  0.10952643794E+03  0.10952643797E+03  0.25500000000E-02 0. -1.
          2   -1    0    0  501    0  0.00000000000E+00 -0.00000000000E+00 -0.75771237462E+03  0.75771237463E+03  0.25500000000E-02 0.  1.
    5000001    1    1    2    0    0 -0.18831697184E+03  0.47984501322E+02 -0.67346604074E+02  0.24172372521E+03  0.12700000000E+03 0.  0.
   -5000001    1    1    2    0    0  0.18831697184E+03 -0.47984501322E+02 -0.58083933261E+03  0.62551508739E+03  0.12700000000E+03 0.  0.
<mgrwt>
<rscale>  0 0.57615809E+03</rscale>
<asrwt>0</asrwt>
<pdfrwt beam="1">  1        2 0.10824462E+00 0.57615809E+03</pdfrwt>
<pdfrwt beam="2">  1       -2 0.15646634E-01 0.57615809E+03</pdfrwt>
<totfact> 0.13308927E+03</totfact>
</mgrwt>
</event>
<event>
 4    1  0.1361667E-004  0.3727949E+03  0.7818608E-02  0.1053629E+00
         -2   -1    0    0    0  501 -0.00000000000E+00  0.00000000000E+00  0.16011725838E+03  0.16011725840E+03  0.25500000000E-02 0. -1.
          2   -1    0    0  501    0  0.00000000000E+00 -0.00000000000E+00 -0.21699097812E+03  0.21699097813E+03  0.25500000000E-02 0.  1.
    5000001    1    1    2    0    0  0.61354035144E+02 -0.49803326253E+02  0.84071924001E+02  0.17158606394E+03  0.12700000000E+03 0.  0.
   -5000001    1    1    2    0    0 -0.61354035144E+02  0.49803326253E+02 -0.14094564374E+03  0.20552217258E+03  0.12700000000E+03 0.  0.
<mgrwt>
<rscale>  0 0.37279485E+03</rscale>
<asrwt>0</asrwt>
<pdfrwt beam="1">  1        2 0.30998711E-01 0.37279485E+03</pdfrwt>
<pdfrwt beam="2">  1       -2 0.22873894E-01 0.37279485E+03</pdfrwt>
<totfact> 0.28299682E+03</totfact>
</mgrwt>
</event>
<event>
 4    1  0.1361667E-004  0.4701125E+03  0.7818608E-02  0.1021888E+00
          2   -1    0    0  501    0  0.00000000000E+00  0.00000000000E+00  0.17283903171E+04  0.17283903171E+04  0.25500000000E-02 0.  1.
         -2   -1    0    0    0  501 -0.00000000000E+00 -0.00000000000E+00 -0.31966992185E+02  0.31966992287E+02  0.25500000000E-02 0. -1.
    5000001    1    1    2    0    0 -0.16473684749E+03 -0.28374268645E+02  0.45229600069E+03  0.49864215654E+03  0.12700000000E+03 0.  0.
   -5000001    1    1    2    0    0  0.16473684749E+03  0.28374268645E+02  0.12441273242E+04  0.12617151528E+04  0.12700000000E+03 0.  0.
<mgrwt>
<rscale>  0 0.47011250E+03</rscale>
<asrwt>0</asrwt>
<pdfrwt beam="1">  1        2 0.24691291E+00 0.47011250E+03</pdfrwt>
<pdfrwt beam="2">  1       -2 0.45667131E-02 0.47011250E+03</pdfrwt>
<totfact> 0.26875476E+03</totfact>
</mgrwt>
</event>
<event>
 4    1  0.1361667E-004  0.3115328E+03  0.7818608E-02  0.1079613E+00
         -2   -1    0    0    0  501 -0.00000000000E+00  0.00000000000E+00  0.14300683599E+02  0.14300683826E+02  0.25500000000E-02 0. -1.
          2   -1    0    0  501    0  0.00000000000E+00 -0.00000000000E+00 -0.16966445448E+04  0.16966445448E+04  0.25500000000E-02 0.  1.
    5000001    1    1    2    0    0 -0.64354549347E+02  0.94736663976E+01 -0.11842769146E+04  0.11928420133E+04  0.12700000000E+03 0.  0.
   -5000001    1    1    2    0    0  0.64354549347E+02 -0.94736663976E+01 -0.49806694661E+03  0.51810321528E+03  0.12700000000E+03 0.  0.
<mgrwt>
<rscale>  0 0.31153284E+03</rscale>
<asrwt>0</asrwt>
<pdfrwt beam="1">  1        2 0.24237766E+00 0.31153284E+03</pdfrwt>
<pdfrwt beam="2">  1       -2 0.20429559E-02 0.31153284E+03</pdfrwt>
<totfact> 0.93428292E+03</totfact>
</mgrwt>
</event>
<event>
 4    1  0.1361667E-004  0.4244011E+03  0.7818608E-02  0.1035643E+00
          2   -1    0    0  501    0  0.00000000000E+00  0.00000000000E+00  0.11776846437E+02  0.11776846713E+02  0.25500000000E-02 0. -1.
         -2   -1    0    0    0  501 -0.00000000000E+00 -0.00000000000E+00 -0.38235250335E+04  0.38235250335E+04  0.25500000000E-02 0.  1.
    5000001    1    1    2    0    0  0.79719878298E+02 -0.12066006816E+03 -0.27134559520E+04  0.27202732059E+04  0.12700000000E+03 0.  0.
   -5000001    1    1    2    0    0 -0.79719878298E+02  0.12066006816E+03 -0.10982922351E+04  0.11150286744E+04  0.12700000000E+03 0.  0.
<mgrwt>
<rscale>  0 0.42440107E+03</rscale>
<asrwt>0</asrwt>
<pdfrwt beam="1">  1        2 0.16824091E-02 0.42440107E+03</pdfrwt>
<pdfrwt beam="2">  1       -2 0.54621707E+00 0.42440107E+03</pdfrwt>
<totfact> 0.72609083E+00</totfact>
</mgrwt>
</event>
<event>
 4    1  0.1361667E-004  0.4432959E+03  0.7818608E-02  0.1029740E+00
          2   -1    0    0  501    0  0.00000000000E+00  0.00000000000E+00  0.66013756178E+03  0.66013756178E+03  0.25500000000E-02 0.  1.
         -2   -1    0    0    0  501 -0.00000000000E+00 -0.00000000000E+00 -0.74420575446E+02  0.74420575490E+02  0.25500000000E-02 0. -1.
    5000001    1    1    2    0    0  0.82883491525E+02  0.10762057449E+03  0.93001887592E+02  0.20791876375E+03  0.12700000000E+03 0.  0.
   -5000001    1    1    2    0    0 -0.82883491525E+02 -0.10762057449E+03  0.49271509874E+03  0.52663937352E+03  0.12700000000E+03 0.  0.
<mgrwt>
<rscale>  0 0.44329592E+03</rscale>
<asrwt>0</asrwt>
<pdfrwt beam="1">  1        2 0.94305366E-01 0.44329592E+03</pdfrwt>
<pdfrwt beam="2">  1       -2 0.10631511E-01 0.44329592E+03</pdfrwt>
<totfact> 0.29801025E+03</totfact>
</mgrwt>
</event>
<event>
 4    1  0.1361667E-004  0.3670301E+03  0.7818608E-02  0.1055834E+00
         -2   -1    0    0    0  501 -0.00000000000E+00  0.00000000000E+00  0.17360376125E+02  0.17360376312E+02  0.25500000000E-02 0. -1.
          2   -1    0    0  501    0  0.00000000000E+00 -0.00000000000E+00 -0.19399218406E+04  0.19399218406E+04  0.25500000000E-02 0.  1.
    5000001    1    1    2    0    0  0.12853184377E+03  0.18833637669E+02 -0.10996893713E+04  0.11145944797E+04  0.12700000000E+03 0.  0.
   -5000001    1    1    2    0    0 -0.12853184377E+03 -0.18833637669E+02 -0.82287209322E+03  0.84268773728E+03  0.12700000000E+03 0.  0.
<mgrwt>
<rscale>  0 0.36703010E+03</rscale>
<asrwt>0</asrwt>
<pdfrwt beam="1">  1        2 0.27713155E+00 0.36703010E+03</pdfrwt>
<pdfrwt beam="2">  1       -2 0.24800550E-02 0.36703010E+03</pdfrwt>
<totfact> 0.53191741E+03</totfact>
</mgrwt>
</event>
<event>
 4    1  0.1361667E-004  0.3467374E+03  0.7818608E-02  0.1063962E+00
         -2   -1    0    0    0  501 -0.00000000000E+00  0.00000000000E+00  0.65561507226E+02  0.65561507276E+02  0.25500000000E-02 0. -1.
          2   -1    0    0  501    0  0.00000000000E+00 -0.00000000000E+00 -0.45845048556E+03  0.45845048556E+03  0.25500000000E-02 0.  1.
    5000001    1    1    2    0    0  0.53568986598E+02 -0.10515137927E+03 -0.19475082741E+03  0.26073613801E+03  0.12700000000E+03 0.  0.
   -5000001    1    1    2    0    0 -0.53568986598E+02  0.10515137927E+03 -0.19813815092E+03  0.26327585483E+03  0.12700000000E+03 0.  0.
<mgrwt>
<rscale>  0 0.34673739E+03</rscale>
<asrwt>0</asrwt>
<pdfrwt beam="1">  1        2 0.65492925E-01 0.34673739E+03</pdfrwt>
<pdfrwt beam="2">  1       -2 0.93659299E-02 0.34673739E+03</pdfrwt>
<totfact> 0.55117116E+03</totfact>
</mgrwt>
</event>
<event>
 4    1  0.1361667E-004  0.3514860E+03  0.7818608E-02  0.1062007E+00
          2   -1    0    0  501    0  0.00000000000E+00  0.00000000000E+00  0.26908780940E+03  0.26908780942E+03  0.25500000000E-02 0.  1.
         -2   -1    0    0    0  501 -0.00000000000E+00 -0.00000000000E+00 -0.11477892689E+03  0.11477892692E+03  0.25500000000E-02 0. -1.
    5000001    1    1    2    0    0 -0.11750074796E+03 -0.13330540700E+01  0.11078776714E+03  0.20545347929E+03  0.12700000000E+03 0.  0.
   -5000001    1    1    2    0    0  0.11750074796E+03  0.13330540700E+01  0.43521115372E+02  0.17841325704E+03  0.12700000000E+03 0.  0.
<mgrwt>
<rscale>  0 0.35148605E+03</rscale>
<asrwt>0</asrwt>
<pdfrwt beam="1">  1        2 0.38441114E-01 0.35148605E+03</pdfrwt>
<pdfrwt beam="2">  1       -2 0.16396990E-01 0.35148605E+03</pdfrwt>
<totfact> 0.39506837E+03</totfact>
</mgrwt>
</event>
<event>
 4    1  0.1361667E-004  0.4096550E+03  0.7818608E-02  0.1040487E+00
         -2   -1    0    0    0  501 -0.00000000000E+00  0.00000000000E+00  0.42437861751E+02  0.42437861828E+02  0.25500000000E-02 0. -1.
          2   -1    0    0  501    0  0.00000000000E+00 -0.00000000000E+00 -0.98860541515E+03  0.98860541516E+03  0.25500000000E-02 0.  1.
    5000001    1    1    2    0    0  0.10054096247E+03  0.12520319111E+03 -0.45697278535E+03  0.50073690772E+03  0.12700000000E+03 0.  0.
   -5000001    1    1    2    0    0 -0.10054096247E+03 -0.12520319111E+03 -0.48919476805E+03  0.53030636927E+03  0.12700000000E+03 0.  0.
<mgrwt>
<rscale>  0 0.40965498E+03</rscale>
<asrwt>0</asrwt>
<pdfrwt beam="1">  1        2 0.14122933E+00 0.40965498E+03</pdfrwt>
<pdfrwt beam="2">  1       -2 0.60625523E-02 0.40965498E+03</pdfrwt>
<totfact> 0.43340383E+03</totfact>
</mgrwt>
</event>
<event>
 4    1  0.1361667E-004  0.4626291E+03  0.7818608E-02  0.1024021E+00
         -2   -1    0    0    0  501 -0.00000000000E+00  0.00000000000E+00  0.19138406215E+03  0.19138406217E+03  0.25500000000E-02 0. -1.
          2   -1    0    0  501    0  0.00000000000E+00 -0.00000000000E+00 -0.27957620653E+03  0.27957620654E+03  0.25500000000E-02 0.  1.
    5000001    1    1    2    0    0  0.11034138555E+02  0.16122843194E+03  0.63933119795E+02  0.21525055932E+03  0.12700000000E+03 0.  0.
   -5000001    1    1    2    0    0 -0.11034138555E+02 -0.16122843194E+03 -0.15212526417E+03  0.25570970939E+03  0.12700000000E+03 0.  0.
<mgrwt>
<rscale>  0 0.46262914E+03</rscale>
<asrwt>0</asrwt>
<pdfrwt beam="1">  1        2 0.39939458E-01 0.46262914E+03</pdfrwt>
<pdfrwt beam="2">  1       -2 0.27340580E-01 0.46262914E+03</pdfrwt>
<totfact> 0.15625873E+03</totfact>
</mgrwt>
</event>
<event>
 4    1  0.1361667E-004  0.4187273E+03  0.7818608E-02  0.1037481E+00
          2   -1    0    0  501    0  0.00000000000E+00  0.00000000000E+00  0.24732021694E+03  0.24732021695E+03  0.25500000000E-02 0.  1.
         -2   -1    0    0    0  501 -0.00000000000E+00 -0.00000000000E+00 -0.17723236477E+03  0.17723236479E+03  0.25500000000E-02 0. -1.
    5000001    1    1    2    0    0  0.79091990318E+02  0.11936868766E+03 -0.50987669977E+02  0.19807364544E+03  0.12700000000E+03 0.  0.
   -5000001    1    1    2    0    0 -0.79091990318E+02 -0.11936868766E+03  0.12107552215E+03  0.22647893631E+03  0.12700000000E+03 0.  0.
<mgrwt>
<rscale>  0 0.41872734E+03</rscale>
<asrwt>0</asrwt>
<pdfrwt beam="1">  1        2 0.35331459E-01 0.41872734E+03</pdfrwt>
<pdfrwt beam="2">  1       -2 0.25318910E-01 0.41872734E+03</pdfrwt>
<totfact> 0.20506985E+03</totfact>
</mgrwt>
</event>
<event>
 4    1  0.1361667E-004  0.4677881E+03  0.7818608E-02  0.1022546E+00
          2   -1    0    0  501    0  0.00000000000E+00  0.00000000000E+00  0.66676274782E+03  0.66676274782E+03  0.25500000000E-02 0.  1.
         -2   -1    0    0    0  501 -0.00000000000E+00 -0.00000000000E+00 -0.82047825950E+02  0.82047825989E+02  0.25500000000E-02 0. -1.
    5000001    1    1    2    0    0  0.18305142200E+03 -0.43462517477E+02  0.20208013464E+03  0.30391149096E+03  0.12700000000E+03 0.  0.
   -5000001    1    1    2    0    0 -0.18305142200E+03  0.43462517477E+02  0.38263478722E+03  0.44489908285E+03  0.12700000000E+03 0.  0.
<mgrwt>
<rscale>  0 0.46778813E+03</rscale>
<asrwt>0</asrwt>
<pdfrwt beam="1">  1        2 0.95251822E-01 0.46778813E+03</pdfrwt>
<pdfrwt beam="2">  1       -2 0.11721118E-01 0.46778813E+03</pdfrwt>
<totfact> 0.25141745E+03</totfact>
</mgrwt>
</event>
<event>
 4    1  0.1361667E-004  0.4347301E+03  0.7818608E-02  0.1032376E+00
          2   -1    0    0  501    0  0.00000000000E+00  0.00000000000E+00  0.73383221592E+03  0.73383221593E+03  0.25500000000E-02 0.  1.
         -2   -1    0    0    0  501 -0.00000000000E+00 -0.00000000000E+00 -0.64384691442E+02  0.64384691493E+02  0.25500000000E-02 0. -1.
    5000001    1    1    2    0    0  0.58582209496E+02 -0.15222536349E+03  0.45808763230E+03  0.50257110485E+03  0.12700000000E+03 0.  0.
   -5000001    1    1    2    0    0 -0.58582209496E+02  0.15222536349E+03  0.21135989218E+03  0.29564580257E+03  0.12700000000E+03 0.  0.
<mgrwt>
<rscale>  0 0.43473008E+03</rscale>
<asrwt>0</asrwt>
<pdfrwt beam="1">  1        2 0.10483317E+00 0.43473008E+03</pdfrwt>
<pdfrwt beam="2">  1       -2 0.91978132E-02 0.43473008E+03</pdfrwt>
<totfact> 0.33093758E+03</totfact>
</mgrwt>
</event>
<event>
 4    1  0.1361667E-004  0.3264902E+03  0.7818608E-02  0.1072700E+00
         -2   -1    0    0    0  501 -0.00000000000E+00  0.00000000000E+00  0.51694634082E+02  0.51694634145E+02  0.25500000000E-02 0. -1.
          2   -1    0    0  501    0  0.00000000000E+00 -0.00000000000E+00 -0.51550726232E+03  0.51550726232E+03  0.25500000000E-02 0.  1.
    5000001    1    1    2    0    0 -0.47508913619E+02 -0.73812782204E+02 -0.13974027443E+03  0.20823488658E+03  0.12700000000E+03 0.  0.
   -5000001    1    1    2    0    0  0.47508913619E+02  0.73812782204E+02 -0.32407235381E+03  0.35896700989E+03  0.12700000000E+03 0.  0.
<mgrwt>
<rscale>  0 0.32649018E+03</rscale>
<asrwt>0</asrwt>
<pdfrwt beam="1">  1        2 0.73643891E-01 0.32649018E+03</pdfrwt>
<pdfrwt beam="2">  1       -2 0.73849480E-02 0.32649018E+03</pdfrwt>
<totfact> 0.70231740E+03</totfact>
</mgrwt>
</event>
<event>
 4    1  0.1361667E-004  0.3613044E+03  0.7818608E-02  0.1058069E+00
         -2   -1    0    0    0  501 -0.00000000000E+00  0.00000000000E+00  0.17246035200E+02  0.17246035388E+02  0.25500000000E-02 0. -1.
          2   -1    0    0  501    0  0.00000000000E+00 -0.00000000000E+00 -0.18923315361E+04  0.18923315361E+04  0.25500000000E-02 0.  1.
    5000001    1    1    2    0    0  0.86168868210E+02 -0.88656981371E+02 -0.75285566692E+03  0.77343764416E+03  0.12700000000E+03 0.  0.
   -5000001    1    1    2    0    0 -0.86168868210E+02  0.88656981371E+02 -0.11222298340E+04  0.11361399274E+04  0.12700000000E+03 0.  0.
<mgrwt>
<rscale>  0 0.36130440E+03</rscale>
<asrwt>0</asrwt>
<pdfrwt beam="1">  1        2 0.27033294E+00 0.36130440E+03</pdfrwt>
<pdfrwt beam="2">  1       -2 0.24637205E-02 0.36130440E+03</pdfrwt>
<totfact> 0.56702138E+03</totfact>
</mgrwt>
</event>
<event>
 4    1  0.1361667E-004  0.3807648E+03  0.7818608E-02  0.1050651E+00
          2   -1    0    0  501    0  0.00000000000E+00  0.00000000000E+00  0.69478122983E+03  0.69478122983E+03  0.25500000000E-02 0.  1.
         -2   -1    0    0    0  501 -0.00000000000E+00 -0.00000000000E+00 -0.52168150008E+02  0.52168150070E+02  0.25500000000E-02 0. -1.
    5000001    1    1    2    0    0 -0.56733778781E+02 -0.12997491571E+03  0.31726186231E+03  0.36999498597E+03  0.12700000000E+03 0.  0.
   -5000001    1    1    2    0    0  0.56733778781E+02  0.12997491571E+03  0.32535121751E+03  0.37695439393E+03  0.12700000000E+03 0.  0.
<mgrwt>
<rscale>  0 0.38076476E+03</rscale>
<asrwt>0</asrwt>
<pdfrwt beam="1">  1        2 0.99254460E-01 0.38076476E+03</pdfrwt>
<pdfrwt beam="2">  1       -2 0.74525930E-02 0.38076476E+03</pdfrwt>
<totfact> 0.49238444E+03</totfact>
</mgrwt>
</event>
<event>
 4    1  0.1361667E-004  0.3492279E+03  0.7818608E-02  0.1062932E+00
         -2   -1    0    0    0  501 -0.00000000000E+00  0.00000000000E+00  0.26010793337E+02  0.26010793462E+02  0.25500000000E-02 0. -1.
          2   -1    0    0  501    0  0.00000000000E+00 -0.00000000000E+00 -0.11722067918E+04  0.11722067918E+04  0.25500000000E-02 0.  1.
    5000001    1    1    2    0    0  0.74479534055E+02  0.79939379110E+02 -0.40418993606E+03  0.43753400980E+03  0.12700000000E+03 0.  0.
   -5000001    1    1    2    0    0 -0.74479534055E+02 -0.79939379110E+02 -0.74200606237E+03  0.76068357542E+03  0.12700000000E+03 0.  0.
<mgrwt>
<rscale>  0 0.34922788E+03</rscale>
<asrwt>0</asrwt>
<pdfrwt beam="1">  1        2 0.16745808E+00 0.34922788E+03</pdfrwt>
<pdfrwt beam="2">  1       -2 0.37158284E-02 0.34922788E+03</pdfrwt>
<totfact> 0.71649249E+03</totfact>
</mgrwt>
</event>
<event>
 4    1  0.1361667E-004  0.4833470E+03  0.7818608E-02  0.1018219E+00
         -2   -1    0    0    0  501 -0.00000000000E+00  0.00000000000E+00  0.12912984244E+03  0.12912984247E+03  0.25500000000E-02 0.  1.
          2   -1    0    0  501    0  0.00000000000E+00 -0.00000000000E+00 -0.45230503588E+03  0.45230503589E+03  0.25500000000E-02 0. -1.
    5000001    1    1    2    0    0 -0.44527316217E+02 -0.17459314561E+03 -0.28074269676E+03  0.35694664891E+03  0.12700000000E+03 0.  0.
   -5000001    1    1    2    0    0  0.44527316217E+02  0.17459314561E+03 -0.42432496680E+02  0.22448822944E+03  0.12700000000E+03 0.  0.
<mgrwt>
<rscale>  0 0.48334699E+03</rscale>
<asrwt>0</asrwt>
<pdfrwt beam="1">  1        2 0.64615004E-01 0.48334699E+03</pdfrwt>
<pdfrwt beam="2">  1       -2 0.18447121E-01 0.48334699E+03</pdfrwt>
<totfact> 0.18405091E+03</totfact>
</mgrwt>
</event>
<event>
 4    1  0.1361667E-004  0.3173725E+03  0.7818608E-02  0.1076865E+00
         -2   -1    0    0    0  501 -0.00000000000E+00  0.00000000000E+00  0.13908020926E+03  0.13908020928E+03  0.25500000000E-02 0. -1.
          2   -1    0    0  501    0  0.00000000000E+00 -0.00000000000E+00 -0.18105618592E+03  0.18105618593E+03  0.25500000000E-02 0.  1.
    5000001    1    1    2    0    0  0.54715297732E+02 -0.77724133408E+02 -0.25211034462E+02  0.16062191936E+03  0.12700000000E+03 0.  0.
   -5000001    1    1    2    0    0 -0.54715297732E+02  0.77724133408E+02 -0.16764942200E+02  0.15951447585E+03  0.12700000000E+03 0.  0.
<mgrwt>
<rscale>  0 0.31737254E+03</rscale>
<asrwt>0</asrwt>
<pdfrwt beam="1">  1        2 0.25865169E-01 0.31737254E+03</pdfrwt>
<pdfrwt beam="2">  1       -2 0.19868601E-01 0.31737254E+03</pdfrwt>
<totfact> 0.44013029E+03</totfact>
</mgrwt>
</event>
<event>
 4    1  0.1361667E-004  0.3276403E+03  0.7818608E-02  0.1072186E+00
          2   -1    0    0  501    0  0.00000000000E+00  0.00000000000E+00  0.25660976023E+03  0.25660976024E+03  0.25500000000E-02 0.  1.
         -2   -1    0    0    0  501 -0.00000000000E+00 -0.00000000000E+00 -0.10458308757E+03  0.10458308760E+03  0.25500000000E-02 0. -1.
    5000001    1    1    2    0    0  0.88575682088E+02 -0.18811913338E+02  0.20799361465E+02  0.15735676972E+03  0.12700000000E+03 0.  0.
   -5000001    1    1    2    0    0 -0.88575682088E+02  0.18811913338E+02  0.13122731119E+03  0.20383607812E+03  0.12700000000E+03 0.  0.
<mgrwt>
<rscale>  0 0.32764030E+03</rscale>
<asrwt>0</asrwt>
<pdfrwt beam="1">  1        2 0.36658538E-01 0.32764030E+03</pdfrwt>
<pdfrwt beam="2">  1       -2 0.14940441E-01 0.32764030E+03</pdfrwt>
<totfact> 0.48499997E+03</totfact>
</mgrwt>
</event>
<event>
 4    1  0.1361667E-004  0.3292035E+03  0.7818608E-02  0.1071490E+00
          2   -1    0    0  501    0  0.00000000000E+00  0.00000000000E+00  0.21244853948E+02  0.21244854101E+02  0.25500000000E-02 0.  1.
         -2   -1    0    0    0  501 -0.00000000000E+00 -0.00000000000E+00 -0.12753085286E+04  0.12753085286E+04  0.25500000000E-02 0. -1.
    5000001    1    1    2    0    0 -0.10078811170E+03 -0.10419820379E+02 -0.73107918823E+03  0.74891427785E+03  0.12700000000E+03 0.  0.
   -5000001    1    1    2    0    0  0.10078811170E+03  0.10419820379E+02 -0.52298448643E+03  0.54763910485E+03  0.12700000000E+03 0.  0.
<mgrwt>
<rscale>  0 0.32920355E+03</rscale>
<asrwt>0</asrwt>
<pdfrwt beam="1">  1        2 0.30349800E-02 0.32920355E+03</pdfrwt>
<pdfrwt beam="2">  1       -2 0.18218688E+00 0.32920355E+03</pdfrwt>
<totfact> 0.58246731E+02</totfact>
</mgrwt>
</event>
<event>
 4    1  0.1361667E-004  0.5303195E+03  0.7818608E-02  0.1006155E+00
          2   -1    0    0  501    0  0.00000000000E+00  0.00000000000E+00  0.10860881192E+04  0.10860881192E+04  0.25500000000E-02 0.  1.
         -2   -1    0    0    0  501 -0.00000000000E+00 -0.00000000000E+00 -0.64736646218E+02  0.64736646269E+02  0.25500000000E-02 0. -1.
    5000001    1    1    2    0    0 -0.74839054699E+02  0.21981167317E+03  0.54584452941E+03  0.60662451818E+03  0.12700000000E+03 0.  0.
   -5000001    1    1    2    0    0  0.74839054699E+02 -0.21981167317E+03  0.47550694358E+03  0.54420024730E+03  0.12700000000E+03 0.  0.
<mgrwt>
<rscale>  0 0.53031954E+03</rscale>
<asrwt>0</asrwt>
<pdfrwt beam="1">  1        2 0.15515545E+00 0.53031954E+03</pdfrwt>
<pdfrwt beam="2">  1       -2 0.92480921E-02 0.53031954E+03</pdfrwt>
<totfact> 0.19497703E+03</totfact>
</mgrwt>
</event>
<event>
 4    1  0.1361667E-004  0.3462180E+03  0.7818608E-02  0.1064178E+00
          2   -1    0    0  501    0  0.00000000000E+00  0.00000000000E+00  0.75094197359E+02  0.75094197402E+02  0.25500000000E-02 0.  1.
         -2   -1    0    0    0  501 -0.00000000000E+00 -0.00000000000E+00 -0.39905525045E+03  0.39905525046E+03  0.25500000000E-02 0. -1.
    5000001    1    1    2    0    0 -0.67468529494E+02 -0.46653296357E+02 -0.46508722200E+02  0.15817899283E+03  0.12700000000E+03 0.  0.
   -5000001    1    1    2    0    0  0.67468529494E+02  0.46653296357E+02 -0.27745233089E+03  0.31597045503E+03  0.12700000000E+03 0.  0.
<mgrwt>
<rscale>  0 0.34621805E+03</rscale>
<asrwt>0</asrwt>
<pdfrwt beam="1">  1        2 0.10727743E-01 0.34621805E+03</pdfrwt>
<pdfrwt beam="2">  1       -2 0.57007892E-01 0.34621805E+03</pdfrwt>
<totfact> 0.17353688E+03</totfact>
</mgrwt>
</event>
<event>
 4    1  0.1361667E-004  0.4453358E+03  0.7818608E-02  0.1029122E+00
         -2   -1    0    0    0  501 -0.00000000000E+00  0.00000000000E+00  0.67989901749E+02  0.67989901797E+02  0.25500000000E-02 0. -1.
          2   -1    0    0  501    0  0.00000000000E+00 -0.00000000000E+00 -0.72924049766E+03  0.72924049766E+03  0.25500000000E-02 0.  1.
    5000001    1    1    2    0    0 -0.15123205030E+03 -0.97624888601E+02 -0.38864027184E+03  0.44673483500E+03  0.12700000000E+03 0.  0.
   -5000001    1    1    2    0    0  0.15123205030E+03  0.97624888601E+02 -0.27261032407E+03  0.35049556446E+03  0.12700000000E+03 0.  0.
<mgrwt>
<rscale>  0 0.44533578E+03</rscale>
<asrwt>0</asrwt>
<pdfrwt beam="1">  1        2 0.10417721E+00 0.44533578E+03</pdfrwt>
<pdfrwt beam="2">  1       -2 0.97128436E-02 0.44533578E+03</pdfrwt>
<totfact> 0.30569650E+03</totfact>
</mgrwt>
</event>
<event>
 4    1  0.1361667E-004  0.2795993E+03  0.7818608E-02  0.1095908E+00
         -2   -1    0    0    0  501 -0.00000000000E+00  0.00000000000E+00  0.35718207055E+02  0.35718207146E+02  0.25500000000E-02 0. -1.
          2   -1    0    0  501    0  0.00000000000E+00 -0.00000000000E+00 -0.54717015031E+03  0.54717015031E+03  0.25500000000E-02 0.  1.
    5000001    1    1    2    0    0  0.25464882527E+02 -0.11389590425E+02 -0.36277534913E+03  0.38537402215E+03  0.12700000000E+03 0.  0.
   -5000001    1    1    2    0    0 -0.25464882527E+02  0.11389590425E+02 -0.14867659412E+03  0.19751433530E+03  0.12700000000E+03 0.  0.
<mgrwt>
<rscale>  0 0.27959926E+03</rscale>
<asrwt>0</asrwt>
<pdfrwt beam="1">  1        2 0.78167159E-01 0.27959926E+03</pdfrwt>
<pdfrwt beam="2">  1       -2 0.51026013E-02 0.27959926E+03</pdfrwt>
<totfact> 0.11547085E+04</totfact>
</mgrwt>
</event>
<event>
 4    1  0.1361667E-004  0.3090846E+03  0.7818608E-02  0.1080785E+00
          2   -1    0    0  501    0  0.00000000000E+00  0.00000000000E+00  0.16621147835E+04  0.16621147835E+04  0.25500000000E-02 0.  1.
         -2   -1    0    0    0  501 -0.00000000000E+00 -0.00000000000E+00 -0.14369242099E+02  0.14369242326E+02  0.25500000000E-02 0. -1.
    5000001    1    1    2    0    0 -0.90588371137E+01 -0.82418766994E+02  0.66302363578E+03  0.68015017260E+03  0.12700000000E+03 0.  0.
   -5000001    1    1    2    0    0  0.90588371137E+01  0.82418766994E+02  0.98472190567E+03  0.99633385328E+03  0.12700000000E+03 0.  0.
<mgrwt>
<rscale>  0 0.30908465E+03</rscale>
<asrwt>0</asrwt>
<pdfrwt beam="1">  1        2 0.23744499E+00 0.30908465E+03</pdfrwt>
<pdfrwt beam="2">  1       -2 0.20527487E-02 0.30908465E+03</pdfrwt>
<totfact> 0.96493068E+03</totfact>
</mgrwt>
</event>
<event>
 4    1  0.1361667E-004  0.2882474E+03  0.7818608E-02  0.1091268E+00
          2   -1    0    0  501    0  0.00000000000E+00  0.00000000000E+00  0.11489947870E+03  0.11489947873E+03  0.25500000000E-02 0.  1.
         -2   -1    0    0    0  501 -0.00000000000E+00 -0.00000000000E+00 -0.18078094707E+03  0.18078094709E+03  0.25500000000E-02 0. -1.
    5000001    1    1    2    0    0 -0.28421490082E+02  0.32582315099E+02 -0.86960362739E+02  0.15987649309E+03  0.12700000000E+03 0.  0.
   -5000001    1    1    2    0    0  0.28421490082E+02 -0.32582315099E+02  0.21078894376E+02  0.13580393273E+03  0.12700000000E+03 0.  0.
<mgrwt>
<rscale>  0 0.28824737E+03</rscale>
<asrwt>0</asrwt>
<pdfrwt beam="1">  1        2 0.16414211E-01 0.28824737E+03</pdfrwt>
<pdfrwt beam="2">  1       -2 0.25825850E-01 0.28824737E+03</pdfrwt>
<totfact> 0.46758589E+03</totfact>
</mgrwt>
</event>
<event>
 4    1  0.1361667E-004  0.3309513E+03  0.7818608E-02  0.1070717E+00
          2   -1    0    0  501    0  0.00000000000E+00  0.00000000000E+00  0.22254002302E+03  0.22254002304E+03  0.25500000000E-02 0.  1.
         -2   -1    0    0    0  501 -0.00000000000E+00 -0.00000000000E+00 -0.12304387184E+03  0.12304387186E+03  0.25500000000E-02 0. -1.
    5000001    1    1    2    0    0  0.27760959976E+02  0.88928227673E+02  0.10272878829E+03  0.18804548524E+03  0.12700000000E+03 0.  0.
   -5000001    1    1    2    0    0 -0.27760959976E+02 -0.88928227673E+02 -0.32326371060E+01  0.15753840966E+03  0.12700000000E+03 0.  0.
<mgrwt>
<rscale>  0 0.33095127E+03</rscale>
<asrwt>0</asrwt>
<pdfrwt beam="1">  1        2 0.31791432E-01 0.33095127E+03</pdfrwt>
<pdfrwt beam="2">  1       -2 0.17577696E-01 0.33095127E+03</pdfrwt>
<totfact> 0.43190364E+03</totfact>
</mgrwt>
</event>
<event>
 4    1  0.1361667E-004  0.4252907E+03  0.7818608E-02  0.1035358E+00
          2   -1    0    0  501    0  0.00000000000E+00  0.00000000000E+00  0.13233215658E+04  0.13233215658E+04  0.25500000000E-02 0.  1.
         -2   -1    0    0    0  501 -0.00000000000E+00 -0.00000000000E+00 -0.34170108853E+02  0.34170108948E+02  0.25500000000E-02 0. -1.
    5000001    1    1    2    0    0  0.39724298371E+02 -0.14700723225E+03  0.39940225863E+03  0.44591513813E+03  0.12700000000E+03 0.  0.
   -5000001    1    1    2    0    0 -0.39724298371E+02  0.14700723225E+03  0.88974919833E+03  0.91157653664E+03  0.12700000000E+03 0.  0.
<mgrwt>
<rscale>  0 0.42529069E+03</rscale>
<asrwt>0</asrwt>
<pdfrwt beam="1">  1        2 0.18904590E+00 0.42529069E+03</pdfrwt>
<pdfrwt beam="2">  1       -2 0.48814452E-02 0.42529069E+03</pdfrwt>
<totfact> 0.39232690E+03</totfact>
</mgrwt>
</event>
<event>
 4    1  0.1361667E-004  0.3861429E+03  0.7818608E-02  0.1048686E+00
         -2   -1    0    0    0  501 -0.00000000000E+00  0.00000000000E+00  0.26387230896E+02  0.26387231019E+02  0.25500000000E-02 0. -1.
          2   -1    0    0  501    0  0.00000000000E+00 -0.00000000000E+00 -0.14126753701E+04  0.14126753701E+04  0.25500000000E-02 0.  1.
    5000001    1    1    2    0    0  0.54358181658E+02 -0.13339059216E+03 -0.76765407084E+03  0.79130881106E+03  0.12700000000E+03 0.  0.
   -5000001    1    1    2    0    0 -0.54358181658E+02  0.13339059216E+03 -0.61863406835E+03  0.64775379004E+03  0.12700000000E+03 0.  0.
<mgrwt>
<rscale>  0 0.38614293E+03</rscale>
<asrwt>0</asrwt>
<pdfrwt beam="1">  1        2 0.20181072E+00 0.38614293E+03</pdfrwt>
<pdfrwt beam="2">  1       -2 0.37696053E-02 0.38614293E+03</pdfrwt>
<totfact> 0.52192993E+03</totfact>
</mgrwt>
</event>
<event>
 4    1  0.1361667E-004  0.3313088E+03  0.7818608E-02  0.1070559E+00
          2   -1    0    0  501    0  0.00000000000E+00  0.00000000000E+00  0.34308266406E+03  0.34308266406E+03  0.25500000000E-02 0.  1.
         -2   -1    0    0    0  501 -0.00000000000E+00 -0.00000000000E+00 -0.79984730004E+02  0.79984730045E+02  0.25500000000E-02 0. -1.
    5000001    1    1    2    0    0 -0.82540952711E+02  0.53835817293E+02  0.80453565798E+02  0.17975839437E+03  0.12700000000E+03 0.  0.
   -5000001    1    1    2    0    0  0.82540952711E+02 -0.53835817293E+02  0.18264436825E+03  0.24330899974E+03  0.12700000000E+03 0.  0.
<mgrwt>
<rscale>  0 0.33130876E+03</rscale>
<asrwt>0</asrwt>
<pdfrwt beam="1">  1        2 0.49011810E-01 0.33130876E+03</pdfrwt>
<pdfrwt beam="2">  1       -2 0.11426390E-01 0.33130876E+03</pdfrwt>
<totfact> 0.54914250E+03</totfact>
</mgrwt>
</event>
<event>
 4    1  0.1361667E-004  0.3369696E+03  0.7818608E-02  0.1068094E+00
          2   -1    0    0  501    0  0.00000000000E+00  0.00000000000E+00  0.20524102355E+04  0.20524102355E+04  0.25500000000E-02 0.  1.
         -2   -1    0    0    0  501 -0.00000000000E+00 -0.00000000000E+00 -0.13831116070E+02  0.13831116305E+02  0.25500000000E-02 0. -1.
    5000001    1    1    2    0    0  0.22405639448E+02 -0.10749379225E+03  0.11062657616E+04  0.11189324660E+04  0.12700000000E+03 0.  0.
   -5000001    1    1    2    0    0 -0.22405639448E+02  0.10749379225E+03  0.93231335780E+03  0.94730888583E+03  0.12700000000E+03 0.  0.
<mgrwt>
<rscale>  0 0.33696958E+03</rscale>
<asrwt>0</asrwt>
<pdfrwt beam="1">  1        2 0.29320163E+00 0.33696958E+03</pdfrwt>
<pdfrwt beam="2">  1       -2 0.19758726E-02 0.33696958E+03</pdfrwt>
<totfact> 0.65628940E+03</totfact>
</mgrwt>
</event>
<event>
 4    1  0.1361667E-004  0.3092163E+03  0.7818608E-02  0.1080722E+00
         -2   -1    0    0    0  501 -0.00000000000E+00  0.00000000000E+00  0.50081328234E+03  0.50081328234E+03  0.25500000000E-02 0. -1.
          2   -1    0    0  501    0  0.00000000000E+00 -0.00000000000E+00 -0.47729724886E+02  0.47729724954E+02  0.25500000000E-02 0.  1.
    5000001    1    1    2    0    0  0.45194431194E+02  0.62004401478E+02  0.30361491520E+03  0.33793209250E+03  0.12700000000E+03 0.  0.
   -5000001    1    1    2    0    0 -0.45194431194E+02 -0.62004401478E+02  0.14946864226E+03  0.21061091480E+03  0.12700000000E+03 0.  0.
<mgrwt>
<rscale>  0 0.30921630E+03</rscale>
<asrwt>0</asrwt>
<pdfrwt beam="1">  1        2 0.68185321E-02 0.30921630E+03</pdfrwt>
<pdfrwt beam="2">  1       -2 0.71544755E-01 0.30921630E+03</pdfrwt>
<totfact> 0.19067334E+03</totfact>
</mgrwt>
</event>
<event>
 4    1  0.1361667E-004  0.3756474E+03  0.7818608E-02  0.1052554E+00
          2   -1    0    0  501    0  0.00000000000E+00  0.00000000000E+00  0.25069086402E+04  0.25069086402E+04  0.25500000000E-02 0.  1.
         -2   -1    0    0    0  501 -0.00000000000E+00 -0.00000000000E+00 -0.14072208025E+02  0.14072208256E+02  0.25500000000E-02 0. -1.
    5000001    1    1    2    0    0 -0.13716361142E+03  0.17612228161E+02  0.12130695301E+04  0.12275140455E+04  0.12700000000E+03 0.  0.
   -5000001    1    1    2    0    0  0.13716361142E+03 -0.17612228161E+02  0.12797669020E+04  0.12934668030E+04  0.12700000000E+03 0.  0.
<mgrwt>
<rscale>  0 0.37564739E+03</rscale>
<asrwt>0</asrwt>
<pdfrwt beam="1">  1        2 0.35813014E+00 0.37564739E+03</pdfrwt>
<pdfrwt beam="2">  1       -2 0.20103136E-02 0.37564739E+03</pdfrwt>
<totfact> 0.38006215E+03</totfact>
</mgrwt>
</event>
<event>
 4    1  0.1361667E-004  0.4911883E+03  0.7818608E-02  0.1016105E+00
          2   -1    0    0  501    0  0.00000000000E+00  0.00000000000E+00  0.35904298926E+04  0.35904298926E+04  0.25500000000E-02 0.  1.
         -2   -1    0    0    0  501 -0.00000000000E+00 -0.00000000000E+00 -0.16799239429E+02  0.16799239623E+02  0.25500000000E-02 0. -1.
    5000001    1    1    2    0    0 -0.14179262707E+03 -0.13686745490E+03  0.12496746076E+04  0.12714768870E+04  0.12700000000E+03 0.  0.
   -5000001    1    1    2    0    0  0.14179262707E+03  0.13686745490E+03  0.23239560456E+04  0.23357522453E+04  0.12700000000E+03 0.  0.
<mgrwt>
<rscale>  0 0.49118832E+03</rscale>
<asrwt>0</asrwt>
<pdfrwt beam="1">  1        2 0.51291898E+00 0.49118832E+03</pdfrwt>
<pdfrwt beam="2">  1       -2 0.23998894E-02 0.49118832E+03</pdfrwt>
<totfact> 0.73932477E+02</totfact>
</mgrwt>
</event>
<event>
 4    1  0.1361667E-004  0.2746560E+03  0.7818608E-02  0.1098644E+00
          2   -1    0    0  501    0  0.00000000000E+00  0.00000000000E+00  0.39232778655E+03  0.39232778656E+03  0.25500000000E-02 0.  1.
         -2   -1    0    0    0  501 -0.00000000000E+00 -0.00000000000E+00 -0.48069440450E+02  0.48069440517E+02  0.25500000000E-02 0. -1.
    5000001    1    1    2    0    0  0.45556029129E+02 -0.18602203461E+02  0.20029625197E+03  0.24221680849E+03  0.12700000000E+03 0.  0.
   -5000001    1    1    2    0    0 -0.45556029129E+02  0.18602203461E+02  0.14396209414E+03  0.19818041859E+03  0.12700000000E+03 0.  0.
<mgrwt>
<rscale>  0 0.27465598E+03</rscale>
<asrwt>0</asrwt>
<pdfrwt beam="1">  1        2 0.56046825E-01 0.27465598E+03</pdfrwt>
<pdfrwt beam="2">  1       -2 0.68670631E-02 0.27465598E+03</pdfrwt>
<totfact> 0.10541159E+04</totfact>
</mgrwt>
</event>
<event>
 4    1  0.1361667E-004  0.2751656E+03  0.7818608E-02  0.1098359E+00
          2   -1    0    0  501    0  0.00000000000E+00  0.00000000000E+00  0.16231790501E+04  0.16231790501E+04  0.25500000000E-02 0.  1.
         -2   -1    0    0    0  501 -0.00000000000E+00 -0.00000000000E+00 -0.11661697063E+02  0.11661697342E+02  0.25500000000E-02 0. -1.
    5000001    1    1    2    0    0  0.38451567461E+02 -0.22631712190E+02  0.63673890264E+03  0.65081191413E+03  0.12700000000E+03 0.  0.
   -5000001    1    1    2    0    0 -0.38451567461E+02  0.22631712190E+02  0.97477845035E+03  0.98402883327E+03  0.12700000000E+03 0.  0.
<mgrwt>
<rscale>  0 0.27516557E+03</rscale>
<asrwt>0</asrwt>
<pdfrwt beam="1">  1        2 0.23188273E+00 0.27516557E+03</pdfrwt>
<pdfrwt beam="2">  1       -2 0.16659567E-02 0.27516557E+03</pdfrwt>
<totfact> 0.13681734E+04</totfact>
</mgrwt>
</event>
<event>
 4    1  0.1361667E-004  0.3016867E+03  0.7818608E-02  0.1084400E+00
         -2   -1    0    0    0  501 -0.00000000000E+00  0.00000000000E+00  0.40846665792E+02  0.40846665871E+02  0.25500000000E-02 0. -1.
          2   -1    0    0  501    0  0.00000000000E+00 -0.00000000000E+00 -0.55705211102E+03  0.55705211103E+03  0.25500000000E-02 0.  1.
    5000001    1    1    2    0    0  0.62928482720E+02 -0.18522040657E+02 -0.35359558274E+03  0.38139467231E+03  0.12700000000E+03 0.  0.
   -5000001    1    1    2    0    0 -0.62928482720E+02  0.18522040657E+02 -0.16260986248E+03  0.21650410459E+03  0.12700000000E+03 0.  0.
<mgrwt>
<rscale>  0 0.30168673E+03</rscale>
<asrwt>0</asrwt>
<pdfrwt beam="1">  1        2 0.79578869E-01 0.30168673E+03</pdfrwt>
<pdfrwt beam="2">  1       -2 0.58352383E-02 0.30168673E+03</pdfrwt>
<totfact> 0.92450270E+03</totfact>
</mgrwt>
</event>
<event>
 4    1  0.1361667E-004  0.3986005E+03  0.7818608E-02  0.1044265E+00
         -2   -1    0    0    0  501 -0.00000000000E+00  0.00000000000E+00  0.38238338739E+02  0.38238338824E+02  0.25500000000E-02 0. -1.
          2   -1    0    0  501    0  0.00000000000E+00 -0.00000000000E+00 -0.10387635513E+04  0.10387635513E+04  0.25500000000E-02 0.  1.
    5000001    1    1    2    0    0  0.33940771237E+02  0.12198072601E+03 -0.73519812143E+03  0.75675395686E+03  0.12700000000E+03 0.  0.
   -5000001    1    1    2    0    0 -0.33940771237E+02 -0.12198072601E+03 -0.26532709110E+03  0.32024793324E+03  0.12700000000E+03 0.  0.
<mgrwt>
<rscale>  0 0.39860051E+03</rscale>
<asrwt>0</asrwt>
<pdfrwt beam="1">  1        2 0.14839478E+00 0.39860051E+03</pdfrwt>
<pdfrwt beam="2">  1       -2 0.54626205E-02 0.39860051E+03</pdfrwt>
<totfact> 0.47518394E+03</totfact>
</mgrwt>
</event>
<event>
 4    1  0.1361667E-004  0.3808965E+03  0.7818608E-02  0.1050603E+00
         -2   -1    0    0    0  501 -0.00000000000E+00  0.00000000000E+00  0.42682349106E+02  0.42682349183E+02  0.25500000000E-02 0. -1.
          2   -1    0    0  501    0  0.00000000000E+00 -0.00000000000E+00 -0.84977815461E+03  0.84977815461E+03  0.25500000000E-02 0.  1.
    5000001    1    1    2    0    0 -0.48533199184E+02 -0.12059427172E+03 -0.53698014220E+03  0.56689957040E+03  0.12700000000E+03 0.  0.
   -5000001    1    1    2    0    0  0.48533199184E+02  0.12059427172E+03 -0.27011566330E+03  0.32556093340E+03  0.12700000000E+03 0.  0.
<mgrwt>
<rscale>  0 0.38089646E+03</rscale>
<asrwt>0</asrwt>
<pdfrwt beam="1">  1        2 0.12139687E+00 0.38089646E+03</pdfrwt>
<pdfrwt beam="2">  1       -2 0.60974790E-02 0.38089646E+03</pdfrwt>
<totfact> 0.52454251E+03</totfact>
</mgrwt>
</event>
<event>
 4    1  0.1361667E-004  0.4583041E+03  0.7818608E-02  0.1025274E+00
         -2   -1    0    0    0  501 -0.00000000000E+00  0.00000000000E+00  0.49130910089E+02  0.49130910155E+02  0.25500000000E-02 0. -1.
          2   -1    0    0  501    0  0.00000000000E+00 -0.00000000000E+00 -0.10687906854E+04  0.10687906854E+04  0.25500000000E-02 0.  1.
    5000001    1    1    2    0    0  0.18936266608E+03 -0.16977711722E+02 -0.54723867233E+03  0.59308146700E+03  0.12700000000E+03 0.  0.
   -5000001    1    1    2    0    0 -0.18936266608E+03  0.16977711722E+02 -0.47242110294E+03  0.52484012852E+03  0.12700000000E+03 0.  0.
<mgrwt>
<rscale>  0 0.45830409E+03</rscale>
<asrwt>0</asrwt>
<pdfrwt beam="1">  1        2 0.15268437E+00 0.45830409E+03</pdfrwt>
<pdfrwt beam="2">  1       -2 0.70187021E-02 0.45830409E+03</pdfrwt>
<totfact> 0.30928557E+03</totfact>
</mgrwt>
</event>
<event>
 4    1  0.1361667E-004  0.4162897E+03  0.7818608E-02  0.1038281E+00
          2   -1    0    0  501    0  0.00000000000E+00  0.00000000000E+00  0.60849996587E+03  0.60849996587E+03  0.25500000000E-02 0.  1.
         -2   -1    0    0    0  501 -0.00000000000E+00 -0.00000000000E+00 -0.71198504159E+02  0.71198504205E+02  0.25500000000E-02 0. -1.
    5000001    1    1    2    0    0 -0.21646363322E+02  0.15685635073E+03  0.19342335799E+03  0.28038201659E+03  0.12700000000E+03 0.  0.
   -5000001    1    1    2    0    0  0.21646363322E+02 -0.15685635073E+03  0.34387810372E+03  0.39931645349E+03  0.12700000000E+03 0.  0.
<mgrwt>
<rscale>  0 0.41628974E+03</rscale>
<asrwt>0</asrwt>
<pdfrwt beam="1">  1        2 0.86928570E-01 0.41628974E+03</pdfrwt>
<pdfrwt beam="2">  1       -2 0.10171214E-01 0.41628974E+03</pdfrwt>
<totfact> 0.35201039E+03</totfact>
</mgrwt>
</event>
<event>
 4    1  0.1361667E-004  0.3436384E+03  0.7818608E-02  0.1065257E+00
          2   -1    0    0  501    0  0.00000000000E+00  0.00000000000E+00  0.21083936432E+04  0.21083936432E+04  0.25500000000E-02 0.  1.
         -2   -1    0    0    0  501 -0.00000000000E+00 -0.00000000000E+00 -0.14002053955E+02  0.14002054188E+02  0.25500000000E-02 0. -1.
    5000001    1    1    2    0    0 -0.76046106585E+02  0.85326528432E+02  0.11592593654E+04  0.11717827883E+04  0.12700000000E+03 0.  0.
   -5000001    1    1    2    0    0  0.76046106585E+02 -0.85326528432E+02  0.93513222394E+03  0.95061290914E+03  0.12700000000E+03 0.  0.
<mgrwt>
<rscale>  0 0.34363843E+03</rscale>
<asrwt>0</asrwt>
<pdfrwt beam="1">  1        2 0.30119896E+00 0.34363843E+03</pdfrwt>
<pdfrwt beam="2">  1       -2 0.20002943E-02 0.34363843E+03</pdfrwt>
<totfact> 0.60488781E+03</totfact>
</mgrwt>
</event>
<event>
 4    1  0.1361667E-004  0.4134482E+03  0.7818608E-02  0.1039220E+00
         -2   -1    0    0    0  501 -0.00000000000E+00  0.00000000000E+00  0.77430592646E+02  0.77430592688E+02  0.25500000000E-02 0. -1.
          2   -1    0    0  501    0  0.00000000000E+00 -0.00000000000E+00 -0.55191184576E+03  0.55191184577E+03  0.25500000000E-02 0.  1.
    5000001    1    1    2    0    0  0.13537256005E+03 -0.15121571761E+02 -0.10065548849E+03  0.21169534551E+03  0.12700000000E+03 0.  0.
   -5000001    1    1    2    0    0 -0.13537256005E+03  0.15121571761E+02 -0.37382576463E+03  0.41764709295E+03  0.12700000000E+03 0.  0.
<mgrwt>
<rscale>  0 0.41344824E+03</rscale>
<asrwt>0</asrwt>
<pdfrwt beam="1">  1        2 0.78844547E-01 0.41344824E+03</pdfrwt>
<pdfrwt beam="2">  1       -2 0.11061514E-01 0.41344824E+03</pdfrwt>
<totfact> 0.34399490E+03</totfact>
</mgrwt>
</event>
<event>
 4    1  0.1361667E-004  0.4381170E+03  0.7818608E-02  0.1031326E+00
         -2   -1    0    0    0  501 -0.00000000000E+00  0.00000000000E+00  0.34269343303E+02  0.34269343397E+02  0.25500000000E-02 0. -1.
          2   -1    0    0  501    0  0.00000000000E+00 -0.00000000000E+00 -0.14002783391E+04  0.14002783391E+04  0.25500000000E-02 0.  1.
    5000001    1    1    2    0    0 -0.15094359418E+03 -0.95136405045E+02 -0.69861012708E+03  0.73213387700E+03  0.12700000000E+03 0.  0.
   -5000001    1    1    2    0    0  0.15094359418E+03  0.95136405045E+02 -0.66739886868E+03  0.70241380546E+03  0.12700000000E+03 0.  0.
<mgrwt>
<rscale>  0 0.43811697E+03</rscale>
<asrwt>0</asrwt>
<pdfrwt beam="1">  1        2 0.20003973E+00 0.43811697E+03</pdfrwt>
<pdfrwt beam="2">  1       -2 0.48956214E-02 0.43811697E+03</pdfrwt>
<totfact> 0.35565972E+03</totfact>
</mgrwt>
</event>
<event>
 4    1  0.1361667E-004  0.3296023E+03  0.7818608E-02  0.1071313E+00
          2   -1    0    0  501    0  0.00000000000E+00  0.00000000000E+00  0.11895853129E+04  0.11895853129E+04  0.25500000000E-02 0.  1.
         -2   -1    0    0    0  501 -0.00000000000E+00 -0.00000000000E+00 -0.22830998434E+02  0.22830998576E+02  0.25500000000E-02 0. -1.
    5000001    1    1    2    0    0  0.29450441901E+02 -0.98321062063E+02  0.50144979930E+03  0.52736634420E+03  0.12700000000E+03 0.  0.
   -5000001    1    1    2    0    0 -0.29450441901E+02  0.98321062063E+02  0.66530451517E+03  0.68504996729E+03  0.12700000000E+03 0.  0.
<mgrwt>
<rscale>  0 0.32960231E+03</rscale>
<asrwt>0</asrwt>
<pdfrwt beam="1">  1        2 0.16994080E+00 0.32960231E+03</pdfrwt>
<pdfrwt beam="2">  1       -2 0.32615704E-02 0.32960231E+03</pdfrwt>
<totfact> 0.85185199E+03</totfact>
</mgrwt>
</event>
<event>
 4    1  0.1361667E-004  0.7155530E+03  0.7818608E-02  0.9690998E-01
         -2   -1    0    0    0  501 -0.00000000000E+00  0.00000000000E+00  0.43363577967E+03  0.43363577968E+03  0.25500000000E-02 0. -1.
          2   -1    0    0  501    0  0.00000000000E+00 -0.00000000000E+00 -0.29518786273E+03  0.29518786274E+03  0.25500000000E-02 0.  1.
    5000001    1    1    2    0    0  0.32647946395E+03  0.44896865113E+02  0.10975502208E+02  0.35334689828E+03  0.12700000000E+03 0.  0.
   -5000001    1    1    2    0    0 -0.32647946395E+03 -0.44896865113E+02  0.12747241473E+03  0.37547674414E+03  0.12700000000E+03 0.  0.
<mgrwt>
<rscale>  0 0.71555299E+03</rscale>
<asrwt>0</asrwt>
<pdfrwt beam="1">  1        2 0.42169695E-01 0.71555299E+03</pdfrwt>
<pdfrwt beam="2">  1       -2 0.61947969E-01 0.71555299E+03</pdfrwt>
<totfact> 0.29644847E+02</totfact>
</mgrwt>
</event>
<event>
 4    1  0.1361667E-004  0.4445162E+03  0.7818608E-02  0.1029370E+00
         -2   -1    0    0    0  501 -0.00000000000E+00  0.00000000000E+00  0.31869255876E+02  0.31869255978E+02  0.25500000000E-02 0.  1.
          2   -1    0    0  501    0  0.00000000000E+00 -0.00000000000E+00 -0.15500413821E+04  0.15500413821E+04  0.25500000000E-02 0. -1.
    5000001    1    1    2    0    0  0.48850455743E+02 -0.11949052362E+02 -0.13513584950E+03  0.19214537387E+03  0.12700000000E+03 0.  0.
   -5000001    1    1    2    0    0 -0.48850455743E+02  0.11949052362E+02 -0.13830362768E+04  0.13897652642E+04  0.12700000000E+03 0.  0.
<mgrwt>
<rscale>  0 0.44451621E+03</rscale>
<asrwt>0</asrwt>
<pdfrwt beam="1">  1        2 0.22143444E+00 0.44451621E+03</pdfrwt>
<pdfrwt beam="2">  1       -2 0.45527518E-02 0.44451621E+03</pdfrwt>
<totfact> 0.33261479E+03</totfact>
</mgrwt>
</event>
<event>
 4    1  0.1361667E-004  0.4381704E+03  0.7818608E-02  0.1031310E+00
          2   -1    0    0  501    0  0.00000000000E+00  0.00000000000E+00  0.46768767012E+03  0.46768767013E+03  0.25500000000E-02 0.  1.
         -2   -1    0    0    0  501 -0.00000000000E+00 -0.00000000000E+00 -0.10262902988E+03  0.10262902991E+03  0.25500000000E-02 0. -1.
    5000001    1    1    2    0    0 -0.33811160849E+02 -0.15686296793E+03  0.28435420616E+03  0.35033626685E+03  0.12700000000E+03 0.  0.
   -5000001    1    1    2    0    0  0.33811160849E+02  0.15686296793E+03  0.80704434078E+02  0.21998043319E+03  0.12700000000E+03 0.  0.
<mgrwt>
<rscale>  0 0.43817043E+03</rscale>
<asrwt>0</asrwt>
<pdfrwt beam="1">  1        2 0.66812525E-01 0.43817043E+03</pdfrwt>
<pdfrwt beam="2">  1       -2 0.14661290E-01 0.43817043E+03</pdfrwt>
<totfact> 0.26121011E+03</totfact>
</mgrwt>
</event>
<event>
 4    1  0.1361667E-004  0.3625909E+03  0.7818608E-02  0.1057563E+00
          2   -1    0    0  501    0  0.00000000000E+00  0.00000000000E+00  0.19732065689E+03  0.19732065690E+03  0.25500000000E-02 0.  1.
         -2   -1    0    0    0  501 -0.00000000000E+00 -0.00000000000E+00 -0.16657167819E+03  0.16657167821E+03  0.25500000000E-02 0. -1.
    5000001    1    1    2    0    0 -0.29248026924E+02  0.11647514230E+03 -0.32934837362E+02  0.17786401931E+03  0.12700000000E+03 0.  0.
   -5000001    1    1    2    0    0  0.29248026924E+02 -0.11647514230E+03  0.63683816062E+02  0.18602831580E+03  0.12700000000E+03 0.  0.
<mgrwt>
<rscale>  0 0.36259086E+03</rscale>
<asrwt>0</asrwt>
<pdfrwt beam="1">  1        2 0.28188665E-01 0.36259086E+03</pdfrwt>
<pdfrwt beam="2">  1       -2 0.23795954E-01 0.36259086E+03</pdfrwt>
<totfact> 0.29318157E+03</totfact>
</mgrwt>
</event>
<event>
 4    1  0.1361667E-004  0.3477619E+03  0.7818608E-02  0.1063537E+00
          2   -1    0    0  501    0  0.00000000000E+00  0.00000000000E+00  0.19573879430E+03  0.19573879432E+03  0.25500000000E-02 0.  1.
         -2   -1    0    0    0  501 -0.00000000000E+00 -0.00000000000E+00 -0.15446393255E+03  0.15446393257E+03  0.25500000000E-02 0. -1.
    5000001    1    1    2    0    0 -0.10408150394E+03 -0.32870624081E+02  0.67786412896E+02  0.18065833821E+03  0.12700000000E+03 0.  0.
   -5000001    1    1    2    0    0  0.10408150394E+03  0.32870624081E+02 -0.26511551138E+02  0.16954438868E+03  0.12700000000E+03 0.  0.
<mgrwt>
<rscale>  0 0.34776190E+03</rscale>
<asrwt>0</asrwt>
<pdfrwt beam="1">  1        2 0.27962685E-01 0.34776190E+03</pdfrwt>
<pdfrwt beam="2">  1       -2 0.22066276E-01 0.34776190E+03</pdfrwt>
<totfact> 0.33735673E+03</totfact>
</mgrwt>
</event>
<event>
 4    1  0.1361667E-004  0.4725475E+03  0.7818608E-02  0.1021204E+00
          2   -1    0    0  501    0  0.00000000000E+00  0.00000000000E+00  0.13123243287E+04  0.13123243287E+04  0.25500000000E-02 0.  1.
         -2   -1    0    0    0  501 -0.00000000000E+00 -0.00000000000E+00 -0.42539236535E+02  0.42539236611E+02  0.25500000000E-02 0. -1.
    5000001    1    1    2    0    0 -0.19495154478E+03 -0.41108838352E+02  0.63627853791E+03  0.67873074132E+03  0.12700000000E+03 0.  0.
   -5000001    1    1    2    0    0  0.19495154478E+03  0.41108838352E+02  0.63350655428E+03  0.67613282402E+03  0.12700000000E+03 0.  0.
<mgrwt>
<rscale>  0 0.47254746E+03</rscale>
<asrwt>0</asrwt>
<pdfrwt beam="1">  1        2 0.18747487E+00 0.47254746E+03</pdfrwt>
<pdfrwt beam="2">  1       -2 0.60770350E-02 0.47254746E+03</pdfrwt>
<totfact> 0.28336958E+03</totfact>
</mgrwt>
</event>
<event>
 4    1  0.1361667E-004  0.4327854E+03  0.7818608E-02  0.1032984E+00
          2   -1    0    0  501    0  0.00000000000E+00  0.00000000000E+00  0.20339091291E+04  0.20339091291E+04  0.25500000000E-02 0.  1.
         -2   -1    0    0    0  501 -0.00000000000E+00 -0.00000000000E+00 -0.23022557636E+02  0.23022557777E+02  0.25500000000E-02 0. -1.
    5000001    1    1    2    0    0 -0.68459094567E+02 -0.15672543140E+03  0.82463269356E+03  0.85170275787E+03  0.12700000000E+03 0.  0.
   -5000001    1    1    2    0    0  0.68459094567E+02  0.15672543140E+03  0.11862538779E+04  0.12052289290E+04  0.12700000000E+03 0.  0.
<mgrwt>
<rscale>  0 0.43278535E+03</rscale>
<asrwt>0</asrwt>
<pdfrwt beam="1">  1        2 0.29055843E+00 0.43278535E+03</pdfrwt>
<pdfrwt beam="2">  1       -2 0.32889370E-02 0.43278535E+03</pdfrwt>
<totfact> 0.31239649E+03</totfact>
</mgrwt>
</event>
<event>
 4    1  0.1361667E-004  0.2839604E+03  0.7818608E-02  0.1093545E+00
         -2   -1    0    0    0  501 -0.00000000000E+00  0.00000000000E+00  0.74284166505E+02  0.74284166549E+02  0.25500000000E-02 0. -1.
          2   -1    0    0  501    0  0.00000000000E+00 -0.00000000000E+00 -0.27136839699E+03  0.27136839700E+03  0.25500000000E-02 0.  1.
    5000001    1    1    2    0    0  0.34942212117E+02 -0.28513821533E+02 -0.44167684666E+02  0.14182306080E+03  0.12700000000E+03 0.  0.
   -5000001    1    1    2    0    0 -0.34942212117E+02  0.28513821533E+02 -0.15291654582E+03  0.20382950275E+03  0.12700000000E+03 0.  0.
<mgrwt>
<rscale>  0 0.28396039E+03</rscale>
<asrwt>0</asrwt>
<pdfrwt beam="1">  1        2 0.38766913E-01 0.28396039E+03</pdfrwt>
<pdfrwt beam="2">  1       -2 0.10612024E-01 0.28396039E+03</pdfrwt>
<totfact> 0.79256974E+03</totfact>
</mgrwt>
</event>
<event>
 4    1  0.1361667E-004  0.5408767E+03  0.7818608E-02  0.1003628E+00
         -2   -1    0    0    0  501 -0.00000000000E+00  0.00000000000E+00  0.40728935005E+02  0.40728935084E+02  0.25500000000E-02 0. -1.
          2   -1    0    0  501    0  0.00000000000E+00 -0.00000000000E+00 -0.17956991359E+04  0.17956991359E+04  0.25500000000E-02 0.  1.
    5000001    1    1    2    0    0  0.16900638567E+02  0.22845402590E+03 -0.11060315915E+04  0.11366229608E+04  0.12700000000E+03 0.  0.
   -5000001    1    1    2    0    0 -0.16900638567E+02 -0.22845402590E+03 -0.64893860941E+03  0.69980511024E+03  0.12700000000E+03 0.  0.
<mgrwt>
<rscale>  0 0.54087675E+03</rscale>
<asrwt>0</asrwt>
<pdfrwt beam="1">  1        2 0.25652840E+00 0.54087675E+03</pdfrwt>
<pdfrwt beam="2">  1       -2 0.58184204E-02 0.54087675E+03</pdfrwt>
<totfact> 0.17049466E+03</totfact>
</mgrwt>
</event>
<event>
 4    1  0.1361667E-004  0.4677259E+03  0.7818608E-02  0.1022564E+00
          2   -1    0    0  501    0  0.00000000000E+00  0.00000000000E+00  0.47042585124E+03  0.47042585124E+03  0.25500000000E-02 0.  1.
         -2   -1    0    0    0  501 -0.00000000000E+00 -0.00000000000E+00 -0.11626038388E+03  0.11626038391E+03  0.25500000000E-02 0. -1.
    5000001    1    1    2    0    0  0.25930431239E+02  0.18855921026E+03  0.23770666176E+03  0.32994002498E+03  0.12700000000E+03 0.  0.
   -5000001    1    1    2    0    0 -0.25930431239E+02 -0.18855921026E+03  0.11645880560E+03  0.25674621018E+03  0.12700000000E+03 0.  0.
<mgrwt>
<rscale>  0 0.46772595E+03</rscale>
<asrwt>0</asrwt>
<pdfrwt beam="1">  1        2 0.67203693E-01 0.46772595E+03</pdfrwt>
<pdfrwt beam="2">  1       -2 0.16608626E-01 0.46772595E+03</pdfrwt>
<totfact> 0.21059911E+03</totfact>
</mgrwt>
</event>
<event>
 4    1  0.1361667E-004  0.4139091E+03  0.7818608E-02  0.1039067E+00
          2   -1    0    0  501    0  0.00000000000E+00  0.00000000000E+00  0.13926541363E+04  0.13926541363E+04  0.25500000000E-02 0.  1.
         -2   -1    0    0    0  501 -0.00000000000E+00 -0.00000000000E+00 -0.30754364398E+02  0.30754364504E+02  0.25500000000E-02 0. -1.
    5000001    1    1    2    0    0  0.42661666413E+02  0.14189705302E+03  0.44402712909E+03  0.48501946642E+03  0.12700000000E+03 0.  0.
   -5000001    1    1    2    0    0 -0.42661666413E+02 -0.14189705302E+03  0.91787264283E+03  0.93838903440E+03  0.12700000000E+03 0.  0.
<mgrwt>
<rscale>  0 0.41390913E+03</rscale>
<asrwt>0</asrwt>
<pdfrwt beam="1">  1        2 0.19895065E+00 0.41390913E+03</pdfrwt>
<pdfrwt beam="2">  1       -2 0.43934794E-02 0.41390913E+03</pdfrwt>
<totfact> 0.42368395E+03</totfact>
</mgrwt>
</event>
<event>
 4    1  0.1361667E-004  0.2884223E+03  0.7818608E-02  0.1091176E+00
          2   -1    0    0  501    0  0.00000000000E+00  0.00000000000E+00  0.78764289175E+03  0.78764289176E+03  0.25500000000E-02 0.  1.
         -2   -1    0    0    0  501 -0.00000000000E+00 -0.00000000000E+00 -0.26403908739E+02  0.26403908862E+02  0.25500000000E-02 0. -1.
    5000001    1    1    2    0    0 -0.58082095381E+02 -0.12095976545E+02  0.47624927310E+03  0.49644960730E+03  0.12700000000E+03 0.  0.
   -5000001    1    1    2    0    0  0.58082095381E+02  0.12095976545E+02  0.28498970991E+03  0.31759719332E+03  0.12700000000E+03 0.  0.
<mgrwt>
<rscale>  0 0.28842227E+03</rscale>
<asrwt>0</asrwt>
<pdfrwt beam="1">  1        2 0.11252040E+00 0.28842227E+03</pdfrwt>
<pdfrwt beam="2">  1       -2 0.37719874E-02 0.28842227E+03</pdfrwt>
<totfact> 0.11914271E+04</totfact>
</mgrwt>
</event>
<event>
 4    1  0.1361667E-004  0.3304757E+03  0.7818608E-02  0.1070927E+00
          2   -1    0    0  501    0  0.00000000000E+00  0.00000000000E+00  0.56252989974E+03  0.56252989974E+03  0.25500000000E-02 0.  1.
         -2   -1    0    0    0  501 -0.00000000000E+00 -0.00000000000E+00 -0.48537058627E+02  0.48537058694E+02  0.25500000000E-02 0. -1.
    5000001    1    1    2    0    0  0.84638332304E+02  0.53349355815E+02  0.32010157408E+03  0.35861374596E+03  0.12700000000E+03 0.  0.
   -5000001    1    1    2    0    0 -0.84638332304E+02 -0.53349355815E+02  0.19389126703E+03  0.25245321248E+03  0.12700000000E+03 0.  0.
<mgrwt>
<rscale>  0 0.33047570E+03</rscale>
<asrwt>0</asrwt>
<pdfrwt beam="1">  1        2 0.80361410E-01 0.33047570E+03</pdfrwt>
<pdfrwt beam="2">  1       -2 0.69338659E-02 0.33047570E+03</pdfrwt>
<totfact> 0.70246822E+03</totfact>
</mgrwt>
</event>
<event>
 4    1  0.1361667E-004  0.3515169E+03  0.7818608E-02  0.1061994E+00
         -2   -1    0    0    0  501 -0.00000000000E+00  0.00000000000E+00  0.45277020909E+02  0.45277020981E+02  0.25500000000E-02 0. -1.
          2   -1    0    0  501    0  0.00000000000E+00 -0.00000000000E+00 -0.68226718313E+03  0.68226718313E+03  0.25500000000E-02 0.  1.
    5000001    1    1    2    0    0 -0.18743848317E+01 -0.90236288317E+02 -0.48684328857E+03  0.51116679144E+03  0.12700000000E+03 0.  0.
   -5000001    1    1    2    0    0  0.18743848317E+01  0.90236288317E+02 -0.15014687365E+03  0.21637741267E+03  0.12700000000E+03 0.  0.
<mgrwt>
<rscale>  0 0.35151686E+03</rscale>
<asrwt>0</asrwt>
<pdfrwt beam="1">  1        2 0.97466734E-01 0.35151686E+03</pdfrwt>
<pdfrwt beam="2">  1       -2 0.64681463E-02 0.35151686E+03</pdfrwt>
<totfact> 0.62654863E+03</totfact>
</mgrwt>
</event>
<event>
 4    1  0.1361667E-004  0.2911363E+03  0.7818608E-02  0.1089757E+00
          2   -1    0    0  501    0  0.00000000000E+00  0.00000000000E+00  0.68175195547E+03  0.68175195548E+03  0.25500000000E-02 0.  1.
         -2   -1    0    0    0  501 -0.00000000000E+00 -0.00000000000E+00 -0.31081802706E+02  0.31081802811E+02  0.25500000000E-02 0. -1.
    5000001    1    1    2    0    0 -0.30248459229E+02  0.64290875500E+02  0.33409282920E+03  0.36441090060E+03  0.12700000000E+03 0.  0.
   -5000001    1    1    2    0    0  0.30248459229E+02 -0.64290875500E+02  0.31657732357E+03  0.34842285769E+03  0.12700000000E+03 0.  0.
<mgrwt>
<rscale>  0 0.29113626E+03</rscale>
<asrwt>0</asrwt>
<pdfrwt beam="1">  1        2 0.97393135E-01 0.29113626E+03</pdfrwt>
<pdfrwt beam="2">  1       -2 0.44402576E-02 0.29113626E+03</pdfrwt>
<totfact> 0.11092520E+04</totfact>
</mgrwt>
</event>
<event>
 4    1  0.1361667E-004  0.5809211E+03  0.7818608E-02  0.9945799E-01
         -2   -1    0    0    0  501 -0.00000000000E+00  0.00000000000E+00  0.37279473164E+02  0.37279473251E+02  0.25500000000E-02 0. -1.
          2   -1    0    0  501    0  0.00000000000E+00 -0.00000000000E+00 -0.22631043912E+04  0.22631043912E+04  0.25500000000E-02 0.  1.
    5000001    1    1    2    0    0 -0.81095644050E+02  0.16204659983E+03 -0.18579901333E+04  0.18711205037E+04  0.12700000000E+03 0.  0.
   -5000001    1    1    2    0    0  0.81095644050E+02 -0.16204659983E+03 -0.36783478468E+03  0.42926336068E+03  0.12700000000E+03 0.  0.
<mgrwt>
<rscale>  0 0.58092113E+03</rscale>
<asrwt>0</asrwt>
<pdfrwt beam="1">  1        2 0.32330054E+00 0.58092113E+03</pdfrwt>
<pdfrwt beam="2">  1       -2 0.53256404E-02 0.58092113E+03</pdfrwt>
<totfact> 0.11377671E+03</totfact>
</mgrwt>
</event>
<event>
 4    1  0.1361667E-004  0.3225920E+03  0.7818608E-02  0.1074463E+00
          2   -1    0    0  501    0  0.00000000000E+00  0.00000000000E+00  0.20699320335E+03  0.20699320336E+03  0.25500000000E-02 0.  1.
         -2   -1    0    0    0  501 -0.00000000000E+00 -0.00000000000E+00 -0.12568721636E+03  0.12568721639E+03  0.25500000000E-02 0. -1.
    5000001    1    1    2    0    0 -0.78319233309E+02 -0.22529046671E+02 -0.18101873145E+02  0.15198071608E+03  0.12700000000E+03 0.  0.
   -5000001    1    1    2    0    0  0.78319233309E+02  0.22529046671E+02  0.99407860132E+02  0.18069970367E+03  0.12700000000E+03 0.  0.
<mgrwt>
<rscale>  0 0.32259200E+03</rscale>
<asrwt>0</asrwt>
<pdfrwt beam="1">  1        2 0.29570458E-01 0.32259200E+03</pdfrwt>
<pdfrwt beam="2">  1       -2 0.17955317E-01 0.32259200E+03</pdfrwt>
<totfact> 0.45092771E+03</totfact>
</mgrwt>
</event>
<event>
 4    1  0.1361667E-004  0.3394968E+03  0.7818608E-02  0.1067010E+00
          2   -1    0    0  501    0  0.00000000000E+00  0.00000000000E+00  0.20822271311E+04  0.20822271311E+04  0.25500000000E-02 0.  1.
         -2   -1    0    0    0  501 -0.00000000000E+00 -0.00000000000E+00 -0.13838317745E+02  0.13838317980E+02  0.25500000000E-02 0. -1.
    5000001    1    1    2    0    0  0.82551091414E+02 -0.70352579935E+02  0.84678900669E+03  0.86310184223E+03  0.12700000000E+03 0.  0.
   -5000001    1    1    2    0    0 -0.82551091414E+02  0.70352579935E+02  0.12215998067E+04  0.12329636069E+04  0.12700000000E+03 0.  0.
<mgrwt>
<rscale>  0 0.33949681E+03</rscale>
<asrwt>0</asrwt>
<pdfrwt beam="1">  1        2 0.29746125E+00 0.33949681E+03</pdfrwt>
<pdfrwt beam="2">  1       -2 0.19769010E-02 0.33949681E+03</pdfrwt>
<totfact> 0.63402573E+03</totfact>
</mgrwt>
</event>
<event>
 4    1  0.1361667E-004  0.8210532E+03  0.7818608E-02  0.9530034E-01
         -2   -1    0    0    0  501 -0.00000000000E+00  0.00000000000E+00  0.54022247745E+03  0.54022247746E+03  0.25500000000E-02 0. -1.
          2   -1    0    0  501    0  0.00000000000E+00 -0.00000000000E+00 -0.31196795162E+03  0.31196795163E+03  0.25500000000E-02 0.  1.
    5000001    1    1    2    0    0 -0.29465089756E+03  0.22735342839E+03 -0.82173136197E+01  0.39332589169E+03  0.12700000000E+03 0.  0.
   -5000001    1    1    2    0    0  0.29465089756E+03 -0.22735342839E+03  0.23647183945E+03  0.45886453740E+03  0.12700000000E+03 0.  0.
<mgrwt>
<rscale>  0 0.82105323E+03</rscale>
<asrwt>0</asrwt>
<pdfrwt beam="1">  1        2 0.44566850E-01 0.82105323E+03</pdfrwt>
<pdfrwt beam="2">  1       -2 0.77174640E-01 0.82105323E+03</pdfrwt>
<totfact> 0.17221800E+02</totfact>
</mgrwt>
</event>
<event>
 4    1  0.1361667E-004  0.3516574E+03  0.7818608E-02  0.1061937E+00
         -2   -1    0    0    0  501 -0.00000000000E+00  0.00000000000E+00  0.33175842857E+02  0.33175842955E+02  0.25500000000E-02 0. -1.
          2   -1    0    0  501    0  0.00000000000E+00 -0.00000000000E+00 -0.93187462298E+03  0.93187462298E+03  0.25500000000E-02 0.  1.
    5000001    1    1    2    0    0 -0.11356883953E+03 -0.37306319751E+02 -0.51053437937E+03  0.53950347110E+03  0.12700000000E+03 0.  0.
   -5000001    1    1    2    0    0  0.11356883953E+03  0.37306319751E+02 -0.38816440075E+03  0.42554699483E+03  0.12700000000E+03 0.  0.
<mgrwt>
<rscale>  0 0.35165737E+03</rscale>
<asrwt>0</asrwt>
<pdfrwt beam="1">  1        2 0.13312493E+00 0.35165737E+03</pdfrwt>
<pdfrwt beam="2">  1       -2 0.47394067E-02 0.35165737E+03</pdfrwt>
<totfact> 0.68394833E+03</totfact>
</mgrwt>
</event>
<event>
 4    1  0.1361667E-004  0.3240456E+03  0.7818608E-02  0.1073802E+00
          2   -1    0    0  501    0  0.00000000000E+00  0.00000000000E+00  0.18499115230E+04  0.18499115230E+04  0.25500000000E-02 0.  1.
         -2   -1    0    0    0  501 -0.00000000000E+00 -0.00000000000E+00 -0.14190617971E+02  0.14190618200E+02  0.25500000000E-02 0. -1.
    5000001    1    1    2    0    0 -0.52513231914E+02  0.85597106615E+02  0.88245338639E+03  0.89718308240E+03  0.12700000000E+03 0.  0.
   -5000001    1    1    2    0    0  0.52513231914E+02 -0.85597106615E+02  0.95326751860E+03  0.96691905877E+03  0.12700000000E+03 0.  0.
<mgrwt>
<rscale>  0 0.32404560E+03</rscale>
<asrwt>0</asrwt>
<pdfrwt beam="1">  1        2 0.26427353E+00 0.32404560E+03</pdfrwt>
<pdfrwt beam="2">  1       -2 0.20272277E-02 0.32404560E+03</pdfrwt>
<totfact> 0.79433233E+03</totfact>
</mgrwt>
</event>
<event>
 4    1  0.1361667E-004  0.3692329E+03  0.7818608E-02  0.1054987E+00
         -2   -1    0    0    0  501 -0.00000000000E+00  0.00000000000E+00  0.20842692820E+02  0.20842692975E+02  0.25500000000E-02 0. -1.
          2   -1    0    0  501    0  0.00000000000E+00 -0.00000000000E+00 -0.16352606717E+04  0.16352606717E+04  0.25500000000E-02 0.  1.
    5000001    1    1    2    0    0  0.82612425889E+02  0.59983521744E+02 -0.41796232847E+03  0.44860265694E+03  0.12700000000E+03 0.  0.
   -5000001    1    1    2    0    0 -0.82612425889E+02 -0.59983521744E+02 -0.11964556504E+04  0.12075007077E+04  0.12700000000E+03 0.  0.
<mgrwt>
<rscale>  0 0.36923291E+03</rscale>
<asrwt>0</asrwt>
<pdfrwt beam="1">  1        2 0.23360859E+00 0.36923291E+03</pdfrwt>
<pdfrwt beam="2">  1       -2 0.29775286E-02 0.36923291E+03</pdfrwt>
<totfact> 0.57324941E+03</totfact>
</mgrwt>
</event>
<event>
 4    1  0.1361667E-004  0.3534275E+03  0.7818608E-02  0.1061217E+00
          2   -1    0    0  501    0  0.00000000000E+00  0.00000000000E+00  0.12840281236E+03  0.12840281238E+03  0.25500000000E-02 0.  1.
         -2   -1    0    0    0  501 -0.00000000000E+00 -0.00000000000E+00 -0.24320149582E+03  0.24320149584E+03  0.25500000000E-02 0. -1.
    5000001    1    1    2    0    0 -0.46341242096E+00 -0.11335612940E+03 -0.10726117580E+03  0.20120583157E+03  0.12700000000E+03 0.  0.
   -5000001    1    1    2    0    0  0.46341242096E+00  0.11335612940E+03 -0.75375076614E+01  0.17039847665E+03  0.12700000000E+03 0.  0.
<mgrwt>
<rscale>  0 0.35342754E+03</rscale>
<asrwt>0</asrwt>
<pdfrwt beam="1">  1        2 0.18343259E-01 0.35342754E+03</pdfrwt>
<pdfrwt beam="2">  1       -2 0.34743071E-01 0.35342754E+03</pdfrwt>
<totfact> 0.24041985E+03</totfact>
</mgrwt>
</event>
<event>
 4    1  0.1361667E-004  0.6232837E+03  0.7818608E-02  0.9858244E-01
         -2   -1    0    0    0  501 -0.00000000000E+00  0.00000000000E+00  0.62992846434E+02  0.62992846485E+02  0.25500000000E-02 0. -1.
          2   -1    0    0  501    0  0.00000000000E+00 -0.00000000000E+00 -0.15417725705E+04  0.15417725705E+04  0.25500000000E-02 0.  1.
    5000001    1    1    2    0    0 -0.53935179351E+01 -0.27412163235E+03 -0.54297111750E+03  0.62138425616E+03  0.12700000000E+03 0.  0.
   -5000001    1    1    2    0    0  0.53935179351E+01  0.27412163235E+03 -0.93580860657E+03  0.98338116084E+03  0.12700000000E+03 0.  0.
<mgrwt>
<rscale>  0 0.62328370E+03</rscale>
<asrwt>0</asrwt>
<pdfrwt beam="1">  1        2 0.22025320E+00 0.62328370E+03</pdfrwt>
<pdfrwt beam="2">  1       -2 0.89989790E-02 0.62328370E+03</pdfrwt>
<totfact> 0.11481136E+03</totfact>
</mgrwt>
</event>
<event>
 4    1  0.1361667E-004  0.3870481E+03  0.7818608E-02  0.1048359E+00
         -2   -1    0    0    0  501 -0.00000000000E+00  0.00000000000E+00  0.24606150048E+02  0.24606150180E+02  0.25500000000E-02 0. -1.
          2   -1    0    0  501    0  0.00000000000E+00 -0.00000000000E+00 -0.15220402135E+04  0.15220402135E+04  0.25500000000E-02 0.  1.
    5000001    1    1    2    0    0  0.53364219538E+02 -0.13592207015E+03 -0.74859745092E+03  0.77320740594E+03  0.12700000000E+03 0.  0.
   -5000001    1    1    2    0    0 -0.53364219538E+02  0.13592207015E+03 -0.74883661252E+03  0.77343895772E+03  0.12700000000E+03 0.  0.
<mgrwt>
<rscale>  0 0.38704806E+03</rscale>
<asrwt>0</asrwt>
<pdfrwt beam="1">  1        2 0.21743426E+00 0.38704806E+03</pdfrwt>
<pdfrwt beam="2">  1       -2 0.35151653E-02 0.38704806E+03</pdfrwt>
<totfact> 0.50955703E+03</totfact>
</mgrwt>
</event>
<event>
 4    1  0.1361667E-004  0.4400361E+03  0.7818608E-02  0.1030736E+00
         -2   -1    0    0    0  501 -0.00000000000E+00  0.00000000000E+00  0.16594217454E+03  0.16594217456E+03  0.25500000000E-02 0. -1.
          2   -1    0    0  501    0  0.00000000000E+00 -0.00000000000E+00 -0.29171568164E+03  0.29171568165E+03  0.25500000000E-02 0.  1.
    5000001    1    1    2    0    0  0.78498987906E+02 -0.76323567033E+02  0.85266205990E+02  0.18811353984E+03  0.12700000000E+03 0.  0.
   -5000001    1    1    2    0    0 -0.78498987906E+02  0.76323567033E+02 -0.21103971309E+03  0.26954431637E+03  0.12700000000E+03 0.  0.
<mgrwt>
<rscale>  0 0.44003606E+03</rscale>
<asrwt>0</asrwt>
<pdfrwt beam="1">  1        2 0.41673669E-01 0.44003606E+03</pdfrwt>
<pdfrwt beam="2">  1       -2 0.23706025E-01 0.44003606E+03</pdfrwt>
<totfact> 0.19244152E+03</totfact>
</mgrwt>
</event>
<event>
 4    1  0.1361667E-004  0.6629631E+03  0.7818608E-02  0.9782754E-01
         -2   -1    0    0    0  501 -0.00000000000E+00  0.00000000000E+00  0.77224732150E+02  0.77224732193E+02  0.25500000000E-02 0. -1.
          2   -1    0    0  501    0  0.00000000000E+00 -0.00000000000E+00 -0.14228605203E+04  0.14228605203E+04  0.25500000000E-02 0.  1.
    5000001    1    1    2    0    0 -0.14929745078E+03 -0.97331066719E+02 -0.10946537819E+03  0.24469314331E+03  0.12700000000E+03 0.  0.
   -5000001    1    1    2    0    0  0.14929745078E+03  0.97331066719E+02 -0.12361704099E+04  0.12553921092E+04  0.12700000000E+03 0.  0.
<mgrwt>
<rscale>  0 0.66296311E+03</rscale>
<asrwt>0</asrwt>
<pdfrwt beam="1">  1        2 0.20326577E+00 0.66296311E+03</pdfrwt>
<pdfrwt beam="2">  1       -2 0.11032105E-01 0.66296311E+03</pdfrwt>
<totfact> 0.95073907E+02</totfact>
</mgrwt>
</event>
<event>
 4    1  0.1361667E-004  0.3309598E+03  0.7818608E-02  0.1070713E+00
         -2   -1    0    0    0  501 -0.00000000000E+00  0.00000000000E+00  0.58368931047E+03  0.58368931047E+03  0.25500000000E-02 0. -1.
          2   -1    0    0  501    0  0.00000000000E+00 -0.00000000000E+00 -0.46914681160E+02  0.46914681229E+02  0.25500000000E-02 0.  1.
    5000001    1    1    2    0    0 -0.15209706471E+02 -0.10459451292E+03  0.25100229460E+03  0.30050374241E+03  0.12700000000E+03 0.  0.
   -5000001    1    1    2    0    0  0.15209706471E+02  0.10459451292E+03  0.28577233470E+03  0.33010024930E+03  0.12700000000E+03 0.  0.
<mgrwt>
<rscale>  0 0.33095980E+03</rscale>
<asrwt>0</asrwt>
<pdfrwt beam="1">  1        2 0.67020975E-02 0.33095980E+03</pdfrwt>
<pdfrwt beam="2">  1       -2 0.83384185E-01 0.33095980E+03</pdfrwt>
<totfact> 0.13951834E+03</totfact>
</mgrwt>
</event>
<event>
 4    1  0.1361667E-004  0.6817421E+03  0.7818608E-02  0.9748975E-01
          2   -1    0    0  501    0  0.00000000000E+00  0.00000000000E+00  0.20871209467E+04  0.20871209467E+04  0.25500000000E-02 0.  1.
         -2   -1    0    0    0  501 -0.00000000000E+00 -0.00000000000E+00 -0.55671461306E+02  0.55671461364E+02  0.25500000000E-02 0. -1.
    5000001    1    1    2    0    0 -0.66364455448E+02  0.86541059798E+02  0.19490254172E+04  0.19562010819E+04  0.12700000000E+03 0.  0.
   -5000001    1    1    2    0    0  0.66364455448E+02 -0.86541059798E+02  0.82424068191E+02  0.18659132615E+03  0.12700000000E+03 0.  0.
<mgrwt>
<rscale>  0 0.68174210E+03</rscale>
<asrwt>0</asrwt>
<pdfrwt beam="1">  1        2 0.29816010E+00 0.68174210E+03</pdfrwt>
<pdfrwt beam="2">  1       -2 0.79530668E-02 0.68174210E+03</pdfrwt>
<totfact> 0.73735210E+02</totfact>
</mgrwt>
</event>
<event>
 4    1  0.1361667E-004  0.6326019E+03  0.7818608E-02  0.9839985E-01
         -2   -1    0    0    0  501 -0.00000000000E+00  0.00000000000E+00  0.10194821916E+03  0.10194821919E+03  0.25500000000E-02 0. -1.
          2   -1    0    0  501    0  0.00000000000E+00 -0.00000000000E+00 -0.98134407907E+03  0.98134407907E+03  0.25500000000E-02 0.  1.
    5000001    1    1    2    0    0 -0.27732320527E+03 -0.75593520662E+02 -0.50131578659E+03  0.59166634046E+03  0.12700000000E+03 0.  0.
   -5000001    1    1    2    0    0  0.27732320527E+03  0.75593520662E+02 -0.37808007332E+03  0.49162595781E+03  0.12700000000E+03 0.  0.
<mgrwt>
<rscale>  0 0.63260187E+03</rscale>
<asrwt>0</asrwt>
<pdfrwt beam="1">  1        2 0.14019201E+00 0.63260187E+03</pdfrwt>
<pdfrwt beam="2">  1       -2 0.14564032E-01 0.63260187E+03</pdfrwt>
<totfact> 0.10670686E+03</totfact>
</mgrwt>
</event>
<event>
 4    1  0.1361667E-004  0.6981075E+03  0.7818608E-02  0.9720474E-01
         -2   -1    0    0    0  501 -0.00000000000E+00  0.00000000000E+00  0.10699542755E+03  0.10699542758E+03  0.25500000000E-02 0. -1.
          2   -1    0    0  501    0  0.00000000000E+00 -0.00000000000E+00 -0.11387264884E+04  0.11387264884E+04  0.25500000000E-02 0.  1.
    5000001    1    1    2    0    0  0.10106113604E+03  0.29533267923E+03 -0.67818742087E+03  0.75729909710E+03  0.12700000000E+03 0.  0.
   -5000001    1    1    2    0    0 -0.10106113604E+03 -0.29533267923E+03 -0.35354364001E+03  0.48842281891E+03  0.12700000000E+03 0.  0.
<mgrwt>
<rscale>  0 0.69810752E+03</rscale>
<asrwt>0</asrwt>
<pdfrwt beam="1">  1        2 0.16267521E+00 0.69810752E+03</pdfrwt>
<pdfrwt beam="2">  1       -2 0.15285062E-01 0.69810752E+03</pdfrwt>
<totfact> 0.79129487E+02</totfact>
</mgrwt>
</event>
<event>
 4    1  0.1361667E-004  0.7870946E+03  0.7818608E-02  0.9578887E-01
         -2   -1    0    0    0  501 -0.00000000000E+00  0.00000000000E+00  0.62153707777E+02  0.62153707830E+02  0.25500000000E-02 0. -1.
          2   -1    0    0  501    0  0.00000000000E+00 -0.00000000000E+00 -0.24918783882E+04  0.24918783882E+04  0.25500000000E-02 0.  1.
    5000001    1    1    2    0    0 -0.34984218480E+03  0.52526024386E+02 -0.83641984335E+03  0.91699274362E+03  0.12700000000E+03 0.  0.
   -5000001    1    1    2    0    0  0.34984218480E+03 -0.52526024386E+02 -0.15933048371E+04  0.16370393524E+04  0.12700000000E+03 0.  0.
<mgrwt>
<rscale>  0 0.78709461E+03</rscale>
<asrwt>0</asrwt>
<pdfrwt beam="1">  1        2 0.35598256E+00 0.78709461E+03</pdfrwt>
<pdfrwt beam="2">  1       -2 0.88791027E-02 0.78709461E+03</pdfrwt>
<totfact> 0.38133996E+02</totfact>
</mgrwt>
</event>
<event>
 4    1  0.1361667E-004  0.3747206E+03  0.7818608E-02  0.1052902E+00
         -2   -1    0    0    0  501 -0.00000000000E+00  0.00000000000E+00  0.22408619349E+02  0.22408619494E+02  0.25500000000E-02 0. -1.
          2   -1    0    0  501    0  0.00000000000E+00 -0.00000000000E+00 -0.15665351899E+04  0.15665351900E+04  0.25500000000E-02 0.  1.
    5000001    1    1    2    0    0 -0.27548911684E+02  0.13374463602E+03 -0.69522988746E+03  0.71980564502E+03  0.12700000000E+03 0.  0.
   -5000001    1    1    2    0    0  0.27548911684E+02 -0.13374463602E+03 -0.84889668314E+03  0.86913816442E+03  0.12700000000E+03 0.  0.
<mgrwt>
<rscale>  0 0.37472065E+03</rscale>
<asrwt>0</asrwt>
<pdfrwt beam="1">  1        2 0.22379067E+00 0.37472065E+03</pdfrwt>
<pdfrwt beam="2">  1       -2 0.32012323E-02 0.37472065E+03</pdfrwt>
<totfact> 0.55687789E+03</totfact>
</mgrwt>
</event>
<event>
 4    1  0.1361667E-004  0.2814311E+03  0.7818608E-02  0.1094910E+00
          2   -1    0    0  501    0  0.00000000000E+00  0.00000000000E+00  0.80454528219E+03  0.80454528220E+03  0.25500000000E-02 0.  1.
         -2   -1    0    0    0  501 -0.00000000000E+00 -0.00000000000E+00 -0.24611255516E+02  0.24611255648E+02  0.25500000000E-02 0. -1.
    5000001    1    1    2    0    0  0.31321191365E+02  0.51075221497E+02  0.41667446099E+03  0.43970024075E+03  0.12700000000E+03 0.  0.
   -5000001    1    1    2    0    0 -0.31321191365E+02 -0.51075221497E+02  0.36325956569E+03  0.38945629709E+03  0.12700000000E+03 0.  0.
<mgrwt>
<rscale>  0 0.28143113E+03</rscale>
<asrwt>0</asrwt>
<pdfrwt beam="1">  1        2 0.11493504E+00 0.28143113E+03</pdfrwt>
<pdfrwt beam="2">  1       -2 0.35158936E-02 0.28143113E+03</pdfrwt>
<totfact> 0.12884338E+04</totfact>
</mgrwt>
</event>
<event>
 4    1  0.1361667E-004  0.3430241E+03  0.7818608E-02  0.1065515E+00
         -2   -1    0    0    0  501 -0.00000000000E+00  0.00000000000E+00  0.11226603997E+03  0.11226604000E+03  0.25500000000E-02 0. -1.
          2   -1    0    0  501    0  0.00000000000E+00 -0.00000000000E+00 -0.26202381072E+03  0.26202381073E+03  0.25500000000E-02 0.  1.
    5000001    1    1    2    0    0 -0.11365985441E+03  0.14982438322E+02 -0.87988088767E+02  0.19239007180E+03  0.12700000000E+03 0.  0.
   -5000001    1    1    2    0    0  0.11365985441E+03 -0.14982438322E+02 -0.61769681982E+02  0.18189977893E+03  0.12700000000E+03 0.  0.
<mgrwt>
<rscale>  0 0.34302406E+03</rscale>
<asrwt>0</asrwt>
<pdfrwt beam="1">  1        2 0.37431973E-01 0.34302406E+03</pdfrwt>
<pdfrwt beam="2">  1       -2 0.16038006E-01 0.34302406E+03</pdfrwt>
<totfact> 0.42181727E+03</totfact>
</mgrwt>
</event>
<event>
 4    1  0.1361667E-004  0.4196958E+03  0.7818608E-02  0.1037165E+00
          2   -1    0    0  501    0  0.00000000000E+00  0.00000000000E+00  0.76735803465E+02  0.76735803508E+02  0.25500000000E-02 0.  1.
         -2   -1    0    0    0  501 -0.00000000000E+00 -0.00000000000E+00 -0.57386687181E+03  0.57386687182E+03  0.25500000000E-02 0. -1.
    5000001    1    1    2    0    0 -0.12845772186E+03  0.10675418892E+03 -0.25329099308E+03  0.32891210123E+03  0.12700000000E+03 0.  0.
   -5000001    1    1    2    0    0  0.12845772186E+03 -0.10675418892E+03 -0.24384007527E+03  0.32169057410E+03  0.12700000000E+03 0.  0.
<mgrwt>
<rscale>  0 0.41969577E+03</rscale>
<asrwt>0</asrwt>
<pdfrwt beam="1">  1        2 0.10962258E-01 0.41969577E+03</pdfrwt>
<pdfrwt beam="2">  1       -2 0.81980979E-01 0.41969577E+03</pdfrwt>
<totfact> 0.77662830E+02</totfact>
</mgrwt>
</event>
<event>
 4    1  0.1361667E-004  0.4328744E+03  0.7818608E-02  0.1032956E+00
          2   -1    0    0  501    0  0.00000000000E+00  0.00000000000E+00  0.10524741578E+04  0.10524741578E+04  0.25500000000E-02 0.  1.
         -2   -1    0    0    0  501 -0.00000000000E+00 -0.00000000000E+00 -0.44509472870E+02  0.44509472943E+02  0.25500000000E-02 0. -1.
    5000001    1    1    2    0    0  0.15906964296E+03 -0.63414302682E+02  0.40944860682E+03  0.46162938243E+03  0.12700000000E+03 0.  0.
   -5000001    1    1    2    0    0 -0.15906964296E+03  0.63414302682E+02  0.59851607813E+03  0.63535424833E+03  0.12700000000E+03 0.  0.
<mgrwt>
<rscale>  0 0.43287444E+03</rscale>
<asrwt>0</asrwt>
<pdfrwt beam="1">  1        2 0.15035344E+00 0.43287444E+03</pdfrwt>
<pdfrwt beam="2">  1       -2 0.63584966E-02 0.43287444E+03</pdfrwt>
<totfact> 0.36889592E+03</totfact>
</mgrwt>
</event>
<event>
 4    1  0.1361667E-004  0.4636518E+03  0.7818608E-02  0.1023727E+00
         -2   -1    0    0    0  501 -0.00000000000E+00  0.00000000000E+00  0.22545755863E+02  0.22545756007E+02  0.25500000000E-02 0. -1.
          2   -1    0    0  501    0  0.00000000000E+00 -0.00000000000E+00 -0.23837413176E+04  0.23837413176E+04  0.25500000000E-02 0.  1.
    5000001    1    1    2    0    0  0.15900386247E+03 -0.93615435126E+02 -0.14906096841E+04  0.15073461143E+04  0.12700000000E+03 0.  0.
   -5000001    1    1    2    0    0 -0.15900386247E+03  0.93615435126E+02 -0.87058587764E+03  0.89894095930E+03  0.12700000000E+03 0.  0.
<mgrwt>
<rscale>  0 0.46365181E+03</rscale>
<asrwt>0</asrwt>
<pdfrwt beam="1">  1        2 0.34053431E+00 0.46365181E+03</pdfrwt>
<pdfrwt beam="2">  1       -2 0.32208238E-02 0.46365181E+03</pdfrwt>
<totfact> 0.21539536E+03</totfact>
</mgrwt>
</event>
<event>
 4    1  0.1361667E-004  0.2651015E+03  0.7818608E-02  0.1104116E+00
         -2   -1    0    0    0  501 -0.00000000000E+00  0.00000000000E+00  0.86770400221E+02  0.86770400258E+02  0.25500000000E-02 0. -1.
          2   -1    0    0  501    0  0.00000000000E+00 -0.00000000000E+00 -0.20248496929E+03  0.20248496931E+03  0.25500000000E-02 0.  1.
    5000001    1    1    2    0    0 -0.26395881319E+02 -0.86083090178E+01 -0.29617585717E+02  0.13333059258E+03  0.12700000000E+03 0.  0.
   -5000001    1    1    2    0    0  0.26395881319E+02  0.86083090178E+01 -0.86096983356E+02  0.15592477698E+03  0.12700000000E+03 0.  0.
<mgrwt>
<rscale>  0 0.26510150E+03</rscale>
<asrwt>0</asrwt>
<pdfrwt beam="1">  1        2 0.28926424E-01 0.26510150E+03</pdfrwt>
<pdfrwt beam="2">  1       -2 0.12395772E-01 0.26510150E+03</pdfrwt>
<totfact> 0.84686115E+03</totfact>
</mgrwt>
</event>
<event>
 4    1  0.1361667E-004  0.4933426E+03  0.7818608E-02  0.1015531E+00
          2   -1    0    0  501    0  0.00000000000E+00  0.00000000000E+00  0.71386893457E+03  0.71386893458E+03  0.25500000000E-02 0.  1.
         -2   -1    0    0    0  501 -0.00000000000E+00 -0.00000000000E+00 -0.85235161599E+02  0.85235161638E+02  0.25500000000E-02 0. -1.
    5000001    1    1    2    0    0 -0.33728900114E+02  0.20721317204E+03  0.27325002377E+03  0.36724584798E+03  0.12700000000E+03 0.  0.
   -5000001    1    1    2    0    0  0.33728900114E+02 -0.20721317204E+03  0.35538374921E+03  0.43185824824E+03  0.12700000000E+03 0.  0.
<mgrwt>
<rscale>  0 0.49334262E+03</rscale>
<asrwt>0</asrwt>
<pdfrwt beam="1">  1        2 0.10198127E+00 0.49334262E+03</pdfrwt>
<pdfrwt beam="2">  1       -2 0.12176453E-01 0.49334262E+03</pdfrwt>
<totfact> 0.21756390E+03</totfact>
</mgrwt>
</event>
<event>
 4    1  0.1361667E-004  0.3633683E+03  0.7818608E-02  0.1057258E+00
         -2   -1    0    0    0  501 -0.00000000000E+00  0.00000000000E+00  0.11011369298E+04  0.11011369298E+04  0.25500000000E-02 0. -1.
          2   -1    0    0  501    0  0.00000000000E+00 -0.00000000000E+00 -0.29977318464E+02  0.29977318573E+02  0.25500000000E-02 0.  1.
    5000001    1    1    2    0    0 -0.12099891111E+03 -0.22337290489E+02  0.66544391172E+03  0.68853779176E+03  0.12700000000E+03 0.  0.
   -5000001    1    1    2    0    0  0.12099891111E+03  0.22337290489E+02  0.40571569960E+03  0.44257645660E+03  0.12700000000E+03 0.  0.
<mgrwt>
<rscale>  0 0.36336831E+03</rscale>
<asrwt>0</asrwt>
<pdfrwt beam="1">  1        2 0.42824738E-02 0.36336831E+03</pdfrwt>
<pdfrwt beam="2">  1       -2 0.15730529E+00 0.36336831E+03</pdfrwt>
<totfact> 0.54440536E+02</totfact>
</mgrwt>
</event>
<event>
 4    1  0.1361667E-004  0.4393606E+03  0.7818608E-02  0.1030943E+00
          2   -1    0    0  501    0  0.00000000000E+00  0.00000000000E+00  0.20067859727E+04  0.20067859727E+04  0.25500000000E-02 0.  1.
         -2   -1    0    0    0  501 -0.00000000000E+00 -0.00000000000E+00 -0.24048125829E+02  0.24048125964E+02  0.25500000000E-02 0. -1.
    5000001    1    1    2    0    0  0.86022206186E+02 -0.14692987684E+03  0.73226588788E+03  0.76245035197E+03  0.12700000000E+03 0.  0.
   -5000001    1    1    2    0    0 -0.86022206186E+02  0.14692987684E+03  0.12504719590E+04  0.12683837467E+04  0.12700000000E+03 0.  0.
<mgrwt>
<rscale>  0 0.43936063E+03</rscale>
<asrwt>0</asrwt>
<pdfrwt beam="1">  1        2 0.28668364E+00 0.43936063E+03</pdfrwt>
<pdfrwt beam="2">  1       -2 0.34354474E-02 0.43936063E+03</pdfrwt>
<totfact> 0.30159442E+03</totfact>
</mgrwt>
</event>
<event>
 4    1  0.1361667E-004  0.3447647E+03  0.7818608E-02  0.1064785E+00
         -2   -1    0    0    0  501 -0.00000000000E+00  0.00000000000E+00  0.15940936294E+02  0.15940936498E+02  0.25500000000E-02 0. -1.
          2   -1    0    0  501    0  0.00000000000E+00 -0.00000000000E+00 -0.18641112705E+04  0.18641112705E+04  0.25500000000E-02 0.  1.
    5000001    1    1    2    0    0 -0.10482219521E+03 -0.48310001241E+02 -0.10128777777E+04  0.10273129714E+04  0.12700000000E+03 0.  0.
   -5000001    1    1    2    0    0  0.10482219521E+03  0.48310001241E+02 -0.83529255658E+03  0.85273923558E+03  0.12700000000E+03 0.  0.
<mgrwt>
<rscale>  0 0.34476473E+03</rscale>
<asrwt>0</asrwt>
<pdfrwt beam="1">  1        2 0.26630147E+00 0.34476473E+03</pdfrwt>
<pdfrwt beam="2">  1       -2 0.22772778E-02 0.34476473E+03</pdfrwt>
<totfact> 0.65814513E+03</totfact>
</mgrwt>
</event>
<event>
 4    1  0.1361667E-004  0.3261977E+03  0.7818608E-02  0.1072832E+00
         -2   -1    0    0    0  501 -0.00000000000E+00  0.00000000000E+00  0.59734640193E+02  0.59734640247E+02  0.25500000000E-02 0. -1.
          2   -1    0    0  501    0  0.00000000000E+00 -0.00000000000E+00 -0.44532339550E+03  0.44532339551E+03  0.25500000000E-02 0.  1.
    5000001    1    1    2    0    0  0.43658934115E+02 -0.15471524669E+01 -0.49512238002E+02  0.14313964483E+03  0.12700000000E+03 0.  0.
   -5000001    1    1    2    0    0 -0.43658934115E+02  0.15471524669E+01 -0.33607651731E+03  0.36191839093E+03  0.12700000000E+03 0.  0.
<mgrwt>
<rscale>  0 0.32619769E+03</rscale>
<asrwt>0</asrwt>
<pdfrwt beam="1">  1        2 0.63617626E-01 0.32619769E+03</pdfrwt>
<pdfrwt beam="2">  1       -2 0.85335202E-02 0.32619769E+03</pdfrwt>
<totfact> 0.65828687E+03</totfact>
</mgrwt>
</event>
<event>
 4    1  0.1361667E-004  0.4387054E+03  0.7818608E-02  0.1031145E+00
         -2   -1    0    0    0  501 -0.00000000000E+00  0.00000000000E+00  0.57173105138E+02  0.57173105195E+02  0.25500000000E-02 0. -1.
          2   -1    0    0  501    0  0.00000000000E+00 -0.00000000000E+00 -0.84157769152E+03  0.84157769152E+03  0.25500000000E-02 0.  1.
    5000001    1    1    2    0    0  0.17099346969E+03  0.95501396148E+01 -0.28660993540E+03  0.35721733849E+03  0.12700000000E+03 0.  0.
   -5000001    1    1    2    0    0 -0.17099346969E+03 -0.95501396148E+01 -0.49779465097E+03  0.54153345823E+03  0.12700000000E+03 0.  0.
<mgrwt>
<rscale>  0 0.43870541E+03</rscale>
<asrwt>0</asrwt>
<pdfrwt beam="1">  1        2 0.12022538E+00 0.43870541E+03</pdfrwt>
<pdfrwt beam="2">  1       -2 0.81675870E-02 0.43870541E+03</pdfrwt>
<totfact> 0.33665021E+03</totfact>
</mgrwt>
</event>
<event>
 4    1  0.1361667E-004  0.3625112E+03  0.7818608E-02  0.1057594E+00
         -2   -1    0    0    0  501 -0.00000000000E+00  0.00000000000E+00  0.46964606613E+02  0.46964606682E+02  0.25500000000E-02 0. -1.
          2   -1    0    0  501    0  0.00000000000E+00 -0.00000000000E+00 -0.69953950955E+03  0.69953950955E+03  0.25500000000E-02 0.  1.
    5000001    1    1    2    0    0 -0.10689341553E+03  0.19466593634E+02 -0.18185363037E+03  0.24699168696E+03  0.12700000000E+03 0.  0.
   -5000001    1    1    2    0    0  0.10689341553E+03 -0.19466593634E+02 -0.47072127257E+03  0.49951242927E+03  0.12700000000E+03 0.  0.
<mgrwt>
<rscale>  0 0.36251123E+03</rscale>
<asrwt>0</asrwt>
<pdfrwt beam="1">  1        2 0.99934209E-01 0.36251123E+03</pdfrwt>
<pdfrwt beam="2">  1       -2 0.67092300E-02 0.36251123E+03</pdfrwt>
<totfact> 0.57490105E+03</totfact>
</mgrwt>
</event>
<event>
 4    1  0.1361667E-004  0.3055210E+03  0.7818608E-02  0.1082513E+00
          2   -1    0    0  501    0  0.00000000000E+00  0.00000000000E+00  0.14906029581E+04  0.14906029581E+04  0.25500000000E-02 0.  1.
         -2   -1    0    0    0  501 -0.00000000000E+00 -0.00000000000E+00 -0.15655258711E+02  0.15655258918E+02  0.25500000000E-02 0. -1.
    5000001    1    1    2    0    0  0.64300748489E+02  0.32286552015E+02  0.95959067380E+03  0.97062880079E+03  0.12700000000E+03 0.  0.
   -5000001    1    1    2    0    0 -0.64300748489E+02 -0.32286552015E+02  0.51535702560E+03  0.53562941623E+03  0.12700000000E+03 0.  0.
<mgrwt>
<rscale>  0 0.30552103E+03</rscale>
<asrwt>0</asrwt>
<pdfrwt beam="1">  1        2 0.21294324E+00 0.30552103E+03</pdfrwt>
<pdfrwt beam="2">  1       -2 0.22364660E-02 0.30552103E+03</pdfrwt>
<totfact> 0.10362590E+04</totfact>
</mgrwt>
</event>
<event>
 4    1  0.1361667E-004  0.2829274E+03  0.7818608E-02  0.1094101E+00
          2   -1    0    0  501    0  0.00000000000E+00  0.00000000000E+00  0.20950912946E+04  0.20950912946E+04  0.25500000000E-02 0.  1.
         -2   -1    0    0    0  501 -0.00000000000E+00 -0.00000000000E+00 -0.95518438157E+01  0.95518441561E+01  0.25500000000E-02 0. -1.
    5000001    1    1    2    0    0 -0.15502306937E+02  0.59337603146E+02  0.11248371886E+04  0.11336441124E+04  0.12700000000E+03 0.  0.
   -5000001    1    1    2    0    0  0.15502306937E+02 -0.59337603146E+02  0.96070226218E+03  0.97099902637E+03  0.12700000000E+03 0.  0.
<mgrwt>
<rscale>  0 0.28292745E+03</rscale>
<asrwt>0</asrwt>
<pdfrwt beam="1">  1        2 0.29929892E+00 0.28292745E+03</pdfrwt>
<pdfrwt beam="2">  1       -2 0.13645484E-02 0.28292745E+03</pdfrwt>
<totfact> 0.10762493E+04</totfact>
</mgrwt>
</event>
<event>
 4    1  0.1361667E-004  0.3208056E+03  0.7818608E-02  0.1075279E+00
         -2   -1    0    0    0  501 -0.00000000000E+00  0.00000000000E+00  0.19116588429E+02  0.19116588599E+02  0.25500000000E-02 0. -1.
          2   -1    0    0  501    0  0.00000000000E+00 -0.00000000000E+00 -0.13459021973E+04  0.13459021973E+04  0.25500000000E-02 0.  1.
    5000001    1    1    2    0    0  0.87024746512E+02 -0.30090706531E+02 -0.52091150713E+03  0.54401889249E+03  0.12700000000E+03 0.  0.
   -5000001    1    1    2    0    0 -0.87024746512E+02  0.30090706531E+02 -0.80587410171E+03  0.82099989338E+03  0.12700000000E+03 0.  0.
<mgrwt>
<rscale>  0 0.32080560E+03</rscale>
<asrwt>0</asrwt>
<pdfrwt beam="1">  1        2 0.19227168E+00 0.32080560E+03</pdfrwt>
<pdfrwt beam="2">  1       -2 0.27309421E-02 0.32080560E+03</pdfrwt>
<totfact> 0.91556041E+03</totfact>
</mgrwt>
</event>
<event>
 4    1  0.1361667E-004  0.6064610E+03  0.7818608E-02  0.9892091E-01
         -2   -1    0    0    0  501 -0.00000000000E+00  0.00000000000E+00  0.69829749195E+02  0.69829749242E+02  0.25500000000E-02 0. -1.
          2   -1    0    0  501    0  0.00000000000E+00 -0.00000000000E+00 -0.13167559833E+04  0.13167559833E+04  0.25500000000E-02 0.  1.
    5000001    1    1    2    0    0 -0.91171214984E+02  0.18813485599E+03 -0.21374695059E+03  0.32484407547E+03  0.12700000000E+03 0.  0.
   -5000001    1    1    2    0    0  0.91171214984E+02 -0.18813485599E+03 -0.10331792835E+04  0.10617416571E+04  0.12700000000E+03 0.  0.
<mgrwt>
<rscale>  0 0.60646101E+03</rscale>
<asrwt>0</asrwt>
<pdfrwt beam="1">  1        2 0.18810798E+00 0.60646101E+03</pdfrwt>
<pdfrwt beam="2">  1       -2 0.99756793E-02 0.60646101E+03</pdfrwt>
<totfact> 0.12793988E+03</totfact>
</mgrwt>
</event>
<event>
 4    1  0.1361667E-004  0.3383677E+03  0.7818608E-02  0.1067493E+00
         -2   -1    0    0    0  501 -0.00000000000E+00  0.00000000000E+00  0.70362188152E+03  0.70362188152E+03  0.25500000000E-02 0. -1.
          2   -1    0    0  501    0  0.00000000000E+00 -0.00000000000E+00 -0.40679773469E+02  0.40679773549E+02  0.25500000000E-02 0.  1.
    5000001    1    1    2    0    0 -0.10288048225E+03  0.34958792251E+02  0.38915426981E+03  0.42352869619E+03  0.12700000000E+03 0.  0.
   -5000001    1    1    2    0    0  0.10288048225E+03 -0.34958792251E+02  0.27378783824E+03  0.32077295889E+03  0.12700000000E+03 0.  0.
<mgrwt>
<rscale>  0 0.33836772E+03</rscale>
<asrwt>0</asrwt>
<pdfrwt beam="1">  1        2 0.58113964E-02 0.33836772E+03</pdfrwt>
<pdfrwt beam="2">  1       -2 0.10051741E+00 0.33836772E+03</pdfrwt>
<totfact> 0.10979669E+03</totfact>
</mgrwt>
</event>
<event>
 4    1  0.1361667E-004  0.5229923E+03  0.7818608E-02  0.1007946E+00
         -2   -1    0    0    0  501 -0.00000000000E+00  0.00000000000E+00  0.56306411977E+02  0.56306412035E+02  0.25500000000E-02 0. -1.
          2   -1    0    0  501    0  0.00000000000E+00 -0.00000000000E+00 -0.12144307366E+04  0.12144307366E+04  0.25500000000E-02 0.  1.
    5000001    1    1    2    0    0  0.18913329268E+03  0.11387798449E+03 -0.43507777555E+03  0.50414409500E+03  0.12700000000E+03 0.  0.
   -5000001    1    1    2    0    0 -0.18913329268E+03 -0.11387798449E+03 -0.72304654912E+03  0.76659305368E+03  0.12700000000E+03 0.  0.
<mgrwt>
<rscale>  0 0.52299230E+03</rscale>
<asrwt>0</asrwt>
<pdfrwt beam="1">  1        2 0.17349009E+00 0.52299230E+03</pdfrwt>
<pdfrwt beam="2">  1       -2 0.80437739E-02 0.52299230E+03</pdfrwt>
<totfact> 0.20603595E+03</totfact>
</mgrwt>
</event>
<event>
 4    1  0.1361667E-004  0.3119746E+03  0.7818608E-02  0.1079403E+00
         -2   -1    0    0    0  501 -0.00000000000E+00  0.00000000000E+00  0.56271754465E+01  0.56271760242E+01  0.25500000000E-02 0. -1.
          2   -1    0    0  501    0  0.00000000000E+00 -0.00000000000E+00 -0.43240233382E+04  0.43240233382E+04  0.25500000000E-02 0.  1.
    5000001    1    1    2    0    0 -0.12533437703E+02  0.87312035641E+02 -0.24444825206E+04  0.24493681373E+04  0.12700000000E+03 0.  0.
   -5000001    1    1    2    0    0  0.12533437703E+02 -0.87312035641E+02 -0.18739136422E+04  0.18802823769E+04  0.12700000000E+03 0.  0.
<mgrwt>
<rscale>  0 0.31197461E+03</rscale>
<asrwt>0</asrwt>
<pdfrwt beam="1">  1        2 0.61771549E+00 0.31197461E+03</pdfrwt>
<pdfrwt beam="2">  1       -2 0.80388502E-03 0.31197461E+03</pdfrwt>
<totfact> 0.12647781E+03</totfact>
</mgrwt>
</event>
<event>
 4    1  0.1361667E-004  0.3581077E+03  0.7818608E-02  0.1059336E+00
          2   -1    0    0  501    0  0.00000000000E+00  0.00000000000E+00  0.11280944023E+03  0.11280944026E+03  0.25500000000E-02 0.  1.
         -2   -1    0    0    0  501 -0.00000000000E+00 -0.00000000000E+00 -0.28419853572E+03  0.28419853574E+03  0.25500000000E-02 0. -1.
    5000001    1    1    2    0    0  0.75863128910E+02 -0.88457197803E+02 -0.31935978112E+02  0.17529631162E+03  0.12700000000E+03 0.  0.
   -5000001    1    1    2    0    0 -0.75863128910E+02  0.88457197803E+02 -0.13945311738E+03  0.22171166437E+03  0.12700000000E+03 0.  0.
<mgrwt>
<rscale>  0 0.35810768E+03</rscale>
<asrwt>0</asrwt>
<pdfrwt beam="1">  1        2 0.16115634E-01 0.35810768E+03</pdfrwt>
<pdfrwt beam="2">  1       -2 0.40599791E-01 0.35810768E+03</pdfrwt>
<totfact> 0.20830866E+03</totfact>
</mgrwt>
</event>
<event>
 4    1  0.1361667E-004  0.8760902E+03  0.7818608E-02  0.9455974E-01
          2   -1    0    0  501    0  0.00000000000E+00  0.00000000000E+00  0.93914221466E+03  0.93914221466E+03  0.25500000000E-02 0.  1.
         -2   -1    0    0    0  501 -0.00000000000E+00 -0.00000000000E+00 -0.20431782237E+03  0.20431782239E+03  0.25500000000E-02 0. -1.
    5000001    1    1    2    0    0  0.32164670415E+03 -0.21496794755E+03  0.15660689760E+03  0.43625971753E+03  0.12700000000E+03 0.  0.
   -5000001    1    1    2    0    0 -0.32164670415E+03  0.21496794755E+03  0.57821749469E+03  0.70720031952E+03  0.12700000000E+03 0.  0.
<mgrwt>
<rscale>  0 0.87609016E+03</rscale>
<asrwt>0</asrwt>
<pdfrwt beam="1">  1        2 0.13416318E+00 0.87609016E+03</pdfrwt>
<pdfrwt beam="2">  1       -2 0.29188260E-01 0.87609016E+03</pdfrwt>
<totfact> 0.33112381E+02</totfact>
</mgrwt>
</event>
<event>
 4    1  0.1361667E-004  0.4843073E+03  0.7818608E-02  0.1017958E+00
         -2   -1    0    0    0  501 -0.00000000000E+00  0.00000000000E+00  0.15545621013E+03  0.15545621015E+03  0.25500000000E-02 0. -1.
          2   -1    0    0  501    0  0.00000000000E+00 -0.00000000000E+00 -0.37720191410E+03  0.37720191411E+03  0.25500000000E-02 0.  1.
    5000001    1    1    2    0    0 -0.13042884333E+03 -0.15922192956E+03 -0.97580126335E+02  0.26079529728E+03  0.12700000000E+03 0.  0.
   -5000001    1    1    2    0    0  0.13042884333E+03  0.15922192956E+03 -0.12416557763E+03  0.27186282698E+03  0.12700000000E+03 0.  0.
<mgrwt>
<rscale>  0 0.48430726E+03</rscale>
<asrwt>0</asrwt>
<pdfrwt beam="1">  1        2 0.53885988E-01 0.48430726E+03</pdfrwt>
<pdfrwt beam="2">  1       -2 0.22208030E-01 0.48430726E+03</pdfrwt>
<totfact> 0.16304977E+03</totfact>
</mgrwt>
</event>
<event>
 4    1  0.1361667E-004  0.3052623E+03  0.7818608E-02  0.1082639E+00
          2   -1    0    0  501    0  0.00000000000E+00  0.00000000000E+00  0.15761539255E+04  0.15761539255E+04  0.25500000000E-02 0.  1.
         -2   -1    0    0    0  501 -0.00000000000E+00 -0.00000000000E+00 -0.14780451637E+02  0.14780451857E+02  0.25500000000E-02 0. -1.
    5000001    1    1    2    0    0  0.72177012987E+02  0.31588416967E+02  0.94215832436E+03  0.95393849773E+03  0.12700000000E+03 0.  0.
   -5000001    1    1    2    0    0 -0.72177012987E+02 -0.31588416967E+02  0.61921514947E+03  0.63699587960E+03  0.12700000000E+03 0.  0.
<mgrwt>
<rscale>  0 0.30526229E+03</rscale>
<asrwt>0</asrwt>
<pdfrwt beam="1">  1        2 0.22516473E+00 0.30526229E+03</pdfrwt>
<pdfrwt beam="2">  1       -2 0.21114942E-02 0.30526229E+03</pdfrwt>
<totfact> 0.10214389E+04</totfact>
</mgrwt>
</event>
<event>
 4    1  0.1361667E-004  0.3746679E+03  0.7818608E-02  0.1052922E+00
         -2   -1    0    0    0  501 -0.00000000000E+00  0.00000000000E+00  0.26705899181E+02  0.26705899303E+02  0.25500000000E-02 0. -1.
          2   -1    0    0  501    0  0.00000000000E+00 -0.00000000000E+00 -0.13140921475E+04  0.13140921475E+04  0.25500000000E-02 0.  1.
    5000001    1    1    2    0    0  0.22621225386E+02 -0.13562267802E+03 -0.61602360782E+03  0.64383174512E+03  0.12700000000E+03 0.  0.
   -5000001    1    1    2    0    0 -0.22621225386E+02  0.13562267802E+03 -0.67136264051E+03  0.69696630170E+03  0.12700000000E+03 0.  0.
<mgrwt>
<rscale>  0 0.37466792E+03</rscale>
<asrwt>0</asrwt>
<pdfrwt beam="1">  1        2 0.18772741E+00 0.37466792E+03</pdfrwt>
<pdfrwt beam="2">  1       -2 0.38151293E-02 0.37466792E+03</pdfrwt>
<totfact> 0.57734348E+03</totfact>
</mgrwt>
</event>
<event>
 4    1  0.1361667E-004  0.3529529E+03  0.7818608E-02  0.1061410E+00
         -2   -1    0    0    0  501 -0.00000000000E+00  0.00000000000E+00  0.15809360901E+02  0.15809361107E+02  0.25500000000E-02 0. -1.
          2   -1    0    0  501    0  0.00000000000E+00 -0.00000000000E+00 -0.19699682645E+04  0.19699682645E+04  0.25500000000E-02 0.  1.
    5000001    1    1    2    0    0  0.50083167159E+02  0.96605821805E+02 -0.66011351959E+03  0.68096979903E+03  0.12700000000E+03 0.  0.
   -5000001    1    1    2    0    0 -0.50083167159E+02 -0.96605821805E+02 -0.12940453840E+04  0.13048078266E+04  0.12700000000E+03 0.  0.
<mgrwt>
<rscale>  0 0.35295291E+03</rscale>
<asrwt>0</asrwt>
<pdfrwt beam="1">  1        2 0.28142388E+00 0.35295291E+03</pdfrwt>
<pdfrwt beam="2">  1       -2 0.22584814E-02 0.35295291E+03</pdfrwt>
<totfact> 0.59097476E+03</totfact>
</mgrwt>
</event>
<event>
 4    1  0.1361667E-004  0.3134261E+03  0.7818608E-02  0.1078715E+00
          2   -1    0    0  501    0  0.00000000000E+00  0.00000000000E+00  0.33038634945E+03  0.33038634946E+03  0.25500000000E-02 0.  1.
         -2   -1    0    0    0  501 -0.00000000000E+00 -0.00000000000E+00 -0.74334124401E+02  0.74334124444E+02  0.25500000000E-02 0. -1.
    5000001    1    1    2    0    0  0.77327771839E+02  0.49107627358E+02  0.13607324014E+03  0.20745136790E+03  0.12700000000E+03 0.  0.
   -5000001    1    1    2    0    0 -0.77327771839E+02 -0.49107627358E+02  0.11997898491E+03  0.19726910600E+03  0.12700000000E+03 0.  0.
<mgrwt>
<rscale>  0 0.31342610E+03</rscale>
<asrwt>0</asrwt>
<pdfrwt beam="1">  1        2 0.47198051E-01 0.31342610E+03</pdfrwt>
<pdfrwt beam="2">  1       -2 0.10619160E-01 0.31342610E+03</pdfrwt>
<totfact> 0.64244194E+03</totfact>
</mgrwt>
</event>
<event>
 4    1  0.1361667E-004  0.2561887E+03  0.7818608E-02  0.1109455E+00
         -2   -1    0    0    0  501 -0.00000000000E+00  0.00000000000E+00  0.11936362338E+02  0.11936362610E+02  0.25500000000E-02 0. -1.
          2   -1    0    0  501    0  0.00000000000E+00 -0.00000000000E+00 -0.13746370877E+04  0.13746370877E+04  0.25500000000E-02 0.  1.
    5000001    1    1    2    0    0 -0.47692407904E+01  0.11134865544E+02 -0.74363562999E+03  0.75449962298E+03  0.12700000000E+03 0.  0.
   -5000001    1    1    2    0    0  0.47692407904E+01 -0.11134865544E+02 -0.61906509533E+03  0.63207382729E+03  0.12700000000E+03 0.  0.
<mgrwt>
<rscale>  0 0.25618873E+03</rscale>
<asrwt>0</asrwt>
<pdfrwt beam="1">  1        2 0.19637662E+00 0.25618873E+03</pdfrwt>
<pdfrwt beam="2">  1       -2 0.17051955E-02 0.25618873E+03</pdfrwt>
<totfact> 0.17614295E+04</totfact>
</mgrwt>
</event>
<event>
 4    1  0.1361667E-004  0.7326619E+03  0.7818608E-02  0.9662951E-01
          2   -1    0    0  501    0  0.00000000000E+00  0.00000000000E+00  0.55972558347E+03  0.55972558348E+03  0.25500000000E-02 0.  1.
         -2   -1    0    0    0  501 -0.00000000000E+00 -0.00000000000E+00 -0.23975743258E+03  0.23975743259E+03  0.25500000000E-02 0. -1.
    5000001    1    1    2    0    0 -0.18217347785E+03 -0.28280972655E+03  0.83593216279E+02  0.36916844837E+03  0.12700000000E+03 0.  0.
   -5000001    1    1    2    0    0  0.18217347785E+03  0.28280972655E+03  0.23637493462E+03  0.43031456770E+03  0.12700000000E+03 0.  0.
<mgrwt>
<rscale>  0 0.73266191E+03</rscale>
<asrwt>0</asrwt>
<pdfrwt beam="1">  1        2 0.79960796E-01 0.73266191E+03</pdfrwt>
<pdfrwt beam="2">  1       -2 0.34251062E-01 0.73266191E+03</pdfrwt>
<totfact> 0.47260529E+02</totfact>
</mgrwt>
</event>
<event>
 4    1  0.1361667E-004  0.2929410E+03  0.7818608E-02  0.1088824E+00
          2   -1    0    0  501    0  0.00000000000E+00  0.00000000000E+00  0.13909762193E+04  0.13909762193E+04  0.25500000000E-02 0.  1.
         -2   -1    0    0    0  501 -0.00000000000E+00 -0.00000000000E+00 -0.15423412632E+02  0.15423412843E+02  0.25500000000E-02 0. -1.
    5000001    1    1    2    0    0 -0.72368360599E+02 -0.92364510374E+01  0.68080474875E+03  0.69638107209E+03  0.12700000000E+03 0.  0.
   -5000001    1    1    2    0    0  0.72368360599E+02  0.92364510374E+01  0.69474805792E+03  0.71001856006E+03  0.12700000000E+03 0.  0.
<mgrwt>
<rscale>  0 0.29294095E+03</rscale>
<asrwt>0</asrwt>
<pdfrwt beam="1">  1        2 0.19871094E+00 0.29294095E+03</pdfrwt>
<pdfrwt beam="2">  1       -2 0.22033441E-02 0.29294095E+03</pdfrwt>
<totfact> 0.11902695E+04</totfact>
</mgrwt>
</event>
<event>
 4    1  0.1361667E-004  0.3525191E+03  0.7818608E-02  0.1061586E+00
          2   -1    0    0  501    0  0.00000000000E+00  0.00000000000E+00  0.12371616490E+04  0.12371616490E+04  0.25500000000E-02 0.  1.
         -2   -1    0    0    0  501 -0.00000000000E+00 -0.00000000000E+00 -0.25111860336E+02  0.25111860466E+02  0.25500000000E-02 0. -1.
    5000001    1    1    2    0    0 -0.73517185603E+02  0.41560967646E+02  0.28965544719E+03  0.32735511100E+03  0.12700000000E+03 0.  0.
   -5000001    1    1    2    0    0  0.73517185603E+02 -0.41560967646E+02  0.92239434143E+03  0.93491839842E+03  0.12700000000E+03 0.  0.
<mgrwt>
<rscale>  0 0.35251911E+03</rscale>
<asrwt>0</asrwt>
<pdfrwt beam="1">  1        2 0.17673749E+00 0.35251911E+03</pdfrwt>
<pdfrwt beam="2">  1       -2 0.35874063E-02 0.35251911E+03</pdfrwt>
<totfact> 0.69624388E+03</totfact>
</mgrwt>
</event>
<event>
 4    1  0.1361667E-004  0.3652355E+03  0.7818608E-02  0.1056530E+00
          2   -1    0    0  501    0  0.00000000000E+00  0.00000000000E+00  0.10773100515E+03  0.10773100518E+03  0.25500000000E-02 0.  1.
         -2   -1    0    0    0  501 -0.00000000000E+00 -0.00000000000E+00 -0.30956029890E+03  0.30956029891E+03  0.25500000000E-02 0. -1.
    5000001    1    1    2    0    0  0.57592388252E+02 -0.37128752140E+02 -0.22877974307E+03  0.27048955295E+03  0.12700000000E+03 0.  0.
   -5000001    1    1    2    0    0 -0.57592388252E+02  0.37128752140E+02  0.26950449314E+02  0.14680175114E+03  0.12700000000E+03 0.  0.
<mgrwt>
<rscale>  0 0.36523550E+03</rscale>
<asrwt>0</asrwt>
<pdfrwt beam="1">  1        2 0.15390144E-01 0.36523550E+03</pdfrwt>
<pdfrwt beam="2">  1       -2 0.44222899E-01 0.36523550E+03</pdfrwt>
<totfact> 0.18642973E+03</totfact>
</mgrwt>
</event>
<event>
 4    1  0.1361667E-004  0.2790976E+03  0.7818608E-02  0.1096183E+00
          2   -1    0    0  501    0  0.00000000000E+00  0.00000000000E+00  0.33865511176E+04  0.33865511176E+04  0.25500000000E-02 0.  1.
         -2   -1    0    0    0  501 -0.00000000000E+00 -0.00000000000E+00 -0.57503553027E+01  0.57503558681E+01  0.25500000000E-02 0. -1.
    5000001    1    1    2    0    0  0.67322722744E+00  0.50006562317E+02  0.13373402508E+04  0.13442875644E+04  0.12700000000E+03 0.  0.
   -5000001    1    1    2    0    0 -0.67322722744E+00 -0.50006562317E+02  0.20434605115E+04  0.20480139090E+04  0.12700000000E+03 0.  0.
<mgrwt>
<rscale>  0 0.27909764E+03</rscale>
<asrwt>0</asrwt>
<pdfrwt beam="1">  1        2 0.48379398E+00 0.27909764E+03</pdfrwt>
<pdfrwt beam="2">  1       -2 0.82147774E-03 0.27909764E+03</pdfrwt>
<totfact> 0.48357241E+03</totfact>
</mgrwt>
</event>
<event>
 4    1  0.1361667E-004  0.3965363E+03  0.7818608E-02  0.1044986E+00
          2   -1    0    0  501    0  0.00000000000E+00  0.00000000000E+00  0.13402419215E+04  0.13402419215E+04  0.25500000000E-02 0.  1.
         -2   -1    0    0    0  501 -0.00000000000E+00 -0.00000000000E+00 -0.29330712910E+02  0.29330713020E+02  0.25500000000E-02 0. -1.
    5000001    1    1    2    0    0  0.15112950812E+03  0.18456322120E+02  0.65786601261E+03  0.68709348316E+03  0.12700000000E+03 0.  0.
   -5000001    1    1    2    0    0 -0.15112950812E+03 -0.18456322120E+02  0.65304519595E+03  0.68247915134E+03  0.12700000000E+03 0.  0.
<mgrwt>
<rscale>  0 0.39653626E+03</rscale>
<asrwt>0</asrwt>
<pdfrwt beam="1">  1        2 0.19146317E+00 0.39653626E+03</pdfrwt>
<pdfrwt beam="2">  1       -2 0.41901011E-02 0.39653626E+03</pdfrwt>
<totfact> 0.48523640E+03</totfact>
</mgrwt>
</event>
<event>
 4    1  0.1361667E-004  0.4462598E+03  0.7818608E-02  0.1028843E+00
         -2   -1    0    0    0  501 -0.00000000000E+00  0.00000000000E+00  0.40537568319E+03  0.40537568319E+03  0.25500000000E-02 0. -1.
          2   -1    0    0  501    0  0.00000000000E+00 -0.00000000000E+00 -0.12281680789E+03  0.12281680792E+03  0.25500000000E-02 0.  1.
    5000001    1    1    2    0    0 -0.71674613048E+02 -0.15962888213E+03  0.76027637834E+02  0.22918951084E+03  0.12700000000E+03 0.  0.
   -5000001    1    1    2    0    0  0.71674613048E+02  0.15962888213E+03  0.20653123746E+03  0.29900298027E+03  0.12700000000E+03 0.  0.
<mgrwt>
<rscale>  0 0.44625978E+03</rscale>
<asrwt>0</asrwt>
<pdfrwt beam="1">  1        2 0.17545258E-01 0.44625978E+03</pdfrwt>
<pdfrwt beam="2">  1       -2 0.57910812E-01 0.44625978E+03</pdfrwt>
<totfact> 0.92844137E+02</totfact>
</mgrwt>
</event>
<event>
 4    1  0.1361667E-004  0.3217781E+03  0.7818608E-02  0.1074834E+00
         -2   -1    0    0    0  501 -0.00000000000E+00  0.00000000000E+00  0.10636251976E+04  0.10636251976E+04  0.25500000000E-02 0. -1.
          2   -1    0    0  501    0  0.00000000000E+00 -0.00000000000E+00 -0.24336854190E+02  0.24336854323E+02  0.25500000000E-02 0.  1.
    5000001    1    1    2    0    0  0.88480233785E+02  0.37647774641E+02  0.44327449649E+03  0.47102800972E+03  0.12700000000E+03 0.  0.
   -5000001    1    1    2    0    0 -0.88480233785E+02 -0.37647774641E+02  0.59601384689E+03  0.61693404217E+03  0.12700000000E+03 0.  0.
<mgrwt>
<rscale>  0 0.32177813E+03</rscale>
<asrwt>0</asrwt>
<pdfrwt beam="1">  1        2 0.34766938E-02 0.32177813E+03</pdfrwt>
<pdfrwt beam="2">  1       -2 0.15194644E+00 0.32177813E+03</pdfrwt>
<totfact> 0.78950465E+02</totfact>
</mgrwt>
</event>
<event>
 4    1  0.1361667E-004  0.2934900E+03  0.7818608E-02  0.1088541E+00
         -2   -1    0    0    0  501 -0.00000000000E+00  0.00000000000E+00  0.40607868151E+02  0.40607868231E+02  0.25500000000E-02 0. -1.
          2   -1    0    0  501    0  0.00000000000E+00 -0.00000000000E+00 -0.53029350853E+03  0.53029350853E+03  0.25500000000E-02 0.  1.
    5000001    1    1    2    0    0 -0.22292822335E+02 -0.30786355566E+02 -0.36725734303E+03  0.39045066990E+03  0.12700000000E+03 0.  0.
   -5000001    1    1    2    0    0  0.22292822335E+02  0.30786355566E+02 -0.12242829735E+03  0.18045070687E+03  0.12700000000E+03 0.  0.
<mgrwt>
<rscale>  0 0.29348996E+03</rscale>
<asrwt>0</asrwt>
<pdfrwt beam="1">  1        2 0.75756211E-01 0.29348996E+03</pdfrwt>
<pdfrwt beam="2">  1       -2 0.58011244E-02 0.29348996E+03</pdfrwt>
<totfact> 0.98495182E+03</totfact>
</mgrwt>
</event>
<event>
 4    1  0.1361667E-004  0.3031601E+03  0.7818608E-02  0.1083672E+00
         -2   -1    0    0    0  501 -0.00000000000E+00  0.00000000000E+00  0.11269243412E+03  0.11269243414E+03  0.25500000000E-02 0. -1.
          2   -1    0    0  501    0  0.00000000000E+00 -0.00000000000E+00 -0.20388686078E+03  0.20388686080E+03  0.25500000000E-02 0.  1.
    5000001    1    1    2    0    0 -0.77832487059E+02  0.22283031651E+02 -0.63474493612E+02  0.16343941043E+03  0.12700000000E+03 0.  0.
   -5000001    1    1    2    0    0  0.77832487059E+02 -0.22283031651E+02 -0.27719933057E+02  0.15313988452E+03  0.12700000000E+03 0.  0.
<mgrwt>
<rscale>  0 0.30316007E+03</rscale>
<asrwt>0</asrwt>
<pdfrwt beam="1">  1        2 0.29126694E-01 0.30316007E+03</pdfrwt>
<pdfrwt beam="2">  1       -2 0.16098919E-01 0.30316007E+03</pdfrwt>
<totfact> 0.54977654E+03</totfact>
</mgrwt>
</event>
<event>
 4    1  0.1361667E-004  0.5180238E+03  0.7818608E-02  0.1009179E+00
          2   -1    0    0  501    0  0.00000000000E+00  0.00000000000E+00  0.44125598026E+04  0.44125598026E+04  0.25500000000E-02 0.  1.
         -2   -1    0    0    0  501 -0.00000000000E+00 -0.00000000000E+00 -0.15203683926E+02  0.15203684140E+02  0.25500000000E-02 0. -1.
    5000001    1    1    2    0    0 -0.22389806043E+03 -0.27222446820E+02  0.22782938732E+04  0.22929508010E+04  0.12700000000E+03 0.  0.
   -5000001    1    1    2    0    0  0.22389806043E+03  0.27222446820E+02  0.21190622456E+04  0.21348126858E+04  0.12700000000E+03 0.  0.
<mgrwt>
<rscale>  0 0.51802380E+03</rscale>
<asrwt>0</asrwt>
<pdfrwt beam="1">  1        2 0.63036546E+00 0.51802380E+03</pdfrwt>
<pdfrwt beam="2">  1       -2 0.21719556E-02 0.51802380E+03</pdfrwt>
<totfact> 0.24161838E+02</totfact>
</mgrwt>
</event>
<event>
 4    1  0.1361667E-004  0.9194965E+03  0.7818608E-02  0.9401533E-01
          2   -1    0    0  501    0  0.00000000000E+00  0.00000000000E+00  0.10538869147E+04  0.10538869147E+04  0.25500000000E-02 0.  1.
         -2   -1    0    0    0  501 -0.00000000000E+00 -0.00000000000E+00 -0.20056083087E+03  0.20056083089E+03  0.25500000000E-02 0. -1.
    5000001    1    1    2    0    0  0.43531598375E+03 -0.73962828347E+02  0.40429016688E+03  0.61200493848E+03  0.12700000000E+03 0.  0.
   -5000001    1    1    2    0    0 -0.43531598375E+03  0.73962828347E+02  0.44903591692E+03  0.64244280708E+03  0.12700000000E+03 0.  0.
<mgrwt>
<rscale>  0 0.91949646E+03</rscale>
<asrwt>0</asrwt>
<pdfrwt beam="1">  1        2 0.15055527E+00 0.91949646E+03</pdfrwt>
<pdfrwt beam="2">  1       -2 0.28651547E-01 0.91949646E+03</pdfrwt>
<totfact> 0.29041897E+02</totfact>
</mgrwt>
</event>
<event>
 4    1  0.1361667E-004  0.2974524E+03  0.7818608E-02  0.1086521E+00
         -2   -1    0    0    0  501 -0.00000000000E+00  0.00000000000E+00  0.81522436379E+02  0.81522436419E+02  0.25500000000E-02 0. -1.
          2   -1    0    0  501    0  0.00000000000E+00 -0.00000000000E+00 -0.27132997067E+03  0.27132997069E+03  0.25500000000E-02 0.  1.
    5000001    1    1    2    0    0  0.60639480523E+02  0.43384405643E+02 -0.70272982009E+02  0.16317673012E+03  0.12700000000E+03 0.  0.
   -5000001    1    1    2    0    0 -0.60639480523E+02 -0.43384405643E+02 -0.11953455229E+03  0.18967567699E+03  0.12700000000E+03 0.  0.
<mgrwt>
<rscale>  0 0.29745238E+03</rscale>
<asrwt>0</asrwt>
<pdfrwt beam="1">  1        2 0.38761424E-01 0.29745238E+03</pdfrwt>
<pdfrwt beam="2">  1       -2 0.11646062E-01 0.29745238E+03</pdfrwt>
<totfact> 0.68389643E+03</totfact>
</mgrwt>
</event>
<event>
 4    1  0.1361667E-004  0.7343614E+03  0.7818608E-02  0.9660209E-01
         -2   -1    0    0    0  501 -0.00000000000E+00  0.00000000000E+00  0.19053469921E+04  0.19053469921E+04  0.25500000000E-02 0. -1.
          2   -1    0    0  501    0  0.00000000000E+00 -0.00000000000E+00 -0.70759646861E+02  0.70759646907E+02  0.25500000000E-02 0.  1.
    5000001    1    1    2    0    0 -0.12522637793E+03  0.16801029326E+03  0.18141938586E+03  0.30487882501E+03  0.12700000000E+03 0.  0.
   -5000001    1    1    2    0    0  0.12522637793E+03 -0.16801029326E+03  0.16531679594E+04  0.16712278140E+04  0.12700000000E+03 0.  0.
<mgrwt>
<rscale>  0 0.73436144E+03</rscale>
<asrwt>0</asrwt>
<pdfrwt beam="1">  1        2 0.10108523E-01 0.73436144E+03</pdfrwt>
<pdfrwt beam="2">  1       -2 0.27219238E+00 0.73436144E+03</pdfrwt>
<totfact> 0.31898017E+01</totfact>
</mgrwt>
</event>
<event>
 4    1  0.1361667E-004  0.5854189E+03  0.7818608E-02  0.9936128E-01
          2   -1    0    0  501    0  0.00000000000E+00  0.00000000000E+00  0.14646281702E+04  0.14646281702E+04  0.25500000000E-02 0.  1.
         -2   -1    0    0    0  501 -0.00000000000E+00 -0.00000000000E+00 -0.58498694068E+02  0.58498694123E+02  0.25500000000E-02 0. -1.
    5000001    1    1    2    0    0 -0.42511201734E+02 -0.25469503907E+03  0.84252241169E+03  0.89030881125E+03  0.12700000000E+03 0.  0.
   -5000001    1    1    2    0    0  0.42511201734E+02  0.25469503907E+03  0.56360706444E+03  0.63281805307E+03  0.12700000000E+03 0.  0.
<mgrwt>
<rscale>  0 0.58541895E+03</rscale>
<asrwt>0</asrwt>
<pdfrwt beam="1">  1        2 0.20923260E+00 0.58541895E+03</pdfrwt>
<pdfrwt beam="2">  1       -2 0.83569562E-02 0.58541895E+03</pdfrwt>
<totfact> 0.14201308E+03</totfact>
</mgrwt>
</event>
<event>
 4    1  0.1361667E-004  0.3308847E+03  0.7818608E-02  0.1070746E+00
         -2   -1    0    0    0  501 -0.00000000000E+00  0.00000000000E+00  0.56033544522E+03  0.56033544522E+03  0.25500000000E-02 0. -1.
          2   -1    0    0  501    0  0.00000000000E+00 -0.00000000000E+00 -0.48847838813E+02  0.48847838879E+02  0.25500000000E-02 0.  1.
    5000001    1    1    2    0    0  0.97600557870E+02  0.39719857323E+02  0.23406602060E+03  0.28639035941E+03  0.12700000000E+03 0.  0.
   -5000001    1    1    2    0    0 -0.97600557870E+02 -0.39719857323E+02  0.27742158581E+03  0.32279292470E+03  0.12700000000E+03 0.  0.
<mgrwt>
<rscale>  0 0.33088473E+03</rscale>
<asrwt>0</asrwt>
<pdfrwt beam="1">  1        2 0.69782628E-02 0.33088473E+03</pdfrwt>
<pdfrwt beam="2">  1       -2 0.80047919E-01 0.33088473E+03</pdfrwt>
<totfact> 0.14498724E+03</totfact>
</mgrwt>
</event>
<event>
 4    1  0.1361667E-004  0.5469055E+03  0.7818608E-02  0.1002213E+00
         -2   -1    0    0    0  501 -0.00000000000E+00  0.00000000000E+00  0.91529503926E+02  0.91529503961E+02  0.25500000000E-02 0. -1.
          2   -1    0    0  501    0  0.00000000000E+00 -0.00000000000E+00 -0.81696511912E+03  0.81696511912E+03  0.25500000000E-02 0.  1.
    5000001    1    1    2    0    0  0.20764499637E+03  0.10637141263E+03 -0.25485666947E+03  0.36811987710E+03  0.12700000000E+03 0.  0.
   -5000001    1    1    2    0    0 -0.20764499637E+03 -0.10637141263E+03 -0.47057894573E+03  0.54037474599E+03  0.12700000000E+03 0.  0.
<mgrwt>
<rscale>  0 0.54690552E+03</rscale>
<asrwt>0</asrwt>
<pdfrwt beam="1">  1        2 0.11670930E+00 0.54690552E+03</pdfrwt>
<pdfrwt beam="2">  1       -2 0.13075644E-01 0.54690552E+03</pdfrwt>
<totfact> 0.16339337E+03</totfact>
</mgrwt>
</event>
<event>
 4    1  0.1361667E-004  0.3915921E+03  0.7818608E-02  0.1046731E+00
         -2   -1    0    0    0  501 -0.00000000000E+00  0.00000000000E+00  0.29769705894E+03  0.29769705895E+03  0.25500000000E-02 0. -1.
          2   -1    0    0  501    0  0.00000000000E+00 -0.00000000000E+00 -0.12877551658E+03  0.12877551661E+03  0.25500000000E-02 0.  1.
    5000001    1    1    2    0    0 -0.14139464742E+03 -0.39817038321E+02  0.11178001657E+03  0.22405716896E+03  0.12700000000E+03 0.  0.
   -5000001    1    1    2    0    0  0.14139464742E+03  0.39817038321E+02  0.57141525785E+02  0.20241540660E+03  0.12700000000E+03 0.  0.
<mgrwt>
<rscale>  0 0.39159210E+03</rscale>
<asrwt>0</asrwt>
<pdfrwt beam="1">  1        2 0.18396502E-01 0.39159210E+03</pdfrwt>
<pdfrwt beam="2">  1       -2 0.42528151E-01 0.39159210E+03</pdfrwt>
<totfact> 0.16316110E+03</totfact>
</mgrwt>
</event>
<event>
 4    1  0.1361667E-004  0.3195999E+03  0.7818608E-02  0.1075834E+00
          2   -1    0    0  501    0  0.00000000000E+00  0.00000000000E+00  0.18295501540E+04  0.18295501540E+04  0.25500000000E-02 0.  1.
         -2   -1    0    0    0  501 -0.00000000000E+00 -0.00000000000E+00 -0.13957538726E+02  0.13957538959E+02  0.25500000000E-02 0. -1.
    5000001    1    1    2    0    0  0.40780221426E+02  0.70532518771E+02  0.12113335497E+04  0.12206948149E+04  0.12700000000E+03 0.  0.
   -5000001    1    1    2    0    0 -0.40780221426E+02 -0.70532518771E+02  0.60425906558E+03  0.62281287799E+03  0.12700000000E+03 0.  0.
<mgrwt>
<rscale>  0 0.31959986E+03</rscale>
<asrwt>0</asrwt>
<pdfrwt beam="1">  1        2 0.26136442E+00 0.31959986E+03</pdfrwt>
<pdfrwt beam="2">  1       -2 0.19939333E-02 0.31959986E+03</pdfrwt>
<totfact> 0.83290003E+03</totfact>
</mgrwt>
</event>
<event>
 4    1  0.1361667E-004  0.2771370E+03  0.7818608E-02  0.1097263E+00
          2   -1    0    0  501    0  0.00000000000E+00  0.00000000000E+00  0.42296280335E+03  0.42296280336E+03  0.25500000000E-02 0.  1.
         -2   -1    0    0    0  501 -0.00000000000E+00 -0.00000000000E+00 -0.45396953776E+02  0.45396953848E+02  0.25500000000E-02 0. -1.
    5000001    1    1    2    0    0  0.37807569603E+02 -0.24014441715E+01  0.12040510405E+03  0.17905744423E+03  0.12700000000E+03 0.  0.
   -5000001    1    1    2    0    0 -0.37807569603E+02  0.24014441715E+01  0.25716074553E+03  0.28930231298E+03  0.12700000000E+03 0.  0.
<mgrwt>
<rscale>  0 0.27713695E+03</rscale>
<asrwt>0</asrwt>
<pdfrwt beam="1">  1        2 0.60423261E-01 0.27713695E+03</pdfrwt>
<pdfrwt beam="2">  1       -2 0.64852788E-02 0.27713695E+03</pdfrwt>
<totfact> 0.10618293E+04</totfact>
</mgrwt>
</event>
<event>
 4    1  0.1361667E-004  0.4124943E+03  0.7818608E-02  0.1039537E+00
         -2   -1    0    0    0  501 -0.00000000000E+00  0.00000000000E+00  0.41249842443E+03  0.41249842444E+03  0.25500000000E-02 0. -1.
          2   -1    0    0  501    0  0.00000000000E+00 -0.00000000000E+00 -0.10312254957E+03  0.10312254960E+03  0.25500000000E-02 0.  1.
    5000001    1    1    2    0    0  0.48259567227E+01 -0.12550885775E+03  0.28358502108E+03  0.33514955977E+03  0.12700000000E+03 0.  0.
   -5000001    1    1    2    0    0 -0.48259567227E+01  0.12550885775E+03  0.25790853777E+02  0.18047141427E+03  0.12700000000E+03 0.  0.
<mgrwt>
<rscale>  0 0.41249431E+03</rscale>
<asrwt>0</asrwt>
<pdfrwt beam="1">  1        2 0.14731793E-01 0.41249431E+03</pdfrwt>
<pdfrwt beam="2">  1       -2 0.58928346E-01 0.41249431E+03</pdfrwt>
<totfact> 0.11022332E+03</totfact>
</mgrwt>
</event>
<event>
 4    1  0.1361667E-004  0.2888479E+03  0.7818608E-02  0.1090952E+00
          2   -1    0    0  501    0  0.00000000000E+00  0.00000000000E+00  0.37984759379E+03  0.37984759380E+03  0.25500000000E-02 0.  1.
         -2   -1    0    0    0  501 -0.00000000000E+00 -0.00000000000E+00 -0.54912222089E+02  0.54912222148E+02  0.25500000000E-02 0. -1.
    5000001    1    1    2    0    0  0.69107159803E-01 -0.26486487217E+02  0.66944073916E+02  0.14598646449E+03  0.12700000000E+03 0.  0.
   -5000001    1    1    2    0    0 -0.69107159803E-01  0.26486487217E+02  0.25799129779E+03  0.28877335146E+03  0.12700000000E+03 0.  0.
<mgrwt>
<rscale>  0 0.28884789E+03</rscale>
<asrwt>0</asrwt>
<pdfrwt beam="1">  1        2 0.54263941E-01 0.28884789E+03</pdfrwt>
<pdfrwt beam="2">  1       -2 0.78446034E-02 0.28884789E+03</pdfrwt>
<totfact> 0.88946434E+03</totfact>
</mgrwt>
</event>
<event>
 4    1  0.1361667E-004  0.5276193E+03  0.7818608E-02  0.1006811E+00
          2   -1    0    0  501    0  0.00000000000E+00  0.00000000000E+00  0.12406419458E+04  0.12406419458E+04  0.25500000000E-02 0.  1.
         -2   -1    0    0    0  501 -0.00000000000E+00 -0.00000000000E+00 -0.56096377520E+02  0.56096377578E+02  0.25500000000E-02 0. -1.
    5000001    1    1    2    0    0 -0.20071790889E+03 -0.48296633348E+02  0.84823273742E+03  0.88218366601E+03  0.12700000000E+03 0.  0.
   -5000001    1    1    2    0    0  0.20071790889E+03  0.48296633348E+02  0.33631283083E+03  0.41455465734E+03  0.12700000000E+03 0.  0.
<mgrwt>
<rscale>  0 0.52761925E+03</rscale>
<asrwt>0</asrwt>
<pdfrwt beam="1">  1        2 0.17723455E+00 0.52761925E+03</pdfrwt>
<pdfrwt beam="2">  1       -2 0.80137687E-02 0.52761925E+03</pdfrwt>
<totfact> 0.20044990E+03</totfact>
</mgrwt>
</event>
<event>
 4    1  0.1361667E-004  0.6752734E+03  0.7818608E-02  0.9760478E-01
          2   -1    0    0  501    0  0.00000000000E+00  0.00000000000E+00  0.41077171408E+03  0.41077171409E+03  0.25500000000E-02 0. -1.
         -2   -1    0    0    0  501 -0.00000000000E+00 -0.00000000000E+00 -0.27752285279E+03  0.27752285280E+03  0.25500000000E-02 0.  1.
    5000001    1    1    2    0    0 -0.16070197702E+03 -0.26736795057E+03  0.90719024723E+02  0.34881182298E+03  0.12700000000E+03 0.  0.
   -5000001    1    1    2    0    0  0.16070197702E+03  0.26736795057E+03  0.42529836570E+02  0.33948274390E+03  0.12700000000E+03 0.  0.
<mgrwt>
<rscale>  0 0.67527339E+03</rscale>
<asrwt>0</asrwt>
<pdfrwt beam="1">  1        2 0.58681673E-01 0.67527339E+03</pdfrwt>
<pdfrwt beam="2">  1       -2 0.39646122E-01 0.67527339E+03</pdfrwt>
<totfact> 0.50847627E+02</totfact>
</mgrwt>
</event>
<event>
 4    1  0.1361667E-004  0.3259810E+03  0.7818608E-02  0.1072929E+00
         -2   -1    0    0    0  501 -0.00000000000E+00  0.00000000000E+00  0.16718653179E+02  0.16718653374E+02  0.25500000000E-02 0. -1.
          2   -1    0    0  501    0  0.00000000000E+00 -0.00000000000E+00 -0.15889973179E+04  0.15889973179E+04  0.25500000000E-02 0.  1.
    5000001    1    1    2    0    0  0.80864252751E+02  0.84512430113E+01 -0.10908405598E+04  0.11012141381E+04  0.12700000000E+03 0.  0.
   -5000001    1    1    2    0    0 -0.80864252751E+02 -0.84512430113E+01 -0.48143810486E+03  0.50450183319E+03  0.12700000000E+03 0.  0.
<mgrwt>
<rscale>  0 0.32598095E+03</rscale>
<asrwt>0</asrwt>
<pdfrwt beam="1">  1        2 0.22699952E+00 0.32598095E+03</pdfrwt>
<pdfrwt beam="2">  1       -2 0.23883801E-02 0.32598095E+03</pdfrwt>
<totfact> 0.83940539E+03</totfact>
</mgrwt>
</event>
<event>
 4    1  0.1361667E-004  0.5527408E+03  0.7818608E-02  0.1000862E+00
          2   -1    0    0  501    0  0.00000000000E+00  0.00000000000E+00  0.86089820991E+03  0.86089820991E+03  0.25500000000E-02 0.  1.
         -2   -1    0    0    0  501 -0.00000000000E+00 -0.00000000000E+00 -0.88721995662E+02  0.88721995698E+02  0.25500000000E-02 0. -1.
    5000001    1    1    2    0    0  0.27085664624E+02 -0.50525019356E+02  0.79613469032E+03  0.80823626245E+03  0.12700000000E+03 0.  0.
   -5000001    1    1    2    0    0 -0.27085664624E+02  0.50525019356E+02 -0.23958476069E+02  0.14138394316E+03  0.12700000000E+03 0.  0.
<mgrwt>
<rscale>  0 0.55274083E+03</rscale>
<asrwt>0</asrwt>
<pdfrwt beam="1">  1        2 0.12298545E+00 0.55274083E+03</pdfrwt>
<pdfrwt beam="2">  1       -2 0.12674571E-01 0.55274083E+03</pdfrwt>
<totfact> 0.16073299E+03</totfact>
</mgrwt>
</event>
<event>
 4    1  0.1361667E-004  0.4954533E+03  0.7818608E-02  0.1014973E+00
         -2   -1    0    0    0  501 -0.00000000000E+00  0.00000000000E+00  0.17054639910E+03  0.17054639912E+03  0.25500000000E-02 0. -1.
          2   -1    0    0  501    0  0.00000000000E+00 -0.00000000000E+00 -0.35983463018E+03  0.35983463019E+03  0.25500000000E-02 0.  1.
    5000001    1    1    2    0    0  0.86964222493E+02  0.18936848871E+03 -0.49021622267E+02  0.24890825611E+03  0.12700000000E+03 0.  0.
   -5000001    1    1    2    0    0 -0.86964222493E+02 -0.18936848871E+03 -0.14026660881E+03  0.28147277320E+03  0.12700000000E+03 0.  0.
<mgrwt>
<rscale>  0 0.49545333E+03</rscale>
<asrwt>0</asrwt>
<pdfrwt beam="1">  1        2 0.51404947E-01 0.49545333E+03</pdfrwt>
<pdfrwt beam="2">  1       -2 0.24363772E-01 0.49545333E+03</pdfrwt>
<totfact> 0.14578214E+03</totfact>
</mgrwt>
</event>
<event>
 4    1  0.1361667E-004  0.3425353E+03  0.7818608E-02  0.1065721E+00
          2   -1    0    0  501    0  0.00000000000E+00  0.00000000000E+00  0.12369456923E+03  0.12369456926E+03  0.25500000000E-02 0.  1.
         -2   -1    0    0    0  501 -0.00000000000E+00 -0.00000000000E+00 -0.23713740343E+03  0.23713740344E+03  0.25500000000E-02 0. -1.
    5000001    1    1    2    0    0  0.17813330941E+02  0.10348902223E+03 -0.75785266263E+01  0.16496583449E+03  0.12700000000E+03 0.  0.
   -5000001    1    1    2    0    0 -0.17813330941E+02 -0.10348902223E+03 -0.10586430757E+03  0.19586613822E+03  0.12700000000E+03 0.  0.
<mgrwt>
<rscale>  0 0.34253531E+03</rscale>
<asrwt>0</asrwt>
<pdfrwt beam="1">  1        2 0.17670653E-01 0.34253531E+03</pdfrwt>
<pdfrwt beam="2">  1       -2 0.33876772E-01 0.34253531E+03</pdfrwt>
<totfact> 0.26310882E+03</totfact>
</mgrwt>
</event>
<event>
 4    1  0.1361667E-004  0.3844223E+03  0.7818608E-02  0.1049311E+00
         -2   -1    0    0    0  501 -0.00000000000E+00  0.00000000000E+00  0.40245203037E+02  0.40245203118E+02  0.25500000000E-02 0. -1.
          2   -1    0    0  501    0  0.00000000000E+00 -0.00000000000E+00 -0.91800073165E+03  0.91800073165E+03  0.25500000000E-02 0.  1.
    5000001    1    1    2    0    0 -0.12474949700E+03 -0.20163382031E+02 -0.26533336226E+03  0.32015588719E+03  0.12700000000E+03 0.  0.
   -5000001    1    1    2    0    0  0.12474949700E+03  0.20163382031E+02 -0.61242216635E+03  0.63809004758E+03  0.12700000000E+03 0.  0.
<mgrwt>
<rscale>  0 0.38442230E+03</rscale>
<asrwt>0</asrwt>
<pdfrwt beam="1">  1        2 0.13114295E+00 0.38442230E+03</pdfrwt>
<pdfrwt beam="2">  1       -2 0.57493153E-02 0.38442230E+03</pdfrwt>
<totfact> 0.51952292E+03</totfact>
</mgrwt>
</event>
<event>
 4    1  0.1361667E-004  0.4942079E+03  0.7818608E-02  0.1015302E+00
          2   -1    0    0  501    0  0.00000000000E+00  0.00000000000E+00  0.48944730503E+03  0.48944730504E+03  0.25500000000E-02 0.  1.
         -2   -1    0    0    0  501 -0.00000000000E+00 -0.00000000000E+00 -0.12475367475E+03  0.12475367477E+03  0.25500000000E-02 0. -1.
    5000001    1    1    2    0    0  0.21045315214E+02 -0.21005985616E+03  0.15865848606E+03  0.29303508947E+03  0.12700000000E+03 0.  0.
   -5000001    1    1    2    0    0 -0.21045315214E+02  0.21005985616E+03  0.20603514423E+03  0.32116589034E+03  0.12700000000E+03 0.  0.
<mgrwt>
<rscale>  0 0.49420785E+03</rscale>
<asrwt>0</asrwt>
<pdfrwt beam="1">  1        2 0.69921046E-01 0.49420785E+03</pdfrwt>
<pdfrwt beam="2">  1       -2 0.17821953E-01 0.49420785E+03</pdfrwt>
<totfact> 0.17873316E+03</totfact>
</mgrwt>
</event>
<event>
 4    1  0.1361667E-004  0.3768327E+03  0.7818608E-02  0.1052111E+00
         -2   -1    0    0    0  501 -0.00000000000E+00  0.00000000000E+00  0.14472466100E+02  0.14472466324E+02  0.25500000000E-02 0. -1.
          2   -1    0    0  501    0  0.00000000000E+00 -0.00000000000E+00 -0.24529839972E+04  0.24529839972E+04  0.25500000000E-02 0.  1.
    5000001    1    1    2    0    0 -0.34996199296E+02 -0.96471429892E+02 -0.60360655723E+03  0.62530100486E+03  0.12700000000E+03 0.  0.
   -5000001    1    1    2    0    0  0.34996199296E+02  0.96471429892E+02 -0.18349049739E+04  0.18421554587E+04  0.12700000000E+03 0.  0.
<mgrwt>
<rscale>  0 0.37683274E+03</rscale>
<asrwt>0</asrwt>
<pdfrwt beam="1">  1        2 0.35042602E+00 0.37683274E+03</pdfrwt>
<pdfrwt beam="2">  1       -2 0.20674967E-02 0.37683274E+03</pdfrwt>
<totfact> 0.38807755E+03</totfact>
</mgrwt>
</event>
<event>
 4    1  0.1361667E-004  0.5526523E+03  0.7818608E-02  0.1000882E+00
         -2   -1    0    0    0  501 -0.00000000000E+00  0.00000000000E+00  0.39341042781E+02  0.39341042864E+02  0.25500000000E-02 0. -1.
          2   -1    0    0  501    0  0.00000000000E+00 -0.00000000000E+00 -0.19408771309E+04  0.19408771309E+04  0.25500000000E-02 0.  1.
    5000001    1    1    2    0    0  0.12327035631E+03 -0.12364015912E+03 -0.33280059412E+03  0.39669598579E+03  0.12700000000E+03 0.  0.
   -5000001    1    1    2    0    0 -0.12327035631E+03  0.12364015912E+03 -0.15687354940E+04  0.15835221880E+04  0.12700000000E+03 0.  0.
<mgrwt>
<rscale>  0 0.55265226E+03</rscale>
<asrwt>0</asrwt>
<pdfrwt beam="1">  1        2 0.27726810E+00 0.55265226E+03</pdfrwt>
<pdfrwt beam="2">  1       -2 0.56201502E-02 0.55265226E+03</pdfrwt>
<totfact> 0.15208592E+03</totfact>
</mgrwt>
</event>
<event>
 4    1  0.1361667E-004  0.3518048E+03  0.7818608E-02  0.1061877E+00
         -2   -1    0    0    0  501 -0.00000000000E+00  0.00000000000E+00  0.15857802632E+03  0.15857802634E+03  0.25500000000E-02 0. -1.
          2   -1    0    0  501    0  0.00000000000E+00 -0.00000000000E+00 -0.19511942698E+03  0.19511942700E+03  0.25500000000E-02 0.  1.
    5000001    1    1    2    0    0 -0.14284890992E+02  0.88782243963E+02 -0.10072599992E+03  0.18536739739E+03  0.12700000000E+03 0.  0.
   -5000001    1    1    2    0    0  0.14284890992E+02 -0.88782243963E+02  0.64184599261E+02  0.16833005595E+03  0.12700000000E+03 0.  0.
<mgrwt>
<rscale>  0 0.35180480E+03</rscale>
<asrwt>0</asrwt>
<pdfrwt beam="1">  1        2 0.27874204E-01 0.35180480E+03</pdfrwt>
<pdfrwt beam="2">  1       -2 0.22654004E-01 0.35180480E+03</pdfrwt>
<totfact> 0.32344236E+03</totfact>
</mgrwt>
</event>
<event>
 4    1  0.1361667E-004  0.4173046E+03  0.7818608E-02  0.1037947E+00
          2   -1    0    0  501    0  0.00000000000E+00  0.00000000000E+00  0.30564563431E+04  0.30564563431E+04  0.25500000000E-02 0.  1.
         -2   -1    0    0    0  501 -0.00000000000E+00 -0.00000000000E+00 -0.14243877613E+02  0.14243877841E+02  0.25500000000E-02 0. -1.
    5000001    1    1    2    0    0  0.80751306456E+02 -0.14425550153E+03  0.15854101885E+04  0.15990575002E+04  0.12700000000E+03 0.  0.
   -5000001    1    1    2    0    0 -0.80751306456E+02  0.14425550153E+03  0.14568022770E+04  0.14716427207E+04  0.12700000000E+03 0.  0.
<mgrwt>
<rscale>  0 0.41730464E+03</rscale>
<asrwt>0</asrwt>
<pdfrwt beam="1">  1        2 0.43663729E+00 0.41730464E+03</pdfrwt>
<pdfrwt beam="2">  1       -2 0.20348365E-02 0.41730464E+03</pdfrwt>
<totfact> 0.19228663E+03</totfact>
</mgrwt>
</event>
<event>
 4    1  0.1361667E-004  0.3567055E+03  0.7818608E-02  0.1059896E+00
         -2   -1    0    0    0  501 -0.00000000000E+00  0.00000000000E+00  0.71556896719E+02  0.71556896764E+02  0.25500000000E-02 0. -1.
          2   -1    0    0  501    0  0.00000000000E+00 -0.00000000000E+00 -0.44453731600E+03  0.44453731601E+03  0.25500000000E-02 0.  1.
    5000001    1    1    2    0    0  0.71782879168E+02 -0.62900763316E+01 -0.38315867081E+02  0.15096175831E+03  0.12700000000E+03 0.  0.
   -5000001    1    1    2    0    0 -0.71782879168E+02  0.62900763316E+01 -0.33466455221E+03  0.36513245447E+03  0.12700000000E+03 0.  0.
<mgrwt>
<rscale>  0 0.35670554E+03</rscale>
<asrwt>0</asrwt>
<pdfrwt beam="1">  1        2 0.63505329E-01 0.35670554E+03</pdfrwt>
<pdfrwt beam="2">  1       -2 0.10222414E-01 0.35670554E+03</pdfrwt>
<totfact> 0.49620894E+03</totfact>
</mgrwt>
</event>
<event>
 4    1  0.1361667E-004  0.6311208E+03  0.7818608E-02  0.9842864E-01
          2   -1    0    0  501    0  0.00000000000E+00  0.00000000000E+00  0.12310477238E+03  0.12310477240E+03  0.25500000000E-02 0.  1.
         -2   -1    0    0    0  501 -0.00000000000E+00 -0.00000000000E+00 -0.80889129771E+03  0.80889129771E+03  0.25500000000E-02 0. -1.
    5000001    1    1    2    0    0 -0.28317513469E+02  0.18689396916E+03 -0.20308892715E+02  0.22863221208E+03  0.12700000000E+03 0.  0.
   -5000001    1    1    2    0    0  0.28317513469E+02 -0.18689396916E+03 -0.66547763261E+03  0.70336385803E+03  0.12700000000E+03 0.  0.
<mgrwt>
<rscale>  0 0.63112084E+03</rscale>
<asrwt>0</asrwt>
<pdfrwt beam="1">  1        2 0.17586396E-01 0.63112084E+03</pdfrwt>
<pdfrwt beam="2">  1       -2 0.11555590E+00 0.63112084E+03</pdfrwt>
<totfact> 0.19525319E+02</totfact>
</mgrwt>
</event>
<event>
 4    1  0.1361667E-004  0.3682405E+03  0.7818608E-02  0.1055368E+00
          2   -1    0    0  501    0  0.00000000000E+00  0.00000000000E+00  0.21232155896E+04  0.21232155896E+04  0.25500000000E-02 0.  1.
         -2   -1    0    0    0  501 -0.00000000000E+00 -0.00000000000E+00 -0.15966476126E+02  0.15966476329E+02  0.25500000000E-02 0. -1.
    5000001    1    1    2    0    0 -0.43034993152E+02  0.12210200667E+03  0.86897240982E+03  0.88769530792E+03  0.12700000000E+03 0.  0.
   -5000001    1    1    2    0    0  0.43034993152E+02 -0.12210200667E+03  0.12382767036E+04  0.12514867580E+04  0.12700000000E+03 0.  0.
<mgrwt>
<rscale>  0 0.36824053E+03</rscale>
<asrwt>0</asrwt>
<pdfrwt beam="1">  1        2 0.30331650E+00 0.36824053E+03</pdfrwt>
<pdfrwt beam="2">  1       -2 0.22809253E-02 0.36824053E+03</pdfrwt>
<totfact> 0.48935416E+03</totfact>
</mgrwt>
</event>
<event>
 4    1  0.1361667E-004  0.4684528E+03  0.7818608E-02  0.1022358E+00
         -2   -1    0    0    0  501 -0.00000000000E+00  0.00000000000E+00  0.39160739457E+02  0.39160739540E+02  0.25500000000E-02 0. -1.
          2   -1    0    0  501    0  0.00000000000E+00 -0.00000000000E+00 -0.14009440803E+04  0.14009440803E+04  0.25500000000E-02 0.  1.
    5000001    1    1    2    0    0  0.11339079559E+03 -0.15798639555E+03 -0.58785882868E+03  0.63207924832E+03  0.12700000000E+03 0.  0.
   -5000001    1    1    2    0    0 -0.11339079559E+03  0.15798639555E+03 -0.77392451218E+03  0.80802557153E+03  0.12700000000E+03 0.  0.
<mgrwt>
<rscale>  0 0.46845280E+03</rscale>
<asrwt>0</asrwt>
<pdfrwt beam="1">  1        2 0.20013484E+00 0.46845280E+03</pdfrwt>
<pdfrwt beam="2">  1       -2 0.55943922E-02 0.46845280E+03</pdfrwt>
<totfact> 0.28916163E+03</totfact>
</mgrwt>
</event>
<event>
 4    1  0.1361667E-004  0.3506354E+03  0.7818608E-02  0.1062355E+00
          2   -1    0    0  501    0  0.00000000000E+00  0.00000000000E+00  0.17395731246E+04  0.17395731246E+04  0.25500000000E-02 0.  1.
         -2   -1    0    0    0  501 -0.00000000000E+00 -0.00000000000E+00 -0.17668876349E+02  0.17668876533E+02  0.25500000000E-02 0. -1.
    5000001    1    1    2    0    0 -0.11724653949E+03  0.12929003149E+02  0.99291911809E+03  0.10079341671E+04  0.12700000000E+03 0.  0.
   -5000001    1    1    2    0    0  0.11724653949E+03 -0.12929003149E+02  0.72898513012E+03  0.74930783399E+03  0.12700000000E+03 0.  0.
<mgrwt>
<rscale>  0 0.35063544E+03</rscale>
<asrwt>0</asrwt>
<pdfrwt beam="1">  1        2 0.24851042E+00 0.35063544E+03</pdfrwt>
<pdfrwt beam="2">  1       -2 0.25241255E-02 0.35063544E+03</pdfrwt>
<totfact> 0.65078020E+03</totfact>
</mgrwt>
</event>
<event>
 4    1  0.1361667E-004  0.6211095E+03  0.7818608E-02  0.9862553E-01
          2   -1    0    0  501    0  0.00000000000E+00  0.00000000000E+00  0.82498765038E+03  0.82498765038E+03  0.25500000000E-02 0.  1.
         -2   -1    0    0    0  501 -0.00000000000E+00 -0.00000000000E+00 -0.11690388258E+03  0.11690388261E+03  0.25500000000E-02 0. -1.
    5000001    1    1    2    0    0 -0.69358032996E+02  0.23022233448E+03  0.12655984075E+03  0.29993208119E+03  0.12700000000E+03 0.  0.
   -5000001    1    1    2    0    0  0.69358032996E+02 -0.23022233448E+03  0.58152392705E+03  0.64195945180E+03  0.12700000000E+03 0.  0.
<mgrwt>
<rscale>  0 0.62110952E+03</rscale>
<asrwt>0</asrwt>
<pdfrwt beam="1">  1        2 0.11785538E+00 0.62110952E+03</pdfrwt>
<pdfrwt beam="2">  1       -2 0.16700555E-01 0.62110952E+03</pdfrwt>
<totfact> 0.10685326E+03</totfact>
</mgrwt>
</event>
<event>
 4    1  0.1361667E-004  0.3230836E+03  0.7818608E-02  0.1074239E+00
          2   -1    0    0  501    0  0.00000000000E+00  0.00000000000E+00  0.16760759914E+03  0.16760759916E+03  0.25500000000E-02 0.  1.
         -2   -1    0    0    0  501 -0.00000000000E+00 -0.00000000000E+00 -0.15569550409E+03  0.15569550411E+03  0.25500000000E-02 0. -1.
    5000001    1    1    2    0    0 -0.43337826415E+02 -0.85419459050E+02 -0.22207319420E+02  0.16061387306E+03  0.12700000000E+03 0.  0.
   -5000001    1    1    2    0    0  0.43337826415E+02  0.85419459050E+02  0.34119414470E+02  0.16268923021E+03  0.12700000000E+03 0.  0.
<mgrwt>
<rscale>  0 0.32308358E+03</rscale>
<asrwt>0</asrwt>
<pdfrwt beam="1">  1        2 0.23943943E-01 0.32308358E+03</pdfrwt>
<pdfrwt beam="2">  1       -2 0.22242215E-01 0.32308358E+03</pdfrwt>
<totfact> 0.39514971E+03</totfact>
</mgrwt>
</event>
<event>
 4    1  0.1361667E-004  0.3684348E+03  0.7818608E-02  0.1055293E+00
          2   -1    0    0  501    0  0.00000000000E+00  0.00000000000E+00  0.75951586923E+02  0.75951586966E+02  0.25500000000E-02 0.  1.
         -2   -1    0    0    0  501 -0.00000000000E+00 -0.00000000000E+00 -0.44681153412E+03  0.44681153412E+03  0.25500000000E-02 0. -1.
    5000001    1    1    2    0    0 -0.91730394187E+02 -0.29053233854E+02 -0.54243510582E+02  0.16831492523E+03  0.12700000000E+03 0.  0.
   -5000001    1    1    2    0    0  0.91730394187E+02  0.29053233854E+02 -0.31661643661E+03  0.35444819586E+03  0.12700000000E+03 0.  0.
<mgrwt>
<rscale>  0 0.36843477E+03</rscale>
<asrwt>0</asrwt>
<pdfrwt beam="1">  1        2 0.10850227E-01 0.36843477E+03</pdfrwt>
<pdfrwt beam="2">  1       -2 0.63830218E-01 0.36843477E+03</pdfrwt>
<totfact> 0.13531957E+03</totfact>
</mgrwt>
</event>
<event>
 4    1  0.1361667E-004  0.5823188E+03  0.7818608E-02  0.9942783E-01
          2   -1    0    0  501    0  0.00000000000E+00  0.00000000000E+00  0.22821225090E+04  0.22821225090E+04  0.25500000000E-02 0.  1.
         -2   -1    0    0    0  501 -0.00000000000E+00 -0.00000000000E+00 -0.37146909861E+02  0.37146909948E+02  0.25500000000E-02 0. -1.
    5000001    1    1    2    0    0  0.22267318978E+03  0.12302445121E+03  0.13720561703E+04  0.14012085853E+04  0.12700000000E+03 0.  0.
   -5000001    1    1    2    0    0 -0.22267318978E+03 -0.12302445121E+03  0.87291942877E+03  0.91806083359E+03  0.12700000000E+03 0.  0.
<mgrwt>
<rscale>  0 0.58231881E+03</rscale>
<asrwt>0</asrwt>
<pdfrwt beam="1">  1        2 0.32601749E+00 0.58231881E+03</pdfrwt>
<pdfrwt beam="2">  1       -2 0.53067016E-02 0.58231881E+03</pdfrwt>
<totfact> 0.11189717E+03</totfact>
</mgrwt>
</event>
<event>
 4    1  0.1361667E-004  0.7838086E+03  0.7818608E-02  0.9583754E-01
          2   -1    0    0  501    0  0.00000000000E+00  0.00000000000E+00  0.32667415031E+04  0.32667415031E+04  0.25500000000E-02 0.  1.
         -2   -1    0    0    0  501 -0.00000000000E+00 -0.00000000000E+00 -0.47015960108E+02  0.47015960177E+02  0.25500000000E-02 0. -1.
    5000001    1    1    2    0    0  0.15429847043E+03 -0.32928582408E+03  0.19153992457E+04  0.19537452347E+04  0.12700000000E+03 0.  0.
   -5000001    1    1    2    0    0 -0.15429847043E+03  0.32928582408E+03  0.13043262973E+04  0.13600122285E+04  0.12700000000E+03 0.  0.
<mgrwt>
<rscale>  0 0.78380862E+03</rscale>
<asrwt>0</asrwt>
<pdfrwt beam="1">  1        2 0.46667737E+00 0.78380862E+03</pdfrwt>
<pdfrwt beam="2">  1       -2 0.67165656E-02 0.78380862E+03</pdfrwt>
<totfact> 0.22699552E+02</totfact>
</mgrwt>
</event>
<event>
 4    1  0.1361667E-004  0.3555527E+03  0.7818608E-02  0.1060359E+00
         -2   -1    0    0    0  501 -0.00000000000E+00  0.00000000000E+00  0.22886255599E+02  0.22886255741E+02  0.25500000000E-02 0. -1.
          2   -1    0    0  501    0  0.00000000000E+00 -0.00000000000E+00 -0.13809346030E+04  0.13809346030E+04  0.25500000000E-02 0.  1.
    5000001    1    1    2    0    0  0.66535752509E+02  0.17910969344E+02 -0.27008443059E+03  0.30630443815E+03  0.12700000000E+03 0.  0.
   -5000001    1    1    2    0    0 -0.66535752509E+02 -0.17910969344E+02 -0.10879639168E+04  0.10975164205E+04  0.12700000000E+03 0.  0.
<mgrwt>
<rscale>  0 0.35555265E+03</rscale>
<asrwt>0</asrwt>
<pdfrwt beam="1">  1        2 0.19727632E+00 0.35555265E+03</pdfrwt>
<pdfrwt beam="2">  1       -2 0.32694660E-02 0.35555265E+03</pdfrwt>
<totfact> 0.67159149E+03</totfact>
</mgrwt>
</event>
<event>
 4    1  0.1361667E-004  0.4905057E+03  0.7818608E-02  0.1016287E+00
         -2   -1    0    0    0  501 -0.00000000000E+00  0.00000000000E+00  0.23790323647E+03  0.23790323648E+03  0.25500000000E-02 0. -1.
          2   -1    0    0  501    0  0.00000000000E+00 -0.00000000000E+00 -0.25282955073E+03  0.25282955075E+03  0.25500000000E-02 0.  1.
    5000001    1    1    2    0    0 -0.41109781820E+02 -0.20503975782E+03 -0.24460781940E+02  0.24588339981E+03  0.12700000000E+03 0.  0.
   -5000001    1    1    2    0    0  0.41109781820E+02  0.20503975782E+03  0.95344676751E+01  0.24484938742E+03  0.12700000000E+03 0.  0.
<mgrwt>
<rscale>  0 0.49050573E+03</rscale>
<asrwt>0</asrwt>
<pdfrwt beam="1">  1        2 0.36118507E-01 0.49050573E+03</pdfrwt>
<pdfrwt beam="2">  1       -2 0.33986177E-01 0.49050573E+03</pdfrwt>
<totfact> 0.11691089E+03</totfact>
</mgrwt>
</event>
<event>
 4    1  0.1361667E-004  0.3272740E+03  0.7818608E-02  0.1072349E+00
          2   -1    0    0  501    0  0.00000000000E+00  0.00000000000E+00  0.14681559327E+04  0.14681559327E+04  0.25500000000E-02 0.  1.
         -2   -1    0    0    0  501 -0.00000000000E+00 -0.00000000000E+00 -0.18238567656E+02  0.18238567834E+02  0.25500000000E-02 0. -1.
    5000001    1    1    2    0    0 -0.12703639679E+02 -0.94937971159E+02  0.55062074562E+03  0.57313768532E+03  0.12700000000E+03 0.  0.
   -5000001    1    1    2    0    0  0.12703639679E+02  0.94937971159E+02  0.89929661946E+03  0.91325681525E+03  0.12700000000E+03 0.  0.
<mgrwt>
<rscale>  0 0.32727396E+03</rscale>
<asrwt>0</asrwt>
<pdfrwt beam="1">  1        2 0.20973654E+00 0.32727396E+03</pdfrwt>
<pdfrwt beam="2">  1       -2 0.26055099E-02 0.32727396E+03</pdfrwt>
<totfact> 0.84920962E+03</totfact>
</mgrwt>
</event>
<event>
 4    1  0.1361667E-004  0.3829085E+03  0.7818608E-02  0.1049864E+00
          2   -1    0    0  501    0  0.00000000000E+00  0.00000000000E+00  0.69888687398E+03  0.69888687399E+03  0.25500000000E-02 0.  1.
         -2   -1    0    0    0  501 -0.00000000000E+00 -0.00000000000E+00 -0.52447297831E+02  0.52447297893E+02  0.25500000000E-02 0. -1.
    5000001    1    1    2    0    0  0.12949761506E+03 -0.27070585048E+02  0.43110881383E+03  0.46849360534E+03  0.12700000000E+03 0.  0.
   -5000001    1    1    2    0    0 -0.12949761506E+03  0.27070585048E+02  0.21533076232E+03  0.28284056654E+03  0.12700000000E+03 0.  0.
<mgrwt>
<rscale>  0 0.38290849E+03</rscale>
<asrwt>0</asrwt>
<pdfrwt beam="1">  1        2 0.99840973E-01 0.38290849E+03</pdfrwt>
<pdfrwt beam="2">  1       -2 0.74924718E-02 0.38290849E+03</pdfrwt>
<totfact> 0.48488828E+03</totfact>
</mgrwt>
</event>
<event>
 4    1  0.1361667E-004  0.2991527E+03  0.7818608E-02  0.1085665E+00
         -2   -1    0    0    0  501 -0.00000000000E+00  0.00000000000E+00  0.37142376231E+03  0.37142376232E+03  0.25500000000E-02 0. -1.
          2   -1    0    0  501    0  0.00000000000E+00 -0.00000000000E+00 -0.60236001202E+02  0.60236001256E+02  0.25500000000E-02 0.  1.
    5000001    1    1    2    0    0 -0.37707469892E+02 -0.65425002875E+02  0.18918058017E+03  0.24004286326E+03  0.12700000000E+03 0.  0.
   -5000001    1    1    2    0    0  0.37707469892E+02  0.65425002875E+02  0.12200718094E+03  0.19161690032E+03  0.12700000000E+03 0.  0.
<mgrwt>
<rscale>  0 0.29915268E+03</rscale>
<asrwt>0</asrwt>
<pdfrwt beam="1">  1        2 0.86051430E-02 0.29915268E+03</pdfrwt>
<pdfrwt beam="2">  1       -2 0.53060538E-01 0.29915268E+03</pdfrwt>
<totfact> 0.26397959E+03</totfact>
</mgrwt>
</event>
<event>
 4    1  0.1361667E-004  0.4559623E+03  0.7818608E-02  0.1025959E+00
         -2   -1    0    0    0  501 -0.00000000000E+00  0.00000000000E+00  0.40468232943E+02  0.40468233023E+02  0.25500000000E-02 0. -1.
          2   -1    0    0  501    0  0.00000000000E+00 -0.00000000000E+00 -0.12843508505E+04  0.12843508505E+04  0.25500000000E-02 0.  1.
    5000001    1    1    2    0    0  0.33177349208E+02 -0.47155776243E+02 -0.11459232034E+04  0.11543800899E+04  0.12700000000E+03 0.  0.
   -5000001    1    1    2    0    0 -0.33177349208E+02  0.47155776243E+02 -0.97959414072E+02  0.17043899360E+03  0.12700000000E+03 0.  0.
<mgrwt>
<rscale>  0 0.45596232E+03</rscale>
<asrwt>0</asrwt>
<pdfrwt beam="1">  1        2 0.18347867E+00 0.45596232E+03</pdfrwt>
<pdfrwt beam="2">  1       -2 0.57811769E-02 0.45596232E+03</pdfrwt>
<totfact> 0.31707154E+03</totfact>
</mgrwt>
</event>
<event>
 4    1  0.1361667E-004  0.3445353E+03  0.7818608E-02  0.1064881E+00
         -2   -1    0    0    0  501 -0.00000000000E+00  0.00000000000E+00  0.22250368135E+02  0.22250368281E+02  0.25500000000E-02 0. -1.
          2   -1    0    0  501    0  0.00000000000E+00 -0.00000000000E+00 -0.13337373825E+04  0.13337373825E+04  0.25500000000E-02 0.  1.
    5000001    1    1    2    0    0  0.94512816126E+02 -0.39734130486E+01 -0.92263759513E+03  0.93612904686E+03  0.12700000000E+03 0.  0.
   -5000001    1    1    2    0    0 -0.94512816126E+02  0.39734130486E+01 -0.38884941924E+03  0.41985870393E+03  0.12700000000E+03 0.  0.
<mgrwt>
<rscale>  0 0.34453533E+03</rscale>
<asrwt>0</asrwt>
<pdfrwt beam="1">  1        2 0.19053386E+00 0.34453533E+03</pdfrwt>
<pdfrwt beam="2">  1       -2 0.31786249E-02 0.34453533E+03</pdfrwt>
<totfact> 0.74140576E+03</totfact>
</mgrwt>
</event>
<event>
 4    1  0.1361667E-004  0.2906550E+03  0.7818608E-02  0.1090008E+00
         -2   -1    0    0    0  501 -0.00000000000E+00  0.00000000000E+00  0.22447337410E+03  0.22447337412E+03  0.25500000000E-02 0. -1.
          2   -1    0    0  501    0  0.00000000000E+00 -0.00000000000E+00 -0.94087245259E+02  0.94087245294E+02  0.25500000000E-02 0.  1.
    5000001    1    1    2    0    0 -0.67733923100E+02  0.10483585741E+02  0.46423074578E+02  0.15159779603E+03  0.12700000000E+03 0.  0.
   -5000001    1    1    2    0    0  0.67733923100E+02 -0.10483585741E+02  0.83963054264E+02  0.16696282338E+03  0.12700000000E+03 0.  0.
<mgrwt>
<rscale>  0 0.29065499E+03</rscale>
<asrwt>0</asrwt>
<pdfrwt beam="1">  1        2 0.13441035E-01 0.29065499E+03</pdfrwt>
<pdfrwt beam="2">  1       -2 0.32067625E-01 0.29065499E+03</pdfrwt>
<totfact> 0.40117437E+03</totfact>
</mgrwt>
</event>
<event>
 4    1  0.1361667E-004  0.4259382E+03  0.7818608E-02  0.1035151E+00
         -2   -1    0    0    0  501 -0.00000000000E+00  0.00000000000E+00  0.12811776302E+03  0.12811776305E+03  0.25500000000E-02 0. -1.
          2   -1    0    0  501    0  0.00000000000E+00 -0.00000000000E+00 -0.35401671084E+03  0.35401671085E+03  0.25500000000E-02 0.  1.
    5000001    1    1    2    0    0  0.16765627737E+03  0.30506650684E+02 -0.12845103845E+03  0.24833032911E+03  0.12700000000E+03 0.  0.
   -5000001    1    1    2    0    0 -0.16765627737E+03 -0.30506650684E+02 -0.97447909365E+02  0.23380414478E+03  0.12700000000E+03 0.  0.
<mgrwt>
<rscale>  0 0.42593816E+03</rscale>
<asrwt>0</asrwt>
<pdfrwt beam="1">  1        2 0.50573816E-01 0.42593816E+03</pdfrwt>
<pdfrwt beam="2">  1       -2 0.18302538E-01 0.42593816E+03</pdfrwt>
<totfact> 0.24411908E+03</totfact>
</mgrwt>
</event>
<event>
 4    1  0.1361667E-004  0.4190647E+03  0.7818608E-02  0.1037371E+00
          2   -1    0    0  501    0  0.00000000000E+00  0.00000000000E+00  0.56822503818E+03  0.56822503819E+03  0.25500000000E-02 0. -1.
         -2   -1    0    0    0  501 -0.00000000000E+00 -0.00000000000E+00 -0.77264822198E+02  0.77264822240E+02  0.25500000000E-02 0.  1.
    5000001    1    1    2    0    0 -0.53505650765E+02 -0.15054612853E+03  0.17245223846E+03  0.26719986158E+03  0.12700000000E+03 0.  0.
   -5000001    1    1    2    0    0  0.53505650765E+02  0.15054612853E+03  0.31850797753E+03  0.37828999885E+03  0.12700000000E+03 0.  0.
<mgrwt>
<rscale>  0 0.41906470E+03</rscale>
<asrwt>0</asrwt>
<pdfrwt beam="1">  1        2 0.81175008E-01 0.41906470E+03</pdfrwt>
<pdfrwt beam="2">  1       -2 0.11037831E-01 0.41906470E+03</pdfrwt>
<totfact> 0.33392914E+03</totfact>
</mgrwt>
</event>
<event>
 4    1  0.1361667E-004  0.3058866E+03  0.7818608E-02  0.1082334E+00
         -2   -1    0    0    0  501 -0.00000000000E+00  0.00000000000E+00  0.50581505440E+02  0.50581505504E+02  0.25500000000E-02 0. -1.
          2   -1    0    0  501    0  0.00000000000E+00 -0.00000000000E+00 -0.46245467319E+03  0.46245467319E+03  0.25500000000E-02 0.  1.
    5000001    1    1    2    0    0 -0.73713658866E+02  0.32262090096E+02 -0.15885183057E+03  0.21871774056E+03  0.12700000000E+03 0.  0.
   -5000001    1    1    2    0    0  0.73713658866E+02 -0.32262090096E+02 -0.25302133718E+03  0.29431843814E+03  0.12700000000E+03 0.  0.
<mgrwt>
<rscale>  0 0.30588660E+03</rscale>
<asrwt>0</asrwt>
<pdfrwt beam="1">  1        2 0.66064951E-01 0.30588660E+03</pdfrwt>
<pdfrwt beam="2">  1       -2 0.72259296E-02 0.30588660E+03</pdfrwt>
<totfact> 0.81772772E+03</totfact>
</mgrwt>
</event>
<event>
 4    1  0.1361667E-004  0.3467041E+03  0.7818608E-02  0.1063976E+00
          2   -1    0    0  501    0  0.00000000000E+00  0.00000000000E+00  0.14748541413E+04  0.14748541413E+04  0.25500000000E-02 0.  1.
         -2   -1    0    0    0  501 -0.00000000000E+00 -0.00000000000E+00 -0.20375529446E+02  0.20375529605E+02  0.25500000000E-02 0. -1.
    5000001    1    1    2    0    0 -0.43685330783E+02 -0.76243248056E+02  0.38764371957E+03  0.41727460302E+03  0.12700000000E+03 0.  0.
   -5000001    1    1    2    0    0  0.43685330783E+02  0.76243248056E+02  0.10668348923E+04  0.10779550679E+04  0.12700000000E+03 0.  0.
<mgrwt>
<rscale>  0 0.34670410E+03</rscale>
<asrwt>0</asrwt>
<pdfrwt beam="1">  1        2 0.21069345E+00 0.34670410E+03</pdfrwt>
<pdfrwt beam="2">  1       -2 0.29107899E-02 0.34670410E+03</pdfrwt>
<totfact> 0.71470748E+03</totfact>
</mgrwt>
</event>
<event>
 4    1  0.1361667E-004  0.3689522E+03  0.7818608E-02  0.1055094E+00
          2   -1    0    0  501    0  0.00000000000E+00  0.00000000000E+00  0.14895812897E+03  0.14895812899E+03  0.25500000000E-02 0.  1.
         -2   -1    0    0    0  501 -0.00000000000E+00 -0.00000000000E+00 -0.22846305069E+03  0.22846305071E+03  0.25500000000E-02 0. -1.
    5000001    1    1    2    0    0  0.82902915931E+02 -0.10279297387E+03 -0.61767129571E+02  0.19334804690E+03  0.12700000000E+03 0.  0.
   -5000001    1    1    2    0    0 -0.82902915931E+02  0.10279297387E+03 -0.17737792149E+02  0.18407313279E+03  0.12700000000E+03 0.  0.
<mgrwt>
<rscale>  0 0.36895218E+03</rscale>
<asrwt>0</asrwt>
<pdfrwt beam="1">  1        2 0.21279733E-01 0.36895218E+03</pdfrwt>
<pdfrwt beam="2">  1       -2 0.32637579E-01 0.36895218E+03</pdfrwt>
<totfact> 0.22767800E+03</totfact>
</mgrwt>
</event>
<event>
 4    1  0.1361667E-004  0.5237757E+03  0.7818608E-02  0.1007753E+00
         -2   -1    0    0    0  501 -0.00000000000E+00  0.00000000000E+00  0.34745483476E+02  0.34745483569E+02  0.25500000000E-02 0. -1.
          2   -1    0    0  501    0  0.00000000000E+00 -0.00000000000E+00 -0.19739326153E+04  0.19739326153E+04  0.25500000000E-02 0.  1.
    5000001    1    1    2    0    0 -0.78941959879E+02 -0.19565167516E+03 -0.62776577347E+03  0.67433691680E+03  0.12700000000E+03 0.  0.
   -5000001    1    1    2    0    0  0.78941959879E+02  0.19565167516E+03 -0.13114213584E+04  0.13343411821E+04  0.12700000000E+03 0.  0.
<mgrwt>
<rscale>  0 0.52377569E+03</rscale>
<asrwt>0</asrwt>
<pdfrwt beam="1">  1        2 0.28199030E+00 0.52377569E+03</pdfrwt>
<pdfrwt beam="2">  1       -2 0.49636418E-02 0.52377569E+03</pdfrwt>
<totfact> 0.17775873E+03</totfact>
</mgrwt>
</event>
<event>
 4    1  0.1361667E-004  0.3735284E+03  0.7818608E-02  0.1053352E+00
         -2   -1    0    0    0  501 -0.00000000000E+00  0.00000000000E+00  0.24293577431E+03  0.24293577432E+03  0.25500000000E-02 0. -1.
          2   -1    0    0  501    0  0.00000000000E+00 -0.00000000000E+00 -0.14358057792E+03  0.14358057794E+03  0.25500000000E-02 0.  1.
    5000001    1    1    2    0    0  0.11176352580E+03 -0.64312172617E+02  0.19801766090E+01  0.18099740978E+03  0.12700000000E+03 0.  0.
   -5000001    1    1    2    0    0 -0.11176352580E+03  0.64312172617E+02  0.97375019781E+02  0.20551894249E+03  0.12700000000E+03 0.  0.
<mgrwt>
<rscale>  0 0.37352836E+03</rscale>
<asrwt>0</asrwt>
<pdfrwt beam="1">  1        2 0.20511511E-01 0.37352836E+03</pdfrwt>
<pdfrwt beam="2">  1       -2 0.34705111E-01 0.37352836E+03</pdfrwt>
<totfact> 0.21186102E+03</totfact>
</mgrwt>
</event>
<event>
 4    1  0.1361667E-004  0.4018598E+03  0.7818608E-02  0.1043138E+00
          2   -1    0    0  501    0  0.00000000000E+00  0.00000000000E+00  0.34333274228E+04  0.34333274228E+04  0.25500000000E-02 0.  1.
         -2   -1    0    0    0  501 -0.00000000000E+00 -0.00000000000E+00 -0.11759093935E+02  0.11759094211E+02  0.25500000000E-02 0. -1.
    5000001    1    1    2    0    0 -0.10318790626E+03  0.11465810207E+03  0.15290080952E+04  0.15420080997E+04  0.12700000000E+03 0.  0.
   -5000001    1    1    2    0    0  0.10318790626E+03 -0.11465810207E+03  0.18925602336E+04  0.19030784172E+04  0.12700000000E+03 0.  0.
<mgrwt>
<rscale>  0 0.40185978E+03</rscale>
<asrwt>0</asrwt>
<pdfrwt beam="1">  1        2 0.49047595E+00 0.40185978E+03</pdfrwt>
<pdfrwt beam="2">  1       -2 0.16798685E-02 0.40185978E+03</pdfrwt>
<totfact> 0.15753484E+03</totfact>
</mgrwt>
</event>
<event>
 4    1  0.1361667E-004  0.4080179E+03  0.7818608E-02  0.1041038E+00
         -2   -1    0    0    0  501 -0.00000000000E+00  0.00000000000E+00  0.46384244648E+02  0.46384244718E+02  0.25500000000E-02 0. -1.
          2   -1    0    0  501    0  0.00000000000E+00 -0.00000000000E+00 -0.89727971252E+03  0.89727971253E+03  0.25500000000E-02 0.  1.
    5000001    1    1    2    0    0 -0.15325298831E+03 -0.19777506667E+02 -0.33256024766E+03  0.38807595458E+03  0.12700000000E+03 0.  0.
   -5000001    1    1    2    0    0  0.15325298831E+03  0.19777506667E+02 -0.51833522021E+03  0.55558800267E+03  0.12700000000E+03 0.  0.
<mgrwt>
<rscale>  0 0.40801785E+03</rscale>
<asrwt>0</asrwt>
<pdfrwt beam="1">  1        2 0.12818281E+00 0.40801785E+03</pdfrwt>
<pdfrwt beam="2">  1       -2 0.66263212E-02 0.40801785E+03</pdfrwt>
<totfact> 0.42991590E+03</totfact>
</mgrwt>
</event>
<event>
 4    1  0.1361667E-004  0.6079857E+03  0.7818608E-02  0.9888975E-01
          2   -1    0    0  501    0  0.00000000000E+00  0.00000000000E+00  0.23774527265E+04  0.23774527265E+04  0.25500000000E-02 0.  1.
         -2   -1    0    0    0  501 -0.00000000000E+00 -0.00000000000E+00 -0.38870022069E+02  0.38870022153E+02  0.25500000000E-02 0. -1.
    5000001    1    1    2    0    0  0.16019319789E+03  0.19758699488E+03  0.74161142592E+03  0.79424113986E+03  0.12700000000E+03 0.  0.
   -5000001    1    1    2    0    0 -0.16019319789E+03 -0.19758699488E+03  0.15969712785E+04  0.16220816088E+04  0.12700000000E+03 0.  0.
<mgrwt>
<rscale>  0 0.60798566E+03</rscale>
<asrwt>0</asrwt>
<pdfrwt beam="1">  1        2 0.33963614E+00 0.60798566E+03</pdfrwt>
<pdfrwt beam="2">  1       -2 0.55528597E-02 0.60798566E+03</pdfrwt>
<totfact> 0.93130139E+02</totfact>
</mgrwt>
</event>
<event>
 4    1  0.1361667E-004  0.3012500E+03  0.7818608E-02  0.1084617E+00
          2   -1    0    0  501    0  0.00000000000E+00  0.00000000000E+00  0.26668220462E+04  0.26668220462E+04  0.25500000000E-02 0.  1.
         -2   -1    0    0    0  501 -0.00000000000E+00 -0.00000000000E+00 -0.85074622435E+01  0.85074626256E+01  0.25500000000E-02 0. -1.
    5000001    1    1    2    0    0  0.41092868905E+01 -0.19370008369E+02  0.20265547350E+04  0.20306267943E+04  0.12700000000E+03 0.  0.
   -5000001    1    1    2    0    0 -0.41092868905E+01  0.19370008369E+02  0.63175984888E+03  0.64470271453E+03  0.12700000000E+03 0.  0.
<mgrwt>
<rscale>  0 0.30124999E+03</rscale>
<asrwt>0</asrwt>
<pdfrwt beam="1">  1        2 0.38097456E+00 0.30124999E+03</pdfrwt>
<pdfrwt beam="2">  1       -2 0.12153518E-02 0.30124999E+03</pdfrwt>
<totfact> 0.66311888E+03</totfact>
</mgrwt>
</event>
<event>
 4    1  0.1361667E-004  0.5053860E+03  0.7818608E-02  0.1012383E+00
         -2   -1    0    0    0  501 -0.00000000000E+00  0.00000000000E+00  0.31449712290E+02  0.31449712393E+02  0.25500000000E-02 0. -1.
          2   -1    0    0  501    0  0.00000000000E+00 -0.00000000000E+00 -0.20303447324E+04  0.20303447324E+04  0.25500000000E-02 0.  1.
    5000001    1    1    2    0    0 -0.34710328731E+01 -0.15632820048E+03 -0.16218331338E+04  0.16342956489E+04  0.12700000000E+03 0.  0.
   -5000001    1    1    2    0    0  0.34710328731E+01  0.15632820048E+03 -0.37706188638E+03  0.42749879590E+03  0.12700000000E+03 0.  0.
<mgrwt>
<rscale>  0 0.50538602E+03</rscale>
<asrwt>0</asrwt>
<pdfrwt beam="1">  1        2 0.29004916E+00 0.50538602E+03</pdfrwt>
<pdfrwt beam="2">  1       -2 0.44928173E-02 0.50538602E+03</pdfrwt>
<totfact> 0.19442111E+03</totfact>
</mgrwt>
</event>
<event>
 4    1  0.1361667E-004  0.3212777E+03  0.7818608E-02  0.1075063E+00
          2   -1    0    0  501    0  0.00000000000E+00  0.00000000000E+00  0.17330192971E+03  0.17330192973E+03  0.25500000000E-02 0.  1.
         -2   -1    0    0    0  501 -0.00000000000E+00 -0.00000000000E+00 -0.14890101883E+03  0.14890101885E+03  0.25500000000E-02 0. -1.
    5000001    1    1    2    0    0  0.89022236189E+02 -0.38855737103E+02 -0.33718870734E+01  0.15992215752E+03  0.12700000000E+03 0.  0.
   -5000001    1    1    2    0    0 -0.89022236189E+02  0.38855737103E+02  0.27772797957E+02  0.16228079106E+03  0.12700000000E+03 0.  0.
<mgrwt>
<rscale>  0 0.32127766E+03</rscale>
<asrwt>0</asrwt>
<pdfrwt beam="1">  1        2 0.24757418E-01 0.32127766E+03</pdfrwt>
<pdfrwt beam="2">  1       -2 0.21271574E-01 0.32127766E+03</pdfrwt>
<totfact> 0.41115002E+03</totfact>
</mgrwt>
</event>
<event>
 4    1  0.1361667E-004  0.3627318E+03  0.7818608E-02  0.1057507E+00
          2   -1    0    0  501    0  0.00000000000E+00  0.00000000000E+00  0.91289633992E+02  0.91289634027E+02  0.25500000000E-02 0.  1.
         -2   -1    0    0    0  501 -0.00000000000E+00 -0.00000000000E+00 -0.36032110713E+03  0.36032110714E+03  0.25500000000E-02 0. -1.
    5000001    1    1    2    0    0 -0.80261917086E+02  0.10134889864E+03 -0.14340765190E+03  0.23110242147E+03  0.12700000000E+03 0.  0.
   -5000001    1    1    2    0    0  0.80261917086E+02 -0.10134889864E+03 -0.12562382124E+03  0.22050831969E+03  0.12700000000E+03 0.  0.
<mgrwt>
<rscale>  0 0.36273176E+03</rscale>
<asrwt>0</asrwt>
<pdfrwt beam="1">  1        2 0.13041377E-01 0.36273176E+03</pdfrwt>
<pdfrwt beam="2">  1       -2 0.51474443E-01 0.36273176E+03</pdfrwt>
<totfact> 0.16823845E+03</totfact>
</mgrwt>
</event>
<event>
 4    1  0.1361667E-004  0.3337903E+03  0.7818608E-02  0.1069472E+00
          2   -1    0    0  501    0  0.00000000000E+00  0.00000000000E+00  0.54077332644E+02  0.54077332704E+02  0.25500000000E-02 0.  1.
         -2   -1    0    0    0  501 -0.00000000000E+00 -0.00000000000E+00 -0.51507706961E+03  0.51507706961E+03  0.25500000000E-02 0. -1.
    5000001    1    1    2    0    0  0.10169207307E+03  0.12170456825E+02 -0.17056291497E+03  0.23602988308E+03  0.12700000000E+03 0.  0.
   -5000001    1    1    2    0    0 -0.10169207307E+03 -0.12170456825E+02 -0.29043682200E+03  0.33312451924E+03  0.12700000000E+03 0.  0.
<mgrwt>
<rscale>  0 0.33379032E+03</rscale>
<asrwt>0</asrwt>
<pdfrwt beam="1">  1        2 0.77253335E-02 0.33379032E+03</pdfrwt>
<pdfrwt beam="2">  1       -2 0.73582436E-01 0.33379032E+03</pdfrwt>
<totfact> 0.15301166E+03</totfact>
</mgrwt>
</event>
<event>
 4    1  0.1361667E-004  0.1009448E+04  0.7818608E-02  0.9298243E-01
          2   -1    0    0  501    0  0.00000000000E+00  0.00000000000E+00  0.18427254858E+04  0.18427254858E+04  0.25500000000E-02 0.  1.
         -2   -1    0    0    0  501 -0.00000000000E+00 -0.00000000000E+00 -0.13824419372E+03  0.13824419375E+03  0.25500000000E-02 0. -1.
    5000001    1    1    2    0    0 -0.21857637226E+03 -0.64133100742E+02  0.42339810090E+01  0.26083636962E+03  0.12700000000E+03 0.  0.
   -5000001    1    1    2    0    0  0.21857637226E+03  0.64133100742E+02  0.17002473111E+04  0.17201333099E+04  0.12700000000E+03 0.  0.
<mgrwt>
<rscale>  0 0.10094476E+04</rscale>
<asrwt>0</asrwt>
<pdfrwt beam="1">  1        2 0.26324651E+00 0.10094476E+04</pdfrwt>
<pdfrwt beam="2">  1       -2 0.19749170E-01 0.10094476E+04</pdfrwt>
<totfact> 0.21091745E+02</totfact>
</mgrwt>
</event>
<event>
 4    1  0.1361667E-004  0.7207879E+03  0.7818608E-02  0.9682328E-01
         -2   -1    0    0    0  501 -0.00000000000E+00  0.00000000000E+00  0.12476630140E+03  0.12476630143E+03  0.25500000000E-02 0. -1.
          2   -1    0    0  501    0  0.00000000000E+00 -0.00000000000E+00 -0.10410165680E+04  0.10410165680E+04  0.25500000000E-02 0.  1.
    5000001    1    1    2    0    0 -0.13582430172E+03  0.30745250931E+03 -0.50328143803E+03  0.61838215715E+03  0.12700000000E+03 0.  0.
   -5000001    1    1    2    0    0  0.13582430172E+03 -0.30745250931E+03 -0.41296882853E+03  0.54740071224E+03  0.12700000000E+03 0.  0.
<mgrwt>
<rscale>  0 0.72078787E+03</rscale>
<asrwt>0</asrwt>
<pdfrwt beam="1">  1        2 0.14871665E+00 0.72078787E+03</pdfrwt>
<pdfrwt beam="2">  1       -2 0.17823758E-01 0.72078787E+03</pdfrwt>
<totfact> 0.69430124E+02</totfact>
</mgrwt>
</event>
<event>
 4    1  0.1361667E-004  0.3699089E+03  0.7818608E-02  0.1054728E+00
         -2   -1    0    0    0  501 -0.00000000000E+00  0.00000000000E+00  0.31329421978E+02  0.31329422082E+02  0.25500000000E-02 0. -1.
          2   -1    0    0  501    0  0.00000000000E+00 -0.00000000000E+00 -0.10918855773E+04  0.10918855773E+04  0.25500000000E-02 0.  1.
    5000001    1    1    2    0    0 -0.11365284609E+03  0.25557264653E+02 -0.32638226748E+03  0.36908607089E+03  0.12700000000E+03 0.  0.
   -5000001    1    1    2    0    0  0.11365284609E+03 -0.25557264653E+02 -0.73417388787E+03  0.75412892852E+03  0.12700000000E+03 0.  0.
<mgrwt>
<rscale>  0 0.36990888E+03</rscale>
<asrwt>0</asrwt>
<pdfrwt beam="1">  1        2 0.15598363E+00 0.36990888E+03</pdfrwt>
<pdfrwt beam="2">  1       -2 0.44756324E-02 0.36990888E+03</pdfrwt>
<totfact> 0.60015238E+03</totfact>
</mgrwt>
</event>
<event>
 4    1  0.1361667E-004  0.4914461E+03  0.7818608E-02  0.1016036E+00
          2   -1    0    0  501    0  0.00000000000E+00  0.00000000000E+00  0.34379365416E+03  0.34379365417E+03  0.25500000000E-02 0.  1.
         -2   -1    0    0    0  501 -0.00000000000E+00 -0.00000000000E+00 -0.17562809284E+03  0.17562809286E+03  0.25500000000E-02 0. -1.
    5000001    1    1    2    0    0  0.19833758563E+03 -0.12722644808E+02  0.15693521226E+03  0.28329723686E+03  0.12700000000E+03 0.  0.
   -5000001    1    1    2    0    0 -0.19833758563E+03  0.12722644808E+02  0.11230349064E+02  0.23612451017E+03  0.12700000000E+03 0.  0.
<mgrwt>
<rscale>  0 0.49144613E+03</rscale>
<asrwt>0</asrwt>
<pdfrwt beam="1">  1        2 0.49113379E-01 0.49144613E+03</pdfrwt>
<pdfrwt beam="2">  1       -2 0.25089728E-01 0.49144613E+03</pdfrwt>
<totfact> 0.14544203E+03</totfact>
</mgrwt>
</event>
<event>
 4    1  0.1361667E-004  0.4452547E+03  0.7818608E-02  0.1029147E+00
         -2   -1    0    0    0  501 -0.00000000000E+00  0.00000000000E+00  0.76583557734E+02  0.76583557777E+02  0.25500000000E-02 0.  1.
          2   -1    0    0  501    0  0.00000000000E+00 -0.00000000000E+00 -0.64717450561E+03  0.64717450561E+03  0.25500000000E-02 0. -1.
    5000001    1    1    2    0    0  0.12574887005E+03  0.73755775153E+02 -0.10589210949E+03  0.22044235423E+03  0.12700000000E+03 0.  0.
   -5000001    1    1    2    0    0 -0.12574887005E+03 -0.73755775153E+02 -0.46469883839E+03  0.50331570916E+03  0.12700000000E+03 0.  0.
<mgrwt>
<rscale>  0 0.44525465E+03</rscale>
<asrwt>0</asrwt>
<pdfrwt beam="1">  1        2 0.92453498E-01 0.44525465E+03</pdfrwt>
<pdfrwt beam="2">  1       -2 0.10940509E-01 0.44525465E+03</pdfrwt>
<totfact> 0.29129479E+03</totfact>
</mgrwt>
</event>
<event>
 4    1  0.1361667E-004  0.4806472E+03  0.7818608E-02  0.1018957E+00
         -2   -1    0    0    0  501 -0.00000000000E+00  0.00000000000E+00  0.47521567795E+02  0.47521567863E+02  0.25500000000E-02 0. -1.
          2   -1    0    0  501    0  0.00000000000E+00 -0.00000000000E+00 -0.12153521252E+04  0.12153521252E+04  0.25500000000E-02 0.  1.
    5000001    1    1    2    0    0 -0.12865793014E+03 -0.65608190523E+01 -0.99960425807E+03  0.10158413164E+04  0.12700000000E+03 0.  0.
   -5000001    1    1    2    0    0  0.12865793014E+03  0.65608190523E+01 -0.16822629931E+03  0.24703237665E+03  0.12700000000E+03 0.  0.
<mgrwt>
<rscale>  0 0.48064722E+03</rscale>
<asrwt>0</asrwt>
<pdfrwt beam="1">  1        2 0.17362171E+00 0.48064722E+03</pdfrwt>
<pdfrwt beam="2">  1       -2 0.67887961E-02 0.48064722E+03</pdfrwt>
<totfact> 0.26911767E+03</totfact>
</mgrwt>
</event>
<event>
 4    1  0.1361667E-004  0.7528236E+03  0.7818608E-02  0.9630931E-01
          2   -1    0    0  501    0  0.00000000000E+00  0.00000000000E+00  0.80159039584E+03  0.80159039585E+03  0.25500000000E-02 0.  1.
         -2   -1    0    0    0  501 -0.00000000000E+00 -0.00000000000E+00 -0.17675592122E+03  0.17675592124E+03  0.25500000000E-02 0. -1.
    5000001    1    1    2    0    0 -0.12757930613E+03 -0.31132799003E+03  0.45686977870E+03  0.58142978202E+03  0.12700000000E+03 0.  0.
   -5000001    1    1    2    0    0  0.12757930613E+03  0.31132799003E+03  0.16796469593E+03  0.39691653507E+03  0.12700000000E+03 0.  0.
<mgrwt>
<rscale>  0 0.75282362E+03</rscale>
<asrwt>0</asrwt>
<pdfrwt beam="1">  1        2 0.11451291E+00 0.75282362E+03</pdfrwt>
<pdfrwt beam="2">  1       -2 0.25250846E-01 0.75282362E+03</pdfrwt>
<totfact> 0.53536687E+02</totfact>
</mgrwt>
</event>
<event>
 4    1  0.1361667E-004  0.5457386E+03  0.7818608E-02  0.1002485E+00
         -2   -1    0    0    0  501 -0.00000000000E+00  0.00000000000E+00  0.18356832847E+03  0.18356832849E+03  0.25500000000E-02 0. -1.
          2   -1    0    0  501    0  0.00000000000E+00 -0.00000000000E+00 -0.40561279852E+03  0.40561279853E+03  0.25500000000E-02 0.  1.
    5000001    1    1    2    0    0  0.22064125628E+03  0.35841777162E+02 -0.20974228256E+03  0.33179515075E+03  0.12700000000E+03 0.  0.
   -5000001    1    1    2    0    0 -0.22064125628E+03 -0.35841777162E+02 -0.12302187496E+02  0.25738597627E+03  0.12700000000E+03 0.  0.
<mgrwt>
<rscale>  0 0.54573863E+03</rscale>
<asrwt>0</asrwt>
<pdfrwt beam="1">  1        2 0.57944685E-01 0.54573863E+03</pdfrwt>
<pdfrwt beam="2">  1       -2 0.26224047E-01 0.54573863E+03</pdfrwt>
<totfact> 0.11193884E+03</totfact>
</mgrwt>
</event>
<event>
 4    1  0.1361667E-004  0.5987452E+03  0.7818608E-02  0.9908013E-01
         -2   -1    0    0    0  501 -0.00000000000E+00  0.00000000000E+00  0.66405905346E+02  0.66405905395E+02  0.25500000000E-02 0. -1.
          2   -1    0    0  501    0  0.00000000000E+00 -0.00000000000E+00 -0.13496381626E+04  0.13496381626E+04  0.25500000000E-02 0.  1.
    5000001    1    1    2    0    0 -0.25938298677E+03  0.23146535279E+02 -0.81985214416E+03  0.86954116303E+03  0.12700000000E+03 0.  0.
   -5000001    1    1    2    0    0  0.25938298677E+03 -0.23146535279E+02 -0.46338011307E+03  0.54650290495E+03  0.12700000000E+03 0.  0.
<mgrwt>
<rscale>  0 0.59874517E+03</rscale>
<asrwt>0</asrwt>
<pdfrwt beam="1">  1        2 0.19280544E+00 0.59874517E+03</pdfrwt>
<pdfrwt beam="2">  1       -2 0.94865587E-02 0.59874517E+03</pdfrwt>
<totfact> 0.13325747E+03</totfact>
</mgrwt>
</event>
<event>
 4    1  0.1361667E-004  0.4707436E+03  0.7818608E-02  0.1021711E+00
          2   -1    0    0  501    0  0.00000000000E+00  0.00000000000E+00  0.37968525773E+04  0.37968525773E+04  0.25500000000E-02 0.  1.
         -2   -1    0    0    0  501 -0.00000000000E+00 -0.00000000000E+00 -0.14591003097E+02  0.14591003320E+02  0.25500000000E-02 0. -1.
    5000001    1    1    2    0    0 -0.79406037097E+02  0.13784346767E+03  0.28479317525E+04  0.28551970873E+04  0.12700000000E+03 0.  0.
   -5000001    1    1    2    0    0  0.79406037097E+02 -0.13784346767E+03  0.93432982173E+03  0.95624649337E+03  0.12700000000E+03 0.  0.
<mgrwt>
<rscale>  0 0.47074362E+03</rscale>
<asrwt>0</asrwt>
<pdfrwt beam="1">  1        2 0.54240743E+00 0.47074362E+03</pdfrwt>
<pdfrwt beam="2">  1       -2 0.20844293E-02 0.47074362E+03</pdfrwt>
<totfact> 0.68363267E+02</totfact>
</mgrwt>
</event>
<event>
 4    1  0.1361667E-004  0.2846630E+03  0.7818608E-02  0.1093169E+00
          2   -1    0    0  501    0  0.00000000000E+00  0.00000000000E+00  0.21993816571E+03  0.21993816573E+03  0.25500000000E-02 0.  1.
         -2   -1    0    0    0  501 -0.00000000000E+00 -0.00000000000E+00 -0.92108883843E+02  0.92108883878E+02  0.25500000000E-02 0. -1.
    5000001    1    1    2    0    0  0.44952533489E+02  0.22001996354E+02  0.10809619395E+03  0.17412238586E+03  0.12700000000E+03 0.  0.
   -5000001    1    1    2    0    0 -0.44952533489E+02 -0.22001996354E+02  0.19733087917E+02  0.13792466375E+03  0.12700000000E+03 0.  0.
<mgrwt>
<rscale>  0 0.28466302E+03</rscale>
<asrwt>0</asrwt>
<pdfrwt beam="1">  1        2 0.31419738E-01 0.28466302E+03</pdfrwt>
<pdfrwt beam="2">  1       -2 0.13158412E-01 0.28466302E+03</pdfrwt>
<totfact> 0.70398693E+03</totfact>
</mgrwt>
</event>
<event>
 4    1  0.1361667E-004  0.3535531E+03  0.7818608E-02  0.1061166E+00
          2   -1    0    0  501    0  0.00000000000E+00  0.00000000000E+00  0.11963115868E+04  0.11963115868E+04  0.25500000000E-02 0.  1.
         -2   -1    0    0    0  501 -0.00000000000E+00 -0.00000000000E+00 -0.26121909019E+02  0.26121909144E+02  0.25500000000E-02 0. -1.
    5000001    1    1    2    0    0 -0.96475834292E+02  0.25824218110E+02  0.33705286754E+03  0.37377548390E+03  0.12700000000E+03 0.  0.
   -5000001    1    1    2    0    0  0.96475834292E+02 -0.25824218110E+02  0.83313681026E+03  0.84865801207E+03  0.12700000000E+03 0.  0.
<mgrwt>
<rscale>  0 0.35355307E+03</rscale>
<asrwt>0</asrwt>
<pdfrwt beam="1">  1        2 0.17090164E+00 0.35355307E+03</pdfrwt>
<pdfrwt beam="2">  1       -2 0.37317016E-02 0.35355307E+03</pdfrwt>
<totfact> 0.69058296E+03</totfact>
</mgrwt>
</event>
<event>
 4    1  0.1361667E-004  0.5960416E+03  0.7818608E-02  0.9913653E-01
         -2   -1    0    0    0  501 -0.00000000000E+00  0.00000000000E+00  0.67131264756E+02  0.67131264805E+02  0.25500000000E-02 0. -1.
          2   -1    0    0  501    0  0.00000000000E+00 -0.00000000000E+00 -0.13230258564E+04  0.13230258564E+04  0.25500000000E-02 0.  1.
    5000001    1    1    2    0    0 -0.13363653896E+03  0.19124618007E+03 -0.31283796923E+03  0.41040275453E+03  0.12700000000E+03 0.  0.
   -5000001    1    1    2    0    0  0.13363653896E+03 -0.19124618007E+03 -0.94305662237E+03  0.97975436663E+03  0.12700000000E+03 0.  0.
<mgrwt>
<rscale>  0 0.59604161E+03</rscale>
<asrwt>0</asrwt>
<pdfrwt beam="1">  1        2 0.18900368E+00 0.59604161E+03</pdfrwt>
<pdfrwt beam="2">  1       -2 0.95901815E-02 0.59604161E+03</pdfrwt>
<totfact> 0.13534646E+03</totfact>
</mgrwt>
</event>
<event>
 4    1  0.1361667E-004  0.3902091E+03  0.7818608E-02  0.1047224E+00
         -2   -1    0    0    0  501 -0.00000000000E+00  0.00000000000E+00  0.50906453975E+02  0.50906454039E+02  0.25500000000E-02 0. -1.
          2   -1    0    0  501    0  0.00000000000E+00 -0.00000000000E+00 -0.74775948115E+03  0.74775948116E+03  0.25500000000E-02 0.  1.
    5000001    1    1    2    0    0 -0.10574885648E+03  0.86812280333E+02 -0.23232625269E+03  0.29803301889E+03  0.12700000000E+03 0.  0.
   -5000001    1    1    2    0    0  0.10574885648E+03 -0.86812280333E+02 -0.46452677449E+03  0.50063291630E+03  0.12700000000E+03 0.  0.
<mgrwt>
<rscale>  0 0.39020909E+03</rscale>
<asrwt>0</asrwt>
<pdfrwt beam="1">  1        2 0.10682278E+00 0.39020909E+03</pdfrwt>
<pdfrwt beam="2">  1       -2 0.72723511E-02 0.39020909E+03</pdfrwt>
<totfact> 0.46819945E+03</totfact>
</mgrwt>
</event>
<event>
 4    1  0.1361667E-004  0.5511101E+03  0.7818608E-02  0.1001237E+00
          2   -1    0    0  501    0  0.00000000000E+00  0.00000000000E+00  0.75744624323E+03  0.75744624323E+03  0.25500000000E-02 0.  1.
         -2   -1    0    0    0  501 -0.00000000000E+00 -0.00000000000E+00 -0.10024552277E+03  0.10024552280E+03  0.25500000000E-02 0. -1.
    5000001    1    1    2    0    0  0.17392583732E+03 -0.16609546432E+03  0.25963519130E+03  0.37600177223E+03  0.12700000000E+03 0.  0.
   -5000001    1    1    2    0    0 -0.17392583732E+03  0.16609546432E+03  0.39756552916E+03  0.48168999380E+03  0.12700000000E+03 0.  0.
<mgrwt>
<rscale>  0 0.55111013E+03</rscale>
<asrwt>0</asrwt>
<pdfrwt beam="1">  1        2 0.10820661E+00 0.55111013E+03</pdfrwt>
<pdfrwt beam="2">  1       -2 0.14320789E-01 0.55111013E+03</pdfrwt>
<totfact> 0.15454858E+03</totfact>
</mgrwt>
</event>
<event>
 4    1  0.1361667E-004  0.4335488E+03  0.7818608E-02  0.1032745E+00
         -2   -1    0    0    0  501 -0.00000000000E+00  0.00000000000E+00  0.35423134170E+02  0.35423134262E+02  0.25500000000E-02 0. -1.
          2   -1    0    0  501    0  0.00000000000E+00 -0.00000000000E+00 -0.13265663213E+04  0.13265663213E+04  0.25500000000E-02 0.  1.
    5000001    1    1    2    0    0 -0.14022170944E+03  0.62353445989E+02 -0.37694095002E+03  0.42633737794E+03  0.12700000000E+03 0.  0.
   -5000001    1    1    2    0    0  0.14022170944E+03 -0.62353445989E+02 -0.91420223711E+03  0.93565207763E+03  0.12700000000E+03 0.  0.
<mgrwt>
<rscale>  0 0.43354878E+03</rscale>
<asrwt>0</asrwt>
<pdfrwt beam="1">  1        2 0.18950944E+00 0.43354878E+03</pdfrwt>
<pdfrwt beam="2">  1       -2 0.50604486E-02 0.43354878E+03</pdfrwt>
<totfact> 0.36972563E+03</totfact>
</mgrwt>
</event>
<event>
 4    1  0.1361667E-004  0.2955401E+03  0.7818608E-02  0.1087492E+00
         -2   -1    0    0    0  501 -0.00000000000E+00  0.00000000000E+00  0.26218914310E+02  0.26218914434E+02  0.25500000000E-02 0. -1.
          2   -1    0    0  501    0  0.00000000000E+00 -0.00000000000E+00 -0.83283333182E+03  0.83283333183E+03  0.25500000000E-02 0.  1.
    5000001    1    1    2    0    0 -0.72144371074E+02  0.19512398451E+02 -0.37127496507E+03  0.39944917531E+03  0.12700000000E+03 0.  0.
   -5000001    1    1    2    0    0  0.72144371074E+02 -0.19512398451E+02 -0.43533945244E+03  0.45960307095E+03  0.12700000000E+03 0.  0.
<mgrwt>
<rscale>  0 0.29554009E+03</rscale>
<asrwt>0</asrwt>
<pdfrwt beam="1">  1        2 0.11897617E+00 0.29554009E+03</pdfrwt>
<pdfrwt beam="2">  1       -2 0.37455597E-02 0.29554009E+03</pdfrwt>
<totfact> 0.11241407E+04</totfact>
</mgrwt>
</event>
<event>
 4    1  0.1361667E-004  0.6409745E+03  0.7818608E-02  0.9823864E-01
         -2   -1    0    0    0  501 -0.00000000000E+00  0.00000000000E+00  0.99379154644E+02  0.99379154677E+02  0.25500000000E-02 0. -1.
          2   -1    0    0  501    0  0.00000000000E+00 -0.00000000000E+00 -0.10335374183E+04  0.10335374183E+04  0.25500000000E-02 0.  1.
    5000001    1    1    2    0    0  0.11809346004E+03  0.11580720609E+03 -0.36936699519E+02  0.21177982448E+03  0.12700000000E+03 0.  0.
   -5000001    1    1    2    0    0 -0.11809346004E+03 -0.11580720609E+03 -0.89722156418E+03  0.92113674854E+03  0.12700000000E+03 0.  0.
<mgrwt>
<rscale>  0 0.64097449E+03</rscale>
<asrwt>0</asrwt>
<pdfrwt beam="1">  1        2 0.14764820E+00 0.64097449E+03</pdfrwt>
<pdfrwt beam="2">  1       -2 0.14197023E-01 0.64097449E+03</pdfrwt>
<totfact> 0.10349993E+03</totfact>
</mgrwt>
</event>
<event>
 4    1  0.1361667E-004  0.4757556E+03  0.7818608E-02  0.1020308E+00
          2   -1    0    0  501    0  0.00000000000E+00  0.00000000000E+00  0.25011400103E+04  0.25011400103E+04  0.25500000000E-02 0.  1.
         -2   -1    0    0    0  501 -0.00000000000E+00 -0.00000000000E+00 -0.22624022475E+02  0.22624022619E+02  0.25500000000E-02 0. -1.
    5000001    1    1    2    0    0  0.62021784332E+02 -0.10206542991E+03  0.20977885420E+04  0.21050201474E+04  0.12700000000E+03 0.  0.
   -5000001    1    1    2    0    0 -0.62021784332E+02  0.10206542991E+03  0.38072744581E+03  0.41874388558E+03  0.12700000000E+03 0.  0.
<mgrwt>
<rscale>  0 0.47575560E+03</rscale>
<asrwt>0</asrwt>
<pdfrwt beam="1">  1        2 0.35730567E+00 0.47575560E+03</pdfrwt>
<pdfrwt beam="2">  1       -2 0.32320036E-02 0.47575560E+03</pdfrwt>
<totfact> 0.18670990E+03</totfact>
</mgrwt>
</event>
<event>
 4    1  0.1361667E-004  0.5420125E+03  0.7818608E-02  0.1003360E+00
         -2   -1    0    0    0  501 -0.00000000000E+00  0.00000000000E+00  0.11888899608E+03  0.11888899610E+03  0.25500000000E-02 0. -1.
          2   -1    0    0  501    0  0.00000000000E+00 -0.00000000000E+00 -0.61775593256E+03  0.61775593256E+03  0.25500000000E-02 0.  1.
    5000001    1    1    2    0    0  0.15579980608E+03  0.17346906818E+03 -0.17561229637E+03  0.31832966533E+03  0.12700000000E+03 0.  0.
   -5000001    1    1    2    0    0 -0.15579980608E+03 -0.17346906818E+03 -0.32325464011E+03  0.41831526334E+03  0.12700000000E+03 0.  0.
<mgrwt>
<rscale>  0 0.54201248E+03</rscale>
<asrwt>0</asrwt>
<pdfrwt beam="1">  1        2 0.88250846E-01 0.54201248E+03</pdfrwt>
<pdfrwt beam="2">  1       -2 0.16984143E-01 0.54201248E+03</pdfrwt>
<totfact> 0.14841883E+03</totfact>
</mgrwt>
</event>
<event>
 4    1  0.1361667E-004  0.3908744E+03  0.7818608E-02  0.1046986E+00
         -2   -1    0    0    0  501 -0.00000000000E+00  0.00000000000E+00  0.39838600652E+02  0.39838600733E+02  0.25500000000E-02 0. -1.
          2   -1    0    0  501    0  0.00000000000E+00 -0.00000000000E+00 -0.95876102815E+03  0.95876102815E+03  0.25500000000E-02 0.  1.
    5000001    1    1    2    0    0 -0.76283154942E+02  0.63487348804E+02 -0.17708032246E+03  0.23944979388E+03  0.12700000000E+03 0.  0.
   -5000001    1    1    2    0    0  0.76283154942E+02 -0.63487348804E+02 -0.74184210503E+03  0.75914983500E+03  0.12700000000E+03 0.  0.
<mgrwt>
<rscale>  0 0.39087439E+03</rscale>
<asrwt>0</asrwt>
<pdfrwt beam="1">  1        2 0.13696585E+00 0.39087439E+03</pdfrwt>
<pdfrwt beam="2">  1       -2 0.56912293E-02 0.39087439E+03</pdfrwt>
<totfact> 0.49804450E+03</totfact>
</mgrwt>
</event>
<event>
 4    1  0.1361667E-004  0.9458082E+03  0.7818608E-02  0.9370064E-01
         -2   -1    0    0    0  501 -0.00000000000E+00  0.00000000000E+00  0.56167671568E+03  0.56167671569E+03  0.25500000000E-02 0. -1.
          2   -1    0    0  501    0  0.00000000000E+00 -0.00000000000E+00 -0.39816189272E+03  0.39816189273E+03  0.25500000000E-02 0.  1.
    5000001    1    1    2    0    0  0.39525070166E+02  0.40006681144E+03 -0.13564838977E+03  0.44288279537E+03  0.12700000000E+03 0.  0.
   -5000001    1    1    2    0    0 -0.39525070166E+02 -0.40006681144E+03  0.29916321274E+03  0.51695581305E+03  0.12700000000E+03 0.  0.
<mgrwt>
<rscale>  0 0.94580815E+03</rscale>
<asrwt>0</asrwt>
<pdfrwt beam="1">  1        2 0.56880271E-01 0.94580815E+03</pdfrwt>
<pdfrwt beam="2">  1       -2 0.80239530E-01 0.94580815E+03</pdfrwt>
<totfact> 0.11958513E+02</totfact>
</mgrwt>
</event>
<event>
 4    1  0.1361667E-004  0.6439725E+03  0.7818608E-02  0.9818156E-01
          2   -1    0    0  501    0  0.00000000000E+00  0.00000000000E+00  0.23013236525E+04  0.23013236526E+04  0.25500000000E-02 0.  1.
         -2   -1    0    0    0  501 -0.00000000000E+00 -0.00000000000E+00 -0.45050223069E+02  0.45050223141E+02  0.25500000000E-02 0. -1.
    5000001    1    1    2    0    0 -0.21948998817E+03 -0.19066229856E+03  0.92796521314E+03  0.98070199541E+03  0.12700000000E+03 0.  0.
   -5000001    1    1    2    0    0  0.21948998817E+03  0.19066229856E+03  0.13283082163E+04  0.13656718803E+04  0.12700000000E+03 0.  0.
<mgrwt>
<rscale>  0 0.64397250E+03</rscale>
<asrwt>0</asrwt>
<pdfrwt beam="1">  1        2 0.32876056E+00 0.64397250E+03</pdfrwt>
<pdfrwt beam="2">  1       -2 0.64357454E-02 0.64397250E+03</pdfrwt>
<totfact> 0.80586808E+02</totfact>
</mgrwt>
</event>
<event>
 4    1  0.1361667E-004  0.3040881E+03  0.7818608E-02  0.1083215E+00
         -2   -1    0    0    0  501 -0.00000000000E+00  0.00000000000E+00  0.67464653089E+02  0.67464653137E+02  0.25500000000E-02 0.  1.
          2   -1    0    0  501    0  0.00000000000E+00 -0.00000000000E+00 -0.34265922517E+03  0.34265922518E+03  0.25500000000E-02 0. -1.
    5000001    1    1    2    0    0  0.51225676038E+02 -0.18680021967E+01 -0.48533715625E+02  0.14529996858E+03  0.12700000000E+03 0.  0.
   -5000001    1    1    2    0    0 -0.51225676038E+02  0.18680021967E+01 -0.22666085646E+03  0.26482390973E+03  0.12700000000E+03 0.  0.
<mgrwt>
<rscale>  0 0.30408805E+03</rscale>
<asrwt>0</asrwt>
<pdfrwt beam="1">  1        2 0.48951317E-01 0.30408805E+03</pdfrwt>
<pdfrwt beam="2">  1       -2 0.96378078E-02 0.30408805E+03</pdfrwt>
<totfact> 0.72023346E+03</totfact>
</mgrwt>
</event>
<event>
 4    1  0.1361667E-004  0.3556868E+03  0.7818608E-02  0.1060305E+00
         -2   -1    0    0    0  501 -0.00000000000E+00  0.00000000000E+00  0.27800924884E+02  0.27800925001E+02  0.25500000000E-02 0. -1.
          2   -1    0    0  501    0  0.00000000000E+00 -0.00000000000E+00 -0.11376700652E+04  0.11376700652E+04  0.25500000000E-02 0.  1.
    5000001    1    1    2    0    0 -0.25291995042E+02  0.10343348902E+03 -0.34356707506E+03  0.38145184064E+03  0.12700000000E+03 0.  0.
   -5000001    1    1    2    0    0  0.25291995042E+02 -0.10343348902E+03 -0.76630206521E+03  0.78401914952E+03  0.12700000000E+03 0.  0.
<mgrwt>
<rscale>  0 0.35568683E+03</rscale>
<asrwt>0</asrwt>
<pdfrwt beam="1">  1        2 0.16252427E+00 0.35568683E+03</pdfrwt>
<pdfrwt beam="2">  1       -2 0.39715614E-02 0.35568683E+03</pdfrwt>
<totfact> 0.67746008E+03</totfact>
</mgrwt>
</event>
<event>
 4    1  0.1361667E-004  0.3686685E+03  0.7818608E-02  0.1055203E+00
          2   -1    0    0  501    0  0.00000000000E+00  0.00000000000E+00  0.94924914350E+03  0.94924914350E+03  0.25500000000E-02 0.  1.
         -2   -1    0    0    0  501 -0.00000000000E+00 -0.00000000000E+00 -0.35795785117E+02  0.35795785207E+02  0.25500000000E-02 0. -1.
    5000001    1    1    2    0    0 -0.12914622115E+03  0.16748866963E+02  0.37697833852E+03  0.41857011204E+03  0.12700000000E+03 0.  0.
   -5000001    1    1    2    0    0  0.12914622115E+03 -0.16748866963E+02  0.53647501986E+03  0.56647481667E+03  0.12700000000E+03 0.  0.
<mgrwt>
<rscale>  0 0.36866851E+03</rscale>
<asrwt>0</asrwt>
<pdfrwt beam="1">  1        2 0.13560702E+00 0.36866851E+03</pdfrwt>
<pdfrwt beam="2">  1       -2 0.51136836E-02 0.36866851E+03</pdfrwt>
<totfact> 0.59457402E+03</totfact>
</mgrwt>
</event>
<event>
 4    1  0.1361667E-004  0.5006968E+03  0.7818608E-02  0.1013597E+00
         -2   -1    0    0    0  501 -0.00000000000E+00  0.00000000000E+00  0.38268568598E+02  0.38268568683E+02  0.25500000000E-02 0. -1.
          2   -1    0    0  501    0  0.00000000000E+00 -0.00000000000E+00 -0.16377492328E+04  0.16377492328E+04  0.25500000000E-02 0.  1.
    5000001    1    1    2    0    0  0.13034577791E+03 -0.84574473995E+02 -0.29872429083E+03  0.35987229041E+03  0.12700000000E+03 0.  0.
   -5000001    1    1    2    0    0 -0.13034577791E+03  0.84574473995E+02 -0.13007563734E+04  0.13161455111E+04  0.12700000000E+03 0.  0.
<mgrwt>
<rscale>  0 0.50069679E+03</rscale>
<asrwt>0</asrwt>
<pdfrwt beam="1">  1        2 0.23396413E+00 0.50069679E+03</pdfrwt>
<pdfrwt beam="2">  1       -2 0.54669394E-02 0.50069679E+03</pdfrwt>
<totfact> 0.22605710E+03</totfact>
</mgrwt>
</event>
<event>
 4    1  0.1361667E-004  0.4848488E+03  0.7818608E-02  0.1017811E+00
          2   -1    0    0  501    0  0.00000000000E+00  0.00000000000E+00  0.21018451064E+04  0.21018451064E+04  0.25500000000E-02 0.  1.
         -2   -1    0    0    0  501 -0.00000000000E+00 -0.00000000000E+00 -0.27960952664E+02  0.27960952781E+02  0.25500000000E-02 0. -1.
    5000001    1    1    2    0    0  0.48219972557E+02  0.18929347394E+03  0.13310710391E+04  0.13513091045E+04  0.12700000000E+03 0.  0.
   -5000001    1    1    2    0    0 -0.48219972557E+02 -0.18929347394E+03  0.74281311464E+03  0.77849695459E+03  0.12700000000E+03 0.  0.
<mgrwt>
<rscale>  0 0.48484881E+03</rscale>
<asrwt>0</asrwt>
<pdfrwt beam="1">  1        2 0.30026373E+00 0.48484881E+03</pdfrwt>
<pdfrwt beam="2">  1       -2 0.39944200E-02 0.48484881E+03</pdfrwt>
<totfact> 0.21465815E+03</totfact>
</mgrwt>
</event>
<event>
 4    1  0.1361667E-004  0.3578394E+03  0.7818608E-02  0.1059443E+00
          2   -1    0    0  501    0  0.00000000000E+00  0.00000000000E+00  0.23578106507E+04  0.23578106507E+04  0.25500000000E-02 0.  1.
         -2   -1    0    0    0  501 -0.00000000000E+00 -0.00000000000E+00 -0.13577112878E+02  0.13577113117E+02  0.25500000000E-02 0. -1.
    5000001    1    1    2    0    0  0.35046469505E+01  0.10940348941E+03  0.75816475860E+03  0.77648194263E+03  0.12700000000E+03 0.  0.
   -5000001    1    1    2    0    0 -0.35046469505E+01 -0.10940348941E+03  0.15860687792E+04  0.15949058212E+04  0.12700000000E+03 0.  0.
<mgrwt>
<rscale>  0 0.35783941E+03</rscale>
<asrwt>0</asrwt>
<pdfrwt beam="1">  1        2 0.33682994E+00 0.35783941E+03</pdfrwt>
<pdfrwt beam="2">  1       -2 0.19395885E-02 0.35783941E+03</pdfrwt>
<totfact> 0.47641482E+03</totfact>
</mgrwt>
</event>
<event>
 4    1  0.1361667E-004  0.3823072E+03  0.7818608E-02  0.1050084E+00
          2   -1    0    0  501    0  0.00000000000E+00  0.00000000000E+00  0.42669130621E+02  0.42669130698E+02  0.25500000000E-02 0.  1.
         -2   -1    0    0    0  501 -0.00000000000E+00 -0.00000000000E+00 -0.85634955740E+03  0.85634955740E+03  0.25500000000E-02 0. -1.
    5000001    1    1    2    0    0 -0.85227049704E+02  0.11134140913E+03 -0.47124602647E+03  0.50780151325E+03  0.12700000000E+03 0.  0.
   -5000001    1    1    2    0    0  0.85227049704E+02 -0.11134140913E+03 -0.34243440030E+03  0.39121717485E+03  0.12700000000E+03 0.  0.
<mgrwt>
<rscale>  0 0.38230716E+03</rscale>
<asrwt>0</asrwt>
<pdfrwt beam="1">  1        2 0.60955906E-02 0.38230716E+03</pdfrwt>
<pdfrwt beam="2">  1       -2 0.12233564E+00 0.38230716E+03</pdfrwt>
<totfact> 0.64521875E+02</totfact>
</mgrwt>
</event>
<event>
 4    1  0.1361667E-004  0.5088927E+03  0.7818608E-02  0.1011483E+00
          2   -1    0    0  501    0  0.00000000000E+00  0.00000000000E+00  0.15590597959E+03  0.15590597961E+03  0.25500000000E-02 0.  1.
         -2   -1    0    0    0  501 -0.00000000000E+00 -0.00000000000E+00 -0.41526920955E+03  0.41526920955E+03  0.25500000000E-02 0. -1.
    5000001    1    1    2    0    0 -0.53774407987E+02 -0.20984926011E+03 -0.83601408025E+02  0.26466317150E+03  0.12700000000E+03 0.  0.
   -5000001    1    1    2    0    0  0.53774407987E+02  0.20984926011E+03 -0.17576182194E+03  0.30651201767E+03  0.12700000000E+03 0.  0.
<mgrwt>
<rscale>  0 0.50889273E+03</rscale>
<asrwt>0</asrwt>
<pdfrwt beam="1">  1        2 0.22272283E-01 0.50889273E+03</pdfrwt>
<pdfrwt beam="2">  1       -2 0.59324172E-01 0.50889273E+03</pdfrwt>
<totfact> 0.66866362E+02</totfact>
</mgrwt>
</event>
<event>
 4    1  0.1361667E-004  0.4199850E+03  0.7818608E-02  0.1037071E+00
         -2   -1    0    0    0  501 -0.00000000000E+00  0.00000000000E+00  0.28081235199E+02  0.28081235315E+02  0.25500000000E-02 0. -1.
          2   -1    0    0  501    0  0.00000000000E+00 -0.00000000000E+00 -0.15703314663E+04  0.15703314663E+04  0.25500000000E-02 0.  1.
    5000001    1    1    2    0    0  0.16421356671E+03 -0.20346626952E+02 -0.67885573276E+03  0.71017898210E+03  0.12700000000E+03 0.  0.
   -5000001    1    1    2    0    0 -0.16421356671E+03  0.20346626952E+02 -0.86339449836E+03  0.88823371954E+03  0.12700000000E+03 0.  0.
<mgrwt>
<rscale>  0 0.41998499E+03</rscale>
<asrwt>0</asrwt>
<pdfrwt beam="1">  1        2 0.22433301E+00 0.41998499E+03</pdfrwt>
<pdfrwt beam="2">  1       -2 0.40116060E-02 0.41998499E+03</pdfrwt>
<totfact> 0.39411600E+03</totfact>
</mgrwt>
</event>
<event>
 4    1  0.1361667E-004  0.4031348E+03  0.7818608E-02  0.1042700E+00
          2   -1    0    0  501    0  0.00000000000E+00  0.00000000000E+00  0.12296995116E+03  0.12296995118E+03  0.25500000000E-02 0.  1.
         -2   -1    0    0    0  501 -0.00000000000E+00 -0.00000000000E+00 -0.33040124772E+03  0.33040124773E+03  0.25500000000E-02 0. -1.
    5000001    1    1    2    0    0  0.42685501724E+02  0.56629570758E+02 -0.26064453935E+03  0.29848540372E+03  0.12700000000E+03 0.  0.
   -5000001    1    1    2    0    0 -0.42685501724E+02 -0.56629570758E+02  0.53213242793E+02  0.15488579519E+03  0.12700000000E+03 0.  0.
<mgrwt>
<rscale>  0 0.40313484E+03</rscale>
<asrwt>0</asrwt>
<pdfrwt beam="1">  1        2 0.17567136E-01 0.40313484E+03</pdfrwt>
<pdfrwt beam="2">  1       -2 0.47200178E-01 0.40313484E+03</pdfrwt>
<totfact> 0.14035508E+03</totfact>
</mgrwt>
</event>
<event>
 4    1  0.1361667E-004  0.6650620E+03  0.7818608E-02  0.9778920E-01
          2   -1    0    0  501    0  0.00000000000E+00  0.00000000000E+00  0.52811995747E+03  0.52811995747E+03  0.25500000000E-02 0.  1.
         -2   -1    0    0    0  501 -0.00000000000E+00 -0.00000000000E+00 -0.20937829023E+03  0.20937829025E+03  0.25500000000E-02 0. -1.
    5000001    1    1    2    0    0 -0.19407223557E+03  0.16492152341E+03  0.35010678390E+03  0.45118388893E+03  0.12700000000E+03 0.  0.
   -5000001    1    1    2    0    0  0.19407223557E+03 -0.16492152341E+03 -0.31365116664E+02  0.28631435879E+03  0.12700000000E+03 0.  0.
<mgrwt>
<rscale>  0 0.66506196E+03</rscale>
<asrwt>0</asrwt>
<pdfrwt beam="1">  1        2 0.75445709E-01 0.66506196E+03</pdfrwt>
<pdfrwt beam="2">  1       -2 0.29911184E-01 0.66506196E+03</pdfrwt>
<totfact> 0.65259882E+02</totfact>
</mgrwt>
</event>
<event>
 4    1  0.1361667E-004  0.7763395E+03  0.7818608E-02  0.9594911E-01
         -2   -1    0    0    0  501 -0.00000000000E+00  0.00000000000E+00  0.11408767295E+03  0.11408767298E+03  0.25500000000E-02 0. -1.
          2   -1    0    0  501    0  0.00000000000E+00 -0.00000000000E+00 -0.13207015129E+04  0.13207015129E+04  0.25500000000E-02 0.  1.
    5000001    1    1    2    0    0 -0.36131548148E+03 -0.22524308865E+02 -0.49411694909E+03  0.62556916566E+03  0.12700000000E+03 0.  0.
   -5000001    1    1    2    0    0  0.36131548148E+03  0.22524308865E+02 -0.71249689082E+03  0.80922002019E+03  0.12700000000E+03 0.  0.
<mgrwt>
<rscale>  0 0.77633952E+03</rscale>
<asrwt>0</asrwt>
<pdfrwt beam="1">  1        2 0.18867164E+00 0.77633952E+03</pdfrwt>
<pdfrwt beam="2">  1       -2 0.16298240E-01 0.77633952E+03</pdfrwt>
<totfact> 0.55943503E+02</totfact>
</mgrwt>
</event>
<event>
 4    1  0.1361667E-004  0.3508375E+03  0.7818608E-02  0.1062272E+00
         -2   -1    0    0    0  501 -0.00000000000E+00  0.00000000000E+00  0.57447779168E+02  0.57447779225E+02  0.25500000000E-02 0. -1.
          2   -1    0    0  501    0  0.00000000000E+00 -0.00000000000E+00 -0.53564722499E+03  0.53564722500E+03  0.25500000000E-02 0.  1.
    5000001    1    1    2    0    0  0.63549395973E+02  0.47890895031E+02 -0.39321173736E+03  0.42080462682E+03  0.12700000000E+03 0.  0.
   -5000001    1    1    2    0    0 -0.63549395973E+02 -0.47890895031E+02 -0.84987708462E+02  0.17229037740E+03  0.12700000000E+03 0.  0.
<mgrwt>
<rscale>  0 0.35083753E+03</rscale>
<asrwt>0</asrwt>
<pdfrwt beam="1">  1        2 0.76521029E-01 0.35083753E+03</pdfrwt>
<pdfrwt beam="2">  1       -2 0.82068259E-02 0.35083753E+03</pdfrwt>
<totfact> 0.57129002E+03</totfact>
</mgrwt>
</event>
<event>
 4    1  0.1361667E-004  0.2948458E+03  0.7818608E-02  0.1087846E+00
          2   -1    0    0  501    0  0.00000000000E+00  0.00000000000E+00  0.16128896757E+04  0.16128896757E+04  0.25500000000E-02 0.  1.
         -2   -1    0    0    0  501 -0.00000000000E+00 -0.00000000000E+00 -0.13474885725E+02  0.13474885966E+02  0.25500000000E-02 0. -1.
    5000001    1    1    2    0    0 -0.70871971204E+02  0.22060494854E+02  0.74594351408E+03  0.76030929754E+03  0.12700000000E+03 0.  0.
   -5000001    1    1    2    0    0  0.70871971204E+02 -0.22060494854E+02  0.85347127587E+03  0.86605526410E+03  0.12700000000E+03 0.  0.
<mgrwt>
<rscale>  0 0.29484575E+03</rscale>
<asrwt>0</asrwt>
<pdfrwt beam="1">  1        2 0.23041292E+00 0.29484575E+03</pdfrwt>
<pdfrwt beam="2">  1       -2 0.19249828E-02 0.29484575E+03</pdfrwt>
<totfact> 0.11214496E+04</totfact>
</mgrwt>
</event>
<event>
 4    1  0.1361667E-004  0.3854834E+03  0.7818608E-02  0.1048925E+00
         -2   -1    0    0    0  501 -0.00000000000E+00  0.00000000000E+00  0.27276963863E+02  0.27276963982E+02  0.25500000000E-02 0. -1.
          2   -1    0    0  501    0  0.00000000000E+00 -0.00000000000E+00 -0.13619317545E+04  0.13619317545E+04  0.25500000000E-02 0.  1.
    5000001    1    1    2    0    0  0.11181941107E+03  0.64337587080E+02 -0.90576392248E+03  0.92367753522E+03  0.12700000000E+03 0.  0.
   -5000001    1    1    2    0    0 -0.11181941107E+03 -0.64337587080E+02 -0.42889086815E+03  0.46553118326E+03  0.12700000000E+03 0.  0.
<mgrwt>
<rscale>  0 0.38548340E+03</rscale>
<asrwt>0</asrwt>
<pdfrwt beam="1">  1        2 0.19456164E+00 0.38548340E+03</pdfrwt>
<pdfrwt beam="2">  1       -2 0.38967100E-02 0.38548340E+03</pdfrwt>
<totfact> 0.52762311E+03</totfact>
</mgrwt>
</event>
<event>
 4    1  0.1361667E-004  0.4646382E+03  0.7818608E-02  0.1023445E+00
         -2   -1    0    0    0  501 -0.00000000000E+00  0.00000000000E+00  0.73684305991E+02  0.73684306035E+02  0.25500000000E-02 0. -1.
          2   -1    0    0  501    0  0.00000000000E+00 -0.00000000000E+00 -0.73247838302E+03  0.73247838302E+03  0.25500000000E-02 0.  1.
    5000001    1    1    2    0    0 -0.76219634460E+02 -0.17813189793E+03 -0.29920768055E+03  0.37841067882E+03  0.12700000000E+03 0.  0.
   -5000001    1    1    2    0    0  0.76219634460E+02  0.17813189793E+03 -0.35958639647E+03  0.42775201024E+03  0.12700000000E+03 0.  0.
<mgrwt>
<rscale>  0 0.46463819E+03</rscale>
<asrwt>0</asrwt>
<pdfrwt beam="1">  1        2 0.10463976E+00 0.46463819E+03</pdfrwt>
<pdfrwt beam="2">  1       -2 0.10526330E-01 0.46463819E+03</pdfrwt>
<totfact> 0.26716672E+03</totfact>
</mgrwt>
</event>
<event>
 4    1  0.1361667E-004  0.2880171E+03  0.7818608E-02  0.1091389E+00
         -2   -1    0    0    0  501 -0.00000000000E+00  0.00000000000E+00  0.30625974036E+03  0.30625974037E+03  0.25500000000E-02 0. -1.
          2   -1    0    0  501    0  0.00000000000E+00 -0.00000000000E+00 -0.67715270773E+02  0.67715270821E+02  0.25500000000E-02 0.  1.
    5000001    1    1    2    0    0 -0.20465118082E+01 -0.63250438468E+02  0.87343759780E+02  0.16662154287E+03  0.12700000000E+03 0.  0.
   -5000001    1    1    2    0    0  0.20465118082E+01  0.63250438468E+02  0.15120070981E+03  0.20735346832E+03  0.12700000000E+03 0.  0.
<mgrwt>
<rscale>  0 0.28801709E+03</rscale>
<asrwt>0</asrwt>
<pdfrwt beam="1">  1        2 0.96736099E-02 0.28801709E+03</pdfrwt>
<pdfrwt beam="2">  1       -2 0.43751392E-01 0.28801709E+03</pdfrwt>
<totfact> 0.33370649E+03</totfact>
</mgrwt>
</event>
<event>
 4    1  0.1361667E-004  0.2786519E+03  0.7818608E-02  0.1096428E+00
          2   -1    0    0  501    0  0.00000000000E+00  0.00000000000E+00  0.46251499151E+03  0.46251499152E+03  0.25500000000E-02 0.  1.
         -2   -1    0    0    0  501 -0.00000000000E+00 -0.00000000000E+00 -0.41969931588E+02  0.41969931665E+02  0.25500000000E-02 0. -1.
    5000001    1    1    2    0    0 -0.53785279593E+02 -0.16866839111E+02  0.19168776662E+03  0.23674996607E+03  0.12700000000E+03 0.  0.
   -5000001    1    1    2    0    0  0.53785279593E+02  0.16866839111E+02  0.22885729330E+03  0.26773495711E+03  0.12700000000E+03 0.  0.
<mgrwt>
<rscale>  0 0.27865192E+03</rscale>
<asrwt>0</asrwt>
<pdfrwt beam="1">  1        2 0.66073567E-01 0.27865192E+03</pdfrwt>
<pdfrwt beam="2">  1       -2 0.59957048E-02 0.27865192E+03</pdfrwt>
<totfact> 0.10870786E+04</totfact>
</mgrwt>
</event>
<event>
 4    1  0.1361667E-004  0.2841900E+03  0.7818608E-02  0.1093422E+00
          2   -1    0    0  501    0  0.00000000000E+00  0.00000000000E+00  0.26810589351E+04  0.26810589351E+04  0.25500000000E-02 0.  1.
         -2   -1    0    0    0  501 -0.00000000000E+00 -0.00000000000E+00 -0.75309753017E+01  0.75309757334E+01  0.25500000000E-02 0. -1.
    5000001    1    1    2    0    0 -0.10669423258E+01  0.49482268489E+02  0.17166438073E+04  0.17220466296E+04  0.12700000000E+03 0.  0.
   -5000001    1    1    2    0    0  0.10669423258E+01 -0.49482268489E+02  0.95688415245E+03  0.96654328122E+03  0.12700000000E+03 0.  0.
<mgrwt>
<rscale>  0 0.28419000E+03</rscale>
<asrwt>0</asrwt>
<pdfrwt beam="1">  1        2 0.38300819E+00 0.28419000E+03</pdfrwt>
<pdfrwt beam="2">  1       -2 0.10758543E-02 0.28419000E+03</pdfrwt>
<totfact> 0.77911957E+03</totfact>
</mgrwt>
</event>
<event>
 4    1  0.1361667E-004  0.3289042E+03  0.7818608E-02  0.1071623E+00
          2   -1    0    0  501    0  0.00000000000E+00  0.00000000000E+00  0.16510378789E+03  0.16510378791E+03  0.25500000000E-02 0.  1.
         -2   -1    0    0    0  501 -0.00000000000E+00 -0.00000000000E+00 -0.16380294289E+03  0.16380294291E+03  0.25500000000E-02 0. -1.
    5000001    1    1    2    0    0 -0.93047994394E+02  0.19815279277E+02  0.43835384747E+02  0.16462416442E+03  0.12700000000E+03 0.  0.
   -5000001    1    1    2    0    0  0.93047994394E+02 -0.19815279277E+02 -0.42534539750E+02  0.16428256641E+03  0.12700000000E+03 0.  0.
<mgrwt>
<rscale>  0 0.32890416E+03</rscale>
<asrwt>0</asrwt>
<pdfrwt beam="1">  1        2 0.23586255E-01 0.32890416E+03</pdfrwt>
<pdfrwt beam="2">  1       -2 0.23400420E-01 0.32890416E+03</pdfrwt>
<totfact> 0.36797344E+03</totfact>
</mgrwt>
</event>
<event>
 4    1  0.1361667E-004  0.3007301E+03  0.7818608E-02  0.1084876E+00
          2   -1    0    0  501    0  0.00000000000E+00  0.00000000000E+00  0.20648661496E+04  0.20648661496E+04  0.25500000000E-02 0.  1.
         -2   -1    0    0    0  501 -0.00000000000E+00 -0.00000000000E+00 -0.10949690858E+02  0.10949691155E+02  0.25500000000E-02 0. -1.
    5000001    1    1    2    0    0  0.72731899236E+02 -0.17402800624E+02  0.12326344614E+04  0.12414143152E+04  0.12700000000E+03 0.  0.
   -5000001    1    1    2    0    0 -0.72731899236E+02  0.17402800624E+02  0.82128199730E+03  0.83440152548E+03  0.12700000000E+03 0.  0.
<mgrwt>
<rscale>  0 0.30073009E+03</rscale>
<asrwt>0</asrwt>
<pdfrwt beam="1">  1        2 0.29498063E+00 0.30073009E+03</pdfrwt>
<pdfrwt beam="2">  1       -2 0.15642429E-02 0.30073009E+03</pdfrwt>
<totfact> 0.91236733E+03</totfact>
</mgrwt>
</event>
<event>
 4    1  0.1361667E-004  0.4067159E+03  0.7818608E-02  0.1041479E+00
          2   -1    0    0  501    0  0.00000000000E+00  0.00000000000E+00  0.33596950270E+03  0.33596950271E+03  0.25500000000E-02 0.  1.
         -2   -1    0    0    0  501 -0.00000000000E+00 -0.00000000000E+00 -0.12308993389E+03  0.12308993391E+03  0.25500000000E-02 0. -1.
    5000001    1    1    2    0    0 -0.45977598749E+02  0.12767290415E+03  0.19959090228E+03  0.27272667327E+03  0.12700000000E+03 0.  0.
   -5000001    1    1    2    0    0  0.45977598749E+02 -0.12767290415E+03  0.13288666539E+02  0.18633276335E+03  0.12700000000E+03 0.  0.
<mgrwt>
<rscale>  0 0.40671594E+03</rscale>
<asrwt>0</asrwt>
<pdfrwt beam="1">  1        2 0.47995642E-01 0.40671594E+03</pdfrwt>
<pdfrwt beam="2">  1       -2 0.17584277E-01 0.40671594E+03</pdfrwt>
<totfact> 0.27653929E+03</totfact>
</mgrwt>
</event>
<event>
 4    1  0.1361667E-004  0.4178245E+03  0.7818608E-02  0.1037777E+00
          2   -1    0    0  501    0  0.00000000000E+00  0.00000000000E+00  0.69888095901E+03  0.69888095901E+03  0.25500000000E-02 0.  1.
         -2   -1    0    0    0  501 -0.00000000000E+00 -0.00000000000E+00 -0.62448864411E+02  0.62448864463E+02  0.25500000000E-02 0. -1.
    5000001    1    1    2    0    0 -0.93434172611E+02  0.20113764515E+02  0.56525267027E+03  0.58717466684E+03  0.12700000000E+03 0.  0.
   -5000001    1    1    2    0    0  0.93434172611E+02 -0.20113764515E+02  0.71179424329E+02  0.17415515663E+03  0.12700000000E+03 0.  0.
<mgrwt>
<rscale>  0 0.41782447E+03</rscale>
<asrwt>0</asrwt>
<pdfrwt beam="1">  1        2 0.99840138E-01 0.41782447E+03</pdfrwt>
<pdfrwt beam="2">  1       -2 0.89212663E-02 0.41782447E+03</pdfrwt>
<totfact> 0.36853260E+03</totfact>
</mgrwt>
</event>
<event>
 4    1  0.1361667E-004  0.3964870E+03  0.7818608E-02  0.1045003E+00
          2   -1    0    0  501    0  0.00000000000E+00  0.00000000000E+00  0.94427784220E+03  0.94427784221E+03  0.25500000000E-02 0.  1.
         -2   -1    0    0    0  501 -0.00000000000E+00 -0.00000000000E+00 -0.41619625485E+02  0.41619625563E+02  0.25500000000E-02 0. -1.
    5000001    1    1    2    0    0 -0.12350050109E+03 -0.87457884917E+02  0.49220557953E+03  0.53037400758E+03  0.12700000000E+03 0.  0.
   -5000001    1    1    2    0    0  0.12350050109E+03  0.87457884917E+02  0.41045263719E+03  0.45552346019E+03  0.12700000000E+03 0.  0.
<mgrwt>
<rscale>  0 0.39648702E+03</rscale>
<asrwt>0</asrwt>
<pdfrwt beam="1">  1        2 0.13489683E+00 0.39648702E+03</pdfrwt>
<pdfrwt beam="2">  1       -2 0.59456612E-02 0.39648702E+03</pdfrwt>
<totfact> 0.47521957E+03</totfact>
</mgrwt>
</event>
<event>
 4    1  0.1361667E-004  0.3419249E+03  0.7818608E-02  0.1065979E+00
         -2   -1    0    0    0  501 -0.00000000000E+00  0.00000000000E+00  0.12780217308E+03  0.12780217310E+03  0.25500000000E-02 0. -1.
          2   -1    0    0  501    0  0.00000000000E+00 -0.00000000000E+00 -0.22869847511E+03  0.22869847513E+03  0.25500000000E-02 0.  1.
    5000001    1    1    2    0    0  0.47913142952E+02 -0.77758447922E+02  0.21463866531E+02  0.15789788807E+03  0.12700000000E+03 0.  0.
   -5000001    1    1    2    0    0 -0.47913142952E+02  0.77758447922E+02 -0.12236016857E+03  0.19860276016E+03  0.12700000000E+03 0.  0.
<mgrwt>
<rscale>  0 0.34192492E+03</rscale>
<asrwt>0</asrwt>
<pdfrwt beam="1">  1        2 0.32671211E-01 0.34192492E+03</pdfrwt>
<pdfrwt beam="2">  1       -2 0.18257453E-01 0.34192492E+03</pdfrwt>
<totfact> 0.39338979E+03</totfact>
</mgrwt>
</event>
<event>
 4    1  0.1361667E-004  0.3009393E+03  0.7818608E-02  0.1084772E+00
         -2   -1    0    0    0  501 -0.00000000000E+00  0.00000000000E+00  0.84148033349E+01  0.84148037213E+01  0.25500000000E-02 0. -1.
          2   -1    0    0  501    0  0.00000000000E+00 -0.00000000000E+00 -0.26906295490E+04  0.26906295490E+04  0.25500000000E-02 0.  1.
    5000001    1    1    2    0    0  0.74734406930E+02  0.21774819561E+02 -0.11502724916E+04  0.11598772259E+04  0.12700000000E+03 0.  0.
   -5000001    1    1    2    0    0 -0.74734406930E+02 -0.21774819561E+02 -0.15319422541E+04  0.15391671268E+04  0.12700000000E+03 0.  0.
<mgrwt>
<rscale>  0 0.30093932E+03</rscale>
<asrwt>0</asrwt>
<pdfrwt beam="1">  1        2 0.38437510E+00 0.30093932E+03</pdfrwt>
<pdfrwt beam="2">  1       -2 0.12021165E-02 0.30093932E+03</pdfrwt>
<totfact> 0.65524454E+03</totfact>
</mgrwt>
</event>
<event>
 4    1  0.1361667E-004  0.4717188E+03  0.7818608E-02  0.1021436E+00
          2   -1    0    0  501    0  0.00000000000E+00  0.00000000000E+00  0.24542545465E+04  0.24542545465E+04  0.25500000000E-02 0.  1.
         -2   -1    0    0    0  501 -0.00000000000E+00 -0.00000000000E+00 -0.22666621451E+02  0.22666621594E+02  0.25500000000E-02 0. -1.
    5000001    1    1    2    0    0 -0.21743509552E+02 -0.19450191038E+03  0.10341356366E+04  0.10601270151E+04  0.12700000000E+03 0.  0.
   -5000001    1    1    2    0    0  0.21743509552E+02  0.19450191038E+03  0.13974522885E+04  0.14167941530E+04  0.12700000000E+03 0.  0.
<mgrwt>
<rscale>  0 0.47171881E+03</rscale>
<asrwt>0</asrwt>
<pdfrwt beam="1">  1        2 0.35060793E+00 0.47171881E+03</pdfrwt>
<pdfrwt beam="2">  1       -2 0.32380875E-02 0.47171881E+03</pdfrwt>
<totfact> 0.19672688E+03</totfact>
</mgrwt>
</event>
<event>
 4    1  0.1361667E-004  0.3402409E+03  0.7818608E-02  0.1066693E+00
         -2   -1    0    0    0  501 -0.00000000000E+00  0.00000000000E+00  0.46340329720E+02  0.46340329790E+02  0.25500000000E-02 0. -1.
          2   -1    0    0  501    0  0.00000000000E+00 -0.00000000000E+00 -0.62453096493E+03  0.62453096494E+03  0.25500000000E-02 0.  1.
    5000001    1    1    2    0    0 -0.38503448120E+02  0.84505206239E+02 -0.41670184112E+03  0.44541336957E+03  0.12700000000E+03 0.  0.
   -5000001    1    1    2    0    0  0.38503448120E+02 -0.84505206239E+02 -0.16148879409E+03  0.22545792515E+03  0.12700000000E+03 0.  0.
<mgrwt>
<rscale>  0 0.34024092E+03</rscale>
<asrwt>0</asrwt>
<pdfrwt beam="1">  1        2 0.89218705E-01 0.34024092E+03</pdfrwt>
<pdfrwt beam="2">  1       -2 0.66200475E-02 0.34024092E+03</pdfrwt>
<totfact> 0.67004585E+03</totfact>
</mgrwt>
</event>
<event>
 4    1  0.1361667E-004  0.5739473E+03  0.7818608E-02  0.9960982E-01
         -2   -1    0    0    0  501 -0.00000000000E+00  0.00000000000E+00  0.21330825908E+03  0.21330825910E+03  0.25500000000E-02 0. -1.
          2   -1    0    0  501    0  0.00000000000E+00 -0.00000000000E+00 -0.38607917196E+03  0.38607917197E+03  0.25500000000E-02 0.  1.
    5000001    1    1    2    0    0 -0.22385324078E+03  0.12052547606E+03 -0.12800428826E+03  0.31169016924E+03  0.12700000000E+03 0.  0.
   -5000001    1    1    2    0    0  0.22385324078E+03 -0.12052547606E+03 -0.44766624621E+02  0.28769726183E+03  0.12700000000E+03 0.  0.
<mgrwt>
<rscale>  0 0.57394730E+03</rscale>
<asrwt>0</asrwt>
<pdfrwt beam="1">  1        2 0.55154167E-01 0.57394730E+03</pdfrwt>
<pdfrwt beam="2">  1       -2 0.30472608E-01 0.57394730E+03</pdfrwt>
<totfact> 0.89851464E+02</totfact>
</mgrwt>
</event>
<event>
 4    1  0.1361667E-004  0.3422957E+03  0.7818608E-02  0.1065822E+00
         -2   -1    0    0    0  501 -0.00000000000E+00  0.00000000000E+00  0.34325394717E+02  0.34325394812E+02  0.25500000000E-02 0. -1.
          2   -1    0    0  501    0  0.00000000000E+00 -0.00000000000E+00 -0.85335029260E+03  0.85335029260E+03  0.25500000000E-02 0.  1.
    5000001    1    1    2    0    0 -0.42098130948E+02 -0.10642571861E+03 -0.38878234528E+03  0.42471095843E+03  0.12700000000E+03 0.  0.
   -5000001    1    1    2    0    0  0.42098130948E+02  0.10642571861E+03 -0.43024255260E+03  0.46296472898E+03  0.12700000000E+03 0.  0.
<mgrwt>
<rscale>  0 0.34229569E+03</rscale>
<asrwt>0</asrwt>
<pdfrwt beam="1">  1        2 0.12190717E+00 0.34229569E+03</pdfrwt>
<pdfrwt beam="2">  1       -2 0.49036283E-02 0.34229569E+03</pdfrwt>
<totfact> 0.72783469E+03</totfact>
</mgrwt>
</event>
<event>
 4    1  0.1361667E-004  0.3763477E+03  0.7818608E-02  0.1052292E+00
          2   -1    0    0  501    0  0.00000000000E+00  0.00000000000E+00  0.29010274372E+04  0.29010274372E+04  0.25500000000E-02 0.  1.
         -2   -1    0    0    0  501 -0.00000000000E+00 -0.00000000000E+00 -0.12205810622E+02  0.12205810889E+02  0.25500000000E-02 0. -1.
    5000001    1    1    2    0    0 -0.16488294283E+02  0.10062463646E+03  0.71483402759E+03  0.73315337298E+03  0.12700000000E+03 0.  0.
   -5000001    1    1    2    0    0  0.16488294283E+02 -0.10062463646E+03  0.21739875990E+04  0.21800798751E+04  0.12700000000E+03 0.  0.
<mgrwt>
<rscale>  0 0.37634767E+03</rscale>
<asrwt>0</asrwt>
<pdfrwt beam="1">  1        2 0.41443284E+00 0.37634767E+03</pdfrwt>
<pdfrwt beam="2">  1       -2 0.17436858E-02 0.37634767E+03</pdfrwt>
<totfact> 0.29387232E+03</totfact>
</mgrwt>
</event>
<event>
 4    1  0.1361667E-004  0.3379017E+03  0.7818608E-02  0.1067693E+00
         -2   -1    0    0    0  501 -0.00000000000E+00  0.00000000000E+00  0.20896927915E+04  0.20896927915E+04  0.25500000000E-02 0. -1.
          2   -1    0    0  501    0  0.00000000000E+00 -0.00000000000E+00 -0.13659611664E+02  0.13659611902E+02  0.25500000000E-02 0.  1.
    5000001    1    1    2    0    0 -0.95050627290E+02 -0.51463603935E+02  0.12064610275E+04  0.12179328123E+04  0.12700000000E+03 0.  0.
   -5000001    1    1    2    0    0  0.95050627290E+02  0.51463603935E+02  0.86957215227E+03  0.88541959109E+03  0.12700000000E+03 0.  0.
<mgrwt>
<rscale>  0 0.33790172E+03</rscale>
<asrwt>0</asrwt>
<pdfrwt beam="1">  1        2 0.19513733E-02 0.33790172E+03</pdfrwt>
<pdfrwt beam="2">  1       -2 0.29852752E+00 0.33790172E+03</pdfrwt>
<totfact> 0.21104800E+02</totfact>
</mgrwt>
</event>
<event>
 4    1  0.1361667E-004  0.4379887E+03  0.7818608E-02  0.1031366E+00
         -2   -1    0    0    0  501 -0.00000000000E+00  0.00000000000E+00  0.91457511582E+02  0.91457511618E+02  0.25500000000E-02 0. -1.
          2   -1    0    0  501    0  0.00000000000E+00 -0.00000000000E+00 -0.52438028206E+03  0.52438028206E+03  0.25500000000E-02 0.  1.
    5000001    1    1    2    0    0 -0.92604137400E+02  0.14882082968E+03 -0.26322948985E+03  0.34079602394E+03  0.12700000000E+03 0.  0.
   -5000001    1    1    2    0    0  0.92604137400E+02 -0.14882082968E+03 -0.16969328063E+03  0.27504176974E+03  0.12700000000E+03 0.  0.
<mgrwt>
<rscale>  0 0.43798866E+03</rscale>
<asrwt>0</asrwt>
<pdfrwt beam="1">  1        2 0.74911468E-01 0.43798866E+03</pdfrwt>
<pdfrwt beam="2">  1       -2 0.13065359E-01 0.43798866E+03</pdfrwt>
<totfact> 0.27801494E+03</totfact>
</mgrwt>
</event>
<event>
 4    1  0.1361667E-004  0.4907360E+03  0.7818608E-02  0.1016226E+00
          2   -1    0    0  501    0  0.00000000000E+00  0.00000000000E+00  0.19450288552E+04  0.19450288552E+04  0.25500000000E-02 0.  1.
         -2   -1    0    0    0  501 -0.00000000000E+00 -0.00000000000E+00 -0.30953500672E+02  0.30953500777E+02  0.25500000000E-02 0. -1.
    5000001    1    1    2    0    0  0.58026322375E+02  0.17112545144E+03  0.13874377562E+04  0.14049069370E+04  0.12700000000E+03 0.  0.
   -5000001    1    1    2    0    0 -0.58026322375E+02 -0.17112545144E+03  0.52663759830E+03  0.57107541898E+03  0.12700000000E+03 0.  0.
<mgrwt>
<rscale>  0 0.49073599E+03</rscale>
<asrwt>0</asrwt>
<pdfrwt beam="1">  1        2 0.27786128E+00 0.49073599E+03</pdfrwt>
<pdfrwt beam="2">  1       -2 0.44219284E-02 0.49073599E+03</pdfrwt>
<totfact> 0.21987664E+03</totfact>
</mgrwt>
</event>
<event>
 4    1  0.1361667E-004  0.6571281E+03  0.7818608E-02  0.9793495E-01
          2   -1    0    0  501    0  0.00000000000E+00  0.00000000000E+00  0.87458761253E+03  0.87458761254E+03  0.25500000000E-02 0.  1.
         -2   -1    0    0    0  501 -0.00000000000E+00 -0.00000000000E+00 -0.12343455759E+03  0.12343455762E+03  0.25500000000E-02 0. -1.
    5000001    1    1    2    0    0 -0.95763107735E+01 -0.28777060806E+03  0.23212204777E+03  0.39104126848E+03  0.12700000000E+03 0.  0.
   -5000001    1    1    2    0    0  0.95763107735E+01  0.28777060806E+03  0.51903100717E+03  0.60698090168E+03  0.12700000000E+03 0.  0.
<mgrwt>
<rscale>  0 0.65712810E+03</rscale>
<asrwt>0</asrwt>
<pdfrwt beam="1">  1        2 0.12494108E+00 0.65712810E+03</pdfrwt>
<pdfrwt beam="2">  1       -2 0.17633509E-01 0.65712810E+03</pdfrwt>
<totfact> 0.90122872E+02</totfact>
</mgrwt>
</event>
<event>
 4    1  0.1361667E-004  0.5046094E+03  0.7818608E-02  0.1012583E+00
         -2   -1    0    0    0  501 -0.00000000000E+00  0.00000000000E+00  0.37498858175E+02  0.37498858261E+02  0.25500000000E-02 0.  1.
          2   -1    0    0  501    0  0.00000000000E+00 -0.00000000000E+00 -0.16975893531E+04  0.16975893531E+04  0.25500000000E-02 0. -1.
    5000001    1    1    2    0    0  0.99427696174E+02  0.18568461185E+03 -0.63663215328E+03  0.68249112847E+03  0.12700000000E+03 0.  0.
   -5000001    1    1    2    0    0 -0.99427696174E+02 -0.18568461185E+03 -0.10234583417E+04  0.10525970829E+04  0.12700000000E+03 0.  0.
<mgrwt>
<rscale>  0 0.50460940E+03</rscale>
<asrwt>0</asrwt>
<pdfrwt beam="1">  1        2 0.24251272E+00 0.50460940E+03</pdfrwt>
<pdfrwt beam="2">  1       -2 0.53569808E-02 0.50460940E+03</pdfrwt>
<totfact> 0.21753398E+03</totfact>
</mgrwt>
</event>
<event>
 4    1  0.1361667E-004  0.4391509E+03  0.7818608E-02  0.1031008E+00
         -2   -1    0    0    0  501 -0.00000000000E+00  0.00000000000E+00  0.87304880257E+02  0.87304880294E+02  0.25500000000E-02 0. -1.
          2   -1    0    0  501    0  0.00000000000E+00 -0.00000000000E+00 -0.55224161561E+03  0.55224161562E+03  0.25500000000E-02 0.  1.
    5000001    1    1    2    0    0  0.70420402256E+02  0.13230193327E+03 -0.89618151330E+02  0.21592417106E+03  0.12700000000E+03 0.  0.
   -5000001    1    1    2    0    0 -0.70420402256E+02 -0.13230193327E+03 -0.37531858403E+03  0.42362232486E+03  0.12700000000E+03 0.  0.
<mgrwt>
<rscale>  0 0.43915095E+03</rscale>
<asrwt>0</asrwt>
<pdfrwt beam="1">  1        2 0.78891658E-01 0.43915095E+03</pdfrwt>
<pdfrwt beam="2">  1       -2 0.12472126E-01 0.43915095E+03</pdfrwt>
<totfact> 0.28290433E+03</totfact>
</mgrwt>
</event>
<event>
 4    1  0.1361667E-004  0.4326059E+03  0.7818608E-02  0.1033040E+00
          2   -1    0    0  501    0  0.00000000000E+00  0.00000000000E+00  0.23114800596E+04  0.23114800596E+04  0.25500000000E-02 0.  1.
         -2   -1    0    0    0  501 -0.00000000000E+00 -0.00000000000E+00 -0.20241126204E+02  0.20241126364E+02  0.25500000000E-02 0. -1.
    5000001    1    1    2    0    0 -0.13210252924E+03  0.11149524754E+03  0.99550288001E+03  0.10183502603E+04  0.12700000000E+03 0.  0.
   -5000001    1    1    2    0    0  0.13210252924E+03 -0.11149524754E+03  0.12957360534E+04  0.13133709258E+04  0.12700000000E+03 0.  0.
<mgrwt>
<rscale>  0 0.43260587E+03</rscale>
<asrwt>0</asrwt>
<pdfrwt beam="1">  1        2 0.33021114E+00 0.43260587E+03</pdfrwt>
<pdfrwt beam="2">  1       -2 0.28915921E-02 0.43260587E+03</pdfrwt>
<totfact> 0.27602071E+03</totfact>
</mgrwt>
</event>
<event>
 4    1  0.1361667E-004  0.4408733E+03  0.7818608E-02  0.1030479E+00
         -2   -1    0    0    0  501 -0.00000000000E+00  0.00000000000E+00  0.23593814797E+03  0.23593814798E+03  0.25500000000E-02 0. -1.
          2   -1    0    0  501    0  0.00000000000E+00 -0.00000000000E+00 -0.20595359164E+03  0.20595359166E+03  0.25500000000E-02 0.  1.
    5000001    1    1    2    0    0 -0.39583167514E+02 -0.15724348670E+03 -0.63744702542E+02  0.21560317336E+03  0.12700000000E+03 0.  0.
   -5000001    1    1    2    0    0  0.39583167514E+02  0.15724348670E+03  0.93729258870E+02  0.22628856628E+03  0.12700000000E+03 0.  0.
<mgrwt>
<rscale>  0 0.44087327E+03</rscale>
<asrwt>0</asrwt>
<pdfrwt beam="1">  1        2 0.29421942E-01 0.44087327E+03</pdfrwt>
<pdfrwt beam="2">  1       -2 0.33705450E-01 0.44087327E+03</pdfrwt>
<totfact> 0.14898926E+03</totfact>
</mgrwt>
</event>
<event>
 4    1  0.1361667E-004  0.2826295E+03  0.7818608E-02  0.1094261E+00
          2   -1    0    0  501    0  0.00000000000E+00  0.00000000000E+00  0.51441643217E+03  0.51441643218E+03  0.25500000000E-02 0.  1.
         -2   -1    0    0    0  501 -0.00000000000E+00 -0.00000000000E+00 -0.38820413747E+02  0.38820413831E+02  0.25500000000E-02 0. -1.
    5000001    1    1    2    0    0 -0.13721261391E+02 -0.28480960938E+02  0.13345547808E+03  0.18691924133E+03  0.12700000000E+03 0.  0.
   -5000001    1    1    2    0    0  0.13721261391E+02  0.28480960938E+02  0.34214054035E+03  0.36631760468E+03  0.12700000000E+03 0.  0.
<mgrwt>
<rscale>  0 0.28262950E+03</rscale>
<asrwt>0</asrwt>
<pdfrwt beam="1">  1        2 0.73488064E-01 0.28262950E+03</pdfrwt>
<pdfrwt beam="2">  1       -2 0.55457732E-02 0.28262950E+03</pdfrwt>
<totfact> 0.10900498E+04</totfact>
</mgrwt>
</event>
<event>
 4    1  0.1361667E-004  0.3335535E+03  0.7818608E-02  0.1069575E+00
          2   -1    0    0  501    0  0.00000000000E+00  0.00000000000E+00  0.17878724550E+04  0.17878724550E+04  0.25500000000E-02 0.  1.
         -2   -1    0    0    0  501 -0.00000000000E+00 -0.00000000000E+00 -0.15557310107E+02  0.15557310316E+02  0.25500000000E-02 0. -1.
    5000001    1    1    2    0    0 -0.79566897239E+02 -0.44165197200E+02  0.57070763586E+03  0.59170741199E+03  0.12700000000E+03 0.  0.
   -5000001    1    1    2    0    0  0.79566897239E+02  0.44165197200E+02  0.12016075091E+04  0.12117223533E+04  0.12700000000E+03 0.  0.
<mgrwt>
<rscale>  0 0.33355351E+03</rscale>
<asrwt>0</asrwt>
<pdfrwt beam="1">  1        2 0.25541030E+00 0.33355351E+03</pdfrwt>
<pdfrwt beam="2">  1       -2 0.22224733E-02 0.33355351E+03</pdfrwt>
<totfact> 0.74395790E+03</totfact>
</mgrwt>
</event>
<event>
 4    1  0.1361667E-004  0.6421122E+03  0.7818608E-02  0.9821694E-01
         -2   -1    0    0    0  501 -0.00000000000E+00  0.00000000000E+00  0.93171652130E+02  0.93171652165E+02  0.25500000000E-02 0. -1.
          2   -1    0    0  501    0  0.00000000000E+00 -0.00000000000E+00 -0.11063132606E+04  0.11063132606E+04  0.25500000000E-02 0.  1.
    5000001    1    1    2    0    0 -0.67702405623E+02  0.23396863647E+03 -0.19610054031E+03  0.33750460809E+03  0.12700000000E+03 0.  0.
   -5000001    1    1    2    0    0  0.67702405623E+02 -0.23396863647E+03 -0.81704106815E+03  0.86198030466E+03  0.12700000000E+03 0.  0.
<mgrwt>
<rscale>  0 0.64211225E+03</rscale>
<asrwt>0</asrwt>
<pdfrwt beam="1">  1        2 0.15804474E+00 0.64211225E+03</pdfrwt>
<pdfrwt beam="2">  1       -2 0.13310237E-01 0.64211225E+03</pdfrwt>
<totfact> 0.10440525E+03</totfact>
</mgrwt>
</event>
<event>
 4    1  0.1361667E-004  0.3482416E+03  0.7818608E-02  0.1063339E+00
          2   -1    0    0  501    0  0.00000000000E+00  0.00000000000E+00  0.14800131640E+03  0.14800131642E+03  0.25500000000E-02 0.  1.
         -2   -1    0    0    0  501 -0.00000000000E+00 -0.00000000000E+00 -0.20484986514E+03  0.20484986515E+03  0.25500000000E-02 0. -1.
    5000001    1    1    2    0    0 -0.68970914942E+02  0.97117619018E+02 -0.27937626218E+02  0.17634718594E+03  0.12700000000E+03 0.  0.
   -5000001    1    1    2    0    0  0.68970914942E+02 -0.97117619018E+02 -0.28910922525E+02  0.17650399563E+03  0.12700000000E+03 0.  0.
<mgrwt>
<rscale>  0 0.34824158E+03</rscale>
<asrwt>0</asrwt>
<pdfrwt beam="1">  1        2 0.21143045E-01 0.34824158E+03</pdfrwt>
<pdfrwt beam="2">  1       -2 0.29264266E-01 0.34824158E+03</pdfrwt>
<totfact> 0.27992746E+03</totfact>
</mgrwt>
</event>
<event>
 4    1  0.1361667E-004  0.4982484E+03  0.7818608E-02  0.1014237E+00
         -2   -1    0    0    0  501 -0.00000000000E+00  0.00000000000E+00  0.61409943755E+02  0.61409943808E+02  0.25500000000E-02 0. -1.
          2   -1    0    0  501    0  0.00000000000E+00 -0.00000000000E+00 -0.10106322639E+04  0.10106322639E+04  0.25500000000E-02 0.  1.
    5000001    1    1    2    0    0  0.10669481403E+03 -0.18498498027E+03 -0.51373544792E+03  0.57066306759E+03  0.12700000000E+03 0.  0.
   -5000001    1    1    2    0    0 -0.10669481403E+03  0.18498498027E+03 -0.43548687223E+03  0.50137914012E+03  0.12700000000E+03 0.  0.
<mgrwt>
<rscale>  0 0.49824841E+03</rscale>
<asrwt>0</asrwt>
<pdfrwt beam="1">  1        2 0.14437603E+00 0.49824841E+03</pdfrwt>
<pdfrwt beam="2">  1       -2 0.87728497E-02 0.49824841E+03</pdfrwt>
<totfact> 0.23520829E+03</totfact>
</mgrwt>
</event>
<event>
 4    1  0.1361667E-004  0.9226367E+03  0.7818608E-02  0.9397719E-01
          2   -1    0    0  501    0  0.00000000000E+00  0.00000000000E+00  0.46144168807E+03  0.46144168807E+03  0.25500000000E-02 0.  1.
         -2   -1    0    0    0  501 -0.00000000000E+00 -0.00000000000E+00 -0.46119502536E+03  0.46119502537E+03  0.25500000000E-02 0. -1.
    5000001    1    1    2    0    0 -0.15395607674E+03 -0.38045179981E+03  0.16816965685E+03  0.46136328314E+03  0.12700000000E+03 0.  0.
   -5000001    1    1    2    0    0  0.15395607674E+03  0.38045179981E+03 -0.16792299414E+03  0.46127343030E+03  0.12700000000E+03 0.  0.
<mgrwt>
<rscale>  0 0.92263668E+03</rscale>
<asrwt>0</asrwt>
<pdfrwt beam="1">  1        2 0.65920241E-01 0.92263668E+03</pdfrwt>
<pdfrwt beam="2">  1       -2 0.65885003E-01 0.92263668E+03</pdfrwt>
<totfact> 0.15649532E+02</totfact>
</mgrwt>
</event>
<event>
 4    1  0.1361667E-004  0.3394277E+03  0.7818608E-02  0.1067040E+00
         -2   -1    0    0    0  501 -0.00000000000E+00  0.00000000000E+00  0.24808259983E+02  0.24808260114E+02  0.25500000000E-02 0.  1.
          2   -1    0    0  501    0  0.00000000000E+00 -0.00000000000E+00 -0.11610159065E+04  0.11610159065E+04  0.25500000000E-02 0. -1.
    5000001    1    1    2    0    0  0.23727370078E+02 -0.10134668992E+03 -0.71794806629E+03  0.73648663636E+03  0.12700000000E+03 0.  0.
   -5000001    1    1    2    0    0 -0.23727370078E+02  0.10134668992E+03 -0.41825958027E+03  0.44933753030E+03  0.12700000000E+03 0.  0.
<mgrwt>
<rscale>  0 0.33942766E+03</rscale>
<asrwt>0</asrwt>
<pdfrwt beam="1">  1        2 0.16585938E+00 0.33942766E+03</pdfrwt>
<pdfrwt beam="2">  1       -2 0.35440379E-02 0.33942766E+03</pdfrwt>
<totfact> 0.78016234E+03</totfact>
</mgrwt>
</event>
<event>
 4    1  0.1361667E-004  0.3951100E+03  0.7818608E-02  0.1045486E+00
         -2   -1    0    0    0  501 -0.00000000000E+00  0.00000000000E+00  0.26976975380E+02  0.26976975501E+02  0.25500000000E-02 0. -1.
          2   -1    0    0  501    0  0.00000000000E+00 -0.00000000000E+00 -0.14467143368E+04  0.14467143368E+04  0.25500000000E-02 0.  1.
    5000001    1    1    2    0    0  0.70492559705E+02 -0.10124336792E+03 -0.10367247697E+04  0.10517350753E+04  0.12700000000E+03 0.  0.
   -5000001    1    1    2    0    0 -0.70492559705E+02  0.10124336792E+03 -0.38301259168E+03  0.42195623696E+03  0.12700000000E+03 0.  0.
<mgrwt>
<rscale>  0 0.39511000E+03</rscale>
<asrwt>0</asrwt>
<pdfrwt beam="1">  1        2 0.20667343E+00 0.39511000E+03</pdfrwt>
<pdfrwt beam="2">  1       -2 0.38538546E-02 0.39511000E+03</pdfrwt>
<totfact> 0.48467813E+03</totfact>
</mgrwt>
</event>
<event>
 4    1  0.1361667E-004  0.4189134E+03  0.7818608E-02  0.1037421E+00
          2   -1    0    0  501    0  0.00000000000E+00  0.00000000000E+00  0.71221076850E+03  0.71221076851E+03  0.25500000000E-02 0.  1.
         -2   -1    0    0    0  501 -0.00000000000E+00 -0.00000000000E+00 -0.61599898879E+02  0.61599898932E+02  0.25500000000E-02 0. -1.
    5000001    1    1    2    0    0  0.15972495074E+03 -0.14286374739E+02  0.40846880275E+03  0.45682811123E+03  0.12700000000E+03 0.  0.
   -5000001    1    1    2    0    0 -0.15972495074E+03  0.14286374739E+02  0.24214206687E+03  0.31698255621E+03  0.12700000000E+03 0.  0.
<mgrwt>
<rscale>  0 0.41891341E+03</rscale>
<asrwt>0</asrwt>
<pdfrwt beam="1">  1        2 0.10174439E+00 0.41891341E+03</pdfrwt>
<pdfrwt beam="2">  1       -2 0.87999858E-02 0.41891341E+03</pdfrwt>
<totfact> 0.36814636E+03</totfact>
</mgrwt>
</event>
<event>
 4    1  0.1361667E-004  0.3736305E+03  0.7818608E-02  0.1053313E+00
          2   -1    0    0  501    0  0.00000000000E+00  0.00000000000E+00  0.78049124298E+03  0.78049124298E+03  0.25500000000E-02 0.  1.
         -2   -1    0    0    0  501 -0.00000000000E+00 -0.00000000000E+00 -0.44715346914E+02  0.44715346987E+02  0.25500000000E-02 0. -1.
    5000001    1    1    2    0    0  0.57510439702E+02  0.11780370166E+03  0.45583899394E+03  0.49102276036E+03  0.12700000000E+03 0.  0.
   -5000001    1    1    2    0    0 -0.57510439702E+02 -0.11780370166E+03  0.27993690213E+03  0.33418382961E+03  0.12700000000E+03 0.  0.
<mgrwt>
<rscale>  0 0.37363050E+03</rscale>
<asrwt>0</asrwt>
<pdfrwt beam="1">  1        2 0.11149875E+00 0.37363050E+03</pdfrwt>
<pdfrwt beam="2">  1       -2 0.63879064E-02 0.37363050E+03</pdfrwt>
<totfact> 0.54316465E+03</totfact>
</mgrwt>
</event>
<event>
 4    1  0.1361667E-004  0.7194689E+03  0.7818608E-02  0.9684505E-01
          2   -1    0    0  501    0  0.00000000000E+00  0.00000000000E+00  0.13400360284E+04  0.13400360284E+04  0.25500000000E-02 0.  1.
         -2   -1    0    0    0  501 -0.00000000000E+00 -0.00000000000E+00 -0.96571187945E+02  0.96571187979E+02  0.25500000000E-02 0. -1.
    5000001    1    1    2    0    0  0.31122241740E+03 -0.12038104362E+03  0.53403659865E+03  0.64239791209E+03  0.12700000000E+03 0.  0.
   -5000001    1    1    2    0    0 -0.31122241740E+03  0.12038104362E+03  0.70942824178E+03  0.79420930427E+03  0.12700000000E+03 0.  0.
<mgrwt>
<rscale>  0 0.71946889E+03</rscale>
<asrwt>0</asrwt>
<pdfrwt beam="1">  1        2 0.19143370E+00 0.71946889E+03</pdfrwt>
<pdfrwt beam="2">  1       -2 0.13795885E-01 0.71946889E+03</pdfrwt>
<totfact> 0.72561608E+02</totfact>
</mgrwt>
</event>
<event>
 4    1  0.1361667E-004  0.3030201E+03  0.7818608E-02  0.1083741E+00
         -2   -1    0    0    0  501 -0.00000000000E+00  0.00000000000E+00  0.55621448436E+02  0.55621448494E+02  0.25500000000E-02 0. -1.
          2   -1    0    0  501    0  0.00000000000E+00 -0.00000000000E+00 -0.41270568350E+03  0.41270568351E+03  0.25500000000E-02 0.  1.
    5000001    1    1    2    0    0  0.76059494752E+02 -0.25677605795E+02 -0.14833886159E+03  0.21113456382E+03  0.12700000000E+03 0.  0.
   -5000001    1    1    2    0    0 -0.76059494752E+02  0.25677605795E+02 -0.20874537348E+03  0.25719256818E+03  0.12700000000E+03 0.  0.
<mgrwt>
<rscale>  0 0.30302005E+03</rscale>
<asrwt>0</asrwt>
<pdfrwt beam="1">  1        2 0.58957953E-01 0.30302005E+03</pdfrwt>
<pdfrwt beam="2">  1       -2 0.79459214E-02 0.30302005E+03</pdfrwt>
<totfact> 0.79817728E+03</totfact>
</mgrwt>
</event>
<event>
 4    1  0.1361667E-004  0.3172637E+03  0.7818608E-02  0.1076916E+00
          2   -1    0    0  501    0  0.00000000000E+00  0.00000000000E+00  0.90080296881E+03  0.90080296881E+03  0.25500000000E-02 0.  1.
         -2   -1    0    0    0  501 -0.00000000000E+00 -0.00000000000E+00 -0.27935145028E+02  0.27935145145E+02  0.25500000000E-02 0. -1.
    5000001    1    1    2    0    0  0.48025613251E+02 -0.11170811747E+02  0.67432071738E+03  0.68794525687E+03  0.12700000000E+03 0.  0.
   -5000001    1    1    2    0    0 -0.48025613251E+02  0.11170811747E+02  0.19854710639E+03  0.24079285708E+03  0.12700000000E+03 0.  0.
<mgrwt>
<rscale>  0 0.31726369E+03</rscale>
<asrwt>0</asrwt>
<pdfrwt beam="1">  1        2 0.12868614E+00 0.31726369E+03</pdfrwt>
<pdfrwt beam="2">  1       -2 0.39907350E-02 0.31726369E+03</pdfrwt>
<totfact> 0.92605034E+03</totfact>
</mgrwt>
</event>
<event>
 4    1  0.1361667E-004  0.6472675E+03  0.7818608E-02  0.9811920E-01
         -2   -1    0    0    0  501 -0.00000000000E+00  0.00000000000E+00  0.10116342794E+03  0.10116342797E+03  0.25500000000E-02 0. -1.
          2   -1    0    0  501    0  0.00000000000E+00 -0.00000000000E+00 -0.10353427052E+04  0.10353427052E+04  0.25500000000E-02 0.  1.
    5000001    1    1    2    0    0 -0.83275808257E+02 -0.25558173888E+03 -0.69162552750E+03  0.75281588438E+03  0.12700000000E+03 0.  0.
   -5000001    1    1    2    0    0  0.83275808257E+02  0.25558173888E+03 -0.24255374975E+03  0.38369024878E+03  0.12700000000E+03 0.  0.
<mgrwt>
<rscale>  0 0.64726754E+03</rscale>
<asrwt>0</asrwt>
<pdfrwt beam="1">  1        2 0.14790609E+00 0.64726754E+03</pdfrwt>
<pdfrwt beam="2">  1       -2 0.14451919E-01 0.64726754E+03</pdfrwt>
<totfact> 0.10018772E+03</totfact>
</mgrwt>
</event>
<event>
 4    1  0.1361667E-004  0.4851668E+03  0.7818608E-02  0.1017725E+00
          2   -1    0    0  501    0  0.00000000000E+00  0.00000000000E+00  0.17706629153E+04  0.17706629153E+04  0.25500000000E-02 0.  1.
         -2   -1    0    0    0  501 -0.00000000000E+00 -0.00000000000E+00 -0.33234274000E+02  0.33234274098E+02  0.25500000000E-02 0. -1.
    5000001    1    1    2    0    0 -0.17969848808E+03  0.91104413802E+02  0.69727271055E+03  0.73682412672E+03  0.12700000000E+03 0.  0.
   -5000001    1    1    2    0    0  0.17969848808E+03 -0.91104413802E+02  0.10401559307E+04  0.10670730627E+04  0.12700000000E+03 0.  0.
<mgrwt>
<rscale>  0 0.48516676E+03</rscale>
<asrwt>0</asrwt>
<pdfrwt beam="1">  1        2 0.25295185E+00 0.48516676E+03</pdfrwt>
<pdfrwt beam="2">  1       -2 0.47477534E-02 0.48516676E+03</pdfrwt>
<totfact> 0.24097830E+03</totfact>
</mgrwt>
</event>
<event>
 4    1  0.1361667E-004  0.3070316E+03  0.7818608E-02  0.1081777E+00
         -2   -1    0    0    0  501 -0.00000000000E+00  0.00000000000E+00  0.58440553843E+03  0.58440553844E+03  0.25500000000E-02 0. -1.
          2   -1    0    0  501    0  0.00000000000E+00 -0.00000000000E+00 -0.40326626692E+02  0.40326626773E+02  0.25500000000E-02 0.  1.
    5000001    1    1    2    0    0  0.51276613471E+02 -0.31011821657E+01  0.13107974934E+03  0.18960434886E+03  0.12700000000E+03 0.  0.
   -5000001    1    1    2    0    0 -0.51276613471E+02  0.31011821657E+01  0.41299916240E+03  0.43512781635E+03  0.12700000000E+03 0.  0.
<mgrwt>
<rscale>  0 0.30703162E+03</rscale>
<asrwt>0</asrwt>
<pdfrwt beam="1">  1        2 0.57609469E-02 0.30703162E+03</pdfrwt>
<pdfrwt beam="2">  1       -2 0.83486502E-01 0.30703162E+03</pdfrwt>
<totfact> 0.16926295E+03</totfact>
</mgrwt>
</event>
<event>
 4    1  0.1361667E-004  0.4122719E+03  0.7818608E-02  0.1039611E+00
          2   -1    0    0  501    0  0.00000000000E+00  0.00000000000E+00  0.80111207766E+03  0.80111207767E+03  0.25500000000E-02 0.  1.
         -2   -1    0    0    0  501 -0.00000000000E+00 -0.00000000000E+00 -0.53041307257E+02  0.53041307319E+02  0.25500000000E-02 0. -1.
    5000001    1    1    2    0    0 -0.11385911085E+03 -0.79651030616E+02  0.20001667137E+03  0.27467044367E+03  0.12700000000E+03 0.  0.
   -5000001    1    1    2    0    0  0.11385911085E+03  0.79651030616E+02  0.54805409904E+03  0.57948294131E+03  0.12700000000E+03 0.  0.
<mgrwt>
<rscale>  0 0.41227191E+03</rscale>
<asrwt>0</asrwt>
<pdfrwt beam="1">  1        2 0.11444459E+00 0.41227191E+03</pdfrwt>
<pdfrwt beam="2">  1       -2 0.75773293E-02 0.41227191E+03</pdfrwt>
<totfact> 0.40324144E+03</totfact>
</mgrwt>
</event>
<event>
 4    1  0.1361667E-004  0.3324670E+03  0.7818608E-02  0.1070051E+00
         -2   -1    0    0    0  501 -0.00000000000E+00  0.00000000000E+00  0.29991309621E+03  0.29991309622E+03  0.25500000000E-02 0. -1.
          2   -1    0    0  501    0  0.00000000000E+00 -0.00000000000E+00 -0.92138585436E+02  0.92138585472E+02  0.25500000000E-02 0.  1.
    5000001    1    1    2    0    0  0.74218458064E+02  0.76799773931E+02  0.92214546448E+02  0.18983968861E+03  0.12700000000E+03 0.  0.
   -5000001    1    1    2    0    0 -0.74218458064E+02 -0.76799773931E+02  0.11555996432E+03  0.20221199309E+03  0.12700000000E+03 0.  0.
<mgrwt>
<rscale>  0 0.33246695E+03</rscale>
<asrwt>0</asrwt>
<pdfrwt beam="1">  1        2 0.13162655E-01 0.33246695E+03</pdfrwt>
<pdfrwt beam="2">  1       -2 0.42844728E-01 0.33246695E+03</pdfrwt>
<totfact> 0.23886073E+03</totfact>
</mgrwt>
</event>
<event>
 4    1  0.1361667E-004  0.3916172E+03  0.7818608E-02  0.1046722E+00
         -2   -1    0    0    0  501 -0.00000000000E+00  0.00000000000E+00  0.23034693507E+02  0.23034693648E+02  0.25500000000E-02 0. -1.
          2   -1    0    0  501    0  0.00000000000E+00 -0.00000000000E+00 -0.16644895548E+04  0.16644895548E+04  0.25500000000E-02 0.  1.
    5000001    1    1    2    0    0 -0.82295952082E+02 -0.11879690119E+03 -0.97768102381E+03  0.99643088660E+03  0.12700000000E+03 0.  0.
   -5000001    1    1    2    0    0  0.82295952082E+02  0.11879690119E+03 -0.66377383750E+03  0.69109336187E+03  0.12700000000E+03 0.  0.
<mgrwt>
<rscale>  0 0.39161720E+03</rscale>
<asrwt>0</asrwt>
<pdfrwt beam="1">  1        2 0.23778414E+00 0.39161720E+03</pdfrwt>
<pdfrwt beam="2">  1       -2 0.32906716E-02 0.39161720E+03</pdfrwt>
<totfact> 0.47688727E+03</totfact>
</mgrwt>
</event>
<event>
 4    1  0.1361667E-004  0.4062292E+03  0.7818608E-02  0.1041644E+00
          2   -1    0    0  501    0  0.00000000000E+00  0.00000000000E+00  0.13164167970E+04  0.13164167970E+04  0.25500000000E-02 0.  1.
         -2   -1    0    0    0  501 -0.00000000000E+00 -0.00000000000E+00 -0.31339270577E+02  0.31339270681E+02  0.25500000000E-02 0. -1.
    5000001    1    1    2    0    0 -0.13795006074E+03 -0.43995506106E+02  0.42853356897E+03  0.46982533302E+03  0.12700000000E+03 0.  0.
   -5000001    1    1    2    0    0  0.13795006074E+03  0.43995506106E+02  0.85654395748E+03  0.87793073469E+03  0.12700000000E+03 0.  0.
<mgrwt>
<rscale>  0 0.40622921E+03</rscale>
<asrwt>0</asrwt>
<pdfrwt beam="1">  1        2 0.18805952E+00 0.40622921E+03</pdfrwt>
<pdfrwt beam="2">  1       -2 0.44770392E-02 0.40622921E+03</pdfrwt>
<totfact> 0.45164473E+03</totfact>
</mgrwt>
</event>
<event>
 4    1  0.1361667E-004  0.3569454E+03  0.7818608E-02  0.1059800E+00
          2   -1    0    0  501    0  0.00000000000E+00  0.00000000000E+00  0.23180974882E+03  0.23180974883E+03  0.25500000000E-02 0.  1.
         -2   -1    0    0    0  501 -0.00000000000E+00 -0.00000000000E+00 -0.13740793615E+03  0.13740793617E+03  0.25500000000E-02 0. -1.
    5000001    1    1    2    0    0 -0.58247503945E+02  0.10020386265E+03  0.96699204647E+02  0.19726459891E+03  0.12700000000E+03 0.  0.
   -5000001    1    1    2    0    0  0.58247503945E+02 -0.10020386265E+03 -0.22973919828E+01  0.17195308609E+03  0.12700000000E+03 0.  0.
<mgrwt>
<rscale>  0 0.35694537E+03</rscale>
<asrwt>0</asrwt>
<pdfrwt beam="1">  1        2 0.33115678E-01 0.35694537E+03</pdfrwt>
<pdfrwt beam="2">  1       -2 0.19629705E-01 0.35694537E+03</pdfrwt>
<totfact> 0.34280537E+03</totfact>
</mgrwt>
</event>
<event>
 4    1  0.1361667E-004  0.4293490E+03  0.7818608E-02  0.1034066E+00
          2   -1    0    0  501    0  0.00000000000E+00  0.00000000000E+00  0.17207485853E+04  0.17207485853E+04  0.25500000000E-02 0.  1.
         -2   -1    0    0    0  501 -0.00000000000E+00 -0.00000000000E+00 -0.26782030875E+02  0.26782030996E+02  0.25500000000E-02 0. -1.
    5000001    1    1    2    0    0  0.10971691194E+03  0.13069322051E+03  0.72918507018E+03  0.75957776773E+03  0.12700000000E+03 0.  0.
   -5000001    1    1    2    0    0 -0.10971691194E+03 -0.13069322051E+03  0.96478148420E+03  0.98795284852E+03  0.12700000000E+03 0.  0.
<mgrwt>
<rscale>  0 0.42934900E+03</rscale>
<asrwt>0</asrwt>
<pdfrwt beam="1">  1        2 0.24582127E+00 0.42934900E+03</pdfrwt>
<pdfrwt beam="2">  1       -2 0.38260037E-02 0.42934900E+03</pdfrwt>
<totfact> 0.35560922E+03</totfact>
</mgrwt>
</event>
<event>
 4    1  0.1361667E-004  0.3218599E+03  0.7818608E-02  0.1074797E+00
          2   -1    0    0  501    0  0.00000000000E+00  0.00000000000E+00  0.16373527956E+04  0.16373527956E+04  0.25500000000E-02 0.  1.
         -2   -1    0    0    0  501 -0.00000000000E+00 -0.00000000000E+00 -0.15817265930E+02  0.15817266135E+02  0.25500000000E-02 0. -1.
    5000001    1    1    2    0    0  0.23034130982E+02  0.84256295677E+02  0.57317553556E+03  0.59353929029E+03  0.12700000000E+03 0.  0.
   -5000001    1    1    2    0    0 -0.23034130982E+02 -0.84256295677E+02  0.10483599941E+04  0.10596307714E+04  0.12700000000E+03 0.  0.
<mgrwt>
<rscale>  0 0.32185987E+03</rscale>
<asrwt>0</asrwt>
<pdfrwt beam="1">  1        2 0.23390753E+00 0.32185987E+03</pdfrwt>
<pdfrwt beam="2">  1       -2 0.22596096E-02 0.32185987E+03</pdfrwt>
<totfact> 0.86178330E+03</totfact>
</mgrwt>
</event>
<event>
 4    1  0.1361667E-004  0.5794592E+03  0.7818608E-02  0.9948963E-01
          2   -1    0    0  501    0  0.00000000000E+00  0.00000000000E+00  0.64479309397E+03  0.64479309398E+03  0.25500000000E-02 0.  1.
         -2   -1    0    0    0  501 -0.00000000000E+00 -0.00000000000E+00 -0.13018632542E+03  0.13018632544E+03  0.25500000000E-02 0. -1.
    5000001    1    1    2    0    0  0.86059984963E+02 -0.23734409896E+03  0.17192096195E+03  0.33079352998E+03  0.12700000000E+03 0.  0.
   -5000001    1    1    2    0    0 -0.86059984963E+02  0.23734409896E+03  0.34268580661E+03  0.44418588943E+03  0.12700000000E+03 0.  0.
<mgrwt>
<rscale>  0 0.57945921E+03</rscale>
<asrwt>0</asrwt>
<pdfrwt beam="1">  1        2 0.92113301E-01 0.57945921E+03</pdfrwt>
<pdfrwt beam="2">  1       -2 0.18598046E-01 0.57945921E+03</pdfrwt>
<totfact> 0.12071211E+03</totfact>
</mgrwt>
</event>
<event>
 4    1  0.1361667E-004  0.3694144E+03  0.7818608E-02  0.1054917E+00
         -2   -1    0    0    0  501 -0.00000000000E+00  0.00000000000E+00  0.52422691644E+02  0.52422691706E+02  0.25500000000E-02 0. -1.
          2   -1    0    0  501    0  0.00000000000E+00 -0.00000000000E+00 -0.65080104589E+03  0.65080104589E+03  0.25500000000E-02 0.  1.
    5000001    1    1    2    0    0  0.10589050238E+03  0.80048690431E+02 -0.26271359372E+03  0.32057452123E+03  0.12700000000E+03 0.  0.
   -5000001    1    1    2    0    0 -0.10589050238E+03 -0.80048690431E+02 -0.33566476052E+03  0.38264921637E+03  0.12700000000E+03 0.  0.
<mgrwt>
<rscale>  0 0.36941436E+03</rscale>
<asrwt>0</asrwt>
<pdfrwt beam="1">  1        2 0.92971573E-01 0.36941436E+03</pdfrwt>
<pdfrwt beam="2">  1       -2 0.74889563E-02 0.36941436E+03</pdfrwt>
<totfact> 0.52781163E+03</totfact>
</mgrwt>
</event>
<event>
 4    1  0.1361667E-004  0.5870711E+03  0.7818608E-02  0.9932599E-01
          2   -1    0    0  501    0  0.00000000000E+00  0.00000000000E+00  0.32809985998E+03  0.32809985999E+03  0.25500000000E-02 0.  1.
         -2   -1    0    0    0  501 -0.00000000000E+00 -0.00000000000E+00 -0.26261244380E+03  0.26261244381E+03  0.25500000000E-02 0. -1.
    5000001    1    1    2    0    0 -0.72431445970E+02  0.14981206002E+03  0.23979693245E+03  0.31831044046E+03  0.12700000000E+03 0.  0.
   -5000001    1    1    2    0    0  0.72431445970E+02 -0.14981206002E+03 -0.17430951627E+03  0.27240186334E+03  0.12700000000E+03 0.  0.
<mgrwt>
<rscale>  0 0.58707106E+03</rscale>
<asrwt>0</asrwt>
<pdfrwt beam="1">  1        2 0.46871408E-01 0.58707106E+03</pdfrwt>
<pdfrwt beam="2">  1       -2 0.37516064E-01 0.58707106E+03</pdfrwt>
<totfact> 0.72695113E+02</totfact>
</mgrwt>
</event>
<event>
 4    1  0.1361667E-004  0.3312914E+03  0.7818608E-02  0.1070567E+00
         -2   -1    0    0    0  501 -0.00000000000E+00  0.00000000000E+00  0.29810665590E+04  0.29810665590E+04  0.25500000000E-02 0. -1.
          2   -1    0    0  501    0  0.00000000000E+00 -0.00000000000E+00 -0.92042574495E+01  0.92042578027E+01  0.25500000000E-02 0.  1.
    5000001    1    1    2    0    0 -0.43753609999E+02  0.52323618577E+02  0.22223951076E+04  0.22270655925E+04  0.12700000000E+03 0.  0.
   -5000001    1    1    2    0    0  0.43753609999E+02 -0.52323618577E+02  0.74946719402E+03  0.76320522428E+03  0.12700000000E+03 0.  0.
<mgrwt>
<rscale>  0 0.33129144E+03</rscale>
<asrwt>0</asrwt>
<pdfrwt beam="1">  1        2 0.13148925E-02 0.33129144E+03</pdfrwt>
<pdfrwt beam="2">  1       -2 0.42586711E+00 0.33129144E+03</pdfrwt>
<totfact> 0.59967824E+01</totfact>
</mgrwt>
</event>
<event>
 4    1  0.1361667E-004  0.6195363E+03  0.7818608E-02  0.9865683E-01
          2   -1    0    0  501    0  0.00000000000E+00  0.00000000000E+00  0.79970404943E+03  0.79970404943E+03  0.25500000000E-02 0.  1.
         -2   -1    0    0    0  501 -0.00000000000E+00 -0.00000000000E+00 -0.11998975568E+03  0.11998975570E+03  0.25500000000E-02 0. -1.
    5000001    1    1    2    0    0  0.18964493969E+03 -0.19761145416E+03  0.44283183319E+03  0.53595197775E+03  0.12700000000E+03 0.  0.
   -5000001    1    1    2    0    0 -0.18964493969E+03  0.19761145416E+03  0.23688246056E+03  0.38374182739E+03  0.12700000000E+03 0.  0.
<mgrwt>
<rscale>  0 0.61953626E+03</rscale>
<asrwt>0</asrwt>
<pdfrwt beam="1">  1        2 0.11424343E+00 0.61953626E+03</pdfrwt>
<pdfrwt beam="2">  1       -2 0.17141394E-01 0.61953626E+03</pdfrwt>
<totfact> 0.10638282E+03</totfact>
</mgrwt>
</event>
<event>
 4    1  0.1361667E-004  0.4474079E+03  0.7818608E-02  0.1028498E+00
          2   -1    0    0  501    0  0.00000000000E+00  0.00000000000E+00  0.22038724975E+04  0.22038724975E+04  0.25500000000E-02 0.  1.
         -2   -1    0    0    0  501 -0.00000000000E+00 -0.00000000000E+00 -0.22707057537E+02  0.22707057680E+02  0.25500000000E-02 0. -1.
    5000001    1    1    2    0    0 -0.18382656342E+03  0.97931278031E+01  0.10650370918E+04  0.10882651872E+04  0.12700000000E+03 0.  0.
   -5000001    1    1    2    0    0  0.18382656342E+03 -0.97931278031E+01  0.11161283482E+04  0.11383143680E+04  0.12700000000E+03 0.  0.
<mgrwt>
<rscale>  0 0.44740791E+03</rscale>
<asrwt>0</asrwt>
<pdfrwt beam="1">  1        2 0.31483887E+00 0.44740791E+03</pdfrwt>
<pdfrwt beam="2">  1       -2 0.32438660E-02 0.44740791E+03</pdfrwt>
<totfact> 0.26244674E+03</totfact>
</mgrwt>
</event>
<event>
 4    1  0.1361667E-004  0.4800524E+03  0.7818608E-02  0.1019121E+00
         -2   -1    0    0    0  501 -0.00000000000E+00  0.00000000000E+00  0.15690609632E+02  0.15690609839E+02  0.25500000000E-02 0. -1.
          2   -1    0    0  501    0  0.00000000000E+00 -0.00000000000E+00 -0.36717874819E+04  0.36717874819E+04  0.25500000000E-02 0.  1.
    5000001    1    1    2    0    0 -0.19195914865E+03 -0.46189297385E+02 -0.14438384297E+04  0.14627987479E+04  0.12700000000E+03 0.  0.
   -5000001    1    1    2    0    0  0.19195914865E+03  0.46189297385E+02 -0.22122584426E+04  0.22246793438E+04  0.12700000000E+03 0.  0.
<mgrwt>
<rscale>  0 0.48005243E+03</rscale>
<asrwt>0</asrwt>
<pdfrwt beam="1">  1        2 0.52454052E+00 0.48005243E+03</pdfrwt>
<pdfrwt beam="2">  1       -2 0.22415180E-02 0.48005243E+03</pdfrwt>
<totfact> 0.73219280E+02</totfact>
</mgrwt>
</event>
<event>
 4    1  0.1361667E-004  0.3965879E+03  0.7818608E-02  0.1044968E+00
          2   -1    0    0  501    0  0.00000000000E+00  0.00000000000E+00  0.44767831659E+03  0.44767831660E+03  0.25500000000E-02 0.  1.
         -2   -1    0    0    0  501 -0.00000000000E+00 -0.00000000000E+00 -0.87832023325E+02  0.87832023362E+02  0.25500000000E-02 0. -1.
    5000001    1    1    2    0    0 -0.10255839653E+03  0.76719038517E+02  0.29116851294E+03  0.34250859623E+03  0.12700000000E+03 0.  0.
   -5000001    1    1    2    0    0  0.10255839653E+03 -0.76719038517E+02  0.68677780328E+02  0.19300174372E+03  0.12700000000E+03 0.  0.
<mgrwt>
<rscale>  0 0.39658791E+03</rscale>
<asrwt>0</asrwt>
<pdfrwt beam="1">  1        2 0.63954044E-01 0.39658791E+03</pdfrwt>
<pdfrwt beam="2">  1       -2 0.12547432E-01 0.39658791E+03</pdfrwt>
<totfact> 0.35411673E+03</totfact>
</mgrwt>
</event>
<event>
 4    1  0.1361667E-004  0.4745510E+03  0.7818608E-02  0.1020644E+00
         -2   -1    0    0    0  501 -0.00000000000E+00  0.00000000000E+00  0.12443175662E+04  0.12443175662E+04  0.25500000000E-02 0.  1.
          2   -1    0    0  501    0  0.00000000000E+00 -0.00000000000E+00 -0.45245407405E+02  0.45245407476E+02  0.25500000000E-02 0. -1.
    5000001    1    1    2    0    0 -0.18414755225E+03  0.66582771345E+02  0.48338128352E+03  0.53677746944E+03  0.12700000000E+03 0.  0.
   -5000001    1    1    2    0    0  0.18414755225E+03 -0.66582771345E+02  0.71569087523E+03  0.75278550419E+03  0.12700000000E+03 0.  0.
<mgrwt>
<rscale>  0 0.47455097E+03</rscale>
<asrwt>0</asrwt>
<pdfrwt beam="1">  1        2 0.64636293E-02 0.47455097E+03</pdfrwt>
<pdfrwt beam="2">  1       -2 0.17775966E+00 0.47455097E+03</pdfrwt>
<totfact> 0.22534224E+02</totfact>
</mgrwt>
</event>
<event>
 4    1  0.1361667E-004  0.2889159E+03  0.7818608E-02  0.1090917E+00
          2   -1    0    0  501    0  0.00000000000E+00  0.00000000000E+00  0.31243136619E+03  0.31243136620E+03  0.25500000000E-02 0.  1.
         -2   -1    0    0    0  501 -0.00000000000E+00 -0.00000000000E+00 -0.66792592819E+02  0.66792592868E+02  0.25500000000E-02 0. -1.
    5000001    1    1    2    0    0 -0.66242005449E+02 -0.27112264794E+00  0.98227442589E+02  0.17368277770E+03  0.12700000000E+03 0.  0.
   -5000001    1    1    2    0    0  0.66242005449E+02  0.27112264794E+00  0.14741133078E+03  0.20554118136E+03  0.12700000000E+03 0.  0.
<mgrwt>
<rscale>  0 0.28891591E+03</rscale>
<asrwt>0</asrwt>
<pdfrwt beam="1">  1        2 0.44633054E-01 0.28891591E+03</pdfrwt>
<pdfrwt beam="2">  1       -2 0.95417986E-02 0.28891591E+03</pdfrwt>
<totfact> 0.80690406E+03</totfact>
</mgrwt>
</event>
<event>
 4    1  0.1361667E-004  0.5732769E+03  0.7818608E-02  0.9962453E-01
         -2   -1    0    0    0  501 -0.00000000000E+00  0.00000000000E+00  0.56866278906E+02  0.56866278963E+02  0.25500000000E-02 0. -1.
          2   -1    0    0  501    0  0.00000000000E+00 -0.00000000000E+00 -0.14448210832E+04  0.14448210832E+04  0.25500000000E-02 0.  1.
    5000001    1    1    2    0    0 -0.20543475473E+03 -0.87398085378E+02 -0.10272874233E+04  0.10589099649E+04  0.12700000000E+03 0.  0.
   -5000001    1    1    2    0    0  0.20543475473E+03  0.87398085378E+02 -0.36066738100E+03  0.44277739723E+03  0.12700000000E+03 0.  0.
<mgrwt>
<rscale>  0 0.57327689E+03</rscale>
<asrwt>0</asrwt>
<pdfrwt beam="1">  1        2 0.20640299E+00 0.57327689E+03</pdfrwt>
<pdfrwt beam="2">  1       -2 0.81237550E-02 0.57327689E+03</pdfrwt>
<totfact> 0.15223145E+03</totfact>
</mgrwt>
</event>
<event>
 4    1  0.1361667E-004  0.3525848E+03  0.7818608E-02  0.1061559E+00
         -2   -1    0    0    0  501 -0.00000000000E+00  0.00000000000E+00  0.50271743331E+02  0.50271743396E+02  0.25500000000E-02 0.  1.
          2   -1    0    0  501    0  0.00000000000E+00 -0.00000000000E+00 -0.61822033428E+03  0.61822033428E+03  0.25500000000E-02 0. -1.
    5000001    1    1    2    0    0 -0.74256468258E+02 -0.74337545223E+02 -0.16542018820E+03  0.23352287334E+03  0.12700000000E+03 0.  0.
   -5000001    1    1    2    0    0  0.74256468258E+02  0.74337545223E+02 -0.40252840275E+03  0.43496920434E+03  0.12700000000E+03 0.  0.
<mgrwt>
<rscale>  0 0.35258482E+03</rscale>
<asrwt>0</asrwt>
<pdfrwt beam="1">  1        2 0.88317186E-01 0.35258482E+03</pdfrwt>
<pdfrwt beam="2">  1       -2 0.71816780E-02 0.35258482E+03</pdfrwt>
<totfact> 0.59780874E+03</totfact>
</mgrwt>
</event>
<event>
 4    1  0.1361667E-004  0.2784722E+03  0.7818608E-02  0.1096526E+00
          2   -1    0    0  501    0  0.00000000000E+00  0.00000000000E+00  0.18100946237E+04  0.18100946237E+04  0.25500000000E-02 0.  1.
         -2   -1    0    0    0  501 -0.00000000000E+00 -0.00000000000E+00 -0.10710317307E+02  0.10710317611E+02  0.25500000000E-02 0. -1.
    5000001    1    1    2    0    0  0.49762858585E+02  0.19011331904E+02  0.76570522719E+03  0.77799181730E+03  0.12700000000E+03 0.  0.
   -5000001    1    1    2    0    0 -0.49762858585E+02 -0.19011331904E+02  0.10336790792E+04  0.10428131240E+04  0.12700000000E+03 0.  0.
<mgrwt>
<rscale>  0 0.27847217E+03</rscale>
<asrwt>0</asrwt>
<pdfrwt beam="1">  1        2 0.25858514E+00 0.27847217E+03</pdfrwt>
<pdfrwt beam="2">  1       -2 0.15300442E-02 0.27847217E+03</pdfrwt>
<totfact> 0.12539172E+04</totfact>
</mgrwt>
</event>
<event>
 4    1  0.1361667E-004  0.5621653E+03  0.7818608E-02  0.9987167E-01
         -2   -1    0    0    0  501 -0.00000000000E+00  0.00000000000E+00  0.56651683741E+02  0.56651683798E+02  0.25500000000E-02 0. -1.
          2   -1    0    0  501    0  0.00000000000E+00 -0.00000000000E+00 -0.13946178713E+04  0.13946178713E+04  0.25500000000E-02 0.  1.
    5000001    1    1    2    0    0 -0.21944736194E+03  0.43898699859E+02 -0.37697774667E+03  0.45642684189E+03  0.12700000000E+03 0.  0.
   -5000001    1    1    2    0    0  0.21944736194E+03 -0.43898699859E+02 -0.96098844085E+03  0.99484271317E+03  0.12700000000E+03 0.  0.
<mgrwt>
<rscale>  0 0.56216528E+03</rscale>
<asrwt>0</asrwt>
<pdfrwt beam="1">  1        2 0.19923110E+00 0.56216528E+03</pdfrwt>
<pdfrwt beam="2">  1       -2 0.80930986E-02 0.56216528E+03</pdfrwt>
<totfact> 0.16283994E+03</totfact>
</mgrwt>
</event>
<event>
 4    1  0.1361667E-004  0.5466648E+03  0.7818608E-02  0.1002269E+00
          2   -1    0    0  501    0  0.00000000000E+00  0.00000000000E+00  0.34729179204E+04  0.34729179204E+04  0.25500000000E-02 0.  1.
         -2   -1    0    0    0  501 -0.00000000000E+00 -0.00000000000E+00 -0.21512343114E+02  0.21512343265E+02  0.25500000000E-02 0. -1.
    5000001    1    1    2    0    0 -0.38611418394E+02 -0.20297728157E+03  0.91989649500E+03  0.95133021605E+03  0.12700000000E+03 0.  0.
   -5000001    1    1    2    0    0  0.38611418394E+02  0.20297728157E+03  0.25315090823E+04  0.25431000476E+04  0.12700000000E+03 0.  0.
<mgrwt>
<rscale>  0 0.54666480E+03</rscale>
<asrwt>0</asrwt>
<pdfrwt beam="1">  1        2 0.49613139E+00 0.54666480E+03</pdfrwt>
<pdfrwt beam="2">  1       -2 0.30731903E-02 0.54666480E+03</pdfrwt>
<totfact> 0.59383943E+02</totfact>
</mgrwt>
</event>
<event>
 4    1  0.1361667E-004  0.3290394E+03  0.7818608E-02  0.1071563E+00
          2   -1    0    0  501    0  0.00000000000E+00  0.00000000000E+00  0.10919883634E+04  0.10919883634E+04  0.25500000000E-02 0.  1.
         -2   -1    0    0    0  501 -0.00000000000E+00 -0.00000000000E+00 -0.24786653147E+02  0.24786653278E+02  0.25500000000E-02 0. -1.
    5000001    1    1    2    0    0  0.19030342455E+02  0.96687103492E+02  0.65249846113E+03  0.67200728545E+03  0.12700000000E+03 0.  0.
   -5000001    1    1    2    0    0 -0.19030342455E+02 -0.96687103492E+02  0.41470324914E+03  0.44476773125E+03  0.12700000000E+03 0.  0.
<mgrwt>
<rscale>  0 0.32903943E+03</rscale>
<asrwt>0</asrwt>
<pdfrwt beam="1">  1        2 0.15599830E+00 0.32903943E+03</pdfrwt>
<pdfrwt beam="2">  1       -2 0.35409513E-02 0.32903943E+03</pdfrwt>
<totfact> 0.85360597E+03</totfact>
</mgrwt>
</event>
<event>
 4    1  0.1361667E-004  0.4484665E+03  0.7818608E-02  0.1028180E+00
         -2   -1    0    0    0  501 -0.00000000000E+00  0.00000000000E+00  0.29495690797E+02  0.29495690907E+02  0.25500000000E-02 0. -1.
          2   -1    0    0  501    0  0.00000000000E+00 -0.00000000000E+00 -0.17046746171E+04  0.17046746171E+04  0.25500000000E-02 0.  1.
    5000001    1    1    2    0    0  0.98514205266E+02  0.12769317134E+03 -0.11864883231E+04  0.12041154992E+04  0.12700000000E+03 0.  0.
   -5000001    1    1    2    0    0 -0.98514205266E+02 -0.12769317134E+03 -0.48869060321E+03  0.53005480878E+03  0.12700000000E+03 0.  0.
<mgrwt>
<rscale>  0 0.44846652E+03</rscale>
<asrwt>0</asrwt>
<pdfrwt beam="1">  1        2 0.24352488E+00 0.44846652E+03</pdfrwt>
<pdfrwt beam="2">  1       -2 0.42136712E-02 0.44846652E+03</pdfrwt>
<totfact> 0.31262289E+03</totfact>
</mgrwt>
</event>
<event>
 4    1  0.1361667E-004  0.3312781E+03  0.7818608E-02  0.1070573E+00
          2   -1    0    0  501    0  0.00000000000E+00  0.00000000000E+00  0.58669632491E+03  0.58669632491E+03  0.25500000000E-02 0.  1.
         -2   -1    0    0    0  501 -0.00000000000E+00 -0.00000000000E+00 -0.46764034590E+02  0.46764034660E+02  0.25500000000E-02 0. -1.
    5000001    1    1    2    0    0 -0.61149943041E+01 -0.10339281724E+03  0.31601015780E+03  0.35597596498E+03  0.12700000000E+03 0.  0.
   -5000001    1    1    2    0    0  0.61149943041E+01  0.10339281724E+03  0.22392213252E+03  0.27748439459E+03  0.12700000000E+03 0.  0.
<mgrwt>
<rscale>  0 0.33127805E+03</rscale>
<asrwt>0</asrwt>
<pdfrwt beam="1">  1        2 0.83813762E-01 0.33127805E+03</pdfrwt>
<pdfrwt beam="2">  1       -2 0.66805763E-02 0.33127805E+03</pdfrwt>
<totfact> 0.70946991E+03</totfact>
</mgrwt>
</event>
<event>
 4    1  0.1361667E-004  0.3136374E+03  0.7818608E-02  0.1078615E+00
          2   -1    0    0  501    0  0.00000000000E+00  0.00000000000E+00  0.12011122010E+04  0.12011122010E+04  0.25500000000E-02 0.  1.
         -2   -1    0    0    0  501 -0.00000000000E+00 -0.00000000000E+00 -0.20474442209E+02  0.20474442367E+02  0.25500000000E-02 0. -1.
    5000001    1    1    2    0    0  0.18189999912E+01 -0.69836217387E+02  0.35718711239E+03  0.38547637967E+03  0.12700000000E+03 0.  0.
   -5000001    1    1    2    0    0 -0.18189999912E+01  0.69836217387E+02  0.82345064641E+03  0.83611026371E+03  0.12700000000E+03 0.  0.
<mgrwt>
<rscale>  0 0.31363739E+03</rscale>
<asrwt>0</asrwt>
<pdfrwt beam="1">  1        2 0.17158747E+00 0.31363739E+03</pdfrwt>
<pdfrwt beam="2">  1       -2 0.29249201E-02 0.31363739E+03</pdfrwt>
<totfact> 0.98708433E+03</totfact>
</mgrwt>
</event>
<event>
 4    1  0.1361667E-004  0.2970351E+03  0.7818608E-02  0.1086732E+00
          2   -1    0    0  501    0  0.00000000000E+00  0.00000000000E+00  0.54385934209E+03  0.54385934210E+03  0.25500000000E-02 0.  1.
         -2   -1    0    0    0  501 -0.00000000000E+00 -0.00000000000E+00 -0.40557283776E+02  0.40557283856E+02  0.25500000000E-02 0. -1.
    5000001    1    1    2    0    0 -0.39135584962E+02 -0.66088178457E+02  0.24101626527E+03  0.28304960955E+03  0.12700000000E+03 0.  0.
   -5000001    1    1    2    0    0  0.39135584962E+02  0.66088178457E+02  0.26228579305E+03  0.30136701641E+03  0.12700000000E+03 0.  0.
<mgrwt>
<rscale>  0 0.29703507E+03</rscale>
<asrwt>0</asrwt>
<pdfrwt beam="1">  1        2 0.77694195E-01 0.29703507E+03</pdfrwt>
<pdfrwt beam="2">  1       -2 0.57938974E-02 0.29703507E+03</pdfrwt>
<totfact> 0.95969856E+03</totfact>
</mgrwt>
</event>
<event>
 4    1  0.1361667E-004  0.5271925E+03  0.7818608E-02  0.1006915E+00
          2   -1    0    0  501    0  0.00000000000E+00  0.00000000000E+00  0.65895921735E+02  0.65895921784E+02  0.25500000000E-02 0.  1.
         -2   -1    0    0    0  501 -0.00000000000E+00 -0.00000000000E+00 -0.10544353920E+04  0.10544353920E+04  0.25500000000E-02 0. -1.
    5000001    1    1    2    0    0  0.21549357366E+03 -0.36317498869E+02 -0.33527737506E+03  0.41987660001E+03  0.12700000000E+03 0.  0.
   -5000001    1    1    2    0    0 -0.21549357366E+03  0.36317498869E+02 -0.65326209516E+03  0.70045471373E+03  0.12700000000E+03 0.  0.
<mgrwt>
<rscale>  0 0.52719253E+03</rscale>
<asrwt>0</asrwt>
<pdfrwt beam="1">  1        2 0.94137037E-02 0.52719253E+03</pdfrwt>
<pdfrwt beam="2">  1       -2 0.15063362E+00 0.52719253E+03</pdfrwt>
<totfact> 0.21638051E+02</totfact>
</mgrwt>
</event>
<event>
 4    1  0.1361667E-004  0.4818388E+03  0.7818608E-02  0.1018631E+00
         -2   -1    0    0    0  501 -0.00000000000E+00  0.00000000000E+00  0.33046970523E+02  0.33046970621E+02  0.25500000000E-02 0. -1.
          2   -1    0    0  501    0  0.00000000000E+00 -0.00000000000E+00 -0.17563534578E+04  0.17563534578E+04  0.25500000000E-02 0.  1.
    5000001    1    1    2    0    0 -0.16996968715E+03 -0.76950341295E+02 -0.11746209279E+04  0.11961080110E+04  0.12700000000E+03 0.  0.
   -5000001    1    1    2    0    0  0.16996968715E+03  0.76950341295E+02 -0.54868555939E+03  0.59329241750E+03  0.12700000000E+03 0.  0.
<mgrwt>
<rscale>  0 0.48183882E+03</rscale>
<asrwt>0</asrwt>
<pdfrwt beam="1">  1        2 0.25090758E+00 0.48183882E+03</pdfrwt>
<pdfrwt beam="2">  1       -2 0.47209969E-02 0.48183882E+03</pdfrwt>
<totfact> 0.24716313E+03</totfact>
</mgrwt>
</event>
<event>
 4    1  0.1361667E-004  0.3539318E+03  0.7818608E-02  0.1061013E+00
          2   -1    0    0  501    0  0.00000000000E+00  0.00000000000E+00  0.11617602281E+04  0.11617602281E+04  0.25500000000E-02 0.  1.
         -2   -1    0    0    0  501 -0.00000000000E+00 -0.00000000000E+00 -0.26956443096E+02  0.26956443216E+02  0.25500000000E-02 0. -1.
    5000001    1    1    2    0    0  0.48997174149E+01 -0.77621527238E+02  0.24632891854E+03  0.28784725955E+03  0.12700000000E+03 0.  0.
   -5000001    1    1    2    0    0 -0.48997174149E+01  0.77621527238E+02  0.88847486644E+03  0.90086941174E+03  0.12700000000E+03 0.  0.
<mgrwt>
<rscale>  0 0.35393176E+03</rscale>
<asrwt>0</asrwt>
<pdfrwt beam="1">  1        2 0.16596577E+00 0.35393176E+03</pdfrwt>
<pdfrwt beam="2">  1       -2 0.38509198E-02 0.35393176E+03</pdfrwt>
<totfact> 0.68812904E+03</totfact>
</mgrwt>
</event>
<event>
 4    1  0.1361667E-004  0.3691008E+03  0.7818608E-02  0.1055037E+00
          2   -1    0    0  501    0  0.00000000000E+00  0.00000000000E+00  0.54849803219E+03  0.54849803219E+03  0.25500000000E-02 0.  1.
         -2   -1    0    0    0  501 -0.00000000000E+00 -0.00000000000E+00 -0.62094766826E+02  0.62094766879E+02  0.25500000000E-02 0. -1.
    5000001    1    1    2    0    0  0.11685279173E+03  0.17691188137E+01  0.13507565941E+03  0.21916235644E+03  0.12700000000E+03 0.  0.
   -5000001    1    1    2    0    0 -0.11685279173E+03 -0.17691188137E+01  0.35132760595E+03  0.39143044263E+03  0.12700000000E+03 0.  0.
<mgrwt>
<rscale>  0 0.36910084E+03</rscale>
<asrwt>0</asrwt>
<pdfrwt beam="1">  1        2 0.78356859E-01 0.36910084E+03</pdfrwt>
<pdfrwt beam="2">  1       -2 0.88706813E-02 0.36910084E+03</pdfrwt>
<totfact> 0.49240875E+03</totfact>
</mgrwt>
</event>
<event>
 4    1  0.1361667E-004  0.5329109E+03  0.7818608E-02  0.1005529E+00
          2   -1    0    0  501    0  0.00000000000E+00  0.00000000000E+00  0.58421253879E+03  0.58421253879E+03  0.25500000000E-02 0.  1.
         -2   -1    0    0    0  501 -0.00000000000E+00 -0.00000000000E+00 -0.12152855563E+03  0.12152855566E+03  0.25500000000E-02 0. -1.
    5000001    1    1    2    0    0  0.18586271318E+03 -0.74545359120E+02  0.70409034515E+02  0.24736287284E+03  0.12700000000E+03 0.  0.
   -5000001    1    1    2    0    0 -0.18586271318E+03  0.74545359120E+02  0.39227494864E+03  0.45837822161E+03  0.12700000000E+03 0.  0.
<mgrwt>
<rscale>  0 0.53291090E+03</rscale>
<asrwt>0</asrwt>
<pdfrwt beam="1">  1        2 0.83458935E-01 0.53291090E+03</pdfrwt>
<pdfrwt beam="2">  1       -2 0.17361222E-01 0.53291090E+03</pdfrwt>
<totfact> 0.15263958E+03</totfact>
</mgrwt>
</event>
<event>
 4    1  0.1361667E-004  0.6079555E+03  0.7818608E-02  0.9889037E-01
         -2   -1    0    0    0  501 -0.00000000000E+00  0.00000000000E+00  0.38964295645E+03  0.38964295646E+03  0.25500000000E-02 0. -1.
          2   -1    0    0  501    0  0.00000000000E+00 -0.00000000000E+00 -0.23714650555E+03  0.23714650556E+03  0.25500000000E-02 0.  1.
    5000001    1    1    2    0    0  0.25409956680E+03  0.10291169928E+03  0.41805836856E+02  0.30501497618E+03  0.12700000000E+03 0.  0.
   -5000001    1    1    2    0    0 -0.25409956680E+03 -0.10291169928E+03  0.11069061404E+03  0.32177448584E+03  0.12700000000E+03 0.  0.
<mgrwt>
<rscale>  0 0.60795548E+03</rscale>
<asrwt>0</asrwt>
<pdfrwt beam="1">  1        2 0.33878073E-01 0.60795548E+03</pdfrwt>
<pdfrwt beam="2">  1       -2 0.55663279E-01 0.60795548E+03</pdfrwt>
<totfact> 0.47439249E+02</totfact>
</mgrwt>
</event>
<event>
 4    1  0.1361667E-004  0.6079947E+03  0.7818608E-02  0.9888957E-01
         -2   -1    0    0    0  501 -0.00000000000E+00  0.00000000000E+00  0.15813359813E+03  0.15813359815E+03  0.25500000000E-02 0.  1.
          2   -1    0    0  501    0  0.00000000000E+00 -0.00000000000E+00 -0.58440698336E+03  0.58440698337E+03  0.25500000000E-02 0. -1.
    5000001    1    1    2    0    0 -0.24252396693E+03 -0.13172864935E+03 -0.20003592636E+03  0.36374947894E+03  0.12700000000E+03 0.  0.
   -5000001    1    1    2    0    0  0.24252396693E+03  0.13172864935E+03 -0.22623745887E+03  0.37879110258E+03  0.12700000000E+03 0.  0.
<mgrwt>
<rscale>  0 0.60799467E+03</rscale>
<asrwt>0</asrwt>
<pdfrwt beam="1">  1        2 0.83486711E-01 0.60799467E+03</pdfrwt>
<pdfrwt beam="2">  1       -2 0.22590514E-01 0.60799467E+03</pdfrwt>
<totfact> 0.96503458E+02</totfact>
</mgrwt>
</event>
<event>
 4    1  0.1361667E-004  0.4612861E+03  0.7818608E-02  0.1024409E+00
          2   -1    0    0  501    0  0.00000000000E+00  0.00000000000E+00  0.29098979272E+03  0.29098979273E+03  0.25500000000E-02 0.  1.
         -2   -1    0    0    0  501 -0.00000000000E+00 -0.00000000000E+00 -0.18281129419E+03  0.18281129420E+03  0.25500000000E-02 0. -1.
    5000001    1    1    2    0    0 -0.13057589790E+03  0.10535465885E+02  0.19900627336E+03  0.26998807009E+03  0.12700000000E+03 0.  0.
   -5000001    1    1    2    0    0  0.13057589790E+03 -0.10535465885E+02 -0.90827774832E+02  0.20381301684E+03  0.12700000000E+03 0.  0.
<mgrwt>
<rscale>  0 0.46128612E+03</rscale>
<asrwt>0</asrwt>
<pdfrwt beam="1">  1        2 0.41569971E-01 0.46128612E+03</pdfrwt>
<pdfrwt beam="2">  1       -2 0.26115899E-01 0.46128612E+03</pdfrwt>
<totfact> 0.16243580E+03</totfact>
</mgrwt>
</event>
<event>
 4    1  0.1361667E-004  0.8042140E+03  0.7818608E-02  0.9553937E-01
         -2   -1    0    0    0  501 -0.00000000000E+00  0.00000000000E+00  0.28705281209E+03  0.28705281211E+03  0.25500000000E-02 0. -1.
          2   -1    0    0  501    0  0.00000000000E+00 -0.00000000000E+00 -0.56327625141E+03  0.56327625141E+03  0.25500000000E-02 0.  1.
    5000001    1    1    2    0    0 -0.22289942808E+03 -0.29809725391E+03 -0.22666940856E+03  0.45393187661E+03  0.12700000000E+03 0.  0.
   -5000001    1    1    2    0    0  0.22289942808E+03  0.29809725391E+03 -0.49554030754E+02  0.39639718691E+03  0.12700000000E+03 0.  0.
<mgrwt>
<rscale>  0 0.80421398E+03</rscale>
<asrwt>0</asrwt>
<pdfrwt beam="1">  1        2 0.80468036E-01 0.80421398E+03</pdfrwt>
<pdfrwt beam="2">  1       -2 0.41007545E-01 0.80421398E+03</pdfrwt>
<totfact> 0.33088270E+02</totfact>
</mgrwt>
</event>
<event>
 4    1  0.1361667E-004  0.2769366E+03  0.7818608E-02  0.1097374E+00
          2   -1    0    0  501    0  0.00000000000E+00  0.00000000000E+00  0.36507633325E+03  0.36507633326E+03  0.25500000000E-02 0.  1.
         -2   -1    0    0    0  501 -0.00000000000E+00 -0.00000000000E+00 -0.52519089185E+02  0.52519089247E+02  0.25500000000E-02 0. -1.
    5000001    1    1    2    0    0 -0.27096164154E+02 -0.10599006693E+01  0.22873914585E+03  0.26303216979E+03  0.12700000000E+03 0.  0.
   -5000001    1    1    2    0    0  0.27096164154E+02  0.10599006693E+01  0.83818098218E+02  0.15456325272E+03  0.12700000000E+03 0.  0.
<mgrwt>
<rscale>  0 0.27693665E+03</rscale>
<asrwt>0</asrwt>
<pdfrwt beam="1">  1        2 0.52153761E-01 0.27693665E+03</pdfrwt>
<pdfrwt beam="2">  1       -2 0.75027272E-02 0.27693665E+03</pdfrwt>
<totfact> 0.99349523E+03</totfact>
</mgrwt>
</event>
<event>
 4    1  0.1361667E-004  0.3256408E+03  0.7818608E-02  0.1073082E+00
          2   -1    0    0  501    0  0.00000000000E+00  0.00000000000E+00  0.10629357709E+03  0.10629357712E+03  0.25500000000E-02 0.  1.
         -2   -1    0    0    0  501 -0.00000000000E+00 -0.00000000000E+00 -0.24940807854E+03  0.24940807856E+03  0.25500000000E-02 0. -1.
    5000001    1    1    2    0    0  0.60280170054E+02 -0.90453706045E+01  0.17625003776E+02  0.14196886415E+03  0.12700000000E+03 0.  0.
   -5000001    1    1    2    0    0 -0.60280170054E+02  0.90453706045E+01 -0.16073950523E+03  0.21373279152E+03  0.12700000000E+03 0.  0.
<mgrwt>
<rscale>  0 0.32564076E+03</rscale>
<asrwt>0</asrwt>
<pdfrwt beam="1">  1        2 0.15184797E-01 0.32564076E+03</pdfrwt>
<pdfrwt beam="2">  1       -2 0.35629725E-01 0.32564076E+03</pdfrwt>
<totfact> 0.28598578E+03</totfact>
</mgrwt>
</event>
<event>
 4    1  0.1361667E-004  0.4861888E+03  0.7818608E-02  0.1017448E+00
          2   -1    0    0  501    0  0.00000000000E+00  0.00000000000E+00  0.22727192254E+03  0.22727192255E+03  0.25500000000E-02 0. -1.
         -2   -1    0    0    0  501 -0.00000000000E+00 -0.00000000000E+00 -0.26001846520E+03  0.26001846522E+03  0.25500000000E-02 0.  1.
    5000001    1    1    2    0    0 -0.19397625621E+03 -0.70315901029E+02 -0.36287424861E+02  0.24498345069E+03  0.12700000000E+03 0.  0.
   -5000001    1    1    2    0    0  0.19397625621E+03  0.70315901029E+02  0.35408821939E+01  0.24230693708E+03  0.12700000000E+03 0.  0.
<mgrwt>
<rscale>  0 0.48618884E+03</rscale>
<asrwt>0</asrwt>
<pdfrwt beam="1">  1        2 0.32467418E-01 0.48618884E+03</pdfrwt>
<pdfrwt beam="2">  1       -2 0.37145495E-01 0.48618884E+03</pdfrwt>
<totfact> 0.11118449E+03</totfact>
</mgrwt>
</event>
<event>
 4    1  0.1361667E-004  0.8064351E+03  0.7818608E-02  0.9550749E-01
         -2   -1    0    0    0  501 -0.00000000000E+00  0.00000000000E+00  0.11308413429E+03  0.11308413432E+03  0.25500000000E-02 0.  1.
          2   -1    0    0  501    0  0.00000000000E+00 -0.00000000000E+00 -0.14377294454E+04  0.14377294454E+04  0.25500000000E-02 0. -1.
    5000001    1    1    2    0    0 -0.22252554754E+03 -0.96600924557E+02 -0.93132760377E+02  0.28922667406E+03  0.12700000000E+03 0.  0.
   -5000001    1    1    2    0    0  0.22252554754E+03  0.96600924557E+02 -0.12315125507E+04  0.12615869057E+04  0.12700000000E+03 0.  0.
<mgrwt>
<rscale>  0 0.80643509E+03</rscale>
<asrwt>0</asrwt>
<pdfrwt beam="1">  1        2 0.20538991E+00 0.80643509E+03</pdfrwt>
<pdfrwt beam="2">  1       -2 0.16154877E-01 0.80643509E+03</pdfrwt>
<totfact> 0.49049046E+02</totfact>
</mgrwt>
</event>
<event>
 4    1  0.1361667E-004  0.4764990E+03  0.7818608E-02  0.1020102E+00
          2   -1    0    0  501    0  0.00000000000E+00  0.00000000000E+00  0.14870300148E+04  0.14870300148E+04  0.25500000000E-02 0.  1.
         -2   -1    0    0    0  501 -0.00000000000E+00 -0.00000000000E+00 -0.38171938839E+02  0.38171938924E+02  0.25500000000E-02 0. -1.
    5000001    1    1    2    0    0 -0.26565208301E+02  0.16781818106E+03  0.37724126522E+03  0.43279166394E+03  0.12700000000E+03 0.  0.
   -5000001    1    1    2    0    0  0.26565208301E+02 -0.16781818106E+03  0.10716168108E+04  0.10924102898E+04  0.12700000000E+03 0.  0.
<mgrwt>
<rscale>  0 0.47649898E+03</rscale>
<asrwt>0</asrwt>
<pdfrwt beam="1">  1        2 0.21243283E+00 0.47649898E+03</pdfrwt>
<pdfrwt beam="2">  1       -2 0.54531349E-02 0.47649898E+03</pdfrwt>
<totfact> 0.27127085E+03</totfact>
</mgrwt>
</event>
<event>
 4    1  0.1361667E-004  0.4202928E+03  0.7818608E-02  0.1036971E+00
          2   -1    0    0  501    0  0.00000000000E+00  0.00000000000E+00  0.64659658372E+03  0.64659658372E+03  0.25500000000E-02 0.  1.
         -2   -1    0    0    0  501 -0.00000000000E+00 -0.00000000000E+00 -0.68298380118E+02  0.68298380165E+02  0.25500000000E-02 0. -1.
    5000001    1    1    2    0    0  0.10906602914E+03  0.83647395183E+02  0.12653113917E+03  0.22590133823E+03  0.12700000000E+03 0.  0.
   -5000001    1    1    2    0    0 -0.10906602914E+03 -0.83647395183E+02  0.45176706443E+03  0.48899362566E+03  0.12700000000E+03 0.  0.
<mgrwt>
<rscale>  0 0.42029275E+03</rscale>
<asrwt>0</asrwt>
<pdfrwt beam="1">  1        2 0.92370942E-01 0.42029275E+03</pdfrwt>
<pdfrwt beam="2">  1       -2 0.97569113E-02 0.42029275E+03</pdfrwt>
<totfact> 0.35049752E+03</totfact>
</mgrwt>
</event>
<event>
 4    1  0.1361667E-004  0.3042380E+03  0.7818608E-02  0.1083141E+00
          2   -1    0    0  501    0  0.00000000000E+00  0.00000000000E+00  0.36982364787E+02  0.36982364875E+02  0.25500000000E-02 0.  1.
         -2   -1    0    0    0  501 -0.00000000000E+00 -0.00000000000E+00 -0.62570861862E+03  0.62570861863E+03  0.25500000000E-02 0. -1.
    5000001    1    1    2    0    0  0.98826852770E+01  0.82894511532E+02 -0.30848231381E+03  0.34388879808E+03  0.12700000000E+03 0.  0.
   -5000001    1    1    2    0    0 -0.98826852770E+01 -0.82894511532E+02 -0.28024394003E+03  0.31880218543E+03  0.12700000000E+03 0.  0.
<mgrwt>
<rscale>  0 0.30423796E+03</rscale>
<asrwt>0</asrwt>
<pdfrwt beam="1">  1        2 0.52831953E-02 0.30423796E+03</pdfrwt>
<pdfrwt beam="2">  1       -2 0.89386939E-01 0.30423796E+03</pdfrwt>
<totfact> 0.16268227E+03</totfact>
</mgrwt>
</event>
<event>
 4    1  0.1361667E-004  0.7297065E+03  0.7818608E-02  0.9667737E-01
          2   -1    0    0  501    0  0.00000000000E+00  0.00000000000E+00  0.36043073880E+03  0.36043073881E+03  0.25500000000E-02 0.  1.
         -2   -1    0    0    0  501 -0.00000000000E+00 -0.00000000000E+00 -0.36932999339E+03  0.36932999340E+03  0.25500000000E-02 0. -1.
    5000001    1    1    2    0    0  0.32173479348E+03  0.83218116878E+02  0.76490624341E+02  0.36389331943E+03  0.12700000000E+03 0.  0.
   -5000001    1    1    2    0    0 -0.32173479348E+03 -0.83218116878E+02 -0.85389878931E+02  0.36586741278E+03  0.12700000000E+03 0.  0.
<mgrwt>
<rscale>  0 0.72970647E+03</rscale>
<asrwt>0</asrwt>
<pdfrwt beam="1">  1        2 0.51490106E-01 0.72970647E+03</pdfrwt>
<pdfrwt beam="2">  1       -2 0.52761427E-01 0.72970647E+03</pdfrwt>
<totfact> 0.33197878E+02</totfact>
</mgrwt>
</event>
<event>
 4    1  0.1361667E-004  0.3769524E+03  0.7818608E-02  0.1052066E+00
         -2   -1    0    0    0  501 -0.00000000000E+00  0.00000000000E+00  0.12087762217E+02  0.12087762486E+02  0.25500000000E-02 0. -1.
          2   -1    0    0  501    0  0.00000000000E+00 -0.00000000000E+00 -0.29387807448E+04  0.29387807448E+04  0.25500000000E-02 0.  1.
    5000001    1    1    2    0    0  0.12053097138E+03  0.45090280020E+02 -0.10466499201E+04  0.10621515446E+04  0.12700000000E+03 0.  0.
   -5000001    1    1    2    0    0 -0.12053097138E+03 -0.45090280020E+02 -0.18800430624E+04  0.18887169626E+04  0.12700000000E+03 0.  0.
<mgrwt>
<rscale>  0 0.37695243E+03</rscale>
<asrwt>0</asrwt>
<pdfrwt beam="1">  1        2 0.41982536E+00 0.37695243E+03</pdfrwt>
<pdfrwt beam="2">  1       -2 0.17268251E-02 0.37695243E+03</pdfrwt>
<totfact> 0.28470172E+03</totfact>
</mgrwt>
</event>
<event>
 4    1  0.1361667E-004  0.3584645E+03  0.7818608E-02  0.1059194E+00
         -2   -1    0    0    0  501 -0.00000000000E+00  0.00000000000E+00  0.25347528148E+03  0.25347528149E+03  0.25500000000E-02 0. -1.
          2   -1    0    0  501    0  0.00000000000E+00 -0.00000000000E+00 -0.12673504537E+03  0.12673504540E+03  0.25500000000E-02 0.  1.
    5000001    1    1    2    0    0  0.65814445313E+02 -0.10770531443E+03  0.54936317565E+02  0.18729381985E+03  0.12700000000E+03 0.  0.
   -5000001    1    1    2    0    0 -0.65814445313E+02  0.10770531443E+03  0.71803918537E+02  0.19291650703E+03  0.12700000000E+03 0.  0.
<mgrwt>
<rscale>  0 0.35846451E+03</rscale>
<asrwt>0</asrwt>
<pdfrwt beam="1">  1        2 0.18105007E-01 0.35846451E+03</pdfrwt>
<pdfrwt beam="2">  1       -2 0.36210754E-01 0.35846451E+03</pdfrwt>
<totfact> 0.22591384E+03</totfact>
</mgrwt>
</event>
<event>
 4    1  0.1361667E-004  0.3006836E+03  0.7818608E-02  0.1084899E+00
          2   -1    0    0  501    0  0.00000000000E+00  0.00000000000E+00  0.41622087640E+04  0.41622087640E+04  0.25500000000E-02 0.  1.
         -2   -1    0    0    0  501 -0.00000000000E+00 -0.00000000000E+00 -0.54304457052E+01  0.54304463039E+01  0.25500000000E-02 0. -1.
    5000001    1    1    2    0    0 -0.68106356738E+02  0.36865042149E+02  0.17759423211E+04  0.17821609453E+04  0.12700000000E+03 0.  0.
   -5000001    1    1    2    0    0  0.68106356738E+02 -0.36865042149E+02  0.23808359972E+04  0.23854782650E+04  0.12700000000E+03 0.  0.
<mgrwt>
<rscale>  0 0.30068355E+03</rscale>
<asrwt>0</asrwt>
<pdfrwt beam="1">  1        2 0.59460430E+00 0.30068355E+03</pdfrwt>
<pdfrwt beam="2">  1       -2 0.77577402E-03 0.30068355E+03</pdfrwt>
<totfact> 0.17325954E+03</totfact>
</mgrwt>
</event>
<event>
 4    1  0.1361667E-004  0.1071464E+04  0.7818608E-02  0.9233460E-01
          2   -1    0    0  501    0  0.00000000000E+00  0.00000000000E+00  0.14100960341E+04  0.14100960341E+04  0.25500000000E-02 0.  1.
         -2   -1    0    0    0  501 -0.00000000000E+00 -0.00000000000E+00 -0.20353833353E+03  0.20353833355E+03  0.25500000000E-02 0. -1.
    5000001    1    1    2    0    0  0.26618125132E+03 -0.37055596150E+03  0.98042948798E+03  0.10888228323E+04  0.12700000000E+03 0.  0.
   -5000001    1    1    2    0    0 -0.26618125132E+03  0.37055596150E+03  0.22612821260E+03  0.52481153540E+03  0.12700000000E+03 0.  0.
<mgrwt>
<rscale>  0 0.10714637E+04</rscale>
<asrwt>0</asrwt>
<pdfrwt beam="1">  1        2 0.20144230E+00 0.10714637E+04</pdfrwt>
<pdfrwt beam="2">  1       -2 0.29076904E-01 0.10714637E+04</pdfrwt>
<totfact> 0.17623963E+02</totfact>
</mgrwt>
</event>
<event>
 4    1  0.1361667E-004  0.3191469E+03  0.7818608E-02  0.1076043E+00
          2   -1    0    0  501    0  0.00000000000E+00  0.00000000000E+00  0.15483996299E+04  0.15483996299E+04  0.25500000000E-02 0.  1.
         -2   -1    0    0    0  501 -0.00000000000E+00 -0.00000000000E+00 -0.16445166802E+02  0.16445167000E+02  0.25500000000E-02 0. -1.
    5000001    1    1    2    0    0 -0.42150882840E+02 -0.78438147927E+02  0.94979536839E+03  0.96237699566E+03  0.12700000000E+03 0.  0.
   -5000001    1    1    2    0    0  0.42150882840E+02  0.78438147927E+02  0.58215909474E+03  0.60246780127E+03  0.12700000000E+03 0.  0.
<mgrwt>
<rscale>  0 0.31914693E+03</rscale>
<asrwt>0</asrwt>
<pdfrwt beam="1">  1        2 0.22119979E+00 0.31914693E+03</pdfrwt>
<pdfrwt beam="2">  1       -2 0.23493112E-02 0.31914693E+03</pdfrwt>
<totfact> 0.90135353E+03</totfact>
</mgrwt>
</event>
<event>
 4    1  0.1361667E-004  0.6763972E+03  0.7818608E-02  0.9758470E-01
         -2   -1    0    0    0  501 -0.00000000000E+00  0.00000000000E+00  0.53707340148E+02  0.53707340209E+02  0.25500000000E-02 0.  1.
          2   -1    0    0  501    0  0.00000000000E+00 -0.00000000000E+00 -0.21296587882E+04  0.21296587882E+04  0.25500000000E-02 0. -1.
    5000001    1    1    2    0    0 -0.24343592958E+03  0.19557560388E+03 -0.95025899060E+03  0.10082817155E+04  0.12700000000E+03 0.  0.
   -5000001    1    1    2    0    0  0.24343592958E+03 -0.19557560388E+03 -0.11256924574E+04  0.11750844129E+04  0.12700000000E+03 0.  0.
<mgrwt>
<rscale>  0 0.67639725E+03</rscale>
<asrwt>0</asrwt>
<pdfrwt beam="1">  1        2 0.30423692E+00 0.67639725E+03</pdfrwt>
<pdfrwt beam="2">  1       -2 0.76724785E-02 0.67639725E+03</pdfrwt>
<totfact> 0.74343713E+02</totfact>
</mgrwt>
</event>
<event>
 4    1  0.1361667E-004  0.4808503E+03  0.7818608E-02  0.1018902E+00
          2   -1    0    0  501    0  0.00000000000E+00  0.00000000000E+00  0.37202129299E+03  0.37202129299E+03  0.25500000000E-02 0.  1.
         -2   -1    0    0    0  501 -0.00000000000E+00 -0.00000000000E+00 -0.15537887511E+03  0.15537887513E+03  0.25500000000E-02 0. -1.
    5000001    1    1    2    0    0 -0.37705052142E+02  0.16998682066E+03  0.22521258188E+03  0.31171605219E+03  0.12700000000E+03 0.  0.
   -5000001    1    1    2    0    0  0.37705052142E+02 -0.16998682066E+03 -0.85701640062E+01  0.21568411594E+03  0.12700000000E+03 0.  0.
<mgrwt>
<rscale>  0 0.48085029E+03</rscale>
<asrwt>0</asrwt>
<pdfrwt beam="1">  1        2 0.53145898E-01 0.48085029E+03</pdfrwt>
<pdfrwt beam="2">  1       -2 0.22196982E-01 0.48085029E+03</pdfrwt>
<totfact> 0.16568849E+03</totfact>
</mgrwt>
</event>
<event>
 4    1  0.1361667E-004  0.3932408E+03  0.7818608E-02  0.1046146E+00
         -2   -1    0    0    0  501 -0.00000000000E+00  0.00000000000E+00  0.40401060400E+03  0.40401060401E+03  0.25500000000E-02 0. -1.
          2   -1    0    0  501    0  0.00000000000E+00 -0.00000000000E+00 -0.95689534863E+02  0.95689534897E+02  0.25500000000E-02 0.  1.
    5000001    1    1    2    0    0 -0.10740610814E+03  0.19828168038E+02  0.28499785183E+03  0.33057828704E+03  0.12700000000E+03 0.  0.
   -5000001    1    1    2    0    0  0.10740610814E+03 -0.19828168038E+02  0.23323217313E+02  0.16912185187E+03  0.12700000000E+03 0.  0.
<mgrwt>
<rscale>  0 0.39324083E+03</rscale>
<asrwt>0</asrwt>
<pdfrwt beam="1">  1        2 0.13669934E-01 0.39324083E+03</pdfrwt>
<pdfrwt beam="2">  1       -2 0.57715800E-01 0.39324083E+03</pdfrwt>
<totfact> 0.12589449E+03</totfact>
</mgrwt>
</event>
<event>
 4    1  0.1361667E-004  0.5378932E+03  0.7818608E-02  0.1004336E+00
          2   -1    0    0  501    0  0.00000000000E+00  0.00000000000E+00  0.10225065089E+04  0.10225065089E+04  0.25500000000E-02 0.  1.
         -2   -1    0    0    0  501 -0.00000000000E+00 -0.00000000000E+00 -0.70740148942E+02  0.70740148988E+02  0.25500000000E-02 0. -1.
    5000001    1    1    2    0    0  0.14829967109E+03  0.16623566019E+03  0.31106358687E+03  0.40313352905E+03  0.12700000000E+03 0.  0.
   -5000001    1    1    2    0    0 -0.14829967109E+03 -0.16623566019E+03  0.64070277309E+03  0.69011312885E+03  0.12700000000E+03 0.  0.
<mgrwt>
<rscale>  0 0.53789316E+03</rscale>
<asrwt>0</asrwt>
<pdfrwt beam="1">  1        2 0.14607235E+00 0.53789316E+03</pdfrwt>
<pdfrwt beam="2">  1       -2 0.10105736E-01 0.53789316E+03</pdfrwt>
<totfact> 0.18425718E+03</totfact>
</mgrwt>
</event>
<event>
 4    1  0.1361667E-004  0.7546318E+03  0.7818608E-02  0.9628112E-01
         -2   -1    0    0    0  501 -0.00000000000E+00  0.00000000000E+00  0.44971043307E+02  0.44971043380E+02  0.25500000000E-02 0. -1.
          2   -1    0    0  501    0  0.00000000000E+00 -0.00000000000E+00 -0.31657548417E+04  0.31657548417E+04  0.25500000000E-02 0.  1.
    5000001    1    1    2    0    0  0.19838752235E+03  0.80727313265E+02 -0.27665335568E+04  0.27777169455E+04  0.12700000000E+03 0.  0.
   -5000001    1    1    2    0    0 -0.19838752235E+03 -0.80727313265E+02 -0.35425024159E+03  0.43300893963E+03  0.12700000000E+03 0.  0.
<mgrwt>
<rscale>  0 0.75463183E+03</rscale>
<asrwt>0</asrwt>
<pdfrwt beam="1">  1        2 0.45225055E+00 0.75463183E+03</pdfrwt>
<pdfrwt beam="2">  1       -2 0.64244368E-02 0.75463183E+03</pdfrwt>
<totfact> 0.27870230E+02</totfact>
</mgrwt>
</event>
<event>
 4    1  0.1361667E-004  0.2731263E+03  0.7818608E-02  0.1099504E+00
         -2   -1    0    0    0  501 -0.00000000000E+00  0.00000000000E+00  0.10804185547E+02  0.10804185848E+02  0.25500000000E-02 0. -1.
          2   -1    0    0  501    0  0.00000000000E+00 -0.00000000000E+00 -0.17261365360E+04  0.17261365360E+04  0.25500000000E-02 0.  1.
    5000001    1    1    2    0    0 -0.28691469959E+02 -0.26820074532E+02 -0.65878804690E+03  0.67206637141E+03  0.12700000000E+03 0.  0.
   -5000001    1    1    2    0    0  0.28691469959E+02  0.26820074532E+02 -0.10565443036E+04  0.10648743505E+04  0.12700000000E+03 0.  0.
<mgrwt>
<rscale>  0 0.27312634E+03</rscale>
<asrwt>0</asrwt>
<pdfrwt beam="1">  1        2 0.24659076E+00 0.27312634E+03</pdfrwt>
<pdfrwt beam="2">  1       -2 0.15434562E-02 0.27312634E+03</pdfrwt>
<totfact> 0.13606186E+04</totfact>
</mgrwt>
</event>
<event>
 4    1  0.1361667E-004  0.2770023E+03  0.7818608E-02  0.1097338E+00
         -2   -1    0    0    0  501 -0.00000000000E+00  0.00000000000E+00  0.79260676349E+01  0.79260680451E+01  0.25500000000E-02 0. -1.
          2   -1    0    0  501    0  0.00000000000E+00 -0.00000000000E+00 -0.24201871708E+04  0.24201871708E+04  0.25500000000E-02 0.  1.
    5000001    1    1    2    0    0 -0.33936902764E+02 -0.40531456705E+02 -0.10650452222E+04  0.10738923771E+04  0.12700000000E+03 0.  0.
   -5000001    1    1    2    0    0  0.33936902764E+02  0.40531456705E+02 -0.13472158810E+04  0.13542208618E+04  0.12700000000E+03 0.  0.
<mgrwt>
<rscale>  0 0.27700229E+03</rscale>
<asrwt>0</asrwt>
<pdfrwt beam="1">  1        2 0.34574055E+00 0.27700229E+03</pdfrwt>
<pdfrwt beam="2">  1       -2 0.11322970E-02 0.27700229E+03</pdfrwt>
<totfact> 0.97771626E+03</totfact>
</mgrwt>
</event>
<event>
 4    1  0.1361667E-004  0.6033844E+03  0.7818608E-02  0.9898409E-01
         -2   -1    0    0    0  501 -0.00000000000E+00  0.00000000000E+00  0.46442335395E+02  0.46442335465E+02  0.25500000000E-02 0. -1.
          2   -1    0    0  501    0  0.00000000000E+00 -0.00000000000E+00 -0.19598105272E+04  0.19598105272E+04  0.25500000000E-02 0.  1.
    5000001    1    1    2    0    0  0.93265311372E+01  0.21650760255E+03 -0.15123337392E+04  0.15330508357E+04  0.12700000000E+03 0.  0.
   -5000001    1    1    2    0    0 -0.93265311372E+01 -0.21650760255E+03 -0.40103445263E+03  0.47320202698E+03  0.12700000000E+03 0.  0.
<mgrwt>
<rscale>  0 0.60338438E+03</rscale>
<asrwt>0</asrwt>
<pdfrwt beam="1">  1        2 0.27997288E+00 0.60338438E+03</pdfrwt>
<pdfrwt beam="2">  1       -2 0.66346206E-02 0.60338438E+03</pdfrwt>
<totfact> 0.11444578E+03</totfact>
</mgrwt>
</event>
<event>
 4    1  0.1361667E-004  0.5636843E+03  0.7818608E-02  0.9983753E-01
         -2   -1    0    0    0  501 -0.00000000000E+00  0.00000000000E+00  0.48545960192E+02  0.48545960259E+02  0.25500000000E-02 0. -1.
          2   -1    0    0  501    0  0.00000000000E+00 -0.00000000000E+00 -0.16362844993E+04  0.16362844993E+04  0.25500000000E-02 0.  1.
    5000001    1    1    2    0    0 -0.18803555414E+03 -0.10879722566E+03 -0.11732648215E+04  0.11999473102E+04  0.12700000000E+03 0.  0.
   -5000001    1    1    2    0    0  0.18803555414E+03  0.10879722566E+03 -0.41447371764E+03  0.48488314938E+03  0.12700000000E+03 0.  0.
<mgrwt>
<rscale>  0 0.56368432E+03</rscale>
<asrwt>0</asrwt>
<pdfrwt beam="1">  1        2 0.23375489E+00 0.56368432E+03</pdfrwt>
<pdfrwt beam="2">  1       -2 0.69351382E-02 0.56368432E+03</pdfrwt>
<totfact> 0.15578021E+03</totfact>
</mgrwt>
</event>
<event>
 4    1  0.1361667E-004  0.7203332E+03  0.7818608E-02  0.9683078E-01
         -2   -1    0    0    0  501 -0.00000000000E+00  0.00000000000E+00  0.10132913353E+03  0.10132913356E+03  0.25500000000E-02 0. -1.
          2   -1    0    0  501    0  0.00000000000E+00 -0.00000000000E+00 -0.12801845611E+04  0.12801845611E+04  0.25500000000E-02 0.  1.
    5000001    1    1    2    0    0  0.28985330708E+03  0.16756195586E+03 -0.51517216957E+03  0.62739406515E+03  0.12700000000E+03 0.  0.
   -5000001    1    1    2    0    0 -0.28985330708E+03 -0.16756195586E+03 -0.66368325801E+03  0.75411962953E+03  0.12700000000E+03 0.  0.
<mgrwt>
<rscale>  0 0.72033323E+03</rscale>
<asrwt>0</asrwt>
<pdfrwt beam="1">  1        2 0.18288350E+00 0.72033323E+03</pdfrwt>
<pdfrwt beam="2">  1       -2 0.14475591E-01 0.72033323E+03</pdfrwt>
<totfact> 0.72160392E+02</totfact>
</mgrwt>
</event>
<event>
 4    1  0.1361667E-004  0.4334641E+03  0.7818608E-02  0.1032771E+00
          2   -1    0    0  501    0  0.00000000000E+00  0.00000000000E+00  0.23316733997E+03  0.23316733998E+03  0.25500000000E-02 0.  1.
         -2   -1    0    0    0  501 -0.00000000000E+00 -0.00000000000E+00 -0.20145523804E+03  0.20145523806E+03  0.25500000000E-02 0. -1.
    5000001    1    1    2    0    0 -0.15528123881E+03  0.21267718340E+02 -0.63597151932E+02  0.21151401066E+03  0.12700000000E+03 0.  0.
   -5000001    1    1    2    0    0  0.15528123881E+03 -0.21267718340E+02  0.95309253861E+02  0.22310856739E+03  0.12700000000E+03 0.  0.
<mgrwt>
<rscale>  0 0.43346410E+03</rscale>
<asrwt>0</asrwt>
<pdfrwt beam="1">  1        2 0.33309620E-01 0.43346410E+03</pdfrwt>
<pdfrwt beam="2">  1       -2 0.28779319E-01 0.43346410E+03</pdfrwt>
<totfact> 0.17376121E+03</totfact>
</mgrwt>
</event>
<event>
 4    1  0.1361667E-004  0.2840232E+03  0.7818608E-02  0.1093512E+00
          2   -1    0    0  501    0  0.00000000000E+00  0.00000000000E+00  0.75126634847E+03  0.75126634847E+03  0.25500000000E-02 0.  1.
         -2   -1    0    0    0  501 -0.00000000000E+00 -0.00000000000E+00 -0.26844391636E+02  0.26844391757E+02  0.25500000000E-02 0. -1.
    5000001    1    1    2    0    0 -0.23210920105E+02 -0.50778052216E+02  0.44535830663E+03  0.46646562433E+03  0.12700000000E+03 0.  0.
   -5000001    1    1    2    0    0  0.23210920105E+02  0.50778052216E+02  0.27906365020E+03  0.31164511590E+03  0.12700000000E+03 0.  0.
<mgrwt>
<rscale>  0 0.28402315E+03</rscale>
<asrwt>0</asrwt>
<pdfrwt beam="1">  1        2 0.10732375E+00 0.28402315E+03</pdfrwt>
<pdfrwt beam="2">  1       -2 0.38349136E-02 0.28402315E+03</pdfrwt>
<totfact> 0.12307058E+04</totfact>
</mgrwt>
</event>
<event>
 4    1  0.1361667E-004  0.6254508E+03  0.7818608E-02  0.9853967E-01
          2   -1    0    0  501    0  0.00000000000E+00  0.00000000000E+00  0.68681223185E+03  0.68681223186E+03  0.25500000000E-02 0.  1.
         -2   -1    0    0    0  501 -0.00000000000E+00 -0.00000000000E+00 -0.14239286628E+03  0.14239286630E+03  0.25500000000E-02 0. -1.
    5000001    1    1    2    0    0  0.95743049501E+02 -0.23081886150E+03  0.88390145585E+02  0.29391477708E+03  0.12700000000E+03 0.  0.
   -5000001    1    1    2    0    0 -0.95743049501E+02  0.23081886150E+03  0.45602921999E+03  0.53529032107E+03  0.12700000000E+03 0.  0.
<mgrwt>
<rscale>  0 0.62545076E+03</rscale>
<asrwt>0</asrwt>
<pdfrwt beam="1">  1        2 0.98116034E-01 0.62545076E+03</pdfrwt>
<pdfrwt beam="2">  1       -2 0.20341838E-01 0.62545076E+03</pdfrwt>
<totfact> 0.95679175E+02</totfact>
</mgrwt>
</event>
<event>
 4    1  0.1361667E-004  0.6076817E+03  0.7818608E-02  0.9889596E-01
          2   -1    0    0  501    0  0.00000000000E+00  0.00000000000E+00  0.24573385208E+03  0.24573385209E+03  0.25500000000E-02 0.  1.
         -2   -1    0    0    0  501 -0.00000000000E+00 -0.00000000000E+00 -0.37568804591E+03  0.37568804591E+03  0.25500000000E-02 0. -1.
    5000001    1    1    2    0    0  0.40013195952E+02  0.27252651540E+03 -0.83227570245E+02  0.31452755984E+03  0.12700000000E+03 0.  0.
   -5000001    1    1    2    0    0 -0.40013195952E+02 -0.27252651540E+03 -0.46726623586E+02  0.30689433817E+03  0.12700000000E+03 0.  0.
<mgrwt>
<rscale>  0 0.60768173E+03</rscale>
<asrwt>0</asrwt>
<pdfrwt beam="1">  1        2 0.35104836E-01 0.60768173E+03</pdfrwt>
<pdfrwt beam="2">  1       -2 0.53669721E-01 0.60768173E+03</pdfrwt>
<totfact> 0.49160530E+02</totfact>
</mgrwt>
</event>
<event>
 4    1  0.1361667E-004  0.4588222E+03  0.7818608E-02  0.1025123E+00
         -2   -1    0    0    0  501 -0.00000000000E+00  0.00000000000E+00  0.34362310805E+02  0.34362310900E+02  0.25500000000E-02 0. -1.
          2   -1    0    0  501    0  0.00000000000E+00 -0.00000000000E+00 -0.15316040952E+04  0.15316040952E+04  0.25500000000E-02 0.  1.
    5000001    1    1    2    0    0 -0.17200470211E+03  0.72366946205E+02 -0.88842383961E+03  0.91665070296E+03  0.12700000000E+03 0.  0.
   -5000001    1    1    2    0    0  0.17200470211E+03 -0.72366946205E+02 -0.60881794475E+03  0.64931570311E+03  0.12700000000E+03 0.  0.
<mgrwt>
<rscale>  0 0.45882221E+03</rscale>
<asrwt>0</asrwt>
<pdfrwt beam="1">  1        2 0.21880054E+00 0.45882221E+03</pdfrwt>
<pdfrwt beam="2">  1       -2 0.49089025E-02 0.45882221E+03</pdfrwt>
<totfact> 0.30273070E+03</totfact>
</mgrwt>
</event>
<event>
 4    1  0.1361667E-004  0.5272795E+03  0.7818608E-02  0.1006894E+00
         -2   -1    0    0    0  501 -0.00000000000E+00  0.00000000000E+00  0.47893797794E+02  0.47893797862E+02  0.25500000000E-02 0.  1.
          2   -1    0    0  501    0  0.00000000000E+00 -0.00000000000E+00 -0.14512508766E+04  0.14512508766E+04  0.25500000000E-02 0. -1.
    5000001    1    1    2    0    0  0.99027171205E+02 -0.69676071617E+02 -0.12611097272E+04  0.12732587638E+04  0.12700000000E+03 0.  0.
   -5000001    1    1    2    0    0 -0.99027171205E+02  0.69676071617E+02 -0.14224735162E+03  0.22588591066E+03  0.12700000000E+03 0.  0.
<mgrwt>
<rscale>  0 0.52727949E+03</rscale>
<asrwt>0</asrwt>
<pdfrwt beam="1">  1        2 0.20732153E+00 0.52727949E+03</pdfrwt>
<pdfrwt beam="2">  1       -2 0.68419720E-02 0.52727949E+03</pdfrwt>
<totfact> 0.19850443E+03</totfact>
</mgrwt>
</event>
<event>
 4    1  0.1361667E-004  0.2914689E+03  0.7818608E-02  0.1089585E+00
         -2   -1    0    0    0  501 -0.00000000000E+00  0.00000000000E+00  0.41356237626E+02  0.41356237705E+02  0.25500000000E-02 0. -1.
          2   -1    0    0  501    0  0.00000000000E+00 -0.00000000000E+00 -0.51355070701E+03  0.51355070702E+03  0.25500000000E-02 0.  1.
    5000001    1    1    2    0    0 -0.20475283900E+02 -0.68289926215E+02 -0.22624616979E+03  0.26907077251E+03  0.12700000000E+03 0.  0.
   -5000001    1    1    2    0    0  0.20475283900E+02  0.68289926215E+02 -0.24594829960E+03  0.28583617222E+03  0.12700000000E+03 0.  0.
<mgrwt>
<rscale>  0 0.29146887E+03</rscale>
<asrwt>0</asrwt>
<pdfrwt beam="1">  1        2 0.73364383E-01 0.29146887E+03</pdfrwt>
<pdfrwt beam="2">  1       -2 0.59080343E-02 0.29146887E+03</pdfrwt>
<totfact> 0.99238173E+03</totfact>
</mgrwt>
</event>
<event>
 4    1  0.1361667E-004  0.5342254E+03  0.7818608E-02  0.1005213E+00
         -2   -1    0    0    0  501 -0.00000000000E+00  0.00000000000E+00  0.19567148109E+02  0.19567148276E+02  0.25500000000E-02 0. -1.
          2   -1    0    0  501    0  0.00000000000E+00 -0.00000000000E+00 -0.36463769956E+04  0.36463769956E+04  0.25500000000E-02 0.  1.
    5000001    1    1    2    0    0 -0.21695638620E+03 -0.49457612404E+02 -0.12951377239E+04  0.13202374229E+04  0.12700000000E+03 0.  0.
   -5000001    1    1    2    0    0  0.21695638620E+03  0.49457612404E+02 -0.23316721236E+04  0.23457067210E+04  0.12700000000E+03 0.  0.
<mgrwt>
<rscale>  0 0.53422542E+03</rscale>
<asrwt>0</asrwt>
<pdfrwt beam="1">  1        2 0.52091057E+00 0.53422542E+03</pdfrwt>
<pdfrwt beam="2">  1       -2 0.27953092E-02 0.53422542E+03</pdfrwt>
<totfact> 0.54041893E+02</totfact>
</mgrwt>
</event>
<event>
 4    1  0.1361667E-004  0.3202166E+03  0.7818608E-02  0.1075550E+00
         -2   -1    0    0    0  501 -0.00000000000E+00  0.00000000000E+00  0.31914937519E+02  0.31914937621E+02  0.25500000000E-02 0. -1.
          2   -1    0    0  501    0  0.00000000000E+00 -0.00000000000E+00 -0.80321840610E+03  0.80321840610E+03  0.25500000000E-02 0.  1.
    5000001    1    1    2    0    0 -0.81795120753E+02 -0.37305287855E+02 -0.28725137399E+03  0.32668712576E+03  0.12700000000E+03 0.  0.
   -5000001    1    1    2    0    0  0.81795120753E+02  0.37305287855E+02 -0.48405209459E+03  0.50844621796E+03  0.12700000000E+03 0.  0.
<mgrwt>
<rscale>  0 0.32021658E+03</rscale>
<asrwt>0</asrwt>
<pdfrwt beam="1">  1        2 0.11474547E+00 0.32021658E+03</pdfrwt>
<pdfrwt beam="2">  1       -2 0.45592773E-02 0.32021658E+03</pdfrwt>
<totfact> 0.87627259E+03</totfact>
</mgrwt>
</event>
<event>
 4    1  0.1361667E-004  0.4765209E+03  0.7818608E-02  0.1020096E+00
          2   -1    0    0  501    0  0.00000000000E+00  0.00000000000E+00  0.19756049006E+04  0.19756049006E+04  0.25500000000E-02 0.  1.
         -2   -1    0    0    0  501 -0.00000000000E+00 -0.00000000000E+00 -0.28734507910E+02  0.28734508024E+02  0.25500000000E-02 0. -1.
    5000001    1    1    2    0    0  0.15963293826E+01  0.19754652968E+03  0.11423051326E+04  0.11661977515E+04  0.12700000000E+03 0.  0.
   -5000001    1    1    2    0    0 -0.15963293826E+01 -0.19754652968E+03  0.80456526009E+03  0.83814165712E+03  0.12700000000E+03 0.  0.
<mgrwt>
<rscale>  0 0.47652087E+03</rscale>
<asrwt>0</asrwt>
<pdfrwt beam="1">  1        2 0.28222922E+00 0.47652087E+03</pdfrwt>
<pdfrwt beam="2">  1       -2 0.41049304E-02 0.47652087E+03</pdfrwt>
<totfact> 0.23805479E+03</totfact>
</mgrwt>
</event>
<event>
 4    1  0.1361667E-004  0.2893084E+03  0.7818608E-02  0.1090711E+00
          2   -1    0    0  501    0  0.00000000000E+00  0.00000000000E+00  0.16159975850E+04  0.16159975850E+04  0.25500000000E-02 0.  1.
         -2   -1    0    0    0  501 -0.00000000000E+00 -0.00000000000E+00 -0.12948561781E+02  0.12948562032E+02  0.25500000000E-02 0. -1.
    5000001    1    1    2    0    0 -0.63432055878E+01 -0.66855836864E+02  0.89672889270E+03  0.90816388729E+03  0.12700000000E+03 0.  0.
   -5000001    1    1    2    0    0  0.63432055878E+01  0.66855836864E+02  0.70632013048E+03  0.72078225970E+03  0.12700000000E+03 0.  0.
<mgrwt>
<rscale>  0 0.28930845E+03</rscale>
<asrwt>0</asrwt>
<pdfrwt beam="1">  1        2 0.23085675E+00 0.28930845E+03</pdfrwt>
<pdfrwt beam="2">  1       -2 0.18497950E-02 0.28930845E+03</pdfrwt>
<totfact> 0.11844473E+04</totfact>
</mgrwt>
</event>
<event>
 4    1  0.1361667E-004  0.5231998E+03  0.7818608E-02  0.1007895E+00
         -2   -1    0    0    0  501 -0.00000000000E+00  0.00000000000E+00  0.76685062838E+03  0.76685062839E+03  0.25500000000E-02 0. -1.
          2   -1    0    0  501    0  0.00000000000E+00 -0.00000000000E+00 -0.89240994881E+02  0.89240994918E+02  0.25500000000E-02 0.  1.
    5000001    1    1    2    0    0  0.53156066296E+02  0.17642564466E+03  0.56048010715E+03  0.60350519964E+03  0.12700000000E+03 0.  0.
   -5000001    1    1    2    0    0 -0.53156066296E+02 -0.17642564466E+03  0.11712952635E+03  0.25258642367E+03  0.12700000000E+03 0.  0.
<mgrwt>
<rscale>  0 0.52319982E+03</rscale>
<asrwt>0</asrwt>
<pdfrwt beam="1">  1        2 0.12748714E-01 0.52319982E+03</pdfrwt>
<pdfrwt beam="2">  1       -2 0.10955009E+00 0.52319982E+03</pdfrwt>
<totfact> 0.32886117E+02</totfact>
</mgrwt>
</event>
<event>
 4    1  0.1361667E-004  0.4409852E+03  0.7818608E-02  0.1030445E+00
         -2   -1    0    0    0  501 -0.00000000000E+00  0.00000000000E+00  0.53177946034E+02  0.53177946095E+02  0.25500000000E-02 0. -1.
          2   -1    0    0  501    0  0.00000000000E+00 -0.00000000000E+00 -0.91423207214E+03  0.91423207215E+03  0.25500000000E-02 0.  1.
    5000001    1    1    2    0    0  0.15817419274E+03  0.82373009603E+02 -0.48788404522E+03  0.53475623375E+03  0.12700000000E+03 0.  0.
   -5000001    1    1    2    0    0 -0.15817419274E+03 -0.82373009603E+02 -0.37317008089E+03  0.43265378449E+03  0.12700000000E+03 0.  0.
<mgrwt>
<rscale>  0 0.44098519E+03</rscale>
<asrwt>0</asrwt>
<pdfrwt beam="1">  1        2 0.13060457E+00 0.44098519E+03</pdfrwt>
<pdfrwt beam="2">  1       -2 0.75968500E-02 0.44098519E+03</pdfrwt>
<totfact> 0.33874107E+03</totfact>
</mgrwt>
</event>
<event>
 4    1  0.1361667E-004  0.4867739E+03  0.7818608E-02  0.1017290E+00
         -2   -1    0    0    0  501 -0.00000000000E+00  0.00000000000E+00  0.28540664710E+03  0.28540664711E+03  0.25500000000E-02 0. -1.
          2   -1    0    0  501    0  0.00000000000E+00 -0.00000000000E+00 -0.20755372309E+03  0.20755372311E+03  0.25500000000E-02 0.  1.
    5000001    1    1    2    0    0  0.15312724662E+03  0.11815149202E+03  0.11538756371E+03  0.25855563924E+03  0.12700000000E+03 0.  0.
   -5000001    1    1    2    0    0 -0.15312724662E+03 -0.11815149202E+03 -0.37534639702E+02  0.23440473098E+03  0.12700000000E+03 0.  0.
<mgrwt>
<rscale>  0 0.48677392E+03</rscale>
<asrwt>0</asrwt>
<pdfrwt beam="1">  1        2 0.29650532E-01 0.48677392E+03</pdfrwt>
<pdfrwt beam="2">  1       -2 0.40772378E-01 0.48677392E+03</pdfrwt>
<totfact> 0.10283818E+03</totfact>
</mgrwt>
</event>
<event>
 4    1  0.1361667E-004  0.4225287E+03  0.7818608E-02  0.1036246E+00
          2   -1    0    0  501    0  0.00000000000E+00  0.00000000000E+00  0.67795283377E+03  0.67795283377E+03  0.25500000000E-02 0.  1.
         -2   -1    0    0    0  501 -0.00000000000E+00 -0.00000000000E+00 -0.65834406174E+02  0.65834406224E+02  0.25500000000E-02 0. -1.
    5000001    1    1    2    0    0 -0.48214222643E+02  0.14112754896E+03  0.16675958592E+03  0.25725348557E+03  0.12700000000E+03 0.  0.
   -5000001    1    1    2    0    0  0.48214222643E+02 -0.14112754896E+03  0.44535884167E+03  0.48653375443E+03  0.12700000000E+03 0.  0.
<mgrwt>
<rscale>  0 0.42252868E+03</rscale>
<asrwt>0</asrwt>
<pdfrwt beam="1">  1        2 0.96850397E-01 0.42252868E+03</pdfrwt>
<pdfrwt beam="2">  1       -2 0.94049160E-02 0.42252868E+03</pdfrwt>
<totfact> 0.35140820E+03</totfact>
</mgrwt>
</event>
<event>
 4    1  0.1361667E-004  0.3457386E+03  0.7818608E-02  0.1064378E+00
          2   -1    0    0  501    0  0.00000000000E+00  0.00000000000E+00  0.12079939558E+04  0.12079939558E+04  0.25500000000E-02 0.  1.
         -2   -1    0    0    0  501 -0.00000000000E+00 -0.00000000000E+00 -0.24738357978E+02  0.24738358109E+02  0.25500000000E-02 0. -1.
    5000001    1    1    2    0    0 -0.11553739332E+03 -0.18585193176E+02  0.56389735734E+03  0.58974869926E+03  0.12700000000E+03 0.  0.
   -5000001    1    1    2    0    0  0.11553739332E+03  0.18585193176E+02  0.61935824047E+03  0.64298361464E+03  0.12700000000E+03 0.  0.
<mgrwt>
<rscale>  0 0.34573855E+03</rscale>
<asrwt>0</asrwt>
<pdfrwt beam="1">  1        2 0.17257056E+00 0.34573855E+03</pdfrwt>
<pdfrwt beam="2">  1       -2 0.35340512E-02 0.34573855E+03</pdfrwt>
<totfact> 0.73842263E+03</totfact>
</mgrwt>
</event>
<event>
 4    1  0.1361667E-004  0.4626857E+03  0.7818608E-02  0.1024005E+00
         -2   -1    0    0    0  501 -0.00000000000E+00  0.00000000000E+00  0.59978964017E+02  0.59978964071E+02  0.25500000000E-02 0. -1.
          2   -1    0    0  501    0  0.00000000000E+00 -0.00000000000E+00 -0.89230475228E+03  0.89230475228E+03  0.25500000000E-02 0.  1.
    5000001    1    1    2    0    0  0.16253283196E+03 -0.10231339804E+03 -0.36988566012E+03  0.43569410651E+03  0.12700000000E+03 0.  0.
   -5000001    1    1    2    0    0 -0.16253283196E+03  0.10231339804E+03 -0.46244012814E+03  0.51658960984E+03  0.12700000000E+03 0.  0.
<mgrwt>
<rscale>  0 0.46268570E+03</rscale>
<asrwt>0</asrwt>
<pdfrwt beam="1">  1        2 0.12747210E+00 0.46268570E+03</pdfrwt>
<pdfrwt beam="2">  1       -2 0.85684240E-02 0.46268570E+03</pdfrwt>
<totfact> 0.28919157E+03</totfact>
</mgrwt>
</event>
<event>
 4    1  0.1361667E-004  0.3928902E+03  0.7818608E-02  0.1046270E+00
          2   -1    0    0  501    0  0.00000000000E+00  0.00000000000E+00  0.44668692557E+03  0.44668692558E+03  0.25500000000E-02 0.  1.
         -2   -1    0    0    0  501 -0.00000000000E+00 -0.00000000000E+00 -0.86393121291E+02  0.86393121328E+02  0.25500000000E-02 0. -1.
    5000001    1    1    2    0    0  0.58928481962E+02 -0.10903643626E+03  0.29447566938E+03  0.34381162033E+03  0.12700000000E+03 0.  0.
   -5000001    1    1    2    0    0 -0.58928481962E+02  0.10903643626E+03  0.65818134906E+02  0.18926842658E+03  0.12700000000E+03 0.  0.
<mgrwt>
<rscale>  0 0.39289020E+03</rscale>
<asrwt>0</asrwt>
<pdfrwt beam="1">  1        2 0.63812419E-01 0.39289020E+03</pdfrwt>
<pdfrwt beam="2">  1       -2 0.12341874E-01 0.39289020E+03</pdfrwt>
<totfact> 0.36464009E+03</totfact>
</mgrwt>
</event>
<event>
 4    1  0.1361667E-004  0.5838240E+03  0.7818608E-02  0.9939546E-01
         -2   -1    0    0    0  501 -0.00000000000E+00  0.00000000000E+00  0.70437387717E+02  0.70437387763E+02  0.25500000000E-02 0. -1.
          2   -1    0    0  501    0  0.00000000000E+00 -0.00000000000E+00 -0.12097640797E+04  0.12097640797E+04  0.25500000000E-02 0.  1.
    5000001    1    1    2    0    0  0.11563353674E+03 -0.11575000640E+03 -0.10207299508E+04  0.10415314739E+04  0.12700000000E+03 0.  0.
   -5000001    1    1    2    0    0 -0.11563353674E+03  0.11575000640E+03 -0.11859674127E+03  0.23866999359E+03  0.12700000000E+03 0.  0.
<mgrwt>
<rscale>  0 0.58382402E+03</rscale>
<asrwt>0</asrwt>
<pdfrwt beam="1">  1        2 0.17282343E+00 0.58382402E+03</pdfrwt>
<pdfrwt beam="2">  1       -2 0.10062485E-01 0.58382402E+03</pdfrwt>
<totfact> 0.14453434E+03</totfact>
</mgrwt>
</event>
<event>
 4    1  0.1361667E-004  0.5678037E+03  0.7818608E-02  0.9974551E-01
         -2   -1    0    0    0  501 -0.00000000000E+00  0.00000000000E+00  0.93016534978E+02  0.93016535013E+02  0.25500000000E-02 0. -1.
          2   -1    0    0  501    0  0.00000000000E+00 -0.00000000000E+00 -0.86651542148E+03  0.86651542149E+03  0.25500000000E-02 0.  1.
    5000001    1    1    2    0    0  0.24552090425E+03  0.63078858350E+02 -0.36215542079E+03  0.45994021960E+03  0.12700000000E+03 0.  0.
   -5000001    1    1    2    0    0 -0.24552090425E+03 -0.63078858350E+02 -0.41134346571E+03  0.49959173690E+03  0.12700000000E+03 0.  0.
<mgrwt>
<rscale>  0 0.56780371E+03</rscale>
<asrwt>0</asrwt>
<pdfrwt beam="1">  1        2 0.12378791E+00 0.56780371E+03</pdfrwt>
<pdfrwt beam="2">  1       -2 0.13288077E-01 0.56780371E+03</pdfrwt>
<totfact> 0.14734281E+03</totfact>
</mgrwt>
</event>
<event>
 4    1  0.1361667E-004  0.1155695E+04  0.7818608E-02  0.9152545E-01
         -2   -1    0    0    0  501 -0.00000000000E+00  0.00000000000E+00  0.17272028543E+03  0.17272028545E+03  0.25500000000E-02 0. -1.
          2   -1    0    0  501    0  0.00000000000E+00 -0.00000000000E+00 -0.19332295086E+04  0.19332295086E+04  0.25500000000E-02 0.  1.
    5000001    1    1    2    0    0 -0.67673951857E+01  0.52621278862E+03 -0.51203099246E+03  0.74515128248E+03  0.12700000000E+03 0.  0.
   -5000001    1    1    2    0    0  0.67673951857E+01 -0.52621278862E+03 -0.12484782307E+04  0.13607985116E+04  0.12700000000E+03 0.  0.
<mgrwt>
<rscale>  0 0.11556954E+04</rscale>
<asrwt>0</asrwt>
<pdfrwt beam="1">  1        2 0.27617563E+00 0.11556954E+04</pdfrwt>
<pdfrwt beam="2">  1       -2 0.24674328E-01 0.11556954E+04</pdfrwt>
<totfact> 0.12627804E+02</totfact>
</mgrwt>
</event>
<event>
 4    1  0.1361667E-004  0.6532646E+03  0.7818608E-02  0.9800673E-01
         -2   -1    0    0    0  501 -0.00000000000E+00  0.00000000000E+00  0.65356298745E+02  0.65356298795E+02  0.25500000000E-02 0.  1.
          2   -1    0    0  501    0  0.00000000000E+00 -0.00000000000E+00 -0.16324156789E+04  0.16324156789E+04  0.25500000000E-02 0. -1.
    5000001    1    1    2    0    0 -0.23531108823E+03  0.18279125361E+03 -0.67401444143E+03  0.74780239228E+03  0.12700000000E+03 0.  0.
   -5000001    1    1    2    0    0  0.23531108823E+03 -0.18279125361E+03 -0.89304493874E+03  0.94996958543E+03  0.12700000000E+03 0.  0.
<mgrwt>
<rscale>  0 0.65326456E+03</rscale>
<asrwt>0</asrwt>
<pdfrwt beam="1">  1        2 0.23320221E+00 0.65326456E+03</pdfrwt>
<pdfrwt beam="2">  1       -2 0.93366152E-02 0.65326456E+03</pdfrwt>
<totfact> 0.97022066E+02</totfact>
</mgrwt>
</event>
<event>
 4    1  0.1361667E-004  0.2908455E+03  0.7818608E-02  0.1089909E+00
         -2   -1    0    0    0  501 -0.00000000000E+00  0.00000000000E+00  0.35057145887E+03  0.35057145888E+03  0.25500000000E-02 0. -1.
          2   -1    0    0  501    0  0.00000000000E+00 -0.00000000000E+00 -0.60323709661E+02  0.60323709714E+02  0.25500000000E-02 0.  1.
    5000001    1    1    2    0    0  0.34137679556E+02  0.34269383215E+02  0.72000701969E+02  0.15379490523E+03  0.12700000000E+03 0.  0.
   -5000001    1    1    2    0    0 -0.34137679556E+02 -0.34269383215E+02  0.21824704724E+03  0.25710026336E+03  0.12700000000E+03 0.  0.
<mgrwt>
<rscale>  0 0.29084546E+03</rscale>
<asrwt>0</asrwt>
<pdfrwt beam="1">  1        2 0.86176728E-02 0.29084546E+03</pdfrwt>
<pdfrwt beam="2">  1       -2 0.50081637E-01 0.29084546E+03</pdfrwt>
<totfact> 0.29571875E+03</totfact>
</mgrwt>
</event>
<event>
 4    1  0.1361667E-004  0.7021272E+03  0.7818608E-02  0.9713601E-01
          2   -1    0    0  501    0  0.00000000000E+00  0.00000000000E+00  0.30951857406E+03  0.30951857407E+03  0.25500000000E-02 0.  1.
         -2   -1    0    0    0  501 -0.00000000000E+00 -0.00000000000E+00 -0.39818493879E+03  0.39818493880E+03  0.25500000000E-02 0. -1.
    5000001    1    1    2    0    0 -0.30144124717E+03 -0.22427916142E+02  0.82149685819E+02  0.33800504108E+03  0.12700000000E+03 0.  0.
   -5000001    1    1    2    0    0  0.30144124717E+03  0.22427916142E+02 -0.17081605054E+03  0.36969847179E+03  0.12700000000E+03 0.  0.
<mgrwt>
<rscale>  0 0.70212715E+03</rscale>
<asrwt>0</asrwt>
<pdfrwt beam="1">  1        2 0.44216939E-01 0.70212715E+03</pdfrwt>
<pdfrwt beam="2">  1       -2 0.56883562E-01 0.70212715E+03</pdfrwt>
<totfact> 0.33666373E+02</totfact>
</mgrwt>
</event>
<event>
 4    1  0.1361667E-004  0.3178079E+03  0.7818608E-02  0.1076663E+00
         -2   -1    0    0    0  501 -0.00000000000E+00  0.00000000000E+00  0.24796634530E+02  0.24796634661E+02  0.25500000000E-02 0. -1.
          2   -1    0    0  501    0  0.00000000000E+00 -0.00000000000E+00 -0.10183019082E+04  0.10183019082E+04  0.25500000000E-02 0.  1.
    5000001    1    1    2    0    0  0.10571841523E+02  0.94909258017E+02 -0.49219380551E+03  0.51720718602E+03  0.12700000000E+03 0.  0.
   -5000001    1    1    2    0    0 -0.10571841523E+02 -0.94909258017E+02 -0.50131146813E+03  0.52589135681E+03  0.12700000000E+03 0.  0.
<mgrwt>
<rscale>  0 0.31780787E+03</rscale>
<asrwt>0</asrwt>
<pdfrwt beam="1">  1        2 0.14547168E+00 0.31780787E+03</pdfrwt>
<pdfrwt beam="2">  1       -2 0.35423770E-02 0.31780787E+03</pdfrwt>
<totfact> 0.94026489E+03</totfact>
</mgrwt>
</event>
<event>
 4    1  0.1361667E-004  0.3506640E+03  0.7818608E-02  0.1062343E+00
         -2   -1    0    0    0  501 -0.00000000000E+00  0.00000000000E+00  0.51366012702E+02  0.51366012765E+02  0.25500000000E-02 0. -1.
          2   -1    0    0  501    0  0.00000000000E+00 -0.00000000000E+00 -0.59847571350E+03  0.59847571351E+03  0.25500000000E-02 0.  1.
    5000001    1    1    2    0    0 -0.99370079184E+02 -0.27903998502E+02 -0.39016160545E+03  0.42309351701E+03  0.12700000000E+03 0.  0.
   -5000001    1    1    2    0    0  0.99370079184E+02  0.27903998502E+02 -0.15694809535E+03  0.22674820926E+03  0.12700000000E+03 0.  0.
<mgrwt>
<rscale>  0 0.35066401E+03</rscale>
<asrwt>0</asrwt>
<pdfrwt beam="1">  1        2 0.85496527E-01 0.35066401E+03</pdfrwt>
<pdfrwt beam="2">  1       -2 0.73380022E-02 0.35066401E+03</pdfrwt>
<totfact> 0.60006301E+03</totfact>
</mgrwt>
</event>
<event>
 4    1  0.1361667E-004  0.7834170E+03  0.7818608E-02  0.9584335E-01
          2   -1    0    0  501    0  0.00000000000E+00  0.00000000000E+00  0.26817277703E+03  0.26817277705E+03  0.25500000000E-02 0.  1.
         -2   -1    0    0    0  501 -0.00000000000E+00 -0.00000000000E+00 -0.57215182674E+03  0.57215182675E+03  0.25500000000E-02 0. -1.
    5000001    1    1    2    0    0  0.43210565632E+01  0.36945132693E+03 -0.12177247049E+03  0.40923158366E+03  0.12700000000E+03 0.  0.
   -5000001    1    1    2    0    0 -0.43210565632E+01 -0.36945132693E+03 -0.18220657921E+03  0.43109302013E+03  0.12700000000E+03 0.  0.
<mgrwt>
<rscale>  0 0.78341699E+03</rscale>
<asrwt>0</asrwt>
<pdfrwt beam="1">  1        2 0.38310397E-01 0.78341699E+03</pdfrwt>
<pdfrwt beam="2">  1       -2 0.81735975E-01 0.78341699E+03</pdfrwt>
<totfact> 0.17938284E+02</totfact>
</mgrwt>
</event>
<event>
 4    1  0.1361667E-004  0.5912686E+03  0.7818608E-02  0.9923688E-01
         -2   -1    0    0    0  501 -0.00000000000E+00  0.00000000000E+00  0.20865687717E+02  0.20865687872E+02  0.25500000000E-02 0. -1.
          2   -1    0    0  501    0  0.00000000000E+00 -0.00000000000E+00 -0.41886772380E+04  0.41886772380E+04  0.25500000000E-02 0.  1.
    5000001    1    1    2    0    0 -0.25112188925E+03  0.65624086492E+02 -0.25286277943E+04  0.25450847228E+04  0.12700000000E+03 0.  0.
   -5000001    1    1    2    0    0  0.25112188925E+03 -0.65624086492E+02 -0.16391837560E+04  0.16644582031E+04  0.12700000000E+03 0.  0.
<mgrwt>
<rscale>  0 0.59126857E+03</rscale>
<asrwt>0</asrwt>
<pdfrwt beam="1">  1        2 0.59838193E+00 0.59126857E+03</pdfrwt>
<pdfrwt beam="2">  1       -2 0.29808152E-02 0.59126857E+03</pdfrwt>
<totfact> 0.21505918E+02</totfact>
</mgrwt>
</event>
<event>
 4    1  0.1361667E-004  0.3401448E+03  0.7818608E-02  0.1066734E+00
         -2   -1    0    0    0  501 -0.00000000000E+00  0.00000000000E+00  0.37640755766E+02  0.37640755853E+02  0.25500000000E-02 0. -1.
          2   -1    0    0  501    0  0.00000000000E+00 -0.00000000000E+00 -0.76843878935E+03  0.76843878936E+03  0.25500000000E-02 0.  1.
    5000001    1    1    2    0    0 -0.62592190224E+02 -0.87117901900E+02 -0.28033937189E+03  0.32592403186E+03  0.12700000000E+03 0.  0.
   -5000001    1    1    2    0    0  0.62592190224E+02  0.87117901900E+02 -0.45045866170E+03  0.48015551336E+03  0.12700000000E+03 0.  0.
<mgrwt>
<rscale>  0 0.34014477E+03</rscale>
<asrwt>0</asrwt>
<pdfrwt beam="1">  1        2 0.10977696E+00 0.34014477E+03</pdfrwt>
<pdfrwt beam="2">  1       -2 0.53772513E-02 0.34014477E+03</pdfrwt>
<totfact> 0.72080008E+03</totfact>
</mgrwt>
</event>
<event>
 4    1  0.1361667E-004  0.3864651E+03  0.7818608E-02  0.1048570E+00
         -2   -1    0    0    0  501 -0.00000000000E+00  0.00000000000E+00  0.21263680876E+02  0.21263681029E+02  0.25500000000E-02 0. -1.
          2   -1    0    0  501    0  0.00000000000E+00 -0.00000000000E+00 -0.17559901069E+04  0.17559901069E+04  0.25500000000E-02 0.  1.
    5000001    1    1    2    0    0  0.13431980190E+03  0.45561703420E+02 -0.71538636354E+03  0.74028665201E+03  0.12700000000E+03 0.  0.
   -5000001    1    1    2    0    0 -0.13431980190E+03 -0.45561703420E+02 -0.10193400625E+04  0.10369671359E+04  0.12700000000E+03 0.  0.
<mgrwt>
<rscale>  0 0.38646507E+03</rscale>
<asrwt>0</asrwt>
<pdfrwt beam="1">  1        2 0.25085564E+00 0.38646507E+03</pdfrwt>
<pdfrwt beam="2">  1       -2 0.30376698E-02 0.38646507E+03</pdfrwt>
<totfact> 0.48417555E+03</totfact>
</mgrwt>
</event>
<event>
 4    1  0.1361667E-004  0.3483033E+03  0.7818608E-02  0.1063314E+00
          2   -1    0    0  501    0  0.00000000000E+00  0.00000000000E+00  0.29900000847E+03  0.29900000848E+03  0.25500000000E-02 0.  1.
         -2   -1    0    0    0  501 -0.00000000000E+00 -0.00000000000E+00 -0.10143408011E+03  0.10143408014E+03  0.25500000000E-02 0. -1.
    5000001    1    1    2    0    0  0.98552636887E+02 -0.66885357524E+02  0.94556061985E+02  0.19813157786E+03  0.12700000000E+03 0.  0.
   -5000001    1    1    2    0    0 -0.98552636887E+02  0.66885357524E+02  0.10300986638E+03  0.20230251076E+03  0.12700000000E+03 0.  0.
<mgrwt>
<rscale>  0 0.34830326E+03</rscale>
<asrwt>0</asrwt>
<pdfrwt beam="1">  1        2 0.42714287E-01 0.34830326E+03</pdfrwt>
<pdfrwt beam="2">  1       -2 0.14490583E-01 0.34830326E+03</pdfrwt>
<totfact> 0.43282787E+03</totfact>
</mgrwt>
</event>
<event>
 4    1  0.1361667E-004  0.3646256E+03  0.7818608E-02  0.1056767E+00
         -2   -1    0    0    0  501 -0.00000000000E+00  0.00000000000E+00  0.11486189627E+02  0.11486189910E+02  0.25500000000E-02 0. -1.
          2   -1    0    0  501    0  0.00000000000E+00 -0.00000000000E+00 -0.28937323661E+04  0.28937323661E+04  0.25500000000E-02 0.  1.
    5000001    1    1    2    0    0  0.24359166391E+02  0.12851064849E+03 -0.14473119522E+04  0.14587492049E+04  0.12700000000E+03 0.  0.
   -5000001    1    1    2    0    0 -0.24359166391E+02 -0.12851064849E+03 -0.14349342242E+04  0.14464693511E+04  0.12700000000E+03 0.  0.
<mgrwt>
<rscale>  0 0.36462561E+03</rscale>
<asrwt>0</asrwt>
<pdfrwt beam="1">  1        2 0.41338987E+00 0.36462561E+03</pdfrwt>
<pdfrwt beam="2">  1       -2 0.16408861E-02 0.36462561E+03</pdfrwt>
<totfact> 0.32462083E+03</totfact>
</mgrwt>
</event>
<event>
 4    1  0.1361667E-004  0.2674501E+04  0.7818608E-02  0.8343326E-01
         -2   -1    0    0    0  501 -0.00000000000E+00  0.00000000000E+00  0.59366307202E+03  0.59366307202E+03  0.25500000000E-02 0. -1.
          2   -1    0    0  501    0  0.00000000000E+00 -0.00000000000E+00 -0.30122109529E+04  0.30122109529E+04  0.25500000000E-02 0.  1.
    5000001    1    1    2    0    0  0.47156557986E+01  0.12794899012E+04 -0.17046363976E+04  0.21351887253E+04  0.12700000000E+03 0.  0.
   -5000001    1    1    2    0    0 -0.47156557986E+01 -0.12794899012E+04 -0.71391148334E+03  0.14706852997E+04  0.12700000000E+03 0.  0.
<mgrwt>
<rscale>  0 0.26745006E+04</rscale>
<asrwt>0</asrwt>
<pdfrwt beam="1">  1        2 0.43031584E+00 0.26745006E+04</pdfrwt>
<pdfrwt beam="2">  1       -2 0.84809012E-01 0.26745006E+04</pdfrwt>
<totfact> 0.24857069E+00</totfact>
</mgrwt>
</event>
<event>
 4    1  0.1361667E-004  0.3123117E+03  0.7818608E-02  0.1079243E+00
         -2   -1    0    0    0  501 -0.00000000000E+00  0.00000000000E+00  0.27704795122E+02  0.27704795239E+02  0.25500000000E-02 0. -1.
          2   -1    0    0  501    0  0.00000000000E+00 -0.00000000000E+00 -0.88015965947E+03  0.88015965947E+03  0.25500000000E-02 0.  1.
    5000001    1    1    2    0    0  0.12825947469E+02  0.83864386449E+02 -0.52077616427E+03  0.54271037719E+03  0.12700000000E+03 0.  0.
   -5000001    1    1    2    0    0 -0.12825947469E+02 -0.83864386449E+02 -0.33167870008E+03  0.36515407752E+03  0.12700000000E+03 0.  0.
<mgrwt>
<rscale>  0 0.31231166E+03</rscale>
<asrwt>0</asrwt>
<pdfrwt beam="1">  1        2 0.12573708E+00 0.31231166E+03</pdfrwt>
<pdfrwt beam="2">  1       -2 0.39578284E-02 0.31231166E+03</pdfrwt>
<totfact> 0.96588274E+03</totfact>
</mgrwt>
</event>
<event>
 4    1  0.1361667E-004  0.3192344E+03  0.7818608E-02  0.1076002E+00
         -2   -1    0    0    0  501 -0.00000000000E+00  0.00000000000E+00  0.48222811169E+02  0.48222811236E+02  0.25500000000E-02 0. -1.
          2   -1    0    0  501    0  0.00000000000E+00 -0.00000000000E+00 -0.52833184292E+03  0.52833184293E+03  0.25500000000E-02 0.  1.
    5000001    1    1    2    0    0 -0.17216270054E+02  0.94073008309E+02 -0.21435290393E+03  0.26687506116E+03  0.12700000000E+03 0.  0.
   -5000001    1    1    2    0    0  0.17216270054E+02 -0.94073008309E+02 -0.26575612783E+03  0.30967959301E+03  0.12700000000E+03 0.  0.
<mgrwt>
<rscale>  0 0.31923438E+03</rscale>
<asrwt>0</asrwt>
<pdfrwt beam="1">  1        2 0.75475974E-01 0.31923438E+03</pdfrwt>
<pdfrwt beam="2">  1       -2 0.68889733E-02 0.31923438E+03</pdfrwt>
<totfact> 0.76082102E+03</totfact>
</mgrwt>
</event>
<event>
 4    1  0.1361667E-004  0.6257421E+03  0.7818608E-02  0.9853393E-01
          2   -1    0    0  501    0  0.00000000000E+00  0.00000000000E+00  0.11066554853E+04  0.11066554853E+04  0.25500000000E-02 0.  1.
         -2   -1    0    0    0  501 -0.00000000000E+00 -0.00000000000E+00 -0.88454182737E+02  0.88454182774E+02  0.25500000000E-02 0. -1.
    5000001    1    1    2    0    0 -0.13696927674E+03  0.22804820027E+03  0.70934735532E+03  0.76815964156E+03  0.12700000000E+03 0.  0.
   -5000001    1    1    2    0    0  0.13696927674E+03 -0.22804820027E+03  0.30885394723E+03  0.42695002651E+03  0.12700000000E+03 0.  0.
<mgrwt>
<rscale>  0 0.62574214E+03</rscale>
<asrwt>0</asrwt>
<pdfrwt beam="1">  1        2 0.15809363E+00 0.62574214E+03</pdfrwt>
<pdfrwt beam="2">  1       -2 0.12636313E-01 0.62574214E+03</pdfrwt>
<totfact> 0.11381322E+03</totfact>
</mgrwt>
</event>
<event>
 4    1  0.1361667E-004  0.3630239E+03  0.7818608E-02  0.1057393E+00
         -2   -1    0    0    0  501 -0.00000000000E+00  0.00000000000E+00  0.33753323611E+02  0.33753323707E+02  0.25500000000E-02 0. -1.
          2   -1    0    0  501    0  0.00000000000E+00 -0.00000000000E+00 -0.97609900946E+03  0.97609900946E+03  0.25500000000E-02 0.  1.
    5000001    1    1    2    0    0 -0.83787106620E+02 -0.53074477630E+02 -0.70358723774E+03  0.72180411506E+03  0.12700000000E+03 0.  0.
   -5000001    1    1    2    0    0  0.83787106620E+02  0.53074477630E+02 -0.23875844811E+03  0.28804821811E+03  0.12700000000E+03 0.  0.
<mgrwt>
<rscale>  0 0.36302389E+03</rscale>
<asrwt>0</asrwt>
<pdfrwt beam="1">  1        2 0.13944270E+00 0.36302389E+03</pdfrwt>
<pdfrwt beam="2">  1       -2 0.48219040E-02 0.36302389E+03</pdfrwt>
<totfact> 0.62630104E+03</totfact>
</mgrwt>
</event>
<event>
 4    1  0.1361667E-004  0.2733949E+03  0.7818608E-02  0.1099352E+00
          2   -1    0    0  501    0  0.00000000000E+00  0.00000000000E+00  0.77990455073E+03  0.77990455074E+03  0.25500000000E-02 0.  1.
         -2   -1    0    0    0  501 -0.00000000000E+00 -0.00000000000E+00 -0.23959583617E+02  0.23959583753E+02  0.25500000000E-02 0. -1.
    5000001    1    1    2    0    0  0.49446427893E+02 -0.10168276905E+02  0.38671724069E+03  0.41015554041E+03  0.12700000000E+03 0.  0.
   -5000001    1    1    2    0    0 -0.49446427893E+02  0.10168276905E+02  0.36922772643E+03  0.39370859408E+03  0.12700000000E+03 0.  0.
<mgrwt>
<rscale>  0 0.27339487E+03</rscale>
<asrwt>0</asrwt>
<pdfrwt beam="1">  1        2 0.11141492E+00 0.27339487E+03</pdfrwt>
<pdfrwt beam="2">  1       -2 0.34227980E-02 0.27339487E+03</pdfrwt>
<totfact> 0.13920747E+04</totfact>
</mgrwt>
</event>
<event>
 4    1  0.1361667E-004  0.3277985E+03  0.7818608E-02  0.1072115E+00
         -2   -1    0    0    0  501 -0.00000000000E+00  0.00000000000E+00  0.36474020413E+02  0.36474020502E+02  0.25500000000E-02 0. -1.
          2   -1    0    0  501    0  0.00000000000E+00 -0.00000000000E+00 -0.73649593582E+03  0.73649593583E+03  0.25500000000E-02 0.  1.
    5000001    1    1    2    0    0 -0.32532610944E+02 -0.95564183149E+02 -0.29505824834E+03  0.33671835974E+03  0.12700000000E+03 0.  0.
   -5000001    1    1    2    0    0  0.32532610944E+02  0.95564183149E+02 -0.40496366707E+03  0.43625159659E+03  0.12700000000E+03 0.  0.
<mgrwt>
<rscale>  0 0.32779852E+03</rscale>
<asrwt>0</asrwt>
<pdfrwt beam="1">  1        2 0.10521370E+00 0.32779852E+03</pdfrwt>
<pdfrwt beam="2">  1       -2 0.52105748E-02 0.32779852E+03</pdfrwt>
<totfact> 0.79590742E+03</totfact>
</mgrwt>
</event>
<event>
 4    1  0.1361667E-004  0.3636324E+03  0.7818608E-02  0.1057155E+00
          2   -1    0    0  501    0  0.00000000000E+00  0.00000000000E+00  0.75255095591E+03  0.75255095591E+03  0.25500000000E-02 0.  1.
         -2   -1    0    0    0  501 -0.00000000000E+00 -0.00000000000E+00 -0.43926760570E+02  0.43926760644E+02  0.25500000000E-02 0. -1.
    5000001    1    1    2    0    0 -0.79809010461E+02  0.92436143620E+02  0.45261427296E+03  0.48569805320E+03  0.12700000000E+03 0.  0.
   -5000001    1    1    2    0    0  0.79809010461E+02 -0.92436143620E+02  0.25600992238E+03  0.31077966335E+03  0.12700000000E+03 0.  0.
<mgrwt>
<rscale>  0 0.36363237E+03</rscale>
<asrwt>0</asrwt>
<pdfrwt beam="1">  1        2 0.10750728E+00 0.36363237E+03</pdfrwt>
<pdfrwt beam="2">  1       -2 0.62752517E-02 0.36363237E+03</pdfrwt>
<totfact> 0.58376048E+03</totfact>
</mgrwt>
</event>
<event>
 4    1  0.1361667E-004  0.6797091E+03  0.7818608E-02  0.9752576E-01
         -2   -1    0    0    0  501 -0.00000000000E+00  0.00000000000E+00  0.44094208577E+02  0.44094208651E+02  0.25500000000E-02 0. -1.
          2   -1    0    0  501    0  0.00000000000E+00 -0.00000000000E+00 -0.26194168955E+04  0.26194168955E+04  0.25500000000E-02 0.  1.
    5000001    1    1    2    0    0  0.28032315357E+03  0.13944317297E+03 -0.11438615804E+04  0.11927169756E+04  0.12700000000E+03 0.  0.
   -5000001    1    1    2    0    0 -0.28032315357E+03 -0.13944317297E+03 -0.14314611065E+04  0.14707941285E+04  0.12700000000E+03 0.  0.
<mgrwt>
<rscale>  0 0.67970910E+03</rscale>
<asrwt>0</asrwt>
<pdfrwt beam="1">  1        2 0.37420232E+00 0.67970910E+03</pdfrwt>
<pdfrwt beam="2">  1       -2 0.62991743E-02 0.67970910E+03</pdfrwt>
<totfact> 0.57074934E+02</totfact>
</mgrwt>
</event>
<event>
 4    1  0.1361667E-004  0.7000398E+03  0.7818608E-02  0.9717164E-01
          2   -1    0    0  501    0  0.00000000000E+00  0.00000000000E+00  0.24393279178E+04  0.24393279178E+04  0.25500000000E-02 0.  1.
         -2   -1    0    0    0  501 -0.00000000000E+00 -0.00000000000E+00 -0.50224461124E+02  0.50224461189E+02  0.25500000000E-02 0. -1.
    5000001    1    1    2    0    0  0.30850192003E+03  0.10173365169E+03  0.12989495963E+04  0.13449617928E+04  0.12700000000E+03 0.  0.
   -5000001    1    1    2    0    0 -0.30850192003E+03 -0.10173365169E+03  0.10901538604E+04  0.11445905862E+04  0.12700000000E+03 0.  0.
<mgrwt>
<rscale>  0 0.70003980E+03</rscale>
<asrwt>0</asrwt>
<pdfrwt beam="1">  1        2 0.34847540E+00 0.70003980E+03</pdfrwt>
<pdfrwt beam="2">  1       -2 0.71749233E-02 0.70003980E+03</pdfrwt>
<totfact> 0.57469459E+02</totfact>
</mgrwt>
</event>
<event>
 4    1  0.1361667E-004  0.5955170E+03  0.7818608E-02  0.9914751E-01
          2   -1    0    0  501    0  0.00000000000E+00  0.00000000000E+00  0.34017284449E+04  0.34017284449E+04  0.25500000000E-02 0.  1.
         -2   -1    0    0    0  501 -0.00000000000E+00 -0.00000000000E+00 -0.26063258181E+02  0.26063258306E+02  0.25500000000E-02 0. -1.
    5000001    1    1    2    0    0  0.10959965813E+03  0.23371997184E+03  0.21297345575E+04  0.21490778013E+04  0.12700000000E+03 0.  0.
   -5000001    1    1    2    0    0 -0.10959965813E+03 -0.23371997184E+03  0.12459306291E+04  0.12787139019E+04  0.12700000000E+03 0.  0.
<mgrwt>
<rscale>  0 0.59551701E+03</rscale>
<asrwt>0</asrwt>
<pdfrwt beam="1">  1        2 0.48596117E+00 0.59551701E+03</pdfrwt>
<pdfrwt beam="2">  1       -2 0.37233229E-02 0.59551701E+03</pdfrwt>
<totfact> 0.48502864E+02</totfact>
</mgrwt>
</event>
<event>
 4    1  0.1361667E-004  0.4491432E+03  0.7818608E-02  0.1027978E+00
         -2   -1    0    0    0  501 -0.00000000000E+00  0.00000000000E+00  0.11534994539E+03  0.11534994542E+03  0.25500000000E-02 0. -1.
          2   -1    0    0  501    0  0.00000000000E+00 -0.00000000000E+00 -0.43721222977E+03  0.43721222978E+03  0.25500000000E-02 0.  1.
    5000001    1    1    2    0    0 -0.17615914468E+03 -0.81701672557E+01 -0.23057518369E+03  0.31684808855E+03  0.12700000000E+03 0.  0.
   -5000001    1    1    2    0    0  0.17615914468E+03  0.81701672557E+01 -0.91287100692E+02  0.23571408664E+03  0.12700000000E+03 0.  0.
<mgrwt>
<rscale>  0 0.44914321E+03</rscale>
<asrwt>0</asrwt>
<pdfrwt beam="1">  1        2 0.62458889E-01 0.44914321E+03</pdfrwt>
<pdfrwt beam="2">  1       -2 0.16478564E-01 0.44914321E+03</pdfrwt>
<totfact> 0.23146276E+03</totfact>
</mgrwt>
</event>
<event>
 4    1  0.1361667E-004  0.3110507E+03  0.7818608E-02  0.1079843E+00
          2   -1    0    0  501    0  0.00000000000E+00  0.00000000000E+00  0.30865916680E+04  0.30865916680E+04  0.25500000000E-02 0.  1.
         -2   -1    0    0    0  501 -0.00000000000E+00 -0.00000000000E+00 -0.78365193667E+01  0.78365197816E+01  0.25500000000E-02 0. -1.
    5000001    1    1    2    0    0 -0.54725715297E+02  0.17325146693E+02  0.22260321885E+04  0.22303908556E+04  0.12700000000E+03 0.  0.
   -5000001    1    1    2    0    0  0.54725715297E+02 -0.17325146693E+02  0.85272296019E+03  0.86403733221E+03  0.12700000000E+03 0.  0.
<mgrwt>
<rscale>  0 0.31105071E+03</rscale>
<asrwt>0</asrwt>
<pdfrwt beam="1">  1        2 0.44094089E+00 0.31105071E+03</pdfrwt>
<pdfrwt beam="2">  1       -2 0.11195048E-02 0.31105071E+03</pdfrwt>
<totfact> 0.45066186E+03</totfact>
</mgrwt>
</event>
<event>
 4    1  0.1361667E-004  0.4749125E+03  0.7818608E-02  0.1020543E+00
         -2   -1    0    0    0  501 -0.00000000000E+00  0.00000000000E+00  0.11548119609E+03  0.11548119612E+03  0.25500000000E-02 0.  1.
          2   -1    0    0  501    0  0.00000000000E+00 -0.00000000000E+00 -0.48826533812E+03  0.48826533813E+03  0.25500000000E-02 0. -1.
    5000001    1    1    2    0    0 -0.36598523997E+02 -0.19653867994E+03 -0.20802477463E+03  0.31523041023E+03  0.12700000000E+03 0.  0.
   -5000001    1    1    2    0    0  0.36598523997E+02  0.19653867994E+03 -0.16475936740E+03  0.28851612402E+03  0.12700000000E+03 0.  0.
<mgrwt>
<rscale>  0 0.47491248E+03</rscale>
<asrwt>0</asrwt>
<pdfrwt beam="1">  1        2 0.69752190E-01 0.47491248E+03</pdfrwt>
<pdfrwt beam="2">  1       -2 0.16497314E-01 0.47491248E+03</pdfrwt>
<totfact> 0.20432023E+03</totfact>
</mgrwt>
</event>
<event>
 4    1  0.1361667E-004  0.5265793E+03  0.7818608E-02  0.1007065E+00
         -2   -1    0    0    0  501 -0.00000000000E+00  0.00000000000E+00  0.33371874447E+03  0.33371874448E+03  0.25500000000E-02 0. -1.
          2   -1    0    0  501    0  0.00000000000E+00 -0.00000000000E+00 -0.20772410240E+03  0.20772410242E+03  0.25500000000E-02 0.  1.
    5000001    1    1    2    0    0 -0.19676767074E+03  0.11765402437E+03  0.88855555711E+02  0.27673867724E+03  0.12700000000E+03 0.  0.
   -5000001    1    1    2    0    0  0.19676767074E+03 -0.11765402437E+03  0.37139086353E+02  0.26470416966E+03  0.12700000000E+03 0.  0.
<mgrwt>
<rscale>  0 0.52657925E+03</rscale>
<asrwt>0</asrwt>
<pdfrwt beam="1">  1        2 0.29674872E-01 0.52657925E+03</pdfrwt>
<pdfrwt beam="2">  1       -2 0.47674106E-01 0.52657925E+03</pdfrwt>
<totfact> 0.75489128E+02</totfact>
</mgrwt>
</event>
<event>
 4    1  0.1361667E-004  0.5589026E+03  0.7818608E-02  0.9994541E-01
          2   -1    0    0  501    0  0.00000000000E+00  0.00000000000E+00  0.19079445411E+04  0.19079445411E+04  0.25500000000E-02 0.  1.
         -2   -1    0    0    0  501 -0.00000000000E+00 -0.00000000000E+00 -0.40930451818E+02  0.40930451898E+02  0.25500000000E-02 0. -1.
    5000001    1    1    2    0    0  0.16510964203E+03 -0.18368867864E+03  0.10416203240E+04  0.10780095658E+04  0.12700000000E+03 0.  0.
   -5000001    1    1    2    0    0 -0.16510964203E+03  0.18368867864E+03  0.82539376521E+03  0.87086542714E+03  0.12700000000E+03 0.  0.
<mgrwt>
<rscale>  0 0.55890261E+03</rscale>
<asrwt>0</asrwt>
<pdfrwt beam="1">  1        2 0.27256361E+00 0.55890261E+03</pdfrwt>
<pdfrwt beam="2">  1       -2 0.58472052E-02 0.55890261E+03</pdfrwt>
<totfact> 0.14847357E+03</totfact>
</mgrwt>
</event>
<event>
 4    1  0.1361667E-004  0.4549683E+03  0.7818608E-02  0.1026251E+00
         -2   -1    0    0    0  501 -0.00000000000E+00  0.00000000000E+00  0.26719369720E+02  0.26719369841E+02  0.25500000000E-02 0. -1.
          2   -1    0    0  501    0  0.00000000000E+00 -0.00000000000E+00 -0.19367608106E+04  0.19367608106E+04  0.25500000000E-02 0.  1.
    5000001    1    1    2    0    0  0.11465658435E+03 -0.13268971593E+03 -0.12561070628E+04  0.12746319650E+04  0.12700000000E+03 0.  0.
   -5000001    1    1    2    0    0 -0.11465658435E+03  0.13268971593E+03 -0.65393437808E+03  0.68884821542E+03  0.12700000000E+03 0.  0.
<mgrwt>
<rscale>  0 0.45496826E+03</rscale>
<asrwt>0</asrwt>
<pdfrwt beam="1">  1        2 0.27668003E+00 0.45496826E+03</pdfrwt>
<pdfrwt beam="2">  1       -2 0.38170541E-02 0.45496826E+03</pdfrwt>
<totfact> 0.27830274E+03</totfact>
</mgrwt>
</event>
<event>
 4    1  0.1361667E-004  0.2930629E+03  0.7818608E-02  0.1088761E+00
          2   -1    0    0  501    0  0.00000000000E+00  0.00000000000E+00  0.40279584625E+03  0.40279584626E+03  0.25500000000E-02 0.  1.
         -2   -1    0    0    0  501 -0.00000000000E+00 -0.00000000000E+00 -0.53306075070E+02  0.53306075131E+02  0.25500000000E-02 0. -1.
    5000001    1    1    2    0    0  0.20577346394E+02  0.58614523959E+02  0.23468625901E+03  0.27398125806E+03  0.12700000000E+03 0.  0.
   -5000001    1    1    2    0    0 -0.20577346394E+02 -0.58614523959E+02  0.11480351218E+03  0.18212066333E+03  0.12700000000E+03 0.  0.
<mgrwt>
<rscale>  0 0.29306290E+03</rscale>
<asrwt>0</asrwt>
<pdfrwt beam="1">  1        2 0.57542266E-01 0.29306290E+03</pdfrwt>
<pdfrwt beam="2">  1       -2 0.76151534E-02 0.29306290E+03</pdfrwt>
<totfact> 0.87475145E+03</totfact>
</mgrwt>
</event>
<event>
 4    1  0.1361667E-004  0.2842280E+03  0.7818608E-02  0.1093402E+00
         -2   -1    0    0    0  501 -0.00000000000E+00  0.00000000000E+00  0.24586442540E+02  0.24586442672E+02  0.25500000000E-02 0. -1.
          2   -1    0    0  501    0  0.00000000000E+00 -0.00000000000E+00 -0.82144406905E+03  0.82144406905E+03  0.25500000000E-02 0.  1.
    5000001    1    1    2    0    0  0.23909576257E+01  0.63707480093E+02 -0.40360822119E+03  0.42789362686E+03  0.12700000000E+03 0.  0.
   -5000001    1    1    2    0    0 -0.23909576257E+01 -0.63707480093E+02 -0.39324940532E+03  0.41813688486E+03  0.12700000000E+03 0.  0.
<mgrwt>
<rscale>  0 0.28422799E+03</rscale>
<asrwt>0</asrwt>
<pdfrwt beam="1">  1        2 0.11734914E+00 0.28422799E+03</pdfrwt>
<pdfrwt beam="2">  1       -2 0.35123494E-02 0.28422799E+03</pdfrwt>
<totfact> 0.12578331E+04</totfact>
</mgrwt>
</event>
<event>
 4    1  0.1361667E-004  0.4293392E+03  0.7818608E-02  0.1034069E+00
          2   -1    0    0  501    0  0.00000000000E+00  0.00000000000E+00  0.12385401928E+04  0.12385401928E+04  0.25500000000E-02 0.  1.
         -2   -1    0    0    0  501 -0.00000000000E+00 -0.00000000000E+00 -0.37207537829E+02  0.37207537917E+02  0.25500000000E-02 0. -1.
    5000001    1    1    2    0    0 -0.12413275960E+03  0.11150844068E+03  0.46414391269E+03  0.50931487906E+03  0.12700000000E+03 0.  0.
   -5000001    1    1    2    0    0  0.12413275960E+03 -0.11150844068E+03  0.73718874224E+03  0.76643285162E+03  0.12700000000E+03 0.  0.
<mgrwt>
<rscale>  0 0.42933917E+03</rscale>
<asrwt>0</asrwt>
<pdfrwt beam="1">  1        2 0.17693429E+00 0.42933917E+03</pdfrwt>
<pdfrwt beam="2">  1       -2 0.53153632E-02 0.42933917E+03</pdfrwt>
<totfact> 0.38235221E+03</totfact>
</mgrwt>
</event>
<event>
 4    1  0.1361667E-004  0.3945868E+03  0.7818608E-02  0.1045670E+00
          2   -1    0    0  501    0  0.00000000000E+00  0.00000000000E+00  0.27244020025E+04  0.27244020025E+04  0.25500000000E-02 0.  1.
         -2   -1    0    0    0  501 -0.00000000000E+00 -0.00000000000E+00 -0.14287424597E+02  0.14287424825E+02  0.25500000000E-02 0. -1.
    5000001    1    1    2    0    0 -0.61732054407E+02  0.98374710195E+02  0.68546398610E+03  0.70673779182E+03  0.12700000000E+03 0.  0.
   -5000001    1    1    2    0    0  0.61732054407E+02 -0.98374710195E+02  0.20246505918E+04  0.20319516355E+04  0.12700000000E+03 0.  0.
<mgrwt>
<rscale>  0 0.39458681E+03</rscale>
<asrwt>0</asrwt>
<pdfrwt beam="1">  1        2 0.38920045E+00 0.39458681E+03</pdfrwt>
<pdfrwt beam="2">  1       -2 0.20410598E-02 0.39458681E+03</pdfrwt>
<totfact> 0.28739219E+03</totfact>
</mgrwt>
</event>
<event>
 4    1  0.1361667E-004  0.3659336E+03  0.7818608E-02  0.1056259E+00
         -2   -1    0    0    0  501 -0.00000000000E+00  0.00000000000E+00  0.19662373261E+03  0.19662373263E+03  0.25500000000E-02 0. -1.
          2   -1    0    0  501    0  0.00000000000E+00 -0.00000000000E+00 -0.17025844342E+03  0.17025844344E+03  0.25500000000E-02 0.  1.
    5000001    1    1    2    0    0 -0.52636992931E+02 -0.11377950391E+03 -0.27312923337E+02  0.18053095113E+03  0.12700000000E+03 0.  0.
   -5000001    1    1    2    0    0  0.52636992931E+02  0.11377950391E+03  0.53678212526E+02  0.18635122494E+03  0.12700000000E+03 0.  0.
<mgrwt>
<rscale>  0 0.36593360E+03</rscale>
<asrwt>0</asrwt>
<pdfrwt beam="1">  1        2 0.24322635E-01 0.36593360E+03</pdfrwt>
<pdfrwt beam="2">  1       -2 0.28089105E-01 0.36593360E+03</pdfrwt>
<totfact> 0.25733651E+03</totfact>
</mgrwt>
</event>
<event>
 4    1  0.1361667E-004  0.3601588E+03  0.7818608E-02  0.1058521E+00
         -2   -1    0    0    0  501 -0.00000000000E+00  0.00000000000E+00  0.39141722275E+02  0.39141722358E+02  0.25500000000E-02 0. -1.
          2   -1    0    0  501    0  0.00000000000E+00 -0.00000000000E+00 -0.82849160254E+03  0.82849160255E+03  0.25500000000E-02 0.  1.
    5000001    1    1    2    0    0  0.85335783660E+02  0.81103381562E+02 -0.51366331321E+03  0.54206914117E+03  0.12700000000E+03 0.  0.
   -5000001    1    1    2    0    0 -0.85335783660E+02 -0.81103381562E+02 -0.27568656706E+03  0.32556418374E+03  0.12700000000E+03 0.  0.
<mgrwt>
<rscale>  0 0.36015879E+03</rscale>
<asrwt>0</asrwt>
<pdfrwt beam="1">  1        2 0.11835593E+00 0.36015879E+03</pdfrwt>
<pdfrwt beam="2">  1       -2 0.55916751E-02 0.36015879E+03</pdfrwt>
<totfact> 0.61865361E+03</totfact>
</mgrwt>
</event>
<event>
 4    1  0.1361667E-004  0.3676690E+03  0.7818608E-02  0.1055588E+00
         -2   -1    0    0    0  501 -0.00000000000E+00  0.00000000000E+00  0.52995989766E+03  0.52995989767E+03  0.25500000000E-02 0. -1.
          2   -1    0    0  501    0  0.00000000000E+00 -0.00000000000E+00 -0.63769215430E+02  0.63769215481E+02  0.25500000000E-02 0.  1.
    5000001    1    1    2    0    0  0.10953426633E+03 -0.86439642257E+01  0.11231977548E+03  0.20203268444E+03  0.12700000000E+03 0.  0.
   -5000001    1    1    2    0    0 -0.10953426633E+03  0.86439642257E+01  0.35387090675E+03  0.39169642871E+03  0.12700000000E+03 0.  0.
<mgrwt>
<rscale>  0 0.36766902E+03</rscale>
<asrwt>0</asrwt>
<pdfrwt beam="1">  1        2 0.91098877E-02 0.36766902E+03</pdfrwt>
<pdfrwt beam="2">  1       -2 0.75708558E-01 0.36766902E+03</pdfrwt>
<totfact> 0.11671901E+03</totfact>
</mgrwt>
</event>
<event>
 4    1  0.1361667E-004  0.9519825E+03  0.7818608E-02  0.9362836E-01
         -2   -1    0    0    0  501 -0.00000000000E+00  0.00000000000E+00  0.88849199156E+02  0.88849199193E+02  0.25500000000E-02 0. -1.
          2   -1    0    0  501    0  0.00000000000E+00 -0.00000000000E+00 -0.25500247368E+04  0.25500247368E+04  0.25500000000E-02 0.  1.
    5000001    1    1    2    0    0  0.32586913535E+03  0.28399374607E+03 -0.80478898293E+03  0.92231092817E+03  0.12700000000E+03 0.  0.
   -5000001    1    1    2    0    0 -0.32586913535E+03 -0.28399374607E+03 -0.16563865547E+04  0.17165630078E+04  0.12700000000E+03 0.  0.
<mgrwt>
<rscale>  0 0.95198247E+03</rscale>
<asrwt>0</asrwt>
<pdfrwt beam="1">  1        2 0.36428920E+00 0.95198247E+03</pdfrwt>
<pdfrwt beam="2">  1       -2 0.12692744E-01 0.95198247E+03</pdfrwt>
<totfact> 0.19534234E+02</totfact>
</mgrwt>
</event>
<event>
 4    1  0.1361667E-004  0.4368590E+03  0.7818608E-02  0.1031715E+00
         -2   -1    0    0    0  501 -0.00000000000E+00  0.00000000000E+00  0.14714753200E+02  0.14714753421E+02  0.25500000000E-02 0. -1.
          2   -1    0    0  501    0  0.00000000000E+00 -0.00000000000E+00 -0.32424231211E+04  0.32424231211E+04  0.25500000000E-02 0.  1.
    5000001    1    1    2    0    0  0.11342636340E+03  0.13571213200E+03 -0.14849023682E+04  0.15007822513E+04  0.12700000000E+03 0.  0.
   -5000001    1    1    2    0    0 -0.11342636340E+03 -0.13571213200E+03 -0.17428059996E+04  0.17563556232E+04  0.12700000000E+03 0.  0.
<mgrwt>
<rscale>  0 0.43685905E+03</rscale>
<asrwt>0</asrwt>
<pdfrwt beam="1">  1        2 0.46320285E+00 0.43685905E+03</pdfrwt>
<pdfrwt beam="2">  1       -2 0.21021097E-02 0.43685905E+03</pdfrwt>
<totfact> 0.14441603E+03</totfact>
</mgrwt>
</event>
<event>
 4    1  0.1361667E-004  0.5371103E+03  0.7818608E-02  0.1004522E+00
         -2   -1    0    0    0  501 -0.00000000000E+00  0.00000000000E+00  0.85815620726E+02  0.85815620764E+02  0.25500000000E-02 0. -1.
          2   -1    0    0  501    0  0.00000000000E+00 -0.00000000000E+00 -0.84042816530E+03  0.84042816530E+03  0.25500000000E-02 0.  1.
    5000001    1    1    2    0    0  0.12228684522E+03 -0.20254528232E+03 -0.38380484736E+03  0.46841629430E+03  0.12700000000E+03 0.  0.
   -5000001    1    1    2    0    0 -0.12228684522E+03  0.20254528232E+03 -0.37080769721E+03  0.45782749176E+03  0.12700000000E+03 0.  0.
<mgrwt>
<rscale>  0 0.53711029E+03</rscale>
<asrwt>0</asrwt>
<pdfrwt beam="1">  1        2 0.12006116E+00 0.53711029E+03</pdfrwt>
<pdfrwt beam="2">  1       -2 0.12259375E-01 0.53711029E+03</pdfrwt>
<totfact> 0.17523439E+03</totfact>
</mgrwt>
</event>
<event>
 4    1  0.1361667E-004  0.4193401E+03  0.7818608E-02  0.1037281E+00
          2   -1    0    0  501    0  0.00000000000E+00  0.00000000000E+00  0.33253192781E+04  0.33253192782E+04  0.25500000000E-02 0.  1.
         -2   -1    0    0    0  501 -0.00000000000E+00 -0.00000000000E+00 -0.13220242304E+02  0.13220242550E+02  0.25500000000E-02 0. -1.
    5000001    1    1    2    0    0 -0.34807289001E+02  0.14083126380E+03  0.10001366136E+04  0.10185515393E+04  0.12700000000E+03 0.  0.
   -5000001    1    1    2    0    0  0.34807289001E+02 -0.14083126380E+03  0.23119624222E+04  0.23199879814E+04  0.12700000000E+03 0.  0.
<mgrwt>
<rscale>  0 0.41934009E+03</rscale>
<asrwt>0</asrwt>
<pdfrwt beam="1">  1        2 0.47504537E+00 0.41934009E+03</pdfrwt>
<pdfrwt beam="2">  1       -2 0.18886070E-02 0.41934009E+03</pdfrwt>
<totfact> 0.15238959E+03</totfact>
</mgrwt>
</event>
<event>
 4    1  0.1361667E-004  0.4074391E+03  0.7818608E-02  0.1041234E+00
          2   -1    0    0  501    0  0.00000000000E+00  0.00000000000E+00  0.12555244563E+04  0.12555244563E+04  0.25500000000E-02 0.  1.
         -2   -1    0    0    0  501 -0.00000000000E+00 -0.00000000000E+00 -0.33055238642E+02  0.33055238741E+02  0.25500000000E-02 0. -1.
    5000001    1    1    2    0    0 -0.14431233162E+03  0.61510234378E+02  0.52386909874E+03  0.56140661789E+03  0.12700000000E+03 0.  0.
   -5000001    1    1    2    0    0  0.14431233162E+03 -0.61510234378E+02  0.69860011887E+03  0.72717307711E+03  0.12700000000E+03 0.  0.
<mgrwt>
<rscale>  0 0.40743913E+03</rscale>
<asrwt>0</asrwt>
<pdfrwt beam="1">  1        2 0.17936061E+00 0.40743913E+03</pdfrwt>
<pdfrwt beam="2">  1       -2 0.47221775E-02 0.40743913E+03</pdfrwt>
<totfact> 0.44886719E+03</totfact>
</mgrwt>
</event>
<event>
 4    1  0.1361667E-004  0.8918214E+03  0.7818608E-02  0.9435863E-01
          2   -1    0    0  501    0  0.00000000000E+00  0.00000000000E+00  0.18129762073E+04  0.18129762073E+04  0.25500000000E-02 0.  1.
         -2   -1    0    0    0  501 -0.00000000000E+00 -0.00000000000E+00 -0.10967399921E+03  0.10967399924E+03  0.25500000000E-02 0. -1.
    5000001    1    1    2    0    0  0.17767943872E+03  0.32174275945E+03  0.13220999056E+04  0.13781021539E+04  0.12700000000E+03 0.  0.
   -5000001    1    1    2    0    0 -0.17767943872E+03 -0.32174275945E+03  0.38120230247E+03  0.54454805262E+03  0.12700000000E+03 0.  0.
<mgrwt>
<rscale>  0 0.89182140E+03</rscale>
<asrwt>0</asrwt>
<pdfrwt beam="1">  1        2 0.25899662E+00 0.89182140E+03</pdfrwt>
<pdfrwt beam="2">  1       -2 0.15667713E-01 0.89182140E+03</pdfrwt>
<totfact> 0.32829161E+02</totfact>
</mgrwt>
</event>
<event>
 4    1  0.1361667E-004  0.6441929E+03  0.7818608E-02  0.9817737E-01
         -2   -1    0    0    0  501 -0.00000000000E+00  0.00000000000E+00  0.64031729078E+02  0.64031729129E+02  0.25500000000E-02 0. -1.
          2   -1    0    0  501    0  0.00000000000E+00 -0.00000000000E+00 -0.16202299964E+04  0.16202299964E+04  0.25500000000E-02 0.  1.
    5000001    1    1    2    0    0  0.27590674560E+03 -0.10711669291E+03 -0.78937804952E+03  0.85255218212E+03  0.12700000000E+03 0.  0.
   -5000001    1    1    2    0    0 -0.27590674560E+03  0.10711669291E+03 -0.76682021778E+03  0.83170954339E+03  0.12700000000E+03 0.  0.
<mgrwt>
<rscale>  0 0.64419292E+03</rscale>
<asrwt>0</asrwt>
<pdfrwt beam="1">  1        2 0.23146140E+00 0.64419292E+03</pdfrwt>
<pdfrwt beam="2">  1       -2 0.91473909E-02 0.64419292E+03</pdfrwt>
<totfact> 0.10177889E+03</totfact>
</mgrwt>
</event>
<event>
 4    1  0.1361667E-004  0.3104087E+03  0.7818608E-02  0.1080150E+00
         -2   -1    0    0    0  501 -0.00000000000E+00  0.00000000000E+00  0.24459035493E+03  0.24459035494E+03  0.25500000000E-02 0. -1.
          2   -1    0    0  501    0  0.00000000000E+00 -0.00000000000E+00 -0.98484648368E+02  0.98484648401E+02  0.25500000000E-02 0.  1.
    5000001    1    1    2    0    0 -0.88363141853E+02 -0.10385767172E+02  0.65764483065E+02  0.16843359591E+03  0.12700000000E+03 0.  0.
   -5000001    1    1    2    0    0  0.88363141853E+02  0.10385767172E+02  0.80341223495E+02  0.17464140743E+03  0.12700000000E+03 0.  0.
<mgrwt>
<rscale>  0 0.31040873E+03</rscale>
<asrwt>0</asrwt>
<pdfrwt beam="1">  1        2 0.14069235E-01 0.31040873E+03</pdfrwt>
<pdfrwt beam="2">  1       -2 0.34941479E-01 0.31040873E+03</pdfrwt>
<totfact> 0.32452310E+03</totfact>
</mgrwt>
</event>
<event>
 4    1  0.1361667E-004  0.6119774E+03  0.7818608E-02  0.9880864E-01
          2   -1    0    0  501    0  0.00000000000E+00  0.00000000000E+00  0.10706928660E+04  0.10706928660E+04  0.25500000000E-02 0.  1.
         -2   -1    0    0    0  501 -0.00000000000E+00 -0.00000000000E+00 -0.87447192529E+02  0.87447192566E+02  0.25500000000E-02 0. -1.
    5000001    1    1    2    0    0  0.25824025197E+03 -0.70778411269E+02  0.34746697774E+03  0.45668360148E+03  0.12700000000E+03 0.  0.
   -5000001    1    1    2    0    0 -0.25824025197E+03  0.70778411269E+02  0.63577869569E+03  0.70145645704E+03  0.12700000000E+03 0.  0.
<mgrwt>
<rscale>  0 0.61197740E+03</rscale>
<asrwt>0</asrwt>
<pdfrwt beam="1">  1        2 0.15295612E+00 0.61197740E+03</pdfrwt>
<pdfrwt beam="2">  1       -2 0.12492457E-01 0.61197740E+03</pdfrwt>
<totfact> 0.12179250E+03</totfact>
</mgrwt>
</event>
<event>
 4    1  0.1361667E-004  0.5176940E+03  0.7818608E-02  0.1009261E+00
          2   -1    0    0  501    0  0.00000000000E+00  0.00000000000E+00  0.11778504423E+03  0.11778504426E+03  0.25500000000E-02 0.  1.
         -2   -1    0    0    0  501 -0.00000000000E+00 -0.00000000000E+00 -0.56884785276E+03  0.56884785277E+03  0.25500000000E-02 0. -1.
    5000001    1    1    2    0    0  0.55393123034E+01  0.19488306841E+03 -0.37595540190E+03  0.44213296479E+03  0.12700000000E+03 0.  0.
   -5000001    1    1    2    0    0 -0.55393123034E+01 -0.19488306841E+03 -0.75107406626E+02  0.24449993224E+03  0.12700000000E+03 0.  0.
<mgrwt>
<rscale>  0 0.51769400E+03</rscale>
<asrwt>0</asrwt>
<pdfrwt beam="1">  1        2 0.16826435E-01 0.51769400E+03</pdfrwt>
<pdfrwt beam="2">  1       -2 0.81263977E-01 0.51769400E+03</pdfrwt>
<totfact> 0.46989670E+02</totfact>
</mgrwt>
</event>
<event>
 4    1  0.1361667E-004  0.4477425E+03  0.7818608E-02  0.1028397E+00
          2   -1    0    0  501    0  0.00000000000E+00  0.00000000000E+00  0.23929618336E+04  0.23929618336E+04  0.25500000000E-02 0.  1.
         -2   -1    0    0    0  501 -0.00000000000E+00 -0.00000000000E+00 -0.20944059865E+02  0.20944060021E+02  0.25500000000E-02 0. -1.
    5000001    1    1    2    0    0 -0.16747895293E+03 -0.46168509470E+02  0.85329188620E+03  0.88000953063E+03  0.12700000000E+03 0.  0.
   -5000001    1    1    2    0    0  0.16747895293E+03  0.46168509470E+02  0.15187258876E+04  0.15338963630E+04  0.12700000000E+03 0.  0.
<mgrwt>
<rscale>  0 0.44774250E+03</rscale>
<asrwt>0</asrwt>
<pdfrwt beam="1">  1        2 0.34185161E+00 0.44774250E+03</pdfrwt>
<pdfrwt beam="2">  1       -2 0.29920093E-02 0.44774250E+03</pdfrwt>
<totfact> 0.23842340E+03</totfact>
</mgrwt>
</event>
<event>
 4    1  0.1361667E-004  0.4880607E+03  0.7818608E-02  0.1016943E+00
          2   -1    0    0  501    0  0.00000000000E+00  0.00000000000E+00  0.15136999503E+03  0.15136999505E+03  0.25500000000E-02 0.  1.
         -2   -1    0    0    0  501 -0.00000000000E+00 -0.00000000000E+00 -0.39341228609E+03  0.39341228610E+03  0.25500000000E-02 0. -1.
    5000001    1    1    2    0    0 -0.19558479288E+03 -0.50297735855E+02 -0.17835764256E+03  0.29786527507E+03  0.12700000000E+03 0.  0.
   -5000001    1    1    2    0    0  0.19558479288E+03  0.50297735855E+02 -0.63684648508E+02  0.24691700608E+03  0.12700000000E+03 0.  0.
<mgrwt>
<rscale>  0 0.48806072E+03</rscale>
<asrwt>0</asrwt>
<pdfrwt beam="1">  1        2 0.21624285E-01 0.48806072E+03</pdfrwt>
<pdfrwt beam="2">  1       -2 0.56201755E-01 0.48806072E+03</pdfrwt>
<totfact> 0.77418357E+02</totfact>
</mgrwt>
</event>
<event>
 4    1  0.1361667E-004  0.2763717E+03  0.7818608E-02  0.1097687E+00
         -2   -1    0    0    0  501 -0.00000000000E+00  0.00000000000E+00  0.40535161909E+02  0.40535161989E+02  0.25500000000E-02 0. -1.
          2   -1    0    0  501    0  0.00000000000E+00 -0.00000000000E+00 -0.47108073025E+03  0.47108073026E+03  0.25500000000E-02 0.  1.
    5000001    1    1    2    0    0 -0.17732203270E+02  0.42027435699E+02 -0.27036224847E+03  0.30216796948E+03  0.12700000000E+03 0.  0.
   -5000001    1    1    2    0    0  0.17732203270E+02 -0.42027435699E+02 -0.16018331987E+03  0.20944792276E+03  0.12700000000E+03 0.  0.
<mgrwt>
<rscale>  0 0.27637173E+03</rscale>
<asrwt>0</asrwt>
<pdfrwt beam="1">  1        2 0.67297244E-01 0.27637173E+03</pdfrwt>
<pdfrwt beam="2">  1       -2 0.57907377E-02 0.27637173E+03</pdfrwt>
<totfact> 0.11233739E+04</totfact>
</mgrwt>
</event>
<event>
 4    1  0.1361667E-004  0.7024937E+03  0.7818608E-02  0.9712977E-01
         -2   -1    0    0    0  501 -0.00000000000E+00  0.00000000000E+00  0.12340404845E+03  0.12340404848E+03  0.25500000000E-02 0. -1.
          2   -1    0    0  501    0  0.00000000000E+00 -0.00000000000E+00 -0.99975946468E+03  0.99975946468E+03  0.25500000000E-02 0.  1.
    5000001    1    1    2    0    0  0.26494312992E+03 -0.77864748843E+02 -0.71962325733E+03  0.78118142176E+03  0.12700000000E+03 0.  0.
   -5000001    1    1    2    0    0 -0.26494312992E+03  0.77864748843E+02 -0.15673215889E+03  0.34198209140E+03  0.12700000000E+03 0.  0.
<mgrwt>
<rscale>  0 0.70249374E+03</rscale>
<asrwt>0</asrwt>
<pdfrwt beam="1">  1        2 0.14282278E+00 0.70249374E+03</pdfrwt>
<pdfrwt beam="2">  1       -2 0.17629150E-01 0.70249374E+03</pdfrwt>
<totfact> 0.74998482E+02</totfact>
</mgrwt>
</event>
<event>
 4    1  0.1361667E-004  0.3987282E+03  0.7818608E-02  0.1044221E+00
         -2   -1    0    0    0  501 -0.00000000000E+00  0.00000000000E+00  0.39719559836E+02  0.39719559918E+02  0.25500000000E-02 0. -1.
          2   -1    0    0  501    0  0.00000000000E+00 -0.00000000000E+00 -0.10006668422E+04  0.10006668422E+04  0.25500000000E-02 0.  1.
    5000001    1    1    2    0    0 -0.14352729068E+03 -0.51732181574E+02 -0.52863872359E+03  0.56468061934E+03  0.12700000000E+03 0.  0.
   -5000001    1    1    2    0    0  0.14352729068E+03  0.51732181574E+02 -0.43230855878E+03  0.47570578278E+03  0.12700000000E+03 0.  0.
<mgrwt>
<rscale>  0 0.39872821E+03</rscale>
<asrwt>0</asrwt>
<pdfrwt beam="1">  1        2 0.14295239E+00 0.39872821E+03</pdfrwt>
<pdfrwt beam="2">  1       -2 0.56742235E-02 0.39872821E+03</pdfrwt>
<totfact> 0.47206882E+03</totfact>
</mgrwt>
</event>
<event>
 4    1  0.1361667E-004  0.5739211E+03  0.7818608E-02  0.9961039E-01
         -2   -1    0    0    0  501 -0.00000000000E+00  0.00000000000E+00  0.57336698098E+02  0.57336698155E+02  0.25500000000E-02 0. -1.
          2   -1    0    0  501    0  0.00000000000E+00 -0.00000000000E+00 -0.14361893637E+04  0.14361893638E+04  0.25500000000E-02 0.  1.
    5000001    1    1    2    0    0  0.38148351999E+02  0.25302905965E+03 -0.76013831263E+03  0.81204572292E+03  0.12700000000E+03 0.  0.
   -5000001    1    1    2    0    0 -0.38148351999E+02 -0.25302905965E+03 -0.61871435302E+03  0.68148033899E+03  0.12700000000E+03 0.  0.
<mgrwt>
<rscale>  0 0.57392110E+03</rscale>
<asrwt>0</asrwt>
<pdfrwt beam="1">  1        2 0.20516989E+00 0.57392110E+03</pdfrwt>
<pdfrwt beam="2">  1       -2 0.81909578E-02 0.57392110E+03</pdfrwt>
<totfact> 0.15182063E+03</totfact>
</mgrwt>
</event>
<event>
 4    1  0.1361667E-004  0.9047910E+03  0.7818608E-02  0.9419612E-01
         -2   -1    0    0    0  501 -0.00000000000E+00  0.00000000000E+00  0.44071420479E+03  0.44071420480E+03  0.25500000000E-02 0. -1.
          2   -1    0    0  501    0  0.00000000000E+00 -0.00000000000E+00 -0.46438641257E+03  0.46438641258E+03  0.25500000000E-02 0.  1.
    5000001    1    1    2    0    0 -0.20541055230E+03  0.37419527365E+03 -0.91343429613E+02  0.45462976140E+03  0.12700000000E+03 0.  0.
   -5000001    1    1    2    0    0  0.20541055230E+03 -0.37419527365E+03  0.67671221834E+02  0.45047085597E+03  0.12700000000E+03 0.  0.
<mgrwt>
<rscale>  0 0.90479100E+03</rscale>
<asrwt>0</asrwt>
<pdfrwt beam="1">  1        2 0.66340916E-01 0.90479100E+03</pdfrwt>
<pdfrwt beam="2">  1       -2 0.62959173E-01 0.90479100E+03</pdfrwt>
<totfact> 0.17140634E+02</totfact>
</mgrwt>
</event>
<event>
 4    1  0.1361667E-004  0.4234502E+03  0.7818608E-02  0.1035949E+00
         -2   -1    0    0    0  501 -0.00000000000E+00  0.00000000000E+00  0.37197839286E+02  0.37197839373E+02  0.25500000000E-02 0. -1.
          2   -1    0    0  501    0  0.00000000000E+00 -0.00000000000E+00 -0.12051110106E+04  0.12051110106E+04  0.25500000000E-02 0.  1.
    5000001    1    1    2    0    0  0.16152905201E+03  0.44150853396E+02 -0.50872402007E+03  0.55042716239E+03  0.12700000000E+03 0.  0.
   -5000001    1    1    2    0    0 -0.16152905201E+03 -0.44150853396E+02 -0.65918915126E+03  0.69188168760E+03  0.12700000000E+03 0.  0.
<mgrwt>
<rscale>  0 0.42345024E+03</rscale>
<asrwt>0</asrwt>
<pdfrwt beam="1">  1        2 0.17215869E+00 0.42345024E+03</pdfrwt>
<pdfrwt beam="2">  1       -2 0.53139778E-02 0.42345024E+03</pdfrwt>
<totfact> 0.39899277E+03</totfact>
</mgrwt>
</event>
<event>
 4    1  0.1361667E-004  0.4148585E+03  0.7818608E-02  0.1038753E+00
          2   -1    0    0  501    0  0.00000000000E+00  0.00000000000E+00  0.11774040831E+04  0.11774040831E+04  0.25500000000E-02 0.  1.
         -2   -1    0    0    0  501 -0.00000000000E+00 -0.00000000000E+00 -0.36543865578E+02  0.36543865667E+02  0.25500000000E-02 0. -1.
    5000001    1    1    2    0    0  0.16222645407E+03  0.23660205356E+02  0.58373338375E+03  0.61947630384E+03  0.12700000000E+03 0.  0.
   -5000001    1    1    2    0    0 -0.16222645407E+03 -0.23660205356E+02  0.55712683382E+03  0.59447164497E+03  0.12700000000E+03 0.  0.
<mgrwt>
<rscale>  0 0.41485851E+03</rscale>
<asrwt>0</asrwt>
<pdfrwt beam="1">  1        2 0.16820059E+00 0.41485851E+03</pdfrwt>
<pdfrwt beam="2">  1       -2 0.52205522E-02 0.41485851E+03</pdfrwt>
<totfact> 0.42475756E+03</totfact>
</mgrwt>
</event>
<event>
 4    1  0.1361667E-004  0.2644248E+03  0.7818608E-02  0.1104513E+00
         -2   -1    0    0    0  501 -0.00000000000E+00  0.00000000000E+00  0.26504121393E+02  0.26504121516E+02  0.25500000000E-02 0. -1.
          2   -1    0    0  501    0  0.00000000000E+00 -0.00000000000E+00 -0.65952473060E+03  0.65952473061E+03  0.25500000000E-02 0.  1.
    5000001    1    1    2    0    0  0.69012896260E-02 -0.28389729836E+02 -0.37708578304E+03  0.39890934381E+03  0.12700000000E+03 0.  0.
   -5000001    1    1    2    0    0 -0.69012896260E-02  0.28389729836E+02 -0.25593482616E+03  0.28711950831E+03  0.12700000000E+03 0.  0.
<mgrwt>
<rscale>  0 0.26442484E+03</rscale>
<asrwt>0</asrwt>
<pdfrwt beam="1">  1        2 0.94217809E-01 0.26442484E+03</pdfrwt>
<pdfrwt beam="2">  1       -2 0.37863035E-02 0.26442484E+03</pdfrwt>
<totfact> 0.14601897E+04</totfact>
</mgrwt>
</event>
<event>
 4    1  0.1361667E-004  0.3279637E+03  0.7818608E-02  0.1072041E+00
          2   -1    0    0  501    0  0.00000000000E+00  0.00000000000E+00  0.26242066758E+03  0.26242066760E+03  0.25500000000E-02 0.  1.
         -2   -1    0    0    0  501 -0.00000000000E+00 -0.00000000000E+00 -0.10246925966E+03  0.10246925969E+03  0.25500000000E-02 0. -1.
    5000001    1    1    2    0    0 -0.87317849588E+02 -0.10264147813E+02  0.18719519064E+02  0.15559299464E+03  0.12700000000E+03 0.  0.
   -5000001    1    1    2    0    0  0.87317849588E+02  0.10264147813E+02  0.14123188886E+03  0.20929693265E+03  0.12700000000E+03 0.  0.
<mgrwt>
<rscale>  0 0.32796373E+03</rscale>
<asrwt>0</asrwt>
<pdfrwt beam="1">  1        2 0.37488667E-01 0.32796373E+03</pdfrwt>
<pdfrwt beam="2">  1       -2 0.14638466E-01 0.32796373E+03</pdfrwt>
<totfact> 0.48961603E+03</totfact>
</mgrwt>
</event>
<event>
 4    1  0.1361667E-004  0.4500221E+03  0.7818608E-02  0.1027715E+00
          2   -1    0    0  501    0  0.00000000000E+00  0.00000000000E+00  0.15370400461E+04  0.15370400461E+04  0.25500000000E-02 0.  1.
         -2   -1    0    0    0  501 -0.00000000000E+00 -0.00000000000E+00 -0.32939913909E+02  0.32939914007E+02  0.25500000000E-02 0. -1.
    5000001    1    1    2    0    0  0.14257232172E+03 -0.11217461924E+03  0.61289814532E+03  0.65167718133E+03  0.12700000000E+03 0.  0.
   -5000001    1    1    2    0    0 -0.14257232172E+03  0.11217461924E+03  0.89120198683E+03  0.91830277874E+03  0.12700000000E+03 0.  0.
<mgrwt>
<rscale>  0 0.45002207E+03</rscale>
<asrwt>0</asrwt>
<pdfrwt beam="1">  1        2 0.21957720E+00 0.45002207E+03</pdfrwt>
<pdfrwt beam="2">  1       -2 0.47057009E-02 0.45002207E+03</pdfrwt>
<totfact> 0.32103297E+03</totfact>
</mgrwt>
</event>
<event>
 4    1  0.1361667E-004  0.3755552E+03  0.7818608E-02  0.1052589E+00
         -2   -1    0    0    0  501 -0.00000000000E+00  0.00000000000E+00  0.54031762958E+02  0.54031763018E+02  0.25500000000E-02 0. -1.
          2   -1    0    0  501    0  0.00000000000E+00 -0.00000000000E+00 -0.65258685345E+03  0.65258685345E+03  0.25500000000E-02 0.  1.
    5000001    1    1    2    0    0  0.68267688770E+02 -0.37887840783E+02 -0.84457697771E+02  0.17134196369E+03  0.12700000000E+03 0.  0.
   -5000001    1    1    2    0    0 -0.68267688770E+02  0.37887840783E+02 -0.51409739272E+03  0.53527665278E+03  0.12700000000E+03 0.  0.
<mgrwt>
<rscale>  0 0.37555515E+03</rscale>
<asrwt>0</asrwt>
<pdfrwt beam="1">  1        2 0.93226689E-01 0.37555515E+03</pdfrwt>
<pdfrwt beam="2">  1       -2 0.77188237E-02 0.37555515E+03</pdfrwt>
<totfact> 0.50190281E+03</totfact>
</mgrwt>
</event>
<event>
 4    1  0.1361667E-004  0.2975934E+03  0.7818608E-02  0.1086450E+00
         -2   -1    0    0    0  501 -0.00000000000E+00  0.00000000000E+00  0.79858499763E+02  0.79858499804E+02  0.25500000000E-02 0. -1.
          2   -1    0    0  501    0  0.00000000000E+00 -0.00000000000E+00 -0.27724615531E+03  0.27724615533E+03  0.25500000000E-02 0.  1.
    5000001    1    1    2    0    0  0.58177882845E+02 -0.11746339494E+02 -0.15855826112E+03  0.21164206744E+03  0.12700000000E+03 0.  0.
   -5000001    1    1    2    0    0 -0.58177882845E+02  0.11746339494E+02 -0.38829394434E+02  0.14546258768E+03  0.12700000000E+03 0.  0.
<mgrwt>
<rscale>  0 0.29759343E+03</rscale>
<asrwt>0</asrwt>
<pdfrwt beam="1">  1        2 0.39606593E-01 0.29759343E+03</pdfrwt>
<pdfrwt beam="2">  1       -2 0.11408357E-01 0.29759343E+03</pdfrwt>
<totfact> 0.69070510E+03</totfact>
</mgrwt>
</event>
<event>
 4    1  0.1361667E-004  0.4011573E+03  0.7818608E-02  0.1043380E+00
          2   -1    0    0  501    0  0.00000000000E+00  0.00000000000E+00  0.16188376954E+04  0.16188376954E+04  0.25500000000E-02 0.  1.
         -2   -1    0    0    0  501 -0.00000000000E+00 -0.00000000000E+00 -0.24852278119E+02  0.24852278250E+02  0.25500000000E-02 0. -1.
    5000001    1    1    2    0    0  0.12280421680E+03  0.57691647334E+02  0.11061637012E+04  0.11216667668E+04  0.12700000000E+03 0.  0.
   -5000001    1    1    2    0    0 -0.12280421680E+03 -0.57691647334E+02  0.48782171606E+03  0.52202320686E+03  0.12700000000E+03 0.  0.
<mgrwt>
<rscale>  0 0.40115735E+03</rscale>
<asrwt>0</asrwt>
<pdfrwt beam="1">  1        2 0.23126255E+00 0.40115735E+03</pdfrwt>
<pdfrwt beam="2">  1       -2 0.35503252E-02 0.40115735E+03</pdfrwt>
<totfact> 0.44830180E+03</totfact>
</mgrwt>
</event>
<event>
 4    1  0.1361667E-004  0.3299149E+03  0.7818608E-02  0.1071175E+00
          2   -1    0    0  501    0  0.00000000000E+00  0.00000000000E+00  0.19184217716E+03  0.19184217718E+03  0.25500000000E-02 0.  1.
         -2   -1    0    0    0  501 -0.00000000000E+00 -0.00000000000E+00 -0.14184038221E+03  0.14184038223E+03  0.25500000000E-02 0. -1.
    5000001    1    1    2    0    0 -0.49085721095E+02 -0.78807600238E+01 -0.68851317677E+02  0.15277767618E+03  0.12700000000E+03 0.  0.
   -5000001    1    1    2    0    0  0.49085721095E+02  0.78807600238E+01  0.11885311263E+03  0.18090488323E+03  0.12700000000E+03 0.  0.
<mgrwt>
<rscale>  0 0.32991495E+03</rscale>
<asrwt>0</asrwt>
<pdfrwt beam="1">  1        2 0.27406025E-01 0.32991495E+03</pdfrwt>
<pdfrwt beam="2">  1       -2 0.20262912E-01 0.32991495E+03</pdfrwt>
<totfact> 0.39934983E+03</totfact>
</mgrwt>
</event>
<event>
 4    1  0.1361667E-004  0.4647867E+03  0.7818608E-02  0.1023402E+00
          2   -1    0    0  501    0  0.00000000000E+00  0.00000000000E+00  0.21590004345E+04  0.21590004345E+04  0.25500000000E-02 0.  1.
         -2   -1    0    0    0  501 -0.00000000000E+00 -0.00000000000E+00 -0.25014665858E+02  0.25014665988E+02  0.25500000000E-02 0. -1.
    5000001    1    1    2    0    0  0.11518117357E+03  0.14909721535E+03  0.83770510311E+03  0.86797207452E+03  0.12700000000E+03 0.  0.
   -5000001    1    1    2    0    0 -0.11518117357E+03 -0.14909721535E+03  0.12962806655E+04  0.13160430260E+04  0.12700000000E+03 0.  0.
<mgrwt>
<rscale>  0 0.46478672E+03</rscale>
<asrwt>0</asrwt>
<pdfrwt beam="1">  1        2 0.30842864E+00 0.46478672E+03</pdfrwt>
<pdfrwt beam="2">  1       -2 0.35735237E-02 0.46478672E+03</pdfrwt>
<totfact> 0.23841719E+03</totfact>
</mgrwt>
</event>
<event>
 4    1  0.1361667E-004  0.6267251E+03  0.7818608E-02  0.9851460E-01
          2   -1    0    0  501    0  0.00000000000E+00  0.00000000000E+00  0.67363260597E+03  0.67363260597E+03  0.25500000000E-02 0.  1.
         -2   -1    0    0    0  501 -0.00000000000E+00 -0.00000000000E+00 -0.14577098039E+03  0.14577098041E+03  0.25500000000E-02 0. -1.
    5000001    1    1    2    0    0 -0.12753004090E+03  0.20728759365E+03  0.46150106201E+03  0.53697699024E+03  0.12700000000E+03 0.  0.
   -5000001    1    1    2    0    0  0.12753004090E+03 -0.20728759365E+03  0.66360563571E+02  0.28242659614E+03  0.12700000000E+03 0.  0.
<mgrwt>
<rscale>  0 0.62672509E+03</rscale>
<asrwt>0</asrwt>
<pdfrwt beam="1">  1        2 0.96233229E-01 0.62672509E+03</pdfrwt>
<pdfrwt beam="2">  1       -2 0.20824426E-01 0.62672509E+03</pdfrwt>
<totfact> 0.94019980E+02</totfact>
</mgrwt>
</event>
<event>
 4    1  0.1361667E-004  0.4635534E+03  0.7818608E-02  0.1023756E+00
          2   -1    0    0  501    0  0.00000000000E+00  0.00000000000E+00  0.96205945284E+02  0.96205945318E+02  0.25500000000E-02 0.  1.
         -2   -1    0    0    0  501 -0.00000000000E+00 -0.00000000000E+00 -0.55838991442E+03  0.55838991443E+03  0.25500000000E-02 0. -1.
    5000001    1    1    2    0    0 -0.42674125403E+02  0.18468990548E+03 -0.17355780613E+03  0.28667534640E+03  0.12700000000E+03 0.  0.
   -5000001    1    1    2    0    0  0.42674125403E+02 -0.18468990548E+03 -0.28862616301E+03  0.36792051335E+03  0.12700000000E+03 0.  0.
<mgrwt>
<rscale>  0 0.46355336E+03</rscale>
<asrwt>0</asrwt>
<pdfrwt beam="1">  1        2 0.13743707E-01 0.46355336E+03</pdfrwt>
<pdfrwt beam="2">  1       -2 0.79769986E-01 0.46355336E+03</pdfrwt>
<totfact> 0.62506565E+02</totfact>
</mgrwt>
</event>
<event>
 4    1  0.1361667E-004  0.3485476E+03  0.7818608E-02  0.1063213E+00
          2   -1    0    0  501    0  0.00000000000E+00  0.00000000000E+00  0.94419752347E+03  0.94419752347E+03  0.25500000000E-02 0.  1.
         -2   -1    0    0    0  501 -0.00000000000E+00 -0.00000000000E+00 -0.32166321796E+02  0.32166321897E+02  0.25500000000E-02 0. -1.
    5000001    1    1    2    0    0  0.11743238139E+03 -0.19813710872E+02  0.47760767169E+03  0.50835129133E+03  0.12700000000E+03 0.  0.
   -5000001    1    1    2    0    0 -0.11743238139E+03  0.19813710872E+02  0.43442352998E+03  0.46801255404E+03  0.12700000000E+03 0.  0.
<mgrwt>
<rscale>  0 0.34854762E+03</rscale>
<asrwt>0</asrwt>
<pdfrwt beam="1">  1        2 0.13488534E+00 0.34854762E+03</pdfrwt>
<pdfrwt beam="2">  1       -2 0.45951896E-02 0.34854762E+03</pdfrwt>
<totfact> 0.70437010E+03</totfact>
</mgrwt>
</event>
<event>
 4    1  0.1361667E-004  0.3109825E+03  0.7818608E-02  0.1079876E+00
         -2   -1    0    0    0  501 -0.00000000000E+00  0.00000000000E+00  0.29641608500E+02  0.29641608610E+02  0.25500000000E-02 0. -1.
          2   -1    0    0  501    0  0.00000000000E+00 -0.00000000000E+00 -0.81566166699E+03  0.81566166700E+03  0.25500000000E-02 0.  1.
    5000001    1    1    2    0    0 -0.50451828637E+02  0.71491459882E+02 -0.33918559197E+03  0.37260204193E+03  0.12700000000E+03 0.  0.
   -5000001    1    1    2    0    0  0.50451828637E+02 -0.71491459882E+02 -0.44683446652E+03  0.47270123368E+03  0.12700000000E+03 0.  0.
<mgrwt>
<rscale>  0 0.31098247E+03</rscale>
<asrwt>0</asrwt>
<pdfrwt beam="1">  1        2 0.11652308E+00 0.31098247E+03</pdfrwt>
<pdfrwt beam="2">  1       -2 0.42345160E-02 0.31098247E+03</pdfrwt>
<totfact> 0.96064325E+03</totfact>
</mgrwt>
</event>
<event>
 4    1  0.1361667E-004  0.4985938E+03  0.7818608E-02  0.1014147E+00
          2   -1    0    0  501    0  0.00000000000E+00  0.00000000000E+00  0.13743871570E+04  0.13743871570E+04  0.25500000000E-02 0.  1.
         -2   -1    0    0    0  501 -0.00000000000E+00 -0.00000000000E+00 -0.45219378935E+02  0.45219379007E+02  0.25500000000E-02 0. -1.
    5000001    1    1    2    0    0  0.11443409253E+03 -0.10737119282E+02  0.14885570012E+03  0.22693053281E+03  0.12700000000E+03 0.  0.
   -5000001    1    1    2    0    0 -0.11443409253E+03  0.10737119282E+02  0.11803120779E+04  0.11926760032E+04  0.12700000000E+03 0.  0.
<mgrwt>
<rscale>  0 0.49859376E+03</rscale>
<asrwt>0</asrwt>
<pdfrwt beam="1">  1        2 0.19634104E+00 0.49859376E+03</pdfrwt>
<pdfrwt beam="2">  1       -2 0.64599107E-02 0.49859376E+03</pdfrwt>
<totfact> 0.23859668E+03</totfact>
</mgrwt>
</event>
<event>
 4    1  0.1361667E-004  0.2933003E+03  0.7818608E-02  0.1088638E+00
         -2   -1    0    0    0  501 -0.00000000000E+00  0.00000000000E+00  0.26165961323E+03  0.26165961325E+03  0.25500000000E-02 0.  1.
          2   -1    0    0  501    0  0.00000000000E+00 -0.00000000000E+00 -0.82191795664E+02  0.82191795704E+02  0.25500000000E-02 0. -1.
    5000001    1    1    2    0    0 -0.13236536892E+02  0.67979540891E+02  0.61479249657E+02  0.15717863095E+03  0.12700000000E+03 0.  0.
   -5000001    1    1    2    0    0  0.13236536892E+02 -0.67979540891E+02  0.11798856791E+03  0.18667277800E+03  0.12700000000E+03 0.  0.
<mgrwt>
<rscale>  0 0.29330035E+03</rscale>
<asrwt>0</asrwt>
<pdfrwt beam="1">  1        2 0.11741685E-01 0.29330035E+03</pdfrwt>
<pdfrwt beam="2">  1       -2 0.37379945E-01 0.29330035E+03</pdfrwt>
<totfact> 0.35531306E+03</totfact>
</mgrwt>
</event>
<event>
 4    1  0.1361667E-004  0.3405620E+03  0.7818608E-02  0.1066557E+00
          2   -1    0    0  501    0  0.00000000000E+00  0.00000000000E+00  0.50068219907E+03  0.50068219907E+03  0.25500000000E-02 0.  1.
         -2   -1    0    0    0  501 -0.00000000000E+00 -0.00000000000E+00 -0.57912227693E+02  0.57912227749E+02  0.25500000000E-02 0. -1.
    5000001    1    1    2    0    0 -0.52465389885E+02  0.87883914156E+02  0.14119176004E+03  0.21573203890E+03  0.12700000000E+03 0.  0.
   -5000001    1    1    2    0    0  0.52465389885E+02 -0.87883914156E+02  0.30157821133E+03  0.34286238792E+03  0.12700000000E+03 0.  0.
<mgrwt>
<rscale>  0 0.34056202E+03</rscale>
<asrwt>0</asrwt>
<pdfrwt beam="1">  1        2 0.71526034E-01 0.34056202E+03</pdfrwt>
<pdfrwt beam="2">  1       -2 0.82731747E-02 0.34056202E+03</pdfrwt>
<totfact> 0.60799813E+03</totfact>
</mgrwt>
</event>
<event>
 4    1  0.1361667E-004  0.5044482E+03  0.7818608E-02  0.1012624E+00
          2   -1    0    0  501    0  0.00000000000E+00  0.00000000000E+00  0.12684396608E+03  0.12684396611E+03  0.25500000000E-02 0.  1.
         -2   -1    0    0    0  501 -0.00000000000E+00 -0.00000000000E+00 -0.50153752487E+03  0.50153752488E+03  0.25500000000E-02 0. -1.
    5000001    1    1    2    0    0  0.11541518597E+03 -0.17565808558E+03 -0.25903114272E+03  0.35693495357E+03  0.12700000000E+03 0.  0.
   -5000001    1    1    2    0    0 -0.11541518597E+03  0.17565808558E+03 -0.11566241607E+03  0.27144653741E+03  0.12700000000E+03 0.  0.
<mgrwt>
<rscale>  0 0.50444825E+03</rscale>
<asrwt>0</asrwt>
<pdfrwt beam="1">  1        2 0.18120567E-01 0.50444825E+03</pdfrwt>
<pdfrwt beam="2">  1       -2 0.71648217E-01 0.50444825E+03</pdfrwt>
<totfact> 0.56850071E+02</totfact>
</mgrwt>
</event>
<event>
 4    1  0.1361667E-004  0.9643417E+03  0.7818608E-02  0.9348543E-01
          2   -1    0    0  501    0  0.00000000000E+00  0.00000000000E+00  0.19492417422E+04  0.19492417422E+04  0.25500000000E-02 0.  1.
         -2   -1    0    0    0  501 -0.00000000000E+00 -0.00000000000E+00 -0.11927137655E+03  0.11927137658E+03  0.25500000000E-02 0. -1.
    5000001    1    1    2    0    0 -0.14972942160E+03 -0.43815078681E+03  0.10100630029E+04  0.11183699216E+04  0.12700000000E+03 0.  0.
   -5000001    1    1    2    0    0  0.14972942160E+03  0.43815078681E+03  0.81990736276E+03  0.95014319720E+03  0.12700000000E+03 0.  0.
<mgrwt>
<rscale>  0 0.96434174E+03</rscale>
<asrwt>0</asrwt>
<pdfrwt beam="1">  1        2 0.27846311E+00 0.96434174E+03</pdfrwt>
<pdfrwt beam="2">  1       -2 0.17038768E-01 0.96434174E+03</pdfrwt>
<totfact> 0.24116242E+02</totfact>
</mgrwt>
</event>
<event>
 4    1  0.1361667E-004  0.3932657E+03  0.7818608E-02  0.1046137E+00
          2   -1    0    0  501    0  0.00000000000E+00  0.00000000000E+00  0.67093122934E+03  0.67093122934E+03  0.25500000000E-02 0.  1.
         -2   -1    0    0    0  501 -0.00000000000E+00 -0.00000000000E+00 -0.57628072399E+02  0.57628072455E+02  0.25500000000E-02 0. -1.
    5000001    1    1    2    0    0  0.20924652594E+02 -0.12038458629E+03  0.14509162549E+03  0.22827805301E+03  0.12700000000E+03 0.  0.
   -5000001    1    1    2    0    0 -0.20924652594E+02  0.12038458629E+03  0.46821153145E+03  0.50028124878E+03  0.12700000000E+03 0.  0.
<mgrwt>
<rscale>  0 0.39326568E+03</rscale>
<asrwt>0</asrwt>
<pdfrwt beam="1">  1        2 0.95847322E-01 0.39326568E+03</pdfrwt>
<pdfrwt beam="2">  1       -2 0.82325814E-02 0.39326568E+03</pdfrwt>
<totfact> 0.43918074E+03</totfact>
</mgrwt>
</event>
<event>
 4    1  0.1361667E-004  0.5273997E+03  0.7818608E-02  0.1006865E+00
          2   -1    0    0  501    0  0.00000000000E+00  0.00000000000E+00  0.15932347846E+04  0.15932347846E+04  0.25500000000E-02 0.  1.
         -2   -1    0    0    0  501 -0.00000000000E+00 -0.00000000000E+00 -0.43645554325E+02  0.43645554399E+02  0.25500000000E-02 0. -1.
    5000001    1    1    2    0    0 -0.20797002007E+03 -0.27546008994E+02  0.47390875865E+03  0.53359987199E+03  0.12700000000E+03 0.  0.
   -5000001    1    1    2    0    0  0.20797002007E+03  0.27546008994E+02  0.10756804716E+04  0.11032804670E+04  0.12700000000E+03 0.  0.
<mgrwt>
<rscale>  0 0.52739972E+03</rscale>
<asrwt>0</asrwt>
<pdfrwt beam="1">  1        2 0.22760504E+00 0.52739972E+03</pdfrwt>
<pdfrwt beam="2">  1       -2 0.62350773E-02 0.52739972E+03</pdfrwt>
<totfact> 0.19392855E+03</totfact>
</mgrwt>
</event>
<event>
 4    1  0.1361667E-004  0.6796691E+03  0.7818608E-02  0.9752647E-01
         -2   -1    0    0    0  501 -0.00000000000E+00  0.00000000000E+00  0.13659086645E+03  0.13659086647E+03  0.25500000000E-02 0.  1.
          2   -1    0    0  501    0  0.00000000000E+00 -0.00000000000E+00 -0.84549965975E+03  0.84549965975E+03  0.25500000000E-02 0. -1.
    5000001    1    1    2    0    0  0.22484204043E+03  0.19587154831E+03 -0.20682193668E+03  0.38447876414E+03  0.12700000000E+03 0.  0.
   -5000001    1    1    2    0    0 -0.22484204043E+03 -0.19587154831E+03 -0.50208685662E+03  0.59761176208E+03  0.12700000000E+03 0.  0.
<mgrwt>
<rscale>  0 0.67966913E+03</rscale>
<asrwt>0</asrwt>
<pdfrwt beam="1">  1        2 0.12078566E+00 0.67966913E+03</pdfrwt>
<pdfrwt beam="2">  1       -2 0.19512981E-01 0.67966913E+03</pdfrwt>
<totfact> 0.79051887E+02</totfact>
</mgrwt>
</event>
<event>
 4    1  0.1361667E-004  0.1023248E+04  0.7818608E-02  0.9283408E-01
         -2   -1    0    0    0  501 -0.00000000000E+00  0.00000000000E+00  0.23482540566E+03  0.23482540567E+03  0.25500000000E-02 0. -1.
          2   -1    0    0  501    0  0.00000000000E+00 -0.00000000000E+00 -0.11146960551E+04  0.11146960551E+04  0.25500000000E-02 0.  1.
    5000001    1    1    2    0    0 -0.26634968425E+03 -0.36431083582E+03 -0.16976055960E+03  0.49861025560E+03  0.12700000000E+03 0.  0.
   -5000001    1    1    2    0    0  0.26634968425E+03  0.36431083582E+03 -0.71011008984E+03  0.85091120517E+03  0.12700000000E+03 0.  0.
<mgrwt>
<rscale>  0 0.10232477E+04</rscale>
<asrwt>0</asrwt>
<pdfrwt beam="1">  1        2 0.15924229E+00 0.10232477E+04</pdfrwt>
<pdfrwt beam="2">  1       -2 0.33546487E-01 0.10232477E+04</pdfrwt>
<totfact> 0.19791403E+02</totfact>
</mgrwt>
</event>
<event>
 4    1  0.1361667E-004  0.2900342E+03  0.7818608E-02  0.1090331E+00
         -2   -1    0    0    0  501 -0.00000000000E+00  0.00000000000E+00  0.29729084989E+02  0.29729085098E+02  0.25500000000E-02 0.  1.
          2   -1    0    0  501    0  0.00000000000E+00 -0.00000000000E+00 -0.70738665287E+03  0.70738665287E+03  0.25500000000E-02 0. -1.
    5000001    1    1    2    0    0 -0.39109701165E+02 -0.56409692834E+02 -0.30385820286E+03  0.33640812953E+03  0.12700000000E+03 0.  0.
   -5000001    1    1    2    0    0  0.39109701165E+02  0.56409692834E+02 -0.37379936502E+03  0.40070760844E+03  0.12700000000E+03 0.  0.
<mgrwt>
<rscale>  0 0.29003419E+03</rscale>
<asrwt>0</asrwt>
<pdfrwt beam="1">  1        2 0.10105523E+00 0.29003419E+03</pdfrwt>
<pdfrwt beam="2">  1       -2 0.42470126E-02 0.29003419E+03</pdfrwt>
<totfact> 0.11354384E+04</totfact>
</mgrwt>
</event>
<event>
 4    1  0.1361667E-004  0.3389945E+03  0.7818608E-02  0.1067225E+00
         -2   -1    0    0    0  501 -0.00000000000E+00  0.00000000000E+00  0.12971402827E+03  0.12971402830E+03  0.25500000000E-02 0. -1.
          2   -1    0    0  501    0  0.00000000000E+00 -0.00000000000E+00 -0.22148200171E+03  0.22148200173E+03  0.25500000000E-02 0.  1.
    5000001    1    1    2    0    0  0.11121858307E+03 -0.12414203049E+02 -0.36814637916E+02  0.17322818253E+03  0.12700000000E+03 0.  0.
   -5000001    1    1    2    0    0 -0.11121858307E+03  0.12414203049E+02 -0.54953335525E+02  0.17796784750E+03  0.12700000000E+03 0.  0.
<mgrwt>
<rscale>  0 0.33899453E+03</rscale>
<asrwt>0</asrwt>
<pdfrwt beam="1">  1        2 0.31640286E-01 0.33899453E+03</pdfrwt>
<pdfrwt beam="2">  1       -2 0.18530575E-01 0.33899453E+03</pdfrwt>
<totfact> 0.39726172E+03</totfact>
</mgrwt>
</event>
<event>
 4    1  0.1361667E-004  0.4292145E+03  0.7818608E-02  0.1034108E+00
          2   -1    0    0  501    0  0.00000000000E+00  0.00000000000E+00  0.14041899469E+04  0.14041899469E+04  0.25500000000E-02 0.  1.
         -2   -1    0    0    0  501 -0.00000000000E+00 -0.00000000000E+00 -0.32799182398E+02  0.32799182497E+02  0.25500000000E-02 0. -1.
    5000001    1    1    2    0    0 -0.78768560206E+02 -0.13931864302E+03  0.46582111225E+03  0.50865752623E+03  0.12700000000E+03 0.  0.
   -5000001    1    1    2    0    0  0.78768560206E+02  0.13931864302E+03  0.90556965227E+03  0.92833160319E+03  0.12700000000E+03 0.  0.
<mgrwt>
<rscale>  0 0.42921455E+03</rscale>
<asrwt>0</asrwt>
<pdfrwt beam="1">  1        2 0.20059854E+00 0.42921455E+03</pdfrwt>
<pdfrwt beam="2">  1       -2 0.46855980E-02 0.42921455E+03</pdfrwt>
<totfact> 0.37864262E+03</totfact>
</mgrwt>
</event>
<event>
 4    1  0.1361667E-004  0.2934494E+03  0.7818608E-02  0.1088562E+00
          2   -1    0    0  501    0  0.00000000000E+00  0.00000000000E+00  0.93042829726E+03  0.93042829727E+03  0.25500000000E-02 0.  1.
         -2   -1    0    0    0  501 -0.00000000000E+00 -0.00000000000E+00 -0.23137872575E+02  0.23137872716E+02  0.25500000000E-02 0. -1.
    5000001    1    1    2    0    0  0.20407568520E+02 -0.55143745813E+02  0.59683869856E+03  0.61302751460E+03  0.12700000000E+03 0.  0.
   -5000001    1    1    2    0    0 -0.20407568520E+02  0.55143745813E+02  0.31045172612E+03  0.34053865538E+03  0.12700000000E+03 0.  0.
<mgrwt>
<rscale>  0 0.29344936E+03</rscale>
<asrwt>0</asrwt>
<pdfrwt beam="1">  1        2 0.13291833E+00 0.29344936E+03</pdfrwt>
<pdfrwt beam="2">  1       -2 0.33054102E-02 0.29344936E+03</pdfrwt>
<totfact> 0.11752381E+04</totfact>
</mgrwt>
</event>
<event>
 4    1  0.1361667E-004  0.3320031E+03  0.7818608E-02  0.1070254E+00
          2   -1    0    0  501    0  0.00000000000E+00  0.00000000000E+00  0.10744976941E+04  0.10744976941E+04  0.25500000000E-02 0.  1.
         -2   -1    0    0    0  501 -0.00000000000E+00 -0.00000000000E+00 -0.25645956551E+02  0.25645956678E+02  0.25500000000E-02 0. -1.
    5000001    1    1    2    0    0  0.11506488718E+02 -0.10385725049E+03  0.59917015124E+03  0.62133131090E+03  0.12700000000E+03 0.  0.
   -5000001    1    1    2    0    0 -0.11506488718E+02  0.10385725049E+03  0.44968158631E+03  0.47881233989E+03  0.12700000000E+03 0.  0.
<mgrwt>
<rscale>  0 0.33200314E+03</rscale>
<asrwt>0</asrwt>
<pdfrwt beam="1">  1        2 0.15349970E+00 0.33200314E+03</pdfrwt>
<pdfrwt beam="2">  1       -2 0.36637074E-02 0.33200314E+03</pdfrwt>
<totfact> 0.82997568E+03</totfact>
</mgrwt>
</event>
<event>
 4    1  0.1361667E-004  0.2939967E+03  0.7818608E-02  0.1088281E+00
          2   -1    0    0  501    0  0.00000000000E+00  0.00000000000E+00  0.47173387606E+03  0.47173387607E+03  0.25500000000E-02 0.  1.
         -2   -1    0    0    0  501 -0.00000000000E+00 -0.00000000000E+00 -0.45806580198E+02  0.45806580269E+02  0.25500000000E-02 0. -1.
    5000001    1    1    2    0    0 -0.66593582826E+02 -0.32094671546E+02  0.21972270929E+03  0.26433282466E+03  0.12700000000E+03 0.  0.
   -5000001    1    1    2    0    0  0.66593582826E+02  0.32094671546E+02  0.20620458658E+03  0.25320763168E+03  0.12700000000E+03 0.  0.
<mgrwt>
<rscale>  0 0.29399671E+03</rscale>
<asrwt>0</asrwt>
<pdfrwt beam="1">  1        2 0.67390555E-01 0.29399671E+03</pdfrwt>
<pdfrwt beam="2">  1       -2 0.65437971E-02 0.29399671E+03</pdfrwt>
<totfact> 0.93168299E+03</totfact>
</mgrwt>
</event>
<event>
 4    1  0.1361667E-004  0.4250912E+03  0.7818608E-02  0.1035422E+00
          2   -1    0    0  501    0  0.00000000000E+00  0.00000000000E+00  0.16057536671E+04  0.16057536671E+04  0.25500000000E-02 0.  1.
         -2   -1    0    0    0  501 -0.00000000000E+00 -0.00000000000E+00 -0.28133604220E+02  0.28133604336E+02  0.25500000000E-02 0. -1.
    5000001    1    1    2    0    0 -0.29298702255E+02 -0.16678863166E+03  0.86272113396E+03  0.88830941490E+03  0.12700000000E+03 0.  0.
   -5000001    1    1    2    0    0  0.29298702255E+02  0.16678863166E+03  0.71489892894E+03  0.74557785657E+03  0.12700000000E+03 0.  0.
<mgrwt>
<rscale>  0 0.42509123E+03</rscale>
<asrwt>0</asrwt>
<pdfrwt beam="1">  1        2 0.22939337E+00 0.42509123E+03</pdfrwt>
<pdfrwt beam="2">  1       -2 0.40190866E-02 0.42509123E+03</pdfrwt>
<totfact> 0.37704617E+03</totfact>
</mgrwt>
</event>
<event>
 4    1  0.1361667E-004  0.4681246E+03  0.7818608E-02  0.1022451E+00
          2   -1    0    0  501    0  0.00000000000E+00  0.00000000000E+00  0.21810894981E+04  0.21810894981E+04  0.25500000000E-02 0.  1.
         -2   -1    0    0    0  501 -0.00000000000E+00 -0.00000000000E+00 -0.25118249900E+02  0.25118250030E+02  0.25500000000E-02 0. -1.
    5000001    1    1    2    0    0 -0.42240924635E+02  0.19060738831E+03  0.11875715390E+04  0.12101944605E+04  0.12700000000E+03 0.  0.
   -5000001    1    1    2    0    0  0.42240924635E+02 -0.19060738831E+03  0.96839970928E+03  0.99601328763E+03  0.12700000000E+03 0.  0.
<mgrwt>
<rscale>  0 0.46812456E+03</rscale>
<asrwt>0</asrwt>
<pdfrwt beam="1">  1        2 0.31158414E+00 0.46812456E+03</pdfrwt>
<pdfrwt beam="2">  1       -2 0.35883223E-02 0.46812456E+03</pdfrwt>
<totfact> 0.23095398E+03</totfact>
</mgrwt>
</event>
<event>
 4    1  0.1361667E-004  0.5243704E+03  0.7818608E-02  0.1007607E+00
         -2   -1    0    0    0  501 -0.00000000000E+00  0.00000000000E+00  0.21279198898E+04  0.21279198898E+04  0.25500000000E-02 0. -1.
          2   -1    0    0  501    0  0.00000000000E+00 -0.00000000000E+00 -0.32304354304E+02  0.32304354405E+02  0.25500000000E-02 0.  1.
    5000001    1    1    2    0    0  0.21395587689E+03 -0.82351859300E+02  0.10177788648E+04  0.10509813336E+04  0.12700000000E+03 0.  0.
   -5000001    1    1    2    0    0 -0.21395587689E+03  0.82351859300E+02  0.10778366707E+04  0.11092429106E+04  0.12700000000E+03 0.  0.
<mgrwt>
<rscale>  0 0.52437040E+03</rscale>
<asrwt>0</asrwt>
<pdfrwt beam="1">  1        2 0.46149075E-02 0.52437040E+03</pdfrwt>
<pdfrwt beam="2">  1       -2 0.30398858E+00 0.52437040E+03</pdfrwt>
<totfact> 0.58970493E+01</totfact>
</mgrwt>
</event>
<event>
 4    1  0.1361667E-004  0.4596335E+03  0.7818608E-02  0.1024888E+00
         -2   -1    0    0    0  501 -0.00000000000E+00  0.00000000000E+00  0.53288517959E+03  0.53288517960E+03  0.25500000000E-02 0. -1.
          2   -1    0    0  501    0  0.00000000000E+00 -0.00000000000E+00 -0.99112773856E+02  0.99112773888E+02  0.25500000000E-02 0.  1.
    5000001    1    1    2    0    0  0.15281447782E+03  0.11217921776E+03  0.17922296204E+03  0.29014877502E+03  0.12700000000E+03 0.  0.
   -5000001    1    1    2    0    0 -0.15281447782E+03 -0.11217921776E+03  0.25454944370E+03  0.34184917846E+03  0.12700000000E+03 0.  0.
<mgrwt>
<rscale>  0 0.45963346E+03</rscale>
<asrwt>0</asrwt>
<pdfrwt beam="1">  1        2 0.14158967E-01 0.45963346E+03</pdfrwt>
<pdfrwt beam="2">  1       -2 0.76126456E-01 0.45963346E+03</pdfrwt>
<totfact> 0.66866133E+02</totfact>
</mgrwt>
</event>
<event>
 4    1  0.1361667E-004  0.4124039E+03  0.7818608E-02  0.1039567E+00
         -2   -1    0    0    0  501 -0.00000000000E+00  0.00000000000E+00  0.85209876900E+02  0.85209876939E+02  0.25500000000E-02 0. -1.
          2   -1    0    0  501    0  0.00000000000E+00 -0.00000000000E+00 -0.49899428628E+03  0.49899428628E+03  0.25500000000E-02 0.  1.
    5000001    1    1    2    0    0  0.11250197470E+02 -0.97406268925E+02 -0.39036941935E+03  0.42205666886E+03  0.12700000000E+03 0.  0.
   -5000001    1    1    2    0    0 -0.11250197470E+02  0.97406268925E+02 -0.23414990028E+02  0.16214749436E+03  0.12700000000E+03 0.  0.
<mgrwt>
<rscale>  0 0.41240389E+03</rscale>
<asrwt>0</asrwt>
<pdfrwt beam="1">  1        2 0.71284897E-01 0.41240389E+03</pdfrwt>
<pdfrwt beam="2">  1       -2 0.12172840E-01 0.41240389E+03</pdfrwt>
<totfact> 0.32995559E+03</totfact>
</mgrwt>
</event>
<event>
 4    1  0.1361667E-004  0.3786526E+03  0.7818608E-02  0.1051433E+00
          2   -1    0    0  501    0  0.00000000000E+00  0.00000000000E+00  0.28115009149E+02  0.28115009265E+02  0.25500000000E-02 0.  1.
         -2   -1    0    0    0  501 -0.00000000000E+00 -0.00000000000E+00 -0.12749223896E+04  0.12749223896E+04  0.25500000000E-02 0. -1.
    5000001    1    1    2    0    0 -0.11998165100E+03 -0.72133547044E+02 -0.58624307179E+03  0.61596167446E+03  0.12700000000E+03 0.  0.
   -5000001    1    1    2    0    0  0.11998165100E+03  0.72133547044E+02 -0.66056430863E+03  0.68707572438E+03  0.12700000000E+03 0.  0.
<mgrwt>
<rscale>  0 0.37865264E+03</rscale>
<asrwt>0</asrwt>
<pdfrwt beam="1">  1        2 0.40164307E-02 0.37865264E+03</pdfrwt>
<pdfrwt beam="2">  1       -2 0.18213173E+00 0.37865264E+03</pdfrwt>
<totfact> 0.39829503E+02</totfact>
</mgrwt>
</event>
<event>
 4    1  0.1361667E-004  0.8258590E+03  0.7818608E-02  0.9523324E-01
         -2   -1    0    0    0  501 -0.00000000000E+00  0.00000000000E+00  0.85722201073E+02  0.85722201111E+02  0.25500000000E-02 0. -1.
          2   -1    0    0  501    0  0.00000000000E+00 -0.00000000000E+00 -0.19891086707E+04  0.19891086707E+04  0.25500000000E-02 0.  1.
    5000001    1    1    2    0    0 -0.39226555333E+03  0.85933781619E+01 -0.89925450937E+03  0.98930975084E+03  0.12700000000E+03 0.  0.
   -5000001    1    1    2    0    0  0.39226555333E+03 -0.85933781619E+01 -0.10041319603E+04  0.10855211210E+04  0.12700000000E+03 0.  0.
<mgrwt>
<rscale>  0 0.82585900E+03</rscale>
<asrwt>0</asrwt>
<pdfrwt beam="1">  1        2 0.28415835E+00 0.82585900E+03</pdfrwt>
<pdfrwt beam="2">  1       -2 0.12246030E-01 0.82585900E+03</pdfrwt>
<totfact> 0.40576142E+02</totfact>
</mgrwt>
</event>
<event>
 4    1  0.1361667E-004  0.5793484E+03  0.7818608E-02  0.9949203E-01
         -2   -1    0    0    0  501 -0.00000000000E+00  0.00000000000E+00  0.67068677868E+02  0.67068677916E+02  0.25500000000E-02 0. -1.
          2   -1    0    0  501    0  0.00000000000E+00 -0.00000000000E+00 -0.12511226250E+04  0.12511226250E+04  0.25500000000E-02 0.  1.
    5000001    1    1    2    0    0 -0.15213545329E+03 -0.18843579943E+03 -0.80942105157E+03  0.85436800349E+03  0.12700000000E+03 0.  0.
   -5000001    1    1    2    0    0  0.15213545329E+03  0.18843579943E+03 -0.37463289553E+03  0.46382329940E+03  0.12700000000E+03 0.  0.
<mgrwt>
<rscale>  0 0.57934839E+03</rscale>
<asrwt>0</asrwt>
<pdfrwt beam="1">  1        2 0.17873179E+00 0.57934839E+03</pdfrwt>
<pdfrwt beam="2">  1       -2 0.95812404E-02 0.57934839E+03</pdfrwt>
<totfact> 0.14842859E+03</totfact>
</mgrwt>
</event>
<event>
 4    1  0.1361667E-004  0.4757879E+03  0.7818608E-02  0.1020299E+00
          2   -1    0    0  501    0  0.00000000000E+00  0.00000000000E+00  0.31687893985E+03  0.31687893986E+03  0.25500000000E-02 0.  1.
         -2   -1    0    0    0  501 -0.00000000000E+00 -0.00000000000E+00 -0.17859671753E+03  0.17859671755E+03  0.25500000000E-02 0. -1.
    5000001    1    1    2    0    0  0.12720699427E+03  0.11363361325E+03  0.18018515437E+03  0.27872909304E+03  0.12700000000E+03 0.  0.
   -5000001    1    1    2    0    0 -0.12720699427E+03 -0.11363361325E+03 -0.41902932052E+02  0.21674656437E+03  0.12700000000E+03 0.  0.
<mgrwt>
<rscale>  0 0.47578793E+03</rscale>
<asrwt>0</asrwt>
<pdfrwt beam="1">  1        2 0.45268420E-01 0.47578793E+03</pdfrwt>
<pdfrwt beam="2">  1       -2 0.25513817E-01 0.47578793E+03</pdfrwt>
<totfact> 0.15431416E+03</totfact>
</mgrwt>
</event>
<event>
 4    1  0.1361667E-004  0.4017159E+03  0.7818608E-02  0.1043187E+00
         -2   -1    0    0    0  501 -0.00000000000E+00  0.00000000000E+00  0.29145398198E+03  0.29145398199E+03  0.25500000000E-02 0. -1.
          2   -1    0    0  501    0  0.00000000000E+00 -0.00000000000E+00 -0.13842296266E+03  0.13842296268E+03  0.25500000000E-02 0.  1.
    5000001    1    1    2    0    0 -0.14972844275E+03  0.39202865580E+02  0.59278815932E+02  0.20880241679E+03  0.12700000000E+03 0.  0.
   -5000001    1    1    2    0    0  0.14972844275E+03 -0.39202865580E+02  0.93752203385E+02  0.22107452788E+03  0.12700000000E+03 0.  0.
<mgrwt>
<rscale>  0 0.40171594E+03</rscale>
<asrwt>0</asrwt>
<pdfrwt beam="1">  1        2 0.19774709E-01 0.40171594E+03</pdfrwt>
<pdfrwt beam="2">  1       -2 0.41636283E-01 0.40171594E+03</pdfrwt>
<totfact> 0.15635782E+03</totfact>
</mgrwt>
</event>
<event>
 4    1  0.1361667E-004  0.3454336E+03  0.7818608E-02  0.1064505E+00
         -2   -1    0    0    0  501 -0.00000000000E+00  0.00000000000E+00  0.15836535934E+03  0.15836535936E+03  0.25500000000E-02 0. -1.
          2   -1    0    0  501    0  0.00000000000E+00 -0.00000000000E+00 -0.18836884476E+03  0.18836884478E+03  0.25500000000E-02 0.  1.
    5000001    1    1    2    0    0 -0.50113097558E+02 -0.86237786710E+02 -0.76500856809E+02  0.17868872235E+03  0.12700000000E+03 0.  0.
   -5000001    1    1    2    0    0  0.50113097558E+02  0.86237786710E+02  0.46497371387E+02  0.16804548179E+03  0.12700000000E+03 0.  0.
<mgrwt>
<rscale>  0 0.34543364E+03</rscale>
<asrwt>0</asrwt>
<pdfrwt beam="1">  1        2 0.26909835E-01 0.34543364E+03</pdfrwt>
<pdfrwt beam="2">  1       -2 0.22623623E-01 0.34543364E+03</pdfrwt>
<totfact> 0.33704828E+03</totfact>
</mgrwt>
</event>
<event>
 4    1  0.1361667E-004  0.3199071E+03  0.7818608E-02  0.1075692E+00
         -2   -1    0    0    0  501 -0.00000000000E+00  0.00000000000E+00  0.15435105588E+02  0.15435105799E+02  0.25500000000E-02 0. -1.
          2   -1    0    0  501    0  0.00000000000E+00 -0.00000000000E+00 -0.16575936693E+04  0.16575936693E+04  0.25500000000E-02 0.  1.
    5000001    1    1    2    0    0  0.95919576571E+02  0.13709811164E+02 -0.86408073148E+03  0.87872238768E+03  0.12700000000E+03 0.  0.
   -5000001    1    1    2    0    0 -0.95919576571E+02 -0.13709811164E+02 -0.77807783227E+03  0.79430638746E+03  0.12700000000E+03 0.  0.
<mgrwt>
<rscale>  0 0.31990707E+03</rscale>
<asrwt>0</asrwt>
<pdfrwt beam="1">  1        2 0.23679898E+00 0.31990707E+03</pdfrwt>
<pdfrwt beam="2">  1       -2 0.22050162E-02 0.31990707E+03</pdfrwt>
<totfact> 0.87298850E+03</totfact>
</mgrwt>
</event>
<event>
 4    1  0.1361667E-004  0.1290411E+04  0.7818608E-02  0.9037204E-01
         -2   -1    0    0    0  501 -0.00000000000E+00  0.00000000000E+00  0.20275558804E+03  0.20275558805E+03  0.25500000000E-02 0. -1.
          2   -1    0    0  501    0  0.00000000000E+00 -0.00000000000E+00 -0.20531624888E+04  0.20531624888E+04  0.25500000000E-02 0.  1.
    5000001    1    1    2    0    0 -0.58432696784E+03  0.10697317106E+03 -0.13053346716E+04  0.14397600041E+04  0.12700000000E+03 0.  0.
   -5000001    1    1    2    0    0  0.58432696784E+03 -0.10697317106E+03 -0.54507222924E+03  0.81615807278E+03  0.12700000000E+03 0.  0.
<mgrwt>
<rscale>  0 0.12904110E+04</rscale>
<asrwt>0</asrwt>
<pdfrwt beam="1">  1        2 0.29330891E+00 0.12904110E+04</pdfrwt>
<pdfrwt beam="2">  1       -2 0.28965085E-01 0.12904110E+04</pdfrwt>
<totfact> 0.80946026E+01</totfact>
</mgrwt>
</event>
<event>
 4    1  0.1361667E-004  0.3325305E+03  0.7818608E-02  0.1070023E+00
         -2   -1    0    0    0  501 -0.00000000000E+00  0.00000000000E+00  0.86335903234E+03  0.86335903235E+03  0.25500000000E-02 0. -1.
          2   -1    0    0  501    0  0.00000000000E+00 -0.00000000000E+00 -0.32019271384E+02  0.32019271485E+02  0.25500000000E-02 0.  1.
    5000001    1    1    2    0    0 -0.60195365348E+02 -0.36346524858E+02  0.19740853460E+03  0.24503812236E+03  0.12700000000E+03 0.  0.
   -5000001    1    1    2    0    0  0.60195365348E+02  0.36346524858E+02  0.63393122636E+03  0.65034018147E+03  0.12700000000E+03 0.  0.
<mgrwt>
<rscale>  0 0.33253046E+03</rscale>
<asrwt>0</asrwt>
<pdfrwt beam="1">  1        2 0.45741829E-02 0.33253046E+03</pdfrwt>
<pdfrwt beam="2">  1       -2 0.12333697E+00 0.33253046E+03</pdfrwt>
<totfact> 0.92428481E+02</totfact>
</mgrwt>
</event>
<event>
 4    1  0.1361667E-004  0.3240509E+03  0.7818608E-02  0.1073800E+00
         -2   -1    0    0    0  501 -0.00000000000E+00  0.00000000000E+00  0.30569305725E+02  0.30569305831E+02  0.25500000000E-02 0. -1.
          2   -1    0    0  501    0  0.00000000000E+00 -0.00000000000E+00 -0.85877782232E+03  0.85877782232E+03  0.25500000000E-02 0.  1.
    5000001    1    1    2    0    0  0.47364659822E+01  0.80270527728E+02 -0.24812748441E+03  0.29010694623E+03  0.12700000000E+03 0.  0.
   -5000001    1    1    2    0    0 -0.47364659822E+01 -0.80270527728E+02 -0.58008103219E+03  0.59924018192E+03  0.12700000000E+03 0.  0.
<mgrwt>
<rscale>  0 0.32405087E+03</rscale>
<asrwt>0</asrwt>
<pdfrwt beam="1">  1        2 0.12268253E+00 0.32405087E+03</pdfrwt>
<pdfrwt beam="2">  1       -2 0.43670442E-02 0.32405087E+03</pdfrwt>
<totfact> 0.85997017E+03</totfact>
</mgrwt>
</event>
<event>
 4    1  0.1361667E-004  0.3150881E+03  0.7818608E-02  0.1077932E+00
          2   -1    0    0  501    0  0.00000000000E+00  0.00000000000E+00  0.74300998711E+03  0.74300998711E+03  0.25500000000E-02 0.  1.
         -2   -1    0    0    0  501 -0.00000000000E+00 -0.00000000000E+00 -0.33404836878E+02  0.33404836976E+02  0.25500000000E-02 0. -1.
    5000001    1    1    2    0    0  0.58417943097E+02  0.43957653133E+02  0.21226232562E+03  0.25793260016E+03  0.12700000000E+03 0.  0.
   -5000001    1    1    2    0    0 -0.58417943097E+02 -0.43957653133E+02  0.49734282461E+03  0.51848222393E+03  0.12700000000E+03 0.  0.
<mgrwt>
<rscale>  0 0.31508810E+03</rscale>
<asrwt>0</asrwt>
<pdfrwt beam="1">  1        2 0.10614429E+00 0.31508810E+03</pdfrwt>
<pdfrwt beam="2">  1       -2 0.47721192E-02 0.31508810E+03</pdfrwt>
<totfact> 0.89938870E+03</totfact>
</mgrwt>
</event>
<event>
 4    1  0.1361667E-004  0.6022900E+03  0.7818608E-02  0.9900666E-01
          2   -1    0    0  501    0  0.00000000000E+00  0.00000000000E+00  0.13650855503E+04  0.13650855503E+04  0.25500000000E-02 0.  1.
         -2   -1    0    0    0  501 -0.00000000000E+00 -0.00000000000E+00 -0.66434160010E+02  0.66434160059E+02  0.25500000000E-02 0. -1.
    5000001    1    1    2    0    0 -0.21407227941E+03 -0.14388384713E+03  0.86230838235E+03  0.90897428377E+03  0.12700000000E+03 0.  0.
   -5000001    1    1    2    0    0  0.21407227941E+03  0.14388384713E+03  0.43634300793E+03  0.52254542659E+03  0.12700000000E+03 0.  0.
<mgrwt>
<rscale>  0 0.60229000E+03</rscale>
<asrwt>0</asrwt>
<pdfrwt beam="1">  1        2 0.19501221E+00 0.60229000E+03</pdfrwt>
<pdfrwt beam="2">  1       -2 0.94905947E-02 0.60229000E+03</pdfrwt>
<totfact> 0.13063599E+03</totfact>
</mgrwt>
</event>
<event>
 4    1  0.1361667E-004  0.7564881E+03  0.7818608E-02  0.9625226E-01
          2   -1    0    0  501    0  0.00000000000E+00  0.00000000000E+00  0.15437078985E+04  0.15437078985E+04  0.25500000000E-02 0.  1.
         -2   -1    0    0    0  501 -0.00000000000E+00 -0.00000000000E+00 -0.92678525324E+02  0.92678525359E+02  0.25500000000E-02 0. -1.
    5000001    1    1    2    0    0 -0.11195327238E+03 -0.14559305930E+03  0.13859221476E+04  0.14037948829E+04  0.12700000000E+03 0.  0.
   -5000001    1    1    2    0    0  0.11195327238E+03  0.14559305930E+03  0.65107225637E+02  0.23259154100E+03  0.12700000000E+03 0.  0.
<mgrwt>
<rscale>  0 0.75648813E+03</rscale>
<asrwt>0</asrwt>
<pdfrwt beam="1">  1        2 0.22052968E+00 0.75648813E+03</pdfrwt>
<pdfrwt beam="2">  1       -2 0.13239790E-01 0.75648813E+03</pdfrwt>
<totfact> 0.60494083E+02</totfact>
</mgrwt>
</event>
<event>
 4    1  0.1361667E-004  0.1035594E+04  0.7818608E-02  0.9270345E-01
         -2   -1    0    0    0  501 -0.00000000000E+00  0.00000000000E+00  0.45595282803E+03  0.45595282804E+03  0.25500000000E-02 0. -1.
          2   -1    0    0  501    0  0.00000000000E+00 -0.00000000000E+00 -0.58802906419E+03  0.58802906420E+03  0.25500000000E-02 0.  1.
    5000001    1    1    2    0    0  0.40526195853E+03 -0.58388544129E+02  0.22672432538E+03  0.48495298415E+03  0.12700000000E+03 0.  0.
   -5000001    1    1    2    0    0 -0.40526195853E+03  0.58388544129E+02 -0.35880056153E+03  0.55902890809E+03  0.12700000000E+03 0.  0.
<mgrwt>
<rscale>  0 0.10355936E+04</rscale>
<asrwt>0</asrwt>
<pdfrwt beam="1">  1        2 0.84004152E-01 0.10355936E+04</pdfrwt>
<pdfrwt beam="2">  1       -2 0.65136118E-01 0.10355936E+04</pdfrwt>
<totfact> 0.12045957E+02</totfact>
</mgrwt>
</event>
<event>
 4    1  0.1361667E-004  0.4865642E+03  0.7818608E-02  0.1017347E+00
          2   -1    0    0  501    0  0.00000000000E+00  0.00000000000E+00  0.29153057903E+04  0.29153057903E+04  0.25500000000E-02 0.  1.
         -2   -1    0    0    0  501 -0.00000000000E+00 -0.00000000000E+00 -0.20301876555E+02  0.20301876715E+02  0.25500000000E-02 0. -1.
    5000001    1    1    2    0    0 -0.20074175671E+03  0.47479899455E+02  0.15831629091E+04  0.16015883961E+04  0.12700000000E+03 0.  0.
   -5000001    1    1    2    0    0  0.20074175671E+03 -0.47479899455E+02  0.13118410047E+04  0.13340192709E+04  0.12700000000E+03 0.  0.
<mgrwt>
<rscale>  0 0.48656419E+03</rscale>
<asrwt>0</asrwt>
<pdfrwt beam="1">  1        2 0.41647214E+00 0.48656419E+03</pdfrwt>
<pdfrwt beam="2">  1       -2 0.29002689E-02 0.48656419E+03</pdfrwt>
<totfact> 0.13377905E+03</totfact>
</mgrwt>
</event>
<event>
 4    1  0.1361667E-004  0.5780593E+03  0.7818608E-02  0.9952001E-01
          2   -1    0    0  501    0  0.00000000000E+00  0.00000000000E+00  0.17891751337E+03  0.17891751339E+03  0.25500000000E-02 0.  1.
         -2   -1    0    0    0  501 -0.00000000000E+00 -0.00000000000E+00 -0.46690866217E+03  0.46690866217E+03  0.25500000000E-02 0. -1.
    5000001    1    1    2    0    0 -0.10574470099E+03  0.21545945307E+03 -0.25462080498E+03  0.37224383412E+03  0.12700000000E+03 0.  0.
   -5000001    1    1    2    0    0  0.10574470099E+03 -0.21545945307E+03 -0.33370343807E+02  0.27358234145E+03  0.12700000000E+03 0.  0.
<mgrwt>
<rscale>  0 0.57805929E+03</rscale>
<asrwt>0</asrwt>
<pdfrwt beam="1">  1        2 0.25559645E-01 0.57805929E+03</pdfrwt>
<pdfrwt beam="2">  1       -2 0.66701237E-01 0.57805929E+03</pdfrwt>
<totfact> 0.44508990E+02</totfact>
</mgrwt>
</event>
<event>
 4    1  0.1361667E-004  0.5134121E+03  0.7818608E-02  0.1010336E+00
          2   -1    0    0  501    0  0.00000000000E+00  0.00000000000E+00  0.17319766200E+04  0.17319766200E+04  0.25500000000E-02 0.  1.
         -2   -1    0    0    0  501 -0.00000000000E+00 -0.00000000000E+00 -0.38047850863E+02  0.38047850949E+02  0.25500000000E-02 0. -1.
    5000001    1    1    2    0    0  0.70211634593E+02  0.14373143343E+03  0.31086335645E+03  0.37195890226E+03  0.12700000000E+03 0.  0.
   -5000001    1    1    2    0    0 -0.70211634593E+02 -0.14373143343E+03  0.13830654127E+04  0.13980655687E+04  0.12700000000E+03 0.  0.
<mgrwt>
<rscale>  0 0.51341207E+03</rscale>
<asrwt>0</asrwt>
<pdfrwt beam="1">  1        2 0.24742518E+00 0.51341207E+03</pdfrwt>
<pdfrwt beam="2">  1       -2 0.54354085E-02 0.51341207E+03</pdfrwt>
<totfact> 0.20429282E+03</totfact>
</mgrwt>
</event>
<event>
 4    1  0.1361667E-004  0.5736194E+03  0.7818608E-02  0.9961701E-01
          2   -1    0    0  501    0  0.00000000000E+00  0.00000000000E+00  0.80382468415E+03  0.80382468416E+03  0.25500000000E-02 0.  1.
         -2   -1    0    0    0  501 -0.00000000000E+00 -0.00000000000E+00 -0.10233550131E+03  0.10233550134E+03  0.25500000000E-02 0. -1.
    5000001    1    1    2    0    0  0.24431198724E+03 -0.23617648884E+02  0.22956153638E+03  0.35926819986E+03  0.12700000000E+03 0.  0.
   -5000001    1    1    2    0    0 -0.24431198724E+03  0.23617648884E+02  0.47192764646E+03  0.54689198563E+03  0.12700000000E+03 0.  0.
<mgrwt>
<rscale>  0 0.57361939E+03</rscale>
<asrwt>0</asrwt>
<pdfrwt beam="1">  1        2 0.11483209E+00 0.57361939E+03</pdfrwt>
<pdfrwt beam="2">  1       -2 0.14619358E-01 0.57361939E+03</pdfrwt>
<totfact> 0.13846924E+03</totfact>
</mgrwt>
</event>
<event>
 4    1  0.1361667E-004  0.3302005E+03  0.7818608E-02  0.1071048E+00
          2   -1    0    0  501    0  0.00000000000E+00  0.00000000000E+00  0.17738655213E+03  0.17738655215E+03  0.25500000000E-02 0.  1.
         -2   -1    0    0    0  501 -0.00000000000E+00 -0.00000000000E+00 -0.15366490855E+03  0.15366490857E+03  0.25500000000E-02 0. -1.
    5000001    1    1    2    0    0 -0.10257713485E+03 -0.24392578929E+02  0.15337006895E+02  0.16577481799E+03  0.12700000000E+03 0.  0.
   -5000001    1    1    2    0    0  0.10257713485E+03  0.24392578929E+02  0.83846366841E+01  0.16527664273E+03  0.12700000000E+03 0.  0.
<mgrwt>
<rscale>  0 0.33020047E+03</rscale>
<asrwt>0</asrwt>
<pdfrwt beam="1">  1        2 0.25340936E-01 0.33020047E+03</pdfrwt>
<pdfrwt beam="2">  1       -2 0.21952130E-01 0.33020047E+03</pdfrwt>
<totfact> 0.37952187E+03</totfact>
</mgrwt>
</event>
<event>
 4    1  0.1361667E-004  0.2850275E+03  0.7818608E-02  0.1092974E+00
         -2   -1    0    0    0  501 -0.00000000000E+00  0.00000000000E+00  0.16861565874E+02  0.16861566067E+02  0.25500000000E-02 0. -1.
          2   -1    0    0  501    0  0.00000000000E+00 -0.00000000000E+00 -0.12045241004E+04  0.12045241004E+04  0.25500000000E-02 0.  1.
    5000001    1    1    2    0    0 -0.52072532823E+02  0.14654857478E+02 -0.74562780588E+03  0.75829818569E+03  0.12700000000E+03 0.  0.
   -5000001    1    1    2    0    0  0.52072532823E+02 -0.14654857478E+02 -0.44203472860E+03  0.46308748073E+03  0.12700000000E+03 0.  0.
<mgrwt>
<rscale>  0 0.28502746E+03</rscale>
<asrwt>0</asrwt>
<pdfrwt beam="1">  1        2 0.17207482E+00 0.28502746E+03</pdfrwt>
<pdfrwt beam="2">  1       -2 0.24087959E-02 0.28502746E+03</pdfrwt>
<totfact> 0.13080565E+04</totfact>
</mgrwt>
</event>
<event>
 4    1  0.1361667E-004  0.6776849E+03  0.7818608E-02  0.9756174E-01
          2   -1    0    0  501    0  0.00000000000E+00  0.00000000000E+00  0.89668219056E+03  0.89668219057E+03  0.25500000000E-02 0.  1.
         -2   -1    0    0    0  501 -0.00000000000E+00 -0.00000000000E+00 -0.12804337279E+03  0.12804337282E+03  0.25500000000E-02 0. -1.
    5000001    1    1    2    0    0 -0.20849509108E+03  0.22679997119E+03  0.47724615141E+03  0.58206642144E+03  0.12700000000E+03 0.  0.
   -5000001    1    1    2    0    0  0.20849509108E+03 -0.22679997119E+03  0.29139266636E+03  0.44265914194E+03  0.12700000000E+03 0.  0.
<mgrwt>
<rscale>  0 0.67768492E+03</rscale>
<asrwt>0</asrwt>
<pdfrwt beam="1">  1        2 0.12809746E+00 0.67768492E+03</pdfrwt>
<pdfrwt beam="2">  1       -2 0.18291910E-01 0.67768492E+03</pdfrwt>
<totfact> 0.81798165E+02</totfact>
</mgrwt>
</event>
<event>
 4    1  0.1361667E-004  0.3120622E+03  0.7818608E-02  0.1079362E+00
         -2   -1    0    0    0  501 -0.00000000000E+00  0.00000000000E+00  0.34074371420E+02  0.34074371516E+02  0.25500000000E-02 0. -1.
          2   -1    0    0  501    0  0.00000000000E+00 -0.00000000000E+00 -0.71448729441E+03  0.71448729442E+03  0.25500000000E-02 0.  1.
    5000001    1    1    2    0    0 -0.88538648945E+02 -0.16943130193E+02 -0.31738124214E+03  0.35353361209E+03  0.12700000000E+03 0.  0.
   -5000001    1    1    2    0    0  0.88538648945E+02  0.16943130193E+02 -0.36303168086E+03  0.39502805384E+03  0.12700000000E+03 0.  0.
<mgrwt>
<rscale>  0 0.31206221E+03</rscale>
<asrwt>0</asrwt>
<pdfrwt beam="1">  1        2 0.10206960E+00 0.31206221E+03</pdfrwt>
<pdfrwt beam="2">  1       -2 0.48677678E-02 0.31206221E+03</pdfrwt>
<totfact> 0.91457501E+03</totfact>
</mgrwt>
</event>
<event>
 4    1  0.1361667E-004  0.3678748E+03  0.7818608E-02  0.1055509E+00
         -2   -1    0    0    0  501 -0.00000000000E+00  0.00000000000E+00  0.19304559160E+02  0.19304559329E+02  0.25500000000E-02 0. -1.
          2   -1    0    0  501    0  0.00000000000E+00 -0.00000000000E+00 -0.17525892979E+04  0.17525892979E+04  0.25500000000E-02 0.  1.
    5000001    1    1    2    0    0 -0.45548784954E+02  0.27784722425E+02 -0.14537359847E+04  0.14602479227E+04  0.12700000000E+03 0.  0.
   -5000001    1    1    2    0    0  0.45548784954E+02 -0.27784722425E+02 -0.27954875407E+03  0.31164593454E+03  0.12700000000E+03 0.  0.
<mgrwt>
<rscale>  0 0.36787478E+03</rscale>
<asrwt>0</asrwt>
<pdfrwt beam="1">  1        2 0.25036980E+00 0.36787478E+03</pdfrwt>
<pdfrwt beam="2">  1       -2 0.27577953E-02 0.36787478E+03</pdfrwt>
<totfact> 0.56186915E+03</totfact>
</mgrwt>
</event>
<event>
 4    1  0.1361667E-004  0.4452899E+03  0.7818608E-02  0.1029136E+00
          2   -1    0    0  501    0  0.00000000000E+00  0.00000000000E+00  0.35593857943E+04  0.35593857943E+04  0.25500000000E-02 0.  1.
         -2   -1    0    0    0  501 -0.00000000000E+00 -0.00000000000E+00 -0.13926778657E+02  0.13926778890E+02  0.25500000000E-02 0. -1.
    5000001    1    1    2    0    0  0.13606596577E+03  0.12048197297E+03  0.16098608283E+04  0.16250571495E+04  0.12700000000E+03 0.  0.
   -5000001    1    1    2    0    0 -0.13606596577E+03 -0.12048197297E+03  0.19355981874E+04  0.19482554237E+04  0.12700000000E+03 0.  0.
<mgrwt>
<rscale>  0 0.44528992E+03</rscale>
<asrwt>0</asrwt>
<pdfrwt beam="1">  1        2 0.50848386E+00 0.44528992E+03</pdfrwt>
<pdfrwt beam="2">  1       -2 0.19895391E-02 0.44528992E+03</pdfrwt>
<totfact> 0.10277807E+03</totfact>
</mgrwt>
</event>
<event>
 4    1  0.1361667E-004  0.5256501E+03  0.7818608E-02  0.1007293E+00
         -2   -1    0    0    0  501 -0.00000000000E+00  0.00000000000E+00  0.22636336209E+02  0.22636336353E+02  0.25500000000E-02 0. -1.
          2   -1    0    0  501    0  0.00000000000E+00 -0.00000000000E+00 -0.30515980010E+04  0.30515980010E+04  0.25500000000E-02 0.  1.
    5000001    1    1    2    0    0 -0.19325971845E+03 -0.10197493360E+03 -0.10927520339E+04  0.11215989539E+04  0.12700000000E+03 0.  0.
   -5000001    1    1    2    0    0  0.19325971845E+03  0.10197493360E+03 -0.19362096309E+04  0.19526353834E+04  0.12700000000E+03 0.  0.
<mgrwt>
<rscale>  0 0.52565007E+03</rscale>
<asrwt>0</asrwt>
<pdfrwt beam="1">  1        2 0.43594231E+00 0.52565007E+03</pdfrwt>
<pdfrwt beam="2">  1       -2 0.32337643E-02 0.52565007E+03</pdfrwt>
<totfact> 0.95421120E+02</totfact>
</mgrwt>
</event>
<event>
 4    1  0.1361667E-004  0.5660796E+03  0.7818608E-02  0.9978392E-01
          2   -1    0    0  501    0  0.00000000000E+00  0.00000000000E+00  0.76392280094E+03  0.76392280094E+03  0.25500000000E-02 0.  1.
         -2   -1    0    0    0  501 -0.00000000000E+00 -0.00000000000E+00 -0.10486862634E+03  0.10486862637E+03  0.25500000000E-02 0. -1.
    5000001    1    1    2    0    0  0.18623620732E+03  0.16913491500E+03  0.28915436475E+03  0.40376947760E+03  0.12700000000E+03 0.  0.
   -5000001    1    1    2    0    0 -0.18623620732E+03 -0.16913491500E+03  0.36989980985E+03  0.46502194971E+03  0.12700000000E+03 0.  0.
<mgrwt>
<rscale>  0 0.56607962E+03</rscale>
<asrwt>0</asrwt>
<pdfrwt beam="1">  1        2 0.10913182E+00 0.56607962E+03</pdfrwt>
<pdfrwt beam="2">  1       -2 0.14981233E-01 0.56607962E+03</pdfrwt>
<totfact> 0.14175916E+03</totfact>
</mgrwt>
</event>
<event>
 4    1  0.1361667E-004  0.3212140E+03  0.7818608E-02  0.1075092E+00
         -2   -1    0    0    0  501 -0.00000000000E+00  0.00000000000E+00  0.21768741443E+02  0.21768741593E+02  0.25500000000E-02 0. -1.
          2   -1    0    0  501    0  0.00000000000E+00 -0.00000000000E+00 -0.11849378146E+04  0.11849378146E+04  0.25500000000E-02 0.  1.
    5000001    1    1    2    0    0 -0.54540344507E+02  0.40771295278E+02 -0.31518512829E+03  0.34656545240E+03  0.12700000000E+03 0.  0.
   -5000001    1    1    2    0    0  0.54540344507E+02 -0.40771295278E+02 -0.84798394486E+03  0.86014110379E+03  0.12700000000E+03 0.  0.
<mgrwt>
<rscale>  0 0.32121398E+03</rscale>
<asrwt>0</asrwt>
<pdfrwt beam="1">  1        2 0.16927679E+00 0.32121398E+03</pdfrwt>
<pdfrwt beam="2">  1       -2 0.31098210E-02 0.32121398E+03</pdfrwt>
<totfact> 0.91974394E+03</totfact>
</mgrwt>
</event>
<event>
 4    1  0.1361667E-004  0.3976033E+03  0.7818608E-02  0.1044613E+00
          2   -1    0    0  501    0  0.00000000000E+00  0.00000000000E+00  0.11934840476E+04  0.11934840476E+04  0.25500000000E-02 0.  1.
         -2   -1    0    0    0  501 -0.00000000000E+00 -0.00000000000E+00 -0.33114886833E+02  0.33114886931E+02  0.25500000000E-02 0. -1.
    5000001    1    1    2    0    0 -0.60735744210E+02  0.95436070977E+02  0.89774620884E+03  0.91371446839E+03  0.12700000000E+03 0.  0.
   -5000001    1    1    2    0    0  0.60735744210E+02 -0.95436070977E+02  0.26262295190E+03  0.31288446611E+03  0.12700000000E+03 0.  0.
<mgrwt>
<rscale>  0 0.39760327E+03</rscale>
<asrwt>0</asrwt>
<pdfrwt beam="1">  1        2 0.17049770E+00 0.39760327E+03</pdfrwt>
<pdfrwt beam="2">  1       -2 0.47306986E-02 0.39760327E+03</pdfrwt>
<totfact> 0.48392930E+03</totfact>
</mgrwt>
</event>
<event>
 4    1  0.1361667E-004  0.2888401E+03  0.7818608E-02  0.1090956E+00
          2   -1    0    0  501    0  0.00000000000E+00  0.00000000000E+00  0.97382839107E+03  0.97382839108E+03  0.25500000000E-02 0.  1.
         -2   -1    0    0    0  501 -0.00000000000E+00 -0.00000000000E+00 -0.21417691383E+02  0.21417691534E+02  0.25500000000E-02 0. -1.
    5000001    1    1    2    0    0  0.63015871428E+02  0.21910487081E+02  0.53356158493E+03  0.55251066452E+03  0.12700000000E+03 0.  0.
   -5000001    1    1    2    0    0 -0.63015871428E+02 -0.21910487081E+02  0.41884911476E+03  0.44273541809E+03  0.12700000000E+03 0.  0.
<mgrwt>
<rscale>  0 0.28884014E+03</rscale>
<asrwt>0</asrwt>
<pdfrwt beam="1">  1        2 0.13911836E+00 0.28884014E+03</pdfrwt>
<pdfrwt beam="2">  1       -2 0.30596697E-02 0.28884014E+03</pdfrwt>
<totfact> 0.12406498E+04</totfact>
</mgrwt>
</event>
<event>
 4    1  0.1361667E-004  0.3098414E+03  0.7818608E-02  0.1080422E+00
         -2   -1    0    0    0  501 -0.00000000000E+00  0.00000000000E+00  0.46176288485E+03  0.46176288486E+03  0.25500000000E-02 0. -1.
          2   -1    0    0  501    0  0.00000000000E+00 -0.00000000000E+00 -0.51975631609E+02  0.51975631672E+02  0.25500000000E-02 0.  1.
    5000001    1    1    2    0    0  0.70760965501E+01  0.83859229217E+02  0.15832057788E+03  0.21971992820E+03  0.12700000000E+03 0.  0.
   -5000001    1    1    2    0    0 -0.70760965501E+01 -0.83859229217E+02  0.25146667537E+03  0.29401858834E+03  0.12700000000E+03 0.  0.
<mgrwt>
<rscale>  0 0.30984136E+03</rscale>
<asrwt>0</asrwt>
<pdfrwt beam="1">  1        2 0.74250905E-02 0.30984136E+03</pdfrwt>
<pdfrwt beam="2">  1       -2 0.65966124E-01 0.30984136E+03</pdfrwt>
<totfact> 0.20320892E+03</totfact>
</mgrwt>
</event>
<event>
 4    1  0.1361667E-004  0.3946969E+03  0.7818608E-02  0.1045632E+00
          2   -1    0    0  501    0  0.00000000000E+00  0.00000000000E+00  0.27809644230E+03  0.27809644232E+03  0.25500000000E-02 0.  1.
         -2   -1    0    0    0  501 -0.00000000000E+00 -0.00000000000E+00 -0.14004644552E+03  0.14004644554E+03  0.25500000000E-02 0. -1.
    5000001    1    1    2    0    0 -0.50209694687E+02 -0.90136836015E+02 -0.47854292708E+02  0.17048371177E+03  0.12700000000E+03 0.  0.
   -5000001    1    1    2    0    0  0.50209694687E+02  0.90136836015E+02  0.18590428950E+03  0.24765917609E+03  0.12700000000E+03 0.  0.
<mgrwt>
<rscale>  0 0.39469694E+03</rscale>
<asrwt>0</asrwt>
<pdfrwt beam="1">  1        2 0.39728063E-01 0.39469694E+03</pdfrwt>
<pdfrwt beam="2">  1       -2 0.20006635E-01 0.39469694E+03</pdfrwt>
<totfact> 0.27233014E+03</totfact>
</mgrwt>
</event>
<event>
 4    1  0.1361667E-004  0.4984586E+03  0.7818608E-02  0.1014182E+00
          2   -1    0    0  501    0  0.00000000000E+00  0.00000000000E+00  0.58407785822E+03  0.58407785822E+03  0.25500000000E-02 0.  1.
         -2   -1    0    0    0  501 -0.00000000000E+00 -0.00000000000E+00 -0.10634755506E+03  0.10634755509E+03  0.25500000000E-02 0. -1.
    5000001    1    1    2    0    0  0.17452625381E+03 -0.27463656031E+02  0.40721623582E+03  0.46170090793E+03  0.12700000000E+03 0.  0.
   -5000001    1    1    2    0    0 -0.17452625381E+03  0.27463656031E+02  0.70514067336E+02  0.22872450538E+03  0.12700000000E+03 0.  0.
<mgrwt>
<rscale>  0 0.49845863E+03</rscale>
<asrwt>0</asrwt>
<pdfrwt beam="1">  1        2 0.83439694E-01 0.49845863E+03</pdfrwt>
<pdfrwt beam="2">  1       -2 0.15192508E-01 0.49845863E+03</pdfrwt>
<totfact> 0.19134863E+03</totfact>
</mgrwt>
</event>
<event>
 4    1  0.1361667E-004  0.3082645E+03  0.7818608E-02  0.1081181E+00
         -2   -1    0    0    0  501 -0.00000000000E+00  0.00000000000E+00  0.12771655283E+02  0.12771655537E+02  0.25500000000E-02 0.  1.
          2   -1    0    0  501    0  0.00000000000E+00 -0.00000000000E+00 -0.18601149199E+04  0.18601149199E+04  0.25500000000E-02 0. -1.
    5000001    1    1    2    0    0  0.29721918533E+02  0.71074013034E+02 -0.11736462002E+04  0.11830085845E+04  0.12700000000E+03 0.  0.
   -5000001    1    1    2    0    0 -0.29721918533E+02 -0.71074013034E+02 -0.67369706445E+03  0.68987799097E+03  0.12700000000E+03 0.  0.
<mgrwt>
<rscale>  0 0.30826448E+03</rscale>
<asrwt>0</asrwt>
<pdfrwt beam="1">  1        2 0.26573053E+00 0.30826448E+03</pdfrwt>
<pdfrwt beam="2">  1       -2 0.18245234E-02 0.30826448E+03</pdfrwt>
<totfact> 0.91679853E+03</totfact>
</mgrwt>
</event>
<event>
 4    1  0.1361667E-004  0.3236315E+03  0.7818608E-02  0.1073990E+00
         -2   -1    0    0    0  501 -0.00000000000E+00  0.00000000000E+00  0.84524703868E+02  0.84524703906E+02  0.25500000000E-02 0. -1.
          2   -1    0    0  501    0  0.00000000000E+00 -0.00000000000E+00 -0.30978331752E+03  0.30978331753E+03  0.25500000000E-02 0.  1.
    5000001    1    1    2    0    0 -0.89676157413E+02 -0.26002731611E+02 -0.68072560141E+02  0.17169982150E+03  0.12700000000E+03 0.  0.
   -5000001    1    1    2    0    0  0.89676157413E+02  0.26002731611E+02 -0.15718605351E+03  0.22260819993E+03  0.12700000000E+03 0.  0.
<mgrwt>
<rscale>  0 0.32363154E+03</rscale>
<asrwt>0</asrwt>
<pdfrwt beam="1">  1        2 0.44254759E-01 0.32363154E+03</pdfrwt>
<pdfrwt beam="2">  1       -2 0.12074958E-01 0.32363154E+03</pdfrwt>
<totfact> 0.56045974E+03</totfact>
</mgrwt>
</event>
<event>
 4    1  0.1361667E-004  0.3652848E+03  0.7818608E-02  0.1056511E+00
          2   -1    0    0  501    0  0.00000000000E+00  0.00000000000E+00  0.10861877945E+04  0.10861877945E+04  0.25500000000E-02 0.  1.
         -2   -1    0    0    0  501 -0.00000000000E+00 -0.00000000000E+00 -0.30711304079E+02  0.30711304185E+02  0.25500000000E-02 0. -1.
    5000001    1    1    2    0    0  0.36875848226E+01 -0.10599929360E+03  0.76418072779E+03  0.78188914384E+03  0.12700000000E+03 0.  0.
   -5000001    1    1    2    0    0 -0.36875848226E+01  0.10599929360E+03  0.29129576267E+03  0.33500995489E+03  0.12700000000E+03 0.  0.
<mgrwt>
<rscale>  0 0.36528479E+03</rscale>
<asrwt>0</asrwt>
<pdfrwt beam="1">  1        2 0.15516962E+00 0.36528479E+03</pdfrwt>
<pdfrwt beam="2">  1       -2 0.43873309E-02 0.36528479E+03</pdfrwt>
<totfact> 0.62319264E+03</totfact>
</mgrwt>
</event>
<event>
 4    1  0.1361667E-004  0.3070175E+03  0.7818608E-02  0.1081784E+00
         -2   -1    0    0    0  501 -0.00000000000E+00  0.00000000000E+00  0.14295389904E+02  0.14295390132E+02  0.25500000000E-02 0. -1.
          2   -1    0    0  501    0  0.00000000000E+00 -0.00000000000E+00 -0.16484287290E+04  0.16484287290E+04  0.25500000000E-02 0.  1.
    5000001    1    1    2    0    0  0.77221714015E+02  0.29597906279E+02 -0.94935940985E+03  0.96138000720E+03  0.12700000000E+03 0.  0.
   -5000001    1    1    2    0    0 -0.77221714015E+02 -0.29597906279E+02 -0.68477392927E+03  0.70134411196E+03  0.12700000000E+03 0.  0.
<mgrwt>
<rscale>  0 0.30701747E+03</rscale>
<asrwt>0</asrwt>
<pdfrwt beam="1">  1        2 0.23548970E+00 0.30701747E+03</pdfrwt>
<pdfrwt beam="2">  1       -2 0.20421996E-02 0.30701747E+03</pdfrwt>
<totfact> 0.98754966E+03</totfact>
</mgrwt>
</event>
<event>
 4    1  0.1361667E-004  0.4921052E+03  0.7818608E-02  0.1015860E+00
          2   -1    0    0  501    0  0.00000000000E+00  0.00000000000E+00  0.57975700292E+03  0.57975700293E+03  0.25500000000E-02 0.  1.
         -2   -1    0    0    0  501 -0.00000000000E+00 -0.00000000000E+00 -0.10442630850E+03  0.10442630853E+03  0.25500000000E-02 0. -1.
    5000001    1    1    2    0    0 -0.16634717759E+03 -0.12740000316E+03  0.20624476856E+03  0.32026246869E+03  0.12700000000E+03 0.  0.
   -5000001    1    1    2    0    0  0.16634717759E+03  0.12740000316E+03  0.26908592587E+03  0.36392084276E+03  0.12700000000E+03 0.  0.
<mgrwt>
<rscale>  0 0.49210521E+03</rscale>
<asrwt>0</asrwt>
<pdfrwt beam="1">  1        2 0.82822427E-01 0.49210521E+03</pdfrwt>
<pdfrwt beam="2">  1       -2 0.14918044E-01 0.49210521E+03</pdfrwt>
<totfact> 0.19898706E+03</totfact>
</mgrwt>
</event>
<event>
 4    1  0.1361667E-004  0.3392280E+03  0.7818608E-02  0.1067125E+00
         -2   -1    0    0    0  501 -0.00000000000E+00  0.00000000000E+00  0.16414421619E+03  0.16414421621E+03  0.25500000000E-02 0. -1.
          2   -1    0    0  501    0  0.00000000000E+00 -0.00000000000E+00 -0.17526601949E+03  0.17526601950E+03  0.25500000000E-02 0.  1.
    5000001    1    1    2    0    0  0.77227608603E+02  0.49471100015E+02  0.59500263734E+02  0.16757319192E+03  0.12700000000E+03 0.  0.
   -5000001    1    1    2    0    0 -0.77227608603E+02 -0.49471100015E+02 -0.70622067028E+02  0.17183704379E+03  0.12700000000E+03 0.  0.
<mgrwt>
<rscale>  0 0.33922797E+03</rscale>
<asrwt>0</asrwt>
<pdfrwt beam="1">  1        2 0.25038003E-01 0.33922797E+03</pdfrwt>
<pdfrwt beam="2">  1       -2 0.23449174E-01 0.33922797E+03</pdfrwt>
<totfact> 0.34303132E+03</totfact>
</mgrwt>
</event>
<event>
 4    1  0.1361667E-004  0.4352495E+03  0.7818608E-02  0.1032214E+00
          2   -1    0    0  501    0  0.00000000000E+00  0.00000000000E+00  0.19363102243E+04  0.19363102243E+04  0.25500000000E-02 0.  1.
         -2   -1    0    0    0  501 -0.00000000000E+00 -0.00000000000E+00 -0.24459161189E+02  0.24459161321E+02  0.25500000000E-02 0. -1.
    5000001    1    1    2    0    0  0.12195723191E+03  0.12293500801E+03  0.11148763356E+04  0.11353699073E+04  0.12700000000E+03 0.  0.
   -5000001    1    1    2    0    0 -0.12195723191E+03 -0.12293500801E+03  0.79697472752E+03  0.82539947838E+03  0.12700000000E+03 0.  0.
<mgrwt>
<rscale>  0 0.43524946E+03</rscale>
<asrwt>0</asrwt>
<pdfrwt beam="1">  1        2 0.27661579E+00 0.43524946E+03</pdfrwt>
<pdfrwt beam="2">  1       -2 0.34941654E-02 0.43524946E+03</pdfrwt>
<totfact> 0.31864378E+03</totfact>
</mgrwt>
</event>
<event>
 4    1  0.1361667E-004  0.3481797E+03  0.7818608E-02  0.1063365E+00
         -2   -1    0    0    0  501 -0.00000000000E+00  0.00000000000E+00  0.10013758240E+02  0.10013758565E+02  0.25500000000E-02 0. -1.
          2   -1    0    0  501    0  0.00000000000E+00 -0.00000000000E+00 -0.30265642667E+04  0.30265642667E+04  0.25500000000E-02 0.  1.
    5000001    1    1    2    0    0  0.65172229371E+02 -0.99447059937E+02 -0.15642182273E+04  0.15738630181E+04  0.12700000000E+03 0.  0.
   -5000001    1    1    2    0    0 -0.65172229371E+02  0.99447059937E+02 -0.14523322812E+04  0.14627150071E+04  0.12700000000E+03 0.  0.
<mgrwt>
<rscale>  0 0.34817974E+03</rscale>
<asrwt>0</asrwt>
<pdfrwt beam="1">  1        2 0.43236574E+00 0.34817974E+03</pdfrwt>
<pdfrwt beam="2">  1       -2 0.14305388E-02 0.34817974E+03</pdfrwt>
<totfact> 0.33808794E+03</totfact>
</mgrwt>
</event>
<event>
 4    1  0.1361667E-004  0.8932886E+03  0.7818608E-02  0.9434010E-01
          2   -1    0    0  501    0  0.00000000000E+00  0.00000000000E+00  0.21709592088E+04  0.21709592088E+04  0.25500000000E-02 0.  1.
         -2   -1    0    0    0  501 -0.00000000000E+00 -0.00000000000E+00 -0.91890786127E+02  0.91890786162E+02  0.25500000000E-02 0. -1.
    5000001    1    1    2    0    0  0.81283746200E+01 -0.38178317283E+03  0.15303264746E+04  0.15823566540E+04  0.12700000000E+03 0.  0.
   -5000001    1    1    2    0    0 -0.81283746200E+01  0.38178317283E+03  0.54874194800E+03  0.68049334091E+03  0.12700000000E+03 0.  0.
<mgrwt>
<rscale>  0 0.89328864E+03</rscale>
<asrwt>0</asrwt>
<pdfrwt beam="1">  1        2 0.31013702E+00 0.89328864E+03</pdfrwt>
<pdfrwt beam="2">  1       -2 0.13127256E-01 0.89328864E+03</pdfrwt>
<totfact> 0.29078814E+02</totfact>
</mgrwt>
</event>
<event>
 4    1  0.1361667E-004  0.3999783E+03  0.7818608E-02  0.1043787E+00
         -2   -1    0    0    0  501 -0.00000000000E+00  0.00000000000E+00  0.90327069253E+01  0.90327072853E+01  0.25500000000E-02 0. -1.
          2   -1    0    0  501    0  0.00000000000E+00 -0.00000000000E+00 -0.44278715248E+04  0.44278715248E+04  0.25500000000E-02 0.  1.
    5000001    1    1    2    0    0  0.13860156183E+03 -0.50005792136E+02 -0.16943838839E+04  0.17055136230E+04  0.12700000000E+03 0.  0.
   -5000001    1    1    2    0    0 -0.13860156183E+03  0.50005792136E+02 -0.27244549339E+04  0.27313906091E+04  0.12700000000E+03 0.  0.
<mgrwt>
<rscale>  0 0.39997833E+03</rscale>
<asrwt>0</asrwt>
<pdfrwt beam="1">  1        2 0.63255168E+00 0.39997833E+03</pdfrwt>
<pdfrwt beam="2">  1       -2 0.12903896E-02 0.39997833E+03</pdfrwt>
<totfact> 0.52186634E+02</totfact>
</mgrwt>
</event>
<event>
 4    1  0.1361667E-004  0.4335572E+03  0.7818608E-02  0.1032742E+00
          2   -1    0    0  501    0  0.00000000000E+00  0.00000000000E+00  0.10954621931E+04  0.10954621931E+04  0.25500000000E-02 0.  1.
         -2   -1    0    0    0  501 -0.00000000000E+00 -0.00000000000E+00 -0.42897849153E+02  0.42897849229E+02  0.25500000000E-02 0. -1.
    5000001    1    1    2    0    0  0.94016420988E+02 -0.11355623561E+03  0.77716179632E+03  0.80115139875E+03  0.12700000000E+03 0.  0.
   -5000001    1    1    2    0    0 -0.94016420988E+02  0.11355623561E+03  0.27540254759E+03  0.33720864354E+03  0.12700000000E+03 0.  0.
<mgrwt>
<rscale>  0 0.43355725E+03</rscale>
<asrwt>0</asrwt>
<pdfrwt beam="1">  1        2 0.15649460E+00 0.43355725E+03</pdfrwt>
<pdfrwt beam="2">  1       -2 0.61282641E-02 0.43355725E+03</pdfrwt>
<totfact> 0.36887348E+03</totfact>
</mgrwt>
</event>
<event>
 4    1  0.1361667E-004  0.3268022E+03  0.7818608E-02  0.1072561E+00
         -2   -1    0    0    0  501 -0.00000000000E+00  0.00000000000E+00  0.35309922419E+02  0.35309922512E+02  0.25500000000E-02 0. -1.
          2   -1    0    0  501    0  0.00000000000E+00 -0.00000000000E+00 -0.75615897138E+03  0.75615897138E+03  0.25500000000E-02 0.  1.
    5000001    1    1    2    0    0 -0.51862719576E+02 -0.87770692801E+02 -0.39268878694E+03  0.42511988849E+03  0.12700000000E+03 0.  0.
   -5000001    1    1    2    0    0  0.51862719576E+02  0.87770692801E+02 -0.32816026202E+03  0.36634900541E+03  0.12700000000E+03 0.  0.
<mgrwt>
<rscale>  0 0.32680217E+03</rscale>
<asrwt>0</asrwt>
<pdfrwt beam="1">  1        2 0.10802270E+00 0.32680217E+03</pdfrwt>
<pdfrwt beam="2">  1       -2 0.50442751E-02 0.32680217E+03</pdfrwt>
<totfact> 0.80986936E+03</totfact>
</mgrwt>
</event>
<event>
 4    1  0.1361667E-004  0.4859099E+03  0.7818608E-02  0.1017524E+00
         -2   -1    0    0    0  501 -0.00000000000E+00  0.00000000000E+00  0.15671261425E+03  0.15671261427E+03  0.25500000000E-02 0. -1.
          2   -1    0    0  501    0  0.00000000000E+00 -0.00000000000E+00 -0.37665823088E+03  0.37665823089E+03  0.25500000000E-02 0.  1.
    5000001    1    1    2    0    0  0.94005232095E+02  0.11688576422E+03  0.46801972762E+02  0.20203635859E+03  0.12700000000E+03 0.  0.
   -5000001    1    1    2    0    0 -0.94005232095E+02 -0.11688576422E+03 -0.26674758940E+03  0.33133448657E+03  0.12700000000E+03 0.  0.
<mgrwt>
<rscale>  0 0.48590985E+03</rscale>
<asrwt>0</asrwt>
<pdfrwt beam="1">  1        2 0.53808318E-01 0.48590985E+03</pdfrwt>
<pdfrwt beam="2">  1       -2 0.22387517E-01 0.48590985E+03</pdfrwt>
<totfact> 0.16101641E+03</totfact>
</mgrwt>
</event>
<event>
 4    1  0.1361667E-004  0.3113535E+03  0.7818608E-02  0.1079699E+00
         -2   -1    0    0    0  501 -0.00000000000E+00  0.00000000000E+00  0.16539632017E+02  0.16539632213E+02  0.25500000000E-02 0. -1.
          2   -1    0    0  501    0  0.00000000000E+00 -0.00000000000E+00 -0.14652838752E+04  0.14652838752E+04  0.25500000000E-02 0.  1.
    5000001    1    1    2    0    0  0.18273433431E+02  0.75408428385E+02 -0.50700686576E+03  0.52839881848E+03  0.12700000000E+03 0.  0.
   -5000001    1    1    2    0    0 -0.18273433431E+02 -0.75408428385E+02 -0.94173737744E+03  0.95342468895E+03  0.12700000000E+03 0.  0.
<mgrwt>
<rscale>  0 0.31135354E+03</rscale>
<asrwt>0</asrwt>
<pdfrwt beam="1">  1        2 0.20932619E+00 0.31135354E+03</pdfrwt>
<pdfrwt beam="2">  1       -2 0.23628055E-02 0.31135354E+03</pdfrwt>
<totfact> 0.98441769E+03</totfact>
</mgrwt>
</event>
<event>
 4    1  0.1361667E-004  0.2697842E+03  0.7818608E-02  0.1101403E+00
         -2   -1    0    0    0  501 -0.00000000000E+00  0.00000000000E+00  0.41517860478E+02  0.41517860557E+02  0.25500000000E-02 0. -1.
          2   -1    0    0  501    0  0.00000000000E+00 -0.00000000000E+00 -0.43826634784E+03  0.43826634785E+03  0.25500000000E-02 0.  1.
    5000001    1    1    2    0    0 -0.45452440252E+02 -0.96586000450E+00 -0.19809935530E+03  0.23966479044E+03  0.12700000000E+03 0.  0.
   -5000001    1    1    2    0    0  0.45452440252E+02  0.96586000450E+00 -0.19864913207E+03  0.24011941796E+03  0.12700000000E+03 0.  0.
<mgrwt>
<rscale>  0 0.26978422E+03</rscale>
<asrwt>0</asrwt>
<pdfrwt beam="1">  1        2 0.62609476E-01 0.26978422E+03</pdfrwt>
<pdfrwt beam="2">  1       -2 0.59311232E-02 0.26978422E+03</pdfrwt>
<totfact> 0.11705362E+04</totfact>
</mgrwt>
</event>
<event>
 4    1  0.1361667E-004  0.4484314E+03  0.7818608E-02  0.1028191E+00
         -2   -1    0    0    0  501 -0.00000000000E+00  0.00000000000E+00  0.94819175697E+02  0.94819175731E+02  0.25500000000E-02 0. -1.
          2   -1    0    0  501    0  0.00000000000E+00 -0.00000000000E+00 -0.53019526680E+03  0.53019526680E+03  0.25500000000E-02 0.  1.
    5000001    1    1    2    0    0  0.13225725846E+03  0.12874386585E+03 -0.22989557706E+03  0.32101081253E+03  0.12700000000E+03 0.  0.
   -5000001    1    1    2    0    0 -0.13225725846E+03 -0.12874386585E+03 -0.20548051404E+03  0.30400363001E+03  0.12700000000E+03 0.  0.
<mgrwt>
<rscale>  0 0.44843139E+03</rscale>
<asrwt>0</asrwt>
<pdfrwt beam="1">  1        2 0.75742179E-01 0.44843139E+03</pdfrwt>
<pdfrwt beam="2">  1       -2 0.13545597E-01 0.44843139E+03</pdfrwt>
<totfact> 0.25873420E+03</totfact>
</mgrwt>
</event>
<event>
 4    1  0.1361667E-004  0.4725203E+03  0.7818608E-02  0.1021211E+00
         -2   -1    0    0    0  501 -0.00000000000E+00  0.00000000000E+00  0.22234085723E+02  0.22234085870E+02  0.25500000000E-02 0. -1.
          2   -1    0    0  501    0  0.00000000000E+00 -0.00000000000E+00 -0.25105082472E+04  0.25105082472E+04  0.25500000000E-02 0.  1.
    5000001    1    1    2    0    0  0.16231772897E+03 -0.55683211457E+02 -0.70167801032E+03  0.73343622445E+03  0.12700000000E+03 0.  0.
   -5000001    1    1    2    0    0 -0.16231772897E+03  0.55683211457E+02 -0.17865961511E+04  0.17993061086E+04  0.12700000000E+03 0.  0.
<mgrwt>
<rscale>  0 0.47252029E+03</rscale>
<asrwt>0</asrwt>
<pdfrwt beam="1">  1        2 0.35864385E+00 0.47252029E+03</pdfrwt>
<pdfrwt beam="2">  1       -2 0.31762996E-02 0.47252029E+03</pdfrwt>
<totfact> 0.18963813E+03</totfact>
</mgrwt>
</event>
<event>
 4    1  0.1361667E-004  0.9099480E+03  0.7818608E-02  0.9413231E-01
         -2   -1    0    0    0  501 -0.00000000000E+00  0.00000000000E+00  0.20433817712E+03  0.20433817713E+03  0.25500000000E-02 0. -1.
          2   -1    0    0  501    0  0.00000000000E+00 -0.00000000000E+00 -0.10130330095E+04  0.10130330095E+04  0.25500000000E-02 0.  1.
    5000001    1    1    2    0    0 -0.30273736026E+03 -0.31482019246E+03 -0.39027420289E+03  0.59933681376E+03  0.12700000000E+03 0.  0.
   -5000001    1    1    2    0    0  0.30273736026E+03  0.31482019246E+03 -0.41842062950E+03  0.61803437289E+03  0.12700000000E+03 0.  0.
<mgrwt>
<rscale>  0 0.90994795E+03</rscale>
<asrwt>0</asrwt>
<pdfrwt beam="1">  1        2 0.14471900E+00 0.90994795E+03</pdfrwt>
<pdfrwt beam="2">  1       -2 0.29191169E-01 0.90994795E+03</pdfrwt>
<totfact> 0.29720369E+02</totfact>
</mgrwt>
</event>
<event>
 4    1  0.1361667E-004  0.8074420E+03  0.7818608E-02  0.9549307E-01
         -2   -1    0    0    0  501 -0.00000000000E+00  0.00000000000E+00  0.59873096850E+02  0.59873096904E+02  0.25500000000E-02 0. -1.
          2   -1    0    0  501    0  0.00000000000E+00 -0.00000000000E+00 -0.27222688240E+04  0.27222688240E+04  0.25500000000E-02 0.  1.
    5000001    1    1    2    0    0 -0.19245863330E+03  0.26302182257E+03 -0.63657453427E+03  0.72634491969E+03  0.12700000000E+03 0.  0.
   -5000001    1    1    2    0    0  0.19245863330E+03 -0.26302182257E+03 -0.20258211929E+04  0.20557970013E+04  0.12700000000E+03 0.  0.
<mgrwt>
<rscale>  0 0.80744205E+03</rscale>
<asrwt>0</asrwt>
<pdfrwt beam="1">  1        2 0.38889547E+00 0.80744205E+03</pdfrwt>
<pdfrwt beam="2">  1       -2 0.85533013E-02 0.80744205E+03</pdfrwt>
<totfact> 0.30639618E+02</totfact>
</mgrwt>
</event>
<event>
 4    1  0.1361667E-004  0.5822017E+03  0.7818608E-02  0.9943036E-01
          2   -1    0    0  501    0  0.00000000000E+00  0.00000000000E+00  0.60479578182E+03  0.60479578183E+03  0.25500000000E-02 0.  1.
         -2   -1    0    0    0  501 -0.00000000000E+00 -0.00000000000E+00 -0.14011291701E+03  0.14011291704E+03  0.25500000000E-02 0. -1.
    5000001    1    1    2    0    0  0.25192761477E+03 -0.60493217302E+02  0.18305699847E+03  0.34171013610E+03  0.12700000000E+03 0.  0.
   -5000001    1    1    2    0    0 -0.25192761477E+03  0.60493217302E+02  0.28162586634E+03  0.40319856276E+03  0.12700000000E+03 0.  0.
<mgrwt>
<rscale>  0 0.58220169E+03</rscale>
<asrwt>0</asrwt>
<pdfrwt beam="1">  1        2 0.86399399E-01 0.58220169E+03</pdfrwt>
<pdfrwt beam="2">  1       -2 0.20016131E-01 0.58220169E+03</pdfrwt>
<totfact> 0.11466695E+03</totfact>
</mgrwt>
</event>
<event>
 4    1  0.1361667E-004  0.5881633E+03  0.7818608E-02  0.9930272E-01
          2   -1    0    0  501    0  0.00000000000E+00  0.00000000000E+00  0.65311627297E+03  0.65311627298E+03  0.25500000000E-02 0.  1.
         -2   -1    0    0    0  501 -0.00000000000E+00 -0.00000000000E+00 -0.13241749676E+03  0.13241749678E+03  0.25500000000E-02 0. -1.
    5000001    1    1    2    0    0  0.21808673386E+03 -0.12870629815E+03  0.15495019222E+03  0.32290199246E+03  0.12700000000E+03 0.  0.
   -5000001    1    1    2    0    0 -0.21808673386E+03  0.12870629815E+03  0.36574858400E+03  0.46263177730E+03  0.12700000000E+03 0.  0.
<mgrwt>
<rscale>  0 0.58816332E+03</rscale>
<asrwt>0</asrwt>
<pdfrwt beam="1">  1        2 0.93302324E-01 0.58816332E+03</pdfrwt>
<pdfrwt beam="2">  1       -2 0.18916785E-01 0.58816332E+03</pdfrwt>
<totfact> 0.11542530E+03</totfact>
</mgrwt>
</event>
<event>
 4    1  0.1361667E-004  0.2844824E+03  0.7818608E-02  0.1093266E+00
         -2   -1    0    0    0  501 -0.00000000000E+00  0.00000000000E+00  0.13227852836E+02  0.13227853082E+02  0.25500000000E-02 0. -1.
          2   -1    0    0  501    0  0.00000000000E+00 -0.00000000000E+00 -0.15295425459E+04  0.15295425459E+04  0.25500000000E-02 0.  1.
    5000001    1    1    2    0    0  0.34702580307E+02 -0.46654940902E+02 -0.90393743757E+03  0.91466542716E+03  0.12700000000E+03 0.  0.
   -5000001    1    1    2    0    0 -0.34702580307E+02  0.46654940902E+02 -0.61237725546E+03  0.62810497180E+03  0.12700000000E+03 0.  0.
<mgrwt>
<rscale>  0 0.28448243E+03</rscale>
<asrwt>0</asrwt>
<pdfrwt beam="1">  1        2 0.21850597E+00 0.28448243E+03</pdfrwt>
<pdfrwt beam="2">  1       -2 0.18896943E-02 0.28448243E+03</pdfrwt>
<totfact> 0.12676470E+04</totfact>
</mgrwt>
</event>
<event>
 4    1  0.1361667E-004  0.4586419E+03  0.7818608E-02  0.1025176E+00
         -2   -1    0    0    0  501 -0.00000000000E+00  0.00000000000E+00  0.44824503145E+03  0.44824503145E+03  0.25500000000E-02 0.  1.
          2   -1    0    0  501    0  0.00000000000E+00 -0.00000000000E+00 -0.11731998956E+03  0.11731998959E+03  0.25500000000E-02 0. -1.
    5000001    1    1    2    0    0 -0.45606532328E+02 -0.15088536465E+03  0.32577387479E+02  0.20502837665E+03  0.12700000000E+03 0.  0.
   -5000001    1    1    2    0    0  0.45606532328E+02  0.15088536465E+03  0.29834765441E+03  0.36053664439E+03  0.12700000000E+03 0.  0.
<mgrwt>
<rscale>  0 0.45864192E+03</rscale>
<asrwt>0</asrwt>
<pdfrwt beam="1">  1        2 0.16759998E-01 0.45864192E+03</pdfrwt>
<pdfrwt beam="2">  1       -2 0.64035005E-01 0.45864192E+03</pdfrwt>
<totfact> 0.79384666E+02</totfact>
</mgrwt>
</event>
<event>
 4    1  0.1361667E-004  0.4030259E+03  0.7818608E-02  0.1042737E+00
         -2   -1    0    0    0  501 -0.00000000000E+00  0.00000000000E+00  0.37203086295E+03  0.37203086296E+03  0.25500000000E-02 0. -1.
          2   -1    0    0  501    0  0.00000000000E+00 -0.00000000000E+00 -0.10915083084E+03  0.10915083087E+03  0.25500000000E-02 0.  1.
    5000001    1    1    2    0    0  0.13221559430E+03  0.51334394784E+02  0.52584228094E+02  0.19751021368E+03  0.12700000000E+03 0.  0.
   -5000001    1    1    2    0    0 -0.13221559430E+03 -0.51334394784E+02  0.21029580401E+03  0.28367148015E+03  0.12700000000E+03 0.  0.
<mgrwt>
<rscale>  0 0.40302594E+03</rscale>
<asrwt>0</asrwt>
<pdfrwt beam="1">  1        2 0.15592976E-01 0.40302594E+03</pdfrwt>
<pdfrwt beam="2">  1       -2 0.53147267E-01 0.40302594E+03</pdfrwt>
<totfact> 0.12732337E+03</totfact>
</mgrwt>
</event>
<event>
 4    1  0.1361667E-004  0.4326826E+03  0.7818608E-02  0.1033016E+00
          2   -1    0    0  501    0  0.00000000000E+00  0.00000000000E+00  0.13640253785E+04  0.13640253785E+04  0.25500000000E-02 0.  1.
         -2   -1    0    0    0  501 -0.00000000000E+00 -0.00000000000E+00 -0.34312824676E+02  0.34312824771E+02  0.25500000000E-02 0. -1.
    5000001    1    1    2    0    0 -0.13022971438E+03  0.32649000318E+02  0.30138683042E+03  0.35353749063E+03  0.12700000000E+03 0.  0.
   -5000001    1    1    2    0    0  0.13022971438E+03 -0.32649000318E+02  0.10283257234E+04  0.10448007126E+04  0.12700000000E+03 0.  0.
<mgrwt>
<rscale>  0 0.43268263E+03</rscale>
<asrwt>0</asrwt>
<pdfrwt beam="1">  1        2 0.19486077E+00 0.43268263E+03</pdfrwt>
<pdfrwt beam="2">  1       -2 0.49018320E-02 0.43268263E+03</pdfrwt>
<totfact> 0.37091340E+03</totfact>
</mgrwt>
</event>
<event>
 4    1  0.1361667E-004  0.3480233E+03  0.7818608E-02  0.1063429E+00
         -2   -1    0    0    0  501 -0.00000000000E+00  0.00000000000E+00  0.45615735485E+02  0.45615735557E+02  0.25500000000E-02 0. -1.
          2   -1    0    0  501    0  0.00000000000E+00 -0.00000000000E+00 -0.66380738483E+03  0.66380738484E+03  0.25500000000E-02 0.  1.
    5000001    1    1    2    0    0  0.94879821319E+02  0.39225008305E+02 -0.18661519096E+03  0.24798187689E+03  0.12700000000E+03 0.  0.
   -5000001    1    1    2    0    0 -0.94879821319E+02 -0.39225008305E+02 -0.43157645839E+03  0.46144124350E+03  0.12700000000E+03 0.  0.
<mgrwt>
<rscale>  0 0.34802334E+03</rscale>
<asrwt>0</asrwt>
<pdfrwt beam="1">  1        2 0.94829620E-01 0.34802334E+03</pdfrwt>
<pdfrwt beam="2">  1       -2 0.65165341E-02 0.34802334E+03</pdfrwt>
<totfact> 0.63966083E+03</totfact>
</mgrwt>
</event>
<event>
 4    1  0.1361667E-004  0.3512380E+03  0.7818608E-02  0.1062108E+00
         -2   -1    0    0    0  501 -0.00000000000E+00  0.00000000000E+00  0.69050098192E+01  0.69050102900E+01  0.25500000000E-02 0. -1.
          2   -1    0    0  501    0  0.00000000000E+00 -0.00000000000E+00 -0.44666172309E+04  0.44666172309E+04  0.25500000000E-02 0.  1.
    5000001    1    1    2    0    0  0.30034266617E+02  0.98137288173E+02 -0.30533093485E+04  0.30576723111E+04  0.12700000000E+03 0.  0.
   -5000001    1    1    2    0    0 -0.30034266617E+02 -0.98137288173E+02 -0.14064028726E+04  0.14158499301E+04  0.12700000000E+03 0.  0.
<mgrwt>
<rscale>  0 0.35123802E+03</rscale>
<asrwt>0</asrwt>
<pdfrwt beam="1">  1        2 0.63808632E+00 0.35123802E+03</pdfrwt>
<pdfrwt beam="2">  1       -2 0.98643287E-03 0.35123802E+03</pdfrwt>
<totfact> 0.73116311E+02</totfact>
</mgrwt>
</event>
<event>
 4    1  0.1361667E-004  0.3670133E+03  0.7818608E-02  0.1055841E+00
          2   -1    0    0  501    0  0.00000000000E+00  0.00000000000E+00  0.22010390279E+04  0.22010390279E+04  0.25500000000E-02 0.  1.
         -2   -1    0    0    0  501 -0.00000000000E+00 -0.00000000000E+00 -0.15299453495E+02  0.15299453708E+02  0.25500000000E-02 0. -1.
    5000001    1    1    2    0    0  0.56234279677E+02 -0.11967672251E+03  0.10457503590E+04  0.10617003464E+04  0.12700000000E+03 0.  0.
   -5000001    1    1    2    0    0 -0.56234279677E+02  0.11967672251E+03  0.11399892154E+04  0.11546381353E+04  0.12700000000E+03 0.  0.
<mgrwt>
<rscale>  0 0.36701332E+03</rscale>
<asrwt>0</asrwt>
<pdfrwt beam="1">  1        2 0.31443394E+00 0.36701332E+03</pdfrwt>
<pdfrwt beam="2">  1       -2 0.21856377E-02 0.36701332E+03</pdfrwt>
<totfact> 0.47725115E+03</totfact>
</mgrwt>
</event>
<event>
 4    1  0.1361667E-004  0.3733363E+03  0.7818608E-02  0.1053425E+00
          2   -1    0    0  501    0  0.00000000000E+00  0.00000000000E+00  0.68741169051E+03  0.68741169051E+03  0.25500000000E-02 0.  1.
         -2   -1    0    0    0  501 -0.00000000000E+00 -0.00000000000E+00 -0.50690132674E+02  0.50690132738E+02  0.25500000000E-02 0. -1.
    5000001    1    1    2    0    0  0.96793315663E+02 -0.70798174130E+01  0.50898832596E+03  0.53349525372E+03  0.12700000000E+03 0.  0.
   -5000001    1    1    2    0    0 -0.96793315663E+02  0.70798174130E+01  0.12773323187E+03  0.20460656953E+03  0.12700000000E+03 0.  0.
<mgrwt>
<rscale>  0 0.37333625E+03</rscale>
<asrwt>0</asrwt>
<pdfrwt beam="1">  1        2 0.98201663E-01 0.37333625E+03</pdfrwt>
<pdfrwt beam="2">  1       -2 0.72414481E-02 0.37333625E+03</pdfrwt>
<totfact> 0.52147510E+03</totfact>
</mgrwt>
</event>
<event>
 4    1  0.1361667E-004  0.3387748E+03  0.7818608E-02  0.1067319E+00
          2   -1    0    0  501    0  0.00000000000E+00  0.00000000000E+00  0.15841209080E+04  0.15841209080E+04  0.25500000000E-02 0.  1.
         -2   -1    0    0    0  501 -0.00000000000E+00 -0.00000000000E+00 -0.18112308982E+02  0.18112309161E+02  0.25500000000E-02 0. -1.
    5000001    1    1    2    0    0 -0.81098853236E+02  0.70002278673E+02  0.62716446536E+03  0.64880013072E+03  0.12700000000E+03 0.  0.
   -5000001    1    1    2    0    0  0.81098853236E+02 -0.70002278673E+02  0.93884413370E+03  0.95343308649E+03  0.12700000000E+03 0.  0.
<mgrwt>
<rscale>  0 0.33877478E+03</rscale>
<asrwt>0</asrwt>
<pdfrwt beam="1">  1        2 0.22630305E+00 0.33877478E+03</pdfrwt>
<pdfrwt beam="2">  1       -2 0.25874720E-02 0.33877478E+03</pdfrwt>
<totfact> 0.74974673E+03</totfact>
</mgrwt>
</event>
<event>
 4    1  0.1361667E-004  0.3079557E+03  0.7818608E-02  0.1081330E+00
         -2   -1    0    0    0  501 -0.00000000000E+00  0.00000000000E+00  0.77638634631E+02  0.77638634673E+02  0.25500000000E-02 0. -1.
          2   -1    0    0  501    0  0.00000000000E+00 -0.00000000000E+00 -0.30537862085E+03  0.30537862086E+03  0.25500000000E-02 0.  1.
    5000001    1    1    2    0    0  0.50224628407E+02  0.65892322791E+02 -0.14714716896E+03  0.21129505634E+03  0.12700000000E+03 0.  0.
   -5000001    1    1    2    0    0 -0.50224628407E+02 -0.65892322791E+02 -0.80592817258E+02  0.17172219919E+03  0.12700000000E+03 0.  0.
<mgrwt>
<rscale>  0 0.30795571E+03</rscale>
<asrwt>0</asrwt>
<pdfrwt beam="1">  1        2 0.43625517E-01 0.30795571E+03</pdfrwt>
<pdfrwt beam="2">  1       -2 0.11091234E-01 0.30795571E+03</pdfrwt>
<totfact> 0.65188721E+03</totfact>
</mgrwt>
</event>
<event>
 4    1  0.1361667E-004  0.3308992E+03  0.7818608E-02  0.1070740E+00
          2   -1    0    0  501    0  0.00000000000E+00  0.00000000000E+00  0.33632430838E+03  0.33632430839E+03  0.25500000000E-02 0.  1.
         -2   -1    0    0    0  501 -0.00000000000E+00 -0.00000000000E+00 -0.81390415404E+02  0.81390415444E+02  0.25500000000E-02 0. -1.
    5000001    1    1    2    0    0  0.83719489019E+02  0.58967966247E+02  0.16223125213E+03  0.23007423379E+03  0.12700000000E+03 0.  0.
   -5000001    1    1    2    0    0 -0.83719489019E+02 -0.58967966247E+02  0.92702640843E+02  0.18764049004E+03  0.12700000000E+03 0.  0.
<mgrwt>
<rscale>  0 0.33089923E+03</rscale>
<asrwt>0</asrwt>
<pdfrwt beam="1">  1        2 0.48046329E-01 0.33089923E+03</pdfrwt>
<pdfrwt beam="2">  1       -2 0.11627202E-01 0.33089923E+03</pdfrwt>
<totfact> 0.54550221E+03</totfact>
</mgrwt>
</event>
<event>
 4    1  0.1361667E-004  0.7692107E+03  0.7818608E-02  0.9605685E-01
          2   -1    0    0  501    0  0.00000000000E+00  0.00000000000E+00  0.21320610502E+04  0.21320610502E+04  0.25500000000E-02 0.  1.
         -2   -1    0    0    0  501 -0.00000000000E+00 -0.00000000000E+00 -0.69379465467E+02  0.69379465514E+02  0.25500000000E-02 0. -1.
    5000001    1    1    2    0    0  0.24620028756E+03  0.24515319040E+03  0.73012047277E+03  0.81848614717E+03  0.12700000000E+03 0.  0.
   -5000001    1    1    2    0    0 -0.24620028756E+03 -0.24515319040E+03  0.13325611120E+04  0.13829543686E+04  0.12700000000E+03 0.  0.
<mgrwt>
<rscale>  0 0.76921065E+03</rscale>
<asrwt>0</asrwt>
<pdfrwt beam="1">  1        2 0.30458010E+00 0.76921065E+03</pdfrwt>
<pdfrwt beam="2">  1       -2 0.99113537E-02 0.76921065E+03</pdfrwt>
<totfact> 0.48792019E+02</totfact>
</mgrwt>
</event>
<event>
 4    1  0.1361667E-004  0.3806870E+03  0.7818608E-02  0.1050680E+00
          2   -1    0    0  501    0  0.00000000000E+00  0.00000000000E+00  0.28103914783E+04  0.28103914783E+04  0.25500000000E-02 0.  1.
         -2   -1    0    0    0  501 -0.00000000000E+00 -0.00000000000E+00 -0.12891670779E+02  0.12891671031E+02  0.25500000000E-02 0. -1.
    5000001    1    1    2    0    0 -0.14050669814E+03 -0.18746772590E+02  0.14198157473E+04  0.14325150365E+04  0.12700000000E+03 0.  0.
   -5000001    1    1    2    0    0  0.14050669814E+03  0.18746772590E+02  0.13776840603E+04  0.13907681128E+04  0.12700000000E+03 0.  0.
<mgrwt>
<rscale>  0 0.38068697E+03</rscale>
<asrwt>0</asrwt>
<pdfrwt beam="1">  1        2 0.40148517E+00 0.38068697E+03</pdfrwt>
<pdfrwt beam="2">  1       -2 0.18416642E-02 0.38068697E+03</pdfrwt>
<totfact> 0.30231857E+03</totfact>
</mgrwt>
</event>
<event>
 4    1  0.1361667E-004  0.5061671E+03  0.7818608E-02  0.1012182E+00
          2   -1    0    0  501    0  0.00000000000E+00  0.00000000000E+00  0.71771043042E+02  0.71771043087E+02  0.25500000000E-02 0.  1.
         -2   -1    0    0    0  501 -0.00000000000E+00 -0.00000000000E+00 -0.89243905874E+03  0.89243905874E+03  0.25500000000E-02 0. -1.
    5000001    1    1    2    0    0  0.37591054856E+02 -0.16188995714E+03 -0.13891845241E+03  0.25109516532E+03  0.12700000000E+03 0.  0.
   -5000001    1    1    2    0    0 -0.37591054856E+02  0.16188995714E+03 -0.68174956329E+03  0.71311493651E+03  0.12700000000E+03 0.  0.
<mgrwt>
<rscale>  0 0.50616710E+03</rscale>
<asrwt>0</asrwt>
<pdfrwt beam="1">  1        2 0.10253007E-01 0.50616710E+03</pdfrwt>
<pdfrwt beam="2">  1       -2 0.12749129E+00 0.50616710E+03</pdfrwt>
<totfact> 0.29774698E+02</totfact>
</mgrwt>
</event>
<event>
 4    1  0.1361667E-004  0.2984725E+03  0.7818608E-02  0.1086007E+00
          2   -1    0    0  501    0  0.00000000000E+00  0.00000000000E+00  0.76633832546E+02  0.76633832588E+02  0.25500000000E-02 0.  1.
         -2   -1    0    0    0  501 -0.00000000000E+00 -0.00000000000E+00 -0.29062167424E+03  0.29062167425E+03  0.25500000000E-02 0. -1.
    5000001    1    1    2    0    0  0.61749893713E+02  0.51683741513E+01 -0.47949087068E+02  0.14922424875E+03  0.12700000000E+03 0.  0.
   -5000001    1    1    2    0    0 -0.61749893713E+02 -0.51683741513E+01 -0.16603875462E+03  0.21803125808E+03  0.12700000000E+03 0.  0.
<mgrwt>
<rscale>  0 0.29847246E+03</rscale>
<asrwt>0</asrwt>
<pdfrwt beam="1">  1        2 0.10947691E-01 0.29847246E+03</pdfrwt>
<pdfrwt beam="2">  1       -2 0.41517381E-01 0.29847246E+03</pdfrwt>
<totfact> 0.31710007E+03</totfact>
</mgrwt>
</event>
<event>
 4    1  0.1361667E-004  0.5082019E+03  0.7818608E-02  0.1011660E+00
          2   -1    0    0  501    0  0.00000000000E+00  0.00000000000E+00  0.16836845974E+04  0.16836845974E+04  0.25500000000E-02 0.  1.
         -2   -1    0    0    0  501 -0.00000000000E+00 -0.00000000000E+00 -0.38348808821E+02  0.38348808906E+02  0.25500000000E-02 0. -1.
    5000001    1    1    2    0    0 -0.11623606207E+03 -0.95903837187E+02  0.13661992158E+04  0.13803396921E+04  0.12700000000E+03 0.  0.
   -5000001    1    1    2    0    0  0.11623606207E+03  0.95903837187E+02  0.27913657271E+03  0.34169371422E+03  0.12700000000E+03 0.  0.
<mgrwt>
<rscale>  0 0.50820192E+03</rscale>
<asrwt>0</asrwt>
<pdfrwt beam="1">  1        2 0.24052636E+00 0.50820192E+03</pdfrwt>
<pdfrwt beam="2">  1       -2 0.54784014E-02 0.50820192E+03</pdfrwt>
<totfact> 0.21350847E+03</totfact>
</mgrwt>
</event>
<event>
 4    1  0.1361667E-004  0.3788765E+03  0.7818608E-02  0.1051350E+00
          2   -1    0    0  501    0  0.00000000000E+00  0.00000000000E+00  0.21117419701E+04  0.21117419701E+04  0.25500000000E-02 0.  1.
         -2   -1    0    0    0  501 -0.00000000000E+00 -0.00000000000E+00 -0.16993955393E+02  0.16993955584E+02  0.25500000000E-02 0. -1.
    5000001    1    1    2    0    0  0.91992656405E+02 -0.95974418496E+02  0.13038723567E+04  0.13167709977E+04  0.12700000000E+03 0.  0.
   -5000001    1    1    2    0    0 -0.91992656405E+02  0.95974418496E+02  0.79087565803E+03  0.81196492800E+03  0.12700000000E+03 0.  0.
<mgrwt>
<rscale>  0 0.37887649E+03</rscale>
<asrwt>0</asrwt>
<pdfrwt beam="1">  1        2 0.30167735E+00 0.37887649E+03</pdfrwt>
<pdfrwt beam="2">  1       -2 0.24277085E-02 0.37887649E+03</pdfrwt>
<totfact> 0.45168792E+03</totfact>
</mgrwt>
</event>
<event>
 4    1  0.1361667E-004  0.3553202E+03  0.7818608E-02  0.1060452E+00
         -2   -1    0    0    0  501 -0.00000000000E+00  0.00000000000E+00  0.39070633837E+02  0.39070633920E+02  0.25500000000E-02 0. -1.
          2   -1    0    0  501    0  0.00000000000E+00 -0.00000000000E+00 -0.80784762031E+03  0.80784762031E+03  0.25500000000E-02 0.  1.
    5000001    1    1    2    0    0 -0.97921576006E+02 -0.12194307382E+02 -0.56429064623E+03  0.58676253255E+03  0.12700000000E+03 0.  0.
   -5000001    1    1    2    0    0  0.97921576006E+02  0.12194307382E+02 -0.20448634024E+03  0.26015572169E+03  0.12700000000E+03 0.  0.
<mgrwt>
<rscale>  0 0.35532024E+03</rscale>
<asrwt>0</asrwt>
<pdfrwt beam="1">  1        2 0.11540679E+00 0.35532024E+03</pdfrwt>
<pdfrwt beam="2">  1       -2 0.55815196E-02 0.35532024E+03</pdfrwt>
<totfact> 0.64027402E+03</totfact>
</mgrwt>
</event>
<event>
 4    1  0.1361667E-004  0.5867693E+03  0.7818608E-02  0.9933242E-01
         -2   -1    0    0    0  501 -0.00000000000E+00  0.00000000000E+00  0.50590570317E+02  0.50590570381E+02  0.25500000000E-02 0.  1.
          2   -1    0    0  501    0  0.00000000000E+00 -0.00000000000E+00 -0.17013950091E+04  0.17013950091E+04  0.25500000000E-02 0. -1.
    5000001    1    1    2    0    0 -0.18798246334E+03 -0.18602709743E+03 -0.82968392781E+03  0.88002721979E+03  0.12700000000E+03 0.  0.
   -5000001    1    1    2    0    0  0.18798246334E+03  0.18602709743E+03 -0.82112051093E+03  0.87195835966E+03  0.12700000000E+03 0.  0.
<mgrwt>
<rscale>  0 0.58676927E+03</rscale>
<asrwt>0</asrwt>
<pdfrwt beam="1">  1        2 0.24305639E+00 0.58676927E+03</pdfrwt>
<pdfrwt beam="2">  1       -2 0.72272254E-02 0.58676927E+03</pdfrwt>
<totfact> 0.13509819E+03</totfact>
</mgrwt>
</event>
<event>
 4    1  0.1361667E-004  0.3068457E+03  0.7818608E-02  0.1081868E+00
          2   -1    0    0  501    0  0.00000000000E+00  0.00000000000E+00  0.16295333854E+04  0.16295333854E+04  0.25500000000E-02 0.  1.
         -2   -1    0    0    0  501 -0.00000000000E+00 -0.00000000000E+00 -0.14444977987E+02  0.14444978212E+02  0.25500000000E-02 0. -1.
    5000001    1    1    2    0    0 -0.89490076355E+01  0.75516354216E+02  0.59145202540E+03  0.60969443399E+03  0.12700000000E+03 0.  0.
   -5000001    1    1    2    0    0  0.89490076355E+01 -0.75516354216E+02  0.10236363820E+04  0.10342839296E+04  0.12700000000E+03 0.  0.
<mgrwt>
<rscale>  0 0.30684572E+03</rscale>
<asrwt>0</asrwt>
<pdfrwt beam="1">  1        2 0.23279044E+00 0.30684572E+03</pdfrwt>
<pdfrwt beam="2">  1       -2 0.20635687E-02 0.30684572E+03</pdfrwt>
<totfact> 0.99377917E+03</totfact>
</mgrwt>
</event>
<event>
 4    1  0.1361667E-004  0.3764718E+03  0.7818608E-02  0.1052246E+00
         -2   -1    0    0    0  501 -0.00000000000E+00  0.00000000000E+00  0.42021544878E+03  0.42021544878E+03  0.25500000000E-02 0. -1.
          2   -1    0    0  501    0  0.00000000000E+00 -0.00000000000E+00 -0.84320433331E+02  0.84320433369E+02  0.25500000000E-02 0.  1.
    5000001    1    1    2    0    0 -0.73309533888E+02 -0.11276143059E+03  0.21464852595E+03  0.28335916728E+03  0.12700000000E+03 0.  0.
   -5000001    1    1    2    0    0  0.73309533888E+02  0.11276143059E+03  0.12124648950E+03  0.22117671488E+03  0.12700000000E+03 0.  0.
<mgrwt>
<rscale>  0 0.37647177E+03</rscale>
<asrwt>0</asrwt>
<pdfrwt beam="1">  1        2 0.12045776E-01 0.37647177E+03</pdfrwt>
<pdfrwt beam="2">  1       -2 0.60030778E-01 0.37647177E+03</pdfrwt>
<totfact> 0.13530625E+03</totfact>
</mgrwt>
</event>
<event>
 4    1  0.1361667E-004  0.7803406E+03  0.7818608E-02  0.9588917E-01
         -2   -1    0    0    0  501 -0.00000000000E+00  0.00000000000E+00  0.13098937056E+03  0.13098937058E+03  0.25500000000E-02 0. -1.
          2   -1    0    0  501    0  0.00000000000E+00 -0.00000000000E+00 -0.11621772377E+04  0.11621772377E+04  0.25500000000E-02 0.  1.
    5000001    1    1    2    0    0  0.91611228590E+02  0.32437998090E+03 -0.26707805219E+03  0.44841350913E+03  0.12700000000E+03 0.  0.
   -5000001    1    1    2    0    0 -0.91611228590E+02 -0.32437998090E+03 -0.76410981494E+03  0.84475309914E+03  0.12700000000E+03 0.  0.
<mgrwt>
<rscale>  0 0.78034060E+03</rscale>
<asrwt>0</asrwt>
<pdfrwt beam="1">  1        2 0.16602531E+00 0.78034060E+03</pdfrwt>
<pdfrwt beam="2">  1       -2 0.18712768E-01 0.78034060E+03</pdfrwt>
<totfact> 0.54072790E+02</totfact>
</mgrwt>
</event>
<event>
 4    1  0.1361667E-004  0.6114772E+03  0.7818608E-02  0.9881877E-01
          2   -1    0    0  501    0  0.00000000000E+00  0.00000000000E+00  0.92410501500E+03  0.92410501500E+03  0.25500000000E-02 0.  1.
         -2   -1    0    0    0  501 -0.00000000000E+00 -0.00000000000E+00 -0.10115309402E+03  0.10115309406E+03  0.25500000000E-02 0. -1.
    5000001    1    1    2    0    0  0.44576667947E+02 -0.25608688810E+03  0.24566567421E+03  0.37953681912E+03  0.12700000000E+03 0.  0.
   -5000001    1    1    2    0    0 -0.44576667947E+02  0.25608688810E+03  0.57728624676E+03  0.64572128994E+03  0.12700000000E+03 0.  0.
<mgrwt>
<rscale>  0 0.61147717E+03</rscale>
<asrwt>0</asrwt>
<pdfrwt beam="1">  1        2 0.13201500E+00 0.61147717E+03</pdfrwt>
<pdfrwt beam="2">  1       -2 0.14450442E-01 0.61147717E+03</pdfrwt>
<totfact> 0.11747745E+03</totfact>
</mgrwt>
</event>
<event>
 4    1  0.1361667E-004  0.3887551E+03  0.7818608E-02  0.1047744E+00
          2   -1    0    0  501    0  0.00000000000E+00  0.00000000000E+00  0.37440514792E+04  0.37440514792E+04  0.25500000000E-02 0.  1.
         -2   -1    0    0    0  501 -0.00000000000E+00 -0.00000000000E+00 -0.10091378036E+02  0.10091378359E+02  0.25500000000E-02 0. -1.
    5000001    1    1    2    0    0  0.45555837673E+02 -0.13028342815E+03  0.13741472280E+04  0.13868881391E+04  0.12700000000E+03 0.  0.
   -5000001    1    1    2    0    0 -0.45555837673E+02  0.13028342815E+03  0.23598128731E+04  0.23672547185E+04  0.12700000000E+03 0.  0.
<mgrwt>
<rscale>  0 0.38875514E+03</rscale>
<asrwt>0</asrwt>
<pdfrwt beam="1">  1        2 0.53486530E+00 0.38875514E+03</pdfrwt>
<pdfrwt beam="2">  1       -2 0.14416233E-02 0.38875514E+03</pdfrwt>
<totfact> 0.12900229E+03</totfact>
</mgrwt>
</event>
<event>
 4    1  0.1361667E-004  0.7595948E+03  0.7818608E-02  0.9620417E-01
         -2   -1    0    0    0  501 -0.00000000000E+00  0.00000000000E+00  0.29535298615E+03  0.29535298616E+03  0.25500000000E-02 0. -1.
          2   -1    0    0  501    0  0.00000000000E+00 -0.00000000000E+00 -0.48838533405E+03  0.48838533406E+03  0.25500000000E-02 0.  1.
    5000001    1    1    2    0    0  0.52940417721E+02  0.26780050609E+03 -0.33538552094E+03  0.45070194868E+03  0.12700000000E+03 0.  0.
   -5000001    1    1    2    0    0 -0.52940417721E+02 -0.26780050609E+03  0.14235317304E+03  0.33303637153E+03  0.12700000000E+03 0.  0.
<mgrwt>
<rscale>  0 0.75959480E+03</rscale>
<asrwt>0</asrwt>
<pdfrwt beam="1">  1        2 0.69769334E-01 0.75959480E+03</pdfrwt>
<pdfrwt beam="2">  1       -2 0.42193284E-01 0.75959480E+03</pdfrwt>
<totfact> 0.36949545E+02</totfact>
</mgrwt>
</event>
<event>
 4    1  0.1361667E-004  0.1067901E+04  0.7818608E-02  0.9237055E-01
          2   -1    0    0  501    0  0.00000000000E+00  0.00000000000E+00  0.58978366867E+03  0.58978366867E+03  0.25500000000E-02 0.  1.
         -2   -1    0    0    0  501 -0.00000000000E+00 -0.00000000000E+00 -0.48340265247E+03  0.48340265247E+03  0.25500000000E-02 0. -1.
    5000001    1    1    2    0    0  0.32550646861E+03  0.36024585958E+03 -0.13003703366E+03  0.51843048769E+03  0.12700000000E+03 0.  0.
   -5000001    1    1    2    0    0 -0.32550646861E+03 -0.36024585958E+03  0.23641804987E+03  0.55475583345E+03  0.12700000000E+03 0.  0.
<mgrwt>
<rscale>  0 0.10679007E+04</rscale>
<asrwt>0</asrwt>
<pdfrwt beam="1">  1        2 0.84254811E-01 0.10679007E+04</pdfrwt>
<pdfrwt beam="2">  1       -2 0.69057521E-01 0.10679007E+04</pdfrwt>
<totfact> 0.10558058E+02</totfact>
</mgrwt>
</event>
<event>
 4    1  0.1361667E-004  0.2865889E+03  0.7818608E-02  0.1092144E+00
         -2   -1    0    0    0  501 -0.00000000000E+00  0.00000000000E+00  0.74379421284E+02  0.74379421328E+02  0.25500000000E-02 0. -1.
          2   -1    0    0  501    0  0.00000000000E+00 -0.00000000000E+00 -0.27606163121E+03  0.27606163122E+03  0.25500000000E-02 0.  1.
    5000001    1    1    2    0    0  0.28536155771E+02 -0.27979989895E+02 -0.16562774481E+03  0.21250586315E+03  0.12700000000E+03 0.  0.
   -5000001    1    1    2    0    0 -0.28536155771E+02  0.27979989895E+02 -0.36054465115E+02  0.13793518940E+03  0.12700000000E+03 0.  0.
<mgrwt>
<rscale>  0 0.28658893E+03</rscale>
<asrwt>0</asrwt>
<pdfrwt beam="1">  1        2 0.39437375E-01 0.28658893E+03</pdfrwt>
<pdfrwt beam="2">  1       -2 0.10625632E-01 0.28658893E+03</pdfrwt>
<totfact> 0.77668323E+03</totfact>
</mgrwt>
</event>
<event>
 4    1  0.1361667E-004  0.4220872E+03  0.7818608E-02  0.1036389E+00
         -2   -1    0    0    0  501 -0.00000000000E+00  0.00000000000E+00  0.37305631246E+02  0.37305631333E+02  0.25500000000E-02 0. -1.
          2   -1    0    0  501    0  0.00000000000E+00 -0.00000000000E+00 -0.11939055914E+04  0.11939055914E+04  0.25500000000E-02 0.  1.
    5000001    1    1    2    0    0  0.15494046241E+03  0.17301382202E+02 -0.39142058780E+03  0.44005108939E+03  0.12700000000E+03 0.  0.
   -5000001    1    1    2    0    0 -0.15494046241E+03 -0.17301382202E+02 -0.76517937232E+03  0.79116013331E+03  0.12700000000E+03 0.  0.
<mgrwt>
<rscale>  0 0.42208720E+03</rscale>
<asrwt>0</asrwt>
<pdfrwt beam="1">  1        2 0.17055792E+00 0.42208720E+03</pdfrwt>
<pdfrwt beam="2">  1       -2 0.53293767E-02 0.42208720E+03</pdfrwt>
<totfact> 0.40291565E+03</totfact>
</mgrwt>
</event>
<event>
 4    1  0.1361667E-004  0.3832528E+03  0.7818608E-02  0.1049738E+00
          2   -1    0    0  501    0  0.00000000000E+00  0.00000000000E+00  0.66381048512E+02  0.66381048561E+02  0.25500000000E-02 0.  1.
         -2   -1    0    0    0  501 -0.00000000000E+00 -0.00000000000E+00 -0.55318021363E+03  0.55318021363E+03  0.25500000000E-02 0. -1.
    5000001    1    1    2    0    0  0.63065995939E+02  0.81905786262E+02 -0.82504128642E+02  0.18336250683E+03  0.12700000000E+03 0.  0.
   -5000001    1    1    2    0    0 -0.63065995939E+02 -0.81905786262E+02 -0.40429503647E+03  0.43619875537E+03  0.12700000000E+03 0.  0.
<mgrwt>
<rscale>  0 0.38325283E+03</rscale>
<asrwt>0</asrwt>
<pdfrwt beam="1">  1        2 0.94830073E-02 0.38325283E+03</pdfrwt>
<pdfrwt beam="2">  1       -2 0.79025742E-01 0.38325283E+03</pdfrwt>
<totfact> 0.10099486E+03</totfact>
</mgrwt>
</event>
<event>
 4    1  0.1361667E-004  0.9898953E+03  0.7818608E-02  0.9319697E-01
         -2   -1    0    0    0  501 -0.00000000000E+00  0.00000000000E+00  0.39218165988E+03  0.39218165989E+03  0.25500000000E-02 0.  1.
          2   -1    0    0  501    0  0.00000000000E+00 -0.00000000000E+00 -0.62464208779E+03  0.62464208779E+03  0.25500000000E-02 0. -1.
    5000001    1    1    2    0    0  0.25185058071E+03  0.36615723721E+03  0.65629265050E+02  0.46683620018E+03  0.12700000000E+03 0.  0.
   -5000001    1    1    2    0    0 -0.25185058071E+03 -0.36615723721E+03 -0.29808969295E+03  0.54998754751E+03  0.12700000000E+03 0.  0.
<mgrwt>
<rscale>  0 0.98989529E+03</rscale>
<asrwt>0</asrwt>
<pdfrwt beam="1">  1        2 0.89234583E-01 0.98989529E+03</pdfrwt>
<pdfrwt beam="2">  1       -2 0.56025952E-01 0.98989529E+03</pdfrwt>
<totfact> 0.15456867E+02</totfact>
</mgrwt>
</event>
<event>
 4    1  0.1361667E-004  0.6204281E+03  0.7818608E-02  0.9863908E-01
          2   -1    0    0  501    0  0.00000000000E+00  0.00000000000E+00  0.56848637380E+03  0.56848637380E+03  0.25500000000E-02 0.  1.
         -2   -1    0    0    0  501 -0.00000000000E+00 -0.00000000000E+00 -0.16927891459E+03  0.16927891460E+03  0.25500000000E-02 0. -1.
    5000001    1    1    2    0    0  0.25266005212E+03 -0.12750382602E+03  0.19595237968E+03  0.36690688559E+03  0.12700000000E+03 0.  0.
   -5000001    1    1    2    0    0 -0.25266005212E+03  0.12750382602E+03  0.20325507953E+03  0.37085840282E+03  0.12700000000E+03 0.  0.
<mgrwt>
<rscale>  0 0.62042810E+03</rscale>
<asrwt>0</asrwt>
<pdfrwt beam="1">  1        2 0.81212339E-01 0.62042810E+03</pdfrwt>
<pdfrwt beam="2">  1       -2 0.24182702E-01 0.62042810E+03</pdfrwt>
<totfact> 0.88275164E+02</totfact>
</mgrwt>
</event>
<event>
 4    1  0.1361667E-004  0.9317968E+03  0.7818608E-02  0.9386684E-01
          2   -1    0    0  501    0  0.00000000000E+00  0.00000000000E+00  0.17013988415E+04  0.17013988415E+04  0.25500000000E-02 0.  1.
         -2   -1    0    0    0  501 -0.00000000000E+00 -0.00000000000E+00 -0.12757816147E+03  0.12757816149E+03  0.25500000000E-02 0. -1.
    5000001    1    1    2    0    0  0.10655614040E+03  0.31831581397E+03  0.13700225889E+04  0.14162521183E+04  0.12700000000E+03 0.  0.
   -5000001    1    1    2    0    0 -0.10655614040E+03 -0.31831581397E+03  0.20379809107E+03  0.41272488464E+03  0.12700000000E+03 0.  0.
<mgrwt>
<rscale>  0 0.93179684E+03</rscale>
<asrwt>0</asrwt>
<pdfrwt beam="1">  1        2 0.24305696E+00 0.93179684E+03</pdfrwt>
<pdfrwt beam="2">  1       -2 0.18225453E-01 0.93179684E+03</pdfrwt>
<totfact> 0.28817567E+02</totfact>
</mgrwt>
</event>
<event>
 4    1  0.1361667E-004  0.2872567E+03  0.7818608E-02  0.1091790E+00
          2   -1    0    0  501    0  0.00000000000E+00  0.00000000000E+00  0.12758555490E+04  0.12758555490E+04  0.25500000000E-02 0.  1.
         -2   -1    0    0    0  501 -0.00000000000E+00 -0.00000000000E+00 -0.16168835805E+02  0.16168836006E+02  0.25500000000E-02 0. -1.
    5000001    1    1    2    0    0  0.42805543252E+02  0.40303208531E+02  0.77513260075E+03  0.78766503788E+03  0.12700000000E+03 0.  0.
   -5000001    1    1    2    0    0 -0.42805543252E+02 -0.40303208531E+02  0.48455411248E+03  0.50435934717E+03  0.12700000000E+03 0.  0.
<mgrwt>
<rscale>  0 0.28725667E+03</rscale>
<asrwt>0</asrwt>
<pdfrwt beam="1">  1        2 0.18226516E+00 0.28725667E+03</pdfrwt>
<pdfrwt beam="2">  1       -2 0.23098327E-02 0.28725667E+03</pdfrwt>
<totfact> 0.12746463E+04</totfact>
</mgrwt>
</event>
<event>
 4    1  0.1361667E-004  0.4665584E+03  0.7818608E-02  0.1022896E+00
         -2   -1    0    0    0  501 -0.00000000000E+00  0.00000000000E+00  0.10652130720E+03  0.10652130723E+03  0.25500000000E-02 0. -1.
          2   -1    0    0  501    0  0.00000000000E+00 -0.00000000000E+00 -0.51087610008E+03  0.51087610008E+03  0.25500000000E-02 0.  1.
    5000001    1    1    2    0    0 -0.57800243216E+01 -0.19512101476E+03 -0.18419943611E+03  0.29692431922E+03  0.12700000000E+03 0.  0.
   -5000001    1    1    2    0    0  0.57800243216E+01  0.19512101476E+03 -0.22015535677E+03  0.32047308810E+03  0.12700000000E+03 0.  0.
<mgrwt>
<rscale>  0 0.46655842E+03</rscale>
<asrwt>0</asrwt>
<pdfrwt beam="1">  1        2 0.72982299E-01 0.46655842E+03</pdfrwt>
<pdfrwt beam="2">  1       -2 0.15217330E-01 0.46655842E+03</pdfrwt>
<totfact> 0.22239947E+03</totfact>
</mgrwt>
</event>
<event>
 4    1  0.1361667E-004  0.4825736E+03  0.7818608E-02  0.1018430E+00
         -2   -1    0    0    0  501 -0.00000000000E+00  0.00000000000E+00  0.11179071952E+03  0.11179071955E+03  0.25500000000E-02 0. -1.
          2   -1    0    0  501    0  0.00000000000E+00 -0.00000000000E+00 -0.52078852193E+03  0.52078852194E+03  0.25500000000E-02 0.  1.
    5000001    1    1    2    0    0  0.12731677236E+03  0.12865635854E+03 -0.33110444395E+03  0.39814717370E+03  0.12700000000E+03 0.  0.
   -5000001    1    1    2    0    0 -0.12731677236E+03 -0.12865635854E+03 -0.77893358451E+02  0.23443206779E+03  0.12700000000E+03 0.  0.
<mgrwt>
<rscale>  0 0.48257362E+03</rscale>
<asrwt>0</asrwt>
<pdfrwt beam="1">  1        2 0.74398359E-01 0.48257362E+03</pdfrwt>
<pdfrwt beam="2">  1       -2 0.15970103E-01 0.48257362E+03</pdfrwt>
<totfact> 0.20068567E+03</totfact>
</mgrwt>
</event>
<event>
 4    1  0.1361667E-004  0.3354497E+03  0.7818608E-02  0.1068751E+00
          2   -1    0    0  501    0  0.00000000000E+00  0.00000000000E+00  0.25797357853E+02  0.25797357979E+02  0.25500000000E-02 0.  1.
         -2   -1    0    0    0  501 -0.00000000000E+00 -0.00000000000E+00 -0.10904844223E+04  0.10904844223E+04  0.25500000000E-02 0. -1.
    5000001    1    1    2    0    0 -0.45285110871E+02 -0.94089302640E+02 -0.64266522319E+03  0.66336349556E+03  0.12700000000E+03 0.  0.
   -5000001    1    1    2    0    0  0.45285110871E+02  0.94089302640E+02 -0.42202184121E+03  0.45291828468E+03  0.12700000000E+03 0.  0.
<mgrwt>
<rscale>  0 0.33544965E+03</rscale>
<asrwt>0</asrwt>
<pdfrwt beam="1">  1        2 0.36853375E-02 0.33544965E+03</pdfrwt>
<pdfrwt beam="2">  1       -2 0.15578346E+00 0.33544965E+03</pdfrwt>
<totfact> 0.68379729E+02</totfact>
</mgrwt>
</event>
<event>
 4    1  0.1361667E-004  0.5026820E+03  0.7818608E-02  0.1013081E+00
         -2   -1    0    0    0  501 -0.00000000000E+00  0.00000000000E+00  0.44233938675E+02  0.44233938748E+02  0.25500000000E-02 0. -1.
          2   -1    0    0  501    0  0.00000000000E+00 -0.00000000000E+00 -0.14281408773E+04  0.14281408773E+04  0.25500000000E-02 0.  1.
    5000001    1    1    2    0    0 -0.75823439648E+02 -0.84645642953E+02 -0.12330667802E+04  0.12447878387E+04  0.12700000000E+03 0.  0.
   -5000001    1    1    2    0    0  0.75823439648E+02  0.84645642953E+02 -0.15084015837E+03  0.22758697733E+03  0.12700000000E+03 0.  0.
<mgrwt>
<rscale>  0 0.50268199E+03</rscale>
<asrwt>0</asrwt>
<pdfrwt beam="1">  1        2 0.20402010E+00 0.50268199E+03</pdfrwt>
<pdfrwt beam="2">  1       -2 0.63191350E-02 0.50268199E+03</pdfrwt>
<totfact> 0.23134748E+03</totfact>
</mgrwt>
</event>
<event>
 4    1  0.1361667E-004  0.3215299E+03  0.7818608E-02  0.1074947E+00
          2   -1    0    0  501    0  0.00000000000E+00  0.00000000000E+00  0.17211153799E+04  0.17211153799E+04  0.25500000000E-02 0.  1.
         -2   -1    0    0    0  501 -0.00000000000E+00 -0.00000000000E+00 -0.15016641530E+02  0.15016641747E+02  0.25500000000E-02 0. -1.
    5000001    1    1    2    0    0  0.22127134683E+02 -0.94933756580E+02  0.93210224585E+03  0.94575135472E+03  0.12700000000E+03 0.  0.
   -5000001    1    1    2    0    0 -0.22127134683E+02  0.94933756580E+02  0.77399649248E+03  0.79038066689E+03  0.12700000000E+03 0.  0.
<mgrwt>
<rscale>  0 0.32152992E+03</rscale>
<asrwt>0</asrwt>
<pdfrwt beam="1">  1        2 0.24587360E+00 0.32152992E+03</pdfrwt>
<pdfrwt beam="2">  1       -2 0.21452348E-02 0.32152992E+03</pdfrwt>
<totfact> 0.84560090E+03</totfact>
</mgrwt>
</event>
<event>
 4    1  0.1361667E-004  0.9769027E+03  0.7818608E-02  0.9334247E-01
          2   -1    0    0  501    0  0.00000000000E+00  0.00000000000E+00  0.16049962255E+04  0.16049962255E+04  0.25500000000E-02 0.  1.
         -2   -1    0    0    0  501 -0.00000000000E+00 -0.00000000000E+00 -0.14865126734E+03  0.14865126737E+03  0.25500000000E-02 0. -1.
    5000001    1    1    2    0    0  0.30598172069E+03 -0.39964727910E+02  0.87859777141E+02  0.34506569420E+03  0.12700000000E+03 0.  0.
   -5000001    1    1    2    0    0 -0.30598172069E+03  0.39964727910E+02  0.13684851810E+04  0.14085817986E+04  0.12700000000E+03 0.  0.
<mgrwt>
<rscale>  0 0.97690270E+03</rscale>
<asrwt>0</asrwt>
<pdfrwt beam="1">  1        2 0.22928519E+00 0.97690270E+03</pdfrwt>
<pdfrwt beam="2">  1       -2 0.21235894E-01 0.97690270E+03</pdfrwt>
<totfact> 0.24672015E+02</totfact>
</mgrwt>
</event>
<event>
 4    1  0.1361667E-004  0.6648169E+03  0.7818608E-02  0.9779367E-01
         -2   -1    0    0    0  501 -0.00000000000E+00  0.00000000000E+00  0.96068028068E+02  0.96068028102E+02  0.25500000000E-02 0. -1.
          2   -1    0    0  501    0  0.00000000000E+00 -0.00000000000E+00 -0.11501785096E+04  0.11501785096E+04  0.25500000000E-02 0.  1.
    5000001    1    1    2    0    0  0.17039441455E+03 -0.19790431875E+03 -0.83028416171E+03  0.87960284508E+03  0.12700000000E+03 0.  0.
   -5000001    1    1    2    0    0 -0.17039441455E+03  0.19790431875E+03 -0.22382631981E+03  0.36664369261E+03  0.12700000000E+03 0.  0.
<mgrwt>
<rscale>  0 0.66481691E+03</rscale>
<asrwt>0</asrwt>
<pdfrwt beam="1">  1        2 0.16431121E+00 0.66481691E+03</pdfrwt>
<pdfrwt beam="2">  1       -2 0.13724005E-01 0.66481691E+03</pdfrwt>
<totfact> 0.93524870E+02</totfact>
</mgrwt>
</event>
<event>
 4    1  0.1361667E-004  0.3789438E+03  0.7818608E-02  0.1051325E+00
          2   -1    0    0  501    0  0.00000000000E+00  0.00000000000E+00  0.76085301663E+03  0.76085301663E+03  0.25500000000E-02 0.  1.
         -2   -1    0    0    0  501 -0.00000000000E+00 -0.00000000000E+00 -0.47183370793E+02  0.47183370862E+02  0.25500000000E-02 0. -1.
    5000001    1    1    2    0    0  0.13343726068E+03 -0.42790152134E+02  0.38152858425E+03  0.42582808768E+03  0.12700000000E+03 0.  0.
   -5000001    1    1    2    0    0 -0.13343726068E+03  0.42790152134E+02  0.33214106159E+03  0.38220829982E+03  0.12700000000E+03 0.  0.
<mgrwt>
<rscale>  0 0.37894385E+03</rscale>
<asrwt>0</asrwt>
<pdfrwt beam="1">  1        2 0.10869328E+00 0.37894385E+03</pdfrwt>
<pdfrwt beam="2">  1       -2 0.67404819E-02 0.37894385E+03</pdfrwt>
<totfact> 0.51577501E+03</totfact>
</mgrwt>
</event>
<event>
 4    1  0.1361667E-004  0.2958811E+03  0.7818608E-02  0.1087318E+00
         -2   -1    0    0    0  501 -0.00000000000E+00  0.00000000000E+00  0.11636437013E+03  0.11636437016E+03  0.25500000000E-02 0. -1.
          2   -1    0    0  501    0  0.00000000000E+00 -0.00000000000E+00 -0.18808513933E+03  0.18808513935E+03  0.25500000000E-02 0.  1.
    5000001    1    1    2    0    0  0.71572048611E+02 -0.32772198951E+01 -0.10154724449E+02  0.14616913744E+03  0.12700000000E+03 0.  0.
   -5000001    1    1    2    0    0 -0.71572048611E+02  0.32772198951E+01 -0.61566044752E+02  0.15828037206E+03  0.12700000000E+03 0.  0.
<mgrwt>
<rscale>  0 0.29588112E+03</rscale>
<asrwt>0</asrwt>
<pdfrwt beam="1">  1        2 0.26869305E-01 0.29588112E+03</pdfrwt>
<pdfrwt beam="2">  1       -2 0.16623482E-01 0.29588112E+03</pdfrwt>
<totfact> 0.56931897E+03</totfact>
</mgrwt>
</event>
<event>
 4    1  0.1361667E-004  0.2691994E+03  0.7818608E-02  0.1101739E+00
          2   -1    0    0  501    0  0.00000000000E+00  0.00000000000E+00  0.43616104341E+03  0.43616104342E+03  0.25500000000E-02 0.  1.
         -2   -1    0    0    0  501 -0.00000000000E+00 -0.00000000000E+00 -0.41537581194E+02  0.41537581272E+02  0.25500000000E-02 0. -1.
    5000001    1    1    2    0    0  0.26845922500E+02  0.19679175220E+02  0.14466804586E+03  0.19536073553E+03  0.12700000000E+03 0.  0.
   -5000001    1    1    2    0    0 -0.26845922500E+02 -0.19679175220E+02  0.24995541636E+03  0.28233788916E+03  0.12700000000E+03 0.  0.
<mgrwt>
<rscale>  0 0.26919937E+03</rscale>
<asrwt>0</asrwt>
<pdfrwt beam="1">  1        2 0.62308716E-01 0.26919937E+03</pdfrwt>
<pdfrwt beam="2">  1       -2 0.59339407E-02 0.26919937E+03</pdfrwt>
<totfact> 0.11757121E+04</totfact>
</mgrwt>
</event>
<event>
 4    1  0.1361667E-004  0.8579134E+03  0.7818608E-02  0.9479777E-01
          2   -1    0    0  501    0  0.00000000000E+00  0.00000000000E+00  0.15303135260E+04  0.15303135260E+04  0.25500000000E-02 0.  1.
         -2   -1    0    0    0  501 -0.00000000000E+00 -0.00000000000E+00 -0.12023931593E+03  0.12023931596E+03  0.25500000000E-02 0. -1.
    5000001    1    1    2    0    0  0.27487520275E+03 -0.30179076244E+03  0.63726692300E+03  0.76738007046E+03  0.12700000000E+03 0.  0.
   -5000001    1    1    2    0    0 -0.27487520275E+03  0.30179076244E+03  0.77280728710E+03  0.88317277153E+03  0.12700000000E+03 0.  0.
<mgrwt>
<rscale>  0 0.85791340E+03</rscale>
<asrwt>0</asrwt>
<pdfrwt beam="1">  1        2 0.21861620E+00 0.85791340E+03</pdfrwt>
<pdfrwt beam="2">  1       -2 0.17177047E-01 0.85791340E+03</pdfrwt>
<totfact> 0.39344916E+02</totfact>
</mgrwt>
</event>
<event>
 4    1  0.1361667E-004  0.4219291E+03  0.7818608E-02  0.1036440E+00
         -2   -1    0    0    0  501 -0.00000000000E+00  0.00000000000E+00  0.14989557114E+03  0.14989557116E+03  0.25500000000E-02 0. -1.
          2   -1    0    0  501    0  0.00000000000E+00 -0.00000000000E+00 -0.29691360150E+03  0.29691360151E+03  0.25500000000E-02 0.  1.
    5000001    1    1    2    0    0 -0.11549930007E+03  0.68417195514E+01  0.56144838703E+02  0.18074329961E+03  0.12700000000E+03 0.  0.
   -5000001    1    1    2    0    0  0.11549930007E+03 -0.68417195514E+01 -0.20316286906E+03  0.26606587306E+03  0.12700000000E+03 0.  0.
<mgrwt>
<rscale>  0 0.42192906E+03</rscale>
<asrwt>0</asrwt>
<pdfrwt beam="1">  1        2 0.42416229E-01 0.42192906E+03</pdfrwt>
<pdfrwt beam="2">  1       -2 0.21413653E-01 0.42192906E+03</pdfrwt>
<totfact> 0.22558020E+03</totfact>
</mgrwt>
</event>
<event>
 4    1  0.1361667E-004  0.5436850E+03  0.7818608E-02  0.1002966E+00
         -2   -1    0    0    0  501 -0.00000000000E+00  0.00000000000E+00  0.68788600834E+02  0.68788600881E+02  0.25500000000E-02 0. -1.
          2   -1    0    0  501    0  0.00000000000E+00 -0.00000000000E+00 -0.10742816843E+04  0.10742816843E+04  0.25500000000E-02 0.  1.
    5000001    1    1    2    0    0  0.23914627545E+03  0.21339312366E+02 -0.47942671770E+03  0.55102203673E+03  0.12700000000E+03 0.  0.
   -5000001    1    1    2    0    0 -0.23914627545E+03 -0.21339312366E+02 -0.52606636581E+03  0.59204824850E+03  0.12700000000E+03 0.  0.
<mgrwt>
<rscale>  0 0.54368496E+03</rscale>
<asrwt>0</asrwt>
<pdfrwt beam="1">  1        2 0.15346880E+00 0.54368496E+03</pdfrwt>
<pdfrwt beam="2">  1       -2 0.98269436E-02 0.54368496E+03</pdfrwt>
<totfact> 0.17961264E+03</totfact>
</mgrwt>
</event>
<event>
 4    1  0.1361667E-004  0.4078178E+03  0.7818608E-02  0.1041106E+00
          2   -1    0    0  501    0  0.00000000000E+00  0.00000000000E+00  0.15361772896E+04  0.15361772896E+04  0.25500000000E-02 0.  1.
         -2   -1    0    0    0  501 -0.00000000000E+00 -0.00000000000E+00 -0.27066439320E+02  0.27066439440E+02  0.25500000000E-02 0. -1.
    5000001    1    1    2    0    0 -0.28658785287E+02  0.13569254299E+03  0.45233906557E+03  0.48987082220E+03  0.12700000000E+03 0.  0.
   -5000001    1    1    2    0    0  0.28658785287E+02 -0.13569254299E+03  0.10567717847E+04  0.10733729069E+04  0.12700000000E+03 0.  0.
<mgrwt>
<rscale>  0 0.40781785E+03</rscale>
<asrwt>0</asrwt>
<pdfrwt beam="1">  1        2 0.21945389E+00 0.40781785E+03</pdfrwt>
<pdfrwt beam="2">  1       -2 0.38666344E-02 0.40781785E+03</pdfrwt>
<totfact> 0.43385120E+03</totfact>
</mgrwt>
</event>
<event>
 4    1  0.1361667E-004  0.3771276E+03  0.7818608E-02  0.1052001E+00
          2   -1    0    0  501    0  0.00000000000E+00  0.00000000000E+00  0.20114635064E+04  0.20114635064E+04  0.25500000000E-02 0.  1.
         -2   -1    0    0    0  501 -0.00000000000E+00 -0.00000000000E+00 -0.17676832207E+02  0.17676832391E+02  0.25500000000E-02 0. -1.
    5000001    1    1    2    0    0 -0.94950519698E+02  0.75992249954E+02  0.13632775144E+04  0.13745708438E+04  0.12700000000E+03 0.  0.
   -5000001    1    1    2    0    0  0.94950519698E+02 -0.75992249954E+02  0.63050915975E+03  0.65456949499E+03  0.12700000000E+03 0.  0.
<mgrwt>
<rscale>  0 0.37712758E+03</rscale>
<asrwt>0</asrwt>
<pdfrwt beam="1">  1        2 0.28735196E+00 0.37712758E+03</pdfrwt>
<pdfrwt beam="2">  1       -2 0.25252615E-02 0.37712758E+03</pdfrwt>
<totfact> 0.47731935E+03</totfact>
</mgrwt>
</event>
<event>
 4    1  0.1361667E-004  0.5107611E+03  0.7818608E-02  0.1011008E+00
          2   -1    0    0  501    0  0.00000000000E+00  0.00000000000E+00  0.25231514014E+04  0.25231514014E+04  0.25500000000E-02 0.  1.
         -2   -1    0    0    0  501 -0.00000000000E+00 -0.00000000000E+00 -0.25848317528E+02  0.25848317654E+02  0.25500000000E-02 0. -1.
    5000001    1    1    2    0    0  0.19559291565E+03 -0.64208239153E+02  0.16574821654E+04  0.16750389295E+04  0.12700000000E+03 0.  0.
   -5000001    1    1    2    0    0 -0.19559291565E+03  0.64208239153E+02  0.83982091848E+03  0.87396078959E+03  0.12700000000E+03 0.  0.
<mgrwt>
<rscale>  0 0.51076107E+03</rscale>
<asrwt>0</asrwt>
<pdfrwt beam="1">  1        2 0.36044997E+00 0.51076107E+03</pdfrwt>
<pdfrwt beam="2">  1       -2 0.36926192E-02 0.51076107E+03</pdfrwt>
<totfact> 0.14823490E+03</totfact>
</mgrwt>
</event>
<event>
 4    1  0.1361667E-004  0.4666909E+03  0.7818608E-02  0.1022858E+00
         -2   -1    0    0    0  501 -0.00000000000E+00  0.00000000000E+00  0.74476090200E+02  0.74476090244E+02  0.25500000000E-02 0. -1.
          2   -1    0    0  501    0  0.00000000000E+00 -0.00000000000E+00 -0.73110846729E+03  0.73110846730E+03  0.25500000000E-02 0.  1.
    5000001    1    1    2    0    0  0.58132360580E+02  0.54014043797E+02 -0.63721840231E+03  0.65457862822E+03  0.12700000000E+03 0.  0.
   -5000001    1    1    2    0    0 -0.58132360580E+02 -0.54014043797E+02 -0.19413974779E+02  0.15100592932E+03  0.12700000000E+03 0.  0.
<mgrwt>
<rscale>  0 0.46669090E+03</rscale>
<asrwt>0</asrwt>
<pdfrwt beam="1">  1        2 0.10444406E+00 0.46669090E+03</pdfrwt>
<pdfrwt beam="2">  1       -2 0.10639442E-01 0.46669090E+03</pdfrwt>
<totfact> 0.26319700E+03</totfact>
</mgrwt>
</event>
<event>
 4    1  0.1361667E-004  0.3450142E+03  0.7818608E-02  0.1064680E+00
          2   -1    0    0  501    0  0.00000000000E+00  0.00000000000E+00  0.12785338334E+04  0.12785338334E+04  0.25500000000E-02 0.  1.
         -2   -1    0    0    0  501 -0.00000000000E+00 -0.00000000000E+00 -0.23275648585E+02  0.23275648725E+02  0.25500000000E-02 0. -1.
    5000001    1    1    2    0    0  0.31622540077E+01 -0.87099121138E+02  0.33454435916E+03  0.36830040049E+03  0.12700000000E+03 0.  0.
   -5000001    1    1    2    0    0 -0.31622540077E+01  0.87099121138E+02  0.92071382564E+03  0.93350908162E+03  0.12700000000E+03 0.  0.
<mgrwt>
<rscale>  0 0.34501423E+03</rscale>
<asrwt>0</asrwt>
<pdfrwt beam="1">  1        2 0.18264772E+00 0.34501423E+03</pdfrwt>
<pdfrwt beam="2">  1       -2 0.33250921E-02 0.34501423E+03</pdfrwt>
<totfact> 0.74129547E+03</totfact>
</mgrwt>
</event>
<event>
 4    1  0.1361667E-004  0.9563647E+03  0.7818608E-02  0.9357742E-01
         -2   -1    0    0    0  501 -0.00000000000E+00  0.00000000000E+00  0.45231147643E+03  0.45231147644E+03  0.25500000000E-02 0. -1.
          2   -1    0    0  501    0  0.00000000000E+00 -0.00000000000E+00 -0.50553298380E+03  0.50553298380E+03  0.25500000000E-02 0.  1.
    5000001    1    1    2    0    0  0.17141386450E+03  0.37792250586E+03 -0.22772293077E+03  0.49009679307E+03  0.12700000000E+03 0.  0.
   -5000001    1    1    2    0    0 -0.17141386450E+03 -0.37792250586E+03  0.17450142340E+03  0.46774766717E+03  0.12700000000E+03 0.  0.
<mgrwt>
<rscale>  0 0.95636472E+03</rscale>
<asrwt>0</asrwt>
<pdfrwt beam="1">  1        2 0.72218997E-01 0.95636472E+03</pdfrwt>
<pdfrwt beam="2">  1       -2 0.64615925E-01 0.95636472E+03</pdfrwt>
<totfact> 0.14678180E+02</totfact>
</mgrwt>
</event>
<event>
 4    1  0.1361667E-004  0.3292211E+03  0.7818608E-02  0.1071482E+00
          2   -1    0    0  501    0  0.00000000000E+00  0.00000000000E+00  0.66659024018E+03  0.66659024019E+03  0.25500000000E-02 0.  1.
         -2   -1    0    0    0  501 -0.00000000000E+00 -0.00000000000E+00 -0.40649605537E+02  0.40649605617E+02  0.25500000000E-02 0. -1.
    5000001    1    1    2    0    0  0.72344150937E+02  0.52712623670E+02  0.42975404366E+03  0.45697903115E+03  0.12700000000E+03 0.  0.
   -5000001    1    1    2    0    0 -0.72344150937E+02 -0.52712623670E+02  0.19618659099E+03  0.25026081465E+03  0.12700000000E+03 0.  0.
<mgrwt>
<rscale>  0 0.32922108E+03</rscale>
<asrwt>0</asrwt>
<pdfrwt beam="1">  1        2 0.95227168E-01 0.32922108E+03</pdfrwt>
<pdfrwt beam="2">  1       -2 0.58070871E-02 0.32922108E+03</pdfrwt>
<totfact> 0.75944428E+03</totfact>
</mgrwt>
</event>
<event>
 4    1  0.1361667E-004  0.3447293E+03  0.7818608E-02  0.1064799E+00
         -2   -1    0    0    0  501 -0.00000000000E+00  0.00000000000E+00  0.29678315807E+02  0.29678315917E+02  0.25500000000E-02 0. -1.
          2   -1    0    0  501    0  0.00000000000E+00 -0.00000000000E+00 -0.10010532738E+04  0.10010532738E+04  0.25500000000E-02 0.  1.
    5000001    1    1    2    0    0  0.57800165793E+02 -0.11079936093E+02 -0.78642817117E+03  0.79878776441E+03  0.12700000000E+03 0.  0.
   -5000001    1    1    2    0    0 -0.57800165793E+02  0.11079936093E+02 -0.18494678685E+03  0.23194382535E+03  0.12700000000E+03 0.  0.
<mgrwt>
<rscale>  0 0.34472932E+03</rscale>
<asrwt>0</asrwt>
<pdfrwt beam="1">  1        2 0.14300759E+00 0.34472932E+03</pdfrwt>
<pdfrwt beam="2">  1       -2 0.42397600E-02 0.34472932E+03</pdfrwt>
<totfact> 0.73530727E+03</totfact>
</mgrwt>
</event>
<event>
 4    1  0.1361667E-004  0.1098603E+04  0.7818608E-02  0.9206554E-01
          2   -1    0    0  501    0  0.00000000000E+00  0.00000000000E+00  0.82672329413E+03  0.82672329413E+03  0.25500000000E-02 0.  1.
         -2   -1    0    0    0  501 -0.00000000000E+00 -0.00000000000E+00 -0.36497376358E+03  0.36497376359E+03  0.25500000000E-02 0. -1.
    5000001    1    1    2    0    0  0.49038699176E+03 -0.21090820230E+03  0.20339766569E+03  0.58520191549E+03  0.12700000000E+03 0.  0.
   -5000001    1    1    2    0    0 -0.49038699176E+03  0.21090820230E+03  0.25835186486E+03  0.60649514224E+03  0.12700000000E+03 0.  0.
<mgrwt>
<rscale>  0 0.10986033E+04</rscale>
<asrwt>0</asrwt>
<pdfrwt beam="1">  1        2 0.11810333E+00 0.10986033E+04</pdfrwt>
<pdfrwt beam="2">  1       -2 0.52139110E-01 0.10986033E+04</pdfrwt>
<totfact> 0.12557950E+02</totfact>
</mgrwt>
</event>
<event>
 4    1  0.1361667E-004  0.4644984E+03  0.7818608E-02  0.1023485E+00
          2   -1    0    0  501    0  0.00000000000E+00  0.00000000000E+00  0.48200113547E+02  0.48200113615E+02  0.25500000000E-02 0.  1.
         -2   -1    0    0    0  501 -0.00000000000E+00 -0.00000000000E+00 -0.11190782491E+04  0.11190782491E+04  0.25500000000E-02 0. -1.
    5000001    1    1    2    0    0 -0.17411079384E+03  0.58081373283E+02 -0.37408488837E+03  0.43561051199E+03  0.12700000000E+03 0.  0.
   -5000001    1    1    2    0    0  0.17411079384E+03 -0.58081373283E+02 -0.69679324716E+03  0.73166785069E+03  0.12700000000E+03 0.  0.
<mgrwt>
<rscale>  0 0.46449843E+03</rscale>
<asrwt>0</asrwt>
<pdfrwt beam="1">  1        2 0.68857312E-02 0.46449843E+03</pdfrwt>
<pdfrwt beam="2">  1       -2 0.15986830E+00 0.46449843E+03</pdfrwt>
<totfact> 0.27722076E+02</totfact>
</mgrwt>
</event>
<event>
 4    1  0.1361667E-004  0.2943163E+03  0.7818608E-02  0.1088117E+00
          2   -1    0    0  501    0  0.00000000000E+00  0.00000000000E+00  0.85153828024E+03  0.85153828025E+03  0.25500000000E-02 0.  1.
         -2   -1    0    0    0  501 -0.00000000000E+00 -0.00000000000E+00 -0.25431063691E+02  0.25431063819E+02  0.25500000000E-02 0. -1.
    5000001    1    1    2    0    0  0.49719021648E+02 -0.30039312407E+02  0.27482127054E+03  0.30826947975E+03  0.12700000000E+03 0.  0.
   -5000001    1    1    2    0    0 -0.49719021648E+02  0.30039312407E+02  0.55128594601E+03  0.56869986432E+03  0.12700000000E+03 0.  0.
<mgrwt>
<rscale>  0 0.29431632E+03</rscale>
<asrwt>0</asrwt>
<pdfrwt beam="1">  1        2 0.12164831E+00 0.29431632E+03</pdfrwt>
<pdfrwt beam="2">  1       -2 0.36330096E-02 0.29431632E+03</pdfrwt>
<totfact> 0.11440756E+04</totfact>
</mgrwt>
</event>
<event>
 4    1  0.1361667E-004  0.4011656E+03  0.7818608E-02  0.1043377E+00
         -2   -1    0    0    0  501 -0.00000000000E+00  0.00000000000E+00  0.29492336415E+02  0.29492336525E+02  0.25500000000E-02 0. -1.
          2   -1    0    0  501    0  0.00000000000E+00 -0.00000000000E+00 -0.13642007602E+04  0.13642007602E+04  0.25500000000E-02 0.  1.
    5000001    1    1    2    0    0 -0.12145324547E+03  0.90904345843E+02 -0.55265720935E+03  0.58700381769E+03  0.12700000000E+03 0.  0.
   -5000001    1    1    2    0    0  0.12145324547E+03 -0.90904345843E+02 -0.78205121444E+03  0.80668927905E+03  0.12700000000E+03 0.  0.
<mgrwt>
<rscale>  0 0.40116564E+03</rscale>
<asrwt>0</asrwt>
<pdfrwt beam="1">  1        2 0.19488578E+00 0.40116564E+03</pdfrwt>
<pdfrwt beam="2">  1       -2 0.42131918E-02 0.40116564E+03</pdfrwt>
<totfact> 0.46741010E+03</totfact>
</mgrwt>
</event>
<event>
 4    1  0.1361667E-004  0.5117197E+03  0.7818608E-02  0.1010764E+00
          2   -1    0    0  501    0  0.00000000000E+00  0.00000000000E+00  0.79120766797E+03  0.79120766798E+03  0.25500000000E-02 0.  1.
         -2   -1    0    0    0  501 -0.00000000000E+00 -0.00000000000E+00 -0.82739677319E+02  0.82739677359E+02  0.25500000000E-02 0. -1.
    5000001    1    1    2    0    0  0.12863036592E+02 -0.21404591589E+03  0.25532297026E+03  0.35679115875E+03  0.12700000000E+03 0.  0.
   -5000001    1    1    2    0    0 -0.12863036592E+02  0.21404591589E+03  0.45314502039E+03  0.51715618659E+03  0.12700000000E+03 0.  0.
<mgrwt>
<rscale>  0 0.51171972E+03</rscale>
<asrwt>0</asrwt>
<pdfrwt beam="1">  1        2 0.11302967E+00 0.51171972E+03</pdfrwt>
<pdfrwt beam="2">  1       -2 0.11819954E-01 0.51171972E+03</pdfrwt>
<totfact> 0.20101860E+03</totfact>
</mgrwt>
</event>
<event>
 4    1  0.1361667E-004  0.5344089E+03  0.7818608E-02  0.1005168E+00
          2   -1    0    0  501    0  0.00000000000E+00  0.00000000000E+00  0.26697134726E+03  0.26697134727E+03  0.25500000000E-02 0.  1.
         -2   -1    0    0    0  501 -0.00000000000E+00 -0.00000000000E+00 -0.26743771356E+03  0.26743771357E+03  0.25500000000E-02 0. -1.
    5000001    1    1    2    0    0  0.12817946871E+03  0.18360607621E+03  0.71377173556E+02  0.26714203774E+03  0.12700000000E+03 0.  0.
   -5000001    1    1    2    0    0 -0.12817946871E+03 -0.18360607621E+03 -0.71843539849E+02  0.26726702310E+03  0.12700000000E+03 0.  0.
<mgrwt>
<rscale>  0 0.53440886E+03</rscale>
<asrwt>0</asrwt>
<pdfrwt beam="1">  1        2 0.38138764E-01 0.53440886E+03</pdfrwt>
<pdfrwt beam="2">  1       -2 0.38205388E-01 0.53440886E+03</pdfrwt>
<totfact> 0.88149968E+02</totfact>
</mgrwt>
</event>
<event>
 4    1  0.1361667E-004  0.2856901E+03  0.7818608E-02  0.1092621E+00
          2   -1    0    0  501    0  0.00000000000E+00  0.00000000000E+00  0.23926061007E+04  0.23926061007E+04  0.25500000000E-02 0.  1.
         -2   -1    0    0    0  501 -0.00000000000E+00 -0.00000000000E+00 -0.85282357877E+01  0.85282361689E+01  0.25500000000E-02 0. -1.
    5000001    1    1    2    0    0  0.15309682393E+02  0.59340459750E+02  0.10003766467E+04  0.10102663568E+04  0.12700000000E+03 0.  0.
   -5000001    1    1    2    0    0 -0.15309682393E+02 -0.59340459750E+02  0.13837012182E+04  0.13908679800E+04  0.12700000000E+03 0.  0.
<mgrwt>
<rscale>  0 0.28569011E+03</rscale>
<asrwt>0</asrwt>
<pdfrwt beam="1">  1        2 0.34180107E+00 0.28569011E+03</pdfrwt>
<pdfrwt beam="2">  1       -2 0.12183187E-02 0.28569011E+03</pdfrwt>
<totfact> 0.90707159E+03</totfact>
</mgrwt>
</event>
<event>
 4    1  0.1361667E-004  0.2992579E+03  0.7818608E-02  0.1085612E+00
          2   -1    0    0  501    0  0.00000000000E+00  0.00000000000E+00  0.13177345581E+04  0.13177345581E+04  0.25500000000E-02 0.  1.
         -2   -1    0    0    0  501 -0.00000000000E+00 -0.00000000000E+00 -0.16990393576E+02  0.16990393768E+02  0.25500000000E-02 0. -1.
    5000001    1    1    2    0    0  0.58283532341E+02 -0.51992996036E+02  0.70671573733E+03  0.72227167684E+03  0.12700000000E+03 0.  0.
   -5000001    1    1    2    0    0 -0.58283532341E+02  0.51992996036E+02  0.59402842722E+03  0.61245327505E+03  0.12700000000E+03 0.  0.
<mgrwt>
<rscale>  0 0.29925794E+03</rscale>
<asrwt>0</asrwt>
<pdfrwt beam="1">  1        2 0.18824782E+00 0.29925794E+03</pdfrwt>
<pdfrwt beam="2">  1       -2 0.24271987E-02 0.29925794E+03</pdfrwt>
<totfact> 0.11268823E+04</totfact>
</mgrwt>
</event>
<event>
 4    1  0.1361667E-004  0.3628358E+03  0.7818608E-02  0.1057467E+00
          2   -1    0    0  501    0  0.00000000000E+00  0.00000000000E+00  0.35781221578E+03  0.35781221578E+03  0.25500000000E-02 0.  1.
         -2   -1    0    0    0  501 -0.00000000000E+00 -0.00000000000E+00 -0.91982457969E+02  0.91982458005E+02  0.25500000000E-02 0. -1.
    5000001    1    1    2    0    0  0.12717360424E+03 -0.22318604737E+02  0.11978371214E+03  0.21713678506E+03  0.12700000000E+03 0.  0.
   -5000001    1    1    2    0    0 -0.12717360424E+03  0.22318604737E+02  0.14604604567E+03  0.23265788873E+03  0.12700000000E+03 0.  0.
<mgrwt>
<rscale>  0 0.36283576E+03</rscale>
<asrwt>0</asrwt>
<pdfrwt beam="1">  1        2 0.51116032E-01 0.36283576E+03</pdfrwt>
<pdfrwt beam="2">  1       -2 0.13140351E-01 0.36283576E+03</pdfrwt>
<totfact> 0.41888463E+03</totfact>
</mgrwt>
</event>
<event>
 4    1  0.1361667E-004  0.5039517E+03  0.7818608E-02  0.1012753E+00
         -2   -1    0    0    0  501 -0.00000000000E+00  0.00000000000E+00  0.62623059664E+02  0.62623059716E+02  0.25500000000E-02 0. -1.
          2   -1    0    0  501    0  0.00000000000E+00 -0.00000000000E+00 -0.10138728950E+04  0.10138728950E+04  0.25500000000E-02 0.  1.
    5000001    1    1    2    0    0 -0.14943674311E+03  0.14973356757E+03 -0.58478285838E+03  0.63470581603E+03  0.12700000000E+03 0.  0.
   -5000001    1    1    2    0    0  0.14943674311E+03 -0.14973356757E+03 -0.36646697698E+03  0.44179013871E+03  0.12700000000E+03 0.  0.
<mgrwt>
<rscale>  0 0.50395168E+03</rscale>
<asrwt>0</asrwt>
<pdfrwt beam="1">  1        2 0.14483897E+00 0.50395168E+03</pdfrwt>
<pdfrwt beam="2">  1       -2 0.89461520E-02 0.50395168E+03</pdfrwt>
<totfact> 0.22694006E+03</totfact>
</mgrwt>
</event>
<event>
 4    1  0.1361667E-004  0.8467506E+03  0.7818608E-02  0.9494709E-01
          2   -1    0    0  501    0  0.00000000000E+00  0.00000000000E+00  0.11622641339E+04  0.11622641339E+04  0.25500000000E-02 0.  1.
         -2   -1    0    0    0  501 -0.00000000000E+00 -0.00000000000E+00 -0.15422194638E+03  0.15422194640E+03  0.25500000000E-02 0. -1.
    5000001    1    1    2    0    0 -0.95067554034E+02 -0.38584462528E+03  0.39186630473E+03  0.57236536886E+03  0.12700000000E+03 0.  0.
   -5000001    1    1    2    0    0  0.95067554034E+02  0.38584462528E+03  0.61617588281E+03  0.74412071148E+03  0.12700000000E+03 0.  0.
<mgrwt>
<rscale>  0 0.84675058E+03</rscale>
<asrwt>0</asrwt>
<pdfrwt beam="1">  1        2 0.16603774E+00 0.84675058E+03</pdfrwt>
<pdfrwt beam="2">  1       -2 0.22031706E-01 0.84675058E+03</pdfrwt>
<totfact> 0.40479487E+02</totfact>
</mgrwt>
</event>
<event>
 4    1  0.1361667E-004  0.1245725E+04  0.7818608E-02  0.9073749E-01
          2   -1    0    0  501    0  0.00000000000E+00  0.00000000000E+00  0.18171200603E+04  0.18171200603E+04  0.25500000000E-02 0.  1.
         -2   -1    0    0    0  501 -0.00000000000E+00 -0.00000000000E+00 -0.21350144327E+03  0.21350144329E+03  0.25500000000E-02 0. -1.
    5000001    1    1    2    0    0 -0.60418391279E+03 -0.79423775020E+02  0.76600634678E+03  0.98703650380E+03  0.12700000000E+03 0.  0.
   -5000001    1    1    2    0    0  0.60418391279E+03  0.79423775020E+02  0.83761227021E+03  0.10435849998E+04  0.12700000000E+03 0.  0.
<mgrwt>
<rscale>  0 0.12457251E+04</rscale>
<asrwt>0</asrwt>
<pdfrwt beam="1">  1        2 0.25958858E+00 0.12457251E+04</pdfrwt>
<pdfrwt beam="2">  1       -2 0.30500206E-01 0.12457251E+04</pdfrwt>
<totfact> 0.97517692E+01</totfact>
</mgrwt>
</event>
<event>
 4    1  0.1361667E-004  0.4250940E+03  0.7818608E-02  0.1035421E+00
          2   -1    0    0  501    0  0.00000000000E+00  0.00000000000E+00  0.12409559177E+04  0.12409559177E+04  0.25500000000E-02 0. -1.
         -2   -1    0    0    0  501 -0.00000000000E+00 -0.00000000000E+00 -0.36404370279E+02  0.36404370368E+02  0.25500000000E-02 0.  1.
    5000001    1    1    2    0    0 -0.13975081383E+03 -0.97420106164E+02  0.61767175874E+03  0.65319856751E+03  0.12700000000E+03 0.  0.
   -5000001    1    1    2    0    0  0.13975081383E+03  0.97420106164E+02  0.58687978867E+03  0.62416172055E+03  0.12700000000E+03 0.  0.
<mgrwt>
<rscale>  0 0.42509396E+03</rscale>
<asrwt>0</asrwt>
<pdfrwt beam="1">  1        2 0.17727941E+00 0.42509396E+03</pdfrwt>
<pdfrwt beam="2">  1       -2 0.52006245E-02 0.42509396E+03</pdfrwt>
<totfact> 0.39422275E+03</totfact>
</mgrwt>
</event>
<event>
 4    1  0.1361667E-004  0.3584927E+03  0.7818608E-02  0.1059182E+00
          2   -1    0    0  501    0  0.00000000000E+00  0.00000000000E+00  0.14235506724E+04  0.14235506724E+04  0.25500000000E-02 0.  1.
         -2   -1    0    0    0  501 -0.00000000000E+00 -0.00000000000E+00 -0.22569802376E+02  0.22569802520E+02  0.25500000000E-02 0. -1.
    5000001    1    1    2    0    0  0.33855406071E+02 -0.65331169354E+02  0.11155287367E+04  0.11251434187E+04  0.12700000000E+03 0.  0.
   -5000001    1    1    2    0    0 -0.33855406071E+02  0.65331169354E+02  0.28545213330E+03  0.32097705621E+03  0.12700000000E+03 0.  0.
<mgrwt>
<rscale>  0 0.35849272E+03</rscale>
<asrwt>0</asrwt>
<pdfrwt beam="1">  1        2 0.20336449E+00 0.35849272E+03</pdfrwt>
<pdfrwt beam="2">  1       -2 0.32242557E-02 0.35849272E+03</pdfrwt>
<totfact> 0.65175623E+03</totfact>
</mgrwt>
</event>
<event>
 4    1  0.1361667E-004  0.8914229E+03  0.7818608E-02  0.9436367E-01
         -2   -1    0    0    0  501 -0.00000000000E+00  0.00000000000E+00  0.68471371305E+03  0.68471371305E+03  0.25500000000E-02 0. -1.
          2   -1    0    0  501    0  0.00000000000E+00 -0.00000000000E+00 -0.29013395536E+03  0.29013395537E+03  0.25500000000E-02 0.  1.
    5000001    1    1    2    0    0  0.28957264811E+03 -0.30828528587E+03  0.26324646396E+03  0.51412044971E+03  0.12700000000E+03 0.  0.
   -5000001    1    1    2    0    0 -0.28957264811E+03  0.30828528587E+03  0.13133329373E+03  0.46072721871E+03  0.12700000000E+03 0.  0.
<mgrwt>
<rscale>  0 0.89142290E+03</rscale>
<asrwt>0</asrwt>
<pdfrwt beam="1">  1        2 0.41447708E-01 0.89142290E+03</pdfrwt>
<pdfrwt beam="2">  1       -2 0.97816245E-01 0.89142290E+03</pdfrwt>
<totfact> 0.10815133E+02</totfact>
</mgrwt>
</event>
<event>
 4    1  0.1361667E-004  0.3523957E+03  0.7818608E-02  0.1061636E+00
         -2   -1    0    0    0  501 -0.00000000000E+00  0.00000000000E+00  0.18705468979E+03  0.18705468981E+03  0.25500000000E-02 0. -1.
          2   -1    0    0  501    0  0.00000000000E+00 -0.00000000000E+00 -0.16597111224E+03  0.16597111226E+03  0.25500000000E-02 0.  1.
    5000001    1    1    2    0    0 -0.10202232144E+03 -0.66433759411E+02  0.20289370897E+02  0.17709505084E+03  0.12700000000E+03 0.  0.
   -5000001    1    1    2    0    0  0.10202232144E+03  0.66433759411E+02  0.79420665061E+00  0.17593075122E+03  0.12700000000E+03 0.  0.
<mgrwt>
<rscale>  0 0.35239566E+03</rscale>
<asrwt>0</asrwt>
<pdfrwt beam="1">  1        2 0.23710159E-01 0.35239566E+03</pdfrwt>
<pdfrwt beam="2">  1       -2 0.26722099E-01 0.35239566E+03</pdfrwt>
<totfact> 0.28955151E+03</totfact>
</mgrwt>
</event>
<event>
 4    1  0.1361667E-004  0.5088840E+03  0.7818608E-02  0.1011486E+00
          2   -1    0    0  501    0  0.00000000000E+00  0.00000000000E+00  0.59372527312E+03  0.59372527313E+03  0.25500000000E-02 0.  1.
         -2   -1    0    0    0  501 -0.00000000000E+00 -0.00000000000E+00 -0.10904154967E+03  0.10904154970E+03  0.25500000000E-02 0. -1.
    5000001    1    1    2    0    0 -0.18842547904E+03 -0.27885061048E+02  0.39568832809E+03  0.45714329347E+03  0.12700000000E+03 0.  0.
   -5000001    1    1    2    0    0  0.18842547904E+03  0.27885061048E+02  0.88995395358E+02  0.24562352936E+03  0.12700000000E+03 0.  0.
<mgrwt>
<rscale>  0 0.50888397E+03</rscale>
<asrwt>0</asrwt>
<pdfrwt beam="1">  1        2 0.84817896E-01 0.50888397E+03</pdfrwt>
<pdfrwt beam="2">  1       -2 0.15577364E-01 0.50888397E+03</pdfrwt>
<totfact> 0.18000871E+03</totfact>
</mgrwt>
</event>
<event>
 4    1  0.1361667E-004  0.5081418E+03  0.7818608E-02  0.1011675E+00
         -2   -1    0    0    0  501 -0.00000000000E+00  0.00000000000E+00  0.15320607997E+03  0.15320607999E+03  0.25500000000E-02 0. -1.
          2   -1    0    0  501    0  0.00000000000E+00 -0.00000000000E+00 -0.42134107427E+03  0.42134107428E+03  0.25500000000E-02 0.  1.
    5000001    1    1    2    0    0  0.10668186232E+03  0.19205216890E+03 -0.11985687907E+03  0.28064163410E+03  0.12700000000E+03 0.  0.
   -5000001    1    1    2    0    0 -0.10668186232E+03 -0.19205216890E+03 -0.14827811523E+03  0.29390552017E+03  0.12700000000E+03 0.  0.
<mgrwt>
<rscale>  0 0.50814177E+03</rscale>
<asrwt>0</asrwt>
<pdfrwt beam="1">  1        2 0.60191582E-01 0.50814177E+03</pdfrwt>
<pdfrwt beam="2">  1       -2 0.21886583E-01 0.50814177E+03</pdfrwt>
<totfact> 0.14805173E+03</totfact>
</mgrwt>
</event>
<event>
 4    1  0.1361667E-004  0.7195440E+03  0.7818608E-02  0.9684381E-01
         -2   -1    0    0    0  501 -0.00000000000E+00  0.00000000000E+00  0.60522159815E+02  0.60522159869E+02  0.25500000000E-02 0. -1.
          2   -1    0    0  501    0  0.00000000000E+00 -0.00000000000E+00 -0.21386528346E+04  0.21386528346E+04  0.25500000000E-02 0.  1.
    5000001    1    1    2    0    0  0.24574167170E+02  0.32416558325E+03 -0.77227467609E+03  0.84748120356E+03  0.12700000000E+03 0.  0.
   -5000001    1    1    2    0    0 -0.24574167170E+02 -0.32416558325E+03 -0.13058559987E+04  0.13516937909E+04  0.12700000000E+03 0.  0.
<mgrwt>
<rscale>  0 0.71954399E+03</rscale>
<asrwt>0</asrwt>
<pdfrwt beam="1">  1        2 0.30552179E+00 0.71954399E+03</pdfrwt>
<pdfrwt beam="2">  1       -2 0.86460241E-02 0.71954399E+03</pdfrwt>
<totfact> 0.60592327E+02</totfact>
</mgrwt>
</event>
<event>
 4    1  0.1361667E-004  0.4404152E+03  0.7818608E-02  0.1030619E+00
         -2   -1    0    0    0  501 -0.00000000000E+00  0.00000000000E+00  0.48922163889E+02  0.48922163955E+02  0.25500000000E-02 0. -1.
          2   -1    0    0  501    0  0.00000000000E+00 -0.00000000000E+00 -0.99119465250E+03  0.99119465251E+03  0.25500000000E-02 0.  1.
    5000001    1    1    2    0    0 -0.85750694521E+02 -0.14815554700E+03 -0.34051330186E+03  0.40172323366E+03  0.12700000000E+03 0.  0.
   -5000001    1    1    2    0    0  0.85750694521E+02  0.14815554700E+03 -0.60175918675E+03  0.63839358280E+03  0.12700000000E+03 0.  0.
<mgrwt>
<rscale>  0 0.44041520E+03</rscale>
<asrwt>0</asrwt>
<pdfrwt beam="1">  1        2 0.14159922E+00 0.44041520E+03</pdfrwt>
<pdfrwt beam="2">  1       -2 0.69888811E-02 0.44041520E+03</pdfrwt>
<totfact> 0.34614367E+03</totfact>
</mgrwt>
</event>
<event>
 4    1  0.1361667E-004  0.3371882E+03  0.7818608E-02  0.1068000E+00
          2   -1    0    0  501    0  0.00000000000E+00  0.00000000000E+00  0.79845479158E+03  0.79845479159E+03  0.25500000000E-02 0.  1.
         -2   -1    0    0    0  501 -0.00000000000E+00 -0.00000000000E+00 -0.35598728690E+02  0.35598728781E+02  0.25500000000E-02 0. -1.
    5000001    1    1    2    0    0 -0.33445159049E+02  0.99761181847E+02  0.46797075888E+03  0.49618192554E+03  0.12700000000E+03 0.  0.
   -5000001    1    1    2    0    0  0.33445159049E+02 -0.99761181847E+02  0.29488530401E+03  0.33787159482E+03  0.12700000000E+03 0.  0.
<mgrwt>
<rscale>  0 0.33718823E+03</rscale>
<asrwt>0</asrwt>
<pdfrwt beam="1">  1        2 0.11406499E+00 0.33718823E+03</pdfrwt>
<pdfrwt beam="2">  1       -2 0.50855320E-02 0.33718823E+03</pdfrwt>
<totfact> 0.74848699E+03</totfact>
</mgrwt>
</event>
<event>
 4    1  0.1361667E-004  0.3195842E+03  0.7818608E-02  0.1075841E+00
          2   -1    0    0  501    0  0.00000000000E+00  0.00000000000E+00  0.98105398764E+03  0.98105398764E+03  0.25500000000E-02 0.  1.
         -2   -1    0    0    0  501 -0.00000000000E+00 -0.00000000000E+00 -0.26026617255E+02  0.26026617380E+02  0.25500000000E-02 0. -1.
    5000001    1    1    2    0    0 -0.61149868156E+02 -0.68280387279E+02  0.37771399816E+03  0.40889898761E+03  0.12700000000E+03 0.  0.
   -5000001    1    1    2    0    0  0.61149868156E+02  0.68280387279E+02  0.57731337222E+03  0.59818161741E+03  0.12700000000E+03 0.  0.
<mgrwt>
<rscale>  0 0.31958421E+03</rscale>
<asrwt>0</asrwt>
<pdfrwt beam="1">  1        2 0.14015055E+00 0.31958421E+03</pdfrwt>
<pdfrwt beam="2">  1       -2 0.37180886E-02 0.31958421E+03</pdfrwt>
<totfact> 0.92004495E+03</totfact>
</mgrwt>
</event>
<event>
 4    1  0.1361667E-004  0.4624865E+03  0.7818608E-02  0.1024063E+00
         -2   -1    0    0    0  501 -0.00000000000E+00  0.00000000000E+00  0.37620933431E+02  0.37620933517E+02  0.25500000000E-02 0. -1.
          2   -1    0    0  501    0  0.00000000000E+00 -0.00000000000E+00 -0.14213748311E+04  0.14213748311E+04  0.25500000000E-02 0.  1.
    5000001    1    1    2    0    0 -0.10096556832E+03 -0.16310680976E+03 -0.76562967364E+03  0.79944710553E+03  0.12700000000E+03 0.  0.
   -5000001    1    1    2    0    0  0.10096556832E+03  0.16310680976E+03 -0.61812422400E+03  0.65954865907E+03  0.12700000000E+03 0.  0.
<mgrwt>
<rscale>  0 0.46248653E+03</rscale>
<asrwt>0</asrwt>
<pdfrwt beam="1">  1        2 0.20305351E+00 0.46248653E+03</pdfrwt>
<pdfrwt beam="2">  1       -2 0.53744199E-02 0.46248653E+03</pdfrwt>
<totfact> 0.30021110E+03</totfact>
</mgrwt>
</event>
<event>
 4    1  0.1361667E-004  0.5044227E+03  0.7818608E-02  0.1012631E+00
          2   -1    0    0  501    0  0.00000000000E+00  0.00000000000E+00  0.33093591218E+03  0.33093591219E+03  0.25500000000E-02 0.  1.
         -2   -1    0    0    0  501 -0.00000000000E+00 -0.00000000000E+00 -0.19221411257E+03  0.19221411258E+03  0.25500000000E-02 0. -1.
    5000001    1    1    2    0    0  0.10092412189E+03  0.16535503504E+02 -0.13019485479E+03  0.20865953482E+03  0.12700000000E+03 0.  0.
   -5000001    1    1    2    0    0 -0.10092412189E+03 -0.16535503504E+02  0.26891665441E+03  0.31449048996E+03  0.12700000000E+03 0.  0.
<mgrwt>
<rscale>  0 0.50442265E+03</rscale>
<asrwt>0</asrwt>
<pdfrwt beam="1">  1        2 0.47276558E-01 0.50442265E+03</pdfrwt>
<pdfrwt beam="2">  1       -2 0.27459159E-01 0.50442265E+03</pdfrwt>
<totfact> 0.12891249E+03</totfact>
</mgrwt>
</event>
<event>
 4    1  0.1361667E-004  0.3687696E+03  0.7818608E-02  0.1055164E+00
         -2   -1    0    0    0  501 -0.00000000000E+00  0.00000000000E+00  0.39762011827E+02  0.39762011909E+02  0.25500000000E-02 0. -1.
          2   -1    0    0  501    0  0.00000000000E+00 -0.00000000000E+00 -0.85503111096E+03  0.85503111096E+03  0.25500000000E-02 0.  1.
    5000001    1    1    2    0    0  0.11570151629E+03 -0.24559754812E+02 -0.25651781902E+03  0.30971020956E+03  0.12700000000E+03 0.  0.
   -5000001    1    1    2    0    0 -0.11570151629E+03  0.24559754812E+02 -0.55875128010E+03  0.58508291331E+03  0.12700000000E+03 0.  0.
<mgrwt>
<rscale>  0 0.36876961E+03</rscale>
<asrwt>0</asrwt>
<pdfrwt beam="1">  1        2 0.12214729E+00 0.36876961E+03</pdfrwt>
<pdfrwt beam="2">  1       -2 0.56802879E-02 0.36876961E+03</pdfrwt>
<totfact> 0.58029746E+03</totfact>
</mgrwt>
</event>
<event>
 4    1  0.1361667E-004  0.3748104E+03  0.7818608E-02  0.1052869E+00
          2   -1    0    0  501    0  0.00000000000E+00  0.00000000000E+00  0.37421648120E+04  0.37421648120E+04  0.25500000000E-02 0.  1.
         -2   -1    0    0    0  501 -0.00000000000E+00 -0.00000000000E+00 -0.93851292243E+01  0.93851295707E+01  0.25500000000E-02 0. -1.
    5000001    1    1    2    0    0  0.15410278143E+02  0.82077243767E+02  0.76913596346E+03  0.78401102091E+03  0.12700000000E+03 0.  0.
   -5000001    1    1    2    0    0 -0.15410278143E+02 -0.82077243767E+02  0.29636437194E+04  0.29675389207E+04  0.12700000000E+03 0.  0.
<mgrwt>
<rscale>  0 0.37481036E+03</rscale>
<asrwt>0</asrwt>
<pdfrwt beam="1">  1        2 0.53459357E+00 0.37481036E+03</pdfrwt>
<pdfrwt beam="2">  1       -2 0.13407363E-02 0.37481036E+03</pdfrwt>
<totfact> 0.14423021E+03</totfact>
</mgrwt>
</event>
<event>
 4    1  0.1361667E-004  0.7029497E+03  0.7818608E-02  0.9712201E-01
         -2   -1    0    0    0  501 -0.00000000000E+00  0.00000000000E+00  0.14570083085E+04  0.14570083085E+04  0.25500000000E-02 0.  1.
          2   -1    0    0  501    0  0.00000000000E+00 -0.00000000000E+00 -0.84786452014E+02  0.84786452052E+02  0.25500000000E-02 0. -1.
    5000001    1    1    2    0    0  0.71939470837E+02  0.31971663763E+03  0.69356474439E+03  0.77753139518E+03  0.12700000000E+03 0.  0.
   -5000001    1    1    2    0    0 -0.71939470837E+02 -0.31971663763E+03  0.67865711205E+03  0.76426336532E+03  0.12700000000E+03 0.  0.
<mgrwt>
<rscale>  0 0.70294969E+03</rscale>
<asrwt>0</asrwt>
<pdfrwt beam="1">  1        2 0.12112351E-01 0.70294969E+03</pdfrwt>
<pdfrwt beam="2">  1       -2 0.20814403E+00 0.70294969E+03</pdfrwt>
<totfact> 0.62791188E+01</totfact>
</mgrwt>
</event>
<event>
 4    1  0.1361667E-004  0.4496446E+03  0.7818608E-02  0.1027828E+00
          2   -1    0    0  501    0  0.00000000000E+00  0.00000000000E+00  0.84713975866E+03  0.84713975866E+03  0.25500000000E-02 0. -1.
         -2   -1    0    0    0  501 -0.00000000000E+00 -0.00000000000E+00 -0.59665559858E+02  0.59665559912E+02  0.25500000000E-02 0.  1.
    5000001    1    1    2    0    0  0.65267652714E+02  0.17219882176E+03  0.43900180041E+03  0.49271074828E+03  0.12700000000E+03 0.  0.
   -5000001    1    1    2    0    0 -0.65267652714E+02 -0.17219882176E+03  0.34847239839E+03  0.41409457029E+03  0.12700000000E+03 0.  0.
<mgrwt>
<rscale>  0 0.44964461E+03</rscale>
<asrwt>0</asrwt>
<pdfrwt beam="1">  1        2 0.12101996E+00 0.44964461E+03</pdfrwt>
<pdfrwt beam="2">  1       -2 0.85236516E-02 0.44964461E+03</pdfrwt>
<totfact> 0.31201114E+03</totfact>
</mgrwt>
</event>
<event>
 4    1  0.1361667E-004  0.2861885E+03  0.7818608E-02  0.1092356E+00
          2   -1    0    0  501    0  0.00000000000E+00  0.00000000000E+00  0.46232211298E+02  0.46232211369E+02  0.25500000000E-02 0. -1.
         -2   -1    0    0    0  501 -0.00000000000E+00 -0.00000000000E+00 -0.44289404511E+03  0.44289404512E+03  0.25500000000E-02 0.  1.
    5000001    1    1    2    0    0  0.68042108630E+01 -0.63902544340E+02 -0.22351564582E+03  0.26498693625E+03  0.12700000000E+03 0.  0.
   -5000001    1    1    2    0    0 -0.68042108630E+01  0.63902544340E+02 -0.17314618800E+03  0.22413932024E+03  0.12700000000E+03 0.  0.
<mgrwt>
<rscale>  0 0.28618855E+03</rscale>
<asrwt>0</asrwt>
<pdfrwt beam="1">  1        2 0.66046019E-02 0.28618855E+03</pdfrwt>
<pdfrwt beam="2">  1       -2 0.63270575E-01 0.28618855E+03</pdfrwt>
<totfact> 0.25753015E+03</totfact>
</mgrwt>
</event>
<event>
 4    1  0.1361667E-004  0.2979997E+03  0.7818608E-02  0.1086245E+00
         -2   -1    0    0    0  501 -0.00000000000E+00  0.00000000000E+00  0.10313879022E+02  0.10313879338E+02  0.25500000000E-02 0. -1.
          2   -1    0    0  501    0  0.00000000000E+00 -0.00000000000E+00 -0.21525322242E+04  0.21525322242E+04  0.25500000000E-02 0.  1.
    5000001    1    1    2    0    0 -0.44665001536E+02 -0.50625692197E+02 -0.78870076759E+03  0.80170806649E+03  0.12700000000E+03 0.  0.
   -5000001    1    1    2    0    0  0.44665001536E+02  0.50625692197E+02 -0.13535175776E+04  0.13611380371E+04  0.12700000000E+03 0.  0.
<mgrwt>
<rscale>  0 0.29799971E+03</rscale>
<asrwt>0</asrwt>
<pdfrwt beam="1">  1        2 0.30750432E+00 0.29799971E+03</pdfrwt>
<pdfrwt beam="2">  1       -2 0.14734127E-02 0.29799971E+03</pdfrwt>
<totfact> 0.90220101E+03</totfact>
</mgrwt>
</event>
<event>
 4    1  0.1361667E-004  0.1088644E+04  0.7818608E-02  0.9216332E-01
          2   -1    0    0  501    0  0.00000000000E+00  0.00000000000E+00  0.26928107399E+04  0.26928107399E+04  0.25500000000E-02 0.  1.
         -2   -1    0    0    0  501 -0.00000000000E+00 -0.00000000000E+00 -0.11002859452E+03  0.11002859455E+03  0.25500000000E-02 0. -1.
    5000001    1    1    2    0    0  0.38854950061E+03  0.23502824748E+03  0.19915171963E+04  0.20465773220E+04  0.12700000000E+03 0.  0.
   -5000001    1    1    2    0    0 -0.38854950061E+03 -0.23502824748E+03  0.59126494907E+03  0.75626201249E+03  0.12700000000E+03 0.  0.
<mgrwt>
<rscale>  0 0.10886435E+04</rscale>
<asrwt>0</asrwt>
<pdfrwt beam="1">  1        2 0.38468720E+00 0.10886435E+04</pdfrwt>
<pdfrwt beam="2">  1       -2 0.15718373E-01 0.10886435E+04</pdfrwt>
<totfact> 0.11321719E+02</totfact>
</mgrwt>
</event>
<event>
 4    1  0.1361667E-004  0.4415040E+03  0.7818608E-02  0.1030286E+00
          2   -1    0    0  501    0  0.00000000000E+00  0.00000000000E+00  0.11401211901E+04  0.11401211901E+04  0.25500000000E-02 0.  1.
         -2   -1    0    0    0  501 -0.00000000000E+00 -0.00000000000E+00 -0.42742347686E+02  0.42742347762E+02  0.25500000000E-02 0. -1.
    5000001    1    1    2    0    0 -0.10481035940E+03 -0.89521268645E+02  0.86116803117E+03  0.88132777494E+03  0.12700000000E+03 0.  0.
   -5000001    1    1    2    0    0  0.10481035940E+03  0.89521268645E+02  0.23621081129E+03  0.30153576297E+03  0.12700000000E+03 0.  0.
<mgrwt>
<rscale>  0 0.44150405E+03</rscale>
<asrwt>0</asrwt>
<pdfrwt beam="1">  1        2 0.16287445E+00 0.44150405E+03</pdfrwt>
<pdfrwt beam="2">  1       -2 0.61060498E-02 0.44150405E+03</pdfrwt>
<totfact> 0.34985684E+03</totfact>
</mgrwt>
</event>
<event>
 4    1  0.1361667E-004  0.3346629E+03  0.7818608E-02  0.1069092E+00
          2   -1    0    0  501    0  0.00000000000E+00  0.00000000000E+00  0.35912517980E+04  0.35912517980E+04  0.25500000000E-02 0.  1.
         -2   -1    0    0    0  501 -0.00000000000E+00 -0.00000000000E+00 -0.77966730024E+01  0.77966734194E+01  0.25500000000E-02 0. -1.
    5000001    1    1    2    0    0  0.90061613140E+02  0.59322270322E+02  0.19585366051E+04  0.19656105564E+04  0.12700000000E+03 0.  0.
   -5000001    1    1    2    0    0 -0.90061613140E+02 -0.59322270322E+02  0.16249185199E+04  0.16334379150E+04  0.12700000000E+03 0.  0.
<mgrwt>
<rscale>  0 0.33466292E+03</rscale>
<asrwt>0</asrwt>
<pdfrwt beam="1">  1        2 0.51303575E+00 0.33466292E+03</pdfrwt>
<pdfrwt beam="2">  1       -2 0.11138109E-02 0.33466292E+03</pdfrwt>
<totfact> 0.23486733E+03</totfact>
</mgrwt>
</event>
<event>
 4    1  0.1361667E-004  0.2830586E+03  0.7818608E-02  0.1094030E+00
         -2   -1    0    0    0  501 -0.00000000000E+00  0.00000000000E+00  0.26008494468E+03  0.26008494469E+03  0.25500000000E-02 0. -1.
          2   -1    0    0  501    0  0.00000000000E+00 -0.00000000000E+00 -0.77015369307E+02  0.77015369349E+02  0.25500000000E-02 0.  1.
    5000001    1    1    2    0    0 -0.59696590930E+02 -0.12626811348E+01  0.69696381599E+02  0.15669034093E+03  0.12700000000E+03 0.  0.
   -5000001    1    1    2    0    0  0.59696590930E+02  0.12626811348E+01  0.11337319377E+03  0.18040997311E+03  0.12700000000E+03 0.  0.
<mgrwt>
<rscale>  0 0.28305857E+03</rscale>
<asrwt>0</asrwt>
<pdfrwt beam="1">  1        2 0.11002196E-01 0.28305857E+03</pdfrwt>
<pdfrwt beam="2">  1       -2 0.37154992E-01 0.28305857E+03</pdfrwt>
<totfact> 0.38881643E+03</totfact>
</mgrwt>
</event>
<event>
 4    1  0.1361667E-004  0.2779278E+03  0.7818608E-02  0.1096826E+00
         -2   -1    0    0    0  501 -0.00000000000E+00  0.00000000000E+00  0.20907142316E+02  0.20907142471E+02  0.25500000000E-02 0. -1.
          2   -1    0    0  501    0  0.00000000000E+00 -0.00000000000E+00 -0.92365426794E+03  0.92365426795E+03  0.25500000000E-02 0.  1.
    5000001    1    1    2    0    0  0.38274801138E+01 -0.56264717389E+02 -0.44707025270E+03  0.46816789603E+03  0.12700000000E+03 0.  0.
   -5000001    1    1    2    0    0 -0.38274801138E+01  0.56264717389E+02 -0.45567687293E+03  0.47639351439E+03  0.12700000000E+03 0.  0.
<mgrwt>
<rscale>  0 0.27792784E+03</rscale>
<asrwt>0</asrwt>
<pdfrwt beam="1">  1        2 0.13195058E+00 0.27792784E+03</pdfrwt>
<pdfrwt beam="2">  1       -2 0.29867352E-02 0.27792784E+03</pdfrwt>
<totfact> 0.13777125E+04</totfact>
</mgrwt>
</event>
<event>
 4    1  0.1361667E-004  0.3223714E+03  0.7818608E-02  0.1074563E+00
         -2   -1    0    0    0  501 -0.00000000000E+00  0.00000000000E+00  0.11349204717E+02  0.11349205004E+02  0.25500000000E-02 0. -1.
          2   -1    0    0  501    0  0.00000000000E+00 -0.00000000000E+00 -0.22892204553E+04  0.22892204553E+04  0.25500000000E-02 0.  1.
    5000001    1    1    2    0    0 -0.45564149129E+02  0.75036640800E+02 -0.14694703485E+04  0.14775583556E+04  0.12700000000E+03 0.  0.
   -5000001    1    1    2    0    0  0.45564149129E+02 -0.75036640800E+02 -0.80840090209E+03  0.82301130469E+03  0.12700000000E+03 0.  0.
<mgrwt>
<rscale>  0 0.32237141E+03</rscale>
<asrwt>0</asrwt>
<pdfrwt beam="1">  1        2 0.32703120E+00 0.32237141E+03</pdfrwt>
<pdfrwt beam="2">  1       -2 0.16213164E-02 0.32237141E+03</pdfrwt>
<totfact> 0.67170020E+03</totfact>
</mgrwt>
</event>
<event>
 4    1  0.1361667E-004  0.3100889E+03  0.7818608E-02  0.1080303E+00
          2   -1    0    0  501    0  0.00000000000E+00  0.00000000000E+00  0.14133053387E+04  0.14133053387E+04  0.25500000000E-02 0.  1.
         -2   -1    0    0    0  501 -0.00000000000E+00 -0.00000000000E+00 -0.17008904609E+02  0.17008904800E+02  0.25500000000E-02 0. -1.
    5000001    1    1    2    0    0 -0.28438849699E+02 -0.79874733005E+02  0.82200601997E+03  0.83606915863E+03  0.12700000000E+03 0.  0.
   -5000001    1    1    2    0    0  0.28438849699E+02  0.79874733005E+02  0.57429041414E+03  0.59424508489E+03  0.12700000000E+03 0.  0.
<mgrwt>
<rscale>  0 0.31008886E+03</rscale>
<asrwt>0</asrwt>
<pdfrwt beam="1">  1        2 0.20190080E+00 0.31008886E+03</pdfrwt>
<pdfrwt beam="2">  1       -2 0.24298431E-02 0.31008886E+03</pdfrwt>
<totfact> 0.10041231E+04</totfact>
</mgrwt>
</event>
<event>
 4    1  0.1361667E-004  0.5141108E+03  0.7818608E-02  0.1010160E+00
         -2   -1    0    0    0  501 -0.00000000000E+00  0.00000000000E+00  0.30099663745E+02  0.30099663853E+02  0.25500000000E-02 0. -1.
          2   -1    0    0  501    0  0.00000000000E+00 -0.00000000000E+00 -0.21952897633E+04  0.21952897633E+04  0.25500000000E-02 0.  1.
    5000001    1    1    2    0    0 -0.71151426586E+02 -0.19304657712E+03 -0.70476402322E+03  0.74508444815E+03  0.12700000000E+03 0.  0.
   -5000001    1    1    2    0    0  0.71151426586E+02  0.19304657712E+03 -0.14604260763E+04  0.14803049790E+04  0.12700000000E+03 0.  0.
<mgrwt>
<rscale>  0 0.51411082E+03</rscale>
<asrwt>0</asrwt>
<pdfrwt beam="1">  1        2 0.31361272E+00 0.51411082E+03</pdfrwt>
<pdfrwt beam="2">  1       -2 0.42999534E-02 0.51411082E+03</pdfrwt>
<totfact> 0.17194820E+03</totfact>
</mgrwt>
</event>
<event>
 4    1  0.1361667E-004  0.3819237E+03  0.7818608E-02  0.1050225E+00
          2   -1    0    0  501    0  0.00000000000E+00  0.00000000000E+00  0.17937906363E+04  0.17937906363E+04  0.25500000000E-02 0.  1.
         -2   -1    0    0    0  501 -0.00000000000E+00 -0.00000000000E+00 -0.20329254211E+02  0.20329254371E+02  0.25500000000E-02 0. -1.
    5000001    1    1    2    0    0  0.12118044163E+03 -0.65745947186E+02  0.10599703697E+04  0.10764169330E+04  0.12700000000E+03 0.  0.
   -5000001    1    1    2    0    0 -0.12118044163E+03  0.65745947186E+02  0.71349101244E+03  0.73770295772E+03  0.12700000000E+03 0.  0.
<mgrwt>
<rscale>  0 0.38192369E+03</rscale>
<asrwt>0</asrwt>
<pdfrwt beam="1">  1        2 0.25625556E+00 0.38192369E+03</pdfrwt>
<pdfrwt beam="2">  1       -2 0.29041819E-02 0.38192369E+03</pdfrwt>
<totfact> 0.49605436E+03</totfact>
</mgrwt>
</event>
<event>
 4    1  0.1361667E-004  0.3379518E+03  0.7818608E-02  0.1067672E+00
          2   -1    0    0  501    0  0.00000000000E+00  0.00000000000E+00  0.24177882531E+02  0.24177882666E+02  0.25500000000E-02 0.  1.
         -2   -1    0    0    0  501 -0.00000000000E+00 -0.00000000000E+00 -0.11809490147E+04  0.11809490147E+04  0.25500000000E-02 0. -1.
    5000001    1    1    2    0    0  0.10627593005E+03  0.17079737140E+02 -0.68158682156E+03  0.70162374964E+03  0.12700000000E+03 0.  0.
   -5000001    1    1    2    0    0 -0.10627593005E+03 -0.17079737140E+02 -0.47518431062E+03  0.50350314774E+03  0.12700000000E+03 0.  0.
<mgrwt>
<rscale>  0 0.33795175E+03</rscale>
<asrwt>0</asrwt>
<pdfrwt beam="1">  1        2 0.34539840E-02 0.33795175E+03</pdfrwt>
<pdfrwt beam="2">  1       -2 0.16870697E+00 0.33795175E+03</pdfrwt>
<totfact> 0.60352778E+02</totfact>
</mgrwt>
</event>
<event>
 4    1  0.1361667E-004  0.4196763E+03  0.7818608E-02  0.1037172E+00
          2   -1    0    0  501    0  0.00000000000E+00  0.00000000000E+00  0.16772550082E+02  0.16772550276E+02  0.25500000000E-02 0.  1.
         -2   -1    0    0    0  501 -0.00000000000E+00 -0.00000000000E+00 -0.26252448662E+04  0.26252448662E+04  0.25500000000E-02 0. -1.
    5000001    1    1    2    0    0 -0.33784411282E+02  0.10303832881E+03 -0.50433353553E+03  0.53126226923E+03  0.12700000000E+03 0.  0.
   -5000001    1    1    2    0    0  0.33784411282E+02 -0.10303832881E+03 -0.21041387805E+04  0.21107551472E+04  0.12700000000E+03 0.  0.
<mgrwt>
<rscale>  0 0.41967631E+03</rscale>
<asrwt>0</asrwt>
<pdfrwt beam="1">  1        2 0.23960803E-02 0.41967631E+03</pdfrwt>
<pdfrwt beam="2">  1       -2 0.37503472E+00 0.41967631E+03</pdfrwt>
<totfact> 0.54168571E+01</totfact>
</mgrwt>
</event>
<event>
 4    1  0.1361667E-004  0.3173782E+03  0.7818608E-02  0.1076862E+00
          2   -1    0    0  501    0  0.00000000000E+00  0.00000000000E+00  0.10772737305E+04  0.10772737305E+04  0.25500000000E-02 0.  1.
         -2   -1    0    0    0  501 -0.00000000000E+00 -0.00000000000E+00 -0.23375883883E+02  0.23375884023E+02  0.25500000000E-02 0. -1.
    5000001    1    1    2    0    0  0.11437550343E+02 -0.88045346003E+02  0.40830544616E+03  0.43672089242E+03  0.12700000000E+03 0.  0.
   -5000001    1    1    2    0    0 -0.11437550343E+02  0.88045346003E+02  0.64559240042E+03  0.66392872207E+03  0.12700000000E+03 0.  0.
<mgrwt>
<rscale>  0 0.31737817E+03</rscale>
<asrwt>0</asrwt>
<pdfrwt beam="1">  1        2 0.15389627E+00 0.31737817E+03</pdfrwt>
<pdfrwt beam="2">  1       -2 0.33394114E-02 0.31737817E+03</pdfrwt>
<totfact> 0.94950732E+03</totfact>
</mgrwt>
</event>
<event>
 4    1  0.1361667E-004  0.3116938E+03  0.7818608E-02  0.1079537E+00
         -2   -1    0    0    0  501 -0.00000000000E+00  0.00000000000E+00  0.27559238741E+02  0.27559238859E+02  0.25500000000E-02 0. -1.
          2   -1    0    0  501    0  0.00000000000E+00 -0.00000000000E+00 -0.88131104408E+03  0.88131104408E+03  0.25500000000E-02 0.  1.
    5000001    1    1    2    0    0 -0.17905371195E+02 -0.85939369519E+02 -0.48894322976E+03  0.51273839283E+03  0.12700000000E+03 0.  0.
   -5000001    1    1    2    0    0  0.17905371195E+02  0.85939369519E+02 -0.36480857558E+03  0.39613189011E+03  0.12700000000E+03 0.  0.
<mgrwt>
<rscale>  0 0.31169383E+03</rscale>
<asrwt>0</asrwt>
<pdfrwt beam="1">  1        2 0.12590156E+00 0.31169383E+03</pdfrwt>
<pdfrwt beam="2">  1       -2 0.39370347E-02 0.31169383E+03</pdfrwt>
<totfact> 0.97188859E+03</totfact>
</mgrwt>
</event>
<event>
 4    1  0.1361667E-004  0.5420507E+03  0.7818608E-02  0.1003351E+00
         -2   -1    0    0    0  501 -0.00000000000E+00  0.00000000000E+00  0.10930128330E+03  0.10930128333E+03  0.25500000000E-02 0.  1.
          2   -1    0    0  501    0  0.00000000000E+00 -0.00000000000E+00 -0.67203905525E+03  0.67203905525E+03  0.25500000000E-02 0. -1.
    5000001    1    1    2    0    0 -0.14198193870E+03 -0.15237507051E+03 -0.11112669417E+03  0.26805815635E+03  0.12700000000E+03 0.  0.
   -5000001    1    1    2    0    0  0.14198193870E+03  0.15237507051E+03 -0.45161107777E+03  0.51328218223E+03  0.12700000000E+03 0.  0.
<mgrwt>
<rscale>  0 0.54205067E+03</rscale>
<asrwt>0</asrwt>
<pdfrwt beam="1">  1        2 0.96005578E-01 0.54205067E+03</pdfrwt>
<pdfrwt beam="2">  1       -2 0.15614469E-01 0.54205067E+03</pdfrwt>
<totfact> 0.15479529E+03</totfact>
</mgrwt>
</event>
<event>
 4    1  0.1361667E-004  0.4142146E+03  0.7818608E-02  0.1038966E+00
         -2   -1    0    0    0  501 -0.00000000000E+00  0.00000000000E+00  0.30338965078E+02  0.30338965185E+02  0.25500000000E-02 0. -1.
          2   -1    0    0  501    0  0.00000000000E+00 -0.00000000000E+00 -0.14138067616E+04  0.14138067616E+04  0.25500000000E-02 0.  1.
    5000001    1    1    2    0    0  0.13963000338E+03 -0.80676022450E+02 -0.78780335572E+03  0.81410581974E+03  0.12700000000E+03 0.  0.
   -5000001    1    1    2    0    0 -0.13963000338E+03  0.80676022450E+02 -0.59566444082E+03  0.63003990707E+03  0.12700000000E+03 0.  0.
<mgrwt>
<rscale>  0 0.41421460E+03</rscale>
<asrwt>0</asrwt>
<pdfrwt beam="1">  1        2 0.20197235E+00 0.41421460E+03</pdfrwt>
<pdfrwt beam="2">  1       -2 0.43341388E-02 0.41421460E+03</pdfrwt>
<totfact> 0.42169751E+03</totfact>
</mgrwt>
</event>
<event>
 4    1  0.1361667E-004  0.4252619E+03  0.7818608E-02  0.1035367E+00
         -2   -1    0    0    0  501 -0.00000000000E+00  0.00000000000E+00  0.12709582815E+02  0.12709583071E+02  0.25500000000E-02 0. -1.
          2   -1    0    0  501    0  0.00000000000E+00 -0.00000000000E+00 -0.35573094448E+04  0.35573094448E+04  0.25500000000E-02 0.  1.
    5000001    1    1    2    0    0 -0.13555619260E+03 -0.52528476025E+02 -0.25207250969E+04  0.25281057605E+04  0.12700000000E+03 0.  0.
   -5000001    1    1    2    0    0  0.13555619260E+03  0.52528476025E+02 -0.10238747651E+04  0.10419132674E+04  0.12700000000E+03 0.  0.
<mgrwt>
<rscale>  0 0.42526189E+03</rscale>
<asrwt>0</asrwt>
<pdfrwt beam="1">  1        2 0.50818643E+00 0.42526189E+03</pdfrwt>
<pdfrwt beam="2">  1       -2 0.18156570E-02 0.42526189E+03</pdfrwt>
<totfact> 0.11839797E+03</totfact>
</mgrwt>
</event>
<event>
 4    1  0.1361667E-004  0.4225898E+03  0.7818608E-02  0.1036227E+00
         -2   -1    0    0    0  501 -0.00000000000E+00  0.00000000000E+00  0.12108716680E+03  0.12108716683E+03  0.25500000000E-02 0. -1.
          2   -1    0    0  501    0  0.00000000000E+00 -0.00000000000E+00 -0.36870578229E+03  0.36870578230E+03  0.25500000000E-02 0.  1.
    5000001    1    1    2    0    0 -0.94243689658E+02 -0.73144825020E+02  0.14715011101E+02  0.17486443326E+03  0.12700000000E+03 0.  0.
   -5000001    1    1    2    0    0  0.94243689658E+02  0.73144825020E+02 -0.26233362659E+03  0.31492851587E+03  0.12700000000E+03 0.  0.
<mgrwt>
<rscale>  0 0.42258982E+03</rscale>
<asrwt>0</asrwt>
<pdfrwt beam="1">  1        2 0.52672254E-01 0.42258982E+03</pdfrwt>
<pdfrwt beam="2">  1       -2 0.17298167E-01 0.42258982E+03</pdfrwt>
<totfact> 0.25701822E+03</totfact>
</mgrwt>
</event>
<event>
 4    1  0.1361667E-004  0.7859608E+03  0.7818608E-02  0.9580564E-01
         -2   -1    0    0    0  501 -0.00000000000E+00  0.00000000000E+00  0.18227922153E+03  0.18227922155E+03  0.25500000000E-02 0. -1.
          2   -1    0    0  501    0  0.00000000000E+00 -0.00000000000E+00 -0.84723631618E+03  0.84723631618E+03  0.25500000000E-02 0.  1.
    5000001    1    1    2    0    0  0.30691015605E+03  0.45017873167E+02 -0.63763993890E+02  0.34119686357E+03  0.12700000000E+03 0.  0.
   -5000001    1    1    2    0    0 -0.30691015605E+03 -0.45017873167E+02 -0.60119310076E+03  0.68831867416E+03  0.12700000000E+03 0.  0.
<mgrwt>
<rscale>  0 0.78596075E+03</rscale>
<asrwt>0</asrwt>
<pdfrwt beam="1">  1        2 0.12103376E+00 0.78596075E+03</pdfrwt>
<pdfrwt beam="2">  1       -2 0.26039889E-01 0.78596075E+03</pdfrwt>
<totfact> 0.47058997E+02</totfact>
</mgrwt>
</event>
<event>
 4    1  0.1361667E-004  0.2667443E+03  0.7818608E-02  0.1103158E+00
         -2   -1    0    0    0  501 -0.00000000000E+00  0.00000000000E+00  0.10294854835E+03  0.10294854838E+03  0.25500000000E-02 0. -1.
          2   -1    0    0  501    0  0.00000000000E+00 -0.00000000000E+00 -0.17278657896E+03  0.17278657898E+03  0.25500000000E-02 0.  1.
    5000001    1    1    2    0    0  0.38820142033E+02  0.66960995702E+01 -0.24211982429E+02  0.13515569270E+03  0.12700000000E+03 0.  0.
   -5000001    1    1    2    0    0 -0.38820142033E+02 -0.66960995702E+01 -0.45626048177E+02  0.14057943466E+03  0.12700000000E+03 0.  0.
<mgrwt>
<rscale>  0 0.26674428E+03</rscale>
<asrwt>0</asrwt>
<pdfrwt beam="1">  1        2 0.24683797E-01 0.26674428E+03</pdfrwt>
<pdfrwt beam="2">  1       -2 0.14706936E-01 0.26674428E+03</pdfrwt>
<totfact> 0.76395434E+03</totfact>
</mgrwt>
</event>
<event>
 4    1  0.1361667E-004  0.9191940E+03  0.7818608E-02  0.9401901E-01
          2   -1    0    0  501    0  0.00000000000E+00  0.00000000000E+00  0.33686911179E+04  0.33686911179E+04  0.25500000000E-02 0.  1.
         -2   -1    0    0    0  501 -0.00000000000E+00 -0.00000000000E+00 -0.62703697001E+02  0.62703697053E+02  0.25500000000E-02 0. -1.
    5000001    1    1    2    0    0  0.36891642818E+03 -0.10292095030E+02  0.74704582791E+03  0.84285925706E+03  0.12700000000E+03 0.  0.
   -5000001    1    1    2    0    0 -0.36891642818E+03  0.10292095030E+02  0.25589415930E+04  0.25885355579E+04  0.12700000000E+03 0.  0.
<mgrwt>
<rscale>  0 0.91919397E+03</rscale>
<asrwt>0</asrwt>
<pdfrwt beam="1">  1        2 0.48124160E+00 0.91919397E+03</pdfrwt>
<pdfrwt beam="2">  1       -2 0.89576707E-02 0.91919397E+03</pdfrwt>
<totfact> 0.12320126E+02</totfact>
</mgrwt>
</event>
<event>
 4    1  0.1361667E-004  0.5948351E+03  0.7818608E-02  0.9916180E-01
         -2   -1    0    0    0  501 -0.00000000000E+00  0.00000000000E+00  0.21779195137E+03  0.21779195138E+03  0.25500000000E-02 0. -1.
          2   -1    0    0  501    0  0.00000000000E+00 -0.00000000000E+00 -0.40615455811E+03  0.40615455811E+03  0.25500000000E-02 0.  1.
    5000001    1    1    2    0    0 -0.15774853132E+03  0.20520781088E+03 -0.17078518677E+03  0.33509912683E+03  0.12700000000E+03 0.  0.
   -5000001    1    1    2    0    0  0.15774853132E+03 -0.20520781088E+03 -0.17577419964E+02  0.28884738267E+03  0.12700000000E+03 0.  0.
<mgrwt>
<rscale>  0 0.59483508E+03</rscale>
<asrwt>0</asrwt>
<pdfrwt beam="1">  1        2 0.58022079E-01 0.59483508E+03</pdfrwt>
<pdfrwt beam="2">  1       -2 0.31113136E-01 0.59483508E+03</pdfrwt>
<totfact> 0.81703153E+02</totfact>
</mgrwt>
</event>
<event>
 4    1  0.1361667E-004  0.3249189E+03  0.7818608E-02  0.1073407E+00
          2   -1    0    0  501    0  0.00000000000E+00  0.00000000000E+00  0.96511277829E+02  0.96511277863E+02  0.25500000000E-02 0.  1.
         -2   -1    0    0    0  501 -0.00000000000E+00 -0.00000000000E+00 -0.27347146906E+03  0.27347146907E+03  0.25500000000E-02 0. -1.
    5000001    1    1    2    0    0  0.12428294047E+01  0.96997905454E+02 -0.55204887193E+02  0.16907607121E+03  0.12700000000E+03 0.  0.
   -5000001    1    1    2    0    0 -0.12428294047E+01 -0.96997905454E+02 -0.12175530404E+03  0.20090667572E+03  0.12700000000E+03 0.  0.
<mgrwt>
<rscale>  0 0.32491895E+03</rscale>
<asrwt>0</asrwt>
<pdfrwt beam="1">  1        2 0.13787326E-01 0.32491895E+03</pdfrwt>
<pdfrwt beam="2">  1       -2 0.39067352E-01 0.32491895E+03</pdfrwt>
<totfact> 0.26964108E+03</totfact>
</mgrwt>
</event>
<event>
 4    1  0.1361667E-004  0.3417808E+03  0.7818608E-02  0.1066040E+00
          2   -1    0    0  501    0  0.00000000000E+00  0.00000000000E+00  0.43415077717E+03  0.43415077718E+03  0.25500000000E-02 0.  1.
         -2   -1    0    0    0  501 -0.00000000000E+00 -0.00000000000E+00 -0.67265865213E+02  0.67265865261E+02  0.25500000000E-02 0. -1.
    5000001    1    1    2    0    0 -0.83119584529E+02 -0.70841831134E+02  0.23313042210E+03  0.28706484299E+03  0.12700000000E+03 0.  0.
   -5000001    1    1    2    0    0  0.83119584529E+02  0.70841831134E+02  0.13375448985E+03  0.21435179945E+03  0.12700000000E+03 0.  0.
<mgrwt>
<rscale>  0 0.34178079E+03</rscale>
<asrwt>0</asrwt>
<pdfrwt beam="1">  1        2 0.62021542E-01 0.34178079E+03</pdfrwt>
<pdfrwt beam="2">  1       -2 0.96094089E-02 0.34178079E+03</pdfrwt>
<totfact> 0.56156148E+03</totfact>
</mgrwt>
</event>
<event>
 4    1  0.1361667E-004  0.6687252E+03  0.7818608E-02  0.9772264E-01
          2   -1    0    0  501    0  0.00000000000E+00  0.00000000000E+00  0.19141997393E+04  0.19141997393E+04  0.25500000000E-02 0.  1.
         -2   -1    0    0    0  501 -0.00000000000E+00 -0.00000000000E+00 -0.58404740677E+02  0.58404740732E+02  0.25500000000E-02 0. -1.
    5000001    1    1    2    0    0  0.15759804078E+03 -0.26608351440E+03  0.94452147555E+03  0.10019418131E+04  0.12700000000E+03 0.  0.
   -5000001    1    1    2    0    0 -0.15759804078E+03  0.26608351440E+03  0.91127352308E+03  0.97066266692E+03  0.12700000000E+03 0.  0.
<mgrwt>
<rscale>  0 0.66872517E+03</rscale>
<asrwt>0</asrwt>
<pdfrwt beam="1">  1        2 0.27345712E+00 0.66872517E+03</pdfrwt>
<pdfrwt beam="2">  1       -2 0.83435340E-02 0.66872517E+03</pdfrwt>
<totfact> 0.83544121E+02</totfact>
</mgrwt>
</event>
<event>
 4    1  0.1361667E-004  0.4914645E+03  0.7818608E-02  0.1016031E+00
         -2   -1    0    0    0  501 -0.00000000000E+00  0.00000000000E+00  0.45620034012E+02  0.45620034084E+02  0.25500000000E-02 0. -1.
          2   -1    0    0  501    0  0.00000000000E+00 -0.00000000000E+00 -0.13236365566E+04  0.13236365566E+04  0.25500000000E-02 0.  1.
    5000001    1    1    2    0    0 -0.12371052443E+03 -0.14935262384E+03 -0.41189887580E+03  0.47265228656E+03  0.12700000000E+03 0.  0.
   -5000001    1    1    2    0    0  0.12371052443E+03  0.14935262384E+03 -0.86611764674E+03  0.89660430408E+03  0.12700000000E+03 0.  0.
<mgrwt>
<rscale>  0 0.49146452E+03</rscale>
<asrwt>0</asrwt>
<pdfrwt beam="1">  1        2 0.18909091E+00 0.49146452E+03</pdfrwt>
<pdfrwt beam="2">  1       -2 0.65171485E-02 0.49146452E+03</pdfrwt>
<totfact> 0.25047929E+03</totfact>
</mgrwt>
</event>
<event>
 4    1  0.1361667E-004  0.3552282E+03  0.7818608E-02  0.1060489E+00
          2   -1    0    0  501    0  0.00000000000E+00  0.00000000000E+00  0.46007660465E+03  0.46007660466E+03  0.25500000000E-02 0.  1.
         -2   -1    0    0    0  501 -0.00000000000E+00 -0.00000000000E+00 -0.68568526678E+02  0.68568526726E+02  0.25500000000E-02 0. -1.
    5000001    1    1    2    0    0  0.26718694148E+02  0.11217419496E+03  0.26428871021E+03  0.31507849970E+03  0.12700000000E+03 0.  0.
   -5000001    1    1    2    0    0 -0.26718694148E+02 -0.11217419496E+03  0.12721936776E+03  0.21356663168E+03  0.12700000000E+03 0.  0.
<mgrwt>
<rscale>  0 0.35522824E+03</rscale>
<asrwt>0</asrwt>
<pdfrwt beam="1">  1        2 0.65725234E-01 0.35522824E+03</pdfrwt>
<pdfrwt beam="2">  1       -2 0.97955032E-02 0.35522824E+03</pdfrwt>
<totfact> 0.51145557E+03</totfact>
</mgrwt>
</event>
<event>
 4    1  0.1361667E-004  0.3728390E+03  0.7818608E-02  0.1053613E+00
         -2   -1    0    0    0  501 -0.00000000000E+00  0.00000000000E+00  0.35051924043E+02  0.35051924136E+02  0.25500000000E-02 0. -1.
          2   -1    0    0  501    0  0.00000000000E+00 -0.00000000000E+00 -0.99144989352E+03  0.99144989352E+03  0.25500000000E-02 0.  1.
    5000001    1    1    2    0    0  0.50850708973E+02 -0.12403560669E+03 -0.54853244292E+03  0.57878101840E+03  0.12700000000E+03 0.  0.
   -5000001    1    1    2    0    0 -0.50850708973E+02  0.12403560669E+03 -0.40786552656E+03  0.44772079925E+03  0.12700000000E+03 0.  0.
<mgrwt>
<rscale>  0 0.37283898E+03</rscale>
<asrwt>0</asrwt>
<pdfrwt beam="1">  1        2 0.14163568E+00 0.37283898E+03</pdfrwt>
<pdfrwt beam="2">  1       -2 0.50074184E-02 0.37283898E+03</pdfrwt>
<totfact> 0.57895059E+03</totfact>
</mgrwt>
</event>
<event>
 4    1  0.1361667E-004  0.3302131E+03  0.7818608E-02  0.1071043E+00
         -2   -1    0    0    0  501 -0.00000000000E+00  0.00000000000E+00  0.26316327017E+03  0.26316327018E+03  0.25500000000E-02 0. -1.
          2   -1    0    0  501    0  0.00000000000E+00 -0.00000000000E+00 -0.10358651807E+03  0.10358651810E+03  0.25500000000E-02 0.  1.
    5000001    1    1    2    0    0  0.85631253321E+02  0.39245640691E+02  0.27009493930E+02  0.16041023852E+03  0.12700000000E+03 0.  0.
   -5000001    1    1    2    0    0 -0.85631253321E+02 -0.39245640691E+02  0.13256725817E+03  0.20633954976E+03  0.12700000000E+03 0.  0.
<mgrwt>
<rscale>  0 0.33021306E+03</rscale>
<asrwt>0</asrwt>
<pdfrwt beam="1">  1        2 0.14798074E-01 0.33021306E+03</pdfrwt>
<pdfrwt beam="2">  1       -2 0.37594753E-01 0.33021306E+03</pdfrwt>
<totfact> 0.26660357E+03</totfact>
</mgrwt>
</event>
<event>
 4    1  0.1361667E-004  0.4179106E+03  0.7818608E-02  0.1037748E+00
         -2   -1    0    0    0  501 -0.00000000000E+00  0.00000000000E+00  0.14659690939E+02  0.14659691161E+02  0.25500000000E-02 0. -1.
          2   -1    0    0  501    0  0.00000000000E+00 -0.00000000000E+00 -0.29783924385E+04  0.29783924385E+04  0.25500000000E-02 0.  1.
    5000001    1    1    2    0    0  0.11569244899E+03  0.11722874716E+03 -0.13375587908E+04  0.13536320921E+04  0.12700000000E+03 0.  0.
   -5000001    1    1    2    0    0 -0.11569244899E+03 -0.11722874716E+03 -0.16261739568E+04  0.16394200376E+04  0.12700000000E+03 0.  0.
<mgrwt>
<rscale>  0 0.41791058E+03</rscale>
<asrwt>0</asrwt>
<pdfrwt beam="1">  1        2 0.42548425E+00 0.41791058E+03</pdfrwt>
<pdfrwt beam="2">  1       -2 0.20942435E-02 0.41791058E+03</pdfrwt>
<totfact> 0.20295270E+03</totfact>
</mgrwt>
</event>
<event>
 4    1  0.1361667E-004  0.3238599E+03  0.7818608E-02  0.1073886E+00
          2   -1    0    0  501    0  0.00000000000E+00  0.00000000000E+00  0.98284509360E+03  0.98284509360E+03  0.25500000000E-02 0.  1.
         -2   -1    0    0    0  501 -0.00000000000E+00 -0.00000000000E+00 -0.26678982551E+02  0.26678982673E+02  0.25500000000E-02 0. -1.
    5000001    1    1    2    0    0  0.89523014112E+02 -0.21307954920E+02  0.60369769300E+03  0.62373736743E+03  0.12700000000E+03 0.  0.
   -5000001    1    1    2    0    0 -0.89523014112E+02  0.21307954920E+02  0.35246841805E+03  0.38578670885E+03  0.12700000000E+03 0.  0.
<mgrwt>
<rscale>  0 0.32385989E+03</rscale>
<asrwt>0</asrwt>
<pdfrwt beam="1">  1        2 0.14040644E+00 0.32385989E+03</pdfrwt>
<pdfrwt beam="2">  1       -2 0.38112832E-02 0.32385989E+03</pdfrwt>
<totfact> 0.88447747E+03</totfact>
</mgrwt>
</event>
<event>
 4    1  0.1361667E-004  0.2586554E+03  0.7818608E-02  0.1107954E+00
         -2   -1    0    0    0  501 -0.00000000000E+00  0.00000000000E+00  0.83526863599E+01  0.83526867492E+01  0.25500000000E-02 0. -1.
          2   -1    0    0  501    0  0.00000000000E+00 -0.00000000000E+00 -0.20024281216E+04  0.20024281216E+04  0.25500000000E-02 0.  1.
    5000001    1    1    2    0    0  0.61727894260E+01  0.16663946294E+02 -0.11273217604E+04  0.11345920597E+04  0.12700000000E+03 0.  0.
   -5000001    1    1    2    0    0 -0.61727894260E+01 -0.16663946294E+02 -0.86675367488E+03  0.87618874870E+03  0.12700000000E+03 0.  0.
<mgrwt>
<rscale>  0 0.25865540E+03</rscale>
<asrwt>0</asrwt>
<pdfrwt beam="1">  1        2 0.28606085E+00 0.25865540E+03</pdfrwt>
<pdfrwt beam="2">  1       -2 0.11932422E-02 0.25865540E+03</pdfrwt>
<totfact> 0.14496015E+04</totfact>
</mgrwt>
</event>
<event>
 4    1  0.1361667E-004  0.5741598E+03  0.7818608E-02  0.9960516E-01
          2   -1    0    0  501    0  0.00000000000E+00  0.00000000000E+00  0.83182715079E+02  0.83182715118E+02  0.25500000000E-02 0.  1.
         -2   -1    0    0    0  501 -0.00000000000E+00 -0.00000000000E+00 -0.99076909339E+03  0.99076909339E+03  0.25500000000E-02 0. -1.
    5000001    1    1    2    0    0  0.15449165339E+03 -0.13146871410E+03 -0.15725249732E+03  0.28637220827E+03  0.12700000000E+03 0.  0.
   -5000001    1    1    2    0    0 -0.15449165339E+03  0.13146871410E+03 -0.75033388099E+03  0.78757960024E+03  0.12700000000E+03 0.  0.
<mgrwt>
<rscale>  0 0.57415978E+03</rscale>
<asrwt>0</asrwt>
<pdfrwt beam="1">  1        2 0.11883246E-01 0.57415978E+03</pdfrwt>
<pdfrwt beam="2">  1       -2 0.14153844E+00 0.57415978E+03</pdfrwt>
<totfact> 0.18951389E+02</totfact>
</mgrwt>
</event>
<event>
 4    1  0.1361667E-004  0.3045972E+03  0.7818608E-02  0.1082965E+00
         -2   -1    0    0    0  501 -0.00000000000E+00  0.00000000000E+00  0.13513132875E+02  0.13513133116E+02  0.25500000000E-02 0. -1.
          2   -1    0    0  501    0  0.00000000000E+00 -0.00000000000E+00 -0.17164687192E+04  0.17164687192E+04  0.25500000000E-02 0.  1.
    5000001    1    1    2    0    0  0.59332121987E+02  0.54251799557E+00 -0.51330353388E+03  0.53209972084E+03  0.12700000000E+03 0.  0.
   -5000001    1    1    2    0    0 -0.59332121987E+02 -0.54251799557E+00 -0.11896520524E+04  0.11978821314E+04  0.12700000000E+03 0.  0.
<mgrwt>
<rscale>  0 0.30459724E+03</rscale>
<asrwt>0</asrwt>
<pdfrwt beam="1">  1        2 0.24520968E+00 0.30459724E+03</pdfrwt>
<pdfrwt beam="2">  1       -2 0.19304487E-02 0.30459724E+03</pdfrwt>
<totfact> 0.99268374E+03</totfact>
</mgrwt>
</event>
<event>
 4    1  0.1361667E-004  0.3371446E+03  0.7818608E-02  0.1068019E+00
         -2   -1    0    0    0  501 -0.00000000000E+00  0.00000000000E+00  0.21627082192E+02  0.21627082342E+02  0.25500000000E-02 0.  1.
          2   -1    0    0  501    0  0.00000000000E+00 -0.00000000000E+00 -0.13139368599E+04  0.13139368599E+04  0.25500000000E-02 0. -1.
    5000001    1    1    2    0    0  0.23341213217E+02  0.45110418776E+02 -0.10364653515E+04  0.10454516665E+04  0.12700000000E+03 0.  0.
   -5000001    1    1    2    0    0 -0.23341213217E+02 -0.45110418776E+02 -0.25584442617E+03  0.29011227571E+03  0.12700000000E+03 0.  0.
<mgrwt>
<rscale>  0 0.33714460E+03</rscale>
<asrwt>0</asrwt>
<pdfrwt beam="1">  1        2 0.18770522E+00 0.33714460E+03</pdfrwt>
<pdfrwt beam="2">  1       -2 0.30895840E-02 0.33714460E+03</pdfrwt>
<totfact> 0.79225459E+03</totfact>
</mgrwt>
</event>
<event>
 4    1  0.1361667E-004  0.3341580E+03  0.7818608E-02  0.1069312E+00
         -2   -1    0    0    0  501 -0.00000000000E+00  0.00000000000E+00  0.40456208203E+03  0.40456208204E+03  0.25500000000E-02 0. -1.
          2   -1    0    0  501    0  0.00000000000E+00 -0.00000000000E+00 -0.69001497617E+02  0.69001497664E+02  0.25500000000E-02 0.  1.
    5000001    1    1    2    0    0  0.60814705436E+02  0.36155684405E+02  0.51081972457E+02  0.15409097904E+03  0.12700000000E+03 0.  0.
   -5000001    1    1    2    0    0 -0.60814705436E+02 -0.36155684405E+02  0.28447861196E+03  0.31947260066E+03  0.12700000000E+03 0.  0.
<mgrwt>
<rscale>  0 0.33415798E+03</rscale>
<asrwt>0</asrwt>
<pdfrwt beam="1">  1        2 0.98573570E-02 0.33415798E+03</pdfrwt>
<pdfrwt beam="2">  1       -2 0.57794582E-01 0.33415798E+03</pdfrwt>
<totfact> 0.18734372E+03</totfact>
</mgrwt>
</event>
<event>
 4    1  0.1361667E-004  0.4797374E+03  0.7818608E-02  0.1019207E+00
          2   -1    0    0  501    0  0.00000000000E+00  0.00000000000E+00  0.41560268135E+04  0.41560268135E+04  0.25500000000E-02 0.  1.
         -2   -1    0    0    0  501 -0.00000000000E+00 -0.00000000000E+00 -0.13844230850E+02  0.13844231085E+02  0.25500000000E-02 0. -1.
    5000001    1    1    2    0    0  0.16987665712E+03  0.94150751951E+02  0.15434116550E+04  0.15607597444E+04  0.12700000000E+03 0.  0.
   -5000001    1    1    2    0    0 -0.16987665712E+03 -0.94150751951E+02  0.25987709277E+04  0.26091113003E+04  0.12700000000E+03 0.  0.
<mgrwt>
<rscale>  0 0.47973741E+03</rscale>
<asrwt>0</asrwt>
<pdfrwt beam="1">  1        2 0.59371870E+00 0.47973741E+03</pdfrwt>
<pdfrwt beam="2">  1       -2 0.19777453E-02 0.47973741E+03</pdfrwt>
<totfact> 0.42808874E+02</totfact>
</mgrwt>
</event>
<event>
 4    1  0.1361667E-004  0.7773355E+03  0.7818608E-02  0.9593415E-01
          2   -1    0    0  501    0  0.00000000000E+00  0.00000000000E+00  0.73503189969E+03  0.73503189969E+03  0.25500000000E-02 0.  1.
         -2   -1    0    0    0  501 -0.00000000000E+00 -0.00000000000E+00 -0.20551843059E+03  0.20551843060E+03  0.25500000000E-02 0. -1.
    5000001    1    1    2    0    0  0.23146842206E+03  0.27233379972E+03  0.36735647710E+03  0.52803703483E+03  0.12700000000E+03 0.  0.
   -5000001    1    1    2    0    0 -0.23146842206E+03 -0.27233379972E+03  0.16215699200E+03  0.41251329547E+03  0.12700000000E+03 0.  0.
<mgrwt>
<rscale>  0 0.77733546E+03</rscale>
<asrwt>0</asrwt>
<pdfrwt beam="1">  1        2 0.10500456E+00 0.77733546E+03</pdfrwt>
<pdfrwt beam="2">  1       -2 0.29359776E-01 0.77733546E+03</pdfrwt>
<totfact> 0.45338516E+02</totfact>
</mgrwt>
</event>
<event>
 4    1  0.1361667E-004  0.5476773E+03  0.7818608E-02  0.1002033E+00
          2   -1    0    0  501    0  0.00000000000E+00  0.00000000000E+00  0.24774360504E+04  0.24774360504E+04  0.25500000000E-02 0.  1.
         -2   -1    0    0    0  501 -0.00000000000E+00 -0.00000000000E+00 -0.30268230469E+02  0.30268230576E+02  0.25500000000E-02 0. -1.
    5000001    1    1    2    0    0  0.80160809930E+01 -0.17041868892E+03  0.20133679258E+04  0.20245706191E+04  0.12700000000E+03 0.  0.
   -5000001    1    1    2    0    0 -0.80160809930E+01  0.17041868892E+03  0.43379989411E+03  0.48313366186E+03  0.12700000000E+03 0.  0.
<mgrwt>
<rscale>  0 0.54767730E+03</rscale>
<asrwt>0</asrwt>
<pdfrwt beam="1">  1        2 0.35391951E+00 0.54767730E+03</pdfrwt>
<pdfrwt beam="2">  1       -2 0.43240320E-02 0.54767730E+03</pdfrwt>
<totfact> 0.12252167E+03</totfact>
</mgrwt>
</event>
<event>
 4    1  0.1361667E-004  0.4475989E+03  0.7818608E-02  0.1028440E+00
         -2   -1    0    0    0  501 -0.00000000000E+00  0.00000000000E+00  0.74139644042E+02  0.74139644086E+02  0.25500000000E-02 0. -1.
          2   -1    0    0  501    0  0.00000000000E+00 -0.00000000000E+00 -0.67556574742E+03  0.67556574743E+03  0.25500000000E-02 0.  1.
    5000001    1    1    2    0    0 -0.57673219800E+02 -0.14869445403E+03 -0.14610008197E+03  0.25081960627E+03  0.12700000000E+03 0.  0.
   -5000001    1    1    2    0    0  0.57673219800E+02  0.14869445403E+03 -0.45532602141E+03  0.49888578524E+03  0.12700000000E+03 0.  0.
<mgrwt>
<rscale>  0 0.44759895E+03</rscale>
<asrwt>0</asrwt>
<pdfrwt beam="1">  1        2 0.96509389E-01 0.44759895E+03</pdfrwt>
<pdfrwt beam="2">  1       -2 0.10591378E-01 0.44759895E+03</pdfrwt>
<totfact> 0.29170439E+03</totfact>
</mgrwt>
</event>
<event>
 4    1  0.1361667E-004  0.3784449E+03  0.7818608E-02  0.1051510E+00
         -2   -1    0    0    0  501 -0.00000000000E+00  0.00000000000E+00  0.46840858168E+02  0.46840858237E+02  0.25500000000E-02 0. -1.
          2   -1    0    0  501    0  0.00000000000E+00 -0.00000000000E+00 -0.76439981626E+03  0.76439981627E+03  0.25500000000E-02 0.  1.
    5000001    1    1    2    0    0 -0.10773562715E+03 -0.89181473261E+02 -0.33570766844E+03  0.38521284919E+03  0.12700000000E+03 0.  0.
   -5000001    1    1    2    0    0  0.10773562715E+03  0.89181473261E+02 -0.38185128965E+03  0.42602782531E+03  0.12700000000E+03 0.  0.
<mgrwt>
<rscale>  0 0.37844494E+03</rscale>
<asrwt>0</asrwt>
<pdfrwt beam="1">  1        2 0.10919997E+00 0.37844494E+03</pdfrwt>
<pdfrwt beam="2">  1       -2 0.66915517E-02 0.37844494E+03</pdfrwt>
<totfact> 0.51866351E+03</totfact>
</mgrwt>
</event>
<event>
 4    1  0.1361667E-004  0.4058182E+03  0.7818608E-02  0.1041783E+00
          2   -1    0    0  501    0  0.00000000000E+00  0.00000000000E+00  0.46491058635E+03  0.46491058636E+03  0.25500000000E-02 0.  1.
         -2   -1    0    0    0  501 -0.00000000000E+00 -0.00000000000E+00 -0.88559184914E+02  0.88559184950E+02  0.25500000000E-02 0. -1.
    5000001    1    1    2    0    0  0.13063705262E+03  0.74379366703E+02  0.25561012402E+03  0.32258931354E+03  0.12700000000E+03 0.  0.
   -5000001    1    1    2    0    0 -0.13063705262E+03 -0.74379366703E+02  0.12074127742E+03  0.23088045777E+03  0.12700000000E+03 0.  0.
<mgrwt>
<rscale>  0 0.40581820E+03</rscale>
<asrwt>0</asrwt>
<pdfrwt beam="1">  1        2 0.66415799E-01 0.40581820E+03</pdfrwt>
<pdfrwt beam="2">  1       -2 0.12651312E-01 0.40581820E+03</pdfrwt>
<totfact> 0.33517583E+03</totfact>
</mgrwt>
</event>
<event>
 4    1  0.1361667E-004  0.2719356E+03  0.7818608E-02  0.1100177E+00
         -2   -1    0    0    0  501 -0.00000000000E+00  0.00000000000E+00  0.25951383521E+02  0.25951383646E+02  0.25500000000E-02 0. -1.
          2   -1    0    0  501    0  0.00000000000E+00 -0.00000000000E+00 -0.71237992031E+03  0.71237992031E+03  0.25500000000E-02 0.  1.
    5000001    1    1    2    0    0  0.92349357910E+01 -0.97425133103E+01 -0.46992649265E+03  0.48697033698E+03  0.12700000000E+03 0.  0.
   -5000001    1    1    2    0    0 -0.92349357910E+01  0.97425133103E+01 -0.21650204414E+03  0.25136096698E+03  0.12700000000E+03 0.  0.
<mgrwt>
<rscale>  0 0.27193561E+03</rscale>
<asrwt>0</asrwt>
<pdfrwt beam="1">  1        2 0.10176855E+00 0.27193561E+03</pdfrwt>
<pdfrwt beam="2">  1       -2 0.37073409E-02 0.27193561E+03</pdfrwt>
<totfact> 0.13778547E+04</totfact>
</mgrwt>
</event>
<event>
 4    1  0.1361667E-004  0.3766241E+03  0.7818608E-02  0.1052189E+00
          2   -1    0    0  501    0  0.00000000000E+00  0.00000000000E+00  0.77695118173E+03  0.77695118173E+03  0.25500000000E-02 0.  1.
         -2   -1    0    0    0  501 -0.00000000000E+00 -0.00000000000E+00 -0.45641775742E+02  0.45641775813E+02  0.25500000000E-02 0. -1.
    5000001    1    1    2    0    0  0.18059039272E+02  0.13475958609E+03  0.30212128002E+03  0.35481339149E+03  0.12700000000E+03 0.  0.
   -5000001    1    1    2    0    0 -0.18059039272E+02 -0.13475958609E+03  0.42918812597E+03  0.46777956605E+03  0.12700000000E+03 0.  0.
<mgrwt>
<rscale>  0 0.37662412E+03</rscale>
<asrwt>0</asrwt>
<pdfrwt beam="1">  1        2 0.11099303E+00 0.37662412E+03</pdfrwt>
<pdfrwt beam="2">  1       -2 0.65202534E-02 0.37662412E+03</pdfrwt>
<totfact> 0.52919127E+03</totfact>
</mgrwt>
</event>
<event>
 4    1  0.1361667E-004  0.4121727E+03  0.7818608E-02  0.1039644E+00
          2   -1    0    0  501    0  0.00000000000E+00  0.00000000000E+00  0.27217889227E+03  0.27217889229E+03  0.25500000000E-02 0.  1.
         -2   -1    0    0    0  501 -0.00000000000E+00 -0.00000000000E+00 -0.15604289945E+03  0.15604289947E+03  0.25500000000E-02 0. -1.
    5000001    1    1    2    0    0 -0.58672359764E+02 -0.14951444592E+03  0.82334882997E+02  0.22069220262E+03  0.12700000000E+03 0.  0.
   -5000001    1    1    2    0    0  0.58672359764E+02  0.14951444592E+03  0.33801109829E+02  0.20752958913E+03  0.12700000000E+03 0.  0.
<mgrwt>
<rscale>  0 0.41217270E+03</rscale>
<asrwt>0</asrwt>
<pdfrwt beam="1">  1        2 0.38882699E-01 0.41217270E+03</pdfrwt>
<pdfrwt beam="2">  1       -2 0.22291843E-01 0.41217270E+03</pdfrwt>
<totfact> 0.23117713E+03</totfact>
</mgrwt>
</event>
<event>
 4    1  0.1361667E-004  0.6054494E+03  0.7818608E-02  0.9894164E-01
          2   -1    0    0  501    0  0.00000000000E+00  0.00000000000E+00  0.77699839819E+03  0.77699839819E+03  0.25500000000E-02 0.  1.
         -2   -1    0    0    0  501 -0.00000000000E+00 -0.00000000000E+00 -0.11794392771E+03  0.11794392773E+03  0.25500000000E-02 0. -1.
    5000001    1    1    2    0    0 -0.16450910791E+03 -0.17715176083E+03  0.52263466006E+03  0.58967955777E+03  0.12700000000E+03 0.  0.
   -5000001    1    1    2    0    0  0.16450910791E+03  0.17715176083E+03  0.13641981042E+03  0.30526276816E+03  0.12700000000E+03 0.  0.
<mgrwt>
<rscale>  0 0.60544940E+03</rscale>
<asrwt>0</asrwt>
<pdfrwt beam="1">  1        2 0.11099977E+00 0.60544940E+03</pdfrwt>
<pdfrwt beam="2">  1       -2 0.16849133E-01 0.60544940E+03</pdfrwt>
<totfact> 0.11367004E+03</totfact>
</mgrwt>
</event>
<event>
 4    1  0.1361667E-004  0.2750456E+03  0.7818608E-02  0.1098426E+00
          2   -1    0    0  501    0  0.00000000000E+00  0.00000000000E+00  0.13031510502E+04  0.13031510502E+04  0.25500000000E-02 0.  1.
         -2   -1    0    0    0  501 -0.00000000000E+00 -0.00000000000E+00 -0.14512909725E+02  0.14512909949E+02  0.25500000000E-02 0. -1.
    5000001    1    1    2    0    0  0.67381493782E+01 -0.49407010966E+02  0.72688880632E+03  0.73958285008E+03  0.12700000000E+03 0.  0.
   -5000001    1    1    2    0    0 -0.67381493782E+01  0.49407010966E+02  0.56174933418E+03  0.57808111009E+03  0.12700000000E+03 0.  0.
<mgrwt>
<rscale>  0 0.27504555E+03</rscale>
<asrwt>0</asrwt>
<pdfrwt beam="1">  1        2 0.18616437E+00 0.27504555E+03</pdfrwt>
<pdfrwt beam="2">  1       -2 0.20732736E-02 0.27504555E+03</pdfrwt>
<totfact> 0.14441302E+04</totfact>
</mgrwt>
</event>
<event>
 4    1  0.1361667E-004  0.4889325E+03  0.7818608E-02  0.1016709E+00
          2   -1    0    0  501    0  0.00000000000E+00  0.00000000000E+00  0.16343419407E+04  0.16343419407E+04  0.25500000000E-02 0.  1.
         -2   -1    0    0    0  501 -0.00000000000E+00 -0.00000000000E+00 -0.36567464202E+02  0.36567464291E+02  0.25500000000E-02 0. -1.
    5000001    1    1    2    0    0 -0.36101679848E+02  0.20503736945E+03  0.85719346361E+03  0.89120889146E+03  0.12700000000E+03 0.  0.
   -5000001    1    1    2    0    0  0.36101679848E+02 -0.20503736945E+03  0.74058101292E+03  0.77970051356E+03  0.12700000000E+03 0.  0.
<mgrwt>
<rscale>  0 0.48893247E+03</rscale>
<asrwt>0</asrwt>
<pdfrwt beam="1">  1        2 0.23347747E+00 0.48893247E+03</pdfrwt>
<pdfrwt beam="2">  1       -2 0.52239223E-02 0.48893247E+03</pdfrwt>
<totfact> 0.24359765E+03</totfact>
</mgrwt>
</event>
<event>
 4    1  0.1361667E-004  0.3895380E+03  0.7818608E-02  0.1047464E+00
          2   -1    0    0  501    0  0.00000000000E+00  0.00000000000E+00  0.26827777575E+04  0.26827777575E+04  0.25500000000E-02 0.  1.
         -2   -1    0    0    0  501 -0.00000000000E+00 -0.00000000000E+00 -0.14140177983E+02  0.14140178213E+02  0.25500000000E-02 0. -1.
    5000001    1    1    2    0    0 -0.66226390483E+02  0.13167571159E+03  0.13968317325E+04  0.14103163889E+04  0.12700000000E+03 0.  0.
   -5000001    1    1    2    0    0  0.66226390483E+02 -0.13167571159E+03  0.12718058470E+04  0.12866015469E+04  0.12700000000E+03 0.  0.
<mgrwt>
<rscale>  0 0.38953796E+03</rscale>
<asrwt>0</asrwt>
<pdfrwt beam="1">  1        2 0.38325361E+00 0.38953796E+03</pdfrwt>
<pdfrwt beam="2">  1       -2 0.20200273E-02 0.38953796E+03</pdfrwt>
<totfact> 0.30675054E+03</totfact>
</mgrwt>
</event>
<event>
 4    1  0.1361667E-004  0.1054291E+04  0.7818608E-02  0.9250925E-01
          2   -1    0    0  501    0  0.00000000000E+00  0.00000000000E+00  0.84649908519E+03  0.84649908520E+03  0.25500000000E-02 0.  1.
         -2   -1    0    0    0  501 -0.00000000000E+00 -0.00000000000E+00 -0.32827278888E+03  0.32827278889E+03  0.25500000000E-02 0. -1.
    5000001    1    1    2    0    0 -0.33573694083E+03 -0.28447225720E+03  0.54991544989E+03  0.71566735330E+03  0.12700000000E+03 0.  0.
   -5000001    1    1    2    0    0  0.33573694083E+03  0.28447225720E+03 -0.31689153577E+02  0.45910452079E+03  0.12700000000E+03 0.  0.
<mgrwt>
<rscale>  0 0.10542915E+04</rscale>
<asrwt>0</asrwt>
<pdfrwt beam="1">  1        2 0.12092844E+00 0.10542915E+04</pdfrwt>
<pdfrwt beam="2">  1       -2 0.46896113E-01 0.10542915E+04</pdfrwt>
<totfact> 0.15138777E+02</totfact>
</mgrwt>
</event>
<event>
 4    1  0.1361667E-004  0.3465922E+03  0.7818608E-02  0.1064022E+00
         -2   -1    0    0    0  501 -0.00000000000E+00  0.00000000000E+00  0.23811297141E+02  0.23811297278E+02  0.25500000000E-02 0. -1.
          2   -1    0    0  501    0  0.00000000000E+00 -0.00000000000E+00 -0.12612310255E+04  0.12612310255E+04  0.25500000000E-02 0.  1.
    5000001    1    1    2    0    0  0.18013466365E+02 -0.10810145433E+03 -0.77998778664E+03  0.79782225884E+03  0.12700000000E+03 0.  0.
   -5000001    1    1    2    0    0 -0.18013466365E+02  0.10810145433E+03 -0.45743194173E+03  0.48722006395E+03  0.12700000000E+03 0.  0.
<mgrwt>
<rscale>  0 0.34659225E+03</rscale>
<asrwt>0</asrwt>
<pdfrwt beam="1">  1        2 0.18017582E+00 0.34659225E+03</pdfrwt>
<pdfrwt beam="2">  1       -2 0.34016147E-02 0.34659225E+03</pdfrwt>
<totfact> 0.73188464E+03</totfact>
</mgrwt>
</event>
<event>
 4    1  0.1361667E-004  0.3530778E+03  0.7818608E-02  0.1061359E+00
          2   -1    0    0  501    0  0.00000000000E+00  0.00000000000E+00  0.31658053388E+04  0.31658053388E+04  0.25500000000E-02 0.  1.
         -2   -1    0    0    0  501 -0.00000000000E+00 -0.00000000000E+00 -0.98445665035E+01  0.98445668338E+01  0.25500000000E-02 0. -1.
    5000001    1    1    2    0    0  0.10689728103E+02  0.10864859148E+03  0.10757374324E+04  0.10886959218E+04  0.12700000000E+03 0.  0.
   -5000001    1    1    2    0    0 -0.10689728103E+02 -0.10864859148E+03  0.20802233399E+04  0.20869539838E+04  0.12700000000E+03 0.  0.
<mgrwt>
<rscale>  0 0.35307779E+03</rscale>
<asrwt>0</asrwt>
<pdfrwt beam="1">  1        2 0.45225830E+00 0.35307779E+03</pdfrwt>
<pdfrwt beam="2">  1       -2 0.14063654E-02 0.35307779E+03</pdfrwt>
<totfact> 0.29120054E+03</totfact>
</mgrwt>
</event>
<event>
 4    1  0.1361667E-004  0.3158837E+03  0.7818608E-02  0.1077559E+00
          2   -1    0    0  501    0  0.00000000000E+00  0.00000000000E+00  0.21667820325E+03  0.21667820327E+03  0.25500000000E-02 0.  1.
         -2   -1    0    0    0  501 -0.00000000000E+00 -0.00000000000E+00 -0.11512754180E+03  0.11512754183E+03  0.25500000000E-02 0. -1.
    5000001    1    1    2    0    0 -0.11235991864E+02 -0.80605375272E+02  0.99966973658E+02  0.18095819920E+03  0.12700000000E+03 0.  0.
   -5000001    1    1    2    0    0  0.11235991864E+02  0.80605375272E+02  0.15836877977E+01  0.15084754590E+03  0.12700000000E+03 0.  0.
<mgrwt>
<rscale>  0 0.31588371E+03</rscale>
<asrwt>0</asrwt>
<pdfrwt beam="1">  1        2 0.30954029E-01 0.31588371E+03</pdfrwt>
<pdfrwt beam="2">  1       -2 0.16446791E-01 0.31588371E+03</pdfrwt>
<totfact> 0.49672714E+03</totfact>
</mgrwt>
</event>
<event>
 4    1  0.1361667E-004  0.4641078E+03  0.7818608E-02  0.1023597E+00
         -2   -1    0    0    0  501 -0.00000000000E+00  0.00000000000E+00  0.22821595422E+02  0.22821595565E+02  0.25500000000E-02 0. -1.
          2   -1    0    0  501    0  0.00000000000E+00 -0.00000000000E+00 -0.23595638093E+04  0.23595638093E+04  0.25500000000E-02 0.  1.
    5000001    1    1    2    0    0 -0.12796028790E+03 -0.14555155234E+03 -0.12334889039E+04  0.12550629329E+04  0.12700000000E+03 0.  0.
   -5000001    1    1    2    0    0  0.12796028790E+03  0.14555155234E+03 -0.11032533100E+04  0.11273224719E+04  0.12700000000E+03 0.  0.
<mgrwt>
<rscale>  0 0.46410779E+03</rscale>
<asrwt>0</asrwt>
<pdfrwt beam="1">  1        2 0.33708039E+00 0.46410779E+03</pdfrwt>
<pdfrwt beam="2">  1       -2 0.32602294E-02 0.46410779E+03</pdfrwt>
<totfact> 0.21747293E+03</totfact>
</mgrwt>
</event>
<event>
 4    1  0.1361667E-004  0.3287741E+03  0.7818608E-02  0.1071681E+00
         -2   -1    0    0    0  501 -0.00000000000E+00  0.00000000000E+00  0.38783445581E+02  0.38783445665E+02  0.25500000000E-02 0. -1.
          2   -1    0    0  501    0  0.00000000000E+00 -0.00000000000E+00 -0.69676896133E+03  0.69676896133E+03  0.25500000000E-02 0.  1.
    5000001    1    1    2    0    0  0.68320873337E+02  0.41480690646E+02 -0.47916778941E+03  0.50211468793E+03  0.12700000000E+03 0.  0.
   -5000001    1    1    2    0    0 -0.68320873337E+02 -0.41480690646E+02 -0.17881772634E+03  0.23343771906E+03  0.12700000000E+03 0.  0.
<mgrwt>
<rscale>  0 0.32877409E+03</rscale>
<asrwt>0</asrwt>
<pdfrwt beam="1">  1        2 0.99538416E-01 0.32877409E+03</pdfrwt>
<pdfrwt beam="2">  1       -2 0.55404926E-02 0.32877409E+03</pdfrwt>
<totfact> 0.77450924E+03</totfact>
</mgrwt>
</event>
<event>
 4    1  0.1361667E-004  0.2862501E+03  0.7818608E-02  0.1092323E+00
         -2   -1    0    0    0  501 -0.00000000000E+00  0.00000000000E+00  0.19424121961E+02  0.19424122128E+02  0.25500000000E-02 0. -1.
          2   -1    0    0  501    0  0.00000000000E+00 -0.00000000000E+00 -0.10546051196E+04  0.10546051196E+04  0.25500000000E-02 0.  1.
    5000001    1    1    2    0    0 -0.62132073574E+02  0.72632853450E+01 -0.59652924898E+03  0.61309811187E+03  0.12700000000E+03 0.  0.
   -5000001    1    1    2    0    0  0.62132073574E+02 -0.72632853450E+01 -0.43865174866E+03  0.46093112987E+03  0.12700000000E+03 0.  0.
<mgrwt>
<rscale>  0 0.28625009E+03</rscale>
<asrwt>0</asrwt>
<pdfrwt beam="1">  1        2 0.15065784E+00 0.28625009E+03</pdfrwt>
<pdfrwt beam="2">  1       -2 0.27748752E-02 0.28625009E+03</pdfrwt>
<totfact> 0.12860189E+04</totfact>
</mgrwt>
</event>
<event>
 4    1  0.1361667E-004  0.5283822E+03  0.7818608E-02  0.1006625E+00
          2   -1    0    0  501    0  0.00000000000E+00  0.00000000000E+00  0.14360101310E+03  0.14360101313E+03  0.25500000000E-02 0.  1.
         -2   -1    0    0    0  501 -0.00000000000E+00 -0.00000000000E+00 -0.48604774389E+03  0.48604774390E+03  0.25500000000E-02 0. -1.
    5000001    1    1    2    0    0  0.58763208871E+02  0.19340079885E+03 -0.30610134592E+03  0.38818039323E+03  0.12700000000E+03 0.  0.
   -5000001    1    1    2    0    0 -0.58763208871E+02 -0.19340079885E+03 -0.36345384867E+02  0.24146836379E+03  0.12700000000E+03 0.  0.
<mgrwt>
<rscale>  0 0.52838224E+03</rscale>
<asrwt>0</asrwt>
<pdfrwt beam="1">  1        2 0.20514431E-01 0.52838224E+03</pdfrwt>
<pdfrwt beam="2">  1       -2 0.69435391E-01 0.52838224E+03</pdfrwt>
<totfact> 0.52610947E+02</totfact>
</mgrwt>
</event>
<event>
 4    1  0.1361667E-004  0.5527971E+03  0.7818608E-02  0.1000849E+00
          2   -1    0    0  501    0  0.00000000000E+00  0.00000000000E+00  0.18392655984E+04  0.18392655984E+04  0.25500000000E-02 0. -1.
         -2   -1    0    0    0  501 -0.00000000000E+00 -0.00000000000E+00 -0.41536232381E+02  0.41536232459E+02  0.25500000000E-02 0.  1.
    5000001    1    1    2    0    0  0.18254025590E+03 -0.98703148763E+02  0.45260175649E+03  0.51384881685E+03  0.12700000000E+03 0.  0.
   -5000001    1    1    2    0    0 -0.18254025590E+03  0.98703148763E+02  0.13451276095E+04  0.13669530140E+04  0.12700000000E+03 0.  0.
<mgrwt>
<rscale>  0 0.55279712E+03</rscale>
<asrwt>0</asrwt>
<pdfrwt beam="1">  1        2 0.26275226E+00 0.55279712E+03</pdfrwt>
<pdfrwt beam="2">  1       -2 0.59337468E-02 0.55279712E+03</pdfrwt>
<totfact> 0.15713855E+03</totfact>
</mgrwt>
</event>
<event>
 4    1  0.1361667E-004  0.3547343E+03  0.7818608E-02  0.1060688E+00
         -2   -1    0    0    0  501 -0.00000000000E+00  0.00000000000E+00  0.59108620451E+02  0.59108620506E+02  0.25500000000E-02 0. -1.
          2   -1    0    0  501    0  0.00000000000E+00 -0.00000000000E+00 -0.53222535247E+03  0.53222535247E+03  0.25500000000E-02 0.  1.
    5000001    1    1    2    0    0 -0.10616861311E+03 -0.28285602941E+02 -0.33171132269E+03  0.37179732563E+03  0.12700000000E+03 0.  0.
   -5000001    1    1    2    0    0  0.10616861311E+03  0.28285602941E+02 -0.14140540933E+03  0.21953664735E+03  0.12700000000E+03 0.  0.
<mgrwt>
<rscale>  0 0.35473430E+03</rscale>
<asrwt>0</asrwt>
<pdfrwt beam="1">  1        2 0.76032190E-01 0.35473430E+03</pdfrwt>
<pdfrwt beam="2">  1       -2 0.84440890E-02 0.35473430E+03</pdfrwt>
<totfact> 0.55029531E+03</totfact>
</mgrwt>
</event>
<event>
 4    1  0.1361667E-004  0.2916967E+03  0.7818608E-02  0.1089467E+00
          2   -1    0    0  501    0  0.00000000000E+00  0.00000000000E+00  0.95380664217E+03  0.95380664218E+03  0.25500000000E-02 0.  1.
         -2   -1    0    0    0  501 -0.00000000000E+00 -0.00000000000E+00 -0.22301949969E+02  0.22301950115E+02  0.25500000000E-02 0. -1.
    5000001    1    1    2    0    0  0.50212981014E+02  0.51181539638E+02  0.46119518263E+03  0.48370537514E+03  0.12700000000E+03 0.  0.
   -5000001    1    1    2    0    0 -0.50212981014E+02 -0.51181539638E+02  0.47030950957E+03  0.49240321715E+03  0.12700000000E+03 0.  0.
<mgrwt>
<rscale>  0 0.29169675E+03</rscale>
<asrwt>0</asrwt>
<pdfrwt beam="1">  1        2 0.13625807E+00 0.29169675E+03</pdfrwt>
<pdfrwt beam="2">  1       -2 0.31859933E-02 0.29169675E+03</pdfrwt>
<totfact> 0.12012824E+04</totfact>
</mgrwt>
</event>
<event>
 4    1  0.1361667E-004  0.3711668E+03  0.7818608E-02  0.1054248E+00
         -2   -1    0    0    0  501 -0.00000000000E+00  0.00000000000E+00  0.11931716701E+03  0.11931716704E+03  0.25500000000E-02 0.  1.
          2   -1    0    0  501    0  0.00000000000E+00 -0.00000000000E+00 -0.28865253954E+03  0.28865253955E+03  0.25500000000E-02 0. -1.
    5000001    1    1    2    0    0  0.41346545473E+02 -0.12222603913E+03 -0.39838053593E+02  0.18537748509E+03  0.12700000000E+03 0.  0.
   -5000001    1    1    2    0    0 -0.41346545473E+02  0.12222603913E+03 -0.12949731894E+03  0.22259222151E+03  0.12700000000E+03 0.  0.
<mgrwt>
<rscale>  0 0.37116683E+03</rscale>
<asrwt>0</asrwt>
<pdfrwt beam="1">  1        2 0.41236077E-01 0.37116683E+03</pdfrwt>
<pdfrwt beam="2">  1       -2 0.17045310E-01 0.37116683E+03</pdfrwt>
<totfact> 0.34329516E+03</totfact>
</mgrwt>
</event>
<event>
 4    1  0.1361667E-004  0.4131559E+03  0.7818608E-02  0.1039317E+00
          2   -1    0    0  501    0  0.00000000000E+00  0.00000000000E+00  0.12600028206E+04  0.12600028206E+04  0.25500000000E-02 0.  1.
         -2   -1    0    0    0  501 -0.00000000000E+00 -0.00000000000E+00 -0.33868535484E+02  0.33868535580E+02  0.25500000000E-02 0. -1.
    5000001    1    1    2    0    0  0.30196822601E+02 -0.15984570411E+03  0.58454426040E+03  0.61990603286E+03  0.12700000000E+03 0.  0.
   -5000001    1    1    2    0    0 -0.30196822601E+02  0.15984570411E+03  0.64159002468E+03  0.67396532328E+03  0.12700000000E+03 0.  0.
<mgrwt>
<rscale>  0 0.41315590E+03</rscale>
<asrwt>0</asrwt>
<pdfrwt beam="1">  1        2 0.18000038E+00 0.41315590E+03</pdfrwt>
<pdfrwt beam="2">  1       -2 0.48383628E-02 0.41315590E+03</pdfrwt>
<totfact> 0.43007272E+03</totfact>
</mgrwt>
</event>
<event>
 4    1  0.1361667E-004  0.6178194E+03  0.7818608E-02  0.9869111E-01
          2   -1    0    0  501    0  0.00000000000E+00  0.00000000000E+00  0.30103831672E+04  0.30103831672E+04  0.25500000000E-02 0.  1.
         -2   -1    0    0    0  501 -0.00000000000E+00 -0.00000000000E+00 -0.31698692307E+02  0.31698692410E+02  0.25500000000E-02 0. -1.
    5000001    1    1    2    0    0 -0.26717025342E+03 -0.10304896343E+02  0.19244901781E+04  0.19471203303E+04  0.12700000000E+03 0.  0.
   -5000001    1    1    2    0    0  0.26717025342E+03  0.10304896343E+02  0.10541942968E+04  0.10949615293E+04  0.12700000000E+03 0.  0.
<mgrwt>
<rscale>  0 0.61781942E+03</rscale>
<asrwt>0</asrwt>
<pdfrwt beam="1">  1        2 0.43005489E+00 0.61781942E+03</pdfrwt>
<pdfrwt beam="2">  1       -2 0.45283830E-02 0.61781942E+03</pdfrwt>
<totfact> 0.59463736E+02</totfact>
</mgrwt>
</event>
<event>
 4    1  0.1361667E-004  0.5196030E+03  0.7818608E-02  0.1008785E+00
         -2   -1    0    0    0  501 -0.00000000000E+00  0.00000000000E+00  0.34274200825E+02  0.34274200920E+02  0.25500000000E-02 0. -1.
          2   -1    0    0  501    0  0.00000000000E+00 -0.00000000000E+00 -0.19693187032E+04  0.19693187032E+04  0.25500000000E-02 0.  1.
    5000001    1    1    2    0    0  0.17032400842E+03 -0.14728263029E+03 -0.86805641804E+03  0.90573361753E+03  0.12700000000E+03 0.  0.
   -5000001    1    1    2    0    0 -0.17032400842E+03  0.14728263029E+03 -0.10669880843E+04  0.10978592866E+04  0.12700000000E+03 0.  0.
<mgrwt>
<rscale>  0 0.51960302E+03</rscale>
<asrwt>0</asrwt>
<pdfrwt beam="1">  1        2 0.28133117E+00 0.51960302E+03</pdfrwt>
<pdfrwt beam="2">  1       -2 0.48963157E-02 0.51960302E+03</pdfrwt>
<totfact> 0.18255010E+03</totfact>
</mgrwt>
</event>
<event>
 4    1  0.1361667E-004  0.4185695E+03  0.7818608E-02  0.1037533E+00
         -2   -1    0    0    0  501 -0.00000000000E+00  0.00000000000E+00  0.19311671833E+02  0.19311672002E+02  0.25500000000E-02 0. -1.
          2   -1    0    0  501    0  0.00000000000E+00 -0.00000000000E+00 -0.22680643691E+04  0.22680643691E+04  0.25500000000E-02 0.  1.
    5000001    1    1    2    0    0  0.10999826592E+02  0.15964491886E+03 -0.13726237279E+04  0.13877436344E+04  0.12700000000E+03 0.  0.
   -5000001    1    1    2    0    0 -0.10999826592E+02 -0.15964491886E+03 -0.87612896932E+03  0.89963240670E+03  0.12700000000E+03 0.  0.
<mgrwt>
<rscale>  0 0.41856954E+03</rscale>
<asrwt>0</asrwt>
<pdfrwt beam="1">  1        2 0.32400903E+00 0.41856954E+03</pdfrwt>
<pdfrwt beam="2">  1       -2 0.27588117E-02 0.41856954E+03</pdfrwt>
<totfact> 0.31159920E+03</totfact>
</mgrwt>
</event>
<event>
 4    1  0.1361667E-004  0.2728540E+03  0.7818608E-02  0.1099657E+00
         -2   -1    0    0    0  501 -0.00000000000E+00  0.00000000000E+00  0.12796744583E+02  0.12796744837E+02  0.25500000000E-02 0. -1.
          2   -1    0    0  501    0  0.00000000000E+00 -0.00000000000E+00 -0.14544579291E+04  0.14544579291E+04  0.25500000000E-02 0.  1.
    5000001    1    1    2    0    0  0.45003368301E+02 -0.92342869579E+01 -0.61700965879E+03  0.63161736380E+03  0.12700000000E+03 0.  0.
   -5000001    1    1    2    0    0 -0.45003368301E+02  0.92342869579E+01 -0.82465152577E+03  0.83563731018E+03  0.12700000000E+03 0.  0.
<mgrwt>
<rscale>  0 0.27285400E+03</rscale>
<asrwt>0</asrwt>
<pdfrwt beam="1">  1        2 0.20777960E+00 0.27285400E+03</pdfrwt>
<pdfrwt beam="2">  1       -2 0.18281073E-02 0.27285400E+03</pdfrwt>
<totfact> 0.14508515E+04</totfact>
</mgrwt>
</event>
<event>
 4    1  0.1361667E-004  0.5093648E+03  0.7818608E-02  0.1011363E+00
         -2   -1    0    0    0  501 -0.00000000000E+00  0.00000000000E+00  0.15777204088E+03  0.15777204090E+03  0.25500000000E-02 0. -1.
          2   -1    0    0  501    0  0.00000000000E+00 -0.00000000000E+00 -0.41111926388E+03  0.41111926389E+03  0.25500000000E-02 0.  1.
    5000001    1    1    2    0    0  0.40366618752E+02  0.21530819510E+03 -0.96147391656E+02  0.27085125754E+03  0.12700000000E+03 0.  0.
   -5000001    1    1    2    0    0 -0.40366618752E+02 -0.21530819510E+03 -0.15719983135E+03  0.29804004725E+03  0.12700000000E+03 0.  0.
<mgrwt>
<rscale>  0 0.50936480E+03</rscale>
<asrwt>0</asrwt>
<pdfrwt beam="1">  1        2 0.58731323E-01 0.50936480E+03</pdfrwt>
<pdfrwt beam="2">  1       -2 0.22538863E-01 0.50936480E+03</pdfrwt>
<totfact> 0.14447560E+03</totfact>
</mgrwt>
</event>
<event>
 4    1  0.1361667E-004  0.4723262E+03  0.7818608E-02  0.1021266E+00
          2   -1    0    0  501    0  0.00000000000E+00  0.00000000000E+00  0.22465229318E+04  0.22465229318E+04  0.25500000000E-02 0.  1.
         -2   -1    0    0    0  501 -0.00000000000E+00 -0.00000000000E+00 -0.24826371818E+02  0.24826371949E+02  0.25500000000E-02 0. -1.
    5000001    1    1    2    0    0  0.42011878865E+02  0.17319444840E+03  0.68389599398E+03  0.71805573983E+03  0.12700000000E+03 0.  0.
   -5000001    1    1    2    0    0 -0.42011878865E+02 -0.17319444840E+03  0.15378005660E+04  0.15532935640E+04  0.12700000000E+03 0.  0.
<mgrwt>
<rscale>  0 0.47232622E+03</rscale>
<asrwt>0</asrwt>
<pdfrwt beam="1">  1        2 0.32093186E+00 0.47232622E+03</pdfrwt>
<pdfrwt beam="2">  1       -2 0.35466244E-02 0.47232622E+03</pdfrwt>
<totfact> 0.21799803E+03</totfact>
</mgrwt>
</event>
<event>
 4    1  0.1361667E-004  0.4017905E+03  0.7818608E-02  0.1043161E+00
          2   -1    0    0  501    0  0.00000000000E+00  0.00000000000E+00  0.83041066020E+03  0.83041066021E+03  0.25500000000E-02 0.  1.
         -2   -1    0    0    0  501 -0.00000000000E+00 -0.00000000000E+00 -0.48601147047E+02  0.48601147114E+02  0.25500000000E-02 0. -1.
    5000001    1    1    2    0    0 -0.73517528162E+02 -0.13149986567E+03  0.47655873091E+03  0.51568814765E+03  0.12700000000E+03 0.  0.
   -5000001    1    1    2    0    0  0.73517528162E+02  0.13149986567E+03  0.30525078225E+03  0.36332365967E+03  0.12700000000E+03 0.  0.
<mgrwt>
<rscale>  0 0.40179055E+03</rscale>
<asrwt>0</asrwt>
<pdfrwt beam="1">  1        2 0.11863009E+00 0.40179055E+03</pdfrwt>
<pdfrwt beam="2">  1       -2 0.69430210E-02 0.40179055E+03</pdfrwt>
<totfact> 0.44176252E+03</totfact>
</mgrwt>
</event>
<event>
 4    1  0.1361667E-004  0.3607753E+03  0.7818608E-02  0.1058277E+00
         -2   -1    0    0    0  501 -0.00000000000E+00  0.00000000000E+00  0.67164032413E+02  0.67164032462E+02  0.25500000000E-02 0. -1.
          2   -1    0    0  501    0  0.00000000000E+00 -0.00000000000E+00 -0.48448116156E+03  0.48448116156E+03  0.25500000000E-02 0.  1.
    5000001    1    1    2    0    0 -0.10699416858E+03  0.34908788643E+01 -0.31624546471E+03  0.35721160717E+03  0.12700000000E+03 0.  0.
   -5000001    1    1    2    0    0  0.10699416858E+03 -0.34908788643E+01 -0.10107166443E+03  0.19443358685E+03  0.12700000000E+03 0.  0.
<mgrwt>
<rscale>  0 0.36077532E+03</rscale>
<asrwt>0</asrwt>
<pdfrwt beam="1">  1        2 0.69211592E-01 0.36077532E+03</pdfrwt>
<pdfrwt beam="2">  1       -2 0.95948621E-02 0.36077532E+03</pdfrwt>
<totfact> 0.49937907E+03</totfact>
</mgrwt>
</event>
<event>
 4    1  0.1361667E-004  0.2910414E+03  0.7818608E-02  0.1089807E+00
         -2   -1    0    0    0  501 -0.00000000000E+00  0.00000000000E+00  0.82439882178E+03  0.82439882179E+03  0.25500000000E-02 0. -1.
          2   -1    0    0  501    0  0.00000000000E+00 -0.00000000000E+00 -0.25686933016E+02  0.25686933143E+02  0.25500000000E-02 0.  1.
    5000001    1    1    2    0    0 -0.41951361375E+02  0.56649937702E+02  0.42517611490E+03  0.44930263837E+03  0.12700000000E+03 0.  0.
   -5000001    1    1    2    0    0  0.41951361375E+02 -0.56649937702E+02  0.37353577386E+03  0.40078311656E+03  0.12700000000E+03 0.  0.
<mgrwt>
<rscale>  0 0.29104142E+03</rscale>
<asrwt>0</asrwt>
<pdfrwt beam="1">  1        2 0.36695614E-02 0.29104142E+03</pdfrwt>
<pdfrwt beam="2">  1       -2 0.11777128E+00 0.29104142E+03</pdfrwt>
<totfact> 0.13873132E+03</totfact>
</mgrwt>
</event>
<event>
 4    1  0.1361667E-004  0.4108233E+03  0.7818608E-02  0.1040095E+00
          2   -1    0    0  501    0  0.00000000000E+00  0.00000000000E+00  0.22504272271E+04  0.22504272271E+04  0.25500000000E-02 0.  1.
         -2   -1    0    0    0  501 -0.00000000000E+00 -0.00000000000E+00 -0.18749304308E+02  0.18749304482E+02  0.25500000000E-02 0. -1.
    5000001    1    1    2    0    0  0.12975718565E+03 -0.41684955552E+02  0.15938800367E+04  0.16047296140E+04  0.12700000000E+03 0.  0.
   -5000001    1    1    2    0    0 -0.12975718565E+03  0.41684955552E+02  0.63779788612E+03  0.66444691758E+03  0.12700000000E+03 0.  0.
<mgrwt>
<rscale>  0 0.41082330E+03</rscale>
<asrwt>0</asrwt>
<pdfrwt beam="1">  1        2 0.32148954E+00 0.41082330E+03</pdfrwt>
<pdfrwt beam="2">  1       -2 0.26784726E-02 0.41082330E+03</pdfrwt>
<totfact> 0.33249078E+03</totfact>
</mgrwt>
</event>
<event>
 4    1  0.1361667E-004  0.3653130E+03  0.7818608E-02  0.1056500E+00
          2   -1    0    0  501    0  0.00000000000E+00  0.00000000000E+00  0.43597010066E+03  0.43597010067E+03  0.25500000000E-02 0.  1.
         -2   -1    0    0    0  501 -0.00000000000E+00 -0.00000000000E+00 -0.76526801613E+02  0.76526801655E+02  0.25500000000E-02 0. -1.
    5000001    1    1    2    0    0  0.96809336127E+02  0.60080082026E+02  0.88234477377E+02  0.19208328094E+03  0.12700000000E+03 0.  0.
   -5000001    1    1    2    0    0 -0.96809336127E+02 -0.60080082026E+02  0.27120882167E+03  0.32041362139E+03  0.12700000000E+03 0.  0.
<mgrwt>
<rscale>  0 0.36531300E+03</rscale>
<asrwt>0</asrwt>
<pdfrwt beam="1">  1        2 0.62281442E-01 0.36531300E+03</pdfrwt>
<pdfrwt beam="2">  1       -2 0.10932400E-01 0.36531300E+03</pdfrwt>
<totfact> 0.45532028E+03</totfact>
</mgrwt>
</event>
<event>
 4    1  0.1361667E-004  0.3435253E+03  0.7818608E-02  0.1065304E+00
          2   -1    0    0  501    0  0.00000000000E+00  0.00000000000E+00  0.91760295916E+03  0.91760295916E+03  0.25500000000E-02 0.  1.
         -2   -1    0    0    0  501 -0.00000000000E+00 -0.00000000000E+00 -0.32151614258E+02  0.32151614359E+02  0.25500000000E-02 0. -1.
    5000001    1    1    2    0    0  0.95260411548E+02 -0.84756663348E+01  0.62247631381E+03  0.64245789292E+03  0.12700000000E+03 0.  0.
   -5000001    1    1    2    0    0 -0.95260411548E+02  0.84756663348E+01  0.26297503109E+03  0.30729668060E+03  0.12700000000E+03 0.  0.
<mgrwt>
<rscale>  0 0.34352535E+03</rscale>
<asrwt>0</asrwt>
<pdfrwt beam="1">  1        2 0.13108612E+00 0.34352535E+03</pdfrwt>
<pdfrwt beam="2">  1       -2 0.45930883E-02 0.34352535E+03</pdfrwt>
<totfact> 0.73188027E+03</totfact>
</mgrwt>
</event>
<event>
 4    1  0.1361667E-004  0.3340667E+03  0.7818608E-02  0.1069352E+00
          2   -1    0    0  501    0  0.00000000000E+00  0.00000000000E+00  0.19051653454E+03  0.19051653456E+03  0.25500000000E-02 0.  1.
         -2   -1    0    0    0  501 -0.00000000000E+00 -0.00000000000E+00 -0.14644470137E+03  0.14644470140E+03  0.25500000000E-02 0. -1.
    5000001    1    1    2    0    0 -0.52363176244E+02  0.91950190552E+02 -0.21383302998E+01  0.16531881994E+03  0.12700000000E+03 0.  0.
   -5000001    1    1    2    0    0  0.52363176244E+02 -0.91950190552E+02  0.46210163467E+02  0.17164241602E+03  0.12700000000E+03 0.  0.
<mgrwt>
<rscale>  0 0.33406668E+03</rscale>
<asrwt>0</asrwt>
<pdfrwt beam="1">  1        2 0.27216648E-01 0.33406668E+03</pdfrwt>
<pdfrwt beam="2">  1       -2 0.20920672E-01 0.33406668E+03</pdfrwt>
<totfact> 0.38100058E+03</totfact>
</mgrwt>
</event>
<event>
 4    1  0.1361667E-004  0.6150222E+03  0.7818608E-02  0.9874721E-01
          2   -1    0    0  501    0  0.00000000000E+00  0.00000000000E+00  0.13850092131E+04  0.13850092131E+04  0.25500000000E-02 0.  1.
         -2   -1    0    0    0  501 -0.00000000000E+00 -0.00000000000E+00 -0.68276140415E+02  0.68276140462E+02  0.25500000000E-02 0. -1.
    5000001    1    1    2    0    0 -0.26651761797E+03  0.35890047230E+02  0.47359496915E+03  0.55923244807E+03  0.12700000000E+03 0.  0.
   -5000001    1    1    2    0    0  0.26651761797E+03 -0.35890047230E+02  0.84313810357E+03  0.89405290552E+03  0.12700000000E+03 0.  0.
<mgrwt>
<rscale>  0 0.61502222E+03</rscale>
<asrwt>0</asrwt>
<pdfrwt beam="1">  1        2 0.19785844E+00 0.61502222E+03</pdfrwt>
<pdfrwt beam="2">  1       -2 0.97537352E-02 0.61502222E+03</pdfrwt>
<totfact> 0.12190910E+03</totfact>
</mgrwt>
</event>
<event>
 4    1  0.1361667E-004  0.3357606E+03  0.7818608E-02  0.1068616E+00
         -2   -1    0    0    0  501 -0.00000000000E+00  0.00000000000E+00  0.10190358381E+03  0.10190358385E+03  0.25500000000E-02 0. -1.
          2   -1    0    0  501    0  0.00000000000E+00 -0.00000000000E+00 -0.27657311484E+03  0.27657311485E+03  0.25500000000E-02 0.  1.
    5000001    1    1    2    0    0  0.11074010036E+02 -0.10912140041E+03 -0.92934446590E+02  0.19182263967E+03  0.12700000000E+03 0.  0.
   -5000001    1    1    2    0    0 -0.11074010036E+02  0.10912140041E+03 -0.81735084434E+02  0.18665405903E+03  0.12700000000E+03 0.  0.
<mgrwt>
<rscale>  0 0.33576058E+03</rscale>
<asrwt>0</asrwt>
<pdfrwt beam="1">  1        2 0.39510445E-01 0.33576058E+03</pdfrwt>
<pdfrwt beam="2">  1       -2 0.14557655E-01 0.33576058E+03</pdfrwt>
<totfact> 0.46700234E+03</totfact>
</mgrwt>
</event>
<event>
 4    1  0.1361667E-004  0.3924938E+03  0.7818608E-02  0.1046410E+00
          2   -1    0    0  501    0  0.00000000000E+00  0.00000000000E+00  0.65935630217E+03  0.65935630217E+03  0.25500000000E-02 0.  1.
         -2   -1    0    0    0  501 -0.00000000000E+00 -0.00000000000E+00 -0.58409773712E+02  0.58409773768E+02  0.25500000000E-02 0. -1.
    5000001    1    1    2    0    0  0.11216230833E+03  0.79412308513E+02  0.19232800513E+03  0.26833888967E+03  0.12700000000E+03 0.  0.
   -5000001    1    1    2    0    0 -0.11216230833E+03 -0.79412308513E+02  0.40861852333E+03  0.44942718627E+03  0.12700000000E+03 0.  0.
<mgrwt>
<rscale>  0 0.39249383E+03</rscale>
<asrwt>0</asrwt>
<pdfrwt beam="1">  1        2 0.94193748E-01 0.39249383E+03</pdfrwt>
<pdfrwt beam="2">  1       -2 0.83442542E-02 0.39249383E+03</pdfrwt>
<totfact> 0.43888488E+03</totfact>
</mgrwt>
</event>
<event>
 4    1  0.1361667E-004  0.1819501E+04  0.7818608E-02  0.8695997E-01
          2   -1    0    0  501    0  0.00000000000E+00  0.00000000000E+00  0.11377029095E+04  0.11377029095E+04  0.25500000000E-02 0.  1.
         -2   -1    0    0    0  501 -0.00000000000E+00 -0.00000000000E+00 -0.72747127041E+03  0.72747127042E+03  0.25500000000E-02 0. -1.
    5000001    1    1    2    0    0 -0.80507204970E+03  0.34944517501E+03  0.41335094796E+03  0.97838690799E+03  0.12700000000E+03 0.  0.
   -5000001    1    1    2    0    0  0.80507204970E+03 -0.34944517501E+03 -0.31193088890E+01  0.88678727192E+03  0.12700000000E+03 0.  0.
<mgrwt>
<rscale>  0 0.18195012E+04</rscale>
<asrwt>0</asrwt>
<pdfrwt beam="1">  1        2 0.16252899E+00 0.18195012E+04</pdfrwt>
<pdfrwt beam="2">  1       -2 0.10392447E+00 0.18195012E+04</pdfrwt>
<totfact> 0.16544886E+01</totfact>
</mgrwt>
</event>
<event>
 4    1  0.1361667E-004  0.5524939E+03  0.7818608E-02  0.1000918E+00
         -2   -1    0    0    0  501 -0.00000000000E+00  0.00000000000E+00  0.68927579413E+02  0.68927579461E+02  0.25500000000E-02 0. -1.
          2   -1    0    0  501    0  0.00000000000E+00 -0.00000000000E+00 -0.11071385942E+04  0.11071385942E+04  0.25500000000E-02 0.  1.
    5000001    1    1    2    0    0 -0.23731653408E+03 -0.40527201209E+02 -0.61944131610E+03  0.67660781512E+03  0.12700000000E+03 0.  0.
   -5000001    1    1    2    0    0  0.23731653408E+03  0.40527201209E+02 -0.41876969871E+03  0.49945835857E+03  0.12700000000E+03 0.  0.
<mgrwt>
<rscale>  0 0.55249392E+03</rscale>
<asrwt>0</asrwt>
<pdfrwt beam="1">  1        2 0.15816265E+00 0.55249392E+03</pdfrwt>
<pdfrwt beam="2">  1       -2 0.98467978E-02 0.55249392E+03</pdfrwt>
<totfact> 0.17129221E+03</totfact>
</mgrwt>
</event>
<event>
 4    1  0.1361667E-004  0.6209817E+03  0.7818608E-02  0.9862807E-01
          2   -1    0    0  501    0  0.00000000000E+00  0.00000000000E+00  0.59241266866E+03  0.59241266866E+03  0.25500000000E-02 0.  1.
         -2   -1    0    0    0  501 -0.00000000000E+00 -0.00000000000E+00 -0.16273211002E+03  0.16273211004E+03  0.25500000000E-02 0. -1.
    5000001    1    1    2    0    0 -0.24852863973E+01  0.28165564203E+03  0.17756708234E+03  0.35636378333E+03  0.12700000000E+03 0.  0.
   -5000001    1    1    2    0    0  0.24852863973E+01 -0.28165564203E+03  0.25211347630E+03  0.39878099537E+03  0.12700000000E+03 0.  0.
<mgrwt>
<rscale>  0 0.62098169E+03</rscale>
<asrwt>0</asrwt>
<pdfrwt beam="1">  1        2 0.84630380E-01 0.62098169E+03</pdfrwt>
<pdfrwt beam="2">  1       -2 0.23247445E-01 0.62098169E+03</pdfrwt>
<totfact> 0.90247786E+02</totfact>
</mgrwt>
</event>
<event>
 4    1  0.1361667E-004  0.3691233E+03  0.7818608E-02  0.1055029E+00
          2   -1    0    0  501    0  0.00000000000E+00  0.00000000000E+00  0.57639472791E+03  0.57639472791E+03  0.25500000000E-02 0.  1.
         -2   -1    0    0    0  501 -0.00000000000E+00 -0.00000000000E+00 -0.59096647777E+02  0.59096647832E+02  0.25500000000E-02 0. -1.
    5000001    1    1    2    0    0  0.12268550199E+03  0.32713930613E+02  0.33193568470E+03  0.37740195075E+03  0.12700000000E+03 0.  0.
   -5000001    1    1    2    0    0 -0.12268550199E+03 -0.32713930613E+02  0.18536239543E+03  0.25808942500E+03  0.12700000000E+03 0.  0.
<mgrwt>
<rscale>  0 0.36912327E+03</rscale>
<asrwt>0</asrwt>
<pdfrwt beam="1">  1        2 0.82342106E-01 0.36912327E+03</pdfrwt>
<pdfrwt beam="2">  1       -2 0.84423781E-02 0.36912327E+03</pdfrwt>
<totfact> 0.50324251E+03</totfact>
</mgrwt>
</event>
<event>
 4    1  0.1361667E-004  0.3176587E+03  0.7818608E-02  0.1076732E+00
          2   -1    0    0  501    0  0.00000000000E+00  0.00000000000E+00  0.14244605822E+04  0.14244605822E+04  0.25500000000E-02 0.  1.
         -2   -1    0    0    0  501 -0.00000000000E+00 -0.00000000000E+00 -0.17709692795E+02  0.17709692979E+02  0.25500000000E-02 0. -1.
    5000001    1    1    2    0    0 -0.31417448496E+02  0.35588227032E+02  0.10789676489E+04  0.10874528796E+04  0.12700000000E+03 0.  0.
   -5000001    1    1    2    0    0  0.31417448496E+02 -0.35588227032E+02  0.32778324050E+03  0.35471739558E+03  0.12700000000E+03 0.  0.
<mgrwt>
<rscale>  0 0.31765868E+03</rscale>
<asrwt>0</asrwt>
<pdfrwt beam="1">  1        2 0.20349435E+00 0.31765868E+03</pdfrwt>
<pdfrwt beam="2">  1       -2 0.25299564E-02 0.31765868E+03</pdfrwt>
<totfact> 0.93371471E+03</totfact>
</mgrwt>
</event>
<event>
 4    1  0.1361667E-004  0.4473328E+03  0.7818608E-02  0.1028520E+00
          2   -1    0    0  501    0  0.00000000000E+00  0.00000000000E+00  0.36286520499E+04  0.36286520499E+04  0.25500000000E-02 0.  1.
         -2   -1    0    0    0  501 -0.00000000000E+00 -0.00000000000E+00 -0.13786568571E+02  0.13786568807E+02  0.25500000000E-02 0. -1.
    5000001    1    1    2    0    0 -0.15787772056E+03 -0.46588817030E+02  0.11358919418E+04  0.11547620516E+04  0.12700000000E+03 0.  0.
   -5000001    1    1    2    0    0  0.15787772056E+03  0.46588817030E+02  0.24789735395E+04  0.24876765670E+04  0.12700000000E+03 0.  0.
<mgrwt>
<rscale>  0 0.44733281E+03</rscale>
<asrwt>0</asrwt>
<pdfrwt beam="1">  1        2 0.51837916E+00 0.44733281E+03</pdfrwt>
<pdfrwt beam="2">  1       -2 0.19695087E-02 0.44733281E+03</pdfrwt>
<totfact> 0.94789664E+02</totfact>
</mgrwt>
</event>
<event>
 4    1  0.1361667E-004  0.4087340E+03  0.7818608E-02  0.1040797E+00
         -2   -1    0    0    0  501 -0.00000000000E+00  0.00000000000E+00  0.18665068665E+02  0.18665068840E+02  0.25500000000E-02 0. -1.
          2   -1    0    0  501    0  0.00000000000E+00 -0.00000000000E+00 -0.22376493033E+04  0.22376493033E+04  0.25500000000E-02 0.  1.
    5000001    1    1    2    0    0 -0.15023685657E+03 -0.47227511924E+02 -0.12690385511E+04  0.12850639654E+04  0.12700000000E+03 0.  0.
   -5000001    1    1    2    0    0  0.15023685657E+03  0.47227511924E+02 -0.94994568349E+03  0.97125040671E+03  0.12700000000E+03 0.  0.
<mgrwt>
<rscale>  0 0.40873404E+03</rscale>
<asrwt>0</asrwt>
<pdfrwt beam="1">  1        2 0.31966401E+00 0.40873404E+03</pdfrwt>
<pdfrwt beam="2">  1       -2 0.26664398E-02 0.40873404E+03</pdfrwt>
<totfact> 0.33970915E+03</totfact>
</mgrwt>
</event>
<event>
 4    1  0.1361667E-004  0.4507463E+03  0.7818608E-02  0.1027500E+00
         -2   -1    0    0    0  501 -0.00000000000E+00  0.00000000000E+00  0.44627066980E+02  0.44627067053E+02  0.25500000000E-02 0. -1.
          2   -1    0    0  501    0  0.00000000000E+00 -0.00000000000E+00 -0.11381672871E+04  0.11381672871E+04  0.25500000000E-02 0.  1.
    5000001    1    1    2    0    0  0.13743026175E+03 -0.80813590739E+02 -0.29444666921E+03  0.35811416378E+03  0.12700000000E+03 0.  0.
   -5000001    1    1    2    0    0 -0.13743026175E+03  0.80813590739E+02 -0.79909355090E+03  0.82468019037E+03  0.12700000000E+03 0.  0.
<mgrwt>
<rscale>  0 0.45074635E+03</rscale>
<asrwt>0</asrwt>
<pdfrwt beam="1">  1        2 0.16259531E+00 0.45074635E+03</pdfrwt>
<pdfrwt beam="2">  1       -2 0.63752960E-02 0.45074635E+03</pdfrwt>
<totfact> 0.32796368E+03</totfact>
</mgrwt>
</event>
<event>
 4    1  0.1361667E-004  0.3399641E+03  0.7818608E-02  0.1066811E+00
          2   -1    0    0  501    0  0.00000000000E+00  0.00000000000E+00  0.30299262507E+03  0.30299262508E+03  0.25500000000E-02 0.  1.
         -2   -1    0    0    0  501 -0.00000000000E+00 -0.00000000000E+00 -0.95361741992E+02  0.95361742026E+02  0.25500000000E-02 0. -1.
    5000001    1    1    2    0    0 -0.74118822854E+02  0.65451567063E+02  0.16786010404E+03  0.23255864220E+03  0.12700000000E+03 0.  0.
   -5000001    1    1    2    0    0  0.74118822854E+02 -0.65451567063E+02  0.39770779035E+02  0.16579572491E+03  0.12700000000E+03 0.  0.
<mgrwt>
<rscale>  0 0.33996414E+03</rscale>
<asrwt>0</asrwt>
<pdfrwt beam="1">  1        2 0.43284662E-01 0.33996414E+03</pdfrwt>
<pdfrwt beam="2">  1       -2 0.13623106E-01 0.33996414E+03</pdfrwt>
<totfact> 0.47210682E+03</totfact>
</mgrwt>
</event>
<event>
 4    1  0.1361667E-004  0.3345735E+03  0.7818608E-02  0.1069131E+00
         -2   -1    0    0    0  501 -0.00000000000E+00  0.00000000000E+00  0.12656494808E+03  0.12656494810E+03  0.25500000000E-02 0. -1.
          2   -1    0    0  501    0  0.00000000000E+00 -0.00000000000E+00 -0.22111066070E+03  0.22111066071E+03  0.25500000000E-02 0.  1.
    5000001    1    1    2    0    0  0.51196118296E+02  0.60499676281E+02 -0.12485999767E+03  0.19493658553E+03  0.12700000000E+03 0.  0.
   -5000001    1    1    2    0    0 -0.51196118296E+02 -0.60499676281E+02  0.30314285046E+02  0.15273902329E+03  0.12700000000E+03 0.  0.
<mgrwt>
<rscale>  0 0.33457352E+03</rscale>
<asrwt>0</asrwt>
<pdfrwt beam="1">  1        2 0.31587237E-01 0.33457352E+03</pdfrwt>
<pdfrwt beam="2">  1       -2 0.18080707E-01 0.33457352E+03</pdfrwt>
<totfact> 0.41481465E+03</totfact>
</mgrwt>
</event>
<event>
 4    1  0.1361667E-004  0.4184453E+03  0.7818608E-02  0.1037573E+00
         -2   -1    0    0    0  501 -0.00000000000E+00  0.00000000000E+00  0.38599725654E+02  0.38599725738E+02  0.25500000000E-02 0. -1.
          2   -1    0    0  501    0  0.00000000000E+00 -0.00000000000E+00 -0.11340525255E+04  0.11340525255E+04  0.25500000000E-02 0.  1.
    5000001    1    1    2    0    0 -0.14590579879E+03 -0.41173945067E+01 -0.32459351448E+03  0.37788279228E+03  0.12700000000E+03 0.  0.
   -5000001    1    1    2    0    0  0.14590579879E+03  0.41173945067E+01 -0.77085928535E+03  0.79476945895E+03  0.12700000000E+03 0.  0.
<mgrwt>
<rscale>  0 0.41844530E+03</rscale>
<asrwt>0</asrwt>
<pdfrwt beam="1">  1        2 0.16200748E+00 0.41844530E+03</pdfrwt>
<pdfrwt beam="2">  1       -2 0.55142472E-02 0.41844530E+03</pdfrwt>
<totfact> 0.41288259E+03</totfact>
</mgrwt>
</event>
<event>
 4    1  0.1361667E-004  0.5527588E+03  0.7818608E-02  0.1000857E+00
         -2   -1    0    0    0  501 -0.00000000000E+00  0.00000000000E+00  0.39512056238E+02  0.39512056320E+02  0.25500000000E-02 0. -1.
          2   -1    0    0  501    0  0.00000000000E+00 -0.00000000000E+00 -0.19332218292E+04  0.19332218292E+04  0.25500000000E-02 0.  1.
    5000001    1    1    2    0    0  0.12628391162E+03 -0.19767053846E+03 -0.12050831062E+04  0.12342510121E+04  0.12700000000E+03 0.  0.
   -5000001    1    1    2    0    0 -0.12628391162E+03  0.19767053846E+03 -0.68862666674E+03  0.73848287336E+03  0.12700000000E+03 0.  0.
<mgrwt>
<rscale>  0 0.55275879E+03</rscale>
<asrwt>0</asrwt>
<pdfrwt beam="1">  1        2 0.27617449E+00 0.55275879E+03</pdfrwt>
<pdfrwt beam="2">  1       -2 0.56445807E-02 0.55275879E+03</pdfrwt>
<totfact> 0.15240116E+03</totfact>
</mgrwt>
</event>
<event>
 4    1  0.1361667E-004  0.1792898E+04  0.7818608E-02  0.8710086E-01
         -2   -1    0    0    0  501 -0.00000000000E+00  0.00000000000E+00  0.68713660871E+03  0.68713660872E+03  0.25500000000E-02 0. -1.
          2   -1    0    0  501    0  0.00000000000E+00 -0.00000000000E+00 -0.11695207237E+04  0.11695207237E+04  0.25500000000E-02 0.  1.
    5000001    1    1    2    0    0 -0.13215173687E+03 -0.71997195044E+03 -0.76069749124E+03  0.10633030444E+04  0.12700000000E+03 0.  0.
   -5000001    1    1    2    0    0  0.13215173687E+03  0.71997195044E+03  0.27831337625E+03  0.79335428806E+03  0.12700000000E+03 0.  0.
<mgrwt>
<rscale>  0 0.17928977E+04</rscale>
<asrwt>0</asrwt>
<pdfrwt beam="1">  1        2 0.16707439E+00 0.17928977E+04</pdfrwt>
<pdfrwt beam="2">  1       -2 0.98162373E-01 0.17928977E+04</pdfrwt>
<totfact> 0.18197968E+01</totfact>
</mgrwt>
</event>
<event>
 4    1  0.1361667E-004  0.3870477E+03  0.7818608E-02  0.1048359E+00
         -2   -1    0    0    0  501 -0.00000000000E+00  0.00000000000E+00  0.85962646796E+02  0.85962646834E+02  0.25500000000E-02 0. -1.
          2   -1    0    0  501    0  0.00000000000E+00 -0.00000000000E+00 -0.43567159065E+03  0.43567159066E+03  0.25500000000E-02 0.  1.
    5000001    1    1    2    0    0 -0.12789186405E+03 -0.23189737254E+02 -0.85168498378E+02  0.20069072206E+03  0.12700000000E+03 0.  0.
   -5000001    1    1    2    0    0  0.12789186405E+03  0.23189737254E+02 -0.26454044548E+03  0.32094351544E+03  0.12700000000E+03 0.  0.
<mgrwt>
<rscale>  0 0.38704771E+03</rscale>
<asrwt>0</asrwt>
<pdfrwt beam="1">  1        2 0.62238797E-01 0.38704771E+03</pdfrwt>
<pdfrwt beam="2">  1       -2 0.12280378E-01 0.38704771E+03</pdfrwt>
<totfact> 0.37778933E+03</totfact>
</mgrwt>
</event>
<event>
 4    1  0.1361667E-004  0.5439609E+03  0.7818608E-02  0.1002901E+00
          2   -1    0    0  501    0  0.00000000000E+00  0.00000000000E+00  0.64829836139E+03  0.64829836140E+03  0.25500000000E-02 0.  1.
         -2   -1    0    0    0  501 -0.00000000000E+00 -0.00000000000E+00 -0.11410390279E+03  0.11410390281E+03  0.25500000000E-02 0. -1.
    5000001    1    1    2    0    0  0.16538756966E+03  0.15814507638E+03  0.16332895644E+03  0.30849353542E+03  0.12700000000E+03 0.  0.
   -5000001    1    1    2    0    0 -0.16538756966E+03 -0.15814507638E+03  0.37086550217E+03  0.45390872880E+03  0.12700000000E+03 0.  0.
<mgrwt>
<rscale>  0 0.54396093E+03</rscale>
<asrwt>0</asrwt>
<pdfrwt beam="1">  1        2 0.92614049E-01 0.54396093E+03</pdfrwt>
<pdfrwt beam="2">  1       -2 0.16300558E-01 0.54396093E+03</pdfrwt>
<totfact> 0.15028537E+03</totfact>
</mgrwt>
</event>
<event>
 4    1  0.1361667E-004  0.3948413E+03  0.7818608E-02  0.1045581E+00
          2   -1    0    0  501    0  0.00000000000E+00  0.00000000000E+00  0.82983214822E+03  0.82983214822E+03  0.25500000000E-02 0.  1.
         -2   -1    0    0    0  501 -0.00000000000E+00 -0.00000000000E+00 -0.46967220548E+02  0.46967220617E+02  0.25500000000E-02 0. -1.
    5000001    1    1    2    0    0  0.95103252514E+02 -0.11371097156E+03  0.32589182798E+03  0.37988063551E+03  0.12700000000E+03 0.  0.
   -5000001    1    1    2    0    0 -0.95103252514E+02  0.11371097156E+03  0.45697309969E+03  0.49691873333E+03  0.12700000000E+03 0.  0.
<mgrwt>
<rscale>  0 0.39484128E+03</rscale>
<asrwt>0</asrwt>
<pdfrwt beam="1">  1        2 0.11854746E+00 0.39484128E+03</pdfrwt>
<pdfrwt beam="2">  1       -2 0.67096023E-02 0.39484128E+03</pdfrwt>
<totfact> 0.46628411E+03</totfact>
</mgrwt>
</event>
<event>
 4    1  0.1361667E-004  0.3783552E+03  0.7818608E-02  0.1051543E+00
         -2   -1    0    0    0  501 -0.00000000000E+00  0.00000000000E+00  0.75481579459E+03  0.75481579459E+03  0.25500000000E-02 0. -1.
          2   -1    0    0  501    0  0.00000000000E+00 -0.00000000000E+00 -0.47413105778E+02  0.47413105846E+02  0.25500000000E-02 0.  1.
    5000001    1    1    2    0    0 -0.13935742985E+03 -0.16632550940E+01  0.38626730837E+03  0.42983100539E+03  0.12700000000E+03 0.  0.
   -5000001    1    1    2    0    0  0.13935742985E+03  0.16632550940E+01  0.32113538043E+03  0.37239789505E+03  0.12700000000E+03 0.  0.
<mgrwt>
<rscale>  0 0.37835518E+03</rscale>
<asrwt>0</asrwt>
<pdfrwt beam="1">  1        2 0.67733007E-02 0.37835518E+03</pdfrwt>
<pdfrwt beam="2">  1       -2 0.10783083E+00 0.37835518E+03</pdfrwt>
<totfact> 0.76217336E+02</totfact>
</mgrwt>
</event>
<event>
 4    1  0.1361667E-004  0.3844513E+03  0.7818608E-02  0.1049301E+00
          2   -1    0    0  501    0  0.00000000000E+00  0.00000000000E+00  0.79072751601E+03  0.79072751602E+03  0.25500000000E-02 0.  1.
         -2   -1    0    0    0  501 -0.00000000000E+00 -0.00000000000E+00 -0.46730016716E+02  0.46730016786E+02  0.25500000000E-02 0. -1.
    5000001    1    1    2    0    0 -0.11097923547E+03  0.15709216209E+02  0.56995674120E+03  0.59459469979E+03  0.12700000000E+03 0.  0.
   -5000001    1    1    2    0    0  0.11097923547E+03 -0.15709216209E+02  0.17404075810E+03  0.24286283301E+03  0.12700000000E+03 0.  0.
<mgrwt>
<rscale>  0 0.38445135E+03</rscale>
<asrwt>0</asrwt>
<pdfrwt beam="1">  1        2 0.11296107E+00 0.38445135E+03</pdfrwt>
<pdfrwt beam="2">  1       -2 0.66757169E-02 0.38445135E+03</pdfrwt>
<totfact> 0.49927221E+03</totfact>
</mgrwt>
</event>
<event>
 4    1  0.1361667E-004  0.2777982E+03  0.7818608E-02  0.1096898E+00
          2   -1    0    0  501    0  0.00000000000E+00  0.00000000000E+00  0.17016802579E+04  0.17016802579E+04  0.25500000000E-02 0.  1.
         -2   -1    0    0    0  501 -0.00000000000E+00 -0.00000000000E+00 -0.11337590076E+02  0.11337590363E+02  0.25500000000E-02 0. -1.
    5000001    1    1    2    0    0  0.20635020365E+00 -0.55633477672E+02  0.89632915720E+03  0.90698957241E+03  0.12700000000E+03 0.  0.
   -5000001    1    1    2    0    0 -0.20635020365E+00  0.55633477672E+02  0.79401351060E+03  0.80602827582E+03  0.12700000000E+03 0.  0.
<mgrwt>
<rscale>  0 0.27779815E+03</rscale>
<asrwt>0</asrwt>
<pdfrwt beam="1">  1        2 0.24309702E+00 0.27779815E+03</pdfrwt>
<pdfrwt beam="2">  1       -2 0.16196568E-02 0.27779815E+03</pdfrwt>
<totfact> 0.13041515E+04</totfact>
</mgrwt>
</event>
<event>
 4    1  0.1361667E-004  0.5964691E+03  0.7818608E-02  0.9912759E-01
          2   -1    0    0  501    0  0.00000000000E+00  0.00000000000E+00  0.12440693658E+03  0.12440693661E+03  0.25500000000E-02 0.  1.
         -2   -1    0    0    0  501 -0.00000000000E+00 -0.00000000000E+00 -0.71494278509E+03  0.71494278510E+03  0.25500000000E-02 0. -1.
    5000001    1    1    2    0    0  0.22690654250E+03 -0.12177395758E+03 -0.18182157911E+03  0.33985815042E+03  0.12700000000E+03 0.  0.
   -5000001    1    1    2    0    0 -0.22690654250E+03  0.12177395758E+03 -0.40871426940E+03  0.49949157129E+03  0.12700000000E+03 0.  0.
<mgrwt>
<rscale>  0 0.59646908E+03</rscale>
<asrwt>0</asrwt>
<pdfrwt beam="1">  1        2 0.17772420E-01 0.59646908E+03</pdfrwt>
<pdfrwt beam="2">  1       -2 0.10213468E+00 0.59646908E+03</pdfrwt>
<totfact> 0.25975591E+02</totfact>
</mgrwt>
</event>
<event>
 4    1  0.1361667E-004  0.2775686E+03  0.7818608E-02  0.1097024E+00
         -2   -1    0    0    0  501 -0.00000000000E+00  0.00000000000E+00  0.16757621335E+02  0.16757621529E+02  0.25500000000E-02 0. -1.
          2   -1    0    0  501    0  0.00000000000E+00 -0.00000000000E+00 -0.11493919392E+04  0.11493919392E+04  0.25500000000E-02 0.  1.
    5000001    1    1    2    0    0 -0.85565972983E+01 -0.49339824865E+02 -0.46133153985E+03  0.48110645738E+03  0.12700000000E+03 0.  0.
   -5000001    1    1    2    0    0  0.85565972983E+01  0.49339824865E+02 -0.67130277797E+03  0.68504310330E+03  0.12700000000E+03 0.  0.
<mgrwt>
<rscale>  0 0.27756855E+03</rscale>
<asrwt>0</asrwt>
<pdfrwt beam="1">  1        2 0.16419880E+00 0.27756855E+03</pdfrwt>
<pdfrwt beam="2">  1       -2 0.23939467E-02 0.27756855E+03</pdfrwt>
<totfact> 0.14138644E+04</totfact>
</mgrwt>
</event>
<event>
 4    1  0.1361667E-004  0.4865770E+03  0.7818608E-02  0.1017343E+00
          2   -1    0    0  501    0  0.00000000000E+00  0.00000000000E+00  0.11212872757E+03  0.11212872760E+03  0.25500000000E-02 0.  1.
         -2   -1    0    0    0  501 -0.00000000000E+00 -0.00000000000E+00 -0.52786904615E+03  0.52786904615E+03  0.25500000000E-02 0. -1.
    5000001    1    1    2    0    0  0.19037652391E+03 -0.47513709870E+02 -0.11905521321E+03  0.26230500810E+03  0.12700000000E+03 0.  0.
   -5000001    1    1    2    0    0 -0.19037652391E+03  0.47513709870E+02 -0.29668510537E+03  0.37769276566E+03  0.12700000000E+03 0.  0.
<mgrwt>
<rscale>  0 0.48657696E+03</rscale>
<asrwt>0</asrwt>
<pdfrwt beam="1">  1        2 0.16018390E-01 0.48657696E+03</pdfrwt>
<pdfrwt beam="2">  1       -2 0.75409863E-01 0.48657696E+03</pdfrwt>
<totfact> 0.58848627E+02</totfact>
</mgrwt>
</event>
<event>
 4    1  0.1361667E-004  0.9081020E+03  0.7818608E-02  0.9415510E-01
          2   -1    0    0  501    0  0.00000000000E+00  0.00000000000E+00  0.85108375589E+03  0.85108375589E+03  0.25500000000E-02 0.  1.
         -2   -1    0    0    0  501 -0.00000000000E+00 -0.00000000000E+00 -0.24223504964E+03  0.24223504965E+03  0.25500000000E-02 0. -1.
    5000001    1    1    2    0    0  0.28731619879E+03  0.30512092337E+03  0.44881900577E+03  0.62707007257E+03  0.12700000000E+03 0.  0.
   -5000001    1    1    2    0    0 -0.28731619879E+03 -0.30512092337E+03  0.16002970048E+03  0.46624873298E+03  0.12700000000E+03 0.  0.
<mgrwt>
<rscale>  0 0.90810201E+03</rscale>
<asrwt>0</asrwt>
<pdfrwt beam="1">  1        2 0.12158340E+00 0.90810201E+03</pdfrwt>
<pdfrwt beam="2">  1       -2 0.34605006E-01 0.90810201E+03</pdfrwt>
<totfact> 0.27441686E+02</totfact>
</mgrwt>
</event>
<event>
 4    1  0.1361667E-004  0.3509685E+03  0.7818608E-02  0.1062218E+00
          2   -1    0    0  501    0  0.00000000000E+00  0.00000000000E+00  0.33859441760E+04  0.33859441760E+04  0.25500000000E-02 0.  1.
         -2   -1    0    0    0  501 -0.00000000000E+00 -0.00000000000E+00 -0.90948704209E+01  0.90948707784E+01  0.25500000000E-02 0. -1.
    5000001    1    1    2    0    0  0.80991392696E+02  0.89239338355E+02  0.15729673322E+04  0.15826807932E+04  0.12700000000E+03 0.  0.
   -5000001    1    1    2    0    0 -0.80991392696E+02 -0.89239338355E+02  0.18038819735E+04  0.18123582536E+04  0.12700000000E+03 0.  0.
<mgrwt>
<rscale>  0 0.35096851E+03</rscale>
<asrwt>0</asrwt>
<pdfrwt beam="1">  1        2 0.48370527E+00 0.35096851E+03</pdfrwt>
<pdfrwt beam="2">  1       -2 0.12992700E-02 0.35096851E+03</pdfrwt>
<totfact> 0.24639073E+03</totfact>
</mgrwt>
</event>
<event>
 4    1  0.1361667E-004  0.6206039E+03  0.7818608E-02  0.9863558E-01
          2   -1    0    0  501    0  0.00000000000E+00  0.00000000000E+00  0.11293622765E+04  0.11293622765E+04  0.25500000000E-02 0.  1.
         -2   -1    0    0    0  501 -0.00000000000E+00 -0.00000000000E+00 -0.85258111325E+02  0.85258111363E+02  0.25500000000E-02 0. -1.
    5000001    1    1    2    0    0  0.22419402281E+03 -0.16527132127E+03  0.62147739428E+03  0.69277754085E+03  0.12700000000E+03 0.  0.
   -5000001    1    1    2    0    0 -0.22419402281E+03  0.16527132127E+03  0.42262677085E+03  0.52184284698E+03  0.12700000000E+03 0.  0.
<mgrwt>
<rscale>  0 0.62060388E+03</rscale>
<asrwt>0</asrwt>
<pdfrwt beam="1">  1        2 0.16133745E+00 0.62060388E+03</pdfrwt>
<pdfrwt beam="2">  1       -2 0.12179731E-01 0.62060388E+03</pdfrwt>
<totfact> 0.11736354E+03</totfact>
</mgrwt>
</event>
<event>
 4    1  0.1361667E-004  0.5579482E+03  0.7818608E-02  0.9996708E-01
          2   -1    0    0  501    0  0.00000000000E+00  0.00000000000E+00  0.53075881109E+03  0.53075881110E+03  0.25500000000E-02 0. -1.
         -2   -1    0    0    0  501 -0.00000000000E+00 -0.00000000000E+00 -0.14663258574E+03  0.14663258576E+03  0.25500000000E-02 0.  1.
    5000001    1    1    2    0    0 -0.36246793084E+02 -0.23244152552E+03  0.95281814338E+02  0.28381422962E+03  0.12700000000E+03 0.  0.
   -5000001    1    1    2    0    0  0.36246793084E+02  0.23244152552E+03  0.28884441101E+03  0.39357716723E+03  0.12700000000E+03 0.  0.
<mgrwt>
<rscale>  0 0.55794816E+03</rscale>
<asrwt>0</asrwt>
<pdfrwt beam="1">  1        2 0.75822686E-01 0.55794816E+03</pdfrwt>
<pdfrwt beam="2">  1       -2 0.20947513E-01 0.55794816E+03</pdfrwt>
<totfact> 0.12328053E+03</totfact>
</mgrwt>
</event>
<event>
 4    1  0.1361667E-004  0.4403007E+03  0.7818608E-02  0.1030655E+00
          2   -1    0    0  501    0  0.00000000000E+00  0.00000000000E+00  0.27926447532E+04  0.27926447532E+04  0.25500000000E-02 0.  1.
         -2   -1    0    0    0  501 -0.00000000000E+00 -0.00000000000E+00 -0.17354935827E+02  0.17354936015E+02  0.25500000000E-02 0. -1.
    5000001    1    1    2    0    0  0.12630072033E+03  0.12535123894E+03  0.15531303121E+04  0.15684411278E+04  0.12700000000E+03 0.  0.
   -5000001    1    1    2    0    0 -0.12630072033E+03 -0.12535123894E+03  0.12221595052E+04  0.12415585614E+04  0.12700000000E+03 0.  0.
<mgrwt>
<rscale>  0 0.44030067E+03</rscale>
<asrwt>0</asrwt>
<pdfrwt beam="1">  1        2 0.39894912E+00 0.44030067E+03</pdfrwt>
<pdfrwt beam="2">  1       -2 0.24792773E-02 0.44030067E+03</pdfrwt>
<totfact> 0.19743243E+03</totfact>
</mgrwt>
</event>
<event>
 4    1  0.1361667E-004  0.3842948E+03  0.7818608E-02  0.1049358E+00
          2   -1    0    0  501    0  0.00000000000E+00  0.00000000000E+00  0.74209390812E+03  0.74209390812E+03  0.25500000000E-02 0.  1.
         -2   -1    0    0    0  501 -0.00000000000E+00 -0.00000000000E+00 -0.49751964427E+02  0.49751964493E+02  0.25500000000E-02 0. -1.
    5000001    1    1    2    0    0 -0.11041210243E+03 -0.89938390677E+02  0.39278982411E+03  0.43668362965E+03  0.12700000000E+03 0.  0.
   -5000001    1    1    2    0    0  0.11041210243E+03  0.89938390677E+02  0.29955211958E+03  0.35516224296E+03  0.12700000000E+03 0.  0.
<mgrwt>
<rscale>  0 0.38429483E+03</rscale>
<asrwt>0</asrwt>
<pdfrwt beam="1">  1        2 0.10601341E+00 0.38429483E+03</pdfrwt>
<pdfrwt beam="2">  1       -2 0.71074236E-02 0.38429483E+03</pdfrwt>
<totfact> 0.48973181E+03</totfact>
</mgrwt>
</event>
<event>
 4    1  0.1361667E-004  0.3696672E+03  0.7818608E-02  0.1054820E+00
          2   -1    0    0  501    0  0.00000000000E+00  0.00000000000E+00  0.21873437716E+04  0.21873437716E+04  0.25500000000E-02 0.  1.
         -2   -1    0    0    0  501 -0.00000000000E+00 -0.00000000000E+00 -0.15618697767E+02  0.15618697975E+02  0.25500000000E-02 0. -1.
    5000001    1    1    2    0    0 -0.11840038724E+03  0.59915021032E+02  0.96286370030E+03  0.98022648750E+03  0.12700000000E+03 0.  0.
   -5000001    1    1    2    0    0  0.11840038724E+03 -0.59915021032E+02  0.12088613735E+04  0.12227359821E+04  0.12700000000E+03 0.  0.
<mgrwt>
<rscale>  0 0.36966721E+03</rscale>
<asrwt>0</asrwt>
<pdfrwt beam="1">  1        2 0.31247787E+00 0.36966721E+03</pdfrwt>
<pdfrwt beam="2">  1       -2 0.22312412E-02 0.36966721E+03</pdfrwt>
<totfact> 0.47006573E+03</totfact>
</mgrwt>
</event>
<event>
 4    1  0.1361667E-004  0.5543878E+03  0.7818608E-02  0.1000483E+00
          2   -1    0    0  501    0  0.00000000000E+00  0.00000000000E+00  0.15867336072E+03  0.15867336074E+03  0.25500000000E-02 0.  1.
         -2   -1    0    0    0  501 -0.00000000000E+00 -0.00000000000E+00 -0.48424300792E+03  0.48424300792E+03  0.25500000000E-02 0. -1.
    5000001    1    1    2    0    0 -0.13748482333E+02  0.16403136591E+03  0.49827768042E+02  0.21379222679E+03  0.12700000000E+03 0.  0.
   -5000001    1    1    2    0    0  0.13748482333E+02 -0.16403136591E+03 -0.37539741524E+03  0.42912414187E+03  0.12700000000E+03 0.  0.
<mgrwt>
<rscale>  0 0.55438783E+03</rscale>
<asrwt>0</asrwt>
<pdfrwt beam="1">  1        2 0.22667623E-01 0.55438783E+03</pdfrwt>
<pdfrwt beam="2">  1       -2 0.69177572E-01 0.55438783E+03</pdfrwt>
<totfact> 0.47231153E+02</totfact>
</mgrwt>
</event>
<event>
 4    1  0.1361667E-004  0.6722662E+03  0.7818608E-02  0.9765873E-01
         -2   -1    0    0    0  501 -0.00000000000E+00  0.00000000000E+00  0.20023985811E+03  0.20023985813E+03  0.25500000000E-02 0. -1.
          2   -1    0    0  501    0  0.00000000000E+00 -0.00000000000E+00 -0.56425052435E+03  0.56425052435E+03  0.25500000000E-02 0.  1.
    5000001    1    1    2    0    0 -0.18548248333E+03  0.21349937188E+03 -0.34299556576E+02  0.31191536191E+03  0.12700000000E+03 0.  0.
   -5000001    1    1    2    0    0  0.18548248333E+03 -0.21349937188E+03 -0.32971110966E+03  0.45257502057E+03  0.12700000000E+03 0.  0.
<mgrwt>
<rscale>  0 0.67226615E+03</rscale>
<asrwt>0</asrwt>
<pdfrwt beam="1">  1        2 0.80607217E-01 0.67226615E+03</pdfrwt>
<pdfrwt beam="2">  1       -2 0.28605694E-01 0.67226615E+03</pdfrwt>
<totfact> 0.65615637E+02</totfact>
</mgrwt>
</event>
<event>
 4    1  0.1361667E-004  0.3382508E+03  0.7818608E-02  0.1067543E+00
          2   -1    0    0  501    0  0.00000000000E+00  0.00000000000E+00  0.49567322467E+03  0.49567322467E+03  0.25500000000E-02 0.  1.
         -2   -1    0    0    0  501 -0.00000000000E+00 -0.00000000000E+00 -0.57706178980E+02  0.57706179037E+02  0.25500000000E-02 0. -1.
    5000001    1    1    2    0    0  0.90077640472E+02  0.21413767851E+02  0.32117646375E+03  0.35756936618E+03  0.12700000000E+03 0.  0.
   -5000001    1    1    2    0    0 -0.90077640472E+02 -0.21413767851E+02  0.11679058194E+03  0.19581003753E+03  0.12700000000E+03 0.  0.
<mgrwt>
<rscale>  0 0.33825084E+03</rscale>
<asrwt>0</asrwt>
<pdfrwt beam="1">  1        2 0.70810463E-01 0.33825084E+03</pdfrwt>
<pdfrwt beam="2">  1       -2 0.82437396E-02 0.33825084E+03</pdfrwt>
<totfact> 0.61819149E+03</totfact>
</mgrwt>
</event>
<event>
 4    1  0.1361667E-004  0.6062481E+03  0.7818608E-02  0.9892527E-01
          2   -1    0    0  501    0  0.00000000000E+00  0.00000000000E+00  0.32143556225E+03  0.32143556226E+03  0.25500000000E-02 0.  1.
         -2   -1    0    0    0  501 -0.00000000000E+00 -0.00000000000E+00 -0.28585568399E+03  0.28585568401E+03  0.25500000000E-02 0. -1.
    5000001    1    1    2    0    0  0.21868346653E+03  0.11315666151E+03  0.14099870984E+03  0.31086415804E+03  0.12700000000E+03 0.  0.
   -5000001    1    1    2    0    0 -0.21868346653E+03 -0.11315666151E+03 -0.10541883159E+03  0.29642708822E+03  0.12700000000E+03 0.  0.
<mgrwt>
<rscale>  0 0.60624808E+03</rscale>
<asrwt>0</asrwt>
<pdfrwt beam="1">  1        2 0.45919366E-01 0.60624808E+03</pdfrwt>
<pdfrwt beam="2">  1       -2 0.40836526E-01 0.60624808E+03</pdfrwt>
<totfact> 0.63099234E+02</totfact>
</mgrwt>
</event>
<event>
 4    1  0.1361667E-004  0.4263017E+03  0.7818608E-02  0.1035035E+00
         -2   -1    0    0    0  501 -0.00000000000E+00  0.00000000000E+00  0.12735851605E+03  0.12735851607E+03  0.25500000000E-02 0. -1.
          2   -1    0    0  501    0  0.00000000000E+00 -0.00000000000E+00 -0.35673542523E+03  0.35673542524E+03  0.25500000000E-02 0.  1.
    5000001    1    1    2    0    0  0.13905459228E+03 -0.39506111913E+02 -0.10566353259E+02  0.19271107995E+03  0.12700000000E+03 0.  0.
   -5000001    1    1    2    0    0 -0.13905459228E+03  0.39506111913E+02 -0.21881055592E+03  0.29138286136E+03  0.12700000000E+03 0.  0.
<mgrwt>
<rscale>  0 0.42630174E+03</rscale>
<asrwt>0</asrwt>
<pdfrwt beam="1">  1        2 0.50962203E-01 0.42630174E+03</pdfrwt>
<pdfrwt beam="2">  1       -2 0.18194074E-01 0.42630174E+03</pdfrwt>
<totfact> 0.24455705E+03</totfact>
</mgrwt>
</event>
<event>
 4    1  0.1361667E-004  0.5692378E+03  0.7818608E-02  0.9971367E-01
         -2   -1    0    0    0  501 -0.00000000000E+00  0.00000000000E+00  0.23422686021E+03  0.23422686022E+03  0.25500000000E-02 0.  1.
          2   -1    0    0  501    0  0.00000000000E+00 -0.00000000000E+00 -0.34585239431E+03  0.34585239432E+03  0.25500000000E-02 0. -1.
    5000001    1    1    2    0    0 -0.23507151461E+03  0.97349038139E+02 -0.68018713002E+02  0.29238843603E+03  0.12700000000E+03 0.  0.
   -5000001    1    1    2    0    0  0.23507151461E+03 -0.97349038139E+02 -0.43606821102E+02  0.28769081851E+03  0.12700000000E+03 0.  0.
<mgrwt>
<rscale>  0 0.56923781E+03</rscale>
<asrwt>0</asrwt>
<pdfrwt beam="1">  1        2 0.49407485E-01 0.56923781E+03</pdfrwt>
<pdfrwt beam="2">  1       -2 0.33460980E-01 0.56923781E+03</pdfrwt>
<totfact> 0.85236824E+02</totfact>
</mgrwt>
</event>
<event>
 4    1  0.1361667E-004  0.3986767E+03  0.7818608E-02  0.1044239E+00
          2   -1    0    0  501    0  0.00000000000E+00  0.00000000000E+00  0.11199770853E+03  0.11199770856E+03  0.25500000000E-02 0.  1.
         -2   -1    0    0    0  501 -0.00000000000E+00 -0.00000000000E+00 -0.35479107793E+03  0.35479107794E+03  0.25500000000E-02 0. -1.
    5000001    1    1    2    0    0  0.71296574063E+02  0.13075744246E+03 -0.16561183149E+03  0.25639225605E+03  0.12700000000E+03 0.  0.
   -5000001    1    1    2    0    0 -0.71296574063E+02 -0.13075744246E+03 -0.77181537912E+02  0.21039653045E+03  0.12700000000E+03 0.  0.
<mgrwt>
<rscale>  0 0.39867675E+03</rscale>
<asrwt>0</asrwt>
<pdfrwt beam="1">  1        2 0.15999673E-01 0.39867675E+03</pdfrwt>
<pdfrwt beam="2">  1       -2 0.50684439E-01 0.39867675E+03</pdfrwt>
<totfact> 0.13591802E+03</totfact>
</mgrwt>
</event>
<event>
 4    1  0.1361667E-004  0.4848412E+03  0.7818608E-02  0.1017813E+00
          2   -1    0    0  501    0  0.00000000000E+00  0.00000000000E+00  0.13574591910E+04  0.13574591910E+04  0.25500000000E-02 0.  1.
         -2   -1    0    0    0  501 -0.00000000000E+00 -0.00000000000E+00 -0.43292456452E+02  0.43292456527E+02  0.25500000000E-02 0. -1.
    5000001    1    1    2    0    0 -0.14336735600E+03 -0.91535344694E+02  0.31885172864E+03  0.38305135811E+03  0.12700000000E+03 0.  0.
   -5000001    1    1    2    0    0  0.14336735600E+03  0.91535344694E+02  0.99531500591E+03  0.10177002894E+04  0.12700000000E+03 0.  0.
<mgrwt>
<rscale>  0 0.48484118E+03</rscale>
<asrwt>0</asrwt>
<pdfrwt beam="1">  1        2 0.19392275E+00 0.48484118E+03</pdfrwt>
<pdfrwt beam="2">  1       -2 0.61846365E-02 0.48484118E+03</pdfrwt>
<totfact> 0.26079559E+03</totfact>
</mgrwt>
</event>
<event>
 4    1  0.1361667E-004  0.3335042E+03  0.7818608E-02  0.1069597E+00
          2   -1    0    0  501    0  0.00000000000E+00  0.00000000000E+00  0.13999384631E+04  0.13999384631E+04  0.25500000000E-02 0.  1.
         -2   -1    0    0    0  501 -0.00000000000E+00 -0.00000000000E+00 -0.19862495197E+02  0.19862495361E+02  0.25500000000E-02 0. -1.
    5000001    1    1    2    0    0 -0.34289491125E+02  0.87712009557E+02  0.46444126080E+03  0.49061578710E+03  0.12700000000E+03 0.  0.
   -5000001    1    1    2    0    0  0.34289491125E+02 -0.87712009557E+02  0.91563470706E+03  0.92918517131E+03  0.12700000000E+03 0.  0.
<mgrwt>
<rscale>  0 0.33350425E+03</rscale>
<asrwt>0</asrwt>
<pdfrwt beam="1">  1        2 0.19999122E+00 0.33350425E+03</pdfrwt>
<pdfrwt beam="2">  1       -2 0.28374991E-02 0.33350425E+03</pdfrwt>
<totfact> 0.81103214E+03</totfact>
</mgrwt>
</event>
<event>
 4    1  0.1361667E-004  0.3108712E+03  0.7818608E-02  0.1079929E+00
         -2   -1    0    0    0  501 -0.00000000000E+00  0.00000000000E+00  0.10701132658E+03  0.10701132661E+03  0.25500000000E-02 0. -1.
          2   -1    0    0  501    0  0.00000000000E+00 -0.00000000000E+00 -0.22577259299E+03  0.22577259300E+03  0.25500000000E-02 0.  1.
    5000001    1    1    2    0    0  0.70276451688E+02 -0.53227719883E+02 -0.76616983352E+02  0.17254313073E+03  0.12700000000E+03 0.  0.
   -5000001    1    1    2    0    0 -0.70276451688E+02  0.53227719883E+02 -0.42144283061E+02  0.16024078888E+03  0.12700000000E+03 0.  0.
<mgrwt>
<rscale>  0 0.31087119E+03</rscale>
<asrwt>0</asrwt>
<pdfrwt beam="1">  1        2 0.32253227E-01 0.31087119E+03</pdfrwt>
<pdfrwt beam="2">  1       -2 0.15287333E-01 0.31087119E+03</pdfrwt>
<totfact> 0.53609587E+03</totfact>
</mgrwt>
</event>
<event>
 4    1  0.1361667E-004  0.5551870E+03  0.7818608E-02  0.1000300E+00
          2   -1    0    0  501    0  0.00000000000E+00  0.00000000000E+00  0.30301646010E+04  0.30301646010E+04  0.25500000000E-02 0.  1.
         -2   -1    0    0    0  501 -0.00000000000E+00 -0.00000000000E+00 -0.25430348103E+02  0.25430348231E+02  0.25500000000E-02 0. -1.
    5000001    1    1    2    0    0 -0.18357106910E+03 -0.59142517636E+02  0.65449075382E+03  0.69403409256E+03  0.12700000000E+03 0.  0.
   -5000001    1    1    2    0    0  0.18357106910E+03  0.59142517636E+02  0.23502434991E+04  0.23615608567E+04  0.12700000000E+03 0.  0.
<mgrwt>
<rscale>  0 0.55518696E+03</rscale>
<asrwt>0</asrwt>
<pdfrwt beam="1">  1        2 0.43288059E+00 0.55518696E+03</pdfrwt>
<pdfrwt beam="2">  1       -2 0.36329074E-02 0.55518696E+03</pdfrwt>
<totfact> 0.81865296E+02</totfact>
</mgrwt>
</event>
<event>
 4    1  0.1361667E-004  0.4815591E+03  0.7818608E-02  0.1018708E+00
          2   -1    0    0  501    0  0.00000000000E+00  0.00000000000E+00  0.23108276900E+04  0.23108276900E+04  0.25500000000E-02 0.  1.
         -2   -1    0    0    0  501 -0.00000000000E+00 -0.00000000000E+00 -0.25088328128E+02  0.25088328258E+02  0.25500000000E-02 0. -1.
    5000001    1    1    2    0    0  0.17355636791E+03 -0.83230320805E+02  0.80691626462E+03  0.83922104195E+03  0.12700000000E+03 0.  0.
   -5000001    1    1    2    0    0 -0.17355636791E+03  0.83230320805E+02  0.14788230973E+04  0.14966949763E+04  0.12700000000E+03 0.  0.
<mgrwt>
<rscale>  0 0.48155915E+03</rscale>
<asrwt>0</asrwt>
<pdfrwt beam="1">  1        2 0.33011813E+00 0.48155915E+03</pdfrwt>
<pdfrwt beam="2">  1       -2 0.35840481E-02 0.48155915E+03</pdfrwt>
<totfact> 0.19909449E+03</totfact>
</mgrwt>
</event>
<event>
 4    1  0.1361667E-004  0.4073213E+03  0.7818608E-02  0.1041274E+00
          2   -1    0    0  501    0  0.00000000000E+00  0.00000000000E+00  0.48262554056E+03  0.48262554057E+03  0.25500000000E-02 0.  1.
         -2   -1    0    0    0  501 -0.00000000000E+00 -0.00000000000E+00 -0.85941721052E+02  0.85941721090E+02  0.25500000000E-02 0. -1.
    5000001    1    1    2    0    0 -0.15653892233E+03 -0.28995271065E+02  0.20095693672E+03  0.28610810957E+03  0.12700000000E+03 0.  0.
   -5000001    1    1    2    0    0  0.15653892233E+03  0.28995271065E+02  0.19572688279E+03  0.28245915208E+03  0.12700000000E+03 0.  0.
<mgrwt>
<rscale>  0 0.40732135E+03</rscale>
<asrwt>0</asrwt>
<pdfrwt beam="1">  1        2 0.68946508E-01 0.40732135E+03</pdfrwt>
<pdfrwt beam="2">  1       -2 0.12277388E-01 0.40732135E+03</pdfrwt>
<totfact> 0.33769567E+03</totfact>
</mgrwt>
</event>
<event>
 4    1  0.1361667E-004  0.3380473E+03  0.7818608E-02  0.1067631E+00
          2   -1    0    0  501    0  0.00000000000E+00  0.00000000000E+00  0.10468308747E+04  0.10468308747E+04  0.25500000000E-02 0.  1.
         -2   -1    0    0    0  501 -0.00000000000E+00 -0.00000000000E+00 -0.27290943220E+02  0.27290943339E+02  0.25500000000E-02 0. -1.
    5000001    1    1    2    0    0 -0.10711288529E+03 -0.19889474294E+02  0.43382734892E+03  0.46497734359E+03  0.12700000000E+03 0.  0.
   -5000001    1    1    2    0    0  0.10711288529E+03  0.19889474294E+02  0.58571258252E+03  0.60914447441E+03  0.12700000000E+03 0.  0.
<mgrwt>
<rscale>  0 0.33804735E+03</rscale>
<asrwt>0</asrwt>
<pdfrwt beam="1">  1        2 0.14954726E+00 0.33804735E+03</pdfrwt>
<pdfrwt beam="2">  1       -2 0.38987063E-02 0.33804735E+03</pdfrwt>
<totfact> 0.78431994E+03</totfact>
</mgrwt>
</event>
<event>
 4    1  0.1361667E-004  0.3466760E+03  0.7818608E-02  0.1063988E+00
          2   -1    0    0  501    0  0.00000000000E+00  0.00000000000E+00  0.82816710675E+03  0.82816710675E+03  0.25500000000E-02 0.  1.
         -2   -1    0    0    0  501 -0.00000000000E+00 -0.00000000000E+00 -0.36280198150E+02  0.36280198239E+02  0.25500000000E-02 0. -1.
    5000001    1    1    2    0    0 -0.60637650499E+02  0.37414059135E+01  0.14378666446E+03  0.20123252136E+03  0.12700000000E+03 0.  0.
   -5000001    1    1    2    0    0  0.60637650499E+02 -0.37414059135E+01  0.64810024413E+03  0.66321478363E+03  0.12700000000E+03 0.  0.
<mgrwt>
<rscale>  0 0.34667603E+03</rscale>
<asrwt>0</asrwt>
<pdfrwt beam="1">  1        2 0.11830959E+00 0.34667603E+03</pdfrwt>
<pdfrwt beam="2">  1       -2 0.51828854E-02 0.34667603E+03</pdfrwt>
<totfact> 0.69491329E+03</totfact>
</mgrwt>
</event>
<event>
 4    1  0.1361667E-004  0.2011630E+04  0.7818608E-02  0.8601203E-01
         -2   -1    0    0    0  501 -0.00000000000E+00  0.00000000000E+00  0.58457040553E+03  0.58457040553E+03  0.25500000000E-02 0. -1.
          2   -1    0    0  501    0  0.00000000000E+00 -0.00000000000E+00 -0.17306101753E+04  0.17306101753E+04  0.25500000000E-02 0.  1.
    5000001    1    1    2    0    0 -0.75252280591E+03 -0.29965631580E+03 -0.12435599773E+04  0.14895149876E+04  0.12700000000E+03 0.  0.
   -5000001    1    1    2    0    0  0.75252280591E+03  0.29965631580E+03  0.97520207542E+02  0.82566559326E+03  0.12700000000E+03 0.  0.
<mgrwt>
<rscale>  0 0.20116297E+04</rscale>
<asrwt>0</asrwt>
<pdfrwt beam="1">  1        2 0.24723002E+00 0.20116297E+04</pdfrwt>
<pdfrwt beam="2">  1       -2 0.83510059E-01 0.20116297E+04</pdfrwt>
<totfact> 0.12925082E+01</totfact>
</mgrwt>
</event>
<event>
 4    1  0.1361667E-004  0.7995844E+03  0.7818608E-02  0.9560619E-01
         -2   -1    0    0    0  501 -0.00000000000E+00  0.00000000000E+00  0.17471490352E+03  0.17471490353E+03  0.25500000000E-02 0. -1.
          2   -1    0    0  501    0  0.00000000000E+00 -0.00000000000E+00 -0.91482630207E+03  0.91482630207E+03  0.25500000000E-02 0.  1.
    5000001    1    1    2    0    0 -0.30302447427E+03 -0.21506870618E+03 -0.47226607987E+03  0.61420080640E+03  0.12700000000E+03 0.  0.
   -5000001    1    1    2    0    0  0.30302447427E+03  0.21506870618E+03 -0.26784531868E+03  0.47534039921E+03  0.12700000000E+03 0.  0.
<mgrwt>
<rscale>  0 0.79958436E+03</rscale>
<asrwt>0</asrwt>
<pdfrwt beam="1">  1        2 0.13068947E+00 0.79958436E+03</pdfrwt>
<pdfrwt beam="2">  1       -2 0.24959272E-01 0.79958436E+03</pdfrwt>
<totfact> 0.45827827E+02</totfact>
</mgrwt>
</event>
<event>
 4    1  0.1361667E-004  0.4212269E+03  0.7818608E-02  0.1036668E+00
          2   -1    0    0  501    0  0.00000000000E+00  0.00000000000E+00  0.15589366875E+04  0.15589366875E+04  0.25500000000E-02 0.  1.
         -2   -1    0    0    0  501 -0.00000000000E+00 -0.00000000000E+00 -0.28454026766E+02  0.28454026881E+02  0.25500000000E-02 0. -1.
    5000001    1    1    2    0    0 -0.95567438356E+02  0.13793456885E+03  0.79675859014E+03  0.82408272129E+03  0.12700000000E+03 0.  0.
   -5000001    1    1    2    0    0  0.95567438356E+02 -0.13793456885E+03  0.73372407060E+03  0.76330799310E+03  0.12700000000E+03 0.  0.
<mgrwt>
<rscale>  0 0.42122690E+03</rscale>
<asrwt>0</asrwt>
<pdfrwt beam="1">  1        2 0.22270518E+00 0.42122690E+03</pdfrwt>
<pdfrwt beam="2">  1       -2 0.40648621E-02 0.42122690E+03</pdfrwt>
<totfact> 0.39147364E+03</totfact>
</mgrwt>
</event>
<event>
 4    1  0.1361667E-004  0.3723991E+03  0.7818608E-02  0.1053779E+00
          2   -1    0    0  501    0  0.00000000000E+00  0.00000000000E+00  0.25850134577E+04  0.25850134577E+04  0.25500000000E-02 0.  1.
         -2   -1    0    0    0  501 -0.00000000000E+00 -0.00000000000E+00 -0.13412031044E+02  0.13412031287E+02  0.25500000000E-02 0. -1.
    5000001    1    1    2    0    0  0.10359953486E+03 -0.87749353421E+02  0.12131310355E+04  0.12272932501E+04  0.12700000000E+03 0.  0.
   -5000001    1    1    2    0    0 -0.10359953486E+03  0.87749353421E+02  0.13584703912E+04  0.13711322389E+04  0.12700000000E+03 0.  0.
<mgrwt>
<rscale>  0 0.37239915E+03</rscale>
<asrwt>0</asrwt>
<pdfrwt beam="1">  1        2 0.36928804E+00 0.37239915E+03</pdfrwt>
<pdfrwt beam="2">  1       -2 0.19160023E-02 0.37239915E+03</pdfrwt>
<totfact> 0.37264200E+03</totfact>
</mgrwt>
</event>
<event>
 4    1  0.1361667E-004  0.4617254E+03  0.7818608E-02  0.1024282E+00
          2   -1    0    0  501    0  0.00000000000E+00  0.00000000000E+00  0.50024001687E+03  0.50024001687E+03  0.25500000000E-02 0.  1.
         -2   -1    0    0    0  501 -0.00000000000E+00 -0.00000000000E+00 -0.10654405033E+03  0.10654405036E+03  0.25500000000E-02 0. -1.
    5000001    1    1    2    0    0  0.21899658764E+02  0.16012037675E+03  0.33499473606E+03  0.39302493979E+03  0.12700000000E+03 0.  0.
   -5000001    1    1    2    0    0 -0.21899658764E+02 -0.16012037675E+03  0.58701230479E+02  0.21375912744E+03  0.12700000000E+03 0.  0.
<mgrwt>
<rscale>  0 0.46172545E+03</rscale>
<asrwt>0</asrwt>
<pdfrwt beam="1">  1        2 0.71462859E-01 0.46172545E+03</pdfrwt>
<pdfrwt beam="2">  1       -2 0.15220579E-01 0.46172545E+03</pdfrwt>
<totfact> 0.22764838E+03</totfact>
</mgrwt>
</event>
<event>
 4    1  0.1361667E-004  0.1093937E+04  0.7818608E-02  0.9211121E-01
         -2   -1    0    0    0  501 -0.00000000000E+00  0.00000000000E+00  0.15755690316E+03  0.15755690318E+03  0.25500000000E-02 0. -1.
          2   -1    0    0  501    0  0.00000000000E+00 -0.00000000000E+00 -0.18988360565E+04  0.18988360565E+04  0.25500000000E-02 0.  1.
    5000001    1    1    2    0    0 -0.21040315710E+03  0.30708988820E+03 -0.15851450558E+04  0.16332138671E+04  0.12700000000E+03 0.  0.
   -5000001    1    1    2    0    0  0.21040315710E+03 -0.30708988820E+03 -0.15613409758E+03  0.42317909256E+03  0.12700000000E+03 0.  0.
<mgrwt>
<rscale>  0 0.10939373E+04</rscale>
<asrwt>0</asrwt>
<pdfrwt beam="1">  1        2 0.27126228E+00 0.10939373E+04</pdfrwt>
<pdfrwt beam="2">  1       -2 0.22508130E-01 0.10939373E+04</pdfrwt>
<totfact> 0.15576628E+02</totfact>
</mgrwt>
</event>
<event>
 4    1  0.1361667E-004  0.3020737E+03  0.7818608E-02  0.1084209E+00
         -2   -1    0    0    0  501 -0.00000000000E+00  0.00000000000E+00  0.11906755020E+02  0.11906755293E+02  0.25500000000E-02 0. -1.
          2   -1    0    0  501    0  0.00000000000E+00 -0.00000000000E+00 -0.19158978061E+04  0.19158978061E+04  0.25500000000E-02 0.  1.
    5000001    1    1    2    0    0  0.50729564815E+02  0.61690868360E+02 -0.84074630706E+03  0.85402728576E+03  0.12700000000E+03 0.  0.
   -5000001    1    1    2    0    0 -0.50729564815E+02 -0.61690868360E+02 -0.10632447440E+04  0.10737772756E+04  0.12700000000E+03 0.  0.
<mgrwt>
<rscale>  0 0.30207367E+03</rscale>
<asrwt>0</asrwt>
<pdfrwt beam="1">  1        2 0.27369949E+00 0.30207367E+03</pdfrwt>
<pdfrwt beam="2">  1       -2 0.17009662E-02 0.30207367E+03</pdfrwt>
<totfact> 0.95417687E+03</totfact>
</mgrwt>
</event>
<event>
 4    1  0.1361667E-004  0.3083990E+03  0.7818608E-02  0.1081116E+00
          2   -1    0    0  501    0  0.00000000000E+00  0.00000000000E+00  0.45339991613E+03  0.45339991614E+03  0.25500000000E-02 0.  1.
         -2   -1    0    0    0  501 -0.00000000000E+00 -0.00000000000E+00 -0.52442645921E+02  0.52442645983E+02  0.25500000000E-02 0. -1.
    5000001    1    1    2    0    0 -0.34704448813E+02  0.27430123526E+02  0.32422220096E+03  0.35100690312E+03  0.12700000000E+03 0.  0.
   -5000001    1    1    2    0    0  0.34704448813E+02 -0.27430123526E+02  0.76735069246E+02  0.15483565899E+03  0.12700000000E+03 0.  0.
<mgrwt>
<rscale>  0 0.30839904E+03</rscale>
<asrwt>0</asrwt>
<pdfrwt beam="1">  1        2 0.64771418E-01 0.30839904E+03</pdfrwt>
<pdfrwt beam="2">  1       -2 0.74918064E-02 0.30839904E+03</pdfrwt>
<totfact> 0.79015602E+03</totfact>
</mgrwt>
</event>
<event>
 4    1  0.1361667E-004  0.3375154E+03  0.7818608E-02  0.1067859E+00
          2   -1    0    0  501    0  0.00000000000E+00  0.00000000000E+00  0.29996676212E+02  0.29996676320E+02  0.25500000000E-02 0.  1.
         -2   -1    0    0    0  501 -0.00000000000E+00 -0.00000000000E+00 -0.94941065179E+03  0.94941065179E+03  0.25500000000E-02 0. -1.
    5000001    1    1    2    0    0 -0.15847184118E+02 -0.99785298699E+02 -0.32540827380E+03  0.36363138442E+03  0.12700000000E+03 0.  0.
   -5000001    1    1    2    0    0  0.15847184118E+02  0.99785298699E+02 -0.59400570178E+03  0.61577594369E+03  0.12700000000E+03 0.  0.
<mgrwt>
<rscale>  0 0.33751542E+03</rscale>
<asrwt>0</asrwt>
<pdfrwt beam="1">  1        2 0.42852400E-02 0.33751542E+03</pdfrwt>
<pdfrwt beam="2">  1       -2 0.13563008E+00 0.33751542E+03</pdfrwt>
<totfact> 0.79688818E+02</totfact>
</mgrwt>
</event>
<event>
 4    1  0.1361667E-004  0.1529201E+04  0.7818608E-02  0.8865263E-01
         -2   -1    0    0    0  501 -0.00000000000E+00  0.00000000000E+00  0.37437789662E+03  0.37437789663E+03  0.25500000000E-02 0. -1.
          2   -1    0    0  501    0  0.00000000000E+00 -0.00000000000E+00 -0.15615611912E+04  0.15615611912E+04  0.25500000000E-02 0.  1.
    5000001    1    1    2    0    0  0.40364566801E+03 -0.52462201554E+03 -0.10506210470E+04  0.12482354220E+04  0.12700000000E+03 0.  0.
   -5000001    1    1    2    0    0 -0.40364566801E+03  0.52462201554E+03 -0.13656224763E+03  0.68770366581E+03  0.12700000000E+03 0.  0.
<mgrwt>
<rscale>  0 0.15292011E+04</rscale>
<asrwt>0</asrwt>
<pdfrwt beam="1">  1        2 0.22308017E+00 0.15292011E+04</pdfrwt>
<pdfrwt beam="2">  1       -2 0.53482557E-01 0.15292011E+04</pdfrwt>
<totfact> 0.43133246E+01</totfact>
</mgrwt>
</event>
<event>
 4    1  0.1361667E-004  0.5230446E+03  0.7818608E-02  0.1007933E+00
         -2   -1    0    0    0  501 -0.00000000000E+00  0.00000000000E+00  0.35037452627E+02  0.35037452719E+02  0.25500000000E-02 0. -1.
          2   -1    0    0  501    0  0.00000000000E+00 -0.00000000000E+00 -0.19520226585E+04  0.19520226585E+04  0.25500000000E-02 0.  1.
    5000001    1    1    2    0    0 -0.22060982274E+02 -0.21625299254E+03 -0.12274695208E+04  0.12530213359E+04  0.12700000000E+03 0.  0.
   -5000001    1    1    2    0    0  0.22060982274E+02  0.21625299254E+03 -0.68951568514E+03  0.73403877539E+03  0.12700000000E+03 0.  0.
<mgrwt>
<rscale>  0 0.52304455E+03</rscale>
<asrwt>0</asrwt>
<pdfrwt beam="1">  1        2 0.27886031E+00 0.52304455E+03</pdfrwt>
<pdfrwt beam="2">  1       -2 0.50053516E-02 0.52304455E+03</pdfrwt>
<totfact> 0.17996068E+03</totfact>
</mgrwt>
</event>
<event>
 4    1  0.1361667E-004  0.4764111E+03  0.7818608E-02  0.1020126E+00
          2   -1    0    0  501    0  0.00000000000E+00  0.00000000000E+00  0.42228046852E+03  0.42228046852E+03  0.25500000000E-02 0.  1.
         -2   -1    0    0    0  501 -0.00000000000E+00 -0.00000000000E+00 -0.13437015867E+03  0.13437015870E+03  0.25500000000E-02 0. -1.
    5000001    1    1    2    0    0 -0.13282510771E+03  0.14782900906E+03  0.10490513677E+03  0.25812790023E+03  0.12700000000E+03 0.  0.
   -5000001    1    1    2    0    0  0.13282510771E+03 -0.14782900906E+03  0.18300517307E+03  0.29852272699E+03  0.12700000000E+03 0.  0.
<mgrwt>
<rscale>  0 0.47641114E+03</rscale>
<asrwt>0</asrwt>
<pdfrwt beam="1">  1        2 0.60325781E-01 0.47641114E+03</pdfrwt>
<pdfrwt beam="2">  1       -2 0.19195737E-01 0.47641114E+03</pdfrwt>
<totfact> 0.18549545E+03</totfact>
</mgrwt>
</event>
<event>
 4    1  0.1361667E-004  0.4688057E+03  0.7818608E-02  0.1022258E+00
         -2   -1    0    0    0  501 -0.00000000000E+00  0.00000000000E+00  0.32986972111E+02  0.32986972209E+02  0.25500000000E-02 0. -1.
          2   -1    0    0  501    0  0.00000000000E+00 -0.00000000000E+00 -0.16656486186E+04  0.16656486186E+04  0.25500000000E-02 0.  1.
    5000001    1    1    2    0    0 -0.50745391504E+02 -0.17722216813E+03 -0.56444032241E+03  0.60721056414E+03  0.12700000000E+03 0.  0.
   -5000001    1    1    2    0    0  0.50745391504E+02  0.17722216813E+03 -0.10682213241E+04  0.10914250267E+04  0.12700000000E+03 0.  0.
<mgrwt>
<rscale>  0 0.46880574E+03</rscale>
<asrwt>0</asrwt>
<pdfrwt beam="1">  1        2 0.23794975E+00 0.46880574E+03</pdfrwt>
<pdfrwt beam="2">  1       -2 0.47124257E-02 0.46880574E+03</pdfrwt>
<totfact> 0.27544507E+03</totfact>
</mgrwt>
</event>
<event>
 4    1  0.1361667E-004  0.3384502E+03  0.7818608E-02  0.1067458E+00
          2   -1    0    0  501    0  0.00000000000E+00  0.00000000000E+00  0.26917312988E+04  0.26917312988E+04  0.25500000000E-02 0.  1.
         -2   -1    0    0    0  501 -0.00000000000E+00 -0.00000000000E+00 -0.10638924842E+02  0.10638925147E+02  0.25500000000E-02 0. -1.
    5000001    1    1    2    0    0 -0.71191379518E+02  0.81959572563E+02  0.15551720616E+04  0.15641210712E+04  0.12700000000E+03 0.  0.
   -5000001    1    1    2    0    0  0.71191379518E+02 -0.81959572563E+02  0.11259203123E+04  0.11382491527E+04  0.12700000000E+03 0.  0.
<mgrwt>
<rscale>  0 0.33845016E+03</rscale>
<asrwt>0</asrwt>
<pdfrwt beam="1">  1        2 0.38453276E+00 0.33845016E+03</pdfrwt>
<pdfrwt beam="2">  1       -2 0.15198476E-02 0.33845016E+03</pdfrwt>
<totfact> 0.46346315E+03</totfact>
</mgrwt>
</event>
<event>
 4    1  0.1361667E-004  0.4282410E+03  0.7818608E-02  0.1034417E+00
          2   -1    0    0  501    0  0.00000000000E+00  0.00000000000E+00  0.40250210761E+03  0.40250210762E+03  0.25500000000E-02 0.  1.
         -2   -1    0    0    0  501 -0.00000000000E+00 -0.00000000000E+00 -0.11390646683E+03  0.11390646686E+03  0.25500000000E-02 0. -1.
    5000001    1    1    2    0    0  0.35361130429E+02 -0.35437698550E+02  0.34322229822E+03  0.36937350476E+03  0.12700000000E+03 0.  0.
   -5000001    1    1    2    0    0 -0.35361130429E+02  0.35437698550E+02 -0.54626657435E+02  0.14703506972E+03  0.12700000000E+03 0.  0.
<mgrwt>
<rscale>  0 0.42824102E+03</rscale>
<asrwt>0</asrwt>
<pdfrwt beam="1">  1        2 0.57500301E-01 0.42824102E+03</pdfrwt>
<pdfrwt beam="2">  1       -2 0.16272352E-01 0.42824102E+03</pdfrwt>
<totfact> 0.25889261E+03</totfact>
</mgrwt>
</event>
<event>
 4    1  0.1361667E-004  0.3416405E+03  0.7818608E-02  0.1066099E+00
          2   -1    0    0  501    0  0.00000000000E+00  0.00000000000E+00  0.38660130816E+03  0.38660130817E+03  0.25500000000E-02 0.  1.
         -2   -1    0    0    0  501 -0.00000000000E+00 -0.00000000000E+00 -0.75477131709E+02  0.75477131752E+02  0.25500000000E-02 0. -1.
    5000001    1    1    2    0    0  0.66367120073E+02  0.85063579406E+02  0.20635219425E+03  0.26523694170E+03  0.12700000000E+03 0.  0.
   -5000001    1    1    2    0    0 -0.66367120073E+02 -0.85063579406E+02  0.10477198220E+03  0.19684149822E+03  0.12700000000E+03 0.  0.
<mgrwt>
<rscale>  0 0.34164050E+03</rscale>
<asrwt>0</asrwt>
<pdfrwt beam="1">  1        2 0.55228758E-01 0.34164050E+03</pdfrwt>
<pdfrwt beam="2">  1       -2 0.10782448E-01 0.34164050E+03</pdfrwt>
<totfact> 0.53009137E+03</totfact>
</mgrwt>
</event>
<event>
 4    1  0.1361667E-004  0.3081394E+03  0.7818608E-02  0.1081241E+00
          2   -1    0    0  501    0  0.00000000000E+00  0.00000000000E+00  0.11270213691E+04  0.11270213691E+04  0.25500000000E-02 0.  1.
         -2   -1    0    0    0  501 -0.00000000000E+00 -0.00000000000E+00 -0.21062136582E+02  0.21062136737E+02  0.25500000000E-02 0. -1.
    5000001    1    1    2    0    0  0.83691715694E+02  0.23684878515E+02  0.52849040178E+03  0.55045107096E+03  0.12700000000E+03 0.  0.
   -5000001    1    1    2    0    0 -0.83691715694E+02 -0.23684878515E+02  0.57746883069E+03  0.59763243484E+03  0.12700000000E+03 0.  0.
<mgrwt>
<rscale>  0 0.30813944E+03</rscale>
<asrwt>0</asrwt>
<pdfrwt beam="1">  1        2 0.16100310E+00 0.30813944E+03</pdfrwt>
<pdfrwt beam="2">  1       -2 0.30088758E-02 0.30813944E+03</pdfrwt>
<totfact> 0.10392991E+04</totfact>
</mgrwt>
</event>
<event>
 4    1  0.1361667E-004  0.4042448E+03  0.7818608E-02  0.1042320E+00
          2   -1    0    0  501    0  0.00000000000E+00  0.00000000000E+00  0.73969845539E+03  0.73969845540E+03  0.25500000000E-02 0.  1.
         -2   -1    0    0    0  501 -0.00000000000E+00 -0.00000000000E+00 -0.55229880316E+02  0.55229880375E+02  0.25500000000E-02 0. -1.
    5000001    1    1    2    0    0 -0.95008767085E+02  0.77424793912E+00  0.58860810857E+03  0.60960296158E+03  0.12700000000E+03 0.  0.
   -5000001    1    1    2    0    0  0.95008767085E+02 -0.77424793912E+00  0.95860466503E+02  0.18532537420E+03  0.12700000000E+03 0.  0.
<mgrwt>
<rscale>  0 0.40424476E+03</rscale>
<asrwt>0</asrwt>
<pdfrwt beam="1">  1        2 0.10567120E+00 0.40424476E+03</pdfrwt>
<pdfrwt beam="2">  1       -2 0.78899835E-02 0.40424476E+03</pdfrwt>
<totfact> 0.41765512E+03</totfact>
</mgrwt>
</event>
<event>
 4    1  0.1361667E-004  0.8790611E+03  0.7818608E-02  0.9452141E-01
          2   -1    0    0  501    0  0.00000000000E+00  0.00000000000E+00  0.46246633894E+03  0.46246633895E+03  0.25500000000E-02 0.  1.
         -2   -1    0    0    0  501 -0.00000000000E+00 -0.00000000000E+00 -0.41773222204E+03  0.41773222205E+03  0.25500000000E-02 0. -1.
    5000001    1    1    2    0    0  0.19134333080E+03 -0.31551344592E+03  0.22485902220E+03  0.45039048021E+03  0.12700000000E+03 0.  0.
   -5000001    1    1    2    0    0 -0.19134333080E+03  0.31551344592E+03 -0.18012490530E+03  0.42980808079E+03  0.12700000000E+03 0.  0.
<mgrwt>
<rscale>  0 0.87906107E+03</rscale>
<asrwt>0</asrwt>
<pdfrwt beam="1">  1        2 0.66066620E-01 0.87906107E+03</pdfrwt>
<pdfrwt beam="2">  1       -2 0.59676032E-01 0.87906107E+03</pdfrwt>
<totfact> 0.19316091E+02</totfact>
</mgrwt>
</event>
<event>
 4    1  0.1361667E-004  0.4834686E+03  0.7818608E-02  0.1018186E+00
         -2   -1    0    0    0  501 -0.00000000000E+00  0.00000000000E+00  0.99427625504E+02  0.99427625536E+02  0.25500000000E-02 0. -1.
          2   -1    0    0  501    0  0.00000000000E+00 -0.00000000000E+00 -0.58771862550E+03  0.58771862550E+03  0.25500000000E-02 0.  1.
    5000001    1    1    2    0    0 -0.69398320753E+02 -0.17303348456E+03 -0.12065108514E+03  0.25581711836E+03  0.12700000000E+03 0.  0.
   -5000001    1    1    2    0    0  0.69398320753E+02  0.17303348456E+03 -0.36763991485E+03  0.43132913268E+03  0.12700000000E+03 0.  0.
<mgrwt>
<rscale>  0 0.48346858E+03</rscale>
<asrwt>0</asrwt>
<pdfrwt beam="1">  1        2 0.83959801E-01 0.48346858E+03</pdfrwt>
<pdfrwt beam="2">  1       -2 0.14203947E-01 0.48346858E+03</pdfrwt>
<totfact> 0.21256183E+03</totfact>
</mgrwt>
</event>
<event>
 4    1  0.1361667E-004  0.2728966E+03  0.7818608E-02  0.1099633E+00
         -2   -1    0    0    0  501 -0.00000000000E+00  0.00000000000E+00  0.24571385751E+02  0.24571385884E+02  0.25500000000E-02 0. -1.
          2   -1    0    0  501    0  0.00000000000E+00 -0.00000000000E+00 -0.75771628385E+03  0.75771628385E+03  0.25500000000E-02 0.  1.
    5000001    1    1    2    0    0 -0.42114730899E+02 -0.23505366171E+02 -0.32997557605E+03  0.35684595218E+03  0.12700000000E+03 0.  0.
   -5000001    1    1    2    0    0  0.42114730899E+02  0.23505366171E+02 -0.40316932204E+03  0.42544171755E+03  0.12700000000E+03 0.  0.
<mgrwt>
<rscale>  0 0.27289660E+03</rscale>
<asrwt>0</asrwt>
<pdfrwt beam="1">  1        2 0.10824517E+00 0.27289660E+03</pdfrwt>
<pdfrwt beam="2">  1       -2 0.35101985E-02 0.27289660E+03</pdfrwt>
<totfact> 0.13885427E+04</totfact>
</mgrwt>
</event>
<event>
 4    1  0.1361667E-004  0.3451469E+03  0.7818608E-02  0.1064625E+00
          2   -1    0    0  501    0  0.00000000000E+00  0.00000000000E+00  0.19786961044E+03  0.19786961046E+03  0.25500000000E-02 0.  1.
         -2   -1    0    0    0  501 -0.00000000000E+00 -0.00000000000E+00 -0.15051120487E+03  0.15051120489E+03  0.25500000000E-02 0. -1.
    5000001    1    1    2    0    0  0.74808140718E+02  0.33163142081E+02 -0.60508171075E+02  0.16274609266E+03  0.12700000000E+03 0.  0.
   -5000001    1    1    2    0    0 -0.74808140718E+02 -0.33163142081E+02  0.10786657664E+03  0.18563472269E+03  0.12700000000E+03 0.  0.
<mgrwt>
<rscale>  0 0.34514689E+03</rscale>
<asrwt>0</asrwt>
<pdfrwt beam="1">  1        2 0.28267087E-01 0.34514689E+03</pdfrwt>
<pdfrwt beam="2">  1       -2 0.21501601E-01 0.34514689E+03</pdfrwt>
<totfact> 0.34863600E+03</totfact>
</mgrwt>
</event>
<event>
 4    1  0.1361667E-004  0.5709178E+03  0.7818608E-02  0.9967650E-01
         -2   -1    0    0    0  501 -0.00000000000E+00  0.00000000000E+00  0.29962626274E+03  0.29962626275E+03  0.25500000000E-02 0. -1.
          2   -1    0    0  501    0  0.00000000000E+00 -0.00000000000E+00 -0.27196145765E+03  0.27196145766E+03  0.25500000000E-02 0.  1.
    5000001    1    1    2    0    0  0.82981796448E+02  0.15263791998E+03  0.20159840381E+03  0.29488172134E+03  0.12700000000E+03 0.  0.
   -5000001    1    1    2    0    0 -0.82981796448E+02 -0.15263791998E+03 -0.17393359872E+03  0.27670599907E+03  0.12700000000E+03 0.  0.
<mgrwt>
<rscale>  0 0.57091784E+03</rscale>
<asrwt>0</asrwt>
<pdfrwt beam="1">  1        2 0.38851637E-01 0.57091784E+03</pdfrwt>
<pdfrwt beam="2">  1       -2 0.42803752E-01 0.57091784E+03</pdfrwt>
<totfact> 0.69240268E+02</totfact>
</mgrwt>
</event>
<event>
 4    1  0.1361667E-004  0.3395151E+03  0.7818608E-02  0.1067003E+00
          2   -1    0    0  501    0  0.00000000000E+00  0.00000000000E+00  0.16977754474E+03  0.16977754476E+03  0.25500000000E-02 0.  1.
         -2   -1    0    0    0  501 -0.00000000000E+00 -0.00000000000E+00 -0.16973759609E+03  0.16973759611E+03  0.25500000000E-02 0. -1.
    5000001    1    1    2    0    0 -0.74537281016E+02 -0.72418655495E+02  0.43475289550E+02  0.16976268355E+03  0.12700000000E+03 0.  0.
   -5000001    1    1    2    0    0  0.74537281016E+02  0.72418655495E+02 -0.43435340898E+02  0.16975245731E+03  0.12700000000E+03 0.  0.
<mgrwt>
<rscale>  0 0.33951514E+03</rscale>
<asrwt>0</asrwt>
<pdfrwt beam="1">  1        2 0.24253935E-01 0.33951514E+03</pdfrwt>
<pdfrwt beam="2">  1       -2 0.24248228E-01 0.33951514E+03</pdfrwt>
<totfact> 0.33518386E+03</totfact>
</mgrwt>
</event>
<event>
 4    1  0.1361667E-004  0.7495099E+03  0.7818608E-02  0.9636119E-01
         -2   -1    0    0    0  501 -0.00000000000E+00  0.00000000000E+00  0.61815582035E+03  0.61815582036E+03  0.25500000000E-02 0. -1.
          2   -1    0    0  501    0  0.00000000000E+00 -0.00000000000E+00 -0.22719399323E+03  0.22719399324E+03  0.25500000000E-02 0.  1.
    5000001    1    1    2    0    0  0.86542510210E+02  0.30489658238E+03  0.36970218265E+03  0.50324967548E+03  0.12700000000E+03 0.  0.
   -5000001    1    1    2    0    0 -0.86542510210E+02 -0.30489658238E+03  0.21259644474E+02  0.34210013812E+03  0.12700000000E+03 0.  0.
<mgrwt>
<rscale>  0 0.74950994E+03</rscale>
<asrwt>0</asrwt>
<pdfrwt beam="1">  1        2 0.32456285E-01 0.74950994E+03</pdfrwt>
<pdfrwt beam="2">  1       -2 0.88307974E-01 0.74950994E+03</pdfrwt>
<totfact> 0.18132145E+02</totfact>
</mgrwt>
</event>
<event>
 4    1  0.1361667E-004  0.4249844E+03  0.7818608E-02  0.1035456E+00
          2   -1    0    0  501    0  0.00000000000E+00  0.00000000000E+00  0.52531938822E+03  0.52531938823E+03  0.25500000000E-02 0.  1.
         -2   -1    0    0    0  501 -0.00000000000E+00 -0.00000000000E+00 -0.85953297169E+02  0.85953297207E+02  0.25500000000E-02 0. -1.
    5000001    1    1    2    0    0  0.14755636320E+03  0.84684728129E+02  0.20685436182E+03  0.29641543567E+03  0.12700000000E+03 0.  0.
   -5000001    1    1    2    0    0 -0.14755636320E+03 -0.84684728129E+02  0.23251172924E+03  0.31485724977E+03  0.12700000000E+03 0.  0.
<mgrwt>
<rscale>  0 0.42498439E+03</rscale>
<asrwt>0</asrwt>
<pdfrwt beam="1">  1        2 0.75045629E-01 0.42498439E+03</pdfrwt>
<pdfrwt beam="2">  1       -2 0.12279042E-01 0.42498439E+03</pdfrwt>
<totfact> 0.30710224E+03</totfact>
</mgrwt>
</event>
<event>
 4    1  0.1361667E-004  0.6523880E+03  0.7818608E-02  0.9802309E-01
         -2   -1    0    0    0  501 -0.00000000000E+00  0.00000000000E+00  0.60113971610E+02  0.60113971664E+02  0.25500000000E-02 0. -1.
          2   -1    0    0  501    0  0.00000000000E+00 -0.00000000000E+00 -0.17700131961E+04  0.17700131961E+04  0.25500000000E-02 0.  1.
    5000001    1    1    2    0    0 -0.23530708556E+03 -0.17252306756E+03 -0.65383102514E+03  0.72715723389E+03  0.12700000000E+03 0.  0.
   -5000001    1    1    2    0    0  0.23530708556E+03  0.17252306756E+03 -0.10560681993E+04  0.11029699338E+04  0.12700000000E+03 0.  0.
<mgrwt>
<rscale>  0 0.65238799E+03</rscale>
<asrwt>0</asrwt>
<pdfrwt beam="1">  1        2 0.25285900E+00 0.65238799E+03</pdfrwt>
<pdfrwt beam="2">  1       -2 0.85877113E-02 0.65238799E+03</pdfrwt>
<totfact> 0.94436271E+02</totfact>
</mgrwt>
</event>
<event>
 4    1  0.1361667E-004  0.3277404E+03  0.7818608E-02  0.1072141E+00
         -2   -1    0    0    0  501 -0.00000000000E+00  0.00000000000E+00  0.11224808930E+03  0.11224808933E+03  0.25500000000E-02 0. -1.
          2   -1    0    0  501    0  0.00000000000E+00 -0.00000000000E+00 -0.23923291574E+03  0.23923291575E+03  0.25500000000E-02 0.  1.
    5000001    1    1    2    0    0  0.46913212986E+02  0.74157206701E+02 -0.45152164374E+01  0.15443292407E+03  0.12700000000E+03 0.  0.
   -5000001    1    1    2    0    0 -0.46913212986E+02 -0.74157206701E+02 -0.12246961000E+03  0.19704808101E+03  0.12700000000E+03 0.  0.
<mgrwt>
<rscale>  0 0.32774037E+03</rscale>
<asrwt>0</asrwt>
<pdfrwt beam="1">  1        2 0.34176131E-01 0.32774037E+03</pdfrwt>
<pdfrwt beam="2">  1       -2 0.16035441E-01 0.32774037E+03</pdfrwt>
<totfact> 0.46541811E+03</totfact>
</mgrwt>
</event>
<event>
 4    1  0.1361667E-004  0.4263650E+03  0.7818608E-02  0.1035014E+00
         -2   -1    0    0    0  501 -0.00000000000E+00  0.00000000000E+00  0.80143551694E+02  0.80143551735E+02  0.25500000000E-02 0. -1.
          2   -1    0    0  501    0  0.00000000000E+00 -0.00000000000E+00 -0.56706721382E+03  0.56706721383E+03  0.25500000000E-02 0.  1.
    5000001    1    1    2    0    0 -0.16561282289E+03 -0.40572258096E+02 -0.26717650927E+03  0.34144692463E+03  0.12700000000E+03 0.  0.
   -5000001    1    1    2    0    0  0.16561282289E+03  0.40572258096E+02 -0.21974715286E+03  0.30576384093E+03  0.12700000000E+03 0.  0.
<mgrwt>
<rscale>  0 0.42636501E+03</rscale>
<asrwt>0</asrwt>
<pdfrwt beam="1">  1        2 0.81009600E-01 0.42636501E+03</pdfrwt>
<pdfrwt beam="2">  1       -2 0.11449079E-01 0.42636501E+03</pdfrwt>
<totfact> 0.31549032E+03</totfact>
</mgrwt>
</event>
<event>
 4    1  0.1361667E-004  0.6277049E+03  0.7818608E-02  0.9849538E-01
         -2   -1    0    0    0  501 -0.00000000000E+00  0.00000000000E+00  0.13808669513E+03  0.13808669515E+03  0.25500000000E-02 0. -1.
          2   -1    0    0  501    0  0.00000000000E+00 -0.00000000000E+00 -0.71334435314E+03  0.71334435314E+03  0.25500000000E-02 0.  1.
    5000001    1    1    2    0    0  0.19650784140E+03  0.20344833573E+03 -0.22162530513E+03  0.38112115254E+03  0.12700000000E+03 0.  0.
   -5000001    1    1    2    0    0 -0.19650784140E+03 -0.20344833573E+03 -0.35363235288E+03  0.47030989576E+03  0.12700000000E+03 0.  0.
<mgrwt>
<rscale>  0 0.62770491E+03</rscale>
<asrwt>0</asrwt>
<pdfrwt beam="1">  1        2 0.10190633E+00 0.62770491E+03</pdfrwt>
<pdfrwt beam="2">  1       -2 0.19726671E-01 0.62770491E+03</pdfrwt>
<totfact> 0.96355535E+02</totfact>
</mgrwt>
</event>
<event>
 4    1  0.1361667E-004  0.5843902E+03  0.7818608E-02  0.9938331E-01
          2   -1    0    0  501    0  0.00000000000E+00  0.00000000000E+00  0.22861956949E+04  0.22861956949E+04  0.25500000000E-02 0.  1.
         -2   -1    0    0    0  501 -0.00000000000E+00 -0.00000000000E+00 -0.37345002861E+02  0.37345002948E+02  0.25500000000E-02 0. -1.
    5000001    1    1    2    0    0 -0.21855805634E+03  0.10160816320E+03  0.70444997809E+03  0.75529505126E+03  0.12700000000E+03 0.  0.
   -5000001    1    1    2    0    0  0.21855805634E+03 -0.10160816320E+03  0.15444007140E+04  0.15682456466E+04  0.12700000000E+03 0.  0.
<mgrwt>
<rscale>  0 0.58439023E+03</rscale>
<asrwt>0</asrwt>
<pdfrwt beam="1">  1        2 0.32659939E+00 0.58439023E+03</pdfrwt>
<pdfrwt beam="2">  1       -2 0.53350004E-02 0.58439023E+03</pdfrwt>
<totfact> 0.11043606E+03</totfact>
</mgrwt>
</event>
<event>
 4    1  0.1361667E-004  0.3256456E+03  0.7818608E-02  0.1073080E+00
          2   -1    0    0  501    0  0.00000000000E+00  0.00000000000E+00  0.12594849774E+04  0.12594849774E+04  0.25500000000E-02 0.  1.
         -2   -1    0    0    0  501 -0.00000000000E+00 -0.00000000000E+00 -0.21049288799E+02  0.21049288953E+02  0.25500000000E-02 0. -1.
    5000001    1    1    2    0    0  0.10051455438E+03  0.80828433609E-01  0.55352605408E+03  0.57673501257E+03  0.12700000000E+03 0.  0.
   -5000001    1    1    2    0    0 -0.10051455438E+03 -0.80828433609E-01  0.68490963453E+03  0.70379925380E+03  0.12700000000E+03 0.  0.
<mgrwt>
<rscale>  0 0.32564559E+03</rscale>
<asrwt>0</asrwt>
<pdfrwt beam="1">  1        2 0.17992652E+00 0.32564559E+03</pdfrwt>
<pdfrwt beam="2">  1       -2 0.30070397E-02 0.32564559E+03</pdfrwt>
<totfact> 0.88143247E+03</totfact>
</mgrwt>
</event>
<event>
 4    1  0.1361667E-004  0.3266853E+03  0.7818608E-02  0.1072613E+00
          2   -1    0    0  501    0  0.00000000000E+00  0.00000000000E+00  0.10840576271E+04  0.10840576271E+04  0.25500000000E-02 0.  1.
         -2   -1    0    0    0  501 -0.00000000000E+00 -0.00000000000E+00 -0.24612000145E+02  0.24612000277E+02  0.25500000000E-02 0. -1.
    5000001    1    1    2    0    0 -0.67436052870E-01 -0.92083204128E+02  0.68421992435E+03  0.70197238259E+03  0.12700000000E+03 0.  0.
   -5000001    1    1    2    0    0  0.67436052870E-01  0.92083204128E+02  0.37522570259E+03  0.40669724479E+03  0.12700000000E+03 0.  0.
<mgrwt>
<rscale>  0 0.32668533E+03</rscale>
<asrwt>0</asrwt>
<pdfrwt beam="1">  1        2 0.15486545E+00 0.32668533E+03</pdfrwt>
<pdfrwt beam="2">  1       -2 0.35159983E-02 0.32668533E+03</pdfrwt>
<totfact> 0.87161804E+03</totfact>
</mgrwt>
</event>
<event>
 4    1  0.1361667E-004  0.4729966E+03  0.7818608E-02  0.1021078E+00
          2   -1    0    0  501    0  0.00000000000E+00  0.00000000000E+00  0.19210001016E+02  0.19210001185E+02  0.25500000000E-02 0.  1.
         -2   -1    0    0    0  501 -0.00000000000E+00 -0.00000000000E+00 -0.29115798060E+04  0.29115798060E+04  0.25500000000E-02 0. -1.
    5000001    1    1    2    0    0 -0.74941599455E+02  0.15700558820E+03 -0.84112649123E+03  0.86826826056E+03  0.12700000000E+03 0.  0.
   -5000001    1    1    2    0    0  0.74941599455E+02 -0.15700558820E+03 -0.20512433138E+04  0.20625215467E+04  0.12700000000E+03 0.  0.
<mgrwt>
<rscale>  0 0.47299662E+03</rscale>
<asrwt>0</asrwt>
<pdfrwt beam="1">  1        2 0.27442877E-02 0.47299662E+03</pdfrwt>
<pdfrwt beam="2">  1       -2 0.41593969E+00 0.47299662E+03</pdfrwt>
<totfact> 0.24377758E+01</totfact>
</mgrwt>
</event>
<event>
 4    1  0.1361667E-004  0.2835136E+03  0.7818608E-02  0.1093785E+00
         -2   -1    0    0    0  501 -0.00000000000E+00  0.00000000000E+00  0.17552584808E+02  0.17552584993E+02  0.25500000000E-02 0.  1.
          2   -1    0    0  501    0  0.00000000000E+00 -0.00000000000E+00 -0.11448454666E+04  0.11448454666E+04  0.25500000000E-02 0. -1.
    5000001    1    1    2    0    0 -0.62391299297E+02 -0.60421103779E+00 -0.52862635321E+03  0.54723656732E+03  0.12700000000E+03 0.  0.
   -5000001    1    1    2    0    0  0.62391299297E+02  0.60421103779E+00 -0.59866652861E+03  0.61516148431E+03  0.12700000000E+03 0.  0.
<mgrwt>
<rscale>  0 0.28351365E+03</rscale>
<asrwt>0</asrwt>
<pdfrwt beam="1">  1        2 0.16354930E+00 0.28351365E+03</pdfrwt>
<pdfrwt beam="2">  1       -2 0.25075129E-02 0.28351365E+03</pdfrwt>
<totfact> 0.13287701E+04</totfact>
</mgrwt>
</event>
<event>
 4    1  0.1361667E-004  0.3755754E+03  0.7818608E-02  0.1052581E+00
         -2   -1    0    0    0  501 -0.00000000000E+00  0.00000000000E+00  0.29117816611E+02  0.29117816722E+02  0.25500000000E-02 0. -1.
          2   -1    0    0  501    0  0.00000000000E+00 -0.00000000000E+00 -0.12110876579E+04  0.12110876579E+04  0.25500000000E-02 0.  1.
    5000001    1    1    2    0    0 -0.88841433317E+02 -0.67948245064E+02 -0.85976966075E+03  0.87626630304E+03  0.12700000000E+03 0.  0.
   -5000001    1    1    2    0    0  0.88841433317E+02  0.67948245064E+02 -0.32220018054E+03  0.36393917159E+03  0.12700000000E+03 0.  0.
<mgrwt>
<rscale>  0 0.37557544E+03</rscale>
<asrwt>0</asrwt>
<pdfrwt beam="1">  1        2 0.17301249E+00 0.37557544E+03</pdfrwt>
<pdfrwt beam="2">  1       -2 0.41596889E-02 0.37557544E+03</pdfrwt>
<totfact> 0.57549868E+03</totfact>
</mgrwt>
</event>
<event>
 4    1  0.1361667E-004  0.4838637E+03  0.7818608E-02  0.1018079E+00
          2   -1    0    0  501    0  0.00000000000E+00  0.00000000000E+00  0.59834685560E+03  0.59834685560E+03  0.25500000000E-02 0. -1.
         -2   -1    0    0    0  501 -0.00000000000E+00 -0.00000000000E+00 -0.97821229840E+02  0.97821229873E+02  0.25500000000E-02 0.  1.
    5000001    1    1    2    0    0 -0.47054161042E+02  0.19998700871E+03  0.23026819124E+03  0.33370846202E+03  0.12700000000E+03 0.  0.
   -5000001    1    1    2    0    0  0.47054161042E+02 -0.19998700871E+03  0.27025743452E+03  0.36245962346E+03  0.12700000000E+03 0.  0.
<mgrwt>
<rscale>  0 0.48386372E+03</rscale>
<asrwt>0</asrwt>
<pdfrwt beam="1">  1        2 0.85478120E-01 0.48386372E+03</pdfrwt>
<pdfrwt beam="2">  1       -2 0.13974462E-01 0.48386372E+03</pdfrwt>
<totfact> 0.21389294E+03</totfact>
</mgrwt>
</event>
<event>
 4    1  0.1361667E-004  0.3329471E+03  0.7818608E-02  0.1069840E+00
          2   -1    0    0  501    0  0.00000000000E+00  0.00000000000E+00  0.85305657067E+02  0.85305657105E+02  0.25500000000E-02 0.  1.
         -2   -1    0    0    0  501 -0.00000000000E+00 -0.00000000000E+00 -0.32487223980E+03  0.32487223981E+03  0.25500000000E-02 0. -1.
    5000001    1    1    2    0    0  0.94090751485E+02 -0.47015601922E+00 -0.55400505663E+02  0.16748583997E+03  0.12700000000E+03 0.  0.
   -5000001    1    1    2    0    0 -0.94090751485E+02  0.47015601922E+00 -0.18416607707E+03  0.24269205694E+03  0.12700000000E+03 0.  0.
<mgrwt>
<rscale>  0 0.33294708E+03</rscale>
<asrwt>0</asrwt>
<pdfrwt beam="1">  1        2 0.12186523E-01 0.33294708E+03</pdfrwt>
<pdfrwt beam="2">  1       -2 0.46410319E-01 0.33294708E+03</pdfrwt>
<totfact> 0.22433289E+03</totfact>
</mgrwt>
</event>
<event>
 4    1  0.1361667E-004  0.4388521E+03  0.7818608E-02  0.1031100E+00
          2   -1    0    0  501    0  0.00000000000E+00  0.00000000000E+00  0.10105836488E+04  0.10105836488E+04  0.25500000000E-02 0.  1.
         -2   -1    0    0    0  501 -0.00000000000E+00 -0.00000000000E+00 -0.47643547225E+02  0.47643547293E+02  0.25500000000E-02 0. -1.
    5000001    1    1    2    0    0 -0.15302939096E+03  0.32859817262E+02  0.69059186618E+03  0.71940523192E+03  0.12700000000E+03 0.  0.
   -5000001    1    1    2    0    0  0.15302939096E+03 -0.32859817262E+02  0.27234823544E+03  0.33882196422E+03  0.12700000000E+03 0.  0.
<mgrwt>
<rscale>  0 0.43885209E+03</rscale>
<asrwt>0</asrwt>
<pdfrwt beam="1">  1        2 0.14436908E+00 0.43885209E+03</pdfrwt>
<pdfrwt beam="2">  1       -2 0.68062216E-02 0.43885209E+03</pdfrwt>
<totfact> 0.35123648E+03</totfact>
</mgrwt>
</event>
<event>
 4    1  0.1361667E-004  0.5377932E+03  0.7818608E-02  0.1004359E+00
          2   -1    0    0  501    0  0.00000000000E+00  0.00000000000E+00  0.34587292711E+04  0.34587292711E+04  0.25500000000E-02 0.  1.
         -2   -1    0    0    0  501 -0.00000000000E+00 -0.00000000000E+00 -0.20905185880E+02  0.20905186036E+02  0.25500000000E-02 0. -1.
    5000001    1    1    2    0    0  0.14895847109E+03  0.18432520683E+03  0.17412980418E+04  0.17619342435E+04  0.12700000000E+03 0.  0.
   -5000001    1    1    2    0    0 -0.14895847109E+03 -0.18432520683E+03  0.16965260434E+04  0.17177002136E+04  0.12700000000E+03 0.  0.
<mgrwt>
<rscale>  0 0.53779319E+03</rscale>
<asrwt>0</asrwt>
<pdfrwt beam="1">  1        2 0.49410420E+00 0.53779319E+03</pdfrwt>
<pdfrwt beam="2">  1       -2 0.29864550E-02 0.53779319E+03</pdfrwt>
<totfact> 0.63289699E+02</totfact>
</mgrwt>
</event>
<event>
 4    1  0.1361667E-004  0.3176666E+03  0.7818608E-02  0.1076728E+00
          2   -1    0    0  501    0  0.00000000000E+00  0.00000000000E+00  0.47803306290E+03  0.47803306290E+03  0.25500000000E-02 0.  1.
         -2   -1    0    0    0  501 -0.00000000000E+00 -0.00000000000E+00 -0.52774622378E+02  0.52774622440E+02  0.25500000000E-02 0. -1.
    5000001    1    1    2    0    0  0.10047805332E+02  0.68700001514E+02  0.10333312959E+03  0.17784089594E+03  0.12700000000E+03 0.  0.
   -5000001    1    1    2    0    0 -0.10047805332E+02 -0.68700001514E+02  0.32192531093E+03  0.35296678940E+03  0.12700000000E+03 0.  0.
<mgrwt>
<rscale>  0 0.31766658E+03</rscale>
<asrwt>0</asrwt>
<pdfrwt beam="1">  1        2 0.68290438E-01 0.31766658E+03</pdfrwt>
<pdfrwt beam="2">  1       -2 0.75392317E-02 0.31766658E+03</pdfrwt>
<totfact> 0.73886743E+03</totfact>
</mgrwt>
</event>
<event>
 4    1  0.1361667E-004  0.3203889E+03  0.7818608E-02  0.1075470E+00
         -2   -1    0    0    0  501 -0.00000000000E+00  0.00000000000E+00  0.15280868951E+03  0.15280868953E+03  0.25500000000E-02 0. -1.
          2   -1    0    0  501    0  0.00000000000E+00 -0.00000000000E+00 -0.16793717017E+03  0.16793717019E+03  0.25500000000E-02 0.  1.
    5000001    1    1    2    0    0  0.48886836024E+02 -0.83454703468E+02  0.58166025349E+01  0.15974180146E+03  0.12700000000E+03 0.  0.
   -5000001    1    1    2    0    0 -0.48886836024E+02  0.83454703468E+02 -0.20945083192E+02  0.16100405826E+03  0.12700000000E+03 0.  0.
<mgrwt>
<rscale>  0 0.32038888E+03</rscale>
<asrwt>0</asrwt>
<pdfrwt beam="1">  1        2 0.23991024E-01 0.32038888E+03</pdfrwt>
<pdfrwt beam="2">  1       -2 0.21829813E-01 0.32038888E+03</pdfrwt>
<totfact> 0.40722401E+03</totfact>
</mgrwt>
</event>
<event>
 4    1  0.1361667E-004  0.3865383E+03  0.7818608E-02  0.1048543E+00
         -2   -1    0    0    0  501 -0.00000000000E+00  0.00000000000E+00  0.16670230810E+02  0.16670231005E+02  0.25500000000E-02 0. -1.
          2   -1    0    0  501    0  0.00000000000E+00 -0.00000000000E+00 -0.22406981129E+04  0.22406981129E+04  0.25500000000E-02 0.  1.
    5000001    1    1    2    0    0  0.13848489340E+03  0.30424656423E+02 -0.91655143642E+03  0.93610857331E+03  0.12700000000E+03 0.  0.
   -5000001    1    1    2    0    0 -0.13848489340E+03 -0.30424656423E+02 -0.13074764457E+04  0.13212597706E+04  0.12700000000E+03 0.  0.
<mgrwt>
<rscale>  0 0.38653825E+03</rscale>
<asrwt>0</asrwt>
<pdfrwt beam="1">  1        2 0.32009954E+00 0.38653825E+03</pdfrwt>
<pdfrwt beam="2">  1       -2 0.23814630E-02 0.38653825E+03</pdfrwt>
<totfact> 0.40119791E+03</totfact>
</mgrwt>
</event>
<event>
 4    1  0.1361667E-004  0.5089364E+03  0.7818608E-02  0.1011472E+00
         -2   -1    0    0    0  501 -0.00000000000E+00  0.00000000000E+00  0.34071272343E+03  0.34071272344E+03  0.25500000000E-02 0. -1.
          2   -1    0    0  501    0  0.00000000000E+00 -0.00000000000E+00 -0.19005474189E+03  0.19005474190E+03  0.25500000000E-02 0.  1.
    5000001    1    1    2    0    0  0.18522357625E+03 -0.37235244125E+02 -0.43262629811E+02  0.23172158239E+03  0.12700000000E+03 0.  0.
   -5000001    1    1    2    0    0 -0.18522357625E+03  0.37235244125E+02  0.19392061135E+03  0.29904588296E+03  0.12700000000E+03 0.  0.
<mgrwt>
<rscale>  0 0.50893642E+03</rscale>
<asrwt>0</asrwt>
<pdfrwt beam="1">  1        2 0.27150677E-01 0.50893642E+03</pdfrwt>
<pdfrwt beam="2">  1       -2 0.48673246E-01 0.50893642E+03</pdfrwt>
<totfact> 0.80033442E+02</totfact>
</mgrwt>
</event>
<event>
 4    1  0.1361667E-004  0.7775010E+03  0.7818608E-02  0.9593167E-01
          2   -1    0    0  501    0  0.00000000000E+00  0.00000000000E+00  0.77754731706E+03  0.77754731706E+03  0.25500000000E-02 0.  1.
         -2   -1    0    0    0  501 -0.00000000000E+00 -0.00000000000E+00 -0.19436366698E+03  0.19436366700E+03  0.25500000000E-02 0. -1.
    5000001    1    1    2    0    0 -0.30119112429E+03  0.19969957048E+03  0.20865500085E+03  0.43619023508E+03  0.12700000000E+03 0.  0.
   -5000001    1    1    2    0    0  0.30119112429E+03 -0.19969957048E+03  0.37452864922E+03  0.53572074898E+03  0.12700000000E+03 0.  0.
<mgrwt>
<rscale>  0 0.77750099E+03</rscale>
<asrwt>0</asrwt>
<pdfrwt beam="1">  1        2 0.11107818E+00 0.77750099E+03</pdfrwt>
<pdfrwt beam="2">  1       -2 0.27766239E-01 0.77750099E+03</pdfrwt>
<totfact> 0.46797938E+02</totfact>
</mgrwt>
</event>
<event>
 4    1  0.1361667E-004  0.3561512E+03  0.7818608E-02  0.1060118E+00
         -2   -1    0    0    0  501 -0.00000000000E+00  0.00000000000E+00  0.12515406629E+03  0.12515406632E+03  0.25500000000E-02 0. -1.
          2   -1    0    0  501    0  0.00000000000E+00 -0.00000000000E+00 -0.25337509798E+03  0.25337509799E+03  0.25500000000E-02 0.  1.
    5000001    1    1    2    0    0  0.22792794133E+01  0.98511038069E+02 -0.14555640543E+03  0.21685314592E+03  0.12700000000E+03 0.  0.
   -5000001    1    1    2    0    0 -0.22792794133E+01 -0.98511038069E+02  0.17335373743E+02  0.16167601838E+03  0.12700000000E+03 0.  0.
<mgrwt>
<rscale>  0 0.35615123E+03</rscale>
<asrwt>0</asrwt>
<pdfrwt beam="1">  1        2 0.36196443E-01 0.35615123E+03</pdfrwt>
<pdfrwt beam="2">  1       -2 0.17879152E-01 0.35615123E+03</pdfrwt>
<totfact> 0.36468058E+03</totfact>
</mgrwt>
</event>
<event>
 4    1  0.1361667E-004  0.4628383E+03  0.7818608E-02  0.1023961E+00
         -2   -1    0    0    0  501 -0.00000000000E+00  0.00000000000E+00  0.10154713909E+03  0.10154713912E+03  0.25500000000E-02 0. -1.
          2   -1    0    0  501    0  0.00000000000E+00 -0.00000000000E+00 -0.52738873954E+03  0.52738873955E+03  0.25500000000E-02 0.  1.
    5000001    1    1    2    0    0 -0.99560730132E+02  0.10205980948E+03 -0.35239985032E+02  0.19416333393E+03  0.12700000000E+03 0.  0.
   -5000001    1    1    2    0    0  0.99560730132E+02 -0.10205980948E+03 -0.39060161542E+03  0.43477254474E+03  0.12700000000E+03 0.  0.
<mgrwt>
<rscale>  0 0.46283828E+03</rscale>
<asrwt>0</asrwt>
<pdfrwt beam="1">  1        2 0.75341247E-01 0.46283828E+03</pdfrwt>
<pdfrwt beam="2">  1       -2 0.14506734E-01 0.46283828E+03</pdfrwt>
<totfact> 0.23235504E+03</totfact>
</mgrwt>
</event>
<event>
 4    1  0.1361667E-004  0.5589819E+03  0.7818608E-02  0.9994361E-01
          2   -1    0    0  501    0  0.00000000000E+00  0.00000000000E+00  0.12575246977E+04  0.12575246977E+04  0.25500000000E-02 0.  1.
         -2   -1    0    0    0  501 -0.00000000000E+00 -0.00000000000E+00 -0.62118220116E+02  0.62118220169E+02  0.25500000000E-02 0. -1.
    5000001    1    1    2    0    0  0.17897653843E+03 -0.16165092149E+03  0.74366417463E+03  0.79204105093E+03  0.12700000000E+03 0.  0.
   -5000001    1    1    2    0    0 -0.17897653843E+03  0.16165092149E+03  0.45174230298E+03  0.52760186697E+03  0.12700000000E+03 0.  0.
<mgrwt>
<rscale>  0 0.55898192E+03</rscale>
<asrwt>0</asrwt>
<pdfrwt beam="1">  1        2 0.17964640E+00 0.55898192E+03</pdfrwt>
<pdfrwt beam="2">  1       -2 0.88740309E-02 0.55898192E+03</pdfrwt>
<totfact> 0.16664037E+03</totfact>
</mgrwt>
</event>
<event>
 4    1  0.1361667E-004  0.4574492E+03  0.7818608E-02  0.1025524E+00
         -2   -1    0    0    0  501 -0.00000000000E+00  0.00000000000E+00  0.28602871045E+03  0.28602871046E+03  0.25500000000E-02 0. -1.
          2   -1    0    0  501    0  0.00000000000E+00 -0.00000000000E+00 -0.18290100607E+03  0.18290100609E+03  0.25500000000E-02 0.  1.
    5000001    1    1    2    0    0 -0.44336176412E+01  0.77093638378E+02 -0.12664637622E+03  0.19527260600E+03  0.12700000000E+03 0.  0.
   -5000001    1    1    2    0    0  0.44336176412E+01 -0.77093638378E+02  0.22977408059E+03  0.27365711055E+03  0.12700000000E+03 0.  0.
<mgrwt>
<rscale>  0 0.45744918E+03</rscale>
<asrwt>0</asrwt>
<pdfrwt beam="1">  1        2 0.26128715E-01 0.45744918E+03</pdfrwt>
<pdfrwt beam="2">  1       -2 0.40861244E-01 0.45744918E+03</pdfrwt>
<totfact> 0.11801245E+03</totfact>
</mgrwt>
</event>
<event>
 4    1  0.1361667E-004  0.3807633E+03  0.7818608E-02  0.1050652E+00
          2   -1    0    0  501    0  0.00000000000E+00  0.00000000000E+00  0.79024217952E+03  0.79024217952E+03  0.25500000000E-02 0.  1.
         -2   -1    0    0    0  501 -0.00000000000E+00 -0.00000000000E+00 -0.45865906011E+02  0.45865906082E+02  0.25500000000E-02 0. -1.
    5000001    1    1    2    0    0 -0.52891774755E+02 -0.51107090319E+02  0.63848431786E+03  0.65513410740E+03  0.12700000000E+03 0.  0.
   -5000001    1    1    2    0    0  0.52891774755E+02  0.51107090319E+02  0.10589195564E+03  0.18097397820E+03  0.12700000000E+03 0.  0.
<mgrwt>
<rscale>  0 0.38076330E+03</rscale>
<asrwt>0</asrwt>
<pdfrwt beam="1">  1        2 0.11289174E+00 0.38076330E+03</pdfrwt>
<pdfrwt beam="2">  1       -2 0.65522724E-02 0.38076330E+03</pdfrwt>
<totfact> 0.51429917E+03</totfact>
</mgrwt>
</event>
<event>
 4    1  0.1361667E-004  0.4162468E+03  0.7818608E-02  0.1038295E+00
          2   -1    0    0  501    0  0.00000000000E+00  0.00000000000E+00  0.87841214478E+03  0.87841214478E+03  0.25500000000E-02 0.  1.
         -2   -1    0    0    0  501 -0.00000000000E+00 -0.00000000000E+00 -0.49310952716E+02  0.49310952781E+02  0.25500000000E-02 0. -1.
    5000001    1    1    2    0    0 -0.41215560129E+01  0.15453222489E+03  0.28672761091E+03  0.34962682765E+03  0.12700000000E+03 0.  0.
   -5000001    1    1    2    0    0  0.41215560129E+01 -0.15453222489E+03  0.54237358116E+03  0.57809626992E+03  0.12700000000E+03 0.  0.
<mgrwt>
<rscale>  0 0.41624675E+03</rscale>
<asrwt>0</asrwt>
<pdfrwt beam="1">  1        2 0.12548745E+00 0.41624675E+03</pdfrwt>
<pdfrwt beam="2">  1       -2 0.70444219E-02 0.41624675E+03</pdfrwt>
<totfact> 0.40183099E+03</totfact>
</mgrwt>
</event>
<event>
 4    1  0.1361667E-004  0.4662461E+03  0.7818608E-02  0.1022985E+00
         -2   -1    0    0    0  501 -0.00000000000E+00  0.00000000000E+00  0.38950427445E+02  0.38950427528E+02  0.25500000000E-02 0. -1.
          2   -1    0    0  501    0  0.00000000000E+00 -0.00000000000E+00 -0.13952696504E+04  0.13952696504E+04  0.25500000000E-02 0.  1.
    5000001    1    1    2    0    0 -0.15842103864E+03  0.56812551910E+02 -0.98411120365E+03  0.10064436162E+04  0.12700000000E+03 0.  0.
   -5000001    1    1    2    0    0  0.15842103864E+03 -0.56812551910E+02 -0.37220801933E+03  0.42777646170E+03  0.12700000000E+03 0.  0.
<mgrwt>
<rscale>  0 0.46624607E+03</rscale>
<asrwt>0</asrwt>
<pdfrwt beam="1">  1        2 0.19932420E+00 0.46624607E+03</pdfrwt>
<pdfrwt beam="2">  1       -2 0.55643476E-02 0.46624607E+03</pdfrwt>
<totfact> 0.29360304E+03</totfact>
</mgrwt>
</event>
<event>
 4    1  0.1361667E-004  0.1121003E+04  0.7818608E-02  0.9184960E-01
         -2   -1    0    0    0  501 -0.00000000000E+00  0.00000000000E+00  0.13205516821E+03  0.13205516824E+03  0.25500000000E-02 0. -1.
          2   -1    0    0  501    0  0.00000000000E+00 -0.00000000000E+00 -0.23790185484E+04  0.23790185484E+04  0.25500000000E-02 0.  1.
    5000001    1    1    2    0    0  0.39813895345E+03  0.37286315135E+03 -0.10738390412E+04  0.12111155363E+04  0.12700000000E+03 0.  0.
   -5000001    1    1    2    0    0 -0.39813895345E+03 -0.37286315135E+03 -0.11731243390E+04  0.12999581804E+04  0.12700000000E+03 0.  0.
<mgrwt>
<rscale>  0 0.11210026E+04</rscale>
<asrwt>0</asrwt>
<pdfrwt beam="1">  1        2 0.33985977E+00 0.11210026E+04</pdfrwt>
<pdfrwt beam="2">  1       -2 0.18865025E-01 0.11210026E+04</pdfrwt>
<totfact> 0.12037548E+02</totfact>
</mgrwt>
</event>
<event>
 4    1  0.1361667E-004  0.3035716E+03  0.7818608E-02  0.1083469E+00
          2   -1    0    0  501    0  0.00000000000E+00  0.00000000000E+00  0.16058541584E+04  0.16058541584E+04  0.25500000000E-02 0.  1.
         -2   -1    0    0    0  501 -0.00000000000E+00 -0.00000000000E+00 -0.14346838748E+02  0.14346838974E+02  0.25500000000E-02 0. -1.
    5000001    1    1    2    0    0  0.51613446607E+02 -0.64352592229E+02  0.85037178175E+03  0.86375133644E+03  0.12700000000E+03 0.  0.
   -5000001    1    1    2    0    0 -0.51613446607E+02  0.64352592229E+02  0.74113553793E+03  0.75644966097E+03  0.12700000000E+03 0.  0.
<mgrwt>
<rscale>  0 0.30357161E+03</rscale>
<asrwt>0</asrwt>
<pdfrwt beam="1">  1        2 0.22940765E+00 0.30357161E+03</pdfrwt>
<pdfrwt beam="2">  1       -2 0.20495491E-02 0.30357161E+03</pdfrwt>
<totfact> 0.10313245E+04</totfact>
</mgrwt>
</event>
<event>
 4    1  0.1361667E-004  0.5036543E+03  0.7818608E-02  0.1012829E+00
          2   -1    0    0  501    0  0.00000000000E+00  0.00000000000E+00  0.17220549408E+04  0.17220549408E+04  0.25500000000E-02 0.  1.
         -2   -1    0    0    0  501 -0.00000000000E+00 -0.00000000000E+00 -0.36826298250E+02  0.36826298338E+02  0.25500000000E-02 0. -1.
    5000001    1    1    2    0    0  0.18650611784E+03 -0.65100477966E+02  0.11601067846E+04  0.11836381862E+04  0.12700000000E+03 0.  0.
   -5000001    1    1    2    0    0 -0.18650611784E+03  0.65100477966E+02  0.52512185794E+03  0.57524305290E+03  0.12700000000E+03 0.  0.
<mgrwt>
<rscale>  0 0.50365428E+03</rscale>
<asrwt>0</asrwt>
<pdfrwt beam="1">  1        2 0.24600792E+00 0.50365428E+03</pdfrwt>
<pdfrwt beam="2">  1       -2 0.52608983E-02 0.50365428E+03</pdfrwt>
<totfact> 0.21745243E+03</totfact>
</mgrwt>
</event>
<event>
 4    1  0.1361667E-004  0.4620462E+03  0.7818608E-02  0.1024189E+00
          2   -1    0    0  501    0  0.00000000000E+00  0.00000000000E+00  0.14786483262E+04  0.14786483262E+04  0.25500000000E-02 0.  1.
         -2   -1    0    0    0  501 -0.00000000000E+00 -0.00000000000E+00 -0.36094900394E+02  0.36094900484E+02  0.25500000000E-02 0. -1.
    5000001    1    1    2    0    0  0.14732895503E+02  0.19215791730E+03  0.68833949849E+03  0.72600412435E+03  0.12700000000E+03 0.  0.
   -5000001    1    1    2    0    0 -0.14732895503E+02 -0.19215791730E+03  0.75421392730E+03  0.78873910231E+03  0.12700000000E+03 0.  0.
<mgrwt>
<rscale>  0 0.46204616E+03</rscale>
<asrwt>0</asrwt>
<pdfrwt beam="1">  1        2 0.21123544E+00 0.46204616E+03</pdfrwt>
<pdfrwt beam="2">  1       -2 0.51564151E-02 0.46204616E+03</pdfrwt>
<totfact> 0.29881561E+03</totfact>
</mgrwt>
</event>
<event>
 4    1  0.1361667E-004  0.2853971E+03  0.7818608E-02  0.1092777E+00
          2   -1    0    0  501    0  0.00000000000E+00  0.00000000000E+00  0.46372019184E+03  0.46372019185E+03  0.25500000000E-02 0.  1.
         -2   -1    0    0    0  501 -0.00000000000E+00 -0.00000000000E+00 -0.43911993031E+02  0.43911993105E+02  0.25500000000E-02 0. -1.
    5000001    1    1    2    0    0 -0.63149471396E+02 -0.17879389160E+01  0.23762112500E+03  0.27673787509E+03  0.12700000000E+03 0.  0.
   -5000001    1    1    2    0    0  0.63149471396E+02  0.17879389160E+01  0.18218707381E+03  0.23089430986E+03  0.12700000000E+03 0.  0.
<mgrwt>
<rscale>  0 0.28539711E+03</rscale>
<asrwt>0</asrwt>
<pdfrwt beam="1">  1        2 0.66245743E-01 0.28539711E+03</pdfrwt>
<pdfrwt beam="2">  1       -2 0.62731418E-02 0.28539711E+03</pdfrwt>
<totfact> 0.10121539E+04</totfact>
</mgrwt>
</event>
<event>
 4    1  0.1361667E-004  0.6820658E+03  0.7818608E-02  0.9748403E-01
          2   -1    0    0  501    0  0.00000000000E+00  0.00000000000E+00  0.14446279414E+04  0.14446279414E+04  0.25500000000E-02 0.  1.
         -2   -1    0    0    0  501 -0.00000000000E+00 -0.00000000000E+00 -0.80507547659E+02  0.80507547700E+02  0.25500000000E-02 0. -1.
    5000001    1    1    2    0    0 -0.17443202376E+03  0.25637765614E+03  0.54031454102E+03  0.63578678558E+03  0.12700000000E+03 0.  0.
   -5000001    1    1    2    0    0  0.17443202376E+03 -0.25637765614E+03  0.82380585274E+03  0.88934870354E+03  0.12700000000E+03 0.  0.
<mgrwt>
<rscale>  0 0.68206584E+03</rscale>
<asrwt>0</asrwt>
<pdfrwt beam="1">  1        2 0.20637540E+00 0.68206584E+03</pdfrwt>
<pdfrwt beam="2">  1       -2 0.11501079E-01 0.68206584E+03</pdfrwt>
<totfact> 0.86402411E+02</totfact>
</mgrwt>
</event>
<event>
 4    1  0.1361667E-004  0.5399704E+03  0.7818608E-02  0.1003842E+00
          2   -1    0    0  501    0  0.00000000000E+00  0.00000000000E+00  0.22625118281E+04  0.22625118281E+04  0.25500000000E-02 0.  1.
         -2   -1    0    0    0  501 -0.00000000000E+00 -0.00000000000E+00 -0.32217296267E+02  0.32217296368E+02  0.25500000000E-02 0. -1.
    5000001    1    1    2    0    0 -0.19772263797E+03 -0.11498758704E+03  0.83176229131E+03  0.87193686468E+03  0.12700000000E+03 0.  0.
   -5000001    1    1    2    0    0  0.19772263797E+03  0.11498758704E+03  0.13985322406E+04  0.14227922598E+04  0.12700000000E+03 0.  0.
<mgrwt>
<rscale>  0 0.53997042E+03</rscale>
<asrwt>0</asrwt>
<pdfrwt beam="1">  1        2 0.32321602E+00 0.53997042E+03</pdfrwt>
<pdfrwt beam="2">  1       -2 0.46024702E-02 0.53997042E+03</pdfrwt>
<totfact> 0.14308146E+03</totfact>
</mgrwt>
</event>
<event>
 4    1  0.1361667E-004  0.8009447E+03  0.7818608E-02  0.9558651E-01
          2   -1    0    0  501    0  0.00000000000E+00  0.00000000000E+00  0.80138188215E+03  0.80138188215E+03  0.25500000000E-02 0.  1.
         -2   -1    0    0    0  501 -0.00000000000E+00 -0.00000000000E+00 -0.20012696353E+03  0.20012696355E+03  0.25500000000E-02 0. -1.
    5000001    1    1    2    0    0 -0.36045449646E+03 -0.99548837284E+02  0.21757440743E+03  0.45089359919E+03  0.12700000000E+03 0.  0.
   -5000001    1    1    2    0    0  0.36045449646E+03  0.99548837284E+02  0.38368051119E+03  0.55061524651E+03  0.12700000000E+03 0.  0.
<mgrwt>
<rscale>  0 0.80094475E+03</rscale>
<asrwt>0</asrwt>
<pdfrwt beam="1">  1        2 0.11448313E+00 0.80094475E+03</pdfrwt>
<pdfrwt beam="2">  1       -2 0.28589566E-01 0.80094475E+03</pdfrwt>
<totfact> 0.42630810E+02</totfact>
</mgrwt>
</event>
<event>
 4    1  0.1361667E-004  0.3064407E+03  0.7818608E-02  0.1082065E+00
         -2   -1    0    0    0  501 -0.00000000000E+00  0.00000000000E+00  0.23656710745E+02  0.23656710883E+02  0.25500000000E-02 0. -1.
          2   -1    0    0  501    0  0.00000000000E+00 -0.00000000000E+00 -0.99238140179E+03  0.99238140179E+03  0.25500000000E-02 0.  1.
    5000001    1    1    2    0    0  0.63554803521E+02 -0.40509881693E+02 -0.61974389659E+03  0.63709635137E+03  0.12700000000E+03 0.  0.
   -5000001    1    1    2    0    0 -0.63554803521E+02  0.40509881693E+02 -0.34898079445E+03  0.37894176131E+03  0.12700000000E+03 0.  0.
<mgrwt>
<rscale>  0 0.30644073E+03</rscale>
<asrwt>0</asrwt>
<pdfrwt beam="1">  1        2 0.14176875E+00 0.30644073E+03</pdfrwt>
<pdfrwt beam="2">  1       -2 0.33795307E-02 0.30644073E+03</pdfrwt>
<totfact> 0.10442822E+04</totfact>
</mgrwt>
</event>
<event>
 4    1  0.1361667E-004  0.9642924E+03  0.7818608E-02  0.9348599E-01
         -2   -1    0    0    0  501 -0.00000000000E+00  0.00000000000E+00  0.10774633493E+03  0.10774633496E+03  0.25500000000E-02 0. -1.
          2   -1    0    0  501    0  0.00000000000E+00 -0.00000000000E+00 -0.21575208996E+04  0.21575208996E+04  0.25500000000E-02 0.  1.
    5000001    1    1    2    0    0  0.32604406494E+02  0.35308068133E+03 -0.31776999364E+03  0.49278370885E+03  0.12700000000E+03 0.  0.
   -5000001    1    1    2    0    0 -0.32604406494E+02 -0.35308068133E+03 -0.17320045710E+04  0.17724835257E+04  0.12700000000E+03 0.  0.
<mgrwt>
<rscale>  0 0.96429242E+03</rscale>
<asrwt>0</asrwt>
<pdfrwt beam="1">  1        2 0.30821725E+00 0.96429242E+03</pdfrwt>
<pdfrwt beam="2">  1       -2 0.15392335E-01 0.96429242E+03</pdfrwt>
<totfact> 0.22471134E+02</totfact>
</mgrwt>
</event>
<event>
 4    1  0.1361667E-004  0.1649571E+04  0.7818608E-02  0.8790661E-01
          2   -1    0    0  501    0  0.00000000000E+00  0.00000000000E+00  0.74734346163E+03  0.74734346163E+03  0.25500000000E-02 0.  1.
         -2   -1    0    0    0  501 -0.00000000000E+00 -0.00000000000E+00 -0.91025182355E+03  0.91025182355E+03  0.25500000000E-02 0. -1.
    5000001    1    1    2    0    0 -0.81380792419E+03 -0.43108073399E+02 -0.81780257357E+02  0.82882968936E+03  0.12700000000E+03 0.  0.
   -5000001    1    1    2    0    0  0.81380792419E+03  0.43108073399E+02 -0.81128104569E+02  0.82876559582E+03  0.12700000000E+03 0.  0.
<mgrwt>
<rscale>  0 0.16495705E+04</rscale>
<asrwt>0</asrwt>
<pdfrwt beam="1">  1        2 0.10676335E+00 0.16495705E+04</pdfrwt>
<pdfrwt beam="2">  1       -2 0.13003597E+00 0.16495705E+04</pdfrwt>
<totfact> 0.17233301E+01</totfact>
</mgrwt>
</event>
<event>
 4    1  0.1361667E-004  0.4348574E+03  0.7818608E-02  0.1032336E+00
         -2   -1    0    0    0  501 -0.00000000000E+00  0.00000000000E+00  0.19206737151E+02  0.19206737320E+02  0.25500000000E-02 0. -1.
          2   -1    0    0  501    0  0.00000000000E+00 -0.00000000000E+00 -0.24613886216E+04  0.24613886216E+04  0.25500000000E-02 0.  1.
    5000001    1    1    2    0    0 -0.12424826710E+03  0.11213928883E+03 -0.15404038248E+04  0.15546658147E+04  0.12700000000E+03 0.  0.
   -5000001    1    1    2    0    0  0.12424826710E+03 -0.11213928883E+03 -0.90177805970E+03  0.92592954426E+03  0.12700000000E+03 0.  0.
<mgrwt>
<rscale>  0 0.43485742E+03</rscale>
<asrwt>0</asrwt>
<pdfrwt beam="1">  1        2 0.35162675E+00 0.43485742E+03</pdfrwt>
<pdfrwt beam="2">  1       -2 0.27438212E-02 0.43485742E+03</pdfrwt>
<totfact> 0.25104679E+03</totfact>
</mgrwt>
</event>
<event>
 4    1  0.1361667E-004  0.2918422E+03  0.7818608E-02  0.1089391E+00
         -2   -1    0    0    0  501 -0.00000000000E+00  0.00000000000E+00  0.32803677566E+02  0.32803677665E+02  0.25500000000E-02 0. -1.
          2   -1    0    0  501    0  0.00000000000E+00 -0.00000000000E+00 -0.64910290305E+03  0.64910290305E+03  0.25500000000E-02 0.  1.
    5000001    1    1    2    0    0  0.70789033084E+02 -0.84373460491E+01 -0.32926755589E+03  0.36003944142E+03  0.12700000000E+03 0.  0.
   -5000001    1    1    2    0    0 -0.70789033084E+02  0.84373460491E+01 -0.28703166959E+03  0.32186713930E+03  0.12700000000E+03 0.  0.
<mgrwt>
<rscale>  0 0.29184217E+03</rscale>
<asrwt>0</asrwt>
<pdfrwt beam="1">  1        2 0.92728978E-01 0.29184217E+03</pdfrwt>
<pdfrwt beam="2">  1       -2 0.46862401E-02 0.29184217E+03</pdfrwt>
<totfact> 0.10828926E+04</totfact>
</mgrwt>
</event>
<event>
 4    1  0.1361667E-004  0.3643243E+03  0.7818608E-02  0.1056885E+00
          2   -1    0    0  501    0  0.00000000000E+00  0.00000000000E+00  0.58909774959E+03  0.58909774960E+03  0.25500000000E-02 0.  1.
         -2   -1    0    0    0  501 -0.00000000000E+00 -0.00000000000E+00 -0.56328596289E+02  0.56328596347E+02  0.25500000000E-02 0. -1.
    5000001    1    1    2    0    0  0.98794960962E+02 -0.83830625211E+02  0.23748942932E+03  0.29886158514E+03  0.12700000000E+03 0.  0.
   -5000001    1    1    2    0    0 -0.98794960962E+02  0.83830625211E+02  0.29527972399E+03  0.34656476081E+03  0.12700000000E+03 0.  0.
<mgrwt>
<rscale>  0 0.36432430E+03</rscale>
<asrwt>0</asrwt>
<pdfrwt beam="1">  1        2 0.84156820E-01 0.36432430E+03</pdfrwt>
<pdfrwt beam="2">  1       -2 0.80469424E-02 0.36432430E+03</pdfrwt>
<totfact> 0.52923208E+03</totfact>
</mgrwt>
</event>
<event>
 4    1  0.1361667E-004  0.3568903E+03  0.7818608E-02  0.1059822E+00
          2   -1    0    0  501    0  0.00000000000E+00  0.00000000000E+00  0.65550723348E+03  0.65550723348E+03  0.25500000000E-02 0.  1.
         -2   -1    0    0    0  501 -0.00000000000E+00 -0.00000000000E+00 -0.48577136398E+02  0.48577136465E+02  0.25500000000E-02 0. -1.
    5000001    1    1    2    0    0 -0.29056127124E+02 -0.10733307412E+03  0.41763417656E+03  0.45045749272E+03  0.12700000000E+03 0.  0.
   -5000001    1    1    2    0    0  0.29056127124E+02  0.10733307412E+03  0.18929592052E+03  0.25362687722E+03  0.12700000000E+03 0.  0.
<mgrwt>
<rscale>  0 0.35689026E+03</rscale>
<asrwt>0</asrwt>
<pdfrwt beam="1">  1        2 0.93643880E-01 0.35689026E+03</pdfrwt>
<pdfrwt beam="2">  1       -2 0.69395917E-02 0.35689026E+03</pdfrwt>
<totfact> 0.58908192E+03</totfact>
</mgrwt>
</event>
<event>
 4    1  0.1361667E-004  0.4543208E+03  0.7818608E-02  0.1026441E+00
         -2   -1    0    0    0  501 -0.00000000000E+00  0.00000000000E+00  0.14826933964E+03  0.14826933966E+03  0.25500000000E-02 0. -1.
          2   -1    0    0  501    0  0.00000000000E+00 -0.00000000000E+00 -0.34802771634E+03  0.34802771635E+03  0.25500000000E-02 0.  1.
    5000001    1    1    2    0    0  0.81052151644E+02 -0.14907112793E+03 -0.18916982747E+03  0.28408779645E+03  0.12700000000E+03 0.  0.
   -5000001    1    1    2    0    0 -0.81052151644E+02  0.14907112793E+03 -0.10588549233E+02  0.21220925956E+03  0.12700000000E+03 0.  0.
<mgrwt>
<rscale>  0 0.45432077E+03</rscale>
<asrwt>0</asrwt>
<pdfrwt beam="1">  1        2 0.49718245E-01 0.45432077E+03</pdfrwt>
<pdfrwt beam="2">  1       -2 0.21181334E-01 0.45432077E+03</pdfrwt>
<totfact> 0.19341861E+03</totfact>
</mgrwt>
</event>
<event>
 4    1  0.1361667E-004  0.5545172E+03  0.7818608E-02  0.1000454E+00
          2   -1    0    0  501    0  0.00000000000E+00  0.00000000000E+00  0.15091863860E+04  0.15091863860E+04  0.25500000000E-02 0.  1.
         -2   -1    0    0    0  501 -0.00000000000E+00 -0.00000000000E+00 -0.50936278092E+02  0.50936278156E+02  0.25500000000E-02 0. -1.
    5000001    1    1    2    0    0 -0.17069671017E+03 -0.17777977427E+03  0.73072279805E+03  0.78155474702E+03  0.12700000000E+03 0.  0.
   -5000001    1    1    2    0    0  0.17069671017E+03  0.17777977427E+03  0.72752730987E+03  0.77856791715E+03  0.12700000000E+03 0.  0.
<mgrwt>
<rscale>  0 0.55451722E+03</rscale>
<asrwt>0</asrwt>
<pdfrwt beam="1">  1        2 0.21559806E+00 0.55451722E+03</pdfrwt>
<pdfrwt beam="2">  1       -2 0.72766110E-02 0.55451722E+03</pdfrwt>
<totfact> 0.16790897E+03</totfact>
</mgrwt>
</event>
<event>
 4    1  0.1361667E-004  0.7675229E+03  0.7818608E-02  0.9608254E-01
          2   -1    0    0  501    0  0.00000000000E+00  0.00000000000E+00  0.20177030907E+04  0.20177030907E+04  0.25500000000E-02 0.  1.
         -2   -1    0    0    0  501 -0.00000000000E+00 -0.00000000000E+00 -0.72990343512E+02  0.72990343557E+02  0.25500000000E-02 0. -1.
    5000001    1    1    2    0    0  0.48980158629E+02  0.31400055874E+03  0.49938875067E+03  0.60540361010E+03  0.12700000000E+03 0.  0.
   -5000001    1    1    2    0    0 -0.48980158629E+02 -0.31400055874E+03  0.14453239965E+04  0.14852898241E+04  0.12700000000E+03 0.  0.
<mgrwt>
<rscale>  0 0.76752288E+03</rscale>
<asrwt>0</asrwt>
<pdfrwt beam="1">  1        2 0.28824331E+00 0.76752288E+03</pdfrwt>
<pdfrwt beam="2">  1       -2 0.10427191E-01 0.76752288E+03</pdfrwt>
<totfact> 0.51330639E+02</totfact>
</mgrwt>
</event>
<event>
 4    1  0.1361667E-004  0.3766958E+03  0.7818608E-02  0.1052162E+00
         -2   -1    0    0    0  501 -0.00000000000E+00  0.00000000000E+00  0.54136955696E+02  0.54136955756E+02  0.25500000000E-02 0. -1.
          2   -1    0    0  501    0  0.00000000000E+00 -0.00000000000E+00 -0.65528126608E+03  0.65528126609E+03  0.25500000000E-02 0.  1.
    5000001    1    1    2    0    0 -0.11152849612E+03  0.83110328928E+02 -0.30052333118E+03  0.35466773860E+03  0.12700000000E+03 0.  0.
   -5000001    1    1    2    0    0  0.11152849612E+03 -0.83110328928E+02 -0.30062097921E+03  0.35475048324E+03  0.12700000000E+03 0.  0.
<mgrwt>
<rscale>  0 0.37669581E+03</rscale>
<asrwt>0</asrwt>
<pdfrwt beam="1">  1        2 0.93611605E-01 0.37669581E+03</pdfrwt>
<pdfrwt beam="2">  1       -2 0.77338512E-02 0.37669581E+03</pdfrwt>
<totfact> 0.49797500E+03</totfact>
</mgrwt>
</event>
<event>
 4    1  0.1361667E-004  0.3219601E+03  0.7818608E-02  0.1074751E+00
         -2   -1    0    0    0  501 -0.00000000000E+00  0.00000000000E+00  0.65279921586E+02  0.65279921636E+02  0.25500000000E-02 0. -1.
          2   -1    0    0  501    0  0.00000000000E+00 -0.00000000000E+00 -0.39697629413E+03  0.39697629414E+03  0.25500000000E-02 0.  1.
    5000001    1    1    2    0    0 -0.64296886071E+02  0.60969171791E+02 -0.22899292653E+03  0.27643822070E+03  0.12700000000E+03 0.  0.
   -5000001    1    1    2    0    0  0.64296886071E+02 -0.60969171791E+02 -0.10270344602E+03  0.18581799507E+03  0.12700000000E+03 0.  0.
<mgrwt>
<rscale>  0 0.32196013E+03</rscale>
<asrwt>0</asrwt>
<pdfrwt beam="1">  1        2 0.56710898E-01 0.32196013E+03</pdfrwt>
<pdfrwt beam="2">  1       -2 0.93257033E-02 0.32196013E+03</pdfrwt>
<totfact> 0.64826253E+03</totfact>
</mgrwt>
</event>
<event>
 4    1  0.1361667E-004  0.7041811E+03  0.7818608E-02  0.9710109E-01
         -2   -1    0    0    0  501 -0.00000000000E+00  0.00000000000E+00  0.47928157079E+02  0.47928157147E+02  0.25500000000E-02 0. -1.
          2   -1    0    0  501    0  0.00000000000E+00 -0.00000000000E+00 -0.25865331006E+04  0.25865331006E+04  0.25500000000E-02 0.  1.
    5000001    1    1    2    0    0 -0.22135856998E+03 -0.23751533413E+03 -0.14535570612E+04  0.14947810142E+04  0.12700000000E+03 0.  0.
   -5000001    1    1    2    0    0  0.22135856998E+03  0.23751533413E+03 -0.10850478823E+04  0.11396802435E+04  0.12700000000E+03 0.  0.
<mgrwt>
<rscale>  0 0.70418113E+03</rscale>
<asrwt>0</asrwt>
<pdfrwt beam="1">  1        2 0.36950464E+00 0.70418113E+03</pdfrwt>
<pdfrwt beam="2">  1       -2 0.68468812E-02 0.70418113E+03</pdfrwt>
<totfact> 0.51941032E+02</totfact>
</mgrwt>
</event>
<event>
 4    1  0.1361667E-004  0.8325106E+03  0.7818608E-02  0.9514116E-01
          2   -1    0    0  501    0  0.00000000000E+00  0.00000000000E+00  0.14466687059E+04  0.14466687059E+04  0.25500000000E-02 0.  1.
         -2   -1    0    0    0  501 -0.00000000000E+00 -0.00000000000E+00 -0.11977065734E+03  0.11977065736E+03  0.25500000000E-02 0. -1.
    5000001    1    1    2    0    0 -0.37378735835E+03 -0.11291878040E+03  0.79205672080E+03  0.89216057366E+03  0.12700000000E+03 0.  0.
   -5000001    1    1    2    0    0  0.37378735835E+03  0.11291878040E+03  0.53484132778E+03  0.67427878962E+03  0.12700000000E+03 0.  0.
<mgrwt>
<rscale>  0 0.83251057E+03</rscale>
<asrwt>0</asrwt>
<pdfrwt beam="1">  1        2 0.20666694E+00 0.83251057E+03</pdfrwt>
<pdfrwt beam="2">  1       -2 0.17110095E-01 0.83251057E+03</pdfrwt>
<totfact> 0.43912075E+02</totfact>
</mgrwt>
</event>
<event>
 4    1  0.1361667E-004  0.5490789E+03  0.7818608E-02  0.1001707E+00
          2   -1    0    0  501    0  0.00000000000E+00  0.00000000000E+00  0.40816436681E+04  0.40816436681E+04  0.25500000000E-02 0.  1.
         -2   -1    0    0    0  501 -0.00000000000E+00 -0.00000000000E+00 -0.18466070033E+02  0.18466070209E+02  0.25500000000E-02 0. -1.
    5000001    1    1    2    0    0  0.69413856640E+02  0.22891172391E+03  0.23675368363E+04  0.23829768216E+04  0.12700000000E+03 0.  0.
   -5000001    1    1    2    0    0 -0.69413856640E+02 -0.22891172391E+03  0.16956407617E+04  0.17171329167E+04  0.12700000000E+03 0.  0.
<mgrwt>
<rscale>  0 0.54907893E+03</rscale>
<asrwt>0</asrwt>
<pdfrwt beam="1">  1        2 0.58309161E+00 0.54907893E+03</pdfrwt>
<pdfrwt beam="2">  1       -2 0.26380116E-02 0.54907893E+03</pdfrwt>
<totfact> 0.30889434E+02</totfact>
</mgrwt>
</event>
<event>
 4    1  0.1361667E-004  0.5408206E+03  0.7818608E-02  0.1003641E+00
          2   -1    0    0  501    0  0.00000000000E+00  0.00000000000E+00  0.49426666090E+04  0.49426666090E+04  0.25500000000E-02 0.  1.
         -2   -1    0    0    0  501 -0.00000000000E+00 -0.00000000000E+00 -0.14793981824E+02  0.14793982044E+02  0.25500000000E-02 0. -1.
    5000001    1    1    2    0    0 -0.22682042252E+03  0.66250148338E+02  0.27756172329E+04  0.27885509875E+04  0.12700000000E+03 0.  0.
   -5000001    1    1    2    0    0  0.22682042252E+03 -0.66250148338E+02  0.21522553943E+04  0.21689096036E+04  0.12700000000E+03 0.  0.
<mgrwt>
<rscale>  0 0.54082056E+03</rscale>
<asrwt>0</asrwt>
<pdfrwt beam="1">  1        2 0.70609564E+00 0.54082056E+03</pdfrwt>
<pdfrwt beam="2">  1       -2 0.21134248E-02 0.54082056E+03</pdfrwt>
<totfact> 0.91537303E+01</totfact>
</mgrwt>
</event>
<event>
 4    1  0.1361667E-004  0.3427833E+03  0.7818608E-02  0.1065617E+00
          2   -1    0    0  501    0  0.00000000000E+00  0.00000000000E+00  0.42441643993E+03  0.42441643994E+03  0.25500000000E-02 0.  1.
         -2   -1    0    0    0  501 -0.00000000000E+00 -0.00000000000E+00 -0.69212927733E+02  0.69212927780E+02  0.25500000000E-02 0. -1.
    5000001    1    1    2    0    0  0.83208885998E+02 -0.79440605142E+02  0.17270216873E+03  0.24328906169E+03  0.12700000000E+03 0.  0.
   -5000001    1    1    2    0    0 -0.83208885998E+02  0.79440605142E+02  0.18250134347E+03  0.25034030603E+03  0.12700000000E+03 0.  0.
<mgrwt>
<rscale>  0 0.34278334E+03</rscale>
<asrwt>0</asrwt>
<pdfrwt beam="1">  1        2 0.60630922E-01 0.34278334E+03</pdfrwt>
<pdfrwt beam="2">  1       -2 0.98875608E-02 0.34278334E+03</pdfrwt>
<totfact> 0.55011555E+03</totfact>
</mgrwt>
</event>
<event>
 4    1  0.1361667E-004  0.3257523E+03  0.7818608E-02  0.1073032E+00
          2   -1    0    0  501    0  0.00000000000E+00  0.00000000000E+00  0.11236427357E+04  0.11236427357E+04  0.25500000000E-02 0.  1.
         -2   -1    0    0    0  501 -0.00000000000E+00 -0.00000000000E+00 -0.23609492880E+02  0.23609493018E+02  0.25500000000E-02 0. -1.
    5000001    1    1    2    0    0  0.46193870079E+02  0.69800457874E+02  0.75518266213E+03  0.77034786346E+03  0.12700000000E+03 0.  0.
   -5000001    1    1    2    0    0 -0.46193870079E+02 -0.69800457874E+02  0.34485058069E+03  0.37690436526E+03  0.12700000000E+03 0.  0.
<mgrwt>
<rscale>  0 0.32575227E+03</rscale>
<asrwt>0</asrwt>
<pdfrwt beam="1">  1        2 0.16052044E+00 0.32575227E+03</pdfrwt>
<pdfrwt beam="2">  1       -2 0.33727836E-02 0.32575227E+03</pdfrwt>
<totfact> 0.88106146E+03</totfact>
</mgrwt>
</event>
<event>
 4    1  0.1361667E-004  0.4313885E+03  0.7818608E-02  0.1033422E+00
         -2   -1    0    0    0  501 -0.00000000000E+00  0.00000000000E+00  0.97319689573E+02  0.97319689607E+02  0.25500000000E-02 0. -1.
          2   -1    0    0  501    0  0.00000000000E+00 -0.00000000000E+00 -0.47805338365E+03  0.47805338366E+03  0.25500000000E-02 0.  1.
    5000001    1    1    2    0    0 -0.15779998890E+03  0.72565253650E+02 -0.17020730232E+03  0.27434663894E+03  0.12700000000E+03 0.  0.
   -5000001    1    1    2    0    0  0.15779998890E+03 -0.72565253650E+02 -0.21052639176E+03  0.30102643433E+03  0.12700000000E+03 0.  0.
<mgrwt>
<rscale>  0 0.43138849E+03</rscale>
<asrwt>0</asrwt>
<pdfrwt beam="1">  1        2 0.68293339E-01 0.43138849E+03</pdfrwt>
<pdfrwt beam="2">  1       -2 0.13902813E-01 0.43138849E+03</pdfrwt>
<totfact> 0.27837107E+03</totfact>
</mgrwt>
</event>
<event>
 4    1  0.1361667E-004  0.3850281E+03  0.7818608E-02  0.1049091E+00
         -2   -1    0    0    0  501 -0.00000000000E+00  0.00000000000E+00  0.35878770320E+02  0.35878770411E+02  0.25500000000E-02 0. -1.
          2   -1    0    0  501    0  0.00000000000E+00 -0.00000000000E+00 -0.10329691476E+04  0.10329691476E+04  0.25500000000E-02 0.  1.
    5000001    1    1    2    0    0  0.10953771508E+03 -0.24496666010E+02 -0.75197162448E+03  0.77083650776E+03  0.12700000000E+03 0.  0.
   -5000001    1    1    2    0    0 -0.10953771508E+03  0.24496666010E+02 -0.24511875283E+03  0.29801141028E+03  0.12700000000E+03 0.  0.
<mgrwt>
<rscale>  0 0.38502812E+03</rscale>
<asrwt>0</asrwt>
<pdfrwt beam="1">  1        2 0.14756700E+00 0.38502812E+03</pdfrwt>
<pdfrwt beam="2">  1       -2 0.51255392E-02 0.38502812E+03</pdfrwt>
<totfact> 0.52800295E+03</totfact>
</mgrwt>
</event>
<event>
 4    1  0.1361667E-004  0.3263007E+03  0.7818608E-02  0.1072786E+00
         -2   -1    0    0    0  501 -0.00000000000E+00  0.00000000000E+00  0.35468205032E+03  0.35468205033E+03  0.25500000000E-02 0. -1.
          2   -1    0    0  501    0  0.00000000000E+00 -0.00000000000E+00 -0.75047578401E+02  0.75047578445E+02  0.25500000000E-02 0.  1.
    5000001    1    1    2    0    0  0.80861162187E+02  0.38964257931E+02  0.20476808884E+03  0.25712975548E+03  0.12700000000E+03 0.  0.
   -5000001    1    1    2    0    0 -0.80861162187E+02 -0.38964257931E+02  0.74866383085E+02  0.17259987330E+03  0.12700000000E+03 0.  0.
<mgrwt>
<rscale>  0 0.32630065E+03</rscale>
<asrwt>0</asrwt>
<pdfrwt beam="1">  1        2 0.10721082E-01 0.32630065E+03</pdfrwt>
<pdfrwt beam="2">  1       -2 0.50668865E-01 0.32630065E+03</pdfrwt>
<totfact> 0.22044051E+03</totfact>
</mgrwt>
</event>
<event>
 4    1  0.1361667E-004  0.9089613E+03  0.7818608E-02  0.9414448E-01
         -2   -1    0    0    0  501 -0.00000000000E+00  0.00000000000E+00  0.15696781422E+03  0.15696781424E+03  0.25500000000E-02 0. -1.
          2   -1    0    0  501    0  0.00000000000E+00 -0.00000000000E+00 -0.13158919292E+04  0.13158919292E+04  0.25500000000E-02 0.  1.
    5000001    1    1    2    0    0 -0.13778634477E+02 -0.41751425572E+03 -0.37503964192E+03  0.57557947975E+03  0.12700000000E+03 0.  0.
   -5000001    1    1    2    0    0  0.13778634477E+02  0.41751425572E+03 -0.78388447304E+03  0.89728026367E+03  0.12700000000E+03 0.  0.
<mgrwt>
<rscale>  0 0.90896134E+03</rscale>
<asrwt>0</asrwt>
<pdfrwt beam="1">  1        2 0.18798456E+00 0.90896134E+03</pdfrwt>
<pdfrwt beam="2">  1       -2 0.22423974E-01 0.90896134E+03</pdfrwt>
<totfact> 0.32072199E+02</totfact>
</mgrwt>
</event>
<event>
 4    1  0.1361667E-004  0.5252925E+03  0.7818608E-02  0.1007380E+00
         -2   -1    0    0    0  501 -0.00000000000E+00  0.00000000000E+00  0.83440120123E+02  0.83440120162E+02  0.25500000000E-02 0. -1.
          2   -1    0    0  501    0  0.00000000000E+00 -0.00000000000E+00 -0.82673732132E+03  0.82673732132E+03  0.25500000000E-02 0.  1.
    5000001    1    1    2    0    0  0.15772484692E+02 -0.13896891563E+03 -0.68780418158E+03  0.71327745161E+03  0.12700000000E+03 0.  0.
   -5000001    1    1    2    0    0 -0.15772484692E+02  0.13896891563E+03 -0.55493019619E+02  0.19689998987E+03  0.12700000000E+03 0.  0.
<mgrwt>
<rscale>  0 0.52529253E+03</rscale>
<asrwt>0</asrwt>
<pdfrwt beam="1">  1        2 0.11810533E+00 0.52529253E+03</pdfrwt>
<pdfrwt beam="2">  1       -2 0.11920018E-01 0.52529253E+03</pdfrwt>
<totfact> 0.18744990E+03</totfact>
</mgrwt>
</event>
<event>
 4    1  0.1361667E-004  0.4560090E+03  0.7818608E-02  0.1025945E+00
         -2   -1    0    0    0  501 -0.00000000000E+00  0.00000000000E+00  0.13305809865E+03  0.13305809867E+03  0.25500000000E-02 0. -1.
          2   -1    0    0  501    0  0.00000000000E+00 -0.00000000000E+00 -0.39070183298E+03  0.39070183299E+03  0.25500000000E-02 0.  1.
    5000001    1    1    2    0    0 -0.12877150783E+03  0.15759719729E+01  0.30629207248E+02  0.18344408754E+03  0.12700000000E+03 0.  0.
   -5000001    1    1    2    0    0  0.12877150783E+03 -0.15759719729E+01 -0.28827294158E+03  0.34031584412E+03  0.12700000000E+03 0.  0.
<mgrwt>
<rscale>  0 0.45600896E+03</rscale>
<asrwt>0</asrwt>
<pdfrwt beam="1">  1        2 0.55814547E-01 0.45600896E+03</pdfrwt>
<pdfrwt beam="2">  1       -2 0.19008300E-01 0.45600896E+03</pdfrwt>
<totfact> 0.20548150E+03</totfact>
</mgrwt>
</event>
<event>
 4    1  0.1361667E-004  0.3410027E+03  0.7818608E-02  0.1066370E+00
          2   -1    0    0  501    0  0.00000000000E+00  0.00000000000E+00  0.39532699611E+04  0.39532699611E+04  0.25500000000E-02 0.  1.
         -2   -1    0    0    0  501 -0.00000000000E+00 -0.00000000000E+00 -0.73535863260E+01  0.73535867682E+01  0.25500000000E-02 0. -1.
    5000001    1    1    2    0    0  0.84734200811E+02  0.13514885485E+01  0.10914689230E+04  0.11020957858E+04  0.12700000000E+03 0.  0.
   -5000001    1    1    2    0    0 -0.84734200811E+02 -0.13514885485E+01  0.28544474518E+04  0.28585277621E+04  0.12700000000E+03 0.  0.
<mgrwt>
<rscale>  0 0.34100271E+03</rscale>
<asrwt>0</asrwt>
<pdfrwt beam="1">  1        2 0.56475602E+00 0.34100271E+03</pdfrwt>
<pdfrwt beam="2">  1       -2 0.10505065E-02 0.34100271E+03</pdfrwt>
<totfact> 0.15242603E+03</totfact>
</mgrwt>
</event>
<event>
 4    1  0.1361667E-004  0.5817440E+03  0.7818608E-02  0.9944022E-01
         -2   -1    0    0    0  501 -0.00000000000E+00  0.00000000000E+00  0.76800691974E+02  0.76800692017E+02  0.25500000000E-02 0. -1.
          2   -1    0    0  501    0  0.00000000000E+00 -0.00000000000E+00 -0.11016375301E+04  0.11016375301E+04  0.25500000000E-02 0.  1.
    5000001    1    1    2    0    0  0.21042801040E+03 -0.15538457518E+03 -0.52719503894E+03  0.60206969933E+03  0.12700000000E+03 0.  0.
   -5000001    1    1    2    0    0 -0.21042801040E+03  0.15538457518E+03 -0.49764179917E+03  0.57636852277E+03  0.12700000000E+03 0.  0.
<mgrwt>
<rscale>  0 0.58174401E+03</rscale>
<asrwt>0</asrwt>
<pdfrwt beam="1">  1        2 0.15737678E+00 0.58174401E+03</pdfrwt>
<pdfrwt beam="2">  1       -2 0.10971528E-01 0.58174401E+03</pdfrwt>
<totfact> 0.14468111E+03</totfact>
</mgrwt>
</event>
<event>
 4    1  0.1361667E-004  0.3187260E+03  0.7818608E-02  0.1076237E+00
          2   -1    0    0  501    0  0.00000000000E+00  0.00000000000E+00  0.43328664506E+03  0.43328664507E+03  0.25500000000E-02 0.  1.
         -2   -1    0    0    0  501 -0.00000000000E+00 -0.00000000000E+00 -0.58613788276E+02  0.58613788332E+02  0.25500000000E-02 0. -1.
    5000001    1    1    2    0    0  0.85226008403E+02  0.14901372946E+02  0.12218568227E+03  0.19632591367E+03  0.12700000000E+03 0.  0.
   -5000001    1    1    2    0    0 -0.85226008403E+02 -0.14901372946E+02  0.25248717451E+03  0.29557451973E+03  0.12700000000E+03 0.  0.
<mgrwt>
<rscale>  0 0.31872604E+03</rscale>
<asrwt>0</asrwt>
<pdfrwt beam="1">  1        2 0.61898090E-01 0.31872604E+03</pdfrwt>
<pdfrwt beam="2">  1       -2 0.83733987E-02 0.31872604E+03</pdfrwt>
<totfact> 0.69837092E+03</totfact>
</mgrwt>
</event>
<event>
 4    1  0.1361667E-004  0.3475046E+03  0.7818608E-02  0.1063644E+00
         -2   -1    0    0    0  501 -0.00000000000E+00  0.00000000000E+00  0.38782455781E+02  0.38782455865E+02  0.25500000000E-02 0. -1.
          2   -1    0    0  501    0  0.00000000000E+00 -0.00000000000E+00 -0.77844126827E+03  0.77844126828E+03  0.25500000000E-02 0.  1.
    5000001    1    1    2    0    0 -0.66702824145E+02  0.45039212830E+02 -0.57461661563E+03  0.59396216411E+03  0.12700000000E+03 0.  0.
   -5000001    1    1    2    0    0  0.66702824145E+02 -0.45039212830E+02 -0.16504219687E+03  0.22326156003E+03  0.12700000000E+03 0.  0.
<mgrwt>
<rscale>  0 0.34750461E+03</rscale>
<asrwt>0</asrwt>
<pdfrwt beam="1">  1        2 0.11120589E+00 0.34750461E+03</pdfrwt>
<pdfrwt beam="2">  1       -2 0.55403513E-02 0.34750461E+03</pdfrwt>
<totfact> 0.67791263E+03</totfact>
</mgrwt>
</event>
<event>
 4    1  0.1361667E-004  0.3337322E+03  0.7818608E-02  0.1069497E+00
         -2   -1    0    0    0  501 -0.00000000000E+00  0.00000000000E+00  0.30311070383E+02  0.30311070491E+02  0.25500000000E-02 0. -1.
          2   -1    0    0  501    0  0.00000000000E+00 -0.00000000000E+00 -0.91861811657E+03  0.91861811657E+03  0.25500000000E-02 0.  1.
    5000001    1    1    2    0    0  0.86069195336E+02 -0.18289125278E+02 -0.62337476537E+03  0.64223632457E+03  0.12700000000E+03 0.  0.
   -5000001    1    1    2    0    0 -0.86069195336E+02  0.18289125278E+02 -0.26493228081E+03  0.30669286249E+03  0.12700000000E+03 0.  0.
<mgrwt>
<rscale>  0 0.33373222E+03</rscale>
<asrwt>0</asrwt>
<pdfrwt beam="1">  1        2 0.13123114E+00 0.33373222E+03</pdfrwt>
<pdfrwt beam="2">  1       -2 0.43301535E-02 0.33373222E+03</pdfrwt>
<totfact> 0.79877303E+03</totfact>
</mgrwt>
</event>
<event>
 4    1  0.1361667E-004  0.3212329E+03  0.7818608E-02  0.1075083E+00
          2   -1    0    0  501    0  0.00000000000E+00  0.00000000000E+00  0.54002101823E+03  0.54002101824E+03  0.25500000000E-02 0.  1.
         -2   -1    0    0    0  501 -0.00000000000E+00 -0.00000000000E+00 -0.47771566917E+02  0.47771566985E+02  0.25500000000E-02 0. -1.
    5000001    1    1    2    0    0  0.11047269531E+02 -0.89931418268E+02  0.31601615949E+03  0.35242717718E+03  0.12700000000E+03 0.  0.
   -5000001    1    1    2    0    0 -0.11047269531E+02  0.89931418268E+02  0.17623329182E+03  0.23536540804E+03  0.12700000000E+03 0.  0.
<mgrwt>
<rscale>  0 0.32123294E+03</rscale>
<asrwt>0</asrwt>
<pdfrwt beam="1">  1        2 0.77145860E-01 0.32123294E+03</pdfrwt>
<pdfrwt beam="2">  1       -2 0.68245096E-02 0.32123294E+03</pdfrwt>
<totfact> 0.75340456E+03</totfact>
</mgrwt>
</event>
<event>
 4    1  0.1361667E-004  0.3383245E+03  0.7818608E-02  0.1067512E+00
          2   -1    0    0  501    0  0.00000000000E+00  0.00000000000E+00  0.58160575280E+03  0.58160575280E+03  0.25500000000E-02 0.  1.
         -2   -1    0    0    0  501 -0.00000000000E+00 -0.00000000000E+00 -0.49201495400E+02  0.49201495466E+02  0.25500000000E-02 0. -1.
    5000001    1    1    2    0    0  0.83054440230E+02 -0.70914193424E+02  0.31032472322E+03  0.35264329954E+03  0.12700000000E+03 0.  0.
   -5000001    1    1    2    0    0 -0.83054440230E+02  0.70914193424E+02  0.22207953418E+03  0.27816394873E+03  0.12700000000E+03 0.  0.
<mgrwt>
<rscale>  0 0.33832454E+03</rscale>
<asrwt>0</asrwt>
<pdfrwt beam="1">  1        2 0.83086529E-01 0.33832454E+03</pdfrwt>
<pdfrwt beam="2">  1       -2 0.70287856E-02 0.33832454E+03</pdfrwt>
<totfact> 0.66256317E+03</totfact>
</mgrwt>
</event>
<event>
 4    1  0.1361667E-004  0.4704083E+03  0.7818608E-02  0.1021805E+00
         -2   -1    0    0    0  501 -0.00000000000E+00  0.00000000000E+00  0.53942248742E+02  0.53942248802E+02  0.25500000000E-02 0. -1.
          2   -1    0    0  501    0  0.00000000000E+00 -0.00000000000E+00 -0.10255594313E+04  0.10255594313E+04  0.25500000000E-02 0.  1.
    5000001    1    1    2    0    0  0.17113704781E+03 -0.74058374381E+02 -0.33325146457E+03  0.40244014535E+03  0.12700000000E+03 0.  0.
   -5000001    1    1    2    0    0 -0.17113704781E+03  0.74058374381E+02 -0.63836571796E+03  0.67706153474E+03  0.12700000000E+03 0.  0.
<mgrwt>
<rscale>  0 0.47040826E+03</rscale>
<asrwt>0</asrwt>
<pdfrwt beam="1">  1        2 0.14650848E+00 0.47040826E+03</pdfrwt>
<pdfrwt beam="2">  1       -2 0.77060361E-02 0.47040826E+03</pdfrwt>
<totfact> 0.28311331E+03</totfact>
</mgrwt>
</event>
<event>
 4    1  0.1361667E-004  0.7281866E+03  0.7818608E-02  0.9670208E-01
          2   -1    0    0  501    0  0.00000000000E+00  0.00000000000E+00  0.87845810994E+03  0.87845810994E+03  0.25500000000E-02 0.  1.
         -2   -1    0    0    0  501 -0.00000000000E+00 -0.00000000000E+00 -0.15090525701E+03  0.15090525704E+03  0.25500000000E-02 0. -1.
    5000001    1    1    2    0    0  0.32584629042E+03 -0.10095619334E+03  0.35220658346E+03  0.50650413166E+03  0.12700000000E+03 0.  0.
   -5000001    1    1    2    0    0 -0.32584629042E+03  0.10095619334E+03  0.37534626946E+03  0.52285923531E+03  0.12700000000E+03 0.  0.
<mgrwt>
<rscale>  0 0.72818664E+03</rscale>
<asrwt>0</asrwt>
<pdfrwt beam="1">  1        2 0.12549401E+00 0.72818664E+03</pdfrwt>
<pdfrwt beam="2">  1       -2 0.21557894E-01 0.72818664E+03</pdfrwt>
<totfact> 0.63020527E+02</totfact>
</mgrwt>
</event>
<event>
 4    1  0.1361667E-004  0.3845838E+03  0.7818608E-02  0.1049252E+00
         -2   -1    0    0    0  501 -0.00000000000E+00  0.00000000000E+00  0.16967104879E+02  0.16967105071E+02  0.25500000000E-02 0. -1.
          2   -1    0    0  501    0  0.00000000000E+00 -0.00000000000E+00 -0.21792855522E+04  0.21792855522E+04  0.25500000000E-02 0.  1.
    5000001    1    1    2    0    0  0.31696538896E+02  0.11992507146E+03 -0.15031534497E+04  0.15136003392E+04  0.12700000000E+03 0.  0.
   -5000001    1    1    2    0    0 -0.31696538896E+02 -0.11992507146E+03 -0.65916499762E+03  0.68265231812E+03  0.12700000000E+03 0.  0.
<mgrwt>
<rscale>  0 0.38458376E+03</rscale>
<asrwt>0</asrwt>
<pdfrwt beam="1">  1        2 0.31132633E+00 0.38458376E+03</pdfrwt>
<pdfrwt beam="2">  1       -2 0.24238735E-02 0.38458376E+03</pdfrwt>
<totfact> 0.41917683E+03</totfact>
</mgrwt>
</event>
<event>
 4    1  0.1361667E-004  0.3752081E+03  0.7818608E-02  0.1052719E+00
          2   -1    0    0  501    0  0.00000000000E+00  0.00000000000E+00  0.61261688296E+03  0.61261688297E+03  0.25500000000E-02 0.  1.
         -2   -1    0    0    0  501 -0.00000000000E+00 -0.00000000000E+00 -0.57450719694E+02  0.57450719751E+02  0.25500000000E-02 0. -1.
    5000001    1    1    2    0    0  0.33815756064E+02 -0.13091602538E+03  0.22758645925E+03  0.29361046898E+03  0.12700000000E+03 0.  0.
   -5000001    1    1    2    0    0 -0.33815756064E+02  0.13091602538E+03  0.32757970402E+03  0.37645713374E+03  0.12700000000E+03 0.  0.
<mgrwt>
<rscale>  0 0.37520811E+03</rscale>
<asrwt>0</asrwt>
<pdfrwt beam="1">  1        2 0.87516689E-01 0.37520811E+03</pdfrwt>
<pdfrwt beam="2">  1       -2 0.82072465E-02 0.37520811E+03</pdfrwt>
<totfact> 0.49065125E+03</totfact>
</mgrwt>
</event>
<event>
 4    1  0.1361667E-004  0.3713186E+03  0.7818608E-02  0.1054190E+00
         -2   -1    0    0    0  501 -0.00000000000E+00  0.00000000000E+00  0.61025188906E+02  0.61025188959E+02  0.25500000000E-02 0. -1.
          2   -1    0    0  501    0  0.00000000000E+00 -0.00000000000E+00 -0.56483842954E+03  0.56483842955E+03  0.25500000000E-02 0.  1.
    5000001    1    1    2    0    0 -0.56157542792E+02 -0.11575962071E+03 -0.32314661834E+03  0.37027921403E+03  0.12700000000E+03 0.  0.
   -5000001    1    1    2    0    0  0.56157542792E+02  0.11575962071E+03 -0.18066662230E+03  0.25558440448E+03  0.12700000000E+03 0.  0.
<mgrwt>
<rscale>  0 0.37131858E+03</rscale>
<asrwt>0</asrwt>
<pdfrwt beam="1">  1        2 0.80691201E-01 0.37131858E+03</pdfrwt>
<pdfrwt beam="2">  1       -2 0.87178845E-02 0.37131858E+03</pdfrwt>
<totfact> 0.48958503E+03</totfact>
</mgrwt>
</event>
<event>
 4    1  0.1361667E-004  0.6335210E+03  0.7818608E-02  0.9838202E-01
          2   -1    0    0  501    0  0.00000000000E+00  0.00000000000E+00  0.28468398682E+04  0.28468398682E+04  0.25500000000E-02 0.  1.
         -2   -1    0    0    0  501 -0.00000000000E+00 -0.00000000000E+00 -0.35245115786E+02  0.35245115878E+02  0.25500000000E-02 0. -1.
    5000001    1    1    2    0    0 -0.23488749459E+03 -0.16889463908E+03  0.13029922998E+04  0.13407518292E+04  0.12700000000E+03 0.  0.
   -5000001    1    1    2    0    0  0.23488749459E+03  0.16889463908E+03  0.15086024526E+04  0.15413331549E+04  0.12700000000E+03 0.  0.
<mgrwt>
<rscale>  0 0.63352096E+03</rscale>
<asrwt>0</asrwt>
<pdfrwt beam="1">  1        2 0.40669161E+00 0.63352096E+03</pdfrwt>
<pdfrwt beam="2">  1       -2 0.50350140E-02 0.63352096E+03</pdfrwt>
<totfact> 0.61723971E+02</totfact>
</mgrwt>
</event>
<event>
 4    1  0.1361667E-004  0.4375436E+03  0.7818608E-02  0.1031503E+00
          2   -1    0    0  501    0  0.00000000000E+00  0.00000000000E+00  0.16544692228E+03  0.16544692230E+03  0.25500000000E-02 0.  1.
         -2   -1    0    0    0  501 -0.00000000000E+00 -0.00000000000E+00 -0.28928372909E+03  0.28928372910E+03  0.25500000000E-02 0. -1.
    5000001    1    1    2    0    0 -0.13721251777E+03  0.74347925444E+02  0.27346155351E+02  0.20305590674E+03  0.12700000000E+03 0.  0.
   -5000001    1    1    2    0    0  0.13721251777E+03 -0.74347925444E+02 -0.15118296216E+03  0.25167474466E+03  0.12700000000E+03 0.  0.
<mgrwt>
<rscale>  0 0.43754361E+03</rscale>
<asrwt>0</asrwt>
<pdfrwt beam="1">  1        2 0.23635275E-01 0.43754361E+03</pdfrwt>
<pdfrwt beam="2">  1       -2 0.41326247E-01 0.43754361E+03</pdfrwt>
<totfact> 0.12933483E+03</totfact>
</mgrwt>
</event>
<event>
 4    1  0.1361667E-004  0.3730222E+03  0.7818608E-02  0.1053543E+00
         -2   -1    0    0    0  501 -0.00000000000E+00  0.00000000000E+00  0.10428324009E+03  0.10428324012E+03  0.25500000000E-02 0. -1.
          2   -1    0    0  501    0  0.00000000000E+00 -0.00000000000E+00 -0.33357610000E+03  0.33357610001E+03  0.25500000000E-02 0.  1.
    5000001    1    1    2    0    0  0.97778152266E+02 -0.31799190692E+02 -0.90966999073E+01  0.16365666970E+03  0.12700000000E+03 0.  0.
   -5000001    1    1    2    0    0 -0.97778152266E+02  0.31799190692E+02 -0.22019616000E+03  0.27420267042E+03  0.12700000000E+03 0.  0.
<mgrwt>
<rscale>  0 0.37302223E+03</rscale>
<asrwt>0</asrwt>
<pdfrwt beam="1">  1        2 0.47653728E-01 0.37302223E+03</pdfrwt>
<pdfrwt beam="2">  1       -2 0.14897606E-01 0.37302223E+03</pdfrwt>
<totfact> 0.36764923E+03</totfact>
</mgrwt>
</event>
<event>
 4    1  0.1361667E-004  0.7140336E+03  0.7818608E-02  0.9693529E-01
         -2   -1    0    0    0  501 -0.00000000000E+00  0.00000000000E+00  0.11003082398E+03  0.11003082401E+03  0.25500000000E-02 0. -1.
          2   -1    0    0  501    0  0.00000000000E+00 -0.00000000000E+00 -0.11584115838E+04  0.11584115838E+04  0.25500000000E-02 0.  1.
    5000001    1    1    2    0    0  0.21199066520E+02  0.32869567425E+03 -0.42949171166E+03  0.55595177585E+03  0.12700000000E+03 0.  0.
   -5000001    1    1    2    0    0 -0.21199066520E+02 -0.32869567425E+03 -0.61888904811E+03  0.71249063191E+03  0.12700000000E+03 0.  0.
<mgrwt>
<rscale>  0 0.71403356E+03</rscale>
<asrwt>0</asrwt>
<pdfrwt beam="1">  1        2 0.16548736E+00 0.71403356E+03</pdfrwt>
<pdfrwt beam="2">  1       -2 0.15718690E-01 0.71403356E+03</pdfrwt>
<totfact> 0.73485301E+02</totfact>
</mgrwt>
</event>
<event>
 4    1  0.1361667E-004  0.5847977E+03  0.7818608E-02  0.9937458E-01
         -2   -1    0    0    0  501 -0.00000000000E+00  0.00000000000E+00  0.21307444251E+02  0.21307444404E+02  0.25500000000E-02 0. -1.
          2   -1    0    0  501    0  0.00000000000E+00 -0.00000000000E+00 -0.40125448742E+04  0.40125448742E+04  0.25500000000E-02 0.  1.
    5000001    1    1    2    0    0 -0.21359450758E+03 -0.20485114668E+01 -0.30584548404E+04  0.30685341485E+04  0.12700000000E+03 0.  0.
   -5000001    1    1    2    0    0  0.21359450758E+03  0.20485114668E+01 -0.93278258955E+03  0.96531817005E+03  0.12700000000E+03 0.  0.
<mgrwt>
<rscale>  0 0.58479766E+03</rscale>
<asrwt>0</asrwt>
<pdfrwt beam="1">  1        2 0.57322021E+00 0.58479766E+03</pdfrwt>
<pdfrwt beam="2">  1       -2 0.30439232E-02 0.58479766E+03</pdfrwt>
<totfact> 0.27532398E+02</totfact>
</mgrwt>
</event>
<event>
 4    1  0.1361667E-004  0.6178346E+03  0.7818608E-02  0.9869080E-01
          2   -1    0    0  501    0  0.00000000000E+00  0.00000000000E+00  0.34540046946E+03  0.34540046947E+03  0.25500000000E-02 0.  1.
         -2   -1    0    0    0  501 -0.00000000000E+00 -0.00000000000E+00 -0.27628771721E+03  0.27628771722E+03  0.25500000000E-02 0. -1.
    5000001    1    1    2    0    0  0.23599251980E+03  0.13663703802E+03  0.10527099862E+03  0.31870540113E+03  0.12700000000E+03 0.  0.
   -5000001    1    1    2    0    0 -0.23599251980E+03 -0.13663703802E+03 -0.36158246368E+02  0.30298278555E+03  0.12700000000E+03 0.  0.
<mgrwt>
<rscale>  0 0.61783463E+03</rscale>
<asrwt>0</asrwt>
<pdfrwt beam="1">  1        2 0.49342924E-01 0.61783463E+03</pdfrwt>
<pdfrwt beam="2">  1       -2 0.39469674E-01 0.61783463E+03</pdfrwt>
<totfact> 0.62254449E+02</totfact>
</mgrwt>
</event>
<event>
 4    1  0.1361667E-004  0.4535391E+03  0.7818608E-02  0.1026672E+00
          2   -1    0    0  501    0  0.00000000000E+00  0.00000000000E+00  0.12259146719E+03  0.12259146721E+03  0.25500000000E-02 0.  1.
         -2   -1    0    0    0  501 -0.00000000000E+00 -0.00000000000E+00 -0.41947805536E+03  0.41947805537E+03  0.25500000000E-02 0. -1.
    5000001    1    1    2    0    0 -0.17942354726E+03 -0.45936414562E+02 -0.11079041082E+03  0.25041261674E+03  0.12700000000E+03 0.  0.
   -5000001    1    1    2    0    0  0.17942354726E+03  0.45936414562E+02 -0.18609617736E+03  0.29165690584E+03  0.12700000000E+03 0.  0.
<mgrwt>
<rscale>  0 0.45353911E+03</rscale>
<asrwt>0</asrwt>
<pdfrwt beam="1">  1        2 0.17513067E-01 0.45353911E+03</pdfrwt>
<pdfrwt beam="2">  1       -2 0.59925436E-01 0.45353911E+03</pdfrwt>
<totfact> 0.86652877E+02</totfact>
</mgrwt>
</event>
<event>
 4    1  0.1361667E-004  0.2841819E+03  0.7818608E-02  0.1093427E+00
         -2   -1    0    0    0  501 -0.00000000000E+00  0.00000000000E+00  0.83824912837E+01  0.83824916716E+01  0.25500000000E-02 0. -1.
          2   -1    0    0  501    0  0.00000000000E+00 -0.00000000000E+00 -0.24085721682E+04  0.24085721682E+04  0.25500000000E-02 0.  1.
    5000001    1    1    2    0    0 -0.55064302137E+02 -0.22953830265E+02 -0.10095610281E+04  0.10192651397E+04  0.12700000000E+03 0.  0.
   -5000001    1    1    2    0    0  0.55064302137E+02  0.22953830265E+02 -0.13906286488E+04  0.13976895201E+04  0.12700000000E+03 0.  0.
<mgrwt>
<rscale>  0 0.28418188E+03</rscale>
<asrwt>0</asrwt>
<pdfrwt beam="1">  1        2 0.34408130E+00 0.28418188E+03</pdfrwt>
<pdfrwt beam="2">  1       -2 0.11975003E-02 0.28418188E+03</pdfrwt>
<totfact> 0.91333035E+03</totfact>
</mgrwt>
</event>
<event>
 4    1  0.1361667E-004  0.6299560E+03  0.7818608E-02  0.9845135E-01
          2   -1    0    0  501    0  0.00000000000E+00  0.00000000000E+00  0.28347037715E+03  0.28347037716E+03  0.25500000000E-02 0.  1.
         -2   -1    0    0    0  501 -0.00000000000E+00 -0.00000000000E+00 -0.34998769260E+03  0.34998769261E+03  0.25500000000E-02 0. -1.
    5000001    1    1    2    0    0 -0.25249909718E+03 -0.98216097102E+02 -0.13219233450E+03  0.32711772974E+03  0.12700000000E+03 0.  0.
   -5000001    1    1    2    0    0  0.25249909718E+03  0.98216097102E+02  0.65675019041E+02  0.30634034004E+03  0.12700000000E+03 0.  0.
<mgrwt>
<rscale>  0 0.62995601E+03</rscale>
<asrwt>0</asrwt>
<pdfrwt beam="1">  1        2 0.40495769E-01 0.62995601E+03</pdfrwt>
<pdfrwt beam="2">  1       -2 0.49998241E-01 0.62995601E+03</pdfrwt>
<totfact> 0.48463454E+02</totfact>
</mgrwt>
</event>
<event>
 4    1  0.1361667E-004  0.2846265E+03  0.7818608E-02  0.1093189E+00
         -2   -1    0    0    0  501 -0.00000000000E+00  0.00000000000E+00  0.13110516515E+02  0.13110516763E+02  0.25500000000E-02 0. -1.
          2   -1    0    0  501    0  0.00000000000E+00 -0.00000000000E+00 -0.15447947442E+04  0.15447947442E+04  0.25500000000E-02 0.  1.
    5000001    1    1    2    0    0  0.42979489133E+02  0.34451667880E+02 -0.58514145480E+03  0.60129333609E+03  0.12700000000E+03 0.  0.
   -5000001    1    1    2    0    0 -0.42979489133E+02 -0.34451667880E+02 -0.94654277290E+03  0.95661192489E+03  0.12700000000E+03 0.  0.
<mgrwt>
<rscale>  0 0.28462647E+03</rscale>
<asrwt>0</asrwt>
<pdfrwt beam="1">  1        2 0.22068485E+00 0.28462647E+03</pdfrwt>
<pdfrwt beam="2">  1       -2 0.18729319E-02 0.28462647E+03</pdfrwt>
<totfact> 0.12618960E+04</totfact>
</mgrwt>
</event>
<event>
 4    1  0.1361667E-004  0.4522811E+03  0.7818608E-02  0.1027044E+00
         -2   -1    0    0    0  501 -0.00000000000E+00  0.00000000000E+00  0.97079023815E+02  0.97079023849E+02  0.25500000000E-02 0. -1.
          2   -1    0    0  501    0  0.00000000000E+00 -0.00000000000E+00 -0.52678267474E+03  0.52678267475E+03  0.25500000000E-02 0.  1.
    5000001    1    1    2    0    0  0.18508095641E+03  0.26283248779E+02 -0.22595365315E+03  0.31957756955E+03  0.12700000000E+03 0.  0.
   -5000001    1    1    2    0    0 -0.18508095641E+03 -0.26283248779E+02 -0.20374999778E+03  0.30428412905E+03  0.12700000000E+03 0.  0.
<mgrwt>
<rscale>  0 0.45228110E+03</rscale>
<asrwt>0</asrwt>
<pdfrwt beam="1">  1        2 0.75254666E-01 0.45228110E+03</pdfrwt>
<pdfrwt beam="2">  1       -2 0.13868432E-01 0.45228110E+03</pdfrwt>
<totfact> 0.25068651E+03</totfact>
</mgrwt>
</event>
<event>
 4    1  0.1361667E-004  0.6619236E+03  0.7818608E-02  0.9784659E-01
          2   -1    0    0  501    0  0.00000000000E+00  0.00000000000E+00  0.25361056649E+04  0.25361056649E+04  0.25500000000E-02 0.  1.
         -2   -1    0    0    0  501 -0.00000000000E+00 -0.00000000000E+00 -0.43190522393E+02  0.43190522468E+02  0.25500000000E-02 0. -1.
    5000001    1    1    2    0    0 -0.20406188837E+03 -0.21279559045E+03  0.15602181996E+04  0.15929008281E+04  0.12700000000E+03 0.  0.
   -5000001    1    1    2    0    0  0.20406188837E+03  0.21279559045E+03  0.93269694288E+03  0.98639535931E+03  0.12700000000E+03 0.  0.
<mgrwt>
<rscale>  0 0.66192365E+03</rscale>
<asrwt>0</asrwt>
<pdfrwt beam="1">  1        2 0.36230078E+00 0.66192365E+03</pdfrwt>
<pdfrwt beam="2">  1       -2 0.61700751E-02 0.66192365E+03</pdfrwt>
<totfact> 0.65225568E+02</totfact>
</mgrwt>
</event>
<event>
 4    1  0.1361667E-004  0.4351133E+03  0.7818608E-02  0.1032257E+00
          2   -1    0    0  501    0  0.00000000000E+00  0.00000000000E+00  0.18557826179E+04  0.18557826179E+04  0.25500000000E-02 0.  1.
         -2   -1    0    0    0  501 -0.00000000000E+00 -0.00000000000E+00 -0.25504544690E+02  0.25504544817E+02  0.25500000000E-02 0. -1.
    5000001    1    1    2    0    0 -0.16057154602E+03 -0.73604905403E+02  0.91084281512E+03  0.93646384733E+03  0.12700000000E+03 0.  0.
   -5000001    1    1    2    0    0  0.16057154602E+03  0.73604905403E+02  0.91943525809E+03  0.94482331540E+03  0.12700000000E+03 0.  0.
<mgrwt>
<rscale>  0 0.43511328E+03</rscale>
<asrwt>0</asrwt>
<pdfrwt beam="1">  1        2 0.26511183E+00 0.43511328E+03</pdfrwt>
<pdfrwt beam="2">  1       -2 0.36435060E-02 0.43511328E+03</pdfrwt>
<totfact> 0.32791279E+03</totfact>
</mgrwt>
</event>
<event>
 4    1  0.1361667E-004  0.1172872E+04  0.7818608E-02  0.9136939E-01
         -2   -1    0    0    0  501 -0.00000000000E+00  0.00000000000E+00  0.23544382819E+03  0.23544382820E+03  0.25500000000E-02 0. -1.
          2   -1    0    0  501    0  0.00000000000E+00 -0.00000000000E+00 -0.14606753604E+04  0.14606753604E+04  0.25500000000E-02 0.  1.
    5000001    1    1    2    0    0  0.31172445603E+03  0.45076003010E+03 -0.85208490212E+03  0.10210457490E+04  0.12700000000E+03 0.  0.
   -5000001    1    1    2    0    0 -0.31172445603E+03 -0.45076003010E+03 -0.37314663006E+03  0.67507343952E+03  0.12700000000E+03 0.  0.
<mgrwt>
<rscale>  0 0.11728717E+04</rscale>
<asrwt>0</asrwt>
<pdfrwt beam="1">  1        2 0.20866790E+00 0.11728717E+04</pdfrwt>
<pdfrwt beam="2">  1       -2 0.33634833E-01 0.11728717E+04</pdfrwt>
<totfact> 0.12521507E+02</totfact>
</mgrwt>
</event>
<event>
 4    1  0.1361667E-004  0.9022795E+03  0.7818608E-02  0.9422736E-01
          2   -1    0    0  501    0  0.00000000000E+00  0.00000000000E+00  0.19889780700E+04  0.19889780700E+04  0.25500000000E-02 0.  1.
         -2   -1    0    0    0  501 -0.00000000000E+00 -0.00000000000E+00 -0.10232745536E+03  0.10232745539E+03  0.25500000000E-02 0. -1.
    5000001    1    1    2    0    0 -0.19719935999E+03  0.37419379333E+03  0.11568838774E+04  0.12383125164E+04  0.12700000000E+03 0.  0.
   -5000001    1    1    2    0    0  0.19719935999E+03 -0.37419379333E+03  0.72976673724E+03  0.85299300896E+03  0.12700000000E+03 0.  0.
<mgrwt>
<rscale>  0 0.90227948E+03</rscale>
<asrwt>0</asrwt>
<pdfrwt beam="1">  1        2 0.28413972E+00 0.90227948E+03</pdfrwt>
<pdfrwt beam="2">  1       -2 0.14618208E-01 0.90227948E+03</pdfrwt>
<totfact> 0.30016366E+02</totfact>
</mgrwt>
</event>
<event>
 4    1  0.1361667E-004  0.6359244E+03  0.7818608E-02  0.9833556E-01
         -2   -1    0    0    0  501 -0.00000000000E+00  0.00000000000E+00  0.14856449021E+03  0.14856449024E+03  0.25500000000E-02 0. -1.
          2   -1    0    0  501    0  0.00000000000E+00 -0.00000000000E+00 -0.68051219232E+03  0.68051219233E+03  0.25500000000E-02 0.  1.
    5000001    1    1    2    0    0 -0.14866646371E+03  0.10829687135E+03  0.28857676312E+02  0.22537012947E+03  0.12700000000E+03 0.  0.
   -5000001    1    1    2    0    0  0.14866646371E+03 -0.10829687135E+03 -0.56080537842E+03  0.60370655309E+03  0.12700000000E+03 0.  0.
<mgrwt>
<rscale>  0 0.63592436E+03</rscale>
<asrwt>0</asrwt>
<pdfrwt beam="1">  1        2 0.97216026E-01 0.63592436E+03</pdfrwt>
<pdfrwt beam="2">  1       -2 0.21223499E-01 0.63592436E+03</pdfrwt>
<totfact> 0.89808917E+02</totfact>
</mgrwt>
</event>
<event>
 4    1  0.1361667E-004  0.3755053E+03  0.7818608E-02  0.1052608E+00
          2   -1    0    0  501    0  0.00000000000E+00  0.00000000000E+00  0.11038847844E+04  0.11038847844E+04  0.25500000000E-02 0.  1.
         -2   -1    0    0    0  501 -0.00000000000E+00 -0.00000000000E+00 -0.31933642336E+02  0.31933642438E+02  0.25500000000E-02 0. -1.
    5000001    1    1    2    0    0  0.66152150546E+02  0.11868777700E+03  0.61363431842E+03  0.64120119477E+03  0.12700000000E+03 0.  0.
   -5000001    1    1    2    0    0 -0.66152150546E+02 -0.11868777700E+03  0.45831682368E+03  0.49461723211E+03  0.12700000000E+03 0.  0.
<mgrwt>
<rscale>  0 0.37550532E+03</rscale>
<asrwt>0</asrwt>
<pdfrwt beam="1">  1        2 0.15769782E+00 0.37550532E+03</pdfrwt>
<pdfrwt beam="2">  1       -2 0.45619492E-02 0.37550532E+03</pdfrwt>
<totfact> 0.57392080E+03</totfact>
</mgrwt>
</event>
<event>
 4    1  0.1361667E-004  0.1093010E+04  0.7818608E-02  0.9212031E-01
          2   -1    0    0  501    0  0.00000000000E+00  0.00000000000E+00  0.94609702888E+03  0.94609702888E+03  0.25500000000E-02 0.  1.
         -2   -1    0    0    0  501 -0.00000000000E+00 -0.00000000000E+00 -0.31568416448E+03  0.31568416449E+03  0.25500000000E-02 0. -1.
    5000001    1    1    2    0    0  0.15353556056E+03  0.32129702197E+03  0.77077253677E+03  0.85850116372E+03  0.12700000000E+03 0.  0.
   -5000001    1    1    2    0    0 -0.15353556056E+03 -0.32129702197E+03 -0.14035967237E+03  0.40328002965E+03  0.12700000000E+03 0.  0.
<mgrwt>
<rscale>  0 0.10930102E+04</rscale>
<asrwt>0</asrwt>
<pdfrwt beam="1">  1        2 0.13515672E+00 0.10930102E+04</pdfrwt>
<pdfrwt beam="2">  1       -2 0.45097737E-01 0.10930102E+04</pdfrwt>
<totfact> 0.14052939E+02</totfact>
</mgrwt>
</event>
<event>
 4    1  0.1361667E-004  0.2788883E+03  0.7818608E-02  0.1096298E+00
         -2   -1    0    0    0  501 -0.00000000000E+00  0.00000000000E+00  0.43666813864E+02  0.43666813938E+02  0.25500000000E-02 0. -1.
          2   -1    0    0  501    0  0.00000000000E+00 -0.00000000000E+00 -0.44529640347E+03  0.44529640347E+03  0.25500000000E-02 0.  1.
    5000001    1    1    2    0    0  0.98530959423E+00 -0.34282340955E+02 -0.11971972969E+03  0.17787091784E+03  0.12700000000E+03 0.  0.
   -5000001    1    1    2    0    0 -0.98530959423E+00  0.34282340955E+02 -0.28190985992E+03  0.31109229957E+03  0.12700000000E+03 0.  0.
<mgrwt>
<rscale>  0 0.27888833E+03</rscale>
<asrwt>0</asrwt>
<pdfrwt beam="1">  1        2 0.63613769E-01 0.27888833E+03</pdfrwt>
<pdfrwt beam="2">  1       -2 0.62381165E-02 0.27888833E+03</pdfrwt>
<totfact> 0.10662083E+04</totfact>
</mgrwt>
</event>
<event>
 4    1  0.1361667E-004  0.2887666E+03  0.7818608E-02  0.1090995E+00
         -2   -1    0    0    0  501 -0.00000000000E+00  0.00000000000E+00  0.68906441386E+01  0.68906446104E+01  0.25500000000E-02 0. -1.
          2   -1    0    0  501    0  0.00000000000E+00 -0.00000000000E+00 -0.30253403376E+04  0.30253403376E+04  0.25500000000E-02 0.  1.
    5000001    1    1    2    0    0  0.18266920293E+02 -0.20097935620E+02 -0.21716752152E+04  0.21755550666E+04  0.12700000000E+03 0.  0.
   -5000001    1    1    2    0    0 -0.18266920293E+02  0.20097935620E+02 -0.84677447821E+03  0.85667591559E+03  0.12700000000E+03 0.  0.
<mgrwt>
<rscale>  0 0.28876665E+03</rscale>
<asrwt>0</asrwt>
<pdfrwt beam="1">  1        2 0.43219062E+00 0.28876665E+03</pdfrwt>
<pdfrwt beam="2">  1       -2 0.98437971E-03 0.28876665E+03</pdfrwt>
<totfact> 0.58691830E+03</totfact>
</mgrwt>
</event>
<event>
 4    1  0.1361667E-004  0.3350349E+03  0.7818608E-02  0.1068931E+00
          2   -1    0    0  501    0  0.00000000000E+00  0.00000000000E+00  0.65408213116E+03  0.65408213117E+03  0.25500000000E-02 0.  1.
         -2   -1    0    0    0  501 -0.00000000000E+00 -0.00000000000E+00 -0.42903020150E+02  0.42903020226E+02  0.25500000000E-02 0. -1.
    5000001    1    1    2    0    0  0.13161505144E+02 -0.76024854085E+02  0.46646416466E+03  0.48956186593E+03  0.12700000000E+03 0.  0.
   -5000001    1    1    2    0    0 -0.13161505144E+02  0.76024854085E+02  0.14471494635E+03  0.20742328546E+03  0.12700000000E+03 0.  0.
<mgrwt>
<rscale>  0 0.33503492E+03</rscale>
<asrwt>0</asrwt>
<pdfrwt beam="1">  1        2 0.93440295E-01 0.33503492E+03</pdfrwt>
<pdfrwt beam="2">  1       -2 0.61290035E-02 0.33503492E+03</pdfrwt>
<totfact> 0.71496312E+03</totfact>
</mgrwt>
</event>
<event>
 4    1  0.1361667E-004  0.4149615E+03  0.7818608E-02  0.1038719E+00
          2   -1    0    0  501    0  0.00000000000E+00  0.00000000000E+00  0.11769292078E+04  0.11769292078E+04  0.25500000000E-02 0.  1.
         -2   -1    0    0    0  501 -0.00000000000E+00 -0.00000000000E+00 -0.36576757865E+02  0.36576757954E+02  0.25500000000E-02 0. -1.
    5000001    1    1    2    0    0 -0.63236708389E+02 -0.11297961632E+03  0.86488635104E+03  0.88369716261E+03  0.12700000000E+03 0.  0.
   -5000001    1    1    2    0    0  0.63236708389E+02  0.11297961632E+03  0.27546609890E+03  0.32980880315E+03  0.12700000000E+03 0.  0.
<mgrwt>
<rscale>  0 0.41496147E+03</rscale>
<asrwt>0</asrwt>
<pdfrwt beam="1">  1        2 0.16813275E+00 0.41496147E+03</pdfrwt>
<pdfrwt beam="2">  1       -2 0.52252509E-02 0.41496147E+03</pdfrwt>
<totfact> 0.42442833E+03</totfact>
</mgrwt>
</event>
<event>
 4    1  0.1361667E-004  0.5095824E+03  0.7818608E-02  0.1011308E+00
         -2   -1    0    0    0  501 -0.00000000000E+00  0.00000000000E+00  0.83658658916E+02  0.83658658955E+02  0.25500000000E-02 0. -1.
          2   -1    0    0  501    0  0.00000000000E+00 -0.00000000000E+00 -0.77599339621E+03  0.77599339621E+03  0.25500000000E-02 0.  1.
    5000001    1    1    2    0    0  0.21885896641E+03  0.28288057830E+02 -0.33015395787E+03  0.41692936727E+03  0.12700000000E+03 0.  0.
   -5000001    1    1    2    0    0 -0.21885896641E+03 -0.28288057830E+02 -0.36218077942E+03  0.44272268789E+03  0.12700000000E+03 0.  0.
<mgrwt>
<rscale>  0 0.50958244E+03</rscale>
<asrwt>0</asrwt>
<pdfrwt beam="1">  1        2 0.11085620E+00 0.50958244E+03</pdfrwt>
<pdfrwt beam="2">  1       -2 0.11951237E-01 0.50958244E+03</pdfrwt>
<totfact> 0.20230519E+03</totfact>
</mgrwt>
</event>
<event>
 4    1  0.1361667E-004  0.3517775E+03  0.7818608E-02  0.1061888E+00
         -2   -1    0    0    0  501 -0.00000000000E+00  0.00000000000E+00  0.29792746857E+02  0.29792746966E+02  0.25500000000E-02 0. -1.
          2   -1    0    0  501    0  0.00000000000E+00 -0.00000000000E+00 -0.10384023508E+04  0.10384023508E+04  0.25500000000E-02 0.  1.
    5000001    1    1    2    0    0  0.27642709146E+02 -0.11497120839E+03 -0.41706708953E+03  0.45172608437E+03  0.12700000000E+03 0.  0.
   -5000001    1    1    2    0    0 -0.27642709146E+02  0.11497120839E+03 -0.59154251444E+03  0.61646901343E+03  0.12700000000E+03 0.  0.
<mgrwt>
<rscale>  0 0.35177753E+03</rscale>
<asrwt>0</asrwt>
<pdfrwt beam="1">  1        2 0.14834317E+00 0.35177753E+03</pdfrwt>
<pdfrwt beam="2">  1       -2 0.42561073E-02 0.35177753E+03</pdfrwt>
<totfact> 0.69512431E+03</totfact>
</mgrwt>
</event>
<event>
 4    1  0.1361667E-004  0.5892079E+03  0.7818608E-02  0.9928053E-01
         -2   -1    0    0    0  501 -0.00000000000E+00  0.00000000000E+00  0.33985363482E+03  0.33985363482E+03  0.25500000000E-02 0.  1.
          2   -1    0    0  501    0  0.00000000000E+00 -0.00000000000E+00 -0.25537901108E+03  0.25537901109E+03  0.25500000000E-02 0. -1.
    5000001    1    1    2    0    0 -0.19924947098E+02 -0.23546524374E+03  0.16522616180E+03  0.31507073661E+03  0.12700000000E+03 0.  0.
   -5000001    1    1    2    0    0  0.19924947098E+02  0.23546524374E+03 -0.80751538063E+02  0.28016190930E+03  0.12700000000E+03 0.  0.
<mgrwt>
<rscale>  0 0.58920789E+03</rscale>
<asrwt>0</asrwt>
<pdfrwt beam="1">  1        2 0.36482716E-01 0.58920789E+03</pdfrwt>
<pdfrwt beam="2">  1       -2 0.48550519E-01 0.58920789E+03</pdfrwt>
<totfact> 0.57775105E+02</totfact>
</mgrwt>
</event>
<event>
 4    1  0.1361667E-004  0.7313685E+03  0.7818608E-02  0.9665042E-01
          2   -1    0    0  501    0  0.00000000000E+00  0.00000000000E+00  0.18422813568E+04  0.18422813568E+04  0.25500000000E-02 0.  1.
         -2   -1    0    0    0  501 -0.00000000000E+00 -0.00000000000E+00 -0.72586615883E+02  0.72586615927E+02  0.25500000000E-02 0. -1.
    5000001    1    1    2    0    0  0.30750507748E+03 -0.15135517695E+03  0.91449284508E+03  0.98483192778E+03  0.12700000000E+03 0.  0.
   -5000001    1    1    2    0    0 -0.30750507748E+03  0.15135517695E+03  0.85520189581E+03  0.93003604493E+03  0.12700000000E+03 0.  0.
<mgrwt>
<rscale>  0 0.73136850E+03</rscale>
<asrwt>0</asrwt>
<pdfrwt beam="1">  1        2 0.26318304E+00 0.73136850E+03</pdfrwt>
<pdfrwt beam="2">  1       -2 0.10369517E-01 0.73136850E+03</pdfrwt>
<totfact> 0.63695993E+02</totfact>
</mgrwt>
</event>
<event>
 4    1  0.1361667E-004  0.3689443E+03  0.7818608E-02  0.1055097E+00
          2   -1    0    0  501    0  0.00000000000E+00  0.00000000000E+00  0.85134597607E+03  0.85134597607E+03  0.25500000000E-02 0.  1.
         -2   -1    0    0    0  501 -0.00000000000E+00 -0.00000000000E+00 -0.39971974627E+02  0.39971974708E+02  0.25500000000E-02 0. -1.
    5000001    1    1    2    0    0  0.83954499945E+02  0.68379665787E+02  0.21581754975E+03  0.27281926533E+03  0.12700000000E+03 0.  0.
   -5000001    1    1    2    0    0 -0.83954499945E+02 -0.68379665787E+02  0.59555645170E+03  0.61849868546E+03  0.12700000000E+03 0.  0.
<mgrwt>
<rscale>  0 0.36894433E+03</rscale>
<asrwt>0</asrwt>
<pdfrwt beam="1">  1        2 0.12162086E+00 0.36894433E+03</pdfrwt>
<pdfrwt beam="2">  1       -2 0.57102817E-02 0.36894433E+03</pdfrwt>
<totfact> 0.57881057E+03</totfact>
</mgrwt>
</event>
<event>
 4    1  0.1361667E-004  0.7738975E+03  0.7818608E-02  0.9598587E-01
         -2   -1    0    0    0  501 -0.00000000000E+00  0.00000000000E+00  0.18269151855E+03  0.18269151857E+03  0.25500000000E-02 0. -1.
          2   -1    0    0  501    0  0.00000000000E+00 -0.00000000000E+00 -0.81957468413E+03  0.81957468414E+03  0.25500000000E-02 0.  1.
    5000001    1    1    2    0    0  0.15302640298E+03  0.24665571313E+03 -0.30756206517E+02  0.31832540751E+03  0.12700000000E+03 0.  0.
   -5000001    1    1    2    0    0 -0.15302640298E+03 -0.24665571313E+03 -0.60612695907E+03  0.68394079520E+03  0.12700000000E+03 0.  0.
<mgrwt>
<rscale>  0 0.77389752E+03</rscale>
<asrwt>0</asrwt>
<pdfrwt beam="1">  1        2 0.11708210E+00 0.77389752E+03</pdfrwt>
<pdfrwt beam="2">  1       -2 0.26098789E-01 0.77389752E+03</pdfrwt>
<totfact> 0.48967446E+02</totfact>
</mgrwt>
</event>
<event>
 4    1  0.1361667E-004  0.4476791E+03  0.7818608E-02  0.1028416E+00
          2   -1    0    0  501    0  0.00000000000E+00  0.00000000000E+00  0.23077189096E+04  0.23077189096E+04  0.25500000000E-02 0.  1.
         -2   -1    0    0    0  501 -0.00000000000E+00 -0.00000000000E+00 -0.21711546166E+02  0.21711546316E+02  0.25500000000E-02 0. -1.
    5000001    1    1    2    0    0 -0.15840976501E+03  0.68888952019E+02  0.80837518617E+03  0.83632456796E+03  0.12700000000E+03 0.  0.
   -5000001    1    1    2    0    0  0.15840976501E+03 -0.68888952019E+02  0.14776321773E+04  0.14931058880E+04  0.12700000000E+03 0.  0.
<mgrwt>
<rscale>  0 0.44767911E+03</rscale>
<asrwt>0</asrwt>
<pdfrwt beam="1">  1        2 0.32967423E+00 0.44767911E+03</pdfrwt>
<pdfrwt beam="2">  1       -2 0.31016485E-02 0.44767911E+03</pdfrwt>
<totfact> 0.24921548E+03</totfact>
</mgrwt>
</event>
<event>
 4    1  0.1361667E-004  0.2905563E+03  0.7818608E-02  0.1090059E+00
          2   -1    0    0  501    0  0.00000000000E+00  0.00000000000E+00  0.64326893627E+02  0.64326893678E+02  0.25500000000E-02 0.  1.
         -2   -1    0    0    0  501 -0.00000000000E+00 -0.00000000000E+00 -0.32810128721E+03  0.32810128722E+03  0.25500000000E-02 0. -1.
    5000001    1    1    2    0    0  0.30867041098E+02 -0.62660798932E+02 -0.11854506668E+03  0.18724604878E+03  0.12700000000E+03 0.  0.
   -5000001    1    1    2    0    0 -0.30867041098E+02  0.62660798932E+02 -0.14522932691E+03  0.20518213212E+03  0.12700000000E+03 0.  0.
<mgrwt>
<rscale>  0 0.29055627E+03</rscale>
<asrwt>0</asrwt>
<pdfrwt beam="1">  1        2 0.91895564E-02 0.29055627E+03</pdfrwt>
<pdfrwt beam="2">  1       -2 0.46871611E-01 0.29055627E+03</pdfrwt>
<totfact> 0.31103375E+03</totfact>
</mgrwt>
</event>
<event>
 4    1  0.1361667E-004  0.2916664E+03  0.7818608E-02  0.1089482E+00
         -2   -1    0    0    0  501 -0.00000000000E+00  0.00000000000E+00  0.63971060569E+01  0.63971065652E+01  0.25500000000E-02 0. -1.
          2   -1    0    0  501    0  0.00000000000E+00 -0.00000000000E+00 -0.33245229309E+04  0.33245229309E+04  0.25500000000E-02 0.  1.
    5000001    1    1    2    0    0  0.98830045315E+01 -0.57294159082E+02 -0.11802220863E+04  0.11884584417E+04  0.12700000000E+03 0.  0.
   -5000001    1    1    2    0    0 -0.98830045315E+01  0.57294159082E+02 -0.21379037385E+04  0.21424615958E+04  0.12700000000E+03 0.  0.
<mgrwt>
<rscale>  0 0.29166643E+03</rscale>
<asrwt>0</asrwt>
<pdfrwt beam="1">  1        2 0.47493074E+00 0.29166643E+03</pdfrwt>
<pdfrwt beam="2">  1       -2 0.91387446E-03 0.29166643E+03</pdfrwt>
<totfact> 0.44865663E+03</totfact>
</mgrwt>
</event>
<event>
 4    1  0.1361667E-004  0.3091096E+03  0.7818608E-02  0.1080773E+00
          2   -1    0    0  501    0  0.00000000000E+00  0.00000000000E+00  0.43220595111E+03  0.43220595111E+03  0.25500000000E-02 0.  1.
         -2   -1    0    0    0  501 -0.00000000000E+00 -0.00000000000E+00 -0.55268065563E+02  0.55268065622E+02  0.25500000000E-02 0. -1.
    5000001    1    1    2    0    0 -0.80914715457E+01  0.87664707008E+02  0.18411735206E+03  0.24037215333E+03  0.12700000000E+03 0.  0.
   -5000001    1    1    2    0    0  0.80914715457E+01 -0.87664707008E+02  0.19282053348E+03  0.24710186341E+03  0.12700000000E+03 0.  0.
<mgrwt>
<rscale>  0 0.30910960E+03</rscale>
<asrwt>0</asrwt>
<pdfrwt beam="1">  1        2 0.61743704E-01 0.30910960E+03</pdfrwt>
<pdfrwt beam="2">  1       -2 0.78954383E-02 0.30910960E+03</pdfrwt>
<totfact> 0.76716335E+03</totfact>
</mgrwt>
</event>
<event>
 4    1  0.1361667E-004  0.3276361E+03  0.7818608E-02  0.1072188E+00
         -2   -1    0    0    0  501 -0.00000000000E+00  0.00000000000E+00  0.22472614725E+02  0.22472614870E+02  0.25500000000E-02 0. -1.
          2   -1    0    0  501    0  0.00000000000E+00 -0.00000000000E+00 -0.11941801287E+04  0.11941801287E+04  0.25500000000E-02 0.  1.
    5000001    1    1    2    0    0  0.10129641525E+03 -0.18636817514E+02 -0.54889529987E+03  0.57273322318E+03  0.12700000000E+03 0.  0.
   -5000001    1    1    2    0    0 -0.10129641525E+03  0.18636817514E+02 -0.62281221411E+03  0.64391952040E+03  0.12700000000E+03 0.  0.
<mgrwt>
<rscale>  0 0.32763608E+03</rscale>
<asrwt>0</asrwt>
<pdfrwt beam="1">  1        2 0.17059712E+00 0.32763608E+03</pdfrwt>
<pdfrwt beam="2">  1       -2 0.32103743E-02 0.32763608E+03</pdfrwt>
<totfact> 0.86714635E+03</totfact>
</mgrwt>
</event>
<event>
 4    1  0.1361667E-004  0.3994351E+03  0.7818608E-02  0.1043975E+00
         -2   -1    0    0    0  501 -0.00000000000E+00  0.00000000000E+00  0.20430676756E+02  0.20430676915E+02  0.25500000000E-02 0. -1.
          2   -1    0    0  501    0  0.00000000000E+00 -0.00000000000E+00 -0.19523143730E+04  0.19523143730E+04  0.25500000000E-02 0.  1.
    5000001    1    1    2    0    0 -0.15340588836E+03 -0.14741227538E+01 -0.10396223506E+04  0.10585268875E+04  0.12700000000E+03 0.  0.
   -5000001    1    1    2    0    0  0.15340588836E+03  0.14741227538E+01 -0.89226134564E+03  0.91421816244E+03  0.12700000000E+03 0.  0.
<mgrwt>
<rscale>  0 0.39943512E+03</rscale>
<asrwt>0</asrwt>
<pdfrwt beam="1">  1        2 0.27890193E+00 0.39943512E+03</pdfrwt>
<pdfrwt beam="2">  1       -2 0.29186694E-02 0.39943512E+03</pdfrwt>
<totfact> 0.41084991E+03</totfact>
</mgrwt>
</event>
<event>
 4    1  0.1361667E-004  0.3412596E+03  0.7818608E-02  0.1066261E+00
          2   -1    0    0  501    0  0.00000000000E+00  0.00000000000E+00  0.28255774999E+03  0.28255775000E+03  0.25500000000E-02 0.  1.
         -2   -1    0    0    0  501 -0.00000000000E+00 -0.00000000000E+00 -0.10303921828E+03  0.10303921831E+03  0.25500000000E-02 0. -1.
    5000001    1    1    2    0    0  0.11219252527E+03  0.22039361382E+01  0.11217362908E+03  0.20323371551E+03  0.12700000000E+03 0.  0.
   -5000001    1    1    2    0    0 -0.11219252527E+03 -0.22039361382E+01  0.67344902635E+02  0.18236325280E+03  0.12700000000E+03 0.  0.
<mgrwt>
<rscale>  0 0.34125961E+03</rscale>
<asrwt>0</asrwt>
<pdfrwt beam="1">  1        2 0.40365392E-01 0.34125961E+03</pdfrwt>
<pdfrwt beam="2">  1       -2 0.14719888E-01 0.34125961E+03</pdfrwt>
<totfact> 0.44817644E+03</totfact>
</mgrwt>
</event>
<event>
 4    1  0.1361667E-004  0.5678817E+03  0.7818608E-02  0.9974377E-01
         -2   -1    0    0    0  501 -0.00000000000E+00  0.00000000000E+00  0.41817473145E+03  0.41817473145E+03  0.25500000000E-02 0. -1.
          2   -1    0    0  501    0  0.00000000000E+00 -0.00000000000E+00 -0.19279598454E+03  0.19279598455E+03  0.25500000000E-02 0.  1.
    5000001    1    1    2    0    0  0.39666774571E+02  0.23413013121E+03  0.20953643405E+03  0.34121091503E+03  0.12700000000E+03 0.  0.
   -5000001    1    1    2    0    0 -0.39666774571E+02 -0.23413013121E+03  0.15842312862E+02  0.26975980097E+03  0.12700000000E+03 0.  0.
<mgrwt>
<rscale>  0 0.56788171E+03</rscale>
<asrwt>0</asrwt>
<pdfrwt beam="1">  1        2 0.27542283E-01 0.56788171E+03</pdfrwt>
<pdfrwt beam="2">  1       -2 0.59739248E-01 0.56788171E+03</pdfrwt>
<totfact> 0.51680994E+02</totfact>
</mgrwt>
</event>
<event>
 4    1  0.1361667E-004  0.2900458E+03  0.7818608E-02  0.1090325E+00
          2   -1    0    0  501    0  0.00000000000E+00  0.00000000000E+00  0.27442009877E+03  0.27442009878E+03  0.25500000000E-02 0.  1.
         -2   -1    0    0    0  501 -0.00000000000E+00 -0.00000000000E+00 -0.76640297408E+02  0.76640297451E+02  0.25500000000E-02 0. -1.
    5000001    1    1    2    0    0  0.26100472232E+02 -0.27781546143E+02  0.16997833897E+03  0.21557988004E+03  0.12700000000E+03 0.  0.
   -5000001    1    1    2    0    0 -0.26100472232E+02  0.27781546143E+02  0.27801462386E+02  0.13548051619E+03  0.12700000000E+03 0.  0.
<mgrwt>
<rscale>  0 0.29004578E+03</rscale>
<asrwt>0</asrwt>
<pdfrwt beam="1">  1        2 0.39202872E-01 0.29004578E+03</pdfrwt>
<pdfrwt beam="2">  1       -2 0.10948614E-01 0.29004578E+03</pdfrwt>
<totfact> 0.74544142E+03</totfact>
</mgrwt>
</event>
<event>
 4    1  0.1361667E-004  0.4171718E+03  0.7818608E-02  0.1037991E+00
         -2   -1    0    0    0  501 -0.00000000000E+00  0.00000000000E+00  0.32414714522E+02  0.32414714622E+02  0.25500000000E-02 0. -1.
          2   -1    0    0  501    0  0.00000000000E+00 -0.00000000000E+00 -0.13422320562E+04  0.13422320562E+04  0.25500000000E-02 0.  1.
    5000001    1    1    2    0    0  0.51573121945E+02 -0.11911554537E+03 -0.99305623095E+03  0.10095236391E+04  0.12700000000E+03 0.  0.
   -5000001    1    1    2    0    0 -0.51573121945E+02  0.11911554537E+03 -0.31676111071E+03  0.36512313172E+03  0.12700000000E+03 0.  0.
<mgrwt>
<rscale>  0 0.41717176E+03</rscale>
<asrwt>0</asrwt>
<pdfrwt beam="1">  1        2 0.19174740E+00 0.41717176E+03</pdfrwt>
<pdfrwt beam="2">  1       -2 0.46306743E-02 0.41717176E+03</pdfrwt>
<totfact> 0.41562415E+03</totfact>
</mgrwt>
</event>
<event>
 4    1  0.1361667E-004  0.4145481E+03  0.7818608E-02  0.1038855E+00
         -2   -1    0    0    0  501 -0.00000000000E+00  0.00000000000E+00  0.30010201088E+02  0.30010201197E+02  0.25500000000E-02 0. -1.
          2   -1    0    0  501    0  0.00000000000E+00 -0.00000000000E+00 -0.14315973705E+04  0.14315973705E+04  0.25500000000E-02 0.  1.
    5000001    1    1    2    0    0 -0.58884354820E+02  0.13759312167E+03 -0.46600987062E+03  0.50566138263E+03  0.12700000000E+03 0.  0.
   -5000001    1    1    2    0    0  0.58884354820E+02 -0.13759312167E+03 -0.93557729877E+03  0.95594618904E+03  0.12700000000E+03 0.  0.
<mgrwt>
<rscale>  0 0.41454807E+03</rscale>
<asrwt>0</asrwt>
<pdfrwt beam="1">  1        2 0.20451387E+00 0.41454807E+03</pdfrwt>
<pdfrwt beam="2">  1       -2 0.42871725E-02 0.41454807E+03</pdfrwt>
<totfact> 0.41971798E+03</totfact>
</mgrwt>
</event>
<event>
 4    1  0.1361667E-004  0.8234280E+03  0.7818608E-02  0.9526712E-01
          2   -1    0    0  501    0  0.00000000000E+00  0.00000000000E+00  0.71588806484E+03  0.71588806484E+03  0.25500000000E-02 0.  1.
         -2   -1    0    0    0  501 -0.00000000000E+00 -0.00000000000E+00 -0.23678059791E+03  0.23678059793E+03  0.25500000000E-02 0. -1.
    5000001    1    1    2    0    0 -0.21245275525E+03 -0.26340662508E+03  0.11483464674E+02  0.36163530429E+03  0.12700000000E+03 0.  0.
   -5000001    1    1    2    0    0  0.21245275525E+03  0.26340662508E+03  0.46762400225E+03  0.59103335847E+03  0.12700000000E+03 0.  0.
<mgrwt>
<rscale>  0 0.82342797E+03</rscale>
<asrwt>0</asrwt>
<pdfrwt beam="1">  1        2 0.10226972E+00 0.82342797E+03</pdfrwt>
<pdfrwt beam="2">  1       -2 0.33825799E-01 0.82342797E+03</pdfrwt>
<totfact> 0.35891009E+02</totfact>
</mgrwt>
</event>
<event>
 4    1  0.1361667E-004  0.2914254E+03  0.7818608E-02  0.1089607E+00
         -2   -1    0    0    0  501 -0.00000000000E+00  0.00000000000E+00  0.43781158883E+02  0.43781158958E+02  0.25500000000E-02 0. -1.
          2   -1    0    0  501    0  0.00000000000E+00 -0.00000000000E+00 -0.48496195612E+03  0.48496195612E+03  0.25500000000E-02 0.  1.
    5000001    1    1    2    0    0  0.17648951385E+02 -0.63433647877E+02 -0.27086688056E+03  0.30632202035E+03  0.12700000000E+03 0.  0.
   -5000001    1    1    2    0    0 -0.17648951385E+02  0.63433647877E+02 -0.17031391667E+03  0.22242109473E+03  0.12700000000E+03 0.  0.
<mgrwt>
<rscale>  0 0.29142544E+03</rscale>
<asrwt>0</asrwt>
<pdfrwt beam="1">  1        2 0.69280276E-01 0.29142544E+03</pdfrwt>
<pdfrwt beam="2">  1       -2 0.62544516E-02 0.29142544E+03</pdfrwt>
<totfact> 0.96870100E+03</totfact>
</mgrwt>
</event>
<event>
 4    1  0.1361667E-004  0.3624592E+03  0.7818608E-02  0.1057614E+00
          2   -1    0    0  501    0  0.00000000000E+00  0.00000000000E+00  0.31863334096E+03  0.31863334097E+03  0.25500000000E-02 0.  1.
         -2   -1    0    0    0  501 -0.00000000000E+00 -0.00000000000E+00 -0.10307824066E+03  0.10307824069E+03  0.25500000000E-02 0. -1.
    5000001    1    1    2    0    0  0.74904071479E+02  0.10475081098E+03  0.12113531247E+03  0.21768352315E+03  0.12700000000E+03 0.  0.
   -5000001    1    1    2    0    0 -0.74904071479E+02 -0.10475081098E+03  0.94419787833E+02  0.20402805851E+03  0.12700000000E+03 0.  0.
<mgrwt>
<rscale>  0 0.36245918E+03</rscale>
<asrwt>0</asrwt>
<pdfrwt beam="1">  1        2 0.45519049E-01 0.36245918E+03</pdfrwt>
<pdfrwt beam="2">  1       -2 0.14725463E-01 0.36245918E+03</pdfrwt>
<totfact> 0.39370649E+03</totfact>
</mgrwt>
</event>
<event>
 4    1  0.1361667E-004  0.4702834E+03  0.7818608E-02  0.1021840E+00
         -2   -1    0    0    0  501 -0.00000000000E+00  0.00000000000E+00  0.15793401612E+03  0.15793401614E+03  0.25500000000E-02 0. -1.
          2   -1    0    0  501    0  0.00000000000E+00 -0.00000000000E+00 -0.35009311997E+03  0.35009311997E+03  0.25500000000E-02 0.  1.
    5000001    1    1    2    0    0 -0.23123261008E+02  0.83627111268E+02  0.96055816834E+02  0.18133918188E+03  0.12700000000E+03 0.  0.
   -5000001    1    1    2    0    0  0.23123261008E+02 -0.83627111268E+02 -0.28821492068E+03  0.32668795423E+03  0.12700000000E+03 0.  0.
<mgrwt>
<rscale>  0 0.47028337E+03</rscale>
<asrwt>0</asrwt>
<pdfrwt beam="1">  1        2 0.50013303E-01 0.47028337E+03</pdfrwt>
<pdfrwt beam="2">  1       -2 0.22562002E-01 0.47028337E+03</pdfrwt>
<totfact> 0.17208857E+03</totfact>
</mgrwt>
</event>
<event>
 4    1  0.1361667E-004  0.3897556E+03  0.7818608E-02  0.1047386E+00
         -2   -1    0    0    0  501 -0.00000000000E+00  0.00000000000E+00  0.27534242223E+03  0.27534242224E+03  0.25500000000E-02 0. -1.
          2   -1    0    0  501    0  0.00000000000E+00 -0.00000000000E+00 -0.13792775725E+03  0.13792775728E+03  0.25500000000E-02 0.  1.
    5000001    1    1    2    0    0  0.14392322404E+02  0.12811611829E+03 -0.79560594787E+01  0.18114407965E+03  0.12700000000E+03 0.  0.
   -5000001    1    1    2    0    0 -0.14392322404E+02 -0.12811611829E+03  0.14537072445E+03  0.23212609986E+03  0.12700000000E+03 0.  0.
<mgrwt>
<rscale>  0 0.38975563E+03</rscale>
<asrwt>0</asrwt>
<pdfrwt beam="1">  1        2 0.19703965E-01 0.38975563E+03</pdfrwt>
<pdfrwt beam="2">  1       -2 0.39334632E-01 0.38975563E+03</pdfrwt>
<totfact> 0.17514410E+03</totfact>
</mgrwt>
</event>
<event>
 4    1  0.1361667E-004  0.3086858E+03  0.7818608E-02  0.1080978E+00
         -2   -1    0    0    0  501 -0.00000000000E+00  0.00000000000E+00  0.35172319293E+02  0.35172319385E+02  0.25500000000E-02 0.  1.
          2   -1    0    0  501    0  0.00000000000E+00 -0.00000000000E+00 -0.67728620841E+03  0.67728620841E+03  0.25500000000E-02 0. -1.
    5000001    1    1    2    0    0  0.65437209405E+02 -0.38079763196E+02 -0.42325456952E+03  0.44833639977E+03  0.12700000000E+03 0.  0.
   -5000001    1    1    2    0    0 -0.65437209405E+02  0.38079763196E+02 -0.21885931959E+03  0.26412212802E+03  0.12700000000E+03 0.  0.
<mgrwt>
<rscale>  0 0.30868577E+03</rscale>
<asrwt>0</asrwt>
<pdfrwt beam="1">  1        2 0.96755164E-01 0.30868577E+03</pdfrwt>
<pdfrwt beam="2">  1       -2 0.50246175E-02 0.30868577E+03</pdfrwt>
<totfact> 0.92837907E+03</totfact>
</mgrwt>
</event>
<event>
 4    1  0.1361667E-004  0.2804301E+03  0.7818608E-02  0.1095454E+00
         -2   -1    0    0    0  501 -0.00000000000E+00  0.00000000000E+00  0.32643723516E+02  0.32643723616E+02  0.25500000000E-02 0. -1.
          2   -1    0    0  501    0  0.00000000000E+00 -0.00000000000E+00 -0.60226764109E+03  0.60226764110E+03  0.25500000000E-02 0.  1.
    5000001    1    1    2    0    0  0.43082250743E+01 -0.54602435856E+02 -0.23262682640E+03  0.27063670698E+03  0.12700000000E+03 0.  0.
   -5000001    1    1    2    0    0 -0.43082250743E+01  0.54602435856E+02 -0.33699709118E+03  0.36427465773E+03  0.12700000000E+03 0.  0.
<mgrwt>
<rscale>  0 0.28043009E+03</rscale>
<asrwt>0</asrwt>
<pdfrwt beam="1">  1        2 0.86038228E-01 0.28043009E+03</pdfrwt>
<pdfrwt beam="2">  1       -2 0.46633894E-02 0.28043009E+03</pdfrwt>
<totfact> 0.11876381E+04</totfact>
</mgrwt>
</event>
<event>
 4    1  0.1361667E-004  0.5320492E+03  0.7818608E-02  0.1005736E+00
         -2   -1    0    0    0  501 -0.00000000000E+00  0.00000000000E+00  0.89350367459E+02  0.89350367496E+02  0.25500000000E-02 0. -1.
          2   -1    0    0  501    0  0.00000000000E+00 -0.00000000000E+00 -0.79204025963E+03  0.79204025963E+03  0.25500000000E-02 0.  1.
    5000001    1    1    2    0    0  0.54008940236E+02 -0.33620483491E+02 -0.72396045621E+03  0.73776354253E+03  0.12700000000E+03 0.  0.
   -5000001    1    1    2    0    0 -0.54008940236E+02  0.33620483491E+02  0.21270564038E+02  0.14362708460E+03  0.12700000000E+03 0.  0.
<mgrwt>
<rscale>  0 0.53204920E+03</rscale>
<asrwt>0</asrwt>
<pdfrwt beam="1">  1        2 0.11314860E+00 0.53204920E+03</pdfrwt>
<pdfrwt beam="2">  1       -2 0.12764339E-01 0.53204920E+03</pdfrwt>
<totfact> 0.17690467E+03</totfact>
</mgrwt>
</event>
<event>
 4    1  0.1361667E-004  0.5036519E+03  0.7818608E-02  0.1012830E+00
         -2   -1    0    0    0  501 -0.00000000000E+00  0.00000000000E+00  0.14515862709E+02  0.14515862933E+02  0.25500000000E-02 0. -1.
          2   -1    0    0  501    0  0.00000000000E+00 -0.00000000000E+00 -0.43687593140E+04  0.43687593140E+04  0.25500000000E-02 0.  1.
    5000001    1    1    2    0    0 -0.98384908712E+02 -0.15971991993E+03 -0.12199014242E+04  0.12407572397E+04  0.12700000000E+03 0.  0.
   -5000001    1    1    2    0    0  0.98384908712E+02  0.15971991993E+03 -0.31343420271E+04  0.31425179372E+04  0.12700000000E+03 0.  0.
<mgrwt>
<rscale>  0 0.50365191E+03</rscale>
<asrwt>0</asrwt>
<pdfrwt beam="1">  1        2 0.62410763E+00 0.50365191E+03</pdfrwt>
<pdfrwt beam="2">  1       -2 0.20736975E-02 0.50365191E+03</pdfrwt>
<totfact> 0.27986973E+02</totfact>
</mgrwt>
</event>
<event>
 4    1  0.1361667E-004  0.5644248E+03  0.7818608E-02  0.9982092E-01
          2   -1    0    0  501    0  0.00000000000E+00  0.00000000000E+00  0.10019820058E+04  0.10019820058E+04  0.25500000000E-02 0.  1.
         -2   -1    0    0    0  501 -0.00000000000E+00 -0.00000000000E+00 -0.79486291401E+02  0.79486291442E+02  0.25500000000E-02 0. -1.
    5000001    1    1    2    0    0  0.17289963268E+03 -0.15116661512E+03  0.66008592989E+03  0.71034362343E+03  0.12700000000E+03 0.  0.
   -5000001    1    1    2    0    0 -0.17289963268E+03  0.15116661512E+03  0.26240978451E+03  0.37112467381E+03  0.12700000000E+03 0.  0.
<mgrwt>
<rscale>  0 0.56442478E+03</rscale>
<asrwt>0</asrwt>
<pdfrwt beam="1">  1        2 0.14314028E+00 0.56442478E+03</pdfrwt>
<pdfrwt beam="2">  1       -2 0.11355185E-01 0.56442478E+03</pdfrwt>
<totfact> 0.15678241E+03</totfact>
</mgrwt>
</event>
<event>
 4    1  0.1361667E-004  0.4004035E+03  0.7818608E-02  0.1043640E+00
          2   -1    0    0  501    0  0.00000000000E+00  0.00000000000E+00  0.10281494004E+04  0.10281494004E+04  0.25500000000E-02 0.  1.
         -2   -1    0    0    0  501 -0.00000000000E+00 -0.00000000000E+00 -0.38983380440E+02  0.38983380523E+02  0.25500000000E-02 0. -1.
    5000001    1    1    2    0    0 -0.15082052711E+03 -0.25831546357E+02  0.55637981478E+03  0.59084820257E+03  0.12700000000E+03 0.  0.
   -5000001    1    1    2    0    0  0.15082052711E+03  0.25831546357E+02  0.43278620518E+03  0.47628457836E+03  0.12700000000E+03 0.  0.
<mgrwt>
<rscale>  0 0.40040349E+03</rscale>
<asrwt>0</asrwt>
<pdfrwt beam="1">  1        2 0.14687849E+00 0.40040349E+03</pdfrwt>
<pdfrwt beam="2">  1       -2 0.55690541E-02 0.40040349E+03</pdfrwt>
<totfact> 0.46796750E+03</totfact>
</mgrwt>
</event>
<event>
 4    1  0.1361667E-004  0.7550255E+03  0.7818608E-02  0.9627499E-01
          2   -1    0    0  501    0  0.00000000000E+00  0.00000000000E+00  0.13390814989E+04  0.13390814989E+04  0.25500000000E-02 0.  1.
         -2   -1    0    0    0  501 -0.00000000000E+00 -0.00000000000E+00 -0.10642807949E+03  0.10642807952E+03  0.25500000000E-02 0. -1.
    5000001    1    1    2    0    0 -0.24426808179E+02 -0.34907074418E+03  0.73649710398E+03  0.82522968777E+03  0.12700000000E+03 0.  0.
   -5000001    1    1    2    0    0  0.24426808179E+02  0.34907074418E+03  0.49615631538E+03  0.62027989061E+03  0.12700000000E+03 0.  0.
<mgrwt>
<rscale>  0 0.75502549E+03</rscale>
<asrwt>0</asrwt>
<pdfrwt beam="1">  1        2 0.19129735E+00 0.75502549E+03</pdfrwt>
<pdfrwt beam="2">  1       -2 0.15204012E-01 0.75502549E+03</pdfrwt>
<totfact> 0.61584700E+02</totfact>
</mgrwt>
</event>
<event>
 4    1  0.1361667E-004  0.7877421E+03  0.7818608E-02  0.9577931E-01
          2   -1    0    0  501    0  0.00000000000E+00  0.00000000000E+00  0.37915132244E+03  0.37915132245E+03  0.25500000000E-02 0.  1.
         -2   -1    0    0    0  501 -0.00000000000E+00 -0.00000000000E+00 -0.40916219165E+03  0.40916219165E+03  0.25500000000E-02 0. -1.
    5000001    1    1    2    0    0 -0.28152367779E+03  0.27818867182E+02 -0.25803118131E+03  0.40340867747E+03  0.12700000000E+03 0.  0.
   -5000001    1    1    2    0    0  0.28152367779E+03 -0.27818867182E+02  0.22802031211E+03  0.38490483663E+03  0.12700000000E+03 0.  0.
<mgrwt>
<rscale>  0 0.78774205E+03</rscale>
<asrwt>0</asrwt>
<pdfrwt beam="1">  1        2 0.54164475E-01 0.78774205E+03</pdfrwt>
<pdfrwt beam="2">  1       -2 0.58451741E-01 0.78774205E+03</pdfrwt>
<totfact> 0.25316533E+02</totfact>
</mgrwt>
</event>
<event>
 4    1  0.1361667E-004  0.4240728E+03  0.7818608E-02  0.1035749E+00
         -2   -1    0    0    0  501 -0.00000000000E+00  0.00000000000E+00  0.11505669894E+03  0.11505669897E+03  0.25500000000E-02 0. -1.
          2   -1    0    0  501    0  0.00000000000E+00 -0.00000000000E+00 -0.39075898710E+03  0.39075898711E+03  0.25500000000E-02 0.  1.
    5000001    1    1    2    0    0 -0.13616554636E+02 -0.11165784526E+03  0.13856787337E+02  0.17021720102E+03  0.12700000000E+03 0.  0.
   -5000001    1    1    2    0    0  0.13616554636E+02  0.11165784526E+03 -0.28955907550E+03  0.33559848506E+03  0.12700000000E+03 0.  0.
<mgrwt>
<rscale>  0 0.42407282E+03</rscale>
<asrwt>0</asrwt>
<pdfrwt beam="1">  1        2 0.55822712E-01 0.42407282E+03</pdfrwt>
<pdfrwt beam="2">  1       -2 0.16436671E-01 0.42407282E+03</pdfrwt>
<totfact> 0.26293340E+03</totfact>
</mgrwt>
</event>
<event>
 4    1  0.1361667E-004  0.6314633E+03  0.7818608E-02  0.9842197E-01
         -2   -1    0    0    0  501 -0.00000000000E+00  0.00000000000E+00  0.10264493760E+04  0.10264493760E+04  0.25500000000E-02 0. -1.
          2   -1    0    0  501    0  0.00000000000E+00 -0.00000000000E+00 -0.97117785479E+02  0.97117785513E+02  0.25500000000E-02 0.  1.
    5000001    1    1    2    0    0 -0.28006989460E+03 -0.60774446131E+02  0.53182871100E+03  0.61733577331E+03  0.12700000000E+03 0.  0.
   -5000001    1    1    2    0    0  0.28006989460E+03  0.60774446131E+02  0.39750287948E+03  0.50623138816E+03  0.12700000000E+03 0.  0.
<mgrwt>
<rscale>  0 0.63146335E+03</rscale>
<asrwt>0</asrwt>
<pdfrwt beam="1">  1        2 0.13873970E-01 0.63146335E+03</pdfrwt>
<pdfrwt beam="2">  1       -2 0.14663562E+00 0.63146335E+03</pdfrwt>
<totfact> 0.14248323E+02</totfact>
</mgrwt>
</event>
<event>
 4    1  0.1361667E-004  0.4474131E+03  0.7818608E-02  0.1028496E+00
          2   -1    0    0  501    0  0.00000000000E+00  0.00000000000E+00  0.21028755946E+03  0.21028755948E+03  0.25500000000E-02 0.  1.
         -2   -1    0    0    0  501 -0.00000000000E+00 -0.00000000000E+00 -0.23798187937E+03  0.23798187939E+03  0.25500000000E-02 0. -1.
    5000001    1    1    2    0    0  0.12327890336E+03  0.12309042400E+03  0.45988897174E+02  0.22043801659E+03  0.12700000000E+03 0.  0.
   -5000001    1    1    2    0    0 -0.12327890336E+03 -0.12309042400E+03 -0.73683217086E+02  0.22783142227E+03  0.12700000000E+03 0.  0.
<mgrwt>
<rscale>  0 0.44741314E+03</rscale>
<asrwt>0</asrwt>
<pdfrwt beam="1">  1        2 0.30041080E-01 0.44741314E+03</pdfrwt>
<pdfrwt beam="2">  1       -2 0.33997411E-01 0.44741314E+03</pdfrwt>
<totfact> 0.14325259E+03</totfact>
</mgrwt>
</event>
<event>
 4    1  0.1361667E-004  0.1565894E+04  0.7818608E-02  0.8841779E-01
         -2   -1    0    0    0  501 -0.00000000000E+00  0.00000000000E+00  0.29702198014E+03  0.29702198015E+03  0.25500000000E-02 0. -1.
          2   -1    0    0  501    0  0.00000000000E+00 -0.00000000000E+00 -0.20638407123E+04  0.20638407123E+04  0.25500000000E-02 0.  1.
    5000001    1    1    2    0    0  0.21792657046E+03  0.72190988274E+03 -0.11367313697E+04  0.13700120714E+04  0.12700000000E+03 0.  0.
   -5000001    1    1    2    0    0 -0.21792657046E+03 -0.72190988274E+03 -0.63008736250E+03  0.99085062108E+03  0.12700000000E+03 0.  0.
<mgrwt>
<rscale>  0 0.15658941E+04</rscale>
<asrwt>0</asrwt>
<pdfrwt beam="1">  1        2 0.29483438E+00 0.15658941E+04</pdfrwt>
<pdfrwt beam="2">  1       -2 0.42431713E-01 0.15658941E+04</pdfrwt>
<totfact> 0.37711334E+01</totfact>
</mgrwt>
</event>
<event>
 4    1  0.1361667E-004  0.5506102E+03  0.7818608E-02  0.1001353E+00
          2   -1    0    0  501    0  0.00000000000E+00  0.00000000000E+00  0.83153328713E+03  0.83153328714E+03  0.25500000000E-02 0.  1.
         -2   -1    0    0    0  501 -0.00000000000E+00 -0.00000000000E+00 -0.91148365916E+02  0.91148365952E+02  0.25500000000E-02 0. -1.
    5000001    1    1    2    0    0 -0.63817485193E+02  0.23489830378E+03  0.40428945425E+03  0.48870118412E+03  0.12700000000E+03 0.  0.
   -5000001    1    1    2    0    0  0.63817485193E+02 -0.23489830378E+03  0.33609546696E+03  0.43398046897E+03  0.12700000000E+03 0.  0.
<mgrwt>
<rscale>  0 0.55061021E+03</rscale>
<asrwt>0</asrwt>
<pdfrwt beam="1">  1        2 0.11879047E+00 0.55061021E+03</pdfrwt>
<pdfrwt beam="2">  1       -2 0.13021195E-01 0.55061021E+03</pdfrwt>
<totfact> 0.16082058E+03</totfact>
</mgrwt>
</event>
<event>
 4    1  0.1361667E-004  0.4441043E+03  0.7818608E-02  0.1029495E+00
         -2   -1    0    0    0  501 -0.00000000000E+00  0.00000000000E+00  0.27205405290E+02  0.27205405410E+02  0.25500000000E-02 0. -1.
          2   -1    0    0  501    0  0.00000000000E+00 -0.00000000000E+00 -0.18124028523E+04  0.18124028523E+04  0.25500000000E-02 0.  1.
    5000001    1    1    2    0    0 -0.12334713819E+03 -0.10245038745E+03 -0.12505547066E+04  0.12671727083E+04  0.12700000000E+03 0.  0.
   -5000001    1    1    2    0    0  0.12334713819E+03  0.10245038745E+03 -0.53464274034E+03  0.57243554937E+03  0.12700000000E+03 0.  0.
<mgrwt>
<rscale>  0 0.44410429E+03</rscale>
<asrwt>0</asrwt>
<pdfrwt beam="1">  1        2 0.25891462E+00 0.44410429E+03</pdfrwt>
<pdfrwt beam="2">  1       -2 0.38864876E-02 0.44410429E+03</pdfrwt>
<totfact> 0.31236287E+03</totfact>
</mgrwt>
</event>
<event>
 4    1  0.1361667E-004  0.3227280E+03  0.7818608E-02  0.1074401E+00
         -2   -1    0    0    0  501 -0.00000000000E+00  0.00000000000E+00  0.13276465499E+03  0.13276465502E+03  0.25500000000E-02 0. -1.
          2   -1    0    0  501    0  0.00000000000E+00 -0.00000000000E+00 -0.19612404389E+03  0.19612404391E+03  0.25500000000E-02 0.  1.
    5000001    1    1    2    0    0 -0.26496404064E+02  0.91507012415E+02 -0.61105595845E+02  0.17011315820E+03  0.12700000000E+03 0.  0.
   -5000001    1    1    2    0    0  0.26496404064E+02 -0.91507012415E+02 -0.22537930558E+01  0.15877554073E+03  0.12700000000E+03 0.  0.
<mgrwt>
<rscale>  0 0.32272800E+03</rscale>
<asrwt>0</asrwt>
<pdfrwt beam="1">  1        2 0.28017721E-01 0.32272800E+03</pdfrwt>
<pdfrwt beam="2">  1       -2 0.18966379E-01 0.32272800E+03</pdfrwt>
<totfact> 0.43613940E+03</totfact>
</mgrwt>
</event>
<event>
 4    1  0.1361667E-004  0.4062064E+03  0.7818608E-02  0.1041652E+00
          2   -1    0    0  501    0  0.00000000000E+00  0.00000000000E+00  0.20254759038E+04  0.20254759038E+04  0.25500000000E-02 0.  1.
         -2   -1    0    0    0  501 -0.00000000000E+00 -0.00000000000E+00 -0.20366032155E+02  0.20366032315E+02  0.25500000000E-02 0. -1.
    5000001    1    1    2    0    0  0.13688269556E+03 -0.44407305935E+02  0.13371300148E+04  0.13508347632E+04  0.12700000000E+03 0.  0.
   -5000001    1    1    2    0    0 -0.13688269556E+03  0.44407305935E+02  0.66797985686E+03  0.69500717287E+03  0.12700000000E+03 0.  0.
<mgrwt>
<rscale>  0 0.40620639E+03</rscale>
<asrwt>0</asrwt>
<pdfrwt beam="1">  1        2 0.28935361E+00 0.40620639E+03</pdfrwt>
<pdfrwt beam="2">  1       -2 0.29094340E-02 0.40620639E+03</pdfrwt>
<totfact> 0.37974420E+03</totfact>
</mgrwt>
</event>
<event>
 4    1  0.1361667E-004  0.4395035E+03  0.7818608E-02  0.1030899E+00
         -2   -1    0    0    0  501 -0.00000000000E+00  0.00000000000E+00  0.13169678804E+02  0.13169679051E+02  0.25500000000E-02 0. -1.
          2   -1    0    0  501    0  0.00000000000E+00 -0.00000000000E+00 -0.36668190427E+04  0.36668190427E+04  0.25500000000E-02 0.  1.
    5000001    1    1    2    0    0  0.84438968278E+01  0.15258077364E+03 -0.26127172488E+04  0.26202619361E+04  0.12700000000E+03 0.  0.
   -5000001    1    1    2    0    0 -0.84438968278E+01 -0.15258077364E+03 -0.10409321152E+04  0.10597267857E+04  0.12700000000E+03 0.  0.
<mgrwt>
<rscale>  0 0.43950349E+03</rscale>
<asrwt>0</asrwt>
<pdfrwt beam="1">  1        2 0.52383064E+00 0.43950349E+03</pdfrwt>
<pdfrwt beam="2">  1       -2 0.18813851E-02 0.43950349E+03</pdfrwt>
<totfact> 0.96306250E+02</totfact>
</mgrwt>
</event>
<event>
 4    1  0.1361667E-004  0.4573536E+03  0.7818608E-02  0.1025552E+00
         -2   -1    0    0    0  501 -0.00000000000E+00  0.00000000000E+00  0.93031195877E+02  0.93031195912E+02  0.25500000000E-02 0. -1.
          2   -1    0    0  501    0  0.00000000000E+00 -0.00000000000E+00 -0.56210258070E+03  0.56210258070E+03  0.25500000000E-02 0.  1.
    5000001    1    1    2    0    0  0.11394622026E+03 -0.13784376646E+03 -0.32714112053E+03  0.39387175299E+03  0.12700000000E+03 0.  0.
   -5000001    1    1    2    0    0 -0.11394622026E+03  0.13784376646E+03 -0.14193026429E+03  0.26126202362E+03  0.12700000000E+03 0.  0.
<mgrwt>
<rscale>  0 0.45735358E+03</rscale>
<asrwt>0</asrwt>
<pdfrwt beam="1">  1        2 0.80300367E-01 0.45735358E+03</pdfrwt>
<pdfrwt beam="2">  1       -2 0.13290171E-01 0.45735358E+03</pdfrwt>
<totfact> 0.24979666E+03</totfact>
</mgrwt>
</event>
<event>
 4    1  0.1361667E-004  0.4718023E+03  0.7818608E-02  0.1021413E+00
          2   -1    0    0  501    0  0.00000000000E+00  0.00000000000E+00  0.17793453510E+04  0.17793453510E+04  0.25500000000E-02 0.  1.
         -2   -1    0    0    0  501 -0.00000000000E+00 -0.00000000000E+00 -0.31275181546E+02  0.31275181650E+02  0.25500000000E-02 0. -1.
    5000001    1    1    2    0    0 -0.49735467793E+02 -0.19243827098E+03  0.88851895674E+03  0.91929377317E+03  0.12700000000E+03 0.  0.
   -5000001    1    1    2    0    0  0.49735467793E+02  0.19243827098E+03  0.85955121268E+03  0.89132675945E+03  0.12700000000E+03 0.  0.
<mgrwt>
<rscale>  0 0.47180228E+03</rscale>
<asrwt>0</asrwt>
<pdfrwt beam="1">  1        2 0.25419226E+00 0.47180228E+03</pdfrwt>
<pdfrwt beam="2">  1       -2 0.44678819E-02 0.47180228E+03</pdfrwt>
<totfact> 0.26202802E+03</totfact>
</mgrwt>
</event>
<event>
 4    1  0.1361667E-004  0.3382699E+03  0.7818608E-02  0.1067535E+00
         -2   -1    0    0    0  501 -0.00000000000E+00  0.00000000000E+00  0.23367477980E+02  0.23367478119E+02  0.25500000000E-02 0. -1.
          2   -1    0    0  501    0  0.00000000000E+00 -0.00000000000E+00 -0.12242072422E+04  0.12242072422E+04  0.25500000000E-02 0.  1.
    5000001    1    1    2    0    0  0.88041940578E+02 -0.65036969911E+02 -0.51824505597E+03  0.54469085616E+03  0.12700000000E+03 0.  0.
   -5000001    1    1    2    0    0 -0.88041940578E+02  0.65036969911E+02 -0.68259470823E+03  0.70288386414E+03  0.12700000000E+03 0.  0.
<mgrwt>
<rscale>  0 0.33826993E+03</rscale>
<asrwt>0</asrwt>
<pdfrwt beam="1">  1        2 0.17488671E+00 0.33826993E+03</pdfrwt>
<pdfrwt beam="2">  1       -2 0.33382119E-02 0.33826993E+03</pdfrwt>
<totfact> 0.78804369E+03</totfact>
</mgrwt>
</event>
<event>
 4    1  0.1361667E-004  0.2931936E+03  0.7818608E-02  0.1088693E+00
          2   -1    0    0  501    0  0.00000000000E+00  0.00000000000E+00  0.31509695307E+03  0.31509695308E+03  0.25500000000E-02 0.  1.
         -2   -1    0    0    0  501 -0.00000000000E+00 -0.00000000000E+00 -0.68203218524E+02  0.68203218571E+02  0.25500000000E-02 0. -1.
    5000001    1    1    2    0    0  0.22721860267E+02 -0.44630795171E+02  0.53612610587E+02  0.14666800205E+03  0.12700000000E+03 0.  0.
   -5000001    1    1    2    0    0 -0.22721860267E+02  0.44630795171E+02  0.19328112396E+03  0.23663216961E+03  0.12700000000E+03 0.  0.
<mgrwt>
<rscale>  0 0.29319363E+03</rscale>
<asrwt>0</asrwt>
<pdfrwt beam="1">  1        2 0.45013851E-01 0.29319363E+03</pdfrwt>
<pdfrwt beam="2">  1       -2 0.97433169E-02 0.29319363E+03</pdfrwt>
<totfact> 0.77388790E+03</totfact>
</mgrwt>
</event>
<event>
 4    1  0.1361667E-004  0.3949556E+03  0.7818608E-02  0.1045541E+00
          2   -1    0    0  501    0  0.00000000000E+00  0.00000000000E+00  0.89986658953E+02  0.89986658989E+02  0.25500000000E-02 0.  1.
         -2   -1    0    0    0  501 -0.00000000000E+00 -0.00000000000E+00 -0.43336954477E+03  0.43336954478E+03  0.25500000000E-02 0. -1.
    5000001    1    1    2    0    0 -0.12308331719E+03 -0.61874034944E+02 -0.89038903480E+02  0.20744836828E+03  0.12700000000E+03 0.  0.
   -5000001    1    1    2    0    0  0.12308331719E+03  0.61874034944E+02 -0.25434398234E+03  0.31590783548E+03  0.12700000000E+03 0.  0.
<mgrwt>
<rscale>  0 0.39495558E+03</rscale>
<asrwt>0</asrwt>
<pdfrwt beam="1">  1        2 0.12855237E-01 0.39495558E+03</pdfrwt>
<pdfrwt beam="2">  1       -2 0.61909934E-01 0.39495558E+03</pdfrwt>
<totfact> 0.11721318E+03</totfact>
</mgrwt>
</event>
<event>
 4    1  0.1361667E-004  0.4222022E+03  0.7818608E-02  0.1036352E+00
         -2   -1    0    0    0  501 -0.00000000000E+00  0.00000000000E+00  0.19063273613E+02  0.19063273784E+02  0.25500000000E-02 0. -1.
          2   -1    0    0  501    0  0.00000000000E+00 -0.00000000000E+00 -0.23376713841E+04  0.23376713842E+04  0.25500000000E-02 0.  1.
    5000001    1    1    2    0    0  0.39763545608E+02  0.14294244103E+03 -0.71201202108E+03  0.73831145133E+03  0.12700000000E+03 0.  0.
   -5000001    1    1    2    0    0 -0.39763545608E+02 -0.14294244103E+03 -0.16065960895E+04  0.16184232066E+04  0.12700000000E+03 0.  0.
<mgrwt>
<rscale>  0 0.42220218E+03</rscale>
<asrwt>0</asrwt>
<pdfrwt beam="1">  1        2 0.33395287E+00 0.42220218E+03</pdfrwt>
<pdfrwt beam="2">  1       -2 0.27233263E-02 0.42220218E+03</pdfrwt>
<totfact> 0.29321408E+03</totfact>
</mgrwt>
</event>
<event>
 4    1  0.1361667E-004  0.3289948E+03  0.7818608E-02  0.1071583E+00
          2   -1    0    0  501    0  0.00000000000E+00  0.00000000000E+00  0.35933614054E+04  0.35933614054E+04  0.25500000000E-02 0.  1.
         -2   -1    0    0    0  501 -0.00000000000E+00 -0.00000000000E+00 -0.75303837853E+01  0.75303842171E+01  0.25500000000E-02 0. -1.
    5000001    1    1    2    0    0  0.79931372340E+02  0.65322157696E+02  0.19742161784E+04  0.19809882705E+04  0.12700000000E+03 0.  0.
   -5000001    1    1    2    0    0 -0.79931372340E+02 -0.65322157696E+02  0.16116148432E+04  0.16199035191E+04  0.12700000000E+03 0.  0.
<mgrwt>
<rscale>  0 0.32899478E+03</rscale>
<asrwt>0</asrwt>
<pdfrwt beam="1">  1        2 0.51333710E+00 0.32899478E+03</pdfrwt>
<pdfrwt beam="2">  1       -2 0.10757696E-02 0.32899478E+03</pdfrwt>
<totfact> 0.24656888E+03</totfact>
</mgrwt>
</event>
<event>
 4    1  0.1361667E-004  0.5681854E+03  0.7818608E-02  0.9973702E-01
          2   -1    0    0  501    0  0.00000000000E+00  0.00000000000E+00  0.99137880485E+03  0.99137880485E+03  0.25500000000E-02 0.  1.
         -2   -1    0    0    0  501 -0.00000000000E+00 -0.00000000000E+00 -0.81410523056E+02  0.81410523096E+02  0.25500000000E-02 0. -1.
    5000001    1    1    2    0    0  0.18467175658E+03  0.17331069206E+02  0.78296812049E+03  0.81459935020E+03  0.12700000000E+03 0.  0.
   -5000001    1    1    2    0    0 -0.18467175658E+03 -0.17331069206E+02  0.12700016130E+03  0.25818997775E+03  0.12700000000E+03 0.  0.
<mgrwt>
<rscale>  0 0.56818542E+03</rscale>
<asrwt>0</asrwt>
<pdfrwt beam="1">  1        2 0.14162554E+00 0.56818542E+03</pdfrwt>
<pdfrwt beam="2">  1       -2 0.11630075E-01 0.56818542E+03</pdfrwt>
<totfact> 0.15300952E+03</totfact>
</mgrwt>
</event>
<event>
 4    1  0.1361667E-004  0.5243317E+03  0.7818608E-02  0.1007616E+00
          2   -1    0    0  501    0  0.00000000000E+00  0.00000000000E+00  0.24130557803E+04  0.24130557803E+04  0.25500000000E-02 0.  1.
         -2   -1    0    0    0  501 -0.00000000000E+00 -0.00000000000E+00 -0.28482940837E+02  0.28482940951E+02  0.25500000000E-02 0. -1.
    5000001    1    1    2    0    0  0.14901228127E+03 -0.10955826115E+03  0.18238231277E+04  0.18375710799E+04  0.12700000000E+03 0.  0.
   -5000001    1    1    2    0    0 -0.14901228127E+03  0.10955826115E+03  0.56074971174E+03  0.60396764133E+03  0.12700000000E+03 0.  0.
<mgrwt>
<rscale>  0 0.52433167E+03</rscale>
<asrwt>0</asrwt>
<pdfrwt beam="1">  1        2 0.34472241E+00 0.52433167E+03</pdfrwt>
<pdfrwt beam="2">  1       -2 0.40689897E-02 0.52433167E+03</pdfrwt>
<totfact> 0.14527509E+03</totfact>
</mgrwt>
</event>
<event>
 4    1  0.1361667E-004  0.5592439E+03  0.7818608E-02  0.9993767E-01
         -2   -1    0    0    0  501 -0.00000000000E+00  0.00000000000E+00  0.52946852947E+02  0.52946853008E+02  0.25500000000E-02 0. -1.
          2   -1    0    0  501    0  0.00000000000E+00 -0.00000000000E+00 -0.14767340629E+04  0.14767340629E+04  0.25500000000E-02 0.  1.
    5000001    1    1    2    0    0 -0.18064090748E+03 -0.28491509697E+02 -0.11746026859E+04  0.11955180356E+04  0.12700000000E+03 0.  0.
   -5000001    1    1    2    0    0  0.18064090748E+03  0.28491509697E+02 -0.24918452399E+03  0.33416288031E+03  0.12700000000E+03 0.  0.
<mgrwt>
<rscale>  0 0.55924385E+03</rscale>
<asrwt>0</asrwt>
<pdfrwt beam="1">  1        2 0.21096198E+00 0.55924385E+03</pdfrwt>
<pdfrwt beam="2">  1       -2 0.75638371E-02 0.55924385E+03</pdfrwt>
<totfact> 0.16416464E+03</totfact>
</mgrwt>
</event>
<event>
 4    1  0.1361667E-004  0.3160234E+03  0.7818608E-02  0.1077494E+00
         -2   -1    0    0    0  501 -0.00000000000E+00  0.00000000000E+00  0.52999023196E+02  0.52999023258E+02  0.25500000000E-02 0. -1.
          2   -1    0    0  501    0  0.00000000000E+00 -0.00000000000E+00 -0.47109744766E+03  0.47109744767E+03  0.25500000000E-02 0.  1.
    5000001    1    1    2    0    0 -0.15071749053E+02  0.50499563562E+02 -0.33816409079E+03  0.36504974433E+03  0.12700000000E+03 0.  0.
   -5000001    1    1    2    0    0  0.15071749053E+02 -0.50499563562E+02 -0.79934333678E+02  0.15904672659E+03  0.12700000000E+03 0.  0.
<mgrwt>
<rscale>  0 0.31602345E+03</rscale>
<asrwt>0</asrwt>
<pdfrwt beam="1">  1        2 0.67299633E-01 0.31602345E+03</pdfrwt>
<pdfrwt beam="2">  1       -2 0.75712893E-02 0.31602345E+03</pdfrwt>
<totfact> 0.74579988E+03</totfact>
</mgrwt>
</event>
<event>
 4    1  0.1361667E-004  0.4812925E+03  0.7818608E-02  0.1018781E+00
          2   -1    0    0  501    0  0.00000000000E+00  0.00000000000E+00  0.17975301530E+04  0.17975301530E+04  0.25500000000E-02 0.  1.
         -2   -1    0    0    0  501 -0.00000000000E+00 -0.00000000000E+00 -0.32216773583E+02  0.32216773684E+02  0.25500000000E-02 0. -1.
    5000001    1    1    2    0    0 -0.26226680390E+02  0.65930583682E+02  0.15388328703E+03  0.21176342143E+03  0.12700000000E+03 0.  0.
   -5000001    1    1    2    0    0  0.26226680390E+02 -0.65930583682E+02  0.16114300924E+04  0.16179835053E+04  0.12700000000E+03 0.  0.
<mgrwt>
<rscale>  0 0.48129252E+03</rscale>
<asrwt>0</asrwt>
<pdfrwt beam="1">  1        2 0.25679000E+00 0.48129252E+03</pdfrwt>
<pdfrwt beam="2">  1       -2 0.46023965E-02 0.48129252E+03</pdfrwt>
<totfact> 0.24509340E+03</totfact>
</mgrwt>
</event>
<event>
 4    1  0.1361667E-004  0.3179640E+03  0.7818608E-02  0.1076590E+00
          2   -1    0    0  501    0  0.00000000000E+00  0.00000000000E+00  0.15973732502E+04  0.15973732502E+04  0.25500000000E-02 0.  1.
         -2   -1    0    0    0  501 -0.00000000000E+00 -0.00000000000E+00 -0.15823026817E+02  0.15823027022E+02  0.25500000000E-02 0. -1.
    5000001    1    1    2    0    0 -0.80811725453E+02 -0.43032607667E+02  0.93100440765E+03  0.94407655800E+03  0.12700000000E+03 0.  0.
   -5000001    1    1    2    0    0  0.80811725453E+02  0.43032607667E+02  0.65054581574E+03  0.66911971924E+03  0.12700000000E+03 0.  0.
<mgrwt>
<rscale>  0 0.31796402E+03</rscale>
<asrwt>0</asrwt>
<pdfrwt beam="1">  1        2 0.22819611E+00 0.31796402E+03</pdfrwt>
<pdfrwt beam="2">  1       -2 0.22604331E-02 0.31796402E+03</pdfrwt>
<totfact> 0.90173625E+03</totfact>
</mgrwt>
</event>
<event>
 4    1  0.1361667E-004  0.7486977E+03  0.7818608E-02  0.9637396E-01
         -2   -1    0    0    0  501 -0.00000000000E+00  0.00000000000E+00  0.52940437665E+03  0.52940437666E+03  0.25500000000E-02 0. -1.
          2   -1    0    0  501    0  0.00000000000E+00 -0.00000000000E+00 -0.26470700674E+03  0.26470700675E+03  0.25500000000E-02 0.  1.
    5000001    1    1    2    0    0  0.31631631874E+03 -0.15385350795E+03  0.15013272670E+03  0.40298356174E+03  0.12700000000E+03 0.  0.
   -5000001    1    1    2    0    0 -0.31631631874E+03  0.15385350795E+03  0.11456464321E+03  0.39112782167E+03  0.12700000000E+03 0.  0.
<mgrwt>
<rscale>  0 0.74869766E+03</rscale>
<asrwt>0</asrwt>
<pdfrwt beam="1">  1        2 0.37815287E-01 0.74869766E+03</pdfrwt>
<pdfrwt beam="2">  1       -2 0.75629196E-01 0.74869766E+03</pdfrwt>
<totfact> 0.21681053E+02</totfact>
</mgrwt>
</event>
<event>
 4    1  0.1361667E-004  0.5633754E+03  0.7818608E-02  0.9984446E-01
          2   -1    0    0  501    0  0.00000000000E+00  0.00000000000E+00  0.30932792116E+04  0.30932792116E+04  0.25500000000E-02 0.  1.
         -2   -1    0    0    0  501 -0.00000000000E+00 -0.00000000000E+00 -0.25651729342E+02  0.25651729469E+02  0.25500000000E-02 0. -1.
    5000001    1    1    2    0    0  0.12456751348E+02 -0.24532398727E+03  0.12367162474E+04  0.12672549490E+04  0.12700000000E+03 0.  0.
   -5000001    1    1    2    0    0 -0.12456751348E+02  0.24532398727E+03  0.18309112349E+04  0.18516759920E+04  0.12700000000E+03 0.  0.
<mgrwt>
<rscale>  0 0.56337540E+03</rscale>
<asrwt>0</asrwt>
<pdfrwt beam="1">  1        2 0.44189691E+00 0.56337540E+03</pdfrwt>
<pdfrwt beam="2">  1       -2 0.36645337E-02 0.56337540E+03</pdfrwt>
<totfact> 0.74544266E+02</totfact>
</mgrwt>
</event>
<event>
 4    1  0.1361667E-004  0.7433356E+03  0.7818608E-02  0.9645864E-01
          2   -1    0    0  501    0  0.00000000000E+00  0.00000000000E+00  0.36125953603E+04  0.36125953603E+04  0.25500000000E-02 0.  1.
         -2   -1    0    0    0  501 -0.00000000000E+00 -0.00000000000E+00 -0.38237592274E+02  0.38237592359E+02  0.25500000000E-02 0. -1.
    5000001    1    1    2    0    0 -0.82183307185E+02  0.25022195242E+03  0.29140562071E+04  0.29286887338E+04  0.12700000000E+03 0.  0.
   -5000001    1    1    2    0    0  0.82183307185E+02 -0.25022195242E+03  0.66030156096E+03  0.72214421887E+03  0.12700000000E+03 0.  0.
<mgrwt>
<rscale>  0 0.74333559E+03</rscale>
<asrwt>0</asrwt>
<pdfrwt beam="1">  1        2 0.51608464E+00 0.74333559E+03</pdfrwt>
<pdfrwt beam="2">  1       -2 0.54625175E-02 0.74333559E+03</pdfrwt>
<totfact> 0.19717266E+02</totfact>
</mgrwt>
</event>
<event>
 4    1  0.1361667E-004  0.6170817E+03  0.7818608E-02  0.9870587E-01
          2   -1    0    0  501    0  0.00000000000E+00  0.00000000000E+00  0.12059921645E+04  0.12059921645E+04  0.25500000000E-02 0. -1.
         -2   -1    0    0    0  501 -0.00000000000E+00 -0.00000000000E+00 -0.78937035559E+02  0.78937035600E+02  0.25500000000E-02 0.  1.
    5000001    1    1    2    0    0  0.11034365560E+03 -0.21778320466E+03  0.27302921155E+03  0.38765860873E+03  0.12700000000E+03 0.  0.
   -5000001    1    1    2    0    0 -0.11034365560E+03  0.21778320466E+03  0.85402591737E+03  0.89727059135E+03  0.12700000000E+03 0.  0.
<mgrwt>
<rscale>  0 0.61708167E+03</rscale>
<asrwt>0</asrwt>
<pdfrwt beam="1">  1        2 0.17228460E+00 0.61708167E+03</pdfrwt>
<pdfrwt beam="2">  1       -2 0.11276719E-01 0.61708167E+03</pdfrwt>
<totfact> 0.12052563E+03</totfact>
</mgrwt>
</event>
<event>
 4    1  0.1361667E-004  0.3024492E+03  0.7818608E-02  0.1084023E+00
         -2   -1    0    0    0  501 -0.00000000000E+00  0.00000000000E+00  0.13537472748E+03  0.13537472750E+03  0.25500000000E-02 0. -1.
          2   -1    0    0  501    0  0.00000000000E+00 -0.00000000000E+00 -0.16893019838E+03  0.16893019840E+03  0.25500000000E-02 0.  1.
    5000001    1    1    2    0    0  0.61270922692E+02 -0.48876745952E+02 -0.41357473449E+02  0.15486285182E+03  0.12700000000E+03 0.  0.
   -5000001    1    1    2    0    0 -0.61270922692E+02  0.48876745952E+02  0.78020025444E+01  0.14944207408E+03  0.12700000000E+03 0.  0.
<mgrwt>
<rscale>  0 0.30244920E+03</rscale>
<asrwt>0</asrwt>
<pdfrwt beam="1">  1        2 0.24132885E-01 0.30244920E+03</pdfrwt>
<pdfrwt beam="2">  1       -2 0.19339247E-01 0.30244920E+03</pdfrwt>
<totfact> 0.49748069E+03</totfact>
</mgrwt>
</event>
<event>
 4    1  0.1361667E-004  0.3933692E+03  0.7818608E-02  0.1046100E+00
         -2   -1    0    0    0  501 -0.00000000000E+00  0.00000000000E+00  0.57361720375E+02  0.57361720431E+02  0.25500000000E-02 0. -1.
          2   -1    0    0  501    0  0.00000000000E+00 -0.00000000000E+00 -0.67440154207E+03  0.67440154208E+03  0.25500000000E-02 0.  1.
    5000001    1    1    2    0    0 -0.95506345769E+02  0.10272445496E+03 -0.20865302078E+03  0.28167154420E+03  0.12700000000E+03 0.  0.
   -5000001    1    1    2    0    0  0.95506345769E+02 -0.10272445496E+03 -0.40838680092E+03  0.45009171831E+03  0.12700000000E+03 0.  0.
<mgrwt>
<rscale>  0 0.39336920E+03</rscale>
<asrwt>0</asrwt>
<pdfrwt beam="1">  1        2 0.96343072E-01 0.39336920E+03</pdfrwt>
<pdfrwt beam="2">  1       -2 0.81945319E-02 0.39336920E+03</pdfrwt>
<totfact> 0.43969930E+03</totfact>
</mgrwt>
</event>
<event>
 4    1  0.1361667E-004  0.3797808E+03  0.7818608E-02  0.1051015E+00
          2   -1    0    0  501    0  0.00000000000E+00  0.00000000000E+00  0.28177844724E+03  0.28177844725E+03  0.25500000000E-02 0.  1.
         -2   -1    0    0    0  501 -0.00000000000E+00 -0.00000000000E+00 -0.12796707381E+03  0.12796707384E+03  0.25500000000E-02 0. -1.
    5000001    1    1    2    0    0  0.22184610643E+02 -0.12713012749E+03  0.13864985659E+03  0.22805045275E+03  0.12700000000E+03 0.  0.
   -5000001    1    1    2    0    0 -0.22184610643E+02  0.12713012749E+03  0.15161516836E+02  0.18169506834E+03  0.12700000000E+03 0.  0.
<mgrwt>
<rscale>  0 0.37978080E+03</rscale>
<asrwt>0</asrwt>
<pdfrwt beam="1">  1        2 0.40254065E-01 0.37978080E+03</pdfrwt>
<pdfrwt beam="2">  1       -2 0.18281010E-01 0.37978080E+03</pdfrwt>
<totfact> 0.31312642E+03</totfact>
</mgrwt>
</event>
<event>
 4    1  0.1361667E-004  0.6347222E+03  0.7818608E-02  0.9835877E-01
          2   -1    0    0  501    0  0.00000000000E+00  0.00000000000E+00  0.43248397962E+03  0.43248397963E+03  0.25500000000E-02 0.  1.
         -2   -1    0    0    0  501 -0.00000000000E+00 -0.00000000000E+00 -0.23288276839E+03  0.23288276841E+03  0.25500000000E-02 0. -1.
    5000001    1    1    2    0    0  0.23072463073E+03  0.37222593488E+02  0.28127632689E+03  0.38712368665E+03  0.12700000000E+03 0.  0.
   -5000001    1    1    2    0    0 -0.23072463073E+03 -0.37222593488E+02 -0.81675115661E+02  0.27824306139E+03  0.12700000000E+03 0.  0.
<mgrwt>
<rscale>  0 0.63472220E+03</rscale>
<asrwt>0</asrwt>
<pdfrwt beam="1">  1        2 0.61783425E-01 0.63472220E+03</pdfrwt>
<pdfrwt beam="2">  1       -2 0.33268967E-01 0.63472220E+03</pdfrwt>
<totfact> 0.67164605E+02</totfact>
</mgrwt>
</event>
<event>
 4    1  0.1361667E-004  0.1349878E+04  0.7818608E-02  0.8990920E-01
         -2   -1    0    0    0  501 -0.00000000000E+00  0.00000000000E+00  0.12342156258E+03  0.12342156260E+03  0.25500000000E-02 0. -1.
          2   -1    0    0  501    0  0.00000000000E+00 -0.00000000000E+00 -0.36909505458E+04  0.36909505458E+04  0.25500000000E-02 0.  1.
    5000001    1    1    2    0    0 -0.41299802236E+03  0.44101370769E+03 -0.10132533482E+04  0.11865377383E+04  0.12700000000E+03 0.  0.
   -5000001    1    1    2    0    0  0.41299802236E+03 -0.44101370769E+03 -0.25542756351E+04  0.26278343701E+04  0.12700000000E+03 0.  0.
<mgrwt>
<rscale>  0 0.13498783E+04</rscale>
<asrwt>0</asrwt>
<pdfrwt beam="1">  1        2 0.52727858E+00 0.13498783E+04</pdfrwt>
<pdfrwt beam="2">  1       -2 0.17631654E-01 0.13498783E+04</pdfrwt>
<totfact> 0.24204457E+01</totfact>
</mgrwt>
</event>
<event>
 4    1  0.1361667E-004  0.4208248E+03  0.7818608E-02  0.1036798E+00
         -2   -1    0    0    0  501 -0.00000000000E+00  0.00000000000E+00  0.30153845433E+03  0.30153845434E+03  0.25500000000E-02 0. -1.
          2   -1    0    0  501    0  0.00000000000E+00 -0.00000000000E+00 -0.14682500975E+03  0.14682500977E+03  0.25500000000E-02 0.  1.
    5000001    1    1    2    0    0  0.16466803959E+03  0.30324818492E+02  0.66221546416E+02  0.22033939977E+03  0.12700000000E+03 0.  0.
   -5000001    1    1    2    0    0 -0.16466803959E+03 -0.30324818492E+02  0.88491898164E+02  0.22802406434E+03  0.12700000000E+03 0.  0.
<mgrwt>
<rscale>  0 0.42082484E+03</rscale>
<asrwt>0</asrwt>
<pdfrwt beam="1">  1        2 0.20975001E-01 0.42082484E+03</pdfrwt>
<pdfrwt beam="2">  1       -2 0.43076922E-01 0.42082484E+03</pdfrwt>
<totfact> 0.13675971E+03</totfact>
</mgrwt>
</event>
<event>
 4    1  0.1361667E-004  0.4481821E+03  0.7818608E-02  0.1028266E+00
         -2   -1    0    0    0  501 -0.00000000000E+00  0.00000000000E+00  0.28616254612E+02  0.28616254726E+02  0.25500000000E-02 0. -1.
          2   -1    0    0  501    0  0.00000000000E+00 -0.00000000000E+00 -0.17548346421E+04  0.17548346421E+04  0.25500000000E-02 0.  1.
    5000001    1    1    2    0    0 -0.69123844120E+02  0.12747981370E+03 -0.40837800016E+03  0.45158697915E+03  0.12700000000E+03 0.  0.
   -5000001    1    1    2    0    0  0.69123844120E+02 -0.12747981370E+03 -0.13178403873E+04  0.13318639176E+04  0.12700000000E+03 0.  0.
<mgrwt>
<rscale>  0 0.44818208E+03</rscale>
<asrwt>0</asrwt>
<pdfrwt beam="1">  1        2 0.25069060E+00 0.44818208E+03</pdfrwt>
<pdfrwt beam="2">  1       -2 0.40880375E-02 0.44818208E+03</pdfrwt>
<totfact> 0.30897770E+03</totfact>
</mgrwt>
</event>
<event>
 4    1  0.1361667E-004  0.4742814E+03  0.7818608E-02  0.1020719E+00
         -2   -1    0    0    0  501 -0.00000000000E+00  0.00000000000E+00  0.21579526855E+02  0.21579527005E+02  0.25500000000E-02 0. -1.
          2   -1    0    0  501    0  0.00000000000E+00 -0.00000000000E+00 -0.26059749559E+04  0.26059749559E+04  0.25500000000E-02 0.  1.
    5000001    1    1    2    0    0  0.26374503889E+02  0.25329977748E+02 -0.20135868366E+03  0.24085585256E+03  0.12700000000E+03 0.  0.
   -5000001    1    1    2    0    0 -0.26374503889E+02 -0.25329977748E+02 -0.23830367454E+04  0.23866986303E+04  0.12700000000E+03 0.  0.
<mgrwt>
<rscale>  0 0.47428138E+03</rscale>
<asrwt>0</asrwt>
<pdfrwt beam="1">  1        2 0.37228194E+00 0.47428138E+03</pdfrwt>
<pdfrwt beam="2">  1       -2 0.30827912E-02 0.47428138E+03</pdfrwt>
<totfact> 0.17728148E+03</totfact>
</mgrwt>
</event>
<event>
 4    1  0.1361667E-004  0.4390819E+03  0.7818608E-02  0.1031029E+00
          2   -1    0    0  501    0  0.00000000000E+00  0.00000000000E+00  0.34266533869E+03  0.34266533870E+03  0.25500000000E-02 0.  1.
         -2   -1    0    0    0  501 -0.00000000000E+00 -0.00000000000E+00 -0.14065686399E+03  0.14065686401E+03  0.25500000000E-02 0. -1.
    5000001    1    1    2    0    0 -0.75633565700E+02 -0.13821941560E+03  0.19469269256E+03  0.28081895884E+03  0.12700000000E+03 0.  0.
   -5000001    1    1    2    0    0  0.75633565700E+02  0.13821941560E+03  0.73157821451E+01  0.20250324387E+03  0.12700000000E+03 0.  0.
<mgrwt>
<rscale>  0 0.43908191E+03</rscale>
<asrwt>0</asrwt>
<pdfrwt beam="1">  1        2 0.48952190E-01 0.43908191E+03</pdfrwt>
<pdfrwt beam="2">  1       -2 0.20093838E-01 0.43908191E+03</pdfrwt>
<totfact> 0.21552722E+03</totfact>
</mgrwt>
</event>
<event>
 4    1  0.1361667E-004  0.6106808E+03  0.7818608E-02  0.9883491E-01
         -2   -1    0    0    0  501 -0.00000000000E+00  0.00000000000E+00  0.13012960115E+03  0.13012960118E+03  0.25500000000E-02 0. -1.
          2   -1    0    0  501    0  0.00000000000E+00 -0.00000000000E+00 -0.71646069932E+03  0.71646069932E+03  0.25500000000E-02 0.  1.
    5000001    1    1    2    0    0  0.11057141196E+03 -0.24173379744E+03 -0.40443746496E+03  0.50035979958E+03  0.12700000000E+03 0.  0.
   -5000001    1    1    2    0    0 -0.11057141196E+03  0.24173379744E+03 -0.18189363320E+03  0.34623050092E+03  0.12700000000E+03 0.  0.
<mgrwt>
<rscale>  0 0.61068075E+03</rscale>
<asrwt>0</asrwt>
<pdfrwt beam="1">  1        2 0.10235153E+00 0.61068075E+03</pdfrwt>
<pdfrwt beam="2">  1       -2 0.18589943E-01 0.61068075E+03</pdfrwt>
<totfact> 0.10625507E+03</totfact>
</mgrwt>
</event>
<event>
 4    1  0.1361667E-004  0.2677396E+03  0.7818608E-02  0.1102580E+00
         -2   -1    0    0    0  501 -0.00000000000E+00  0.00000000000E+00  0.14675294622E+02  0.14675294843E+02  0.25500000000E-02 0. -1.
          2   -1    0    0  501    0  0.00000000000E+00 -0.00000000000E+00 -0.12211763846E+04  0.12211763846E+04  0.25500000000E-02 0.  1.
    5000001    1    1    2    0    0 -0.30410930860E+02 -0.25685270750E+02 -0.66975203022E+03  0.68284796246E+03  0.12700000000E+03 0.  0.
   -5000001    1    1    2    0    0  0.30410930860E+02  0.25685270750E+02 -0.53674905972E+03  0.55300371695E+03  0.12700000000E+03 0.  0.
<mgrwt>
<rscale>  0 0.26773960E+03</rscale>
<asrwt>0</asrwt>
<pdfrwt beam="1">  1        2 0.17445370E+00 0.26773960E+03</pdfrwt>
<pdfrwt beam="2">  1       -2 0.20964715E-02 0.26773960E+03</pdfrwt>
<totfact> 0.15692914E+04</totfact>
</mgrwt>
</event>
<event>
 4    1  0.1361667E-004  0.3271709E+03  0.7818608E-02  0.1072396E+00
          2   -1    0    0  501    0  0.00000000000E+00  0.00000000000E+00  0.78028452438E+03  0.78028452439E+03  0.25500000000E-02 0.  1.
         -2   -1    0    0    0  501 -0.00000000000E+00 -0.00000000000E+00 -0.34295440982E+02  0.34295441077E+02  0.25500000000E-02 0. -1.
    5000001    1    1    2    0    0  0.10270629808E+03  0.32032556602E+01  0.35181578506E+03  0.38789456187E+03  0.12700000000E+03 0.  0.
   -5000001    1    1    2    0    0 -0.10270629808E+03 -0.32032556602E+01  0.39417329834E+03  0.42668540359E+03  0.12700000000E+03 0.  0.
<mgrwt>
<rscale>  0 0.32717091E+03</rscale>
<asrwt>0</asrwt>
<pdfrwt beam="1">  1        2 0.11146920E+00 0.32717091E+03</pdfrwt>
<pdfrwt beam="2">  1       -2 0.48993493E-02 0.32717091E+03</pdfrwt>
<totfact> 0.81466187E+03</totfact>
</mgrwt>
</event>
<event>
 4    1  0.1361667E-004  0.6877201E+03  0.7818608E-02  0.9738466E-01
         -2   -1    0    0    0  501 -0.00000000000E+00  0.00000000000E+00  0.61848559646E+03  0.61848559647E+03  0.25500000000E-02 0. -1.
          2   -1    0    0  501    0  0.00000000000E+00 -0.00000000000E+00 -0.19117620180E+03  0.19117620181E+03  0.25500000000E-02 0.  1.
    5000001    1    1    2    0    0 -0.31613376591E+03 -0.37280157198E+02  0.18076656563E+03  0.38747376597E+03  0.12700000000E+03 0.  0.
   -5000001    1    1    2    0    0  0.31613376591E+03  0.37280157198E+02  0.24654282904E+03  0.42218803230E+03  0.12700000000E+03 0.  0.
<mgrwt>
<rscale>  0 0.68772008E+03</rscale>
<asrwt>0</asrwt>
<pdfrwt beam="1">  1        2 0.27310886E-01 0.68772008E+03</pdfrwt>
<pdfrwt beam="2">  1       -2 0.88355086E-01 0.68772008E+03</pdfrwt>
<totfact> 0.22053189E+02</totfact>
</mgrwt>
</event>
<event>
 4    1  0.1361667E-004  0.4453926E+03  0.7818608E-02  0.1029105E+00
          2   -1    0    0  501    0  0.00000000000E+00  0.00000000000E+00  0.14452513394E+03  0.14452513396E+03  0.25500000000E-02 0.  1.
         -2   -1    0    0    0  501 -0.00000000000E+00 -0.00000000000E+00 -0.34314894525E+03  0.34314894526E+03  0.25500000000E-02 0. -1.
    5000001    1    1    2    0    0 -0.11635563422E+03 -0.80573636238E+02  0.27595730129E+02  0.19214907961E+03  0.12700000000E+03 0.  0.
   -5000001    1    1    2    0    0  0.11635563422E+03  0.80573636238E+02 -0.22621954144E+03  0.29552499962E+03  0.12700000000E+03 0.  0.
<mgrwt>
<rscale>  0 0.44539262E+03</rscale>
<asrwt>0</asrwt>
<pdfrwt beam="1">  1        2 0.20646448E-01 0.44539262E+03</pdfrwt>
<pdfrwt beam="2">  1       -2 0.49021278E-01 0.44539262E+03</pdfrwt>
<totfact> 0.10786187E+03</totfact>
</mgrwt>
</event>
<event>
 4    1  0.1361667E-004  0.7017493E+03  0.7818608E-02  0.9714245E-01
         -2   -1    0    0    0  501 -0.00000000000E+00  0.00000000000E+00  0.12334959534E+03  0.12334959537E+03  0.25500000000E-02 0. -1.
          2   -1    0    0  501    0  0.00000000000E+00 -0.00000000000E+00 -0.99808205256E+03  0.99808205256E+03  0.25500000000E-02 0.  1.
    5000001    1    1    2    0    0 -0.31151249679E+03  0.48242860178E+02 -0.29789917369E+03  0.45192955966E+03  0.12700000000E+03 0.  0.
   -5000001    1    1    2    0    0  0.31151249679E+03 -0.48242860178E+02 -0.57683328353E+03  0.66950208827E+03  0.12700000000E+03 0.  0.
<mgrwt>
<rscale>  0 0.70174929E+03</rscale>
<asrwt>0</asrwt>
<pdfrwt beam="1">  1        2 0.14258315E+00 0.70174929E+03</pdfrwt>
<pdfrwt beam="2">  1       -2 0.17621371E-01 0.70174929E+03</pdfrwt>
<totfact> 0.75235144E+02</totfact>
</mgrwt>
</event>
<event>
 4    1  0.1361667E-004  0.3780140E+03  0.7818608E-02  0.1051670E+00
         -2   -1    0    0    0  501 -0.00000000000E+00  0.00000000000E+00  0.72482833139E+03  0.72482833139E+03  0.25500000000E-02 0. -1.
          2   -1    0    0  501    0  0.00000000000E+00 -0.00000000000E+00 -0.49285666634E+02  0.49285666700E+02  0.25500000000E-02 0.  1.
    5000001    1    1    2    0    0 -0.19113823445E+02  0.13856670208E+03  0.32682381360E+03  0.37750347589E+03  0.12700000000E+03 0.  0.
   -5000001    1    1    2    0    0  0.19113823445E+02 -0.13856670208E+03  0.34871885115E+03  0.39661052220E+03  0.12700000000E+03 0.  0.
<mgrwt>
<rscale>  0 0.37801401E+03</rscale>
<asrwt>0</asrwt>
<pdfrwt beam="1">  1        2 0.70408101E-02 0.37801401E+03</pdfrwt>
<pdfrwt beam="2">  1       -2 0.10354690E+00 0.37801401E+03</pdfrwt>
<totfact> 0.79782782E+02</totfact>
</mgrwt>
</event>
<event>
 4    1  0.1361667E-004  0.6126880E+03  0.7818608E-02  0.9879427E-01
         -2   -1    0    0    0  501 -0.00000000000E+00  0.00000000000E+00  0.69846503829E+03  0.69846503829E+03  0.25500000000E-02 0.  1.
          2   -1    0    0  501    0  0.00000000000E+00 -0.00000000000E+00 -0.13436126054E+03  0.13436126057E+03  0.25500000000E-02 0. -1.
    5000001    1    1    2    0    0  0.21266086812E+03 -0.13023669261E+03  0.11264916254E+03  0.30167047378E+03  0.12700000000E+03 0.  0.
   -5000001    1    1    2    0    0 -0.21266086812E+03  0.13023669261E+03  0.45145461520E+03  0.53115582508E+03  0.12700000000E+03 0.  0.
<mgrwt>
<rscale>  0 0.61268799E+03</rscale>
<asrwt>0</asrwt>
<pdfrwt beam="1">  1        2 0.19194466E-01 0.61268799E+03</pdfrwt>
<pdfrwt beam="2">  1       -2 0.99780720E-01 0.61268799E+03</pdfrwt>
<totfact> 0.25051305E+02</totfact>
</mgrwt>
</event>
<event>
 4    1  0.1361667E-004  0.3076683E+03  0.7818608E-02  0.1081469E+00
          2   -1    0    0  501    0  0.00000000000E+00  0.00000000000E+00  0.32724477399E+03  0.32724477400E+03  0.25500000000E-02 0.  1.
         -2   -1    0    0    0  501 -0.00000000000E+00 -0.00000000000E+00 -0.72315750399E+02  0.72315750444E+02  0.25500000000E-02 0. -1.
    5000001    1    1    2    0    0  0.85909882115E+02 -0.12438119120E+02  0.12634980416E+03  0.19906905250E+03  0.12700000000E+03 0.  0.
   -5000001    1    1    2    0    0 -0.85909882115E+02  0.12438119120E+02  0.12857921943E+03  0.20049147195E+03  0.12700000000E+03 0.  0.
<mgrwt>
<rscale>  0 0.30766834E+03</rscale>
<asrwt>0</asrwt>
<pdfrwt beam="1">  1        2 0.46749254E-01 0.30766834E+03</pdfrwt>
<pdfrwt beam="2">  1       -2 0.10330821E-01 0.30766834E+03</pdfrwt>
<totfact> 0.67792130E+03</totfact>
</mgrwt>
</event>
<event>
 4    1  0.1361667E-004  0.5849090E+03  0.7818608E-02  0.9937219E-01
          2   -1    0    0  501    0  0.00000000000E+00  0.00000000000E+00  0.55952010100E+03  0.55952010101E+03  0.25500000000E-02 0.  1.
         -2   -1    0    0    0  501 -0.00000000000E+00 -0.00000000000E+00 -0.15286248795E+03  0.15286248797E+03  0.25500000000E-02 0. -1.
    5000001    1    1    2    0    0  0.73054694456E+02  0.14965532303E+03 -0.45282426193E+02  0.21427366197E+03  0.12700000000E+03 0.  0.
   -5000001    1    1    2    0    0 -0.73054694456E+02 -0.14965532303E+03  0.45194003924E+03  0.49810892701E+03  0.12700000000E+03 0.  0.
<mgrwt>
<rscale>  0 0.58490900E+03</rscale>
<asrwt>0</asrwt>
<pdfrwt beam="1">  1        2 0.79931442E-01 0.58490900E+03</pdfrwt>
<pdfrwt beam="2">  1       -2 0.21837499E-01 0.58490900E+03</pdfrwt>
<totfact> 0.10781444E+03</totfact>
</mgrwt>
</event>
<event>
 4    1  0.1361667E-004  0.4665742E+03  0.7818608E-02  0.1022892E+00
         -2   -1    0    0    0  501 -0.00000000000E+00  0.00000000000E+00  0.64928824255E+03  0.64928824256E+03  0.25500000000E-02 0. -1.
          2   -1    0    0  501    0  0.00000000000E+00 -0.00000000000E+00 -0.83819268252E+02  0.83819268291E+02  0.25500000000E-02 0.  1.
    5000001    1    1    2    0    0  0.13968564080E+03  0.11459431734E+03  0.40083954286E+03  0.45765191459E+03  0.12700000000E+03 0.  0.
   -5000001    1    1    2    0    0 -0.13968564080E+03 -0.11459431734E+03  0.16462943144E+03  0.27545559625E+03  0.12700000000E+03 0.  0.
<mgrwt>
<rscale>  0 0.46657418E+03</rscale>
<asrwt>0</asrwt>
<pdfrwt beam="1">  1        2 0.11974181E-01 0.46657418E+03</pdfrwt>
<pdfrwt beam="2">  1       -2 0.92755466E-01 0.46657418E+03</pdfrwt>
<totfact> 0.52609518E+02</totfact>
</mgrwt>
</event>
<event>
 4    1  0.1361667E-004  0.6398524E+03  0.7818608E-02  0.9826009E-01
         -2   -1    0    0    0  501 -0.00000000000E+00  0.00000000000E+00  0.56197451210E+03  0.56197451211E+03  0.25500000000E-02 0. -1.
          2   -1    0    0  501    0  0.00000000000E+00 -0.00000000000E+00 -0.18213064185E+03  0.18213064186E+03  0.25500000000E-02 0.  1.
    5000001    1    1    2    0    0  0.14313268972E+03 -0.87392490240E+02 -0.90389096044E+02  0.22896201191E+03  0.12700000000E+03 0.  0.
   -5000001    1    1    2    0    0 -0.14313268972E+03  0.87392490240E+02  0.47023296630E+03  0.51514314206E+03  0.12700000000E+03 0.  0.
<mgrwt>
<rscale>  0 0.63985242E+03</rscale>
<asrwt>0</asrwt>
<pdfrwt beam="1">  1        2 0.26018663E-01 0.63985242E+03</pdfrwt>
<pdfrwt beam="2">  1       -2 0.80282073E-01 0.63985242E+03</pdfrwt>
<totfact> 0.28997605E+02</totfact>
</mgrwt>
</event>
<event>
 4    1  0.1361667E-004  0.5054439E+03  0.7818608E-02  0.1012368E+00
          2   -1    0    0  501    0  0.00000000000E+00  0.00000000000E+00  0.13933045337E+04  0.13933045337E+04  0.25500000000E-02 0.  1.
         -2   -1    0    0    0  501 -0.00000000000E+00 -0.00000000000E+00 -0.45839493444E+02  0.45839493515E+02  0.25500000000E-02 0. -1.
    5000001    1    1    2    0    0  0.63656076663E+02  0.20860292485E+03  0.71108495492E+03  0.75454495523E+03  0.12700000000E+03 0.  0.
   -5000001    1    1    2    0    0 -0.63656076663E+02 -0.20860292485E+03  0.63638008534E+03  0.68459907199E+03  0.12700000000E+03 0.  0.
<mgrwt>
<rscale>  0 0.50544386E+03</rscale>
<asrwt>0</asrwt>
<pdfrwt beam="1">  1        2 0.19904345E+00 0.50544386E+03</pdfrwt>
<pdfrwt beam="2">  1       -2 0.65485008E-02 0.50544386E+03</pdfrwt>
<totfact> 0.22820925E+03</totfact>
</mgrwt>
</event>
<event>
 4    1  0.1361667E-004  0.4450843E+03  0.7818608E-02  0.1029198E+00
         -2   -1    0    0    0  501 -0.00000000000E+00  0.00000000000E+00  0.48358868087E+03  0.48358868088E+03  0.25500000000E-02 0. -1.
          2   -1    0    0  501    0  0.00000000000E+00 -0.00000000000E+00 -0.10241144263E+03  0.10241144266E+03  0.25500000000E-02 0.  1.
    5000001    1    1    2    0    0 -0.33914752657E+02 -0.15261032235E+03  0.65990964551E+02  0.21195265589E+03  0.12700000000E+03 0.  0.
   -5000001    1    1    2    0    0  0.33914752657E+02  0.15261032235E+03  0.31518627369E+03  0.37404746765E+03  0.12700000000E+03 0.  0.
<mgrwt>
<rscale>  0 0.44508433E+03</rscale>
<asrwt>0</asrwt>
<pdfrwt beam="1">  1        2 0.14630206E-01 0.44508433E+03</pdfrwt>
<pdfrwt beam="2">  1       -2 0.69084098E-01 0.44508433E+03</pdfrwt>
<totfact> 0.79407902E+02</totfact>
</mgrwt>
</event>
<event>
 4    1  0.1361667E-004  0.4096406E+03  0.7818608E-02  0.1040492E+00
         -2   -1    0    0    0  501 -0.00000000000E+00  0.00000000000E+00  0.16247011488E+03  0.16247011490E+03  0.25500000000E-02 0. -1.
          2   -1    0    0  501    0  0.00000000000E+00 -0.00000000000E+00 -0.25820961342E+03  0.25820961343E+03  0.25500000000E-02 0.  1.
    5000001    1    1    2    0    0 -0.45648218914E+02 -0.64660718996E+02 -0.19148685391E+03  0.24302465655E+03  0.12700000000E+03 0.  0.
   -5000001    1    1    2    0    0  0.45648218914E+02  0.64660718996E+02  0.95747355372E+02  0.17765507179E+03  0.12700000000E+03 0.  0.
<mgrwt>
<rscale>  0 0.40964055E+03</rscale>
<asrwt>0</asrwt>
<pdfrwt beam="1">  1        2 0.36887088E-01 0.40964055E+03</pdfrwt>
<pdfrwt beam="2">  1       -2 0.23210016E-01 0.40964055E+03</pdfrwt>
<totfact> 0.22813661E+03</totfact>
</mgrwt>
</event>
<event>
 4    1  0.1361667E-004  0.8145324E+03  0.7818608E-02  0.9539217E-01
         -2   -1    0    0    0  501 -0.00000000000E+00  0.00000000000E+00  0.36715149217E+03  0.36715149218E+03  0.25500000000E-02 0. -1.
          2   -1    0    0  501    0  0.00000000000E+00 -0.00000000000E+00 -0.45176383714E+03  0.45176383715E+03  0.25500000000E-02 0.  1.
    5000001    1    1    2    0    0  0.19702219610E+03  0.27300799525E+03 -0.23408282222E+03  0.42927249956E+03  0.12700000000E+03 0.  0.
   -5000001    1    1    2    0    0 -0.19702219610E+03 -0.27300799525E+03  0.14947047725E+03  0.38964282977E+03  0.12700000000E+03 0.  0.
<mgrwt>
<rscale>  0 0.81453242E+03</rscale>
<asrwt>0</asrwt>
<pdfrwt beam="1">  1        2 0.64537691E-01 0.81453242E+03</pdfrwt>
<pdfrwt beam="2">  1       -2 0.52450213E-01 0.81453242E+03</pdfrwt>
<totfact> 0.26017970E+02</totfact>
</mgrwt>
</event>
<event>
 4    1  0.1361667E-004  0.3746125E+03  0.7818608E-02  0.1052943E+00
          2   -1    0    0  501    0  0.00000000000E+00  0.00000000000E+00  0.87163438717E+03  0.87163438718E+03  0.25500000000E-02 0.  1.
         -2   -1    0    0    0  501 -0.00000000000E+00 -0.00000000000E+00 -0.40250389337E+02  0.40250389418E+02  0.25500000000E-02 0. -1.
    5000001    1    1    2    0    0 -0.95766082108E+00  0.12280648809E+03  0.26421708141E+03  0.31783960851E+03  0.12700000000E+03 0.  0.
   -5000001    1    1    2    0    0  0.95766082108E+00 -0.12280648809E+03  0.56716691643E+03  0.59404516809E+03  0.12700000000E+03 0.  0.
<mgrwt>
<rscale>  0 0.37461246E+03</rscale>
<asrwt>0</asrwt>
<pdfrwt beam="1">  1        2 0.12451920E+00 0.37461246E+03</pdfrwt>
<pdfrwt beam="2">  1       -2 0.57500555E-02 0.37461246E+03</pdfrwt>
<totfact> 0.55567639E+03</totfact>
</mgrwt>
</event>
<event>
 4    1  0.1361667E-004  0.4380081E+03  0.7818608E-02  0.1031360E+00
          2   -1    0    0  501    0  0.00000000000E+00  0.00000000000E+00  0.19365838674E+03  0.19365838675E+03  0.25500000000E-02 0.  1.
         -2   -1    0    0    0  501 -0.00000000000E+00 -0.00000000000E+00 -0.24766687871E+03  0.24766687872E+03  0.25500000000E-02 0. -1.
    5000001    1    1    2    0    0  0.21890619453E+02  0.11872596363E+03  0.10536311115E+03  0.20446378371E+03  0.12700000000E+03 0.  0.
   -5000001    1    1    2    0    0 -0.21890619453E+02 -0.11872596363E+03 -0.15937160312E+03  0.23686148176E+03  0.12700000000E+03 0.  0.
<mgrwt>
<rscale>  0 0.43800807E+03</rscale>
<asrwt>0</asrwt>
<pdfrwt beam="1">  1        2 0.27665484E-01 0.43800807E+03</pdfrwt>
<pdfrwt beam="2">  1       -2 0.35380982E-01 0.43800807E+03</pdfrwt>
<totfact> 0.14569569E+03</totfact>
</mgrwt>
</event>
<event>
 4    1  0.1361667E-004  0.4263465E+03  0.7818608E-02  0.1035020E+00
          2   -1    0    0  501    0  0.00000000000E+00  0.00000000000E+00  0.33937634704E+02  0.33937634799E+02  0.25500000000E-02 0.  1.
         -2   -1    0    0    0  501 -0.00000000000E+00 -0.00000000000E+00 -0.13390103647E+04  0.13390103647E+04  0.25500000000E-02 0. -1.
    5000001    1    1    2    0    0  0.10413765624E+03 -0.24889301994E+02 -0.10827726074E+04  0.10954403900E+04  0.12700000000E+03 0.  0.
   -5000001    1    1    2    0    0 -0.10413765624E+03  0.24889301994E+02 -0.22230012260E+03  0.27750760946E+03  0.12700000000E+03 0.  0.
<mgrwt>
<rscale>  0 0.42634655E+03</rscale>
<asrwt>0</asrwt>
<pdfrwt beam="1">  1        2 0.48482344E-02 0.42634655E+03</pdfrwt>
<pdfrwt beam="2">  1       -2 0.19128716E+00 0.42634655E+03</pdfrwt>
<totfact> 0.26862358E+02</totfact>
</mgrwt>
</event>
<event>
 4    1  0.1361667E-004  0.3020322E+03  0.7818608E-02  0.1084229E+00
          2   -1    0    0  501    0  0.00000000000E+00  0.00000000000E+00  0.18181724073E+04  0.18181724073E+04  0.25500000000E-02 0.  1.
         -2   -1    0    0    0  501 -0.00000000000E+00 -0.00000000000E+00 -0.12543290303E+02  0.12543290562E+02  0.25500000000E-02 0. -1.
    5000001    1    1    2    0    0  0.50661382034E+02 -0.60681642360E+02  0.77741288535E+03  0.79167457434E+03  0.12700000000E+03 0.  0.
   -5000001    1    1    2    0    0 -0.50661382034E+02  0.60681642360E+02  0.10282162316E+04  0.10390411235E+04  0.12700000000E+03 0.  0.
<mgrwt>
<rscale>  0 0.30203221E+03</rscale>
<asrwt>0</asrwt>
<pdfrwt beam="1">  1        2 0.25973896E+00 0.30203221E+03</pdfrwt>
<pdfrwt beam="2">  1       -2 0.17918984E-02 0.30203221E+03</pdfrwt>
<totfact> 0.98691409E+03</totfact>
</mgrwt>
</event>
<event>
 4    1  0.1361667E-004  0.6058239E+03  0.7818608E-02  0.9893396E-01
          2   -1    0    0  501    0  0.00000000000E+00  0.00000000000E+00  0.21203725666E+03  0.21203725667E+03  0.25500000000E-02 0.  1.
         -2   -1    0    0    0  501 -0.00000000000E+00 -0.00000000000E+00 -0.43273364521E+03  0.43273364522E+03  0.25500000000E-02 0. -1.
    5000001    1    1    2    0    0 -0.27458863104E+03 -0.66566858199E-01 -0.94287170974E+02  0.31688797916E+03  0.12700000000E+03 0.  0.
   -5000001    1    1    2    0    0  0.27458863104E+03  0.66566858199E-01 -0.12640921758E+03  0.32788292273E+03  0.12700000000E+03 0.  0.
<mgrwt>
<rscale>  0 0.60582392E+03</rscale>
<asrwt>0</asrwt>
<pdfrwt beam="1">  1        2 0.30291037E-01 0.60582392E+03</pdfrwt>
<pdfrwt beam="2">  1       -2 0.61819092E-01 0.60582392E+03</pdfrwt>
<totfact> 0.43171323E+02</totfact>
</mgrwt>
</event>
<event>
 4    1  0.1361667E-004  0.2664904E+03  0.7818608E-02  0.1103305E+00
         -2   -1    0    0    0  501 -0.00000000000E+00  0.00000000000E+00  0.47019461734E+01  0.47019468649E+01  0.25500000000E-02 0. -1.
          2   -1    0    0  501    0  0.00000000000E+00 -0.00000000000E+00 -0.37759444206E+04  0.37759444206E+04  0.25500000000E-02 0.  1.
    5000001    1    1    2    0    0  0.36060010070E+02 -0.16472601696E+02 -0.17817395732E+04  0.17866999126E+04  0.12700000000E+03 0.  0.
   -5000001    1    1    2    0    0 -0.36060010070E+02  0.16472601696E+02 -0.19895029013E+04  0.19939464549E+04  0.12700000000E+03 0.  0.
<mgrwt>
<rscale>  0 0.26649044E+03</rscale>
<asrwt>0</asrwt>
<pdfrwt beam="1">  1        2 0.53941869E+00 0.26649044E+03</pdfrwt>
<pdfrwt beam="2">  1       -2 0.67170906E-03 0.26649044E+03</pdfrwt>
<totfact> 0.38165415E+03</totfact>
</mgrwt>
</event>
<event>
 4    1  0.1361667E-004  0.3789626E+03  0.7818608E-02  0.1051318E+00
          2   -1    0    0  501    0  0.00000000000E+00  0.00000000000E+00  0.33206657100E+04  0.33206657100E+04  0.25500000000E-02 0.  1.
         -2   -1    0    0    0  501 -0.00000000000E+00 -0.00000000000E+00 -0.10812039847E+02  0.10812040147E+02  0.25500000000E-02 0. -1.
    5000001    1    1    2    0    0  0.11980680242E+03 -0.71735456364E+02  0.18005838379E+04  0.18104504420E+04  0.12700000000E+03 0.  0.
   -5000001    1    1    2    0    0 -0.11980680242E+03  0.71735456364E+02  0.15092698323E+04  0.15210273082E+04  0.12700000000E+03 0.  0.
<mgrwt>
<rscale>  0 0.37896264E+03</rscale>
<asrwt>0</asrwt>
<pdfrwt beam="1">  1        2 0.47438080E+00 0.37896264E+03</pdfrwt>
<pdfrwt beam="2">  1       -2 0.15445772E-02 0.37896264E+03</pdfrwt>
<totfact> 0.20743266E+03</totfact>
</mgrwt>
</event>
<event>
 4    1  0.1361667E-004  0.5384720E+03  0.7818608E-02  0.1004198E+00
         -2   -1    0    0    0  501 -0.00000000000E+00  0.00000000000E+00  0.39659894837E+02  0.39659894919E+02  0.25500000000E-02 0. -1.
          2   -1    0    0  501    0  0.00000000000E+00 -0.00000000000E+00 -0.18277413485E+04  0.18277413485E+04  0.25500000000E-02 0.  1.
    5000001    1    1    2    0    0  0.83966438017E+02 -0.21953032227E+03 -0.77823439328E+03  0.82281328136E+03  0.12700000000E+03 0.  0.
   -5000001    1    1    2    0    0 -0.83966438017E+02  0.21953032227E+03 -0.10098470604E+04  0.10445879621E+04  0.12700000000E+03 0.  0.
<mgrwt>
<rscale>  0 0.53847202E+03</rscale>
<asrwt>0</asrwt>
<pdfrwt beam="1">  1        2 0.26110585E+00 0.53847202E+03</pdfrwt>
<pdfrwt beam="2">  1       -2 0.56657004E-02 0.53847202E+03</pdfrwt>
<totfact> 0.17125463E+03</totfact>
</mgrwt>
</event>
<event>
 4    1  0.1361667E-004  0.3287858E+03  0.7818608E-02  0.1071675E+00
          2   -1    0    0  501    0  0.00000000000E+00  0.00000000000E+00  0.37243842464E+02  0.37243842551E+02  0.25500000000E-02 0.  1.
         -2   -1    0    0    0  501 -0.00000000000E+00 -0.00000000000E+00 -0.72562390227E+03  0.72562390228E+03  0.25500000000E-02 0. -1.
    5000001    1    1    2    0    0 -0.92597976572E+02 -0.47788186148E+02 -0.35847918948E+03  0.39432781450E+03  0.12700000000E+03 0.  0.
   -5000001    1    1    2    0    0  0.92597976572E+02  0.47788186148E+02 -0.32990087033E+03  0.36853993033E+03  0.12700000000E+03 0.  0.
<mgrwt>
<rscale>  0 0.32878578E+03</rscale>
<asrwt>0</asrwt>
<pdfrwt beam="1">  1        2 0.53205494E-02 0.32878578E+03</pdfrwt>
<pdfrwt beam="2">  1       -2 0.10366055E+00 0.32878578E+03</pdfrwt>
<totfact> 0.11468988E+03</totfact>
</mgrwt>
</event>
<event>
 4    1  0.1361667E-004  0.5253756E+03  0.7818608E-02  0.1007360E+00
          2   -1    0    0  501    0  0.00000000000E+00  0.00000000000E+00  0.79137051055E+02  0.79137051096E+02  0.25500000000E-02 0.  1.
         -2   -1    0    0    0  501 -0.00000000000E+00 -0.00000000000E+00 -0.87196671770E+03  0.87196671770E+03  0.25500000000E-02 0. -1.
    5000001    1    1    2    0    0  0.19768959741E+03 -0.73826926320E+02 -0.56178323388E+03  0.61340116877E+03  0.12700000000E+03 0.  0.
   -5000001    1    1    2    0    0 -0.19768959741E+03  0.73826926320E+02 -0.23104643276E+03  0.33770260003E+03  0.12700000000E+03 0.  0.
<mgrwt>
<rscale>  0 0.52537558E+03</rscale>
<asrwt>0</asrwt>
<pdfrwt beam="1">  1        2 0.11305294E-01 0.52537558E+03</pdfrwt>
<pdfrwt beam="2">  1       -2 0.12456667E+00 0.52537558E+03</pdfrwt>
<totfact> 0.27896207E+02</totfact>
</mgrwt>
</event>
<event>
 4    1  0.1361667E-004  0.3417174E+03  0.7818608E-02  0.1066067E+00
          2   -1    0    0  501    0  0.00000000000E+00  0.00000000000E+00  0.12452280034E+04  0.12452280034E+04  0.25500000000E-02 0.  1.
         -2   -1    0    0    0  501 -0.00000000000E+00 -0.00000000000E+00 -0.23443658610E+02  0.23443658748E+02  0.25500000000E-02 0. -1.
    5000001    1    1    2    0    0  0.51882494301E+02  0.75440667148E+02  0.35689231772E+03  0.38972325299E+03  0.12700000000E+03 0.  0.
   -5000001    1    1    2    0    0 -0.51882494301E+02 -0.75440667148E+02  0.86489202709E+03  0.87894840918E+03  0.12700000000E+03 0.  0.
<mgrwt>
<rscale>  0 0.34171743E+03</rscale>
<asrwt>0</asrwt>
<pdfrwt beam="1">  1        2 0.17788971E+00 0.34171743E+03</pdfrwt>
<pdfrwt beam="2">  1       -2 0.33490943E-02 0.34171743E+03</pdfrwt>
<totfact> 0.76405261E+03</totfact>
</mgrwt>
</event>
<event>
 4    1  0.1361667E-004  0.2768874E+03  0.7818608E-02  0.1097401E+00
         -2   -1    0    0    0  501 -0.00000000000E+00  0.00000000000E+00  0.25568981633E+03  0.25568981634E+03  0.25500000000E-02 0. -1.
          2   -1    0    0  501    0  0.00000000000E+00 -0.00000000000E+00 -0.74960564709E+02  0.74960564753E+02  0.25500000000E-02 0.  1.
    5000001    1    1    2    0    0 -0.77529674844E+01  0.53014125400E+02  0.10579886681E+03  0.17376134845E+03  0.12700000000E+03 0.  0.
   -5000001    1    1    2    0    0  0.77529674844E+01 -0.53014125400E+02  0.74930384812E+02  0.15688903265E+03  0.12700000000E+03 0.  0.
<mgrwt>
<rscale>  0 0.27688736E+03</rscale>
<asrwt>0</asrwt>
<pdfrwt beam="1">  1        2 0.10708652E-01 0.27688736E+03</pdfrwt>
<pdfrwt beam="2">  1       -2 0.36527117E-01 0.27688736E+03</pdfrwt>
<totfact> 0.41478083E+03</totfact>
</mgrwt>
</event>
<event>
 4    1  0.1361667E-004  0.2712698E+03  0.7818608E-02  0.1100555E+00
         -2   -1    0    0    0  501 -0.00000000000E+00  0.00000000000E+00  0.33568014913E+02  0.33568015010E+02  0.25500000000E-02 0. -1.
          2   -1    0    0  501    0  0.00000000000E+00 -0.00000000000E+00 -0.54804634324E+03  0.54804634325E+03  0.25500000000E-02 0.  1.
    5000001    1    1    2    0    0  0.17072373857E+02 -0.39360864782E+02 -0.30154800799E+03  0.33000143143E+03  0.12700000000E+03 0.  0.
   -5000001    1    1    2    0    0 -0.17072373857E+02  0.39360864782E+02 -0.21293032034E+03  0.25161292683E+03  0.12700000000E+03 0.  0.
<mgrwt>
<rscale>  0 0.27126981E+03</rscale>
<asrwt>0</asrwt>
<pdfrwt beam="1">  1        2 0.78292329E-01 0.27126981E+03</pdfrwt>
<pdfrwt beam="2">  1       -2 0.47954310E-02 0.27126981E+03</pdfrwt>
<totfact> 0.12649531E+04</totfact>
</mgrwt>
</event>
<event>
 4    1  0.1361667E-004  0.8632556E+03  0.7818608E-02  0.9472716E-01
          2   -1    0    0  501    0  0.00000000000E+00  0.00000000000E+00  0.10940813200E+04  0.10940813200E+04  0.25500000000E-02 0.  1.
         -2   -1    0    0    0  501 -0.00000000000E+00 -0.00000000000E+00 -0.17028217103E+03  0.17028217105E+03  0.25500000000E-02 0. -1.
    5000001    1    1    2    0    0  0.35906352088E+03 -0.57000320511E+02  0.17639549162E+03  0.42358000192E+03  0.12700000000E+03 0.  0.
   -5000001    1    1    2    0    0 -0.35906352088E+03  0.57000320511E+02  0.74740365731E+03  0.84078348909E+03  0.12700000000E+03 0.  0.
<mgrwt>
<rscale>  0 0.86325556E+03</rscale>
<asrwt>0</asrwt>
<pdfrwt beam="1">  1        2 0.15629733E+00 0.86325556E+03</pdfrwt>
<pdfrwt beam="2">  1       -2 0.24326025E-01 0.86325556E+03</pdfrwt>
<totfact> 0.37129798E+02</totfact>
</mgrwt>
</event>
<event>
 4    1  0.1361667E-004  0.2966145E+03  0.7818608E-02  0.1086945E+00
         -2   -1    0    0    0  501 -0.00000000000E+00  0.00000000000E+00  0.61531383579E+01  0.61531388862E+01  0.25500000000E-02 0. -1.
          2   -1    0    0  501    0  0.00000000000E+00 -0.00000000000E+00 -0.35746053437E+04  0.35746053437E+04  0.25500000000E-02 0.  1.
    5000001    1    1    2    0    0 -0.50962782282E+02 -0.43312807668E+02 -0.13336865815E+04  0.13413881251E+04  0.12700000000E+03 0.  0.
   -5000001    1    1    2    0    0  0.50962782282E+02  0.43312807668E+02 -0.22347656238E+04  0.22393703574E+04  0.12700000000E+03 0.  0.
<mgrwt>
<rscale>  0 0.29661451E+03</rscale>
<asrwt>0</asrwt>
<pdfrwt beam="1">  1        2 0.51065658E+00 0.29661451E+03</pdfrwt>
<pdfrwt beam="2">  1       -2 0.87902209E-03 0.29661451E+03</pdfrwt>
<totfact> 0.34074141E+03</totfact>
</mgrwt>
</event>
<event>
 4    1  0.1361667E-004  0.4458116E+03  0.7818608E-02  0.1028978E+00
          2   -1    0    0  501    0  0.00000000000E+00  0.00000000000E+00  0.10665498215E+04  0.10665498215E+04  0.25500000000E-02 0.  1.
         -2   -1    0    0    0  501 -0.00000000000E+00 -0.00000000000E+00 -0.46586670821E+02  0.46586670891E+02  0.25500000000E-02 0. -1.
    5000001    1    1    2    0    0 -0.18089307579E+03  0.24154861859E+02  0.54963738342E+03  0.59290472715E+03  0.12700000000E+03 0.  0.
   -5000001    1    1    2    0    0  0.18089307579E+03 -0.24154861859E+02  0.47032576725E+03  0.52023176523E+03  0.12700000000E+03 0.  0.
<mgrwt>
<rscale>  0 0.44581164E+03</rscale>
<asrwt>0</asrwt>
<pdfrwt beam="1">  1        2 0.15236425E+00 0.44581164E+03</pdfrwt>
<pdfrwt beam="2">  1       -2 0.66552393E-02 0.44581164E+03</pdfrwt>
<totfact> 0.33714098E+03</totfact>
</mgrwt>
</event>
<event>
 4    1  0.1361667E-004  0.1049600E+04  0.7818608E-02  0.9255757E-01
          2   -1    0    0  501    0  0.00000000000E+00  0.00000000000E+00  0.92347741796E+03  0.92347741796E+03  0.25500000000E-02 0.  1.
         -2   -1    0    0    0  501 -0.00000000000E+00 -0.00000000000E+00 -0.29823672502E+03  0.29823672503E+03  0.25500000000E-02 0. -1.
    5000001    1    1    2    0    0  0.18373358092E+03 -0.47167528122E+03  0.24833443037E+03  0.57795725532E+03  0.12700000000E+03 0.  0.
   -5000001    1    1    2    0    0 -0.18373358092E+03  0.47167528122E+03  0.37690626256E+03  0.64375688767E+03  0.12700000000E+03 0.  0.
<mgrwt>
<rscale>  0 0.10495997E+04</rscale>
<asrwt>0</asrwt>
<pdfrwt beam="1">  1        2 0.13192535E+00 0.10495997E+04</pdfrwt>
<pdfrwt beam="2">  1       -2 0.42605246E-01 0.10495997E+04</pdfrwt>
<totfact> 0.16307965E+02</totfact>
</mgrwt>
</event>
<event>
 4    1  0.1361667E-004  0.4026255E+03  0.7818608E-02  0.1042874E+00
          2   -1    0    0  501    0  0.00000000000E+00  0.00000000000E+00  0.17813006384E+04  0.17813006384E+04  0.25500000000E-02 0.  1.
         -2   -1    0    0    0  501 -0.00000000000E+00 -0.00000000000E+00 -0.22751254484E+02  0.22751254627E+02  0.25500000000E-02 0. -1.
    5000001    1    1    2    0    0  0.10193059158E+03  0.11609520632E+03  0.98241709848E+03  0.10025668545E+04  0.12700000000E+03 0.  0.
   -5000001    1    1    2    0    0 -0.10193059158E+03 -0.11609520632E+03  0.77613228543E+03  0.80148503849E+03  0.12700000000E+03 0.  0.
<mgrwt>
<rscale>  0 0.40262550E+03</rscale>
<asrwt>0</asrwt>
<pdfrwt beam="1">  1        2 0.25447148E+00 0.40262550E+03</pdfrwt>
<pdfrwt beam="2">  1       -2 0.32501797E-02 0.40262550E+03</pdfrwt>
<totfact> 0.42475288E+03</totfact>
</mgrwt>
</event>
<event>
 4    1  0.1361667E-004  0.3470804E+03  0.7818608E-02  0.1063820E+00
         -2   -1    0    0    0  501 -0.00000000000E+00  0.00000000000E+00  0.53646894570E+02  0.53646894631E+02  0.25500000000E-02 0. -1.
          2   -1    0    0  501    0  0.00000000000E+00 -0.00000000000E+00 -0.56137838763E+03  0.56137838763E+03  0.25500000000E-02 0.  1.
    5000001    1    1    2    0    0  0.23906618382E+02 -0.11103809780E+03 -0.19546450787E+03  0.25929974817E+03  0.12700000000E+03 0.  0.
   -5000001    1    1    2    0    0 -0.23906618382E+02  0.11103809780E+03 -0.31226698519E+03  0.35572553409E+03  0.12700000000E+03 0.  0.
<mgrwt>
<rscale>  0 0.34708044E+03</rscale>
<asrwt>0</asrwt>
<pdfrwt beam="1">  1        2 0.80196909E-01 0.34708044E+03</pdfrwt>
<pdfrwt beam="2">  1       -2 0.76638424E-02 0.34708044E+03</pdfrwt>
<totfact> 0.60306344E+03</totfact>
</mgrwt>
</event>
<event>
 4    1  0.1361667E-004  0.5592779E+03  0.7818608E-02  0.9993690E-01
         -2   -1    0    0    0  501 -0.00000000000E+00  0.00000000000E+00  0.37271551978E+02  0.37271552065E+02  0.25500000000E-02 0. -1.
          2   -1    0    0  501    0  0.00000000000E+00 -0.00000000000E+00 -0.20980595949E+04  0.20980595949E+04  0.25500000000E-02 0.  1.
    5000001    1    1    2    0    0  0.68948814535E+02  0.22581522861E+03 -0.72680829311E+03  0.77467783719E+03  0.12700000000E+03 0.  0.
   -5000001    1    1    2    0    0 -0.68948814535E+02 -0.22581522861E+03 -0.13339797498E+04  0.13606533098E+04  0.12700000000E+03 0.  0.
<mgrwt>
<rscale>  0 0.55927788E+03</rscale>
<asrwt>0</asrwt>
<pdfrwt beam="1">  1        2 0.29972272E+00 0.55927788E+03</pdfrwt>
<pdfrwt beam="2">  1       -2 0.53245088E-02 0.55927788E+03</pdfrwt>
<totfact> 0.13794919E+03</totfact>
</mgrwt>
</event>
<event>
 4    1  0.1361667E-004  0.3326935E+03  0.7818608E-02  0.1069951E+00
         -2   -1    0    0    0  501 -0.00000000000E+00  0.00000000000E+00  0.73488449544E+03  0.73488449544E+03  0.25500000000E-02 0. -1.
          2   -1    0    0  501    0  0.00000000000E+00 -0.00000000000E+00 -0.37653854536E+02  0.37653854623E+02  0.25500000000E-02 0.  1.
    5000001    1    1    2    0    0  0.54502789741E+02 -0.89604589259E+02  0.40271001441E+03  0.43509067126E+03  0.12700000000E+03 0.  0.
   -5000001    1    1    2    0    0 -0.54502789741E+02  0.89604589259E+02  0.29452062649E+03  0.33744767881E+03  0.12700000000E+03 0.  0.
<mgrwt>
<rscale>  0 0.33269346E+03</rscale>
<asrwt>0</asrwt>
<pdfrwt beam="1">  1        2 0.53791215E-02 0.33269346E+03</pdfrwt>
<pdfrwt beam="2">  1       -2 0.10498351E+00 0.33269346E+03</pdfrwt>
<totfact> 0.10973327E+03</totfact>
</mgrwt>
</event>
<event>
 4    1  0.1361667E-004  0.1002989E+04  0.7818608E-02  0.9305272E-01
         -2   -1    0    0    0  501 -0.00000000000E+00  0.00000000000E+00  0.17621496244E+03  0.17621496246E+03  0.25500000000E-02 0. -1.
          2   -1    0    0  501    0  0.00000000000E+00 -0.00000000000E+00 -0.14272158562E+04  0.14272158562E+04  0.25500000000E-02 0.  1.
    5000001    1    1    2    0    0  0.24454733125E+03 -0.22905251131E+03 -0.11863958342E+04  0.12393274489E+04  0.12700000000E+03 0.  0.
   -5000001    1    1    2    0    0 -0.24454733125E+03  0.22905251131E+03 -0.64605059558E+02  0.36410336977E+03  0.12700000000E+03 0.  0.
<mgrwt>
<rscale>  0 0.10029891E+04</rscale>
<asrwt>0</asrwt>
<pdfrwt beam="1">  1        2 0.20388797E+00 0.10029891E+04</pdfrwt>
<pdfrwt beam="2">  1       -2 0.25173567E-01 0.10029891E+04</pdfrwt>
<totfact> 0.22557863E+02</totfact>
</mgrwt>
</event>
<event>
 4    1  0.1361667E-004  0.4283950E+03  0.7818608E-02  0.1034368E+00
          2   -1    0    0  501    0  0.00000000000E+00  0.00000000000E+00  0.57746245955E+03  0.57746245955E+03  0.25500000000E-02 0.  1.
         -2   -1    0    0    0  501 -0.00000000000E+00 -0.00000000000E+00 -0.79452020095E+02  0.79452020136E+02  0.25500000000E-02 0. -1.
    5000001    1    1    2    0    0  0.10499359093E+02 -0.11187440100E+03  0.48333871509E+02  0.17632719948E+03  0.12700000000E+03 0.  0.
   -5000001    1    1    2    0    0 -0.10499359093E+02  0.11187440100E+03  0.44967656794E+03  0.48058728021E+03  0.12700000000E+03 0.  0.
<mgrwt>
<rscale>  0 0.42839495E+03</rscale>
<asrwt>0</asrwt>
<pdfrwt beam="1">  1        2 0.82494634E-01 0.42839495E+03</pdfrwt>
<pdfrwt beam="2">  1       -2 0.11350289E-01 0.42839495E+03</pdfrwt>
<totfact> 0.31336335E+03</totfact>
</mgrwt>
</event>
<event>
 4    1  0.1361667E-004  0.4973520E+03  0.7818608E-02  0.1014472E+00
         -2   -1    0    0    0  501 -0.00000000000E+00  0.00000000000E+00  0.13617226435E+03  0.13617226437E+03  0.25500000000E-02 0. -1.
          2   -1    0    0  501    0  0.00000000000E+00 -0.00000000000E+00 -0.45412891194E+03  0.45412891195E+03  0.25500000000E-02 0.  1.
    5000001    1    1    2    0    0  0.15001883192E+03 -0.12324713938E+03 -0.26523798286E+03  0.35238571885E+03  0.12700000000E+03 0.  0.
   -5000001    1    1    2    0    0 -0.15001883192E+03  0.12324713938E+03 -0.52718664730E+02  0.23791545747E+03  0.12700000000E+03 0.  0.
<mgrwt>
<rscale>  0 0.49735204E+03</rscale>
<asrwt>0</asrwt>
<pdfrwt beam="1">  1        2 0.64875558E-01 0.49735204E+03</pdfrwt>
<pdfrwt beam="2">  1       -2 0.19453181E-01 0.49735204E+03</pdfrwt>
<totfact> 0.16724070E+03</totfact>
</mgrwt>
</event>
<event>
 4    1  0.1361667E-004  0.4038619E+03  0.7818608E-02  0.1042451E+00
          2   -1    0    0  501    0  0.00000000000E+00  0.00000000000E+00  0.15113512171E+04  0.15113512171E+04  0.25500000000E-02 0.  1.
         -2   -1    0    0    0  501 -0.00000000000E+00 -0.00000000000E+00 -0.26979908917E+02  0.26979909037E+02  0.25500000000E-02 0. -1.
    5000001    1    1    2    0    0 -0.15426750051E+03 -0.18661586581E+01  0.63144936680E+03  0.66231355647E+03  0.12700000000E+03 0.  0.
   -5000001    1    1    2    0    0  0.15426750051E+03  0.18661586581E+01  0.85292194139E+03  0.87601756967E+03  0.12700000000E+03 0.  0.
<mgrwt>
<rscale>  0 0.40386195E+03</rscale>
<asrwt>0</asrwt>
<pdfrwt beam="1">  1        2 0.21590729E+00 0.40386195E+03</pdfrwt>
<pdfrwt beam="2">  1       -2 0.38542731E-02 0.40386195E+03</pdfrwt>
<totfact> 0.44889145E+03</totfact>
</mgrwt>
</event>
<event>
 4    1  0.1361667E-004  0.2931285E+03  0.7818608E-02  0.1088727E+00
          2   -1    0    0  501    0  0.00000000000E+00  0.00000000000E+00  0.18604575359E+03  0.18604575361E+03  0.25500000000E-02 0.  1.
         -2   -1    0    0    0  501 -0.00000000000E+00 -0.00000000000E+00 -0.11546126536E+03  0.11546126539E+03  0.25500000000E-02 0. -1.
    5000001    1    1    2    0    0  0.58999548073E+02 -0.37602594335E+02  0.57285082147E+02  0.15590215653E+03  0.12700000000E+03 0.  0.
   -5000001    1    1    2    0    0 -0.58999548073E+02  0.37602594335E+02  0.13299406083E+02  0.14560486247E+03  0.12700000000E+03 0.  0.
<mgrwt>
<rscale>  0 0.29312849E+03</rscale>
<asrwt>0</asrwt>
<pdfrwt beam="1">  1        2 0.26577964E-01 0.29312849E+03</pdfrwt>
<pdfrwt beam="2">  1       -2 0.16494467E-01 0.29312849E+03</pdfrwt>
<totfact> 0.58364308E+03</totfact>
</mgrwt>
</event>
<event>
 4    1  0.1361667E-004  0.3281859E+03  0.7818608E-02  0.1071942E+00
          2   -1    0    0  501    0  0.00000000000E+00  0.00000000000E+00  0.10690492867E+04  0.10690492867E+04  0.25500000000E-02 0.  1.
         -2   -1    0    0    0  501 -0.00000000000E+00 -0.00000000000E+00 -0.25187323935E+02  0.25187324064E+02  0.25500000000E-02 0. -1.
    5000001    1    1    2    0    0 -0.79571636960E+02  0.43612236518E+02  0.35310667340E+03  0.38606605055E+03  0.12700000000E+03 0.  0.
   -5000001    1    1    2    0    0  0.79571636960E+02 -0.43612236518E+02  0.69075528936E+03  0.70817056022E+03  0.12700000000E+03 0.  0.
<mgrwt>
<rscale>  0 0.32818587E+03</rscale>
<asrwt>0</asrwt>
<pdfrwt beam="1">  1        2 0.15272133E+00 0.32818587E+03</pdfrwt>
<pdfrwt beam="2">  1       -2 0.35981890E-02 0.32818587E+03</pdfrwt>
<totfact> 0.85877562E+03</totfact>
</mgrwt>
</event>
<event>
 4    1  0.1361667E-004  0.2946169E+03  0.7818608E-02  0.1087963E+00
          2   -1    0    0  501    0  0.00000000000E+00  0.00000000000E+00  0.41269933559E+03  0.41269933560E+03  0.25500000000E-02 0. -1.
         -2   -1    0    0    0  501 -0.00000000000E+00 -0.00000000000E+00 -0.52580099765E+02  0.52580099827E+02  0.25500000000E-02 0.  1.
    5000001    1    1    2    0    0 -0.39282383313E+02 -0.49915622471E+02  0.11816318377E+03  0.18473281518E+03  0.12700000000E+03 0.  0.
   -5000001    1    1    2    0    0  0.39282383313E+02  0.49915622471E+02  0.24195605205E+03  0.28054662024E+03  0.12700000000E+03 0.  0.
<mgrwt>
<rscale>  0 0.29461685E+03</rscale>
<asrwt>0</asrwt>
<pdfrwt beam="1">  1        2 0.58957047E-01 0.29461685E+03</pdfrwt>
<pdfrwt beam="2">  1       -2 0.75114430E-02 0.29461685E+03</pdfrwt>
<totfact> 0.87058048E+03</totfact>
</mgrwt>
</event>
<event>
 4    1  0.1361667E-004  0.7084439E+03  0.7818608E-02  0.9702900E-01
          2   -1    0    0  501    0  0.00000000000E+00  0.00000000000E+00  0.39761201388E+04  0.39761201388E+04  0.25500000000E-02 0.  1.
         -2   -1    0    0    0  501 -0.00000000000E+00 -0.00000000000E+00 -0.31556691056E+02  0.31556691159E+02  0.25500000000E-02 0. -1.
    5000001    1    1    2    0    0 -0.18275562478E+03  0.27428278648E+03  0.18211717115E+04  0.18551081015E+04  0.12700000000E+03 0.  0.
   -5000001    1    1    2    0    0  0.18275562478E+03 -0.27428278648E+03  0.21233917362E+04  0.21525687285E+04  0.12700000000E+03 0.  0.
<mgrwt>
<rscale>  0 0.70844391E+03</rscale>
<asrwt>0</asrwt>
<pdfrwt beam="1">  1        2 0.56801722E+00 0.70844391E+03</pdfrwt>
<pdfrwt beam="2">  1       -2 0.45080982E-02 0.70844391E+03</pdfrwt>
<totfact> 0.15663657E+02</totfact>
</mgrwt>
</event>
<event>
 4    1  0.1361667E-004  0.4700594E+03  0.7818608E-02  0.1021903E+00
         -2   -1    0    0    0  501 -0.00000000000E+00  0.00000000000E+00  0.64225873693E+03  0.64225873693E+03  0.25500000000E-02 0. -1.
          2   -1    0    0  501    0  0.00000000000E+00 -0.00000000000E+00 -0.86007342280E+02  0.86007342318E+02  0.25500000000E-02 0.  1.
    5000001    1    1    2    0    0  0.14763414015E+03 -0.12393794735E+03  0.20964858243E+03  0.31183005347E+03  0.12700000000E+03 0.  0.
   -5000001    1    1    2    0    0 -0.14763414015E+03  0.12393794735E+03  0.34660281222E+03  0.41643602578E+03  0.12700000000E+03 0.  0.
<mgrwt>
<rscale>  0 0.47005943E+03</rscale>
<asrwt>0</asrwt>
<pdfrwt beam="1">  1        2 0.12286763E-01 0.47005943E+03</pdfrwt>
<pdfrwt beam="2">  1       -2 0.91751251E-01 0.47005943E+03</pdfrwt>
<totfact> 0.52253308E+02</totfact>
</mgrwt>
</event>
<event>
 4    1  0.1361667E-004  0.5488519E+03  0.7818608E-02  0.1001760E+00
          2   -1    0    0  501    0  0.00000000000E+00  0.00000000000E+00  0.12762550419E+04  0.12762550419E+04  0.25500000000E-02 0.  1.
         -2   -1    0    0    0  501 -0.00000000000E+00 -0.00000000000E+00 -0.59008268901E+02  0.59008268956E+02  0.25500000000E-02 0. -1.
    5000001    1    1    2    0    0 -0.99348716574E+02 -0.19715411214E+03  0.85720919652E+03  0.89424634079E+03  0.12700000000E+03 0.  0.
   -5000001    1    1    2    0    0  0.99348716574E+02  0.19715411214E+03  0.36003757652E+03  0.44101697011E+03  0.12700000000E+03 0.  0.
<mgrwt>
<rscale>  0 0.54885190E+03</rscale>
<asrwt>0</asrwt>
<pdfrwt beam="1">  1        2 0.18232215E+00 0.54885190E+03</pdfrwt>
<pdfrwt beam="2">  1       -2 0.84297525E-02 0.54885190E+03</pdfrwt>
<totfact> 0.17672900E+03</totfact>
</mgrwt>
</event>
<event>
 4    1  0.1361667E-004  0.4671081E+03  0.7818608E-02  0.1022740E+00
         -2   -1    0    0    0  501 -0.00000000000E+00  0.00000000000E+00  0.26691463423E+02  0.26691463545E+02  0.25500000000E-02 0. -1.
          2   -1    0    0  501    0  0.00000000000E+00 -0.00000000000E+00 -0.20436305381E+04  0.20436305381E+04  0.25500000000E-02 0.  1.
    5000001    1    1    2    0    0 -0.14785453452E+03  0.12864248708E+03 -0.99544379303E+03  0.10224711233E+04  0.12700000000E+03 0.  0.
   -5000001    1    1    2    0    0  0.14785453452E+03 -0.12864248708E+03 -0.10214952816E+04  0.10478508783E+04  0.12700000000E+03 0.  0.
<mgrwt>
<rscale>  0 0.46710808E+03</rscale>
<asrwt>0</asrwt>
<pdfrwt beam="1">  1        2 0.29194712E+00 0.46710808E+03</pdfrwt>
<pdfrwt beam="2">  1       -2 0.38130675E-02 0.46710808E+03</pdfrwt>
<totfact> 0.24652763E+03</totfact>
</mgrwt>
</event>
<event>
 4    1  0.1361667E-004  0.4479731E+03  0.7818608E-02  0.1028328E+00
         -2   -1    0    0    0  501 -0.00000000000E+00  0.00000000000E+00  0.43740677830E+02  0.43740677904E+02  0.25500000000E-02 0. -1.
          2   -1    0    0  501    0  0.00000000000E+00 -0.00000000000E+00 -0.11469868630E+04  0.11469868630E+04  0.25500000000E-02 0.  1.
    5000001    1    1    2    0    0 -0.14468793723E+03 -0.10967049805E+03 -0.63892504687E+03  0.67625175257E+03  0.12700000000E+03 0.  0.
   -5000001    1    1    2    0    0  0.14468793723E+03  0.10967049805E+03 -0.46432113831E+03  0.51447578836E+03  0.12700000000E+03 0.  0.
<mgrwt>
<rscale>  0 0.44797314E+03</rscale>
<asrwt>0</asrwt>
<pdfrwt beam="1">  1        2 0.16385525E+00 0.44797314E+03</pdfrwt>
<pdfrwt beam="2">  1       -2 0.62486690E-02 0.44797314E+03</pdfrwt>
<totfact> 0.33451702E+03</totfact>
</mgrwt>
</event>
<event>
 4    1  0.1361667E-004  0.4571123E+03  0.7818608E-02  0.1025622E+00
          2   -1    0    0  501    0  0.00000000000E+00  0.00000000000E+00  0.78621601458E+03  0.78621601458E+03  0.25500000000E-02 0.  1.
         -2   -1    0    0    0  501 -0.00000000000E+00 -0.00000000000E+00 -0.66442187483E+02  0.66442187532E+02  0.25500000000E-02 0. -1.
    5000001    1    1    2    0    0  0.98112400541E+02  0.16055906255E+03  0.31040661395E+03  0.38456016654E+03  0.12700000000E+03 0.  0.
   -5000001    1    1    2    0    0 -0.98112400541E+02 -0.16055906255E+03  0.40936721314E+03  0.46809803557E+03  0.12700000000E+03 0.  0.
<mgrwt>
<rscale>  0 0.45711229E+03</rscale>
<asrwt>0</asrwt>
<pdfrwt beam="1">  1        2 0.11231657E+00 0.45711229E+03</pdfrwt>
<pdfrwt beam="2">  1       -2 0.94917413E-02 0.45711229E+03</pdfrwt>
<totfact> 0.28900112E+03</totfact>
</mgrwt>
</event>
<event>
 4    1  0.1361667E-004  0.4577203E+03  0.7818608E-02  0.1025444E+00
         -2   -1    0    0    0  501 -0.00000000000E+00  0.00000000000E+00  0.13181636961E+02  0.13181637207E+02  0.25500000000E-02 0. -1.
          2   -1    0    0  501    0  0.00000000000E+00 -0.00000000000E+00 -0.39734789512E+04  0.39734789512E+04  0.25500000000E-02 0.  1.
    5000001    1    1    2    0    0  0.34632209998E+02 -0.18711570556E+03 -0.20326105953E+04  0.20454453083E+04  0.12700000000E+03 0.  0.
   -5000001    1    1    2    0    0 -0.34632209998E+02  0.18711570556E+03 -0.19276867189E+04  0.19412152801E+04  0.12700000000E+03 0.  0.
<mgrwt>
<rscale>  0 0.45772025E+03</rscale>
<asrwt>0</asrwt>
<pdfrwt beam="1">  1        2 0.56763908E+00 0.45772025E+03</pdfrwt>
<pdfrwt beam="2">  1       -2 0.18830936E-02 0.45772025E+03</pdfrwt>
<totfact> 0.61368930E+02</totfact>
</mgrwt>
</event>
<event>
 4    1  0.1361667E-004  0.3694932E+03  0.7818608E-02  0.1054887E+00
          2   -1    0    0  501    0  0.00000000000E+00  0.00000000000E+00  0.21195072223E+03  0.21195072224E+03  0.25500000000E-02 0.  1.
         -2   -1    0    0    0  501 -0.00000000000E+00 -0.00000000000E+00 -0.16103412700E+03  0.16103412702E+03  0.25500000000E-02 0. -1.
    5000001    1    1    2    0    0  0.14079190692E+02 -0.12209862273E+03  0.79781358223E+02  0.19390812877E+03  0.12700000000E+03 0.  0.
   -5000001    1    1    2    0    0 -0.14079190692E+02  0.12209862273E+03 -0.28864762996E+02  0.17907672050E+03  0.12700000000E+03 0.  0.
<mgrwt>
<rscale>  0 0.36949316E+03</rscale>
<asrwt>0</asrwt>
<pdfrwt beam="1">  1        2 0.30278674E-01 0.36949316E+03</pdfrwt>
<pdfrwt beam="2">  1       -2 0.23004875E-01 0.36949316E+03</pdfrwt>
<totfact> 0.28750620E+03</totfact>
</mgrwt>
</event>
<event>
 4    1  0.1361667E-004  0.5329210E+03  0.7818608E-02  0.1005526E+00
          2   -1    0    0  501    0  0.00000000000E+00  0.00000000000E+00  0.23217778700E+03  0.23217778702E+03  0.25500000000E-02 0.  1.
         -2   -1    0    0    0  501 -0.00000000000E+00 -0.00000000000E+00 -0.30580525788E+03  0.30580525789E+03  0.25500000000E-02 0. -1.
    5000001    1    1    2    0    0 -0.19319157150E+03 -0.92060085614E+02 -0.13297687891E+03  0.28215225143E+03  0.12700000000E+03 0.  0.
   -5000001    1    1    2    0    0  0.19319157150E+03  0.92060085614E+02  0.59349408026E+02  0.25583079348E+03  0.12700000000E+03 0.  0.
<mgrwt>
<rscale>  0 0.53292096E+03</rscale>
<asrwt>0</asrwt>
<pdfrwt beam="1">  1        2 0.33168255E-01 0.53292096E+03</pdfrwt>
<pdfrwt beam="2">  1       -2 0.43686465E-01 0.53292096E+03</pdfrwt>
<totfact> 0.79291239E+02</totfact>
</mgrwt>
</event>
<event>
 4    1  0.1361667E-004  0.3345478E+03  0.7818608E-02  0.1069142E+00
         -2   -1    0    0    0  501 -0.00000000000E+00  0.00000000000E+00  0.40123268430E+02  0.40123268511E+02  0.25500000000E-02 0. -1.
          2   -1    0    0  501    0  0.00000000000E+00 -0.00000000000E+00 -0.69736478266E+03  0.69736478266E+03  0.25500000000E-02 0.  1.
    5000001    1    1    2    0    0 -0.23375317587E+02  0.83631696309E+02 -0.18388353940E+03  0.23975575523E+03  0.12700000000E+03 0.  0.
   -5000001    1    1    2    0    0  0.23375317587E+02 -0.83631696309E+02 -0.47335797482E+03  0.49773229595E+03  0.12700000000E+03 0.  0.
<mgrwt>
<rscale>  0 0.33454778E+03</rscale>
<asrwt>0</asrwt>
<pdfrwt beam="1">  1        2 0.99623533E-01 0.33454778E+03</pdfrwt>
<pdfrwt beam="2">  1       -2 0.57318959E-02 0.33454778E+03</pdfrwt>
<totfact> 0.73474621E+03</totfact>
</mgrwt>
</event>
<event>
 4    1  0.1361667E-004  0.5234372E+03  0.7818608E-02  0.1007836E+00
         -2   -1    0    0    0  501 -0.00000000000E+00  0.00000000000E+00  0.26287576296E+02  0.26287576420E+02  0.25500000000E-02 0. -1.
          2   -1    0    0  501    0  0.00000000000E+00 -0.00000000000E+00 -0.26056650866E+04  0.26056650866E+04  0.25500000000E-02 0.  1.
    5000001    1    1    2    0    0  0.21698301150E+03 -0.67097608562E+02 -0.11489075009E+04  0.11780072844E+04  0.12700000000E+03 0.  0.
   -5000001    1    1    2    0    0 -0.21698301150E+03  0.67097608562E+02 -0.14304700094E+04  0.14539453786E+04  0.12700000000E+03 0.  0.
<mgrwt>
<rscale>  0 0.52343718E+03</rscale>
<asrwt>0</asrwt>
<pdfrwt beam="1">  1        2 0.37223770E+00 0.52343718E+03</pdfrwt>
<pdfrwt beam="2">  1       -2 0.37553697E-02 0.52343718E+03</pdfrwt>
<totfact> 0.13092278E+03</totfact>
</mgrwt>
</event>
<event>
 4    1  0.1361667E-004  0.3445510E+03  0.7818608E-02  0.1064874E+00
         -2   -1    0    0    0  501 -0.00000000000E+00  0.00000000000E+00  0.10074763205E+02  0.10074763528E+02  0.25500000000E-02 0. -1.
          2   -1    0    0  501    0  0.00000000000E+00 -0.00000000000E+00 -0.29458597864E+04  0.29458597864E+04  0.25500000000E-02 0.  1.
    5000001    1    1    2    0    0  0.84278592840E+02  0.50127375506E+02 -0.92978399812E+03  0.94352685079E+03  0.12700000000E+03 0.  0.
   -5000001    1    1    2    0    0 -0.84278592840E+02 -0.50127375506E+02 -0.20060010251E+04  0.20124076992E+04  0.12700000000E+03 0.  0.
<mgrwt>
<rscale>  0 0.34455096E+03</rscale>
<asrwt>0</asrwt>
<pdfrwt beam="1">  1        2 0.42083656E+00 0.34455096E+03</pdfrwt>
<pdfrwt beam="2">  1       -2 0.14392538E-02 0.34455096E+03</pdfrwt>
<totfact> 0.37007608E+03</totfact>
</mgrwt>
</event>
<event>
 4    1  0.1361667E-004  0.4737403E+03  0.7818608E-02  0.1020870E+00
         -2   -1    0    0    0  501 -0.00000000000E+00  0.00000000000E+00  0.73380957943E+02  0.73380957987E+02  0.25500000000E-02 0. -1.
          2   -1    0    0  501    0  0.00000000000E+00 -0.00000000000E+00 -0.76460542781E+03  0.76460542782E+03  0.25500000000E-02 0.  1.
    5000001    1    1    2    0    0  0.40520211290E+02 -0.18208149634E+03 -0.47295780450E+03  0.52403591831E+03  0.12700000000E+03 0.  0.
   -5000001    1    1    2    0    0 -0.40520211290E+02  0.18208149634E+03 -0.21826666537E+03  0.31395046750E+03  0.12700000000E+03 0.  0.
<mgrwt>
<rscale>  0 0.47374035E+03</rscale>
<asrwt>0</asrwt>
<pdfrwt beam="1">  1        2 0.10922934E+00 0.47374035E+03</pdfrwt>
<pdfrwt beam="2">  1       -2 0.10482994E-01 0.47374035E+03</pdfrwt>
<totfact> 0.25507024E+03</totfact>
</mgrwt>
</event>
<event>
 4    1  0.1361667E-004  0.4544810E+03  0.7818608E-02  0.1026394E+00
          2   -1    0    0  501    0  0.00000000000E+00  0.00000000000E+00  0.54547894483E+03  0.54547894483E+03  0.25500000000E-02 0.  1.
         -2   -1    0    0    0  501 -0.00000000000E+00 -0.00000000000E+00 -0.94665898060E+02  0.94665898094E+02  0.25500000000E-02 0. -1.
    5000001    1    1    2    0    0 -0.15871720904E+02 -0.15838612775E+03  0.36745876467E+03  0.42011072436E+03  0.12700000000E+03 0.  0.
   -5000001    1    1    2    0    0  0.15871720904E+02  0.15838612775E+03  0.83354282098E+02  0.22003411857E+03  0.12700000000E+03 0.  0.
<mgrwt>
<rscale>  0 0.45448104E+03</rscale>
<asrwt>0</asrwt>
<pdfrwt beam="1">  1        2 0.77925564E-01 0.45448104E+03</pdfrwt>
<pdfrwt beam="2">  1       -2 0.13523700E-01 0.45448104E+03</pdfrwt>
<totfact> 0.25118924E+03</totfact>
</mgrwt>
</event>
<event>
 4    1  0.1361667E-004  0.2857080E+03  0.7818608E-02  0.1092612E+00
          2   -1    0    0  501    0  0.00000000000E+00  0.00000000000E+00  0.14538957683E+03  0.14538957685E+03  0.25500000000E-02 0.  1.
         -2   -1    0    0    0  501 -0.00000000000E+00 -0.00000000000E+00 -0.14036265376E+03  0.14036265379E+03  0.25500000000E-02 0. -1.
    5000001    1    1    2    0    0 -0.20938443840E+02  0.52750712395E+02 -0.30006348310E+02  0.14230403026E+03  0.12700000000E+03 0.  0.
   -5000001    1    1    2    0    0  0.20938443840E+02 -0.52750712395E+02  0.35033271376E+02  0.14344820038E+03  0.12700000000E+03 0.  0.
<mgrwt>
<rscale>  0 0.28570801E+03</rscale>
<asrwt>0</asrwt>
<pdfrwt beam="1">  1        2 0.20769940E-01 0.28570801E+03</pdfrwt>
<pdfrwt beam="2">  1       -2 0.20051808E-01 0.28570801E+03</pdfrwt>
<totfact> 0.55326300E+03</totfact>
</mgrwt>
</event>
<event>
 4    1  0.1361667E-004  0.3297042E+03  0.7818608E-02  0.1071268E+00
         -2   -1    0    0    0  501 -0.00000000000E+00  0.00000000000E+00  0.37163374140E+02  0.37163374228E+02  0.25500000000E-02 0. -1.
          2   -1    0    0  501    0  0.00000000000E+00 -0.00000000000E+00 -0.73126339669E+03  0.73126339669E+03  0.25500000000E-02 0.  1.
    5000001    1    1    2    0    0 -0.79235655356E+02 -0.61410536297E+02 -0.42066596420E+03  0.45070877125E+03  0.12700000000E+03 0.  0.
   -5000001    1    1    2    0    0  0.79235655356E+02  0.61410536297E+02 -0.27343405835E+03  0.31771799967E+03  0.12700000000E+03 0.  0.
<mgrwt>
<rscale>  0 0.32970420E+03</rscale>
<asrwt>0</asrwt>
<pdfrwt beam="1">  1        2 0.10446619E+00 0.32970420E+03</pdfrwt>
<pdfrwt beam="2">  1       -2 0.53090539E-02 0.32970420E+03</pdfrwt>
<totfact> 0.78026510E+03</totfact>
</mgrwt>
</event>
<event>
 4    1  0.1361667E-004  0.3395031E+03  0.7818608E-02  0.1067008E+00
          2   -1    0    0  501    0  0.00000000000E+00  0.00000000000E+00  0.53980419716E+03  0.53980419716E+03  0.25500000000E-02 0.  1.
         -2   -1    0    0    0  501 -0.00000000000E+00 -0.00000000000E+00 -0.53381561287E+02  0.53381561348E+02  0.25500000000E-02 0. -1.
    5000001    1    1    2    0    0 -0.29909782952E+02  0.10611314191E+03  0.28351098760E+03  0.32963930908E+03  0.12700000000E+03 0.  0.
   -5000001    1    1    2    0    0  0.29909782952E+02 -0.10611314191E+03  0.20291164827E+03  0.26354644943E+03  0.12700000000E+03 0.  0.
<mgrwt>
<rscale>  0 0.33950311E+03</rscale>
<asrwt>0</asrwt>
<pdfrwt beam="1">  1        2 0.77114885E-01 0.33950311E+03</pdfrwt>
<pdfrwt beam="2">  1       -2 0.76259374E-02 0.33950311E+03</pdfrwt>
<totfact> 0.63499544E+03</totfact>
</mgrwt>
</event>
<event>
 4    1  0.1361667E-004  0.3153203E+03  0.7818608E-02  0.1077823E+00
          2   -1    0    0  501    0  0.00000000000E+00  0.00000000000E+00  0.11344064182E+04  0.11344064182E+04  0.25500000000E-02 0.  1.
         -2   -1    0    0    0  501 -0.00000000000E+00 -0.00000000000E+00 -0.21911658782E+02  0.21911658930E+02  0.25500000000E-02 0. -1.
    5000001    1    1    2    0    0 -0.61810847100E+02 -0.20438442225E+02  0.31053883267E+03  0.34176260377E+03  0.12700000000E+03 0.  0.
   -5000001    1    1    2    0    0  0.61810847100E+02  0.20438442225E+02  0.80195592676E+03  0.81455547338E+03  0.12700000000E+03 0.  0.
<mgrwt>
<rscale>  0 0.31532032E+03</rscale>
<asrwt>0</asrwt>
<pdfrwt beam="1">  1        2 0.16205809E+00 0.31532032E+03</pdfrwt>
<pdfrwt beam="2">  1       -2 0.31302365E-02 0.31532032E+03</pdfrwt>
<totfact> 0.97096708E+03</totfact>
</mgrwt>
</event>
<event>
 4    1  0.1361667E-004  0.5338607E+03  0.7818608E-02  0.1005300E+00
          2   -1    0    0  501    0  0.00000000000E+00  0.00000000000E+00  0.11784948962E+03  0.11784948964E+03  0.25500000000E-02 0.  1.
         -2   -1    0    0    0  501 -0.00000000000E+00 -0.00000000000E+00 -0.60460012974E+03  0.60460012975E+03  0.25500000000E-02 0. -1.
    5000001    1    1    2    0    0 -0.22525198174E+03 -0.65299026485E+02 -0.22852655637E+03  0.35122045086E+03  0.12700000000E+03 0.  0.
   -5000001    1    1    2    0    0  0.22525198174E+03  0.65299026485E+02 -0.25822408376E+03  0.37122916853E+03  0.12700000000E+03 0.  0.
<mgrwt>
<rscale>  0 0.53386072E+03</rscale>
<asrwt>0</asrwt>
<pdfrwt beam="1">  1        2 0.16835642E-01 0.53386072E+03</pdfrwt>
<pdfrwt beam="2">  1       -2 0.86371446E-01 0.53386072E+03</pdfrwt>
<totfact> 0.40919176E+02</totfact>
</mgrwt>
</event>
<event>
 4    1  0.1361667E-004  0.9423861E+03  0.7818608E-02  0.9374095E-01
         -2   -1    0    0    0  501 -0.00000000000E+00  0.00000000000E+00  0.13536150988E+03  0.13536150990E+03  0.25500000000E-02 0. -1.
          2   -1    0    0  501    0  0.00000000000E+00 -0.00000000000E+00 -0.16402217993E+04  0.16402217993E+04  0.25500000000E-02 0.  1.
    5000001    1    1    2    0    0  0.16164286786E+03  0.33306727621E+03 -0.12467480403E+04  0.13067409473E+04  0.12700000000E+03 0.  0.
   -5000001    1    1    2    0    0 -0.16164286786E+03 -0.33306727621E+03 -0.25811224911E+03  0.46884236194E+03  0.12700000000E+03 0.  0.
<mgrwt>
<rscale>  0 0.94238612E+03</rscale>
<asrwt>0</asrwt>
<pdfrwt beam="1">  1        2 0.23431739E+00 0.94238612E+03</pdfrwt>
<pdfrwt beam="2">  1       -2 0.19337360E-01 0.94238612E+03</pdfrwt>
<totfact> 0.27943186E+02</totfact>
</mgrwt>
</event>
<event>
 4    1  0.1361667E-004  0.5570204E+03  0.7818608E-02  0.9998819E-01
         -2   -1    0    0    0  501 -0.00000000000E+00  0.00000000000E+00  0.48938615863E+03  0.48938615864E+03  0.25500000000E-02 0. -1.
          2   -1    0    0  501    0  0.00000000000E+00 -0.00000000000E+00 -0.15850046513E+03  0.15850046515E+03  0.25500000000E-02 0.  1.
    5000001    1    1    2    0    0  0.19869395527E+03 -0.10654914481E+02 -0.64726597622E+01  0.23614341064E+03  0.12700000000E+03 0.  0.
   -5000001    1    1    2    0    0 -0.19869395527E+03  0.10654914481E+02  0.33735835326E+03  0.41174321316E+03  0.12700000000E+03 0.  0.
<mgrwt>
<rscale>  0 0.55702041E+03</rscale>
<asrwt>0</asrwt>
<pdfrwt beam="1">  1        2 0.22642924E-01 0.55702041E+03</pdfrwt>
<pdfrwt beam="2">  1       -2 0.69912308E-01 0.55702041E+03</pdfrwt>
<totfact> 0.46218316E+02</totfact>
</mgrwt>
</event>
<event>
 4    1  0.1361667E-004  0.5058032E+03  0.7818608E-02  0.1012275E+00
         -2   -1    0    0    0  501 -0.00000000000E+00  0.00000000000E+00  0.20386928286E+03  0.20386928287E+03  0.25500000000E-02 0. -1.
          2   -1    0    0  501    0  0.00000000000E+00 -0.00000000000E+00 -0.31372657934E+03  0.31372657935E+03  0.25500000000E-02 0.  1.
    5000001    1    1    2    0    0 -0.99517886562E+02  0.18682809322E+03 -0.11117994215E+03  0.27073700467E+03  0.12700000000E+03 0.  0.
   -5000001    1    1    2    0    0  0.99517886562E+02 -0.18682809322E+03  0.13226456649E+01  0.24685885756E+03  0.12700000000E+03 0.  0.
<mgrwt>
<rscale>  0 0.50580317E+03</rscale>
<asrwt>0</asrwt>
<pdfrwt beam="1">  1        2 0.44818083E-01 0.50580317E+03</pdfrwt>
<pdfrwt beam="2">  1       -2 0.29124183E-01 0.50580317E+03</pdfrwt>
<totfact> 0.12278270E+03</totfact>
</mgrwt>
</event>
<event>
 4    1  0.1361667E-004  0.3751997E+03  0.7818608E-02  0.1052722E+00
          2   -1    0    0  501    0  0.00000000000E+00  0.00000000000E+00  0.36283093723E+03  0.36283093724E+03  0.25500000000E-02 0.  1.
         -2   -1    0    0    0  501 -0.00000000000E+00 -0.00000000000E+00 -0.96997538223E+02  0.96997538256E+02  0.25500000000E-02 0. -1.
    5000001    1    1    2    0    0  0.32828082828E+02  0.13108277947E+03  0.16767434783E+03  0.25000812990E+03  0.12700000000E+03 0.  0.
   -5000001    1    1    2    0    0 -0.32828082828E+02 -0.13108277947E+03  0.98159051178E+02  0.20982034559E+03  0.12700000000E+03 0.  0.
<mgrwt>
<rscale>  0 0.37519972E+03</rscale>
<asrwt>0</asrwt>
<pdfrwt beam="1">  1        2 0.51832992E-01 0.37519972E+03</pdfrwt>
<pdfrwt beam="2">  1       -2 0.13856791E-01 0.37519972E+03</pdfrwt>
<totfact> 0.37833599E+03</totfact>
</mgrwt>
</event>
<event>
 4    1  0.1361667E-004  0.5769956E+03  0.7818608E-02  0.9954317E-01
         -2   -1    0    0    0  501 -0.00000000000E+00  0.00000000000E+00  0.25961416319E+02  0.25961416444E+02  0.25500000000E-02 0. -1.
          2   -1    0    0  501    0  0.00000000000E+00 -0.00000000000E+00 -0.32059487185E+04  0.32059487185E+04  0.25500000000E-02 0.  1.
    5000001    1    1    2    0    0 -0.54382501391E+02 -0.23308289871E+03 -0.10350186196E+04  0.10698960871E+04  0.12700000000E+03 0.  0.
   -5000001    1    1    2    0    0  0.54382501391E+02  0.23308289871E+03 -0.21449686825E+04  0.21620140479E+04  0.12700000000E+03 0.  0.
<mgrwt>
<rscale>  0 0.57699556E+03</rscale>
<asrwt>0</asrwt>
<pdfrwt beam="1">  1        2 0.45799242E+00 0.57699556E+03</pdfrwt>
<pdfrwt beam="2">  1       -2 0.37087758E-02 0.57699556E+03</pdfrwt>
<totfact> 0.63267876E+02</totfact>
</mgrwt>
</event>
<event>
 4    1  0.1361667E-004  0.2749785E+03  0.7818608E-02  0.1098464E+00
          2   -1    0    0  501    0  0.00000000000E+00  0.00000000000E+00  0.12932909393E+03  0.12932909395E+03  0.25500000000E-02 0.  1.
         -2   -1    0    0    0  501 -0.00000000000E+00 -0.00000000000E+00 -0.14616427309E+03  0.14616427311E+03  0.25500000000E-02 0. -1.
    5000001    1    1    2    0    0 -0.35453801593E+02 -0.21051407286E+02  0.24418145809E+02  0.13574011802E+03  0.12700000000E+03 0.  0.
   -5000001    1    1    2    0    0  0.35453801593E+02  0.21051407286E+02 -0.41253324975E+02  0.13975324904E+03  0.12700000000E+03 0.  0.
<mgrwt>
<rscale>  0 0.27497849E+03</rscale>
<asrwt>0</asrwt>
<pdfrwt beam="1">  1        2 0.18475585E-01 0.27497849E+03</pdfrwt>
<pdfrwt beam="2">  1       -2 0.20880610E-01 0.27497849E+03</pdfrwt>
<totfact> 0.58954428E+03</totfact>
</mgrwt>
</event>
<event>
 4    1  0.1361667E-004  0.3174777E+03  0.7818608E-02  0.1076816E+00
          2   -1    0    0  501    0  0.00000000000E+00  0.00000000000E+00  0.74697193029E+02  0.74697193072E+02  0.25500000000E-02 0.  1.
         -2   -1    0    0    0  501 -0.00000000000E+00 -0.00000000000E+00 -0.33733551991E+03  0.33733551992E+03  0.25500000000E-02 0. -1.
    5000001    1    1    2    0    0  0.70322890783E+02  0.52774859053E+02 -0.17880140788E+03  0.23628253887E+03  0.12700000000E+03 0.  0.
   -5000001    1    1    2    0    0 -0.70322890783E+02 -0.52774859053E+02 -0.83836919007E+02  0.17575017412E+03  0.12700000000E+03 0.  0.
<mgrwt>
<rscale>  0 0.31747766E+03</rscale>
<asrwt>0</asrwt>
<pdfrwt beam="1">  1        2 0.10671028E-01 0.31747766E+03</pdfrwt>
<pdfrwt beam="2">  1       -2 0.48190788E-01 0.31747766E+03</pdfrwt>
<totfact> 0.24491314E+03</totfact>
</mgrwt>
</event>
<event>
 4    1  0.1361667E-004  0.3807258E+03  0.7818608E-02  0.1050666E+00
         -2   -1    0    0    0  501 -0.00000000000E+00  0.00000000000E+00  0.80174508464E+02  0.80174508505E+02  0.25500000000E-02 0. -1.
          2   -1    0    0  501    0  0.00000000000E+00 -0.00000000000E+00 -0.45198956768E+03  0.45198956769E+03  0.25500000000E-02 0.  1.
    5000001    1    1    2    0    0  0.12293989721E+03  0.34508365533E+00 -0.87123195028E+02  0.19706290499E+03  0.12700000000E+03 0.  0.
   -5000001    1    1    2    0    0 -0.12293989721E+03 -0.34508365533E+00 -0.28469186419E+03  0.33510117121E+03  0.12700000000E+03 0.  0.
<mgrwt>
<rscale>  0 0.38072584E+03</rscale>
<asrwt>0</asrwt>
<pdfrwt beam="1">  1        2 0.64569937E-01 0.38072584E+03</pdfrwt>
<pdfrwt beam="2">  1       -2 0.11453501E-01 0.38072584E+03</pdfrwt>
<totfact> 0.40618575E+03</totfact>
</mgrwt>
</event>
<event>
 4    1  0.1361667E-004  0.4181860E+03  0.7818608E-02  0.1037658E+00
          2   -1    0    0  501    0  0.00000000000E+00  0.00000000000E+00  0.50463126493E+02  0.50463126558E+02  0.25500000000E-02 0.  1.
         -2   -1    0    0    0  501 -0.00000000000E+00 -0.00000000000E+00 -0.86637284524E+03  0.86637284524E+03  0.25500000000E-02 0. -1.
    5000001    1    1    2    0    0 -0.12811088175E+02  0.15929770558E+03 -0.50724472793E+03  0.54677792292E+03  0.12700000000E+03 0.  0.
   -5000001    1    1    2    0    0  0.12811088175E+02 -0.15929770558E+03 -0.30866499081E+03  0.37005804888E+03  0.12700000000E+03 0.  0.
<mgrwt>
<rscale>  0 0.41818600E+03</rscale>
<asrwt>0</asrwt>
<pdfrwt beam="1">  1        2 0.72090186E-02 0.41818600E+03</pdfrwt>
<pdfrwt beam="2">  1       -2 0.12376754E+00 0.41818600E+03</pdfrwt>
<totfact> 0.50366340E+02</totfact>
</mgrwt>
</event>
<event>
 4    1  0.1361667E-004  0.2924042E+03  0.7818608E-02  0.1089101E+00
          2   -1    0    0  501    0  0.00000000000E+00  0.00000000000E+00  0.20770124564E+04  0.20770124564E+04  0.25500000000E-02 0.  1.
         -2   -1    0    0    0  501 -0.00000000000E+00 -0.00000000000E+00 -0.10291247614E+02  0.10291247930E+02  0.25500000000E-02 0. -1.
    5000001    1    1    2    0    0 -0.33844790170E+02  0.41419360320E+02  0.13819769790E+04  0.13888305886E+04  0.12700000000E+03 0.  0.
   -5000001    1    1    2    0    0  0.33844790170E+02 -0.41419360320E+02  0.68474422974E+03  0.69847311573E+03  0.12700000000E+03 0.  0.
<mgrwt>
<rscale>  0 0.29240417E+03</rscale>
<asrwt>0</asrwt>
<pdfrwt beam="1">  1        2 0.29671647E+00 0.29240417E+03</pdfrwt>
<pdfrwt beam="2">  1       -2 0.14701763E-02 0.29240417E+03</pdfrwt>
<totfact> 0.98531246E+03</totfact>
</mgrwt>
</event>
<event>
 4    1  0.1361667E-004  0.2998706E+03  0.7818608E-02  0.1085305E+00
          2   -1    0    0  501    0  0.00000000000E+00  0.00000000000E+00  0.41020420828E+02  0.41020420907E+02  0.25500000000E-02 0.  1.
         -2   -1    0    0    0  501 -0.00000000000E+00 -0.00000000000E+00 -0.54803422825E+03  0.54803422826E+03  0.25500000000E-02 0. -1.
    5000001    1    1    2    0    0  0.43675080960E+02 -0.33945570449E+02 -0.36621032809E+03  0.39153393065E+03  0.12700000000E+03 0.  0.
   -5000001    1    1    2    0    0 -0.43675080960E+02  0.33945570449E+02 -0.14080347933E+03  0.19752071851E+03  0.12700000000E+03 0.  0.
<mgrwt>
<rscale>  0 0.29987060E+03</rscale>
<asrwt>0</asrwt>
<pdfrwt beam="1">  1        2 0.58600604E-02 0.29987060E+03</pdfrwt>
<pdfrwt beam="2">  1       -2 0.78290600E-01 0.29987060E+03</pdfrwt>
<totfact> 0.19073025E+03</totfact>
</mgrwt>
</event>
<event>
 4    1  0.1361667E-004  0.3353262E+03  0.7818608E-02  0.1068804E+00
          2   -1    0    0  501    0  0.00000000000E+00  0.00000000000E+00  0.20157283181E+03  0.20157283183E+03  0.25500000000E-02 0.  1.
         -2   -1    0    0    0  501 -0.00000000000E+00 -0.00000000000E+00 -0.13945788427E+03  0.13945788430E+03  0.25500000000E-02 0. -1.
    5000001    1    1    2    0    0  0.92310119441E+02  0.82822743947E+01  0.90290584791E+02  0.18130400967E+03  0.12700000000E+03 0.  0.
   -5000001    1    1    2    0    0 -0.92310119441E+02 -0.82822743947E+01 -0.28175637253E+02  0.15972670645E+03  0.12700000000E+03 0.  0.
<mgrwt>
<rscale>  0 0.33532623E+03</rscale>
<asrwt>0</asrwt>
<pdfrwt beam="1">  1        2 0.28796119E-01 0.33532623E+03</pdfrwt>
<pdfrwt beam="2">  1       -2 0.19922555E-01 0.33532623E+03</pdfrwt>
<totfact> 0.38934462E+03</totfact>
</mgrwt>
</event>
<event>
 4    1  0.1361667E-004  0.3772374E+03  0.7818608E-02  0.1051960E+00
          2   -1    0    0  501    0  0.00000000000E+00  0.00000000000E+00  0.84118433128E+03  0.84118433129E+03  0.25500000000E-02 0.  1.
         -2   -1    0    0    0  501 -0.00000000000E+00 -0.00000000000E+00 -0.42293946362E+02  0.42293946439E+02  0.25500000000E-02 0. -1.
    5000001    1    1    2    0    0  0.12549928701E+03 -0.59569716464E+02  0.37082110968E+03  0.41585564508E+03  0.12700000000E+03 0.  0.
   -5000001    1    1    2    0    0 -0.12549928701E+03  0.59569716464E+02  0.42806927524E+03  0.46762263265E+03  0.12700000000E+03 0.  0.
<mgrwt>
<rscale>  0 0.37723735E+03</rscale>
<asrwt>0</asrwt>
<pdfrwt beam="1">  1        2 0.12016918E+00 0.37723735E+03</pdfrwt>
<pdfrwt beam="2">  1       -2 0.60419926E-02 0.37723735E+03</pdfrwt>
<totfact> 0.53889990E+03</totfact>
</mgrwt>
</event>
<event>
 4    1  0.1361667E-004  0.3266963E+03  0.7818608E-02  0.1072608E+00
         -2   -1    0    0    0  501 -0.00000000000E+00  0.00000000000E+00  0.26033023439E+02  0.26033023564E+02  0.25500000000E-02 0. -1.
          2   -1    0    0  501    0  0.00000000000E+00 -0.00000000000E+00 -0.10249525967E+04  0.10249525967E+04  0.25500000000E-02 0.  1.
    5000001    1    1    2    0    0 -0.10089323579E+02 -0.91468551217E+02 -0.35255382184E+03  0.38586459750E+03  0.12700000000E+03 0.  0.
   -5000001    1    1    2    0    0  0.10089323579E+02  0.91468551217E+02 -0.64636575140E+03  0.66512102274E+03  0.12700000000E+03 0.  0.
<mgrwt>
<rscale>  0 0.32669628E+03</rscale>
<asrwt>0</asrwt>
<pdfrwt beam="1">  1        2 0.14642177E+00 0.32669628E+03</pdfrwt>
<pdfrwt beam="2">  1       -2 0.37190040E-02 0.32669628E+03</pdfrwt>
<totfact> 0.86666386E+03</totfact>
</mgrwt>
</event>
<event>
 4    1  0.1361667E-004  0.4243401E+03  0.7818608E-02  0.1035663E+00
         -2   -1    0    0    0  501 -0.00000000000E+00  0.00000000000E+00  0.18911857941E+03  0.18911857943E+03  0.25500000000E-02 0. -1.
          2   -1    0    0  501    0  0.00000000000E+00 -0.00000000000E+00 -0.23803127556E+03  0.23803127557E+03  0.25500000000E-02 0.  1.
    5000001    1    1    2    0    0 -0.13892874693E+03 -0.93316370587E+02 -0.54283526117E+02  0.21699042134E+03  0.12700000000E+03 0.  0.
   -5000001    1    1    2    0    0  0.13892874693E+03  0.93316370587E+02  0.53708299743E+01  0.21015943367E+03  0.12700000000E+03 0.  0.
<mgrwt>
<rscale>  0 0.42434013E+03</rscale>
<asrwt>0</asrwt>
<pdfrwt beam="1">  1        2 0.34004468E-01 0.42434013E+03</pdfrwt>
<pdfrwt beam="2">  1       -2 0.27016940E-01 0.42434013E+03</pdfrwt>
<totfact> 0.19042120E+03</totfact>
</mgrwt>
</event>
<event>
 4    1  0.1361667E-004  0.3167215E+03  0.7818608E-02  0.1077168E+00
          2   -1    0    0  501    0  0.00000000000E+00  0.00000000000E+00  0.65478435754E+03  0.65478435754E+03  0.25500000000E-02 0.  1.
         -2   -1    0    0    0  501 -0.00000000000E+00 -0.00000000000E+00 -0.38299820893E+02  0.38299820978E+02  0.25500000000E-02 0. -1.
    5000001    1    1    2    0    0 -0.30981846674E+02 -0.85822920283E+02  0.25359257867E+03  0.29793228161E+03  0.12700000000E+03 0.  0.
   -5000001    1    1    2    0    0  0.30981846674E+02  0.85822920283E+02  0.36289195798E+03  0.39515189692E+03  0.12700000000E+03 0.  0.
<mgrwt>
<rscale>  0 0.31672148E+03</rscale>
<asrwt>0</asrwt>
<pdfrwt beam="1">  1        2 0.93540619E-01 0.31672148E+03</pdfrwt>
<pdfrwt beam="2">  1       -2 0.54714032E-02 0.31672148E+03</pdfrwt>
<totfact> 0.84880982E+03</totfact>
</mgrwt>
</event>
<event>
 4    1  0.1361667E-004  0.4012495E+03  0.7818608E-02  0.1043348E+00
          2   -1    0    0  501    0  0.00000000000E+00  0.00000000000E+00  0.15860700300E+04  0.15860700300E+04  0.25500000000E-02 0.  1.
         -2   -1    0    0    0  501 -0.00000000000E+00 -0.00000000000E+00 -0.25377370169E+02  0.25377370297E+02  0.25500000000E-02 0. -1.
    5000001    1    1    2    0    0  0.38069448335E+02 -0.15013932792E+03  0.73452335616E+03  0.76134398364E+03  0.12700000000E+03 0.  0.
   -5000001    1    1    2    0    0 -0.38069448335E+02  0.15013932792E+03  0.82616930369E+03  0.85010341667E+03  0.12700000000E+03 0.  0.
<mgrwt>
<rscale>  0 0.40124948E+03</rscale>
<asrwt>0</asrwt>
<pdfrwt beam="1">  1        2 0.22658149E+00 0.40124948E+03</pdfrwt>
<pdfrwt beam="2">  1       -2 0.36253377E-02 0.40124948E+03</pdfrwt>
<totfact> 0.45122909E+03</totfact>
</mgrwt>
</event>
<event>
 4    1  0.1361667E-004  0.3955071E+03  0.7818608E-02  0.1045347E+00
          2   -1    0    0  501    0  0.00000000000E+00  0.00000000000E+00  0.23566322040E+04  0.23566322040E+04  0.25500000000E-02 0.  1.
         -2   -1    0    0    0  501 -0.00000000000E+00 -0.00000000000E+00 -0.16594213346E+02  0.16594213542E+02  0.25500000000E-02 0. -1.
    5000001    1    1    2    0    0  0.49825379836E+02  0.13685766676E+03  0.91793742278E+03  0.93805687544E+03  0.12700000000E+03 0.  0.
   -5000001    1    1    2    0    0 -0.49825379836E+02 -0.13685766676E+03  0.14221005679E+04  0.14351695421E+04  0.12700000000E+03 0.  0.
<mgrwt>
<rscale>  0 0.39550706E+03</rscale>
<asrwt>0</asrwt>
<pdfrwt beam="1">  1        2 0.33666153E+00 0.39550706E+03</pdfrwt>
<pdfrwt beam="2">  1       -2 0.23706034E-02 0.39550706E+03</pdfrwt>
<totfact> 0.35351265E+03</totfact>
</mgrwt>
</event>
<event>
 4    1  0.1361667E-004  0.6991765E+03  0.7818608E-02  0.9718642E-01
          2   -1    0    0  501    0  0.00000000000E+00  0.00000000000E+00  0.43740945976E+03  0.43740945977E+03  0.25500000000E-02 0.  1.
         -2   -1    0    0    0  501 -0.00000000000E+00 -0.00000000000E+00 -0.27939940976E+03  0.27939940977E+03  0.25500000000E-02 0. -1.
    5000001    1    1    2    0    0 -0.32104929009E+03 -0.31550746591E+02  0.12502408645E+03  0.36854866499E+03  0.12700000000E+03 0.  0.
   -5000001    1    1    2    0    0  0.32104929009E+03  0.31550746591E+02  0.32985963559E+02  0.34826020454E+03  0.12700000000E+03 0.  0.
<mgrwt>
<rscale>  0 0.69917650E+03</rscale>
<asrwt>0</asrwt>
<pdfrwt beam="1">  1        2 0.62487065E-01 0.69917650E+03</pdfrwt>
<pdfrwt beam="2">  1       -2 0.39914202E-01 0.69917650E+03</pdfrwt>
<totfact> 0.46747874E+02</totfact>
</mgrwt>
</event>
<event>
 4    1  0.1361667E-004  0.3453130E+03  0.7818608E-02  0.1064555E+00
         -2   -1    0    0    0  501 -0.00000000000E+00  0.00000000000E+00  0.10632056474E+03  0.10632056477E+03  0.25500000000E-02 0. -1.
          2   -1    0    0  501    0  0.00000000000E+00 -0.00000000000E+00 -0.28038093413E+03  0.28038093414E+03  0.25500000000E-02 0.  1.
    5000001    1    1    2    0    0 -0.24788413527E+02  0.79236681463E+02 -0.17929685422E+03  0.23488141490E+03  0.12700000000E+03 0.  0.
   -5000001    1    1    2    0    0  0.24788413527E+02 -0.79236681463E+02  0.52364848288E+01  0.15182008401E+03  0.12700000000E+03 0.  0.
<mgrwt>
<rscale>  0 0.34531296E+03</rscale>
<asrwt>0</asrwt>
<pdfrwt beam="1">  1        2 0.40054419E-01 0.34531296E+03</pdfrwt>
<pdfrwt beam="2">  1       -2 0.15188652E-01 0.34531296E+03</pdfrwt>
<totfact> 0.42915470E+03</totfact>
</mgrwt>
</event>
<event>
 4    1  0.1361667E-004  0.6067318E+03  0.7818608E-02  0.9891537E-01
          2   -1    0    0  501    0  0.00000000000E+00  0.00000000000E+00  0.85058951183E+03  0.85058951183E+03  0.25500000000E-02 0.  1.
         -2   -1    0    0    0  501 -0.00000000000E+00 -0.00000000000E+00 -0.10819658840E+03  0.10819658843E+03  0.25500000000E-02 0. -1.
    5000001    1    1    2    0    0 -0.13715526135E+03 -0.23648028624E+03  0.42518894018E+03  0.52119969910E+03  0.12700000000E+03 0.  0.
   -5000001    1    1    2    0    0  0.13715526135E+03  0.23648028624E+03  0.31720398324E+03  0.43758640116E+03  0.12700000000E+03 0.  0.
<mgrwt>
<rscale>  0 0.60673185E+03</rscale>
<asrwt>0</asrwt>
<pdfrwt beam="1">  1        2 0.12151280E+00 0.60673185E+03</pdfrwt>
<pdfrwt beam="2">  1       -2 0.15456654E-01 0.60673185E+03</pdfrwt>
<totfact> 0.11713388E+03</totfact>
</mgrwt>
</event>
<event>
 4    1  0.1361667E-004  0.4012766E+03  0.7818608E-02  0.1043339E+00
         -2   -1    0    0    0  501 -0.00000000000E+00  0.00000000000E+00  0.39874146331E+02  0.39874146412E+02  0.25500000000E-02 0. -1.
          2   -1    0    0  501    0  0.00000000000E+00 -0.00000000000E+00 -0.10095694720E+04  0.10095694720E+04  0.25500000000E-02 0.  1.
    5000001    1    1    2    0    0 -0.16108930641E+02  0.12700401369E+03 -0.71488976531E+03  0.73728277729E+03  0.12700000000E+03 0.  0.
   -5000001    1    1    2    0    0  0.16108930641E+02 -0.12700401369E+03 -0.25480556031E+03  0.31216084108E+03  0.12700000000E+03 0.  0.
<mgrwt>
<rscale>  0 0.40127657E+03</rscale>
<asrwt>0</asrwt>
<pdfrwt beam="1">  1        2 0.14422419E+00 0.40127657E+03</pdfrwt>
<pdfrwt beam="2">  1       -2 0.56963072E-02 0.40127657E+03</pdfrwt>
<totfact> 0.46356300E+03</totfact>
</mgrwt>
</event>
<event>
 4    1  0.1361667E-004  0.3219839E+03  0.7818608E-02  0.1074740E+00
          2   -1    0    0  501    0  0.00000000000E+00  0.00000000000E+00  0.24686258734E+04  0.24686258734E+04  0.25500000000E-02 0.  1.
         -2   -1    0    0    0  501 -0.00000000000E+00 -0.00000000000E+00 -0.10499122108E+02  0.10499122418E+02  0.25500000000E-02 0. -1.
    5000001    1    1    2    0    0  0.39009897250E+02 -0.48130229630E+02  0.63509486614E+03  0.65062491505E+03  0.12700000000E+03 0.  0.
   -5000001    1    1    2    0    0 -0.39009897250E+02  0.48130229630E+02  0.18230318852E+04  0.18285000808E+04  0.12700000000E+03 0.  0.
<mgrwt>
<rscale>  0 0.32198388E+03</rscale>
<asrwt>0</asrwt>
<pdfrwt beam="1">  1        2 0.35266108E+00 0.32198388E+03</pdfrwt>
<pdfrwt beam="2">  1       -2 0.14998736E-02 0.32198388E+03</pdfrwt>
<totfact> 0.61328124E+03</totfact>
</mgrwt>
</event>
<event>
 4    1  0.1361667E-004  0.3246516E+03  0.7818608E-02  0.1073528E+00
          2   -1    0    0  501    0  0.00000000000E+00  0.00000000000E+00  0.11265340239E+03  0.11265340242E+03  0.25500000000E-02 0.  1.
         -2   -1    0    0    0  501 -0.00000000000E+00 -0.00000000000E+00 -0.23390027755E+03  0.23390027756E+03  0.25500000000E-02 0. -1.
    5000001    1    1    2    0    0  0.25522436063E+02  0.96398939956E+02 -0.78373904053E+02  0.17948710038E+03  0.12700000000E+03 0.  0.
   -5000001    1    1    2    0    0 -0.25522436063E+02 -0.96398939956E+02 -0.42872971101E+02  0.16706657960E+03  0.12700000000E+03 0.  0.
<mgrwt>
<rscale>  0 0.32465158E+03</rscale>
<asrwt>0</asrwt>
<pdfrwt beam="1">  1        2 0.16093343E-01 0.32465158E+03</pdfrwt>
<pdfrwt beam="2">  1       -2 0.33414325E-01 0.32465158E+03</pdfrwt>
<totfact> 0.30090411E+03</totfact>
</mgrwt>
</event>
<event>
 4    1  0.1361667E-004  0.3279418E+03  0.7818608E-02  0.1072051E+00
          2   -1    0    0  501    0  0.00000000000E+00  0.00000000000E+00  0.56301711293E+03  0.56301711293E+03  0.25500000000E-02 0.  1.
         -2   -1    0    0    0  501 -0.00000000000E+00 -0.00000000000E+00 -0.47754254136E+02  0.47754254204E+02  0.25500000000E-02 0. -1.
    5000001    1    1    2    0    0 -0.17782861070E+02  0.10189873122E+03  0.24346211312E+03  0.29343207408E+03  0.12700000000E+03 0.  0.
   -5000001    1    1    2    0    0  0.17782861070E+02 -0.10189873122E+03  0.27180074567E+03  0.31733929306E+03  0.12700000000E+03 0.  0.
<mgrwt>
<rscale>  0 0.32794184E+03</rscale>
<asrwt>0</asrwt>
<pdfrwt beam="1">  1        2 0.80431011E-01 0.32794184E+03</pdfrwt>
<pdfrwt beam="2">  1       -2 0.68220367E-02 0.32794184E+03</pdfrwt>
<totfact> 0.71957067E+03</totfact>
</mgrwt>
</event>
<event>
 4    1  0.1361667E-004  0.3086772E+03  0.7818608E-02  0.1080982E+00
         -2   -1    0    0    0  501 -0.00000000000E+00  0.00000000000E+00  0.16569716611E+03  0.16569716613E+03  0.25500000000E-02 0.  1.
          2   -1    0    0  501    0  0.00000000000E+00 -0.00000000000E+00 -0.14375864855E+03  0.14375864858E+03  0.25500000000E-02 0. -1.
    5000001    1    1    2    0    0  0.11223675810E+02 -0.82154124547E+02 -0.17670785476E+02  0.15269750403E+03  0.12700000000E+03 0.  0.
   -5000001    1    1    2    0    0 -0.11223675810E+02  0.82154124547E+02  0.39609303036E+02  0.15675831068E+03  0.12700000000E+03 0.  0.
<mgrwt>
<rscale>  0 0.30867718E+03</rscale>
<asrwt>0</asrwt>
<pdfrwt beam="1">  1        2 0.20536950E-01 0.30867718E+03</pdfrwt>
<pdfrwt beam="2">  1       -2 0.23671024E-01 0.30867718E+03</pdfrwt>
<totfact> 0.42139001E+03</totfact>
</mgrwt>
</event>
<event>
 4    1  0.1361667E-004  0.4171059E+03  0.7818608E-02  0.1038012E+00
          2   -1    0    0  501    0  0.00000000000E+00  0.00000000000E+00  0.41075882477E+03  0.41075882477E+03  0.25500000000E-02 0.  1.
         -2   -1    0    0    0  501 -0.00000000000E+00 -0.00000000000E+00 -0.10588778512E+03  0.10588778515E+03  0.25500000000E-02 0. -1.
    5000001    1    1    2    0    0  0.28359536086E+02 -0.15587202506E+03  0.93485980354E+02  0.22353742417E+03  0.12700000000E+03 0.  0.
   -5000001    1    1    2    0    0 -0.28359536086E+02  0.15587202506E+03  0.21138505929E+03  0.29310918575E+03  0.12700000000E+03 0.  0.
<mgrwt>
<rscale>  0 0.41710594E+03</rscale>
<asrwt>0</asrwt>
<pdfrwt beam="1">  1        2 0.58679832E-01 0.41710594E+03</pdfrwt>
<pdfrwt beam="2">  1       -2 0.15126827E-01 0.41710594E+03</pdfrwt>
<totfact> 0.28606730E+03</totfact>
</mgrwt>
</event>
<event>
 4    1  0.1361667E-004  0.5163966E+03  0.7818608E-02  0.1009586E+00
         -2   -1    0    0    0  501 -0.00000000000E+00  0.00000000000E+00  0.34271826695E+02  0.34271826790E+02  0.25500000000E-02 0. -1.
          2   -1    0    0  501    0  0.00000000000E+00 -0.00000000000E+00 -0.19452234473E+04  0.19452234473E+04  0.25500000000E-02 0.  1.
    5000001    1    1    2    0    0  0.14585501345E+03 -0.13872587847E+03 -0.57178703285E+03  0.61934478705E+03  0.12700000000E+03 0.  0.
   -5000001    1    1    2    0    0 -0.14585501345E+03  0.13872587847E+03 -0.13391645877E+04  0.13601504870E+04  0.12700000000E+03 0.  0.
<mgrwt>
<rscale>  0 0.51639660E+03</rscale>
<asrwt>0</asrwt>
<pdfrwt beam="1">  1        2 0.27788899E+00 0.51639660E+03</pdfrwt>
<pdfrwt beam="2">  1       -2 0.48959765E-02 0.51639660E+03</pdfrwt>
<totfact> 0.18772800E+03</totfact>
</mgrwt>
</event>
<event>
 4    1  0.1361667E-004  0.3993017E+03  0.7818608E-02  0.1044022E+00
          2   -1    0    0  501    0  0.00000000000E+00  0.00000000000E+00  0.69102032375E+03  0.69102032375E+03  0.25500000000E-02 0.  1.
         -2   -1    0    0    0  501 -0.00000000000E+00 -0.00000000000E+00 -0.57683496492E+02  0.57683496548E+02  0.25500000000E-02 0. -1.
    5000001    1    1    2    0    0  0.11674329285E+03 -0.56099777582E+02  0.16029375267E+03  0.24207285807E+03  0.12700000000E+03 0.  0.
   -5000001    1    1    2    0    0 -0.11674329285E+03  0.56099777582E+02  0.47304307459E+03  0.50663096223E+03  0.12700000000E+03 0.  0.
<mgrwt>
<rscale>  0 0.39930173E+03</rscale>
<asrwt>0</asrwt>
<pdfrwt beam="1">  1        2 0.98717177E-01 0.39930173E+03</pdfrwt>
<pdfrwt beam="2">  1       -2 0.82405005E-02 0.39930173E+03</pdfrwt>
<totfact> 0.42343213E+03</totfact>
</mgrwt>
</event>
<event>
 4    1  0.1361667E-004  0.4210190E+03  0.7818608E-02  0.1036735E+00
         -2   -1    0    0    0  501 -0.00000000000E+00  0.00000000000E+00  0.63961561141E+02  0.63961561191E+02  0.25500000000E-02 0. -1.
          2   -1    0    0  501    0  0.00000000000E+00 -0.00000000000E+00 -0.69282629317E+03  0.69282629317E+03  0.25500000000E-02 0.  1.
    5000001    1    1    2    0    0 -0.13357981507E+03 -0.37673435203E+02 -0.14464193460E+03  0.23730390633E+03  0.12700000000E+03 0.  0.
   -5000001    1    1    2    0    0  0.13357981507E+03  0.37673435203E+02 -0.48422279743E+03  0.51948394804E+03  0.12700000000E+03 0.  0.
<mgrwt>
<rscale>  0 0.42101901E+03</rscale>
<asrwt>0</asrwt>
<pdfrwt beam="1">  1        2 0.98975181E-01 0.42101901E+03</pdfrwt>
<pdfrwt beam="2">  1       -2 0.91373663E-02 0.42101901E+03</pdfrwt>
<totfact> 0.35851065E+03</totfact>
</mgrwt>
</event>
<event>
 4    1  0.1361667E-004  0.4588289E+03  0.7818608E-02  0.1025121E+00
          2   -1    0    0  501    0  0.00000000000E+00  0.00000000000E+00  0.18244592762E+04  0.18244592762E+04  0.25500000000E-02 0.  1.
         -2   -1    0    0    0  501 -0.00000000000E+00 -0.00000000000E+00 -0.28847451435E+02  0.28847451547E+02  0.25500000000E-02 0. -1.
    5000001    1    1    2    0    0 -0.18128527081E+03  0.80080465164E+01  0.65634616662E+03  0.69271045081E+03  0.12700000000E+03 0.  0.
   -5000001    1    1    2    0    0  0.18128527081E+03 -0.80080465164E+01  0.11392656582E+04  0.11605962769E+04  0.12700000000E+03 0.  0.
<mgrwt>
<rscale>  0 0.45882895E+03</rscale>
<asrwt>0</asrwt>
<pdfrwt beam="1">  1        2 0.26063713E+00 0.45882895E+03</pdfrwt>
<pdfrwt beam="2">  1       -2 0.41210630E-02 0.45882895E+03</pdfrwt>
<totfact> 0.28161962E+03</totfact>
</mgrwt>
</event>
<event>
 4    1  0.1361667E-004  0.3663827E+03  0.7818608E-02  0.1056085E+00
          2   -1    0    0  501    0  0.00000000000E+00  0.00000000000E+00  0.12759092794E+03  0.12759092797E+03  0.25500000000E-02 0.  1.
         -2   -1    0    0    0  501 -0.00000000000E+00 -0.00000000000E+00 -0.26302083195E+03  0.26302083197E+03  0.25500000000E-02 0. -1.
    5000001    1    1    2    0    0 -0.10175057860E+03  0.80853548949E+02 -0.92480301836E+02  0.20389233151E+03  0.12700000000E+03 0.  0.
   -5000001    1    1    2    0    0  0.10175057860E+03 -0.80853548949E+02 -0.42949602177E+02  0.18671942842E+03  0.12700000000E+03 0.  0.
<mgrwt>
<rscale>  0 0.36638271E+03</rscale>
<asrwt>0</asrwt>
<pdfrwt beam="1">  1        2 0.18227275E-01 0.36638271E+03</pdfrwt>
<pdfrwt beam="2">  1       -2 0.37574405E-01 0.36638271E+03</pdfrwt>
<totfact> 0.20907451E+03</totfact>
</mgrwt>
</event>
<event>
 4    1  0.1361667E-004  0.3950004E+03  0.7818608E-02  0.1045525E+00
         -2   -1    0    0    0  501 -0.00000000000E+00  0.00000000000E+00  0.33795069076E+02  0.33795069172E+02  0.25500000000E-02 0. -1.
          2   -1    0    0  501    0  0.00000000000E+00 -0.00000000000E+00 -0.11542015449E+04  0.11542015449E+04  0.25500000000E-02 0.  1.
    5000001    1    1    2    0    0  0.13791974287E+03  0.59755316071E+02 -0.61095639866E+03  0.64186390640E+03  0.12700000000E+03 0.  0.
   -5000001    1    1    2    0    0 -0.13791974287E+03 -0.59755316071E+02 -0.50945007719E+03  0.54613270770E+03  0.12700000000E+03 0.  0.
<mgrwt>
<rscale>  0 0.39500036E+03</rscale>
<asrwt>0</asrwt>
<pdfrwt beam="1">  1        2 0.16488591E+00 0.39500036E+03</pdfrwt>
<pdfrwt beam="2">  1       -2 0.48278677E-02 0.39500036E+03</pdfrwt>
<totfact> 0.49326212E+03</totfact>
</mgrwt>
</event>
<event>
 4    1  0.1361667E-004  0.6148802E+03  0.7818608E-02  0.9875006E-01
          2   -1    0    0  501    0  0.00000000000E+00  0.00000000000E+00  0.21020331141E+04  0.21020331141E+04  0.25500000000E-02 0.  1.
         -2   -1    0    0    0  501 -0.00000000000E+00 -0.00000000000E+00 -0.44965711825E+02  0.44965711898E+02  0.25500000000E-02 0. -1.
    5000001    1    1    2    0    0 -0.22323610506E+03 -0.16812016535E+03  0.10881664391E+04  0.11306343121E+04  0.12700000000E+03 0.  0.
   -5000001    1    1    2    0    0  0.22323610506E+03  0.16812016535E+03  0.96890096318E+03  0.10163645139E+04  0.12700000000E+03 0.  0.
<mgrwt>
<rscale>  0 0.61488020E+03</rscale>
<asrwt>0</asrwt>
<pdfrwt beam="1">  1        2 0.30029049E+00 0.61488020E+03</pdfrwt>
<pdfrwt beam="2">  1       -2 0.64236721E-02 0.61488020E+03</pdfrwt>
<totfact> 0.10208197E+03</totfact>
</mgrwt>
</event>
<event>
 4    1  0.1361667E-004  0.3855443E+03  0.7818608E-02  0.1048903E+00
          2   -1    0    0  501    0  0.00000000000E+00  0.00000000000E+00  0.16225743976E+04  0.16225743976E+04  0.25500000000E-02 0.  1.
         -2   -1    0    0    0  501 -0.00000000000E+00 -0.00000000000E+00 -0.22902559437E+02  0.22902559579E+02  0.25500000000E-02 0. -1.
    5000001    1    1    2    0    0  0.13792685743E+03 -0.73762409234E+01  0.61118174970E+03  0.63933587268E+03  0.12700000000E+03 0.  0.
   -5000001    1    1    2    0    0 -0.13792685743E+03  0.73762409234E+01  0.98849008848E+03  0.10061410845E+04  0.12700000000E+03 0.  0.
<mgrwt>
<rscale>  0 0.38554433E+03</rscale>
<asrwt>0</asrwt>
<pdfrwt beam="1">  1        2 0.23179631E+00 0.38554433E+03</pdfrwt>
<pdfrwt beam="2">  1       -2 0.32717947E-02 0.38554433E+03</pdfrwt>
<totfact> 0.50494558E+03</totfact>
</mgrwt>
</event>
<event>
 4    1  0.1361667E-004  0.3548188E+03  0.7818608E-02  0.1060654E+00
          2   -1    0    0  501    0  0.00000000000E+00  0.00000000000E+00  0.68471747535E+02  0.68471747582E+02  0.25500000000E-02 0.  1.
         -2   -1    0    0    0  501 -0.00000000000E+00 -0.00000000000E+00 -0.45966553300E+03  0.45966553300E+03  0.25500000000E-02 0. -1.
    5000001    1    1    2    0    0  0.10877302553E+03  0.19878525299E+02 -0.27871666736E+03  0.32563585109E+03  0.12700000000E+03 0.  0.
   -5000001    1    1    2    0    0 -0.10877302553E+03 -0.19878525299E+02 -0.11247711810E+03  0.20250142949E+03  0.12700000000E+03 0.  0.
<mgrwt>
<rscale>  0 0.35481884E+03</rscale>
<asrwt>0</asrwt>
<pdfrwt beam="1">  1        2 0.97816785E-02 0.35481884E+03</pdfrwt>
<pdfrwt beam="2">  1       -2 0.65666503E-01 0.35481884E+03</pdfrwt>
<totfact> 0.14496548E+03</totfact>
</mgrwt>
</event>
<event>
 4    1  0.1361667E-004  0.3066690E+03  0.7818608E-02  0.1081954E+00
         -2   -1    0    0    0  501 -0.00000000000E+00  0.00000000000E+00  0.10585333486E+02  0.10585333794E+02  0.25500000000E-02 0.  1.
          2   -1    0    0  501    0  0.00000000000E+00 -0.00000000000E+00 -0.22211368553E+04  0.22211368553E+04  0.25500000000E-02 0. -1.
    5000001    1    1    2    0    0 -0.97384512731E+01 -0.85154912305E+02 -0.11491079125E+04  0.11592774435E+04  0.12700000000E+03 0.  0.
   -5000001    1    1    2    0    0  0.97384512731E+01  0.85154912305E+02 -0.10614436093E+04  0.10724447456E+04  0.12700000000E+03 0.  0.
<mgrwt>
<rscale>  0 0.30666904E+03</rscale>
<asrwt>0</asrwt>
<pdfrwt beam="1">  1        2 0.31730497E+00 0.30666904E+03</pdfrwt>
<pdfrwt beam="2">  1       -2 0.15121919E-02 0.30666904E+03</pdfrwt>
<totfact> 0.80383244E+03</totfact>
</mgrwt>
</event>
<event>
 4    1  0.1361667E-004  0.3940617E+03  0.7818608E-02  0.1045856E+00
          2   -1    0    0  501    0  0.00000000000E+00  0.00000000000E+00  0.49049289317E+04  0.49049289317E+04  0.25500000000E-02 0.  1.
         -2   -1    0    0    0  501 -0.00000000000E+00 -0.00000000000E+00 -0.79147215946E+01  0.79147220054E+01  0.25500000000E-02 0. -1.
    5000001    1    1    2    0    0 -0.15121068781E+02 -0.12884070840E+03  0.14938444536E+04  0.15048351492E+04  0.12700000000E+03 0.  0.
   -5000001    1    1    2    0    0  0.15121068781E+02  0.12884070840E+03  0.34031697566E+04  0.34080085045E+04  0.12700000000E+03 0.  0.
<mgrwt>
<rscale>  0 0.39406166E+03</rscale>
<asrwt>0</asrwt>
<pdfrwt beam="1">  1        2 0.70070621E+00 0.39406166E+03</pdfrwt>
<pdfrwt beam="2">  1       -2 0.11306712E-02 0.39406166E+03</pdfrwt>
<totfact> 0.25937610E+02</totfact>
</mgrwt>
</event>
<event>
 4    1  0.1361667E-004  0.6357214E+03  0.7818608E-02  0.9833947E-01
          2   -1    0    0  501    0  0.00000000000E+00  0.00000000000E+00  0.69962168183E+03  0.69962168184E+03  0.25500000000E-02 0.  1.
         -2   -1    0    0    0  501 -0.00000000000E+00 -0.00000000000E+00 -0.14441437880E+03  0.14441437883E+03  0.25500000000E-02 0. -1.
    5000001    1    1    2    0    0 -0.17835461657E+03  0.23041074637E+03  0.28110362412E+03  0.42432031390E+03  0.12700000000E+03 0.  0.
   -5000001    1    1    2    0    0  0.17835461657E+03 -0.23041074637E+03  0.27410367891E+03  0.41971574676E+03  0.12700000000E+03 0.  0.
<mgrwt>
<rscale>  0 0.63572142E+03</rscale>
<asrwt>0</asrwt>
<pdfrwt beam="1">  1        2 0.99945955E-01 0.63572142E+03</pdfrwt>
<pdfrwt beam="2">  1       -2 0.20630625E-01 0.63572142E+03</pdfrwt>
<totfact> 0.91246416E+02</totfact>
</mgrwt>
</event>
<event>
 4    1  0.1361667E-004  0.2840256E+03  0.7818608E-02  0.1093510E+00
          2   -1    0    0  501    0  0.00000000000E+00  0.00000000000E+00  0.59103814028E+03  0.59103814029E+03  0.25500000000E-02 0.  1.
         -2   -1    0    0    0  501 -0.00000000000E+00 -0.00000000000E+00 -0.34122393291E+02  0.34122393386E+02  0.25500000000E-02 0. -1.
    5000001    1    1    2    0    0  0.31533044412E+02 -0.51044341937E+02  0.23235196670E+03  0.27150744771E+03  0.12700000000E+03 0.  0.
   -5000001    1    1    2    0    0 -0.31533044412E+02  0.51044341937E+02  0.32456378029E+03  0.35365308596E+03  0.12700000000E+03 0.  0.
<mgrwt>
<rscale>  0 0.28402560E+03</rscale>
<asrwt>0</asrwt>
<pdfrwt beam="1">  1        2 0.84434019E-01 0.28402560E+03</pdfrwt>
<pdfrwt beam="2">  1       -2 0.48746277E-02 0.28402560E+03</pdfrwt>
<totfact> 0.11351283E+04</totfact>
</mgrwt>
</event>
<event>
 4    1  0.1361667E-004  0.3376828E+03  0.7818608E-02  0.1067787E+00
          2   -1    0    0  501    0  0.00000000000E+00  0.00000000000E+00  0.52319880979E+03  0.52319880980E+03  0.25500000000E-02 0.  1.
         -2   -1    0    0    0  501 -0.00000000000E+00 -0.00000000000E+00 -0.54486787125E+02  0.54486787185E+02  0.25500000000E-02 0. -1.
    5000001    1    1    2    0    0 -0.10024021459E+03 -0.45366640318E+02  0.26257999217E+03  0.31174265823E+03  0.12700000000E+03 0.  0.
   -5000001    1    1    2    0    0  0.10024021459E+03  0.45366640318E+02  0.20613203050E+03  0.26594293875E+03  0.12700000000E+03 0.  0.
<mgrwt>
<rscale>  0 0.33768282E+03</rscale>
<asrwt>0</asrwt>
<pdfrwt beam="1">  1        2 0.74742686E-01 0.33768282E+03</pdfrwt>
<pdfrwt beam="2">  1       -2 0.77838269E-02 0.33768282E+03</pdfrwt>
<totfact> 0.63683997E+03</totfact>
</mgrwt>
</event>
<event>
 4    1  0.1361667E-004  0.2604323E+03  0.7818608E-02  0.1106884E+00
          2   -1    0    0  501    0  0.00000000000E+00  0.00000000000E+00  0.85748725185E+02  0.85748725223E+02  0.25500000000E-02 0.  1.
         -2   -1    0    0    0  501 -0.00000000000E+00 -0.00000000000E+00 -0.19774337325E+03  0.19774337326E+03  0.25500000000E-02 0. -1.
    5000001    1    1    2    0    0  0.28593907056E+02 -0.13883212182E+01 -0.52976104155E+02  0.14055250467E+03  0.12700000000E+03 0.  0.
   -5000001    1    1    2    0    0 -0.28593907056E+02  0.13883212182E+01 -0.59018543907E+02  0.14293959382E+03  0.12700000000E+03 0.  0.
<mgrwt>
<rscale>  0 0.26043227E+03</rscale>
<asrwt>0</asrwt>
<pdfrwt beam="1">  1        2 0.12249818E-01 0.26043227E+03</pdfrwt>
<pdfrwt beam="2">  1       -2 0.28249053E-01 0.26043227E+03</pdfrwt>
<totfact> 0.56281503E+03</totfact>
</mgrwt>
</event>
<event>
 4    1  0.1361667E-004  0.3234584E+03  0.7818608E-02  0.1074069E+00
          2   -1    0    0  501    0  0.00000000000E+00  0.00000000000E+00  0.10740345727E+03  0.10740345730E+03  0.25500000000E-02 0.  1.
         -2   -1    0    0    0  501 -0.00000000000E+00 -0.00000000000E+00 -0.24353344188E+03  0.24353344189E+03  0.25500000000E-02 0. -1.
    5000001    1    1    2    0    0  0.26158872917E+02 -0.61440504138E+02 -0.14902388586E+03  0.20687276461E+03  0.12700000000E+03 0.  0.
   -5000001    1    1    2    0    0 -0.26158872917E+02  0.61440504138E+02  0.12893901252E+02  0.14406413457E+03  0.12700000000E+03 0.  0.
<mgrwt>
<rscale>  0 0.32345840E+03</rscale>
<asrwt>0</asrwt>
<pdfrwt beam="1">  1        2 0.15343351E-01 0.32345840E+03</pdfrwt>
<pdfrwt beam="2">  1       -2 0.34790491E-01 0.32345840E+03</pdfrwt>
<totfact> 0.29532263E+03</totfact>
</mgrwt>
</event>
<event>
 4    1  0.1361667E-004  0.3580883E+03  0.7818608E-02  0.1059343E+00
         -2   -1    0    0    0  501 -0.00000000000E+00  0.00000000000E+00  0.13535304583E+03  0.13535304586E+03  0.25500000000E-02 0. -1.
          2   -1    0    0  501    0  0.00000000000E+00 -0.00000000000E+00 -0.23683840879E+03  0.23683840880E+03  0.25500000000E-02 0.  1.
    5000001    1    1    2    0    0  0.10439303950E+02 -0.56625219945E+02  0.65985381606E+02  0.15426751177E+03  0.12700000000E+03 0.  0.
   -5000001    1    1    2    0    0 -0.10439303950E+02  0.56625219945E+02 -0.16747074456E+03  0.21792394289E+03  0.12700000000E+03 0.  0.
<mgrwt>
<rscale>  0 0.35808826E+03</rscale>
<asrwt>0</asrwt>
<pdfrwt beam="1">  1        2 0.33834058E-01 0.35808826E+03</pdfrwt>
<pdfrwt beam="2">  1       -2 0.19336149E-01 0.35808826E+03</pdfrwt>
<totfact> 0.34361131E+03</totfact>
</mgrwt>
</event>
<event>
 4    1  0.1361667E-004  0.4601889E+03  0.7818608E-02  0.1024726E+00
          2   -1    0    0  501    0  0.00000000000E+00  0.00000000000E+00  0.14037572139E+04  0.14037572139E+04  0.25500000000E-02 0.  1.
         -2   -1    0    0    0  501 -0.00000000000E+00 -0.00000000000E+00 -0.37715538792E+02  0.37715538878E+02  0.25500000000E-02 0. -1.
    5000001    1    1    2    0    0  0.11136891583E+03  0.15002064636E+03  0.81974459504E+03  0.85030549266E+03  0.12700000000E+03 0.  0.
   -5000001    1    1    2    0    0 -0.11136891583E+03 -0.15002064636E+03  0.54629708007E+03  0.59116726012E+03  0.12700000000E+03 0.  0.
<mgrwt>
<rscale>  0 0.46018892E+03</rscale>
<asrwt>0</asrwt>
<pdfrwt beam="1">  1        2 0.20053678E+00 0.46018892E+03</pdfrwt>
<pdfrwt beam="2">  1       -2 0.53879332E-02 0.46018892E+03</pdfrwt>
<totfact> 0.30548132E+03</totfact>
</mgrwt>
</event>
<event>
 4    1  0.1361667E-004  0.3486522E+03  0.7818608E-02  0.1063170E+00
         -2   -1    0    0    0  501 -0.00000000000E+00  0.00000000000E+00  0.18187990465E+02  0.18187990644E+02  0.25500000000E-02 0. -1.
          2   -1    0    0  501    0  0.00000000000E+00 -0.00000000000E+00 -0.16708598308E+04  0.16708598308E+04  0.25500000000E-02 0.  1.
    5000001    1    1    2    0    0 -0.77186651227E+02  0.90753889804E+02 -0.78681971279E+03  0.80585873953E+03  0.12700000000E+03 0.  0.
   -5000001    1    1    2    0    0  0.77186651227E+02 -0.90753889804E+02 -0.86585212756E+03  0.88318908193E+03  0.12700000000E+03 0.  0.
<mgrwt>
<rscale>  0 0.34865216E+03</rscale>
<asrwt>0</asrwt>
<pdfrwt beam="1">  1        2 0.23869417E+00 0.34865216E+03</pdfrwt>
<pdfrwt beam="2">  1       -2 0.25982854E-02 0.34865216E+03</pdfrwt>
<totfact> 0.67432496E+03</totfact>
</mgrwt>
</event>
<event>
 4    1  0.1361667E-004  0.4777190E+03  0.7818608E-02  0.1019764E+00
          2   -1    0    0  501    0  0.00000000000E+00  0.00000000000E+00  0.10446886081E+04  0.10446886081E+04  0.25500000000E-02 0.  1.
         -2   -1    0    0    0  501 -0.00000000000E+00 -0.00000000000E+00 -0.54613275830E+02  0.54613275889E+02  0.25500000000E-02 0. -1.
    5000001    1    1    2    0    0 -0.37240523784E+02  0.18094392826E+03  0.30531779388E+03  0.37878162184E+03  0.12700000000E+03 0.  0.
   -5000001    1    1    2    0    0  0.37240523784E+02 -0.18094392826E+03  0.68475753843E+03  0.72052026219E+03  0.12700000000E+03 0.  0.
<mgrwt>
<rscale>  0 0.47771903E+03</rscale>
<asrwt>0</asrwt>
<pdfrwt beam="1">  1        2 0.14924122E+00 0.47771903E+03</pdfrwt>
<pdfrwt beam="2">  1       -2 0.78018968E-02 0.47771903E+03</pdfrwt>
<totfact> 0.27047527E+03</totfact>
</mgrwt>
</event>
<event>
 4    1  0.1361667E-004  0.7021377E+03  0.7818608E-02  0.9713583E-01
          2   -1    0    0  501    0  0.00000000000E+00  0.00000000000E+00  0.18071667312E+04  0.18071667312E+04  0.25500000000E-02 0.  1.
         -2   -1    0    0    0  501 -0.00000000000E+00 -0.00000000000E+00 -0.68200309350E+02  0.68200309397E+02  0.25500000000E-02 0. -1.
    5000001    1    1    2    0    0  0.16323245366E+03  0.24361493125E+03  0.48125632932E+03  0.57769345086E+03  0.12700000000E+03 0.  0.
   -5000001    1    1    2    0    0 -0.16323245366E+03 -0.24361493125E+03  0.12577100925E+04  0.12976735897E+04  0.12700000000E+03 0.  0.
<mgrwt>
<rscale>  0 0.70213768E+03</rscale>
<asrwt>0</asrwt>
<pdfrwt beam="1">  1        2 0.25816672E+00 0.70213768E+03</pdfrwt>
<pdfrwt beam="2">  1       -2 0.97428997E-02 0.70213768E+03</pdfrwt>
<totfact> 0.73569666E+02</totfact>
</mgrwt>
</event>
<event>
 4    1  0.1361667E-004  0.2781916E+03  0.7818608E-02  0.1096681E+00
         -2   -1    0    0    0  501 -0.00000000000E+00  0.00000000000E+00  0.36770266998E+02  0.36770267086E+02  0.25500000000E-02 0. -1.
          2   -1    0    0  501    0  0.00000000000E+00 -0.00000000000E+00 -0.52617640614E+03  0.52617640615E+03  0.25500000000E-02 0.  1.
    5000001    1    1    2    0    0  0.53196092009E+01  0.56480269075E+02 -0.24354425272E+03  0.28046590179E+03  0.12700000000E+03 0.  0.
   -5000001    1    1    2    0    0 -0.53196092009E+01 -0.56480269075E+02 -0.24586188643E+03  0.28248077144E+03  0.12700000000E+03 0.  0.
<mgrwt>
<rscale>  0 0.27819164E+03</rscale>
<asrwt>0</asrwt>
<pdfrwt beam="1">  1        2 0.75168053E-01 0.27819164E+03</pdfrwt>
<pdfrwt beam="2">  1       -2 0.52528956E-02 0.27819164E+03</pdfrwt>
<totfact> 0.11539621E+04</totfact>
</mgrwt>
</event>
<event>
 4    1  0.1361667E-004  0.3892244E+03  0.7818608E-02  0.1047576E+00
          2   -1    0    0  501    0  0.00000000000E+00  0.00000000000E+00  0.46329035538E+03  0.46329035539E+03  0.25500000000E-02 0.  1.
         -2   -1    0    0    0  501 -0.00000000000E+00 -0.00000000000E+00 -0.81749823445E+02  0.81749823485E+02  0.25500000000E-02 0. -1.
    5000001    1    1    2    0    0  0.13692394898E+03  0.70260425992E+01  0.11474710288E+03  0.21930214476E+03  0.12700000000E+03 0.  0.
   -5000001    1    1    2    0    0 -0.13692394898E+03 -0.70260425992E+01  0.26679342906E+03  0.32573803411E+03  0.12700000000E+03 0.  0.
<mgrwt>
<rscale>  0 0.38922438E+03</rscale>
<asrwt>0</asrwt>
<pdfrwt beam="1">  1        2 0.66184338E-01 0.38922438E+03</pdfrwt>
<pdfrwt beam="2">  1       -2 0.11678546E-01 0.38922438E+03</pdfrwt>
<totfact> 0.38310965E+03</totfact>
</mgrwt>
</event>
<event>
 4    1  0.1361667E-004  0.3272519E+03  0.7818608E-02  0.1072359E+00
          2   -1    0    0  501    0  0.00000000000E+00  0.00000000000E+00  0.93702098431E+03  0.93702098431E+03  0.25500000000E-02 0. -1.
         -2   -1    0    0    0  501 -0.00000000000E+00 -0.00000000000E+00 -0.28572948677E+02  0.28572948790E+02  0.25500000000E-02 0.  1.
    5000001    1    1    2    0    0 -0.60496091869E+02 -0.80926787143E+02  0.51580146082E+03  0.54073012584E+03  0.12700000000E+03 0.  0.
   -5000001    1    1    2    0    0  0.60496091869E+02  0.80926787143E+02  0.39264657482E+03  0.42486380727E+03  0.12700000000E+03 0.  0.
<mgrwt>
<rscale>  0 0.32725191E+03</rscale>
<asrwt>0</asrwt>
<pdfrwt beam="1">  1        2 0.13386010E+00 0.32725191E+03</pdfrwt>
<pdfrwt beam="2">  1       -2 0.40818509E-02 0.32725191E+03</pdfrwt>
<totfact> 0.85047025E+03</totfact>
</mgrwt>
</event>
<event>
 4    1  0.1361667E-004  0.9096358E+03  0.7818608E-02  0.9413616E-01
          2   -1    0    0  501    0  0.00000000000E+00  0.00000000000E+00  0.11653824392E+04  0.11653824392E+04  0.25500000000E-02 0.  1.
         -2   -1    0    0    0  501 -0.00000000000E+00 -0.00000000000E+00 -0.17750336927E+03  0.17750336929E+03  0.25500000000E-02 0. -1.
    5000001    1    1    2    0    0 -0.12866803290E+03 -0.39114389664E+03  0.27908335614E+03  0.51338633625E+03  0.12700000000E+03 0.  0.
   -5000001    1    1    2    0    0  0.12866803290E+03  0.39114389664E+03  0.70879571378E+03  0.82949947224E+03  0.12700000000E+03 0.  0.
<mgrwt>
<rscale>  0 0.90963577E+03</rscale>
<asrwt>0</asrwt>
<pdfrwt beam="1">  1        2 0.16648321E+00 0.90963577E+03</pdfrwt>
<pdfrwt beam="2">  1       -2 0.25357624E-01 0.90963577E+03</pdfrwt>
<totfact> 0.31238443E+02</totfact>
</mgrwt>
</event>
<event>
 4    1  0.1361667E-004  0.2848096E+03  0.7818608E-02  0.1093091E+00
          2   -1    0    0  501    0  0.00000000000E+00  0.00000000000E+00  0.16517372061E+04  0.16517372061E+04  0.25500000000E-02 0.  1.
         -2   -1    0    0    0  501 -0.00000000000E+00 -0.00000000000E+00 -0.12277454241E+02  0.12277454506E+02  0.25500000000E-02 0. -1.
    5000001    1    1    2    0    0  0.58922539529E+02  0.13826460028E+02  0.94867585373E+03  0.95905052636E+03  0.12700000000E+03 0.  0.
   -5000001    1    1    2    0    0 -0.58922539529E+02 -0.13826460028E+02  0.69078389810E+03  0.70496413422E+03  0.12700000000E+03 0.  0.
<mgrwt>
<rscale>  0 0.28480961E+03</rscale>
<asrwt>0</asrwt>
<pdfrwt beam="1">  1        2 0.23596267E+00 0.28480961E+03</pdfrwt>
<pdfrwt beam="2">  1       -2 0.17539204E-02 0.28480961E+03</pdfrwt>
<totfact> 0.12290211E+04</totfact>
</mgrwt>
</event>
<event>
 4    1  0.1361667E-004  0.5161272E+03  0.7818608E-02  0.1009653E+00
         -2   -1    0    0    0  501 -0.00000000000E+00  0.00000000000E+00  0.31250193345E+02  0.31250193449E+02  0.25500000000E-02 0.  1.
          2   -1    0    0  501    0  0.00000000000E+00 -0.00000000000E+00 -0.21310847420E+04  0.21310847420E+04  0.25500000000E-02 0. -1.
    5000001    1    1    2    0    0  0.16836097490E+03 -0.55243035001E+02 -0.16284773060E+04  0.16430047312E+04  0.12700000000E+03 0.  0.
   -5000001    1    1    2    0    0 -0.16836097490E+03  0.55243035001E+02 -0.47135724267E+03  0.51933020421E+03  0.12700000000E+03 0.  0.
<mgrwt>
<rscale>  0 0.51612716E+03</rscale>
<asrwt>0</asrwt>
<pdfrwt beam="1">  1        2 0.30444058E+00 0.51612716E+03</pdfrwt>
<pdfrwt beam="2">  1       -2 0.44643147E-02 0.51612716E+03</pdfrwt>
<totfact> 0.17476481E+03</totfact>
</mgrwt>
</event>
<event>
 4    1  0.1361667E-004  0.5623413E+03  0.7818608E-02  0.9986771E-01
          2   -1    0    0  501    0  0.00000000000E+00  0.00000000000E+00  0.32845117484E+03  0.32845117485E+03  0.25500000000E-02 0.  1.
         -2   -1    0    0    0  501 -0.00000000000E+00 -0.00000000000E+00 -0.24069615725E+03  0.24069615726E+03  0.25500000000E-02 0. -1.
    5000001    1    1    2    0    0  0.16153953775E+02 -0.24927499811E+03  0.67155014143E+02  0.28816275059E+03  0.12700000000E+03 0.  0.
   -5000001    1    1    2    0    0 -0.16153953775E+02  0.24927499811E+03  0.20600003445E+02  0.28098458151E+03  0.12700000000E+03 0.  0.
<mgrwt>
<rscale>  0 0.56234130E+03</rscale>
<asrwt>0</asrwt>
<pdfrwt beam="1">  1        2 0.46921597E-01 0.56234130E+03</pdfrwt>
<pdfrwt beam="2">  1       -2 0.34385165E-01 0.56234130E+03</pdfrwt>
<totfact> 0.85720807E+02</totfact>
</mgrwt>
</event>
<event>
 4    1  0.1361667E-004  0.3386827E+03  0.7818608E-02  0.1067358E+00
          2   -1    0    0  501    0  0.00000000000E+00  0.00000000000E+00  0.16716538337E+04  0.16716538337E+04  0.25500000000E-02 0. -1.
         -2   -1    0    0    0  501 -0.00000000000E+00 -0.00000000000E+00 -0.17154561960E+02  0.17154562149E+02  0.25500000000E-02 0.  1.
    5000001    1    1    2    0    0  0.90695894901E+02 -0.35925094354E+02  0.11017796250E+04  0.11133569508E+04  0.12700000000E+03 0.  0.
   -5000001    1    1    2    0    0 -0.90695894901E+02  0.35925094354E+02  0.55271964673E+03  0.57545144507E+03  0.12700000000E+03 0.  0.
<mgrwt>
<rscale>  0 0.33868268E+03</rscale>
<asrwt>0</asrwt>
<pdfrwt beam="1">  1        2 0.23880772E+00 0.33868268E+03</pdfrwt>
<pdfrwt beam="2">  1       -2 0.24506514E-02 0.33868268E+03</pdfrwt>
<totfact> 0.73486249E+03</totfact>
</mgrwt>
</event>
<event>
 4    1  0.1361667E-004  0.6328805E+03  0.7818608E-02  0.9839444E-01
         -2   -1    0    0    0  501 -0.00000000000E+00  0.00000000000E+00  0.28456861303E+02  0.28456861418E+02  0.25500000000E-02 0.  1.
          2   -1    0    0  501    0  0.00000000000E+00 -0.00000000000E+00 -0.35188148894E+04  0.35188148894E+04  0.25500000000E-02 0. -1.
    5000001    1    1    2    0    0 -0.28090814429E+03 -0.13718151394E+02 -0.13525172766E+04  0.13872741462E+04  0.12700000000E+03 0.  0.
   -5000001    1    1    2    0    0  0.28090814429E+03  0.13718151394E+02 -0.21378407515E+04  0.21599976046E+04  0.12700000000E+03 0.  0.
<mgrwt>
<rscale>  0 0.63288049E+03</rscale>
<asrwt>0</asrwt>
<pdfrwt beam="1">  1        2 0.50268756E+00 0.63288049E+03</pdfrwt>
<pdfrwt beam="2">  1       -2 0.40652682E-02 0.63288049E+03</pdfrwt>
<totfact> 0.36000588E+02</totfact>
</mgrwt>
</event>
<event>
 4    1  0.1361667E-004  0.3287773E+03  0.7818608E-02  0.1071679E+00
         -2   -1    0    0    0  501 -0.00000000000E+00  0.00000000000E+00  0.45504449295E+02  0.45504449366E+02  0.25500000000E-02 0. -1.
          2   -1    0    0  501    0  0.00000000000E+00 -0.00000000000E+00 -0.59386796872E+03  0.59386796872E+03  0.25500000000E-02 0.  1.
    5000001    1    1    2    0    0  0.55221518069E+02 -0.79231172557E+02 -0.35117900819E+03  0.38572359347E+03  0.12700000000E+03 0.  0.
   -5000001    1    1    2    0    0 -0.55221518069E+02  0.79231172557E+02 -0.19718451123E+03  0.25364882462E+03  0.12700000000E+03 0.  0.
<mgrwt>
<rscale>  0 0.32877734E+03</rscale>
<asrwt>0</asrwt>
<pdfrwt beam="1">  1        2 0.84838277E-01 0.32877734E+03</pdfrwt>
<pdfrwt beam="2">  1       -2 0.65006360E-02 0.32877734E+03</pdfrwt>
<totfact> 0.72974700E+03</totfact>
</mgrwt>
</event>
<event>
 4    1  0.1361667E-004  0.6231205E+03  0.7818608E-02  0.9858566E-01
         -2   -1    0    0    0  501 -0.00000000000E+00  0.00000000000E+00  0.29245179356E+02  0.29245179467E+02  0.25500000000E-02 0. -1.
          2   -1    0    0  501    0  0.00000000000E+00 -0.00000000000E+00 -0.33191724971E+04  0.33191724971E+04  0.25500000000E-02 0.  1.
    5000001    1    1    2    0    0  0.24108406284E+03  0.45579896319E+02 -0.24188731927E+04  0.24345996744E+04  0.12700000000E+03 0.  0.
   -5000001    1    1    2    0    0 -0.24108406284E+03 -0.45579896319E+02 -0.87105412509E+03  0.91381800219E+03  0.12700000000E+03 0.  0.
<mgrwt>
<rscale>  0 0.62312052E+03</rscale>
<asrwt>0</asrwt>
<pdfrwt beam="1">  1        2 0.47416726E+00 0.62312052E+03</pdfrwt>
<pdfrwt beam="2">  1       -2 0.41778849E-02 0.62312052E+03</pdfrwt>
<totfact> 0.45222737E+02</totfact>
</mgrwt>
</event>
<event>
 4    1  0.1361667E-004  0.4656898E+03  0.7818608E-02  0.1023144E+00
          2   -1    0    0  501    0  0.00000000000E+00  0.00000000000E+00  0.30494055746E+03  0.30494055747E+03  0.25500000000E-02 0.  1.
         -2   -1    0    0    0  501 -0.00000000000E+00 -0.00000000000E+00 -0.17779447175E+03  0.17779447177E+03  0.25500000000E-02 0. -1.
    5000001    1    1    2    0    0 -0.13054347984E+03 -0.14504941784E+03  0.66278473647E+02  0.24208008967E+03  0.12700000000E+03 0.  0.
   -5000001    1    1    2    0    0  0.13054347984E+03  0.14504941784E+03  0.60867612059E+02  0.24065493957E+03  0.12700000000E+03 0.  0.
<mgrwt>
<rscale>  0 0.46568979E+03</rscale>
<asrwt>0</asrwt>
<pdfrwt beam="1">  1        2 0.43562937E-01 0.46568979E+03</pdfrwt>
<pdfrwt beam="2">  1       -2 0.25399210E-01 0.46568979E+03</pdfrwt>
<totfact> 0.16222297E+03</totfact>
</mgrwt>
</event>
<event>
 4    1  0.1361667E-004  0.4027232E+03  0.7818608E-02  0.1042841E+00
          2   -1    0    0  501    0  0.00000000000E+00  0.00000000000E+00  0.38556820370E+03  0.38556820371E+03  0.25500000000E-02 0. -1.
         -2   -1    0    0    0  501 -0.00000000000E+00 -0.00000000000E+00 -0.10516037459E+03  0.10516037462E+03  0.25500000000E-02 0.  1.
    5000001    1    1    2    0    0  0.13219806338E+03 -0.33596656334E+02  0.23310348026E+03  0.29844814589E+03  0.12700000000E+03 0.  0.
   -5000001    1    1    2    0    0 -0.13219806338E+03  0.33596656334E+02  0.47304348851E+02  0.19228043244E+03  0.12700000000E+03 0.  0.
<mgrwt>
<rscale>  0 0.40272321E+03</rscale>
<asrwt>0</asrwt>
<pdfrwt beam="1">  1        2 0.55081173E-01 0.40272321E+03</pdfrwt>
<pdfrwt beam="2">  1       -2 0.15022910E-01 0.40272321E+03</pdfrwt>
<totfact> 0.31002613E+03</totfact>
</mgrwt>
</event>
<event>
 4    1  0.1361667E-004  0.3087434E+03  0.7818608E-02  0.1080950E+00
         -2   -1    0    0    0  501 -0.00000000000E+00  0.00000000000E+00  0.13274833977E+03  0.13274833980E+03  0.25500000000E-02 0. -1.
          2   -1    0    0  501    0  0.00000000000E+00 -0.00000000000E+00 -0.17951725480E+03  0.17951725481E+03  0.25500000000E-02 0.  1.
    5000001    1    1    2    0    0  0.55510779280E+02  0.56986914082E+02 -0.60856587907E+02  0.16174510591E+03  0.12700000000E+03 0.  0.
   -5000001    1    1    2    0    0 -0.55510779280E+02 -0.56986914082E+02  0.14087672884E+02  0.15052048871E+03  0.12700000000E+03 0.  0.
<mgrwt>
<rscale>  0 0.30874337E+03</rscale>
<asrwt>0</asrwt>
<pdfrwt beam="1">  1        2 0.25645322E-01 0.30874337E+03</pdfrwt>
<pdfrwt beam="2">  1       -2 0.18964049E-01 0.30874337E+03</pdfrwt>
<totfact> 0.48078855E+03</totfact>
</mgrwt>
</event>
<event>
 4    1  0.1361667E-004  0.2644896E+03  0.7818608E-02  0.1104475E+00
          2   -1    0    0  501    0  0.00000000000E+00  0.00000000000E+00  0.58040132898E+02  0.58040132954E+02  0.25500000000E-02 0.  1.
         -2   -1    0    0    0  501 -0.00000000000E+00 -0.00000000000E+00 -0.30132064508E+03  0.30132064509E+03  0.25500000000E-02 0. -1.
    5000001    1    1    2    0    0  0.10984660150E+02  0.33843140818E+02 -0.10849040582E+03  0.17077818682E+03  0.12700000000E+03 0.  0.
   -5000001    1    1    2    0    0 -0.10984660150E+02 -0.33843140818E+02 -0.13479010636E+03  0.18858259122E+03  0.12700000000E+03 0.  0.
<mgrwt>
<rscale>  0 0.26448962E+03</rscale>
<asrwt>0</asrwt>
<pdfrwt beam="1">  1        2 0.82914477E-02 0.26448962E+03</pdfrwt>
<pdfrwt beam="2">  1       -2 0.43045806E-01 0.26448962E+03</pdfrwt>
<totfact> 0.41684628E+03</totfact>
</mgrwt>
</event>
<event>
 4    1  0.1361667E-004  0.5280154E+03  0.7818608E-02  0.1006715E+00
         -2   -1    0    0    0  501 -0.00000000000E+00  0.00000000000E+00  0.32559415585E+02  0.32559415685E+02  0.25500000000E-02 0. -1.
          2   -1    0    0  501    0  0.00000000000E+00 -0.00000000000E+00 -0.21407036625E+04  0.21407036625E+04  0.25500000000E-02 0.  1.
    5000001    1    1    2    0    0 -0.16790776788E+03  0.84420249777E+02 -0.16101200087E+04  0.16260182162E+04  0.12700000000E+03 0.  0.
   -5000001    1    1    2    0    0  0.16790776788E+03 -0.84420249777E+02 -0.49802423819E+03  0.54724486193E+03  0.12700000000E+03 0.  0.
<mgrwt>
<rscale>  0 0.52801538E+03</rscale>
<asrwt>0</asrwt>
<pdfrwt beam="1">  1        2 0.30581472E+00 0.52801538E+03</pdfrwt>
<pdfrwt beam="2">  1       -2 0.46513464E-02 0.52801538E+03</pdfrwt>
<totfact> 0.16215493E+03</totfact>
</mgrwt>
</event>
<event>
 4    1  0.1361667E-004  0.2733996E+03  0.7818608E-02  0.1099350E+00
          2   -1    0    0  501    0  0.00000000000E+00  0.00000000000E+00  0.21074835149E+04  0.21074835149E+04  0.25500000000E-02 0.  1.
         -2   -1    0    0    0  501 -0.00000000000E+00 -0.00000000000E+00 -0.88668945369E+01  0.88668949036E+01  0.25500000000E-02 0. -1.
    5000001    1    1    2    0    0 -0.33267935804E+02  0.27443380830E+02  0.84480578326E+03  0.85538629059E+03  0.12700000000E+03 0.  0.
   -5000001    1    1    2    0    0  0.33267935804E+02 -0.27443380830E+02  0.12538108371E+04  0.12609641192E+04  0.12700000000E+03 0.  0.
<mgrwt>
<rscale>  0 0.27339959E+03</rscale>
<asrwt>0</asrwt>
<pdfrwt beam="1">  1        2 0.30106939E+00 0.27339959E+03</pdfrwt>
<pdfrwt beam="2">  1       -2 0.12666979E-02 0.27339959E+03</pdfrwt>
<totfact> 0.11824876E+04</totfact>
</mgrwt>
</event>
<event>
 4    1  0.1361667E-004  0.3359393E+03  0.7818608E-02  0.1068539E+00
         -2   -1    0    0    0  501 -0.00000000000E+00  0.00000000000E+00  0.23816140034E+03  0.23816140035E+03  0.25500000000E-02 0. -1.
          2   -1    0    0  501    0  0.00000000000E+00 -0.00000000000E+00 -0.11846502359E+03  0.11846502362E+03  0.25500000000E-02 0.  1.
    5000001    1    1    2    0    0 -0.13765577058E+02 -0.87264133165E+02 -0.96044331705E+01  0.15500246832E+03  0.12700000000E+03 0.  0.
   -5000001    1    1    2    0    0  0.13765577058E+02  0.87264133165E+02  0.12930080991E+03  0.20162395565E+03  0.12700000000E+03 0.  0.
<mgrwt>
<rscale>  0 0.33593926E+03</rscale>
<asrwt>0</asrwt>
<pdfrwt beam="1">  1        2 0.16923575E-01 0.33593926E+03</pdfrwt>
<pdfrwt beam="2">  1       -2 0.34023058E-01 0.33593926E+03</pdfrwt>
<totfact> 0.27445235E+03</totfact>
</mgrwt>
</event>
<event>
 4    1  0.1361667E-004  0.2923544E+03  0.7818608E-02  0.1089126E+00
         -2   -1    0    0    0  501 -0.00000000000E+00  0.00000000000E+00  0.13785610132E+02  0.13785610368E+02  0.25500000000E-02 0. -1.
          2   -1    0    0  501    0  0.00000000000E+00 -0.00000000000E+00 -0.15500057334E+04  0.15500057334E+04  0.25500000000E-02 0.  1.
    5000001    1    1    2    0    0  0.32028305233E+02  0.26979366350E+02 -0.10838832917E+04  0.10921015010E+04  0.12700000000E+03 0.  0.
   -5000001    1    1    2    0    0 -0.32028305233E+02 -0.26979366350E+02 -0.45233683164E+03  0.47168984280E+03  0.12700000000E+03 0.  0.
<mgrwt>
<rscale>  0 0.29235441E+03</rscale>
<asrwt>0</asrwt>
<pdfrwt beam="1">  1        2 0.22142928E+00 0.29235441E+03</pdfrwt>
<pdfrwt beam="2">  1       -2 0.19693739E-02 0.29235441E+03</pdfrwt>
<totfact> 0.11657174E+04</totfact>
</mgrwt>
</event>
<event>
 4    1  0.1361667E-004  0.3701808E+03  0.7818608E-02  0.1054624E+00
          2   -1    0    0  501    0  0.00000000000E+00  0.00000000000E+00  0.52220502216E+03  0.52220502216E+03  0.25500000000E-02 0.  1.
         -2   -1    0    0    0  501 -0.00000000000E+00 -0.00000000000E+00 -0.65603454868E+02  0.65603454917E+02  0.25500000000E-02 0. -1.
    5000001    1    1    2    0    0 -0.11717786318E+03  0.37516583017E+02  0.31514732705E+03  0.36136544296E+03  0.12700000000E+03 0.  0.
   -5000001    1    1    2    0    0  0.11717786318E+03 -0.37516583017E+02  0.14145424024E+03  0.22644303412E+03  0.12700000000E+03 0.  0.
<mgrwt>
<rscale>  0 0.37018079E+03</rscale>
<asrwt>0</asrwt>
<pdfrwt beam="1">  1        2 0.74600716E-01 0.37018079E+03</pdfrwt>
<pdfrwt beam="2">  1       -2 0.93719223E-02 0.37018079E+03</pdfrwt>
<totfact> 0.47700153E+03</totfact>
</mgrwt>
</event>
<event>
 4    1  0.1361667E-004  0.7657728E+03  0.7818608E-02  0.9610925E-01
         -2   -1    0    0    0  501 -0.00000000000E+00  0.00000000000E+00  0.29323531058E+03  0.29323531059E+03  0.25500000000E-02 0. -1.
          2   -1    0    0  501    0  0.00000000000E+00 -0.00000000000E+00 -0.49994663017E+03  0.49994663018E+03  0.25500000000E-02 0.  1.
    5000001    1    1    2    0    0  0.10372871840E+03  0.20586907816E+03  0.18468279245E+03  0.32152520615E+03  0.12700000000E+03 0.  0.
   -5000001    1    1    2    0    0 -0.10372871840E+03 -0.20586907816E+03 -0.39139411205E+03  0.47165673462E+03  0.12700000000E+03 0.  0.
<mgrwt>
<rscale>  0 0.76577283E+03</rscale>
<asrwt>0</asrwt>
<pdfrwt beam="1">  1        2 0.71420948E-01 0.76577283E+03</pdfrwt>
<pdfrwt beam="2">  1       -2 0.41890758E-01 0.76577283E+03</pdfrwt>
<totfact> 0.36479499E+02</totfact>
</mgrwt>
</event>
<event>
 4    1  0.1361667E-004  0.4551813E+03  0.7818608E-02  0.1026188E+00
          2   -1    0    0  501    0  0.00000000000E+00  0.00000000000E+00  0.39491331691E+03  0.39491331691E+03  0.25500000000E-02 0.  1.
         -2   -1    0    0    0  501 -0.00000000000E+00 -0.00000000000E+00 -0.13116172521E+03  0.13116172523E+03  0.25500000000E-02 0. -1.
    5000001    1    1    2    0    0 -0.18762415619E+03 -0.22848077383E+01  0.15667643115E+03  0.27547150199E+03  0.12700000000E+03 0.  0.
   -5000001    1    1    2    0    0  0.18762415619E+03  0.22848077383E+01  0.10707516054E+03  0.25060354015E+03  0.12700000000E+03 0.  0.
<mgrwt>
<rscale>  0 0.45518134E+03</rscale>
<asrwt>0</asrwt>
<pdfrwt beam="1">  1        2 0.56416188E-01 0.45518134E+03</pdfrwt>
<pdfrwt beam="2">  1       -2 0.18737389E-01 0.45518134E+03</pdfrwt>
<totfact> 0.20813706E+03</totfact>
</mgrwt>
</event>
<event>
 4    1  0.1361667E-004  0.3113283E+03  0.7818608E-02  0.1079711E+00
          2   -1    0    0  501    0  0.00000000000E+00  0.00000000000E+00  0.65077573415E+03  0.65077573416E+03  0.25500000000E-02 0.  1.
         -2   -1    0    0    0  501 -0.00000000000E+00 -0.00000000000E+00 -0.37234529089E+02  0.37234529176E+02  0.25500000000E-02 0. -1.
    5000001    1    1    2    0    0 -0.23978635863E+01 -0.65691837461E+02  0.17088016882E+03  0.22282324689E+03  0.12700000000E+03 0.  0.
   -5000001    1    1    2    0    0  0.23978635863E+01  0.65691837461E+02  0.44266103624E+03  0.46518701644E+03  0.12700000000E+03 0.  0.
<mgrwt>
<rscale>  0 0.31132830E+03</rscale>
<asrwt>0</asrwt>
<pdfrwt beam="1">  1        2 0.92967963E-01 0.31132830E+03</pdfrwt>
<pdfrwt beam="2">  1       -2 0.53192184E-02 0.31132830E+03</pdfrwt>
<totfact> 0.89216373E+03</totfact>
</mgrwt>
</event>
<event>
 4    1  0.1361667E-004  0.4268756E+03  0.7818608E-02  0.1034852E+00
          2   -1    0    0  501    0  0.00000000000E+00  0.00000000000E+00  0.19969198037E+04  0.19969198037E+04  0.25500000000E-02 0.  1.
         -2   -1    0    0    0  501 -0.00000000000E+00 -0.00000000000E+00 -0.22812978458E+02  0.22812978601E+02  0.25500000000E-02 0. -1.
    5000001    1    1    2    0    0 -0.23668837227E+02 -0.14824370889E+03  0.13797986873E+04  0.13937395125E+04  0.12700000000E+03 0.  0.
   -5000001    1    1    2    0    0  0.23668837227E+02  0.14824370889E+03  0.59430813796E+03  0.62599326987E+03  0.12700000000E+03 0.  0.
<mgrwt>
<rscale>  0 0.42687557E+03</rscale>
<asrwt>0</asrwt>
<pdfrwt beam="1">  1        2 0.28527444E+00 0.42687557E+03</pdfrwt>
<pdfrwt beam="2">  1       -2 0.32589948E-02 0.42687557E+03</pdfrwt>
<totfact> 0.33046880E+03</totfact>
</mgrwt>
</event>
<event>
 4    1  0.1361667E-004  0.3716597E+03  0.7818608E-02  0.1054060E+00
         -2   -1    0    0    0  501 -0.00000000000E+00  0.00000000000E+00  0.12371685464E+03  0.12371685467E+03  0.25500000000E-02 0. -1.
          2   -1    0    0  501    0  0.00000000000E+00 -0.00000000000E+00 -0.27912716816E+03  0.27912716817E+03  0.25500000000E-02 0.  1.
    5000001    1    1    2    0    0 -0.17566984530E+02  0.81842411472E+02 -0.19341914842E+03  0.24606248441E+03  0.12700000000E+03 0.  0.
   -5000001    1    1    2    0    0  0.17566984530E+02 -0.81842411472E+02  0.38008834904E+02  0.15678153843E+03  0.12700000000E+03 0.  0.
<mgrwt>
<rscale>  0 0.37165971E+03</rscale>
<asrwt>0</asrwt>
<pdfrwt beam="1">  1        2 0.39875309E-01 0.37165971E+03</pdfrwt>
<pdfrwt beam="2">  1       -2 0.17673837E-01 0.37165971E+03</pdfrwt>
<totfact> 0.33491303E+03</totfact>
</mgrwt>
</event>
<event>
 4    1  0.1361667E-004  0.4759704E+03  0.7818608E-02  0.1020249E+00
         -2   -1    0    0    0  501 -0.00000000000E+00  0.00000000000E+00  0.80352526649E+02  0.80352526689E+02  0.25500000000E-02 0. -1.
          2   -1    0    0  501    0  0.00000000000E+00 -0.00000000000E+00 -0.70485607005E+03  0.70485607005E+03  0.25500000000E-02 0.  1.
    5000001    1    1    2    0    0  0.15552809138E+03 -0.11934176092E+03 -0.38742677204E+03  0.45239357511E+03  0.12700000000E+03 0.  0.
   -5000001    1    1    2    0    0 -0.15552809138E+03  0.11934176092E+03 -0.23707677136E+03  0.33281502163E+03  0.12700000000E+03 0.  0.
<mgrwt>
<rscale>  0 0.47597045E+03</rscale>
<asrwt>0</asrwt>
<pdfrwt beam="1">  1        2 0.10069372E+00 0.47597045E+03</pdfrwt>
<pdfrwt beam="2">  1       -2 0.11478933E-01 0.47597045E+03</pdfrwt>
<totfact> 0.24330153E+03</totfact>
</mgrwt>
</event>
<event>
 4    1  0.1361667E-004  0.4164975E+03  0.7818608E-02  0.1038212E+00
          2   -1    0    0  501    0  0.00000000000E+00  0.00000000000E+00  0.14202319412E+04  0.14202319412E+04  0.25500000000E-02 0.  1.
         -2   -1    0    0    0  501 -0.00000000000E+00 -0.00000000000E+00 -0.30535538138E+02  0.30535538245E+02  0.25500000000E-02 0. -1.
    5000001    1    1    2    0    0  0.15384886561E+03  0.57538508135E+02  0.75084020743E+03  0.77901872280E+03  0.12700000000E+03 0.  0.
   -5000001    1    1    2    0    0 -0.15384886561E+03 -0.57538508135E+02  0.63885619558E+03  0.67174875661E+03  0.12700000000E+03 0.  0.
<mgrwt>
<rscale>  0 0.41649752E+03</rscale>
<asrwt>0</asrwt>
<pdfrwt beam="1">  1        2 0.20289029E+00 0.41649752E+03</pdfrwt>
<pdfrwt beam="2">  1       -2 0.43622194E-02 0.41649752E+03</pdfrwt>
<totfact> 0.41435348E+03</totfact>
</mgrwt>
</event>
<event>
 4    1  0.1361667E-004  0.5176039E+03  0.7818608E-02  0.1009283E+00
         -2   -1    0    0    0  501 -0.00000000000E+00  0.00000000000E+00  0.16626012332E+03  0.16626012334E+03  0.25500000000E-02 0.  1.
          2   -1    0    0  501    0  0.00000000000E+00 -0.00000000000E+00 -0.40285341938E+03  0.40285341939E+03  0.25500000000E-02 0. -1.
    5000001    1    1    2    0    0 -0.12304818240E+03  0.22447468912E+02  0.88004557412E+02  0.19879272164E+03  0.12700000000E+03 0.  0.
   -5000001    1    1    2    0    0  0.12304818240E+03 -0.22447468912E+02 -0.32459785347E+03  0.37032082109E+03  0.12700000000E+03 0.  0.
<mgrwt>
<rscale>  0 0.51760394E+03</rscale>
<asrwt>0</asrwt>
<pdfrwt beam="1">  1        2 0.57550488E-01 0.51760394E+03</pdfrwt>
<pdfrwt beam="2">  1       -2 0.23751446E-01 0.51760394E+03</pdfrwt>
<totfact> 0.13467454E+03</totfact>
</mgrwt>
</event>
<event>
 4    1  0.1361667E-004  0.4118232E+03  0.7818608E-02  0.1039761E+00
          2   -1    0    0  501    0  0.00000000000E+00  0.00000000000E+00  0.23491450446E+04  0.23491450446E+04  0.25500000000E-02 0.  1.
         -2   -1    0    0    0  501 -0.00000000000E+00 -0.00000000000E+00 -0.18048941612E+02  0.18048941792E+02  0.25500000000E-02 0. -1.
    5000001    1    1    2    0    0 -0.13121371631E+03 -0.57454746784E+02  0.16015126040E+04  0.16129134224E+04  0.12700000000E+03 0.  0.
   -5000001    1    1    2    0    0  0.13121371631E+03  0.57454746784E+02  0.72958349897E+03  0.75428056401E+03  0.12700000000E+03 0.  0.
<mgrwt>
<rscale>  0 0.41182318E+03</rscale>
<asrwt>0</asrwt>
<pdfrwt beam="1">  1        2 0.33559227E+00 0.41182318E+03</pdfrwt>
<pdfrwt beam="2">  1       -2 0.25784193E-02 0.41182318E+03</pdfrwt>
<totfact> 0.31423581E+03</totfact>
</mgrwt>
</event>
<event>
 4    1  0.1361667E-004  0.4232117E+03  0.7818608E-02  0.1036026E+00
         -2   -1    0    0    0  501 -0.00000000000E+00  0.00000000000E+00  0.17898086399E+03  0.17898086401E+03  0.25500000000E-02 0. -1.
          2   -1    0    0  501    0  0.00000000000E+00 -0.00000000000E+00 -0.25017775671E+03  0.25017775673E+03  0.25500000000E-02 0.  1.
    5000001    1    1    2    0    0  0.79603041545E+02  0.14845128636E+03 -0.52371809769E+02  0.21736199094E+03  0.12700000000E+03 0.  0.
   -5000001    1    1    2    0    0 -0.79603041545E+02 -0.14845128636E+03 -0.18825082954E+02  0.21179662980E+03  0.12700000000E+03 0.  0.
<mgrwt>
<rscale>  0 0.42321168E+03</rscale>
<asrwt>0</asrwt>
<pdfrwt beam="1">  1        2 0.35739679E-01 0.42321168E+03</pdfrwt>
<pdfrwt beam="2">  1       -2 0.25568695E-01 0.42321168E+03</pdfrwt>
<totfact> 0.19899817E+03</totfact>
</mgrwt>
</event>
<event>
 4    1  0.1361667E-004  0.7527193E+03  0.7818608E-02  0.9631094E-01
         -2   -1    0    0    0  501 -0.00000000000E+00  0.00000000000E+00  0.24246501399E+03  0.24246501401E+03  0.25500000000E-02 0. -1.
          2   -1    0    0  501    0  0.00000000000E+00 -0.00000000000E+00 -0.58419391776E+03  0.58419391777E+03  0.25500000000E-02 0.  1.
    5000001    1    1    2    0    0 -0.20162147961E+03  0.23113426685E+03 -0.36560549020E+03  0.49383260810E+03  0.12700000000E+03 0.  0.
   -5000001    1    1    2    0    0  0.20162147961E+03 -0.23113426685E+03  0.23876586436E+02  0.33282632368E+03  0.12700000000E+03 0.  0.
<mgrwt>
<rscale>  0 0.75271930E+03</rscale>
<asrwt>0</asrwt>
<pdfrwt beam="1">  1        2 0.83456273E-01 0.75271930E+03</pdfrwt>
<pdfrwt beam="2">  1       -2 0.34637859E-01 0.75271930E+03</pdfrwt>
<totfact> 0.43974244E+02</totfact>
</mgrwt>
</event>
<event>
 4    1  0.1361667E-004  0.3764862E+03  0.7818608E-02  0.1052240E+00
          2   -1    0    0  501    0  0.00000000000E+00  0.00000000000E+00  0.83658449043E+03  0.83658449043E+03  0.25500000000E-02 0.  1.
         -2   -1    0    0    0  501 -0.00000000000E+00 -0.00000000000E+00 -0.42357304600E+02  0.42357304677E+02  0.25500000000E-02 0. -1.
    5000001    1    1    2    0    0  0.39507522102E+02  0.12194762063E+03  0.52227904774E+03  0.55257259268E+03  0.12700000000E+03 0.  0.
   -5000001    1    1    2    0    0 -0.39507522102E+02 -0.12194762063E+03  0.27194813809E+03  0.32636920243E+03  0.12700000000E+03 0.  0.
<mgrwt>
<rscale>  0 0.37648620E+03</rscale>
<asrwt>0</asrwt>
<pdfrwt beam="1">  1        2 0.11951206E+00 0.37648620E+03</pdfrwt>
<pdfrwt beam="2">  1       -2 0.60510442E-02 0.37648620E+03</pdfrwt>
<totfact> 0.54141046E+03</totfact>
</mgrwt>
</event>
<event>
 4    1  0.1361667E-004  0.3208526E+03  0.7818608E-02  0.1075258E+00
          2   -1    0    0  501    0  0.00000000000E+00  0.00000000000E+00  0.27582394445E+04  0.27582394445E+04  0.25500000000E-02 0.  1.
         -2   -1    0    0    0  501 -0.00000000000E+00 -0.00000000000E+00 -0.93308058650E+01  0.93308062134E+01  0.25500000000E-02 0. -1.
    5000001    1    1    2    0    0 -0.93315926590E+01 -0.50172829602E+02  0.65261332991E+03  0.66681147998E+03  0.12700000000E+03 0.  0.
   -5000001    1    1    2    0    0  0.93315926590E+01  0.50172829602E+02  0.20962953087E+04  0.21007587707E+04  0.12700000000E+03 0.  0.
<mgrwt>
<rscale>  0 0.32085260E+03</rscale>
<asrwt>0</asrwt>
<pdfrwt beam="1">  1        2 0.39403463E+00 0.32085260E+03</pdfrwt>
<pdfrwt beam="2">  1       -2 0.13329709E-02 0.32085260E+03</pdfrwt>
<totfact> 0.51977308E+03</totfact>
</mgrwt>
</event>
<event>
 4    1  0.1361667E-004  0.3420880E+03  0.7818608E-02  0.1065910E+00
         -2   -1    0    0    0  501 -0.00000000000E+00  0.00000000000E+00  0.69846038264E+02  0.69846038310E+02  0.25500000000E-02 0. -1.
          2   -1    0    0  501    0  0.00000000000E+00 -0.00000000000E+00 -0.41886488097E+03  0.41886488098E+03  0.25500000000E-02 0.  1.
    5000001    1    1    2    0    0  0.52879620309E+02  0.85799100053E+02 -0.96662372809E+02  0.18876004379E+03  0.12700000000E+03 0.  0.
   -5000001    1    1    2    0    0 -0.52879620309E+02 -0.85799100053E+02 -0.25235646990E+03  0.29995087550E+03  0.12700000000E+03 0.  0.
<mgrwt>
<rscale>  0 0.34208802E+03</rscale>
<asrwt>0</asrwt>
<pdfrwt beam="1">  1        2 0.59837839E-01 0.34208802E+03</pdfrwt>
<pdfrwt beam="2">  1       -2 0.99780057E-02 0.34208802E+03</pdfrwt>
<totfact> 0.55000800E+03</totfact>
</mgrwt>
</event>
<event>
 4    1  0.1361667E-004  0.4222286E+03  0.7818608E-02  0.1036343E+00
          2   -1    0    0  501    0  0.00000000000E+00  0.00000000000E+00  0.10646192491E+04  0.10646192491E+04  0.25500000000E-02 0.  1.
         -2   -1    0    0    0  501 -0.00000000000E+00 -0.00000000000E+00 -0.41864019261E+02  0.41864019339E+02  0.25500000000E-02 0. -1.
    5000001    1    1    2    0    0 -0.14709052013E+03 -0.79469310778E+02  0.56934209070E+03  0.60681991456E+03  0.12700000000E+03 0.  0.
   -5000001    1    1    2    0    0  0.14709052013E+03  0.79469310778E+02  0.45341313914E+03  0.49966335388E+03  0.12700000000E+03 0.  0.
<mgrwt>
<rscale>  0 0.42222857E+03</rscale>
<asrwt>0</asrwt>
<pdfrwt beam="1">  1        2 0.15208845E+00 0.42222857E+03</pdfrwt>
<pdfrwt beam="2">  1       -2 0.59805748E-02 0.42222857E+03</pdfrwt>
<totfact> 0.39913291E+03</totfact>
</mgrwt>
</event>
<event>
 4    1  0.1361667E-004  0.3431149E+03  0.7818608E-02  0.1065477E+00
         -2   -1    0    0    0  501 -0.00000000000E+00  0.00000000000E+00  0.17251457187E+02  0.17251457375E+02  0.25500000000E-02 0. -1.
          2   -1    0    0  501    0  0.00000000000E+00 -0.00000000000E+00 -0.17060566354E+04  0.17060566354E+04  0.25500000000E-02 0.  1.
    5000001    1    1    2    0    0  0.41595862789E+02  0.78403413194E+02 -0.47444725779E+03  0.49910571167E+03  0.12700000000E+03 0.  0.
   -5000001    1    1    2    0    0 -0.41595862789E+02 -0.78403413194E+02 -0.12143579204E+04  0.12242023811E+04  0.12700000000E+03 0.  0.
<mgrwt>
<rscale>  0 0.34311493E+03</rscale>
<asrwt>0</asrwt>
<pdfrwt beam="1">  1        2 0.24372227E+00 0.34311493E+03</pdfrwt>
<pdfrwt beam="2">  1       -2 0.24644950E-02 0.34311493E+03</pdfrwt>
<totfact> 0.70062716E+03</totfact>
</mgrwt>
</event>
<event>
 4    1  0.1361667E-004  0.4407352E+03  0.7818608E-02  0.1030521E+00
          2   -1    0    0  501    0  0.00000000000E+00  0.00000000000E+00  0.11309240911E+03  0.11309240914E+03  0.25500000000E-02 0.  1.
         -2   -1    0    0    0  501 -0.00000000000E+00 -0.00000000000E+00 -0.42940001881E+03  0.42940001882E+03  0.25500000000E-02 0. -1.
    5000001    1    1    2    0    0 -0.93923727619E+02  0.14668687005E+03 -0.21448159849E+03  0.30408890237E+03  0.12700000000E+03 0.  0.
   -5000001    1    1    2    0    0  0.93923727619E+02 -0.14668687005E+03 -0.10182601121E+03  0.23840352559E+03  0.12700000000E+03 0.  0.
<mgrwt>
<rscale>  0 0.44073522E+03</rscale>
<asrwt>0</asrwt>
<pdfrwt beam="1">  1        2 0.16156059E-01 0.44073522E+03</pdfrwt>
<pdfrwt beam="2">  1       -2 0.61342859E-01 0.44073522E+03</pdfrwt>
<totfact> 0.90784854E+02</totfact>
</mgrwt>
</event>
<event>
 4    1  0.1361667E-004  0.3305791E+03  0.7818608E-02  0.1070881E+00
         -2   -1    0    0    0  501 -0.00000000000E+00  0.00000000000E+00  0.34948431519E+03  0.34948431520E+03  0.25500000000E-02 0. -1.
          2   -1    0    0  501    0  0.00000000000E+00 -0.00000000000E+00 -0.78174125583E+02  0.78174125625E+02  0.25500000000E-02 0.  1.
    5000001    1    1    2    0    0 -0.13558732909E+02  0.10486736490E+03  0.13143780837E+03  0.21115373766E+03  0.12700000000E+03 0.  0.
   -5000001    1    1    2    0    0  0.13558732909E+02 -0.10486736490E+03  0.13987238124E+03  0.21650470316E+03  0.12700000000E+03 0.  0.
<mgrwt>
<rscale>  0 0.33057907E+03</rscale>
<asrwt>0</asrwt>
<pdfrwt beam="1">  1        2 0.11167732E-01 0.33057907E+03</pdfrwt>
<pdfrwt beam="2">  1       -2 0.49926332E-01 0.33057907E+03</pdfrwt>
<totfact> 0.21594901E+03</totfact>
</mgrwt>
</event>
<event>
 4    1  0.1361667E-004  0.5213891E+03  0.7818608E-02  0.1008342E+00
         -2   -1    0    0    0  501 -0.00000000000E+00  0.00000000000E+00  0.45413871047E+02  0.45413871119E+02  0.25500000000E-02 0. -1.
          2   -1    0    0  501    0  0.00000000000E+00 -0.00000000000E+00 -0.14964954820E+04  0.14964954821E+04  0.25500000000E-02 0.  1.
    5000001    1    1    2    0    0  0.19507415902E+03  0.76612326119E+02 -0.46253503937E+03  0.52344153320E+03  0.12700000000E+03 0.  0.
   -5000001    1    1    2    0    0 -0.19507415902E+03 -0.76612326119E+02 -0.98854657163E+03  0.10184678200E+04  0.12700000000E+03 0.  0.
<mgrwt>
<rscale>  0 0.52138912E+03</rscale>
<asrwt>0</asrwt>
<pdfrwt beam="1">  1        2 0.21378504E+00 0.52138912E+03</pdfrwt>
<pdfrwt beam="2">  1       -2 0.64876968E-02 0.52138912E+03</pdfrwt>
<totfact> 0.20442386E+03</totfact>
</mgrwt>
</event>
<event>
 4    1  0.1361667E-004  0.3674666E+03  0.7818608E-02  0.1055666E+00
          2   -1    0    0  501    0  0.00000000000E+00  0.00000000000E+00  0.73490079972E+02  0.73490080016E+02  0.25500000000E-02 0.  1.
         -2   -1    0    0    0  501 -0.00000000000E+00 -0.00000000000E+00 -0.45935338052E+03  0.45935338053E+03  0.25500000000E-02 0. -1.
    5000001    1    1    2    0    0 -0.11327626647E+03 -0.61473542738E+02 -0.23920624879E+03  0.29993188970E+03  0.12700000000E+03 0.  0.
   -5000001    1    1    2    0    0  0.11327626647E+03  0.61473542738E+02 -0.14665705176E+03  0.23291157084E+03  0.12700000000E+03 0.  0.
<mgrwt>
<rscale>  0 0.36746655E+03</rscale>
<asrwt>0</asrwt>
<pdfrwt beam="1">  1        2 0.10498583E-01 0.36746655E+03</pdfrwt>
<pdfrwt beam="2">  1       -2 0.65621910E-01 0.36746655E+03</pdfrwt>
<totfact> 0.13295186E+03</totfact>
</mgrwt>
</event>
<event>
 4    1  0.1361667E-004  0.2789850E+03  0.7818608E-02  0.1096245E+00
         -2   -1    0    0    0  501 -0.00000000000E+00  0.00000000000E+00  0.28823957148E+02  0.28823957261E+02  0.25500000000E-02 0. -1.
          2   -1    0    0  501    0  0.00000000000E+00 -0.00000000000E+00 -0.67506870024E+03  0.67506870025E+03  0.25500000000E-02 0.  1.
    5000001    1    1    2    0    0 -0.23204690146E+02 -0.15257976146E+02 -0.45072699207E+03  0.46910029297E+03  0.12700000000E+03 0.  0.
   -5000001    1    1    2    0    0  0.23204690146E+02  0.15257976146E+02 -0.19551775102E+03  0.23479236454E+03  0.12700000000E+03 0.  0.
<mgrwt>
<rscale>  0 0.27898496E+03</rscale>
<asrwt>0</asrwt>
<pdfrwt beam="1">  1        2 0.96438376E-01 0.27898496E+03</pdfrwt>
<pdfrwt beam="2">  1       -2 0.41177086E-02 0.27898496E+03</pdfrwt>
<totfact> 0.12554980E+04</totfact>
</mgrwt>
</event>
<event>
 4    1  0.1361667E-004  0.4123325E+03  0.7818608E-02  0.1039591E+00
         -2   -1    0    0    0  501 -0.00000000000E+00  0.00000000000E+00  0.57359170542E+03  0.57359170542E+03  0.25500000000E-02 0. -1.
          2   -1    0    0  501    0  0.00000000000E+00 -0.00000000000E+00 -0.74102384522E+02  0.74102384566E+02  0.25500000000E-02 0.  1.
    5000001    1    1    2    0    0  0.10317025381E+03 -0.45002044309E+02  0.43364451659E+03  0.46566710431E+03  0.12700000000E+03 0.  0.
   -5000001    1    1    2    0    0 -0.10317025381E+03  0.45002044309E+02  0.65844804305E+02  0.18202698568E+03  0.12700000000E+03 0.  0.
<mgrwt>
<rscale>  0 0.41233245E+03</rscale>
<asrwt>0</asrwt>
<pdfrwt beam="1">  1        2 0.10586055E-01 0.41233245E+03</pdfrwt>
<pdfrwt beam="2">  1       -2 0.81941672E-01 0.41233245E+03</pdfrwt>
<totfact> 0.81200774E+02</totfact>
</mgrwt>
</event>
