<event>
 8    1  0.2654897E-009  0.1849190E+04  0.7818608E-02  0.8680569E-01
          2   -1    0    0  501    0  0.00000000000E+00  0.00000000000E+00  0.66464782911E+03  0.66464782912E+03  0.25500000000E-02 0.  1.
         -2   -1    0    0    0  501 -0.00000000000E+00 -0.00000000000E+00 -0.12862093957E+04  0.12862093957E+04  0.25500000000E-02 0. -1.
     200001    2    1    2    0    0 -0.35081873267E+03 -0.39301321942E+03 -0.62118583337E+03  0.10747674377E+04  0.70122751786E+03 0.  0.
    5000001    2    3    3    0    0 -0.15606952144E+03 -0.15863800321E+03 -0.17715371805E+03  0.33990451400E+03  0.18608580610E+03 0.  0.
        -11    1    4    4    0    0 -0.13494931365E+03 -0.38614412881E+02 -0.24843753929E+02  0.14254684228E+03  0.51100000000E-03 0. -1.
     200002    1    4    4    0    0 -0.21120207793E+02 -0.12002359033E+03 -0.15230996413E+03  0.19735767172E+03  0.30000000000E+02 0. -1.
     200000    1    3    3    0    0 -0.19474921123E+03 -0.23437521620E+03 -0.44403211532E+03  0.73486292373E+03  0.50000000000E+03 0. -1.
    -200001    1    1    2    0    0  0.35081873267E+03  0.39301321942E+03 -0.37573319035E+00  0.87608978707E+03  0.70000000000E+03 0.  1.
<mgrwt>
<rscale>  0 0.18491904E+04</rscale>
<asrwt>0</asrwt>
<pdfrwt beam="1">  1        2 0.94949691E-01 0.18491904E+04</pdfrwt>
<pdfrwt beam="2">  1       -2 0.18374420E+00 0.18491904E+04</pdfrwt>
<totfact> 0.77274490E+00</totfact>
</mgrwt>
</event>
<event>
 8    1  0.2654897E-009  0.1728797E+04  0.7818608E-02  0.8745109E-01
          2   -1    0    0  501    0  0.00000000000E+00  0.00000000000E+00  0.21534050934E+04  0.21534050934E+04  0.25500000000E-02 0.  1.
         -2   -1    0    0    0  501 -0.00000000000E+00 -0.00000000000E+00 -0.34697839455E+03  0.34697839456E+03  0.25500000000E-02 0. -1.
     200001    2    1    2    0    0  0.50453262854E+02 -0.48721384262E+03  0.10930450329E+04  0.13873532720E+04  0.70005628158E+03 0.  0.
    5000001    2    3    3    0    0  0.53191075106E+02 -0.16423105855E+03  0.27223254520E+03  0.37342106803E+03  0.18849828730E+03 0.  0.
        -11    1    4    4    0    0  0.45093987308E+01  0.32634988419E+02  0.10124391313E+03  0.10646927769E+03  0.51100000000E-03 0. -1.
     200002    1    4    4    0    0  0.48681676375E+02 -0.19686604697E+03  0.17098863207E+03  0.26695179033E+03  0.30000000000E+02 0. -1.
     200000    1    3    3    0    0 -0.27378122519E+01 -0.32298278407E+03  0.82081248767E+03  0.10139322040E+04  0.50000000000E+03 0.  1.
    -200001    1    1    2    0    0 -0.50453262854E+02  0.48721384262E+03  0.71338166595E+03  0.11130302159E+04  0.70000000000E+03 0. -1.
<mgrwt>
<rscale>  0 0.17287973E+04</rscale>
<asrwt>0</asrwt>
<pdfrwt beam="1">  1        2 0.30762929E+00 0.17287973E+04</pdfrwt>
<pdfrwt beam="2">  1       -2 0.49568343E-01 0.17287973E+04</pdfrwt>
<totfact> 0.24510763E+01</totfact>
</mgrwt>
</event>
<event>
 8    1  0.2654897E-009  0.1589861E+04  0.7818608E-02  0.8826801E-01
          2   -1    0    0  501    0  0.00000000000E+00  0.00000000000E+00  0.77756479043E+03  0.77756479043E+03  0.25500000000E-02 0.  1.
         -2   -1    0    0    0  501 -0.00000000000E+00 -0.00000000000E+00 -0.81268372621E+03  0.81268372621E+03  0.25500000000E-02 0. -1.
     200001    2    1    2    0    0  0.17732189889E+03  0.15146298120E+03 -0.31643791081E+03  0.80061286888E+03  0.69746965806E+03 0.  0.
    5000001    2    3    3    0    0  0.28839004760E+02 -0.59574014618E+01 -0.16950783893E+03  0.23632854981E+03  0.16202190336E+03 0.  0.
        -11    1    4    4    0    0  0.11506680267E+02  0.29772868233E+02 -0.18219255314E+03  0.18496743982E+03  0.51100000000E-03 0. -1.
     200002    1    4    4    0    0  0.17332324492E+02 -0.35730269694E+02  0.12684714210E+02  0.51361109989E+02  0.30000000000E+02 0. -1.
     200000    1    3    3    0    0  0.14848289413E+03  0.15742038266E+03 -0.14693007189E+03  0.56428431907E+03  0.50000000000E+03 0. -1.
    -200001    1    1    2    0    0 -0.17732189889E+03 -0.15146298120E+03  0.28131897503E+03  0.78963564776E+03  0.70000000000E+03 0.  1.
<mgrwt>
<rscale>  0 0.15898607E+04</rscale>
<asrwt>0</asrwt>
<pdfrwt beam="1">  1        2 0.11108068E+00 0.15898607E+04</pdfrwt>
<pdfrwt beam="2">  1       -2 0.11609768E+00 0.15898607E+04</pdfrwt>
<totfact> 0.21850164E+01</totfact>
</mgrwt>
</event>
<event>
 8    1  0.2654897E-009  0.2124792E+04  0.7818608E-02  0.8550400E-01
          2   -1    0    0  501    0  0.00000000000E+00  0.00000000000E+00  0.73211547410E+03  0.73211547411E+03  0.25500000000E-02 0.  1.
         -2   -1    0    0    0  501 -0.00000000000E+00 -0.00000000000E+00 -0.15416758351E+04  0.15416758351E+04  0.25500000000E-02 0. -1.
     200001    2    1    2    0    0  0.67363921614E+03 -0.26284707010E+03 -0.76798015886E+03  0.12665141433E+04  0.70098942569E+03 0.  0.
    5000001    2    3    3    0    0  0.96203293876E+02 -0.58245384294E+02 -0.45983116656E+02  0.19573226861E+03  0.15345708004E+03 0.  0.
        -11    1    4    4    0    0  0.11579371454E+03 -0.37946253633E+02 -0.77030745432E+02  0.14415907267E+03  0.51100000000E-03 0. -1.
     200002    1    4    4    0    0 -0.19590420660E+02 -0.20299130661E+02  0.31047628776E+02  0.51573195944E+02  0.30000000000E+02 0. -1.
     200000    1    3    3    0    0  0.57743592226E+03 -0.20460168580E+03 -0.72199704220E+03  0.10707818747E+04  0.50000000000E+03 0. -1.
    -200001    1    1    2    0    0 -0.67363921614E+03  0.26284707010E+03 -0.41580202127E+02  0.10072771659E+04  0.70000000000E+03 0.  1.
<mgrwt>
<rscale>  0 0.21247915E+04</rscale>
<asrwt>0</asrwt>
<pdfrwt beam="1">  1        2 0.10458793E+00 0.21247915E+04</pdfrwt>
<pdfrwt beam="2">  1       -2 0.22023940E+00 0.21247915E+04</pdfrwt>
<totfact> 0.38685119E+00</totfact>
</mgrwt>
</event>
<event>
 8    1  0.2654897E-009  0.2890706E+04  0.7818608E-02  0.8275648E-01
          2   -1    0    0  501    0  0.00000000000E+00  0.00000000000E+00  0.32079073750E+04  0.32079073750E+04  0.25500000000E-02 0.  1.
         -2   -1    0    0    0  501 -0.00000000000E+00 -0.00000000000E+00 -0.65121760449E+03  0.65121760449E+03  0.25500000000E-02 0. -1.
     200001    2    1    2    0    0 -0.10935475946E+04 -0.10262226351E+03  0.21198708874E+04  0.24853752180E+04  0.69055030535E+03 0.  0.
    5000001    2    3    3    0    0 -0.24602985565E+03  0.42378992249E+02  0.43013299521E+03  0.52462897577E+03  0.16701646562E+03 0.  0.
        -11    1    4    4    0    0 -0.12169406459E+03 -0.60538202063E+02  0.20612255162E+03  0.24690246162E+03  0.51100000000E-03 0. -1.
     200002    1    4    4    0    0 -0.12433579106E+03  0.10291719431E+03  0.22401044360E+03  0.27772651415E+03  0.30000000000E+02 0. -1.
     200000    1    3    3    0    0 -0.84751773892E+03 -0.14500125576E+03  0.16897378922E+04  0.19607462422E+04  0.50000000000E+03 0.  1.
    -200001    1    1    2    0    0  0.10935475946E+04  0.10262226351E+03  0.43681888303E+03  0.13737497615E+04  0.70000000000E+03 0. -1.
<mgrwt>
<rscale>  0 0.28907063E+04</rscale>
<asrwt>0</asrwt>
<pdfrwt beam="1">  1        2 0.45827249E+00 0.28907063E+04</pdfrwt>
<pdfrwt beam="2">  1       -2 0.93031084E-01 0.28907063E+04</pdfrwt>
<totfact> 0.15264971E+00</totfact>
</mgrwt>
</event>
<event>
 8    1  0.2654897E-009  0.1545565E+04  0.7818608E-02  0.8854706E-01
          2   -1    0    0  501    0  0.00000000000E+00  0.00000000000E+00  0.33260456375E+04  0.33260456375E+04  0.25500000000E-02 0.  1.
         -2   -1    0    0    0  501 -0.00000000000E+00 -0.00000000000E+00 -0.17955032302E+03  0.17955032304E+03  0.25500000000E-02 0. -1.
     200001    2    1    2    0    0  0.21276591938E+03  0.22100036442E+03  0.18239821554E+04  0.19781302315E+04  0.70141130011E+03 0.  0.
    5000001    2    3    3    0    0  0.28167930218E+02  0.13509304046E+03  0.58338399948E+03  0.62515563069E+03  0.17731077195E+03 0.  0.
        -11    1    4    4    0    0  0.18215099852E+02 -0.30119290264E+02  0.28359968957E+02  0.45202315738E+02  0.51100000000E-03 0. -1.
     200002    1    4    4    0    0  0.99528303665E+01  0.16521233073E+03  0.55502403053E+03  0.57995331495E+03  0.30000000000E+02 0. -1.
     200000    1    3    3    0    0  0.18459798916E+03  0.85907323956E+02  0.12405981560E+04  0.13529746008E+04  0.50000000000E+03 0.  1.
    -200001    1    1    2    0    0 -0.21276591938E+03 -0.22100036442E+03  0.13225131590E+04  0.15274657290E+04  0.70000000000E+03 0. -1.
<mgrwt>
<rscale>  0 0.15455647E+04</rscale>
<asrwt>0</asrwt>
<pdfrwt beam="1">  1        2 0.47514936E+00 0.15455647E+04</pdfrwt>
<pdfrwt beam="2">  1       -2 0.25650047E-01 0.15455647E+04</pdfrwt>
<totfact> 0.20359733E+01</totfact>
</mgrwt>
</event>
<event>
 8    1  0.2654897E-009  0.1539730E+04  0.7818608E-02  0.8858454E-01
         -2   -1    0    0    0  501 -0.00000000000E+00  0.00000000000E+00  0.47956878165E+03  0.47956878166E+03  0.25500000000E-02 0. -1.
          2   -1    0    0  501    0  0.00000000000E+00 -0.00000000000E+00 -0.12358860526E+04  0.12358860526E+04  0.25500000000E-02 0.  1.
     200001    2    1    2    0    0 -0.28223470958E+03 -0.87353421460E+02 -0.51682143025E+03  0.91880854560E+03  0.69986977443E+03 0.  0.
    5000001    2    3    3    0    0 -0.17272858186E+03 -0.95322574478E+02 -0.93693944462E+02  0.25466099525E+03  0.13096606841E+03 0.  0.
        -11    1    4    4    0    0 -0.91085259341E+01 -0.15036096133E+02 -0.65493151983E+02  0.67811521060E+02  0.51100000000E-03 0. -1.
     200002    1    4    4    0    0 -0.16362005593E+03 -0.80286478346E+02 -0.28200792479E+02  0.18684947419E+03  0.30000000000E+02 0. -1.
     200000    1    3    3    0    0 -0.10950612772E+03  0.79691530177E+01 -0.42312748579E+03  0.66414755035E+03  0.50000000000E+03 0.  1.
    -200001    1    1    2    0    0  0.28223470958E+03  0.87353421460E+02 -0.23949584071E+03  0.79664628867E+03  0.70000000000E+03 0. -1.
<mgrwt>
<rscale>  0 0.15397303E+04</rscale>
<asrwt>0</asrwt>
<pdfrwt beam="1">  1        2 0.17655515E+00 0.15397303E+04</pdfrwt>
<pdfrwt beam="2">  1       -2 0.68509826E-01 0.15397303E+04</pdfrwt>
<totfact> 0.38344411E+01</totfact>
</mgrwt>
</event>
<event>
 8    1  0.2654897E-009  0.1423172E+04  0.7818608E-02  0.8937214E-01
          2   -1    0    0  501    0  0.00000000000E+00  0.00000000000E+00  0.51247786137E+03  0.51247786137E+03  0.25500000000E-02 0. -1.
         -2   -1    0    0    0  501 -0.00000000000E+00 -0.00000000000E+00 -0.98805128315E+03  0.98805128315E+03  0.25500000000E-02 0.  1.
     200001    2    1    2    0    0  0.22965743925E+02  0.10093541876E+03 -0.15527464930E+03  0.72380095023E+03  0.69932983255E+03 0.  0.
    5000001    2    3    3    0    0 -0.41544348104E+01 -0.61866446299E+02  0.60581490954E+02  0.15473696029E+03  0.12817446442E+03 0.  0.
        -11    1    4    4    0    0  0.28389931996E+02 -0.86853704161E+02  0.35170604955E+02  0.97910804401E+02  0.51100000000E-03 0. -1.
     200002    1    4    4    0    0 -0.32544366806E+02  0.24987257862E+02  0.25410885999E+02  0.56826155893E+02  0.30000000000E+02 0. -1.
     200000    1    3    3    0    0  0.27120178735E+02  0.16280186505E+03 -0.21585614026E+03  0.56906398994E+03  0.50000000000E+03 0. -1.
    -200001    1    1    2    0    0 -0.22965743925E+02 -0.10093541876E+03 -0.32029877248E+03  0.77672819429E+03  0.70000000000E+03 0.  1.
<mgrwt>
<rscale>  0 0.14231717E+04</rscale>
<asrwt>0</asrwt>
<pdfrwt beam="1">  1        2 0.73211123E-01 0.14231717E+04</pdfrwt>
<pdfrwt beam="2">  1       -2 0.14115018E+00 0.14231717E+04</pdfrwt>
<totfact> 0.22320689E+01</totfact>
</mgrwt>
</event>
<event>
 8    1  0.2654897E-009  0.1852291E+04  0.7818608E-02  0.8678975E-01
         -2   -1    0    0    0  501 -0.00000000000E+00  0.00000000000E+00  0.43704216542E+03  0.43704216543E+03  0.25500000000E-02 0. -1.
          2   -1    0    0  501    0  0.00000000000E+00 -0.00000000000E+00 -0.19626155264E+04  0.19626155264E+04  0.25500000000E-02 0.  1.
     200001    2    1    2    0    0 -0.33199077671E+03  0.42889026048E+03 -0.11143279878E+04  0.14232932679E+04  0.69990865886E+03 0.  0.
    5000001    2    3    3    0    0  0.19551195581E+02  0.21948771800E+02 -0.29476955112E+03  0.32290280784E+03  0.12850345215E+03 0.  0.
        -11    1    4    4    0    0 -0.32053221003E+02  0.20855712667E+02 -0.22938644177E+02  0.44593173519E+02  0.51100000000E-03 0. -1.
     200002    1    4    4    0    0  0.51604416584E+02  0.10930591331E+01 -0.27183090694E+03  0.27830963432E+03  0.30000000000E+02 0. -1.
     200000    1    3    3    0    0 -0.35154197229E+03  0.40694148868E+03 -0.81955843669E+03  0.11003904601E+04  0.50000000000E+03 0. -1.
    -200001    1    1    2    0    0  0.33199077671E+03 -0.42889026048E+03 -0.41124537322E+03  0.97636442395E+03  0.70000000000E+03 0.  1.
<mgrwt>
<rscale>  0 0.18522913E+04</rscale>
<asrwt>0</asrwt>
<pdfrwt beam="1">  1        2 0.28037364E+00 0.18522913E+04</pdfrwt>
<pdfrwt beam="2">  1       -2 0.62434596E-01 0.18522913E+04</pdfrwt>
<totfact> 0.18822720E+01</totfact>
</mgrwt>
</event>
<event>
 8    1  0.2654897E-009  0.1883657E+04  0.7818608E-02  0.8663035E-01
          2   -1    0    0  501    0  0.00000000000E+00  0.00000000000E+00  0.17254657109E+04  0.17254657109E+04  0.25500000000E-02 0.  1.
         -2   -1    0    0    0  501 -0.00000000000E+00 -0.00000000000E+00 -0.51408762171E+03  0.51408762172E+03  0.25500000000E-02 0. -1.
     200001    2    1    2    0    0 -0.55616876289E+03 -0.29302798505E+03  0.55548197641E+03  0.10926493246E+04  0.70009515612E+03 0.  0.
    5000001    2    3    3    0    0 -0.28246342987E+03 -0.38629624624E+02  0.18240964408E+03  0.36545189594E+03  0.13785489792E+03 0.  0.
        -11    1    4    4    0    0 -0.43149473810E+02  0.44025533613E+02  0.38604850853E+02  0.72735542960E+02  0.51100000000E-03 0. -1.
     200002    1    4    4    0    0 -0.23931395606E+03 -0.82655158237E+02  0.14380479323E+03  0.29271635298E+03  0.30000000000E+02 0. -1.
     200000    1    3    3    0    0 -0.27370533302E+03 -0.25439836042E+03  0.37307233232E+03  0.72719742866E+03  0.50000000000E+03 0.  1.
    -200001    1    1    2    0    0  0.55616876289E+03  0.29302798505E+03  0.65589611278E+03  0.11469040080E+04  0.70000000000E+03 0. -1.
<mgrwt>
<rscale>  0 0.18836566E+04</rscale>
<asrwt>0</asrwt>
<pdfrwt beam="1">  1        2 0.24649511E+00 0.18836566E+04</pdfrwt>
<pdfrwt beam="2">  1       -2 0.73441087E-01 0.18836566E+04</pdfrwt>
<totfact> 0.17511296E+01</totfact>
</mgrwt>
</event>
<event>
 8    1  0.2654897E-009  0.2848567E+04  0.7818608E-02  0.8288347E-01
         -2   -1    0    0    0  501 -0.00000000000E+00  0.00000000000E+00  0.63176738903E+03  0.63176738903E+03  0.25500000000E-02 0. -1.
          2   -1    0    0  501    0  0.00000000000E+00 -0.00000000000E+00 -0.32109667386E+04  0.32109667386E+04  0.25500000000E-02 0.  1.
     200001    2    1    2    0    0  0.29470612328E+03 -0.62776038031E+03  0.95887778935E+02  0.99194021378E+03  0.70272051867E+03 0.  0.
    5000001    2    3    3    0    0  0.57828412926E+02 -0.12916813304E+03  0.11614584709E+03  0.24687936524E+03  0.16562316036E+03 0.  0.
        -11    1    4    4    0    0  0.11139773132E+03 -0.98453095268E+02  0.71337832340E+02  0.16489861381E+03  0.51100000000E-03 0. -1.
     200002    1    4    4    0    0 -0.53569318398E+02 -0.30715037774E+02  0.44808014751E+02  0.81980751430E+02  0.30000000000E+02 0. -1.
     200000    1    3    3    0    0  0.23687771036E+03 -0.49859224727E+03 -0.20258068156E+02  0.74506084854E+03  0.50000000000E+03 0. -1.
    -200001    1    1    2    0    0 -0.29470612328E+03  0.62776038031E+03 -0.26750871285E+04  0.28507939139E+04  0.70000000000E+03 0.  1.
<mgrwt>
<rscale>  0 0.28485674E+04</rscale>
<asrwt>0</asrwt>
<pdfrwt beam="1">  1        2 0.45870953E+00 0.28485674E+04</pdfrwt>
<pdfrwt beam="2">  1       -2 0.90252486E-01 0.28485674E+04</pdfrwt>
<totfact> 0.16364671E+00</totfact>
</mgrwt>
</event>
<event>
 8    1  0.2654897E-009  0.2502948E+04  0.7818608E-02  0.8401936E-01
         -2   -1    0    0    0  501 -0.00000000000E+00  0.00000000000E+00  0.54828949185E+03  0.54828949186E+03  0.25500000000E-02 0. -1.
          2   -1    0    0  501    0  0.00000000000E+00 -0.00000000000E+00 -0.28564974631E+04  0.28564974631E+04  0.25500000000E-02 0.  1.
     200001    2    1    2    0    0 -0.88897416424E+03  0.16962962779E+03 -0.46491468800E+03  0.12352756267E+04  0.70050762416E+03 0.  0.
    5000001    2    3    3    0    0 -0.22818611617E+03  0.28035298324E+02 -0.24333712816E+03  0.36591585444E+03  0.14773819081E+03 0.  0.
        -11    1    4    4    0    0 -0.43008325728E+01  0.46277481078E+02 -0.46517091699E+02  0.65756689669E+02  0.51100000000E-03 0. -1.
     200002    1    4    4    0    0 -0.22388528359E+03 -0.18242182755E+02 -0.19682003646E+03  0.30015916477E+03  0.30000000000E+02 0. -1.
     200000    1    3    3    0    0 -0.66078804807E+03  0.14159432947E+03 -0.22157755984E+03  0.86935977227E+03  0.50000000000E+03 0. -1.
    -200001    1    1    2    0    0  0.88897416424E+03 -0.16962962779E+03 -0.18432932832E+04  0.21695113282E+04  0.70000000000E+03 0.  1.
<mgrwt>
<rscale>  0 0.25029483E+04</rscale>
<asrwt>0</asrwt>
<pdfrwt beam="1">  1        2 0.40807106E+00 0.25029483E+04</pdfrwt>
<pdfrwt beam="2">  1       -2 0.78327071E-01 0.25029483E+04</pdfrwt>
<totfact> 0.36813815E+00</totfact>
</mgrwt>
</event>
<event>
 8    1  0.2654897E-009  0.1709635E+04  0.7818608E-02  0.8755888E-01
         -2   -1    0    0    0  501 -0.00000000000E+00  0.00000000000E+00  0.40511540731E+03  0.40511540732E+03  0.25500000000E-02 0. -1.
          2   -1    0    0  501    0  0.00000000000E+00 -0.00000000000E+00 -0.18037146156E+04  0.18037146156E+04  0.25500000000E-02 0.  1.
     200001    2    1    2    0    0 -0.44369753157E+03 -0.15617800598E+03 -0.88053338426E+03  0.12190566817E+04  0.69964354012E+03 0.  0.
    5000001    2    3    3    0    0 -0.16775886198E+03 -0.24413722933E+02 -0.32387887098E+03  0.41074472281E+03  0.18728224318E+03 0.  0.
        -11    1    4    4    0    0 -0.14610756546E+03 -0.92825719025E+02 -0.20036131912E+03  0.26478046189E+03  0.51100000000E-03 0. -1.
     200002    1    4    4    0    0 -0.21651296526E+02  0.68411996092E+02 -0.12351755186E+03  0.14596426093E+03  0.30000000000E+02 0. -1.
     200000    1    3    3    0    0 -0.27593866959E+03 -0.13176428305E+03 -0.55665451328E+03  0.80831195885E+03  0.50000000000E+03 0.  1.
    -200001    1    1    2    0    0  0.44369753157E+03  0.15617800598E+03 -0.51806582406E+03  0.98977334129E+03  0.70000000000E+03 0.  1.
<mgrwt>
<rscale>  0 0.17096346E+04</rscale>
<asrwt>0</asrwt>
<pdfrwt beam="1">  1        2 0.25767351E+00 0.17096346E+04</pdfrwt>
<pdfrwt beam="2">  1       -2 0.57873631E-01 0.17096346E+04</pdfrwt>
<totfact> 0.26988640E+01</totfact>
</mgrwt>
</event>
<event>
 8    1  0.2654897E-009  0.2033012E+04  0.7818608E-02  0.8591340E-01
          2   -1    0    0  501    0  0.00000000000E+00  0.00000000000E+00  0.16257159279E+04  0.16257159279E+04  0.25500000000E-02 0.  1.
         -2   -1    0    0    0  501 -0.00000000000E+00 -0.00000000000E+00 -0.63558750784E+03  0.63558750784E+03  0.25500000000E-02 0. -1.
     200001    2    1    2    0    0 -0.24763998387E+01  0.55586209859E+03 -0.43214950931E+02  0.89499917695E+03  0.70011941092E+03 0.  0.
    5000001    2    3    3    0    0 -0.35996736755E+02  0.20788186338E+03  0.87658292994E+02  0.27102669113E+03  0.14581103111E+03 0.  0.
        -11    1    4    4    0    0 -0.47349684956E+02  0.12298519256E+03  0.11639958822E+03  0.17583007249E+03  0.51100000000E-03 0. -1.
     200002    1    4    4    0    0  0.11352948200E+02  0.84896670820E+02 -0.28741295224E+02  0.95196618639E+02  0.30000000000E+02 0. -1.
     200000    1    3    3    0    0  0.33520336917E+02  0.34798023521E+03 -0.13087324392E+03  0.62397248582E+03  0.50000000000E+03 0. -1.
    -200001    1    1    2    0    0  0.24763998387E+01 -0.55586209859E+03  0.10333433710E+04  0.13663042588E+04  0.70000000000E+03 0.  1.
<mgrwt>
<rscale>  0 0.20330123E+04</rscale>
<asrwt>0</asrwt>
<pdfrwt beam="1">  1        2 0.23224513E+00 0.20330123E+04</pdfrwt>
<pdfrwt beam="2">  1       -2 0.90798217E-01 0.20330123E+04</pdfrwt>
<totfact> 0.12085396E+01</totfact>
</mgrwt>
</event>
<event>
 8    1  0.2654897E-009  0.1439595E+04  0.7818608E-02  0.8925646E-01
          2   -1    0    0  501    0  0.00000000000E+00  0.00000000000E+00  0.39812805004E+04  0.39812805004E+04  0.25500000000E-02 0.  1.
         -2   -1    0    0    0  501 -0.00000000000E+00 -0.00000000000E+00 -0.13013611464E+03  0.13013611466E+03  0.25500000000E-02 0. -1.
     200001    2    1    2    0    0 -0.12248826517E+03  0.34769479159E+02  0.22068508578E+04  0.23197934689E+04  0.70358989331E+03 0.  0.
    5000001    2    3    3    0    0  0.40632755664E+02 -0.10155457924E+03  0.75418098346E+03  0.76884457220E+03  0.10182665168E+03 0.  0.
        -11    1    4    4    0    0  0.64102577692E+00 -0.99336882552E+02  0.49107379068E+03  0.50102065331E+03  0.51100000000E-03 0. -1.
     200002    1    4    4    0    0  0.39991729887E+02 -0.22176966921E+01  0.26310719277E+03  0.26782391889E+03  0.30000000000E+02 0. -1.
     200000    1    3    3    0    0 -0.16312102084E+03  0.13632405840E+03  0.14526698744E+04  0.15509488967E+04  0.50000000000E+03 0. -1.
    -200001    1    1    2    0    0  0.12248826517E+03 -0.34769479159E+02  0.16442935280E+04  0.17916231462E+04  0.70000000000E+03 0. -1.
<mgrwt>
<rscale>  0 0.14395949E+04</rscale>
<asrwt>0</asrwt>
<pdfrwt beam="1">  1        2 0.56875435E+00 0.14395949E+04</pdfrwt>
<pdfrwt beam="2">  1       -2 0.18590874E-01 0.14395949E+04</pdfrwt>
<totfact> 0.14129277E+01</totfact>
</mgrwt>
</event>
<event>
 8    1  0.2654897E-009  0.1469328E+04  0.7818608E-02  0.8905109E-01
         -2   -1    0    0    0  501 -0.00000000000E+00  0.00000000000E+00  0.99239606388E+03  0.99239606388E+03  0.25500000000E-02 0. -1.
          2   -1    0    0  501    0  0.00000000000E+00 -0.00000000000E+00 -0.54386701248E+03  0.54386701249E+03  0.25500000000E-02 0.  1.
     200001    2    1    2    0    0 -0.61675317490E+02  0.31320624145E+02  0.47492215938E+01  0.70456279164E+03  0.70114288556E+03 0.  0.
    5000001    2    3    3    0    0 -0.14533412379E+03 -0.52615987380E+02  0.21432732879E+02  0.19043976144E+03  0.10916726173E+03 0.  0.
        -11    1    4    4    0    0 -0.88819585049E+02 -0.72761968077E+02 -0.12083836337E+02  0.11545233557E+03  0.51100000000E-03 0. -1.
     200002    1    4    4    0    0 -0.56514538745E+02  0.20145980697E+02  0.33516569217E+02  0.74987425879E+02  0.30000000000E+02 0. -1.
     200000    1    3    3    0    0  0.83658806304E+02  0.83936611526E+02 -0.16683511286E+02  0.51412303019E+03  0.50000000000E+03 0.  1.
    -200001    1    1    2    0    0  0.61675317490E+02 -0.31320624145E+02  0.44377982981E+03  0.83170028473E+03  0.70000000000E+03 0. -1.
<mgrwt>
<rscale>  0 0.14693284E+04</rscale>
<asrwt>0</asrwt>
<pdfrwt beam="1">  1        2 0.77695287E-01 0.14693284E+04</pdfrwt>
<pdfrwt beam="2">  1       -2 0.14177087E+00 0.14693284E+04</pdfrwt>
<totfact> 0.20530621E+01</totfact>
</mgrwt>
</event>
<event>
 8    1  0.2654897E-009  0.1545505E+04  0.7818608E-02  0.8854744E-01
         -2   -1    0    0    0  501 -0.00000000000E+00  0.00000000000E+00  0.19717969691E+03  0.19717969693E+03  0.25500000000E-02 0. -1.
          2   -1    0    0  501    0  0.00000000000E+00 -0.00000000000E+00 -0.30284379600E+04  0.30284379600E+04  0.25500000000E-02 0.  1.
     200001    2    1    2    0    0  0.11999600350E+03 -0.30041300683E+03 -0.15183182875E+04  0.17029691765E+04  0.70011897440E+03 0.  0.
    5000001    2    3    3    0    0  0.91817419384E+02 -0.10526121719E+03 -0.44306188309E+03  0.50086494271E+03  0.18722044824E+03 0.  0.
        -11    1    4    4    0    0 -0.68884334720E+01 -0.63067245031E+02 -0.34988120126E+03  0.35558653364E+03  0.51100000000E-03 0. -1.
     200002    1    4    4    0    0  0.98705852856E+02 -0.42193972163E+02 -0.93180681839E+02  0.14527840907E+03  0.30000000000E+02 0. -1.
     200000    1    3    3    0    0  0.28178584111E+02 -0.19515178964E+03 -0.10752564044E+04  0.12021042338E+04  0.50000000000E+03 0.  1.
    -200001    1    1    2    0    0 -0.11999600350E+03  0.30041300683E+03 -0.13129399755E+04  0.15226484804E+04  0.70000000000E+03 0. -1.
<mgrwt>
<rscale>  0 0.15455051E+04</rscale>
<asrwt>0</asrwt>
<pdfrwt beam="1">  1        2 0.43263397E+00 0.15455051E+04</pdfrwt>
<pdfrwt beam="2">  1       -2 0.28168530E-01 0.15455051E+04</pdfrwt>
<totfact> 0.25394645E+01</totfact>
</mgrwt>
</event>
<event>
 8    1  0.2654897E-009  0.2505734E+04  0.7818608E-02  0.8400945E-01
          2   -1    0    0  501    0  0.00000000000E+00  0.00000000000E+00  0.11402007247E+04  0.11402007247E+04  0.25500000000E-02 0.  1.
         -2   -1    0    0    0  501 -0.00000000000E+00 -0.00000000000E+00 -0.13766665191E+04  0.13766665191E+04  0.25500000000E-02 0. -1.
     200001    2    1    2    0    0 -0.39533257899E+03 -0.87482780712E+03  0.28259115421E+03  0.12203211952E+04  0.69836560552E+03 0.  0.
    5000001    2    3    3    0    0 -0.84186787831E+02 -0.27025584870E+03 -0.20082281631E+02  0.32369966692E+03  0.15573226169E+03 0.  0.
        -11    1    4    4    0    0 -0.80762023277E+02 -0.88264652029E+02 -0.61661304693E+02  0.13459297789E+03  0.51100000000E-03 0. -1.
     200002    1    4    4    0    0 -0.34247645540E+01 -0.18199119667E+03  0.41579023062E+02  0.18910668903E+03  0.30000000000E+02 0. -1.
     200000    1    3    3    0    0 -0.31114579116E+03 -0.60457195842E+03  0.30267343584E+03  0.89662152831E+03  0.50000000000E+03 0.  1.
    -200001    1    1    2    0    0  0.39533257899E+03  0.87482780712E+03 -0.51905694863E+03  0.12965460486E+04  0.70000000000E+03 0. -1.
<mgrwt>
<rscale>  0 0.25057344E+04</rscale>
<asrwt>0</asrwt>
<pdfrwt beam="1">  1        2 0.16288582E+00 0.25057344E+04</pdfrwt>
<pdfrwt beam="2">  1       -2 0.19666665E+00 0.25057344E+04</pdfrwt>
<totfact> 0.29018293E+00</totfact>
</mgrwt>
</event>
<event>
 8    1  0.2654897E-009  0.1757886E+04  0.7818608E-02  0.8729021E-01
          2   -1    0    0  501    0  0.00000000000E+00  0.00000000000E+00  0.40514834627E+03  0.40514834628E+03  0.25500000000E-02 0.  1.
         -2   -1    0    0    0  501 -0.00000000000E+00 -0.00000000000E+00 -0.19068096887E+04  0.19068096887E+04  0.25500000000E-02 0. -1.
     200001    2    1    2    0    0  0.94254497346E+02  0.52188124061E+03 -0.70295546055E+03  0.11248712541E+04  0.69996072694E+03 0.  0.
    5000001    2    3    3    0    0 -0.10520480235E+02  0.18838067985E+03 -0.26713748257E+03  0.37511280643E+03  0.18370961300E+03 0.  0.
        -11    1    4    4    0    0  0.59005266842E+02  0.14867766621E+03 -0.23393200154E+03  0.28339169234E+03  0.51100000000E-03 0. -1.
     200002    1    4    4    0    0 -0.69525747077E+02  0.39703013640E+02 -0.33205481027E+02  0.91721114085E+02  0.30000000000E+02 0.  1.
     200000    1    3    3    0    0  0.10477497758E+03  0.33350056076E+03 -0.43581797798E+03  0.74975844769E+03  0.50000000000E+03 0. -1.
    -200001    1    1    2    0    0 -0.94254497346E+02 -0.52188124061E+03 -0.79870588190E+03  0.11870867809E+04  0.70000000000E+03 0.  1.
<mgrwt>
<rscale>  0 0.17578860E+04</rscale>
<asrwt>0</asrwt>
<pdfrwt beam="1">  1        2 0.57878336E-01 0.17578860E+04</pdfrwt>
<pdfrwt beam="2">  1       -2 0.27240138E+00 0.17578860E+04</pdfrwt>
<totfact> 0.37966715E+00</totfact>
</mgrwt>
</event>
<event>
 8    1  0.2654897E-009  0.1693363E+04  0.7818608E-02  0.8765159E-01
         -2   -1    0    0    0  501 -0.00000000000E+00  0.00000000000E+00  0.52297945149E+03  0.52297945149E+03  0.25500000000E-02 0. -1.
          2   -1    0    0  501    0  0.00000000000E+00 -0.00000000000E+00 -0.13707405963E+04  0.13707405963E+04  0.25500000000E-02 0.  1.
     200001    2    1    2    0    0 -0.23814945549E+03  0.29755513390E+03 -0.10406640100E+03  0.80361175372E+03  0.69979126462E+03 0.  0.
    5000001    2    3    3    0    0 -0.86522833157E+02  0.64321528492E+02  0.21191818109E+02  0.21788300357E+03  0.18815007416E+03 0.  0.
        -11    1    4    4    0    0 -0.13829389590E+03  0.28857529537E+02  0.38063762098E+02  0.14631065798E+03  0.51100000000E-03 0. -1.
     200002    1    4    4    0    0  0.51771062742E+02  0.35463998956E+02 -0.16871943989E+02  0.71572345591E+02  0.30000000000E+02 0. -1.
     200000    1    3    3    0    0 -0.15162662234E+03  0.23323360541E+03 -0.12525821911E+03  0.58572875015E+03  0.50000000000E+03 0.  1.
    -200001    1    1    2    0    0  0.23814945549E+03 -0.29755513390E+03 -0.74369474383E+03  0.10901082941E+04  0.70000000000E+03 0. -1.
<mgrwt>
<rscale>  0 0.16933625E+04</rscale>
<asrwt>0</asrwt>
<pdfrwt beam="1">  1        2 0.19582008E+00 0.16933625E+04</pdfrwt>
<pdfrwt beam="2">  1       -2 0.74711351E-01 0.16933625E+04</pdfrwt>
<totfact> 0.26385785E+01</totfact>
</mgrwt>
</event>
<event>
 8    1  0.2654897E-009  0.1463691E+04  0.7818608E-02  0.8908963E-01
         -2   -1    0    0    0  501 -0.00000000000E+00  0.00000000000E+00  0.93031391917E+03  0.93031391917E+03  0.25500000000E-02 0. -1.
          2   -1    0    0  501    0  0.00000000000E+00 -0.00000000000E+00 -0.57571748066E+03  0.57571748066E+03  0.25500000000E-02 0.  1.
     200001    2    1    2    0    0 -0.13799711436E+03 -0.15475318645E+03  0.14628653609E+03  0.74683131571E+03  0.70239982289E+03 0.  0.
    5000001    2    3    3    0    0 -0.17558483710E+02 -0.20815422738E+02  0.75878072877E+02  0.21073231366E+03  0.19470244966E+03 0.  0.
        -11    1    4    4    0    0  0.18151467284E+02 -0.19016434290E+02  0.13379286517E+03  0.13635113240E+03  0.51100000000E-03 0. -1.
     200002    1    4    4    0    0 -0.35709950994E+02 -0.17989884484E+01 -0.57914792290E+02  0.74381181258E+02  0.30000000000E+02 0. -1.
     200000    1    3    3    0    0 -0.12043863065E+03 -0.13393776372E+03  0.70408463214E+02  0.53609900205E+03  0.50000000000E+03 0. -1.
    -200001    1    1    2    0    0  0.13799711436E+03  0.15475318645E+03  0.20830990242E+03  0.75920008413E+03  0.70000000000E+03 0. -1.
<mgrwt>
<rscale>  0 0.14636912E+04</rscale>
<asrwt>0</asrwt>
<pdfrwt beam="1">  1        2 0.82245355E-01 0.14636912E+04</pdfrwt>
<pdfrwt beam="2">  1       -2 0.13290199E+00 0.14636912E+04</pdfrwt>
<totfact> 0.22700870E+01</totfact>
</mgrwt>
</event>
<event>
 8    1  0.2654897E-009  0.1508151E+04  0.7818608E-02  0.8879051E-01
          2   -1    0    0  501    0  0.00000000000E+00  0.00000000000E+00  0.22469754927E+04  0.22469754927E+04  0.25500000000E-02 0.  1.
         -2   -1    0    0    0  501 -0.00000000000E+00 -0.00000000000E+00 -0.25306461170E+03  0.25306461171E+03  0.25500000000E-02 0. -1.
     200001    2    1    2    0    0 -0.92272465605E+02  0.20596594497E+03  0.12719171207E+04  0.14694038115E+04  0.70031294496E+03 0.  0.
    5000001    2    3    3    0    0 -0.35178881976E+01  0.83910074291E+02  0.32447616173E+03  0.38754458714E+03  0.19455783557E+03 0.  0.
        -11    1    4    4    0    0 -0.20218444761E+02  0.12411101402E+03  0.30717629238E+03  0.33191806806E+03  0.51100000000E-03 0. -1.
     200002    1    4    4    0    0  0.16700556564E+02 -0.40200939727E+02  0.17299869354E+02  0.55626519073E+02  0.30000000000E+02 0. -1.
     200000    1    3    3    0    0 -0.88754577408E+02  0.12205587068E+03  0.94744095897E+03  0.10818592244E+04  0.50000000000E+03 0.  1.
    -200001    1    1    2    0    0  0.92272465605E+02 -0.20596594497E+03  0.72199376032E+03  0.10306362929E+04  0.70000000000E+03 0. -1.
<mgrwt>
<rscale>  0 0.15081512E+04</rscale>
<asrwt>0</asrwt>
<pdfrwt beam="1">  1        2 0.32099649E+00 0.15081512E+04</pdfrwt>
<pdfrwt beam="2">  1       -2 0.36152088E-01 0.15081512E+04</pdfrwt>
<totfact> 0.41647024E+01</totfact>
</mgrwt>
</event>
<event>
 8    1  0.2654897E-009  0.1584373E+04  0.7818608E-02  0.8830206E-01
          2   -1    0    0  501    0  0.00000000000E+00  0.00000000000E+00  0.16144239275E+04  0.16144239275E+04  0.25500000000E-02 0.  1.
         -2   -1    0    0    0  501 -0.00000000000E+00 -0.00000000000E+00 -0.38872042787E+03  0.38872042788E+03  0.25500000000E-02 0. -1.
     200001    2    1    2    0    0  0.18636524337E+03 -0.24468547469E+03  0.36017684961E+03  0.84826801249E+03  0.70372457152E+03 0.  0.
    5000001    2    3    3    0    0  0.13004481706E+03 -0.57050946231E+02  0.55012073939E+02  0.23060771184E+03  0.17316790572E+03 0.  0.
        -11    1    4    4    0    0  0.64033673688E+02  0.28743994311E+02  0.88907426508E+02  0.11327426479E+03  0.51100000000E-03 0. -1.
     200002    1    4    4    0    0  0.66011143368E+02 -0.85794940542E+02 -0.33895352569E+02  0.11733344705E+03  0.30000000000E+02 0. -1.
     200000    1    3    3    0    0  0.56320426311E+02 -0.18763452846E+03  0.30516477567E+03  0.61766030065E+03  0.50000000000E+03 0.  1.
    -200001    1    1    2    0    0 -0.18636524337E+03  0.24468547469E+03  0.86552665004E+03  0.11548763429E+04  0.70000000000E+03 0.  1.
<mgrwt>
<rscale>  0 0.15843731E+04</rscale>
<asrwt>0</asrwt>
<pdfrwt beam="1">  1        2 0.23063199E+00 0.15843731E+04</pdfrwt>
<pdfrwt beam="2">  1       -2 0.55531489E-01 0.15843731E+04</pdfrwt>
<totfact> 0.37268924E+01</totfact>
</mgrwt>
</event>
<event>
 8    1  0.2654897E-009  0.1867906E+04  0.7818608E-02  0.8670999E-01
         -2   -1    0    0    0  501 -0.00000000000E+00  0.00000000000E+00  0.42428226591E+03  0.42428226592E+03  0.25500000000E-02 0. -1.
          2   -1    0    0  501    0  0.00000000000E+00 -0.00000000000E+00 -0.20558679960E+04  0.20558679960E+04  0.25500000000E-02 0.  1.
     200001    2    1    2    0    0 -0.36811141443E+03 -0.49159588367E+03 -0.93866597311E+03  0.13194132909E+04  0.69468345086E+03 0.  0.
    5000001    2    3    3    0    0 -0.10804292415E+03 -0.10997319695E+03 -0.18547391565E+03  0.30424346765E+03  0.18546195490E+03 0.  0.
        -11    1    4    4    0    0 -0.26917184427E+02 -0.10926040573E+03 -0.18640960176E+03  0.21774046639E+03  0.51100000000E-03 0. -1.
     200002    1    4    4    0    0 -0.81125739728E+02 -0.71279122144E+00  0.93568611012E+00  0.86503001256E+02  0.30000000000E+02 0. -1.
     200000    1    3    3    0    0 -0.26006849027E+03 -0.38162268672E+03 -0.75319205746E+03  0.10151698233E+04  0.50000000000E+03 0.  1.
    -200001    1    1    2    0    0  0.36811141443E+03  0.49159588367E+03 -0.69291975699E+03  0.11607369710E+04  0.70000000000E+03 0. -1.
<mgrwt>
<rscale>  0 0.18679061E+04</rscale>
<asrwt>0</asrwt>
<pdfrwt beam="1">  1        2 0.29369542E+00 0.18679061E+04</pdfrwt>
<pdfrwt beam="2">  1       -2 0.60611753E-01 0.18679061E+04</pdfrwt>
<totfact> 0.17924656E+01</totfact>
</mgrwt>
</event>
<event>
 8    1  0.2654897E-009  0.2381790E+04  0.7818608E-02  0.8446353E-01
         -2   -1    0    0    0  501 -0.00000000000E+00  0.00000000000E+00  0.62162280163E+03  0.62162280164E+03  0.25500000000E-02 0. -1.
          2   -1    0    0  501    0  0.00000000000E+00 -0.00000000000E+00 -0.22814968319E+04  0.22814968319E+04  0.25500000000E-02 0.  1.
     200001    2    1    2    0    0  0.67351442731E+03  0.66461025195E+03 -0.10504792808E+04  0.15777176449E+04  0.70025550831E+03 0.  0.
    5000001    2    3    3    0    0  0.19175505536E+03  0.16964709325E+03 -0.21587618369E+03  0.38455254711E+03  0.18901851047E+03 0.  0.
        -11    1    4    4    0    0 -0.14402552244E+02  0.86162537846E+02 -0.97148146780E+02  0.13064906759E+03  0.51100000000E-03 0. -1.
     200002    1    4    4    0    0  0.20615760761E+03  0.83484555405E+02 -0.11872803692E+03  0.25390347952E+03  0.30000000000E+02 0. -1.
     200000    1    3    3    0    0  0.48175937195E+03  0.49496315870E+03 -0.83460309714E+03  0.11931650978E+04  0.50000000000E+03 0.  1.
    -200001    1    1    2    0    0 -0.67351442731E+03 -0.66461025195E+03 -0.60939474948E+03  0.13254019886E+04  0.70000000000E+03 0. -1.
<mgrwt>
<rscale>  0 0.23817896E+04</rscale>
<asrwt>0</asrwt>
<pdfrwt beam="1">  1        2 0.32592811E+00 0.23817896E+04</pdfrwt>
<pdfrwt beam="2">  1       -2 0.88803259E-01 0.23817896E+04</pdfrwt>
<totfact> 0.56610942E+00</totfact>
</mgrwt>
</event>
<event>
 8    1  0.2654897E-009  0.2218221E+04  0.7818608E-02  0.8510882E-01
         -2   -1    0    0    0  501 -0.00000000000E+00  0.00000000000E+00  0.12504145155E+04  0.12504145155E+04  0.25500000000E-02 0. -1.
          2   -1    0    0  501    0  0.00000000000E+00 -0.00000000000E+00 -0.98377442028E+03  0.98377442029E+03  0.25500000000E-02 0.  1.
     200001    2    1    2    0    0 -0.54012628337E+03  0.43713329901E+03 -0.37805186613E+03  0.10558640026E+04  0.69935946081E+03 0.  0.
    5000001    2    3    3    0    0 -0.79920264755E+02  0.13569822168E+02 -0.73568354284E+02  0.19918097635E+03  0.16640123136E+03 0.  0.
        -11    1    4    4    0    0 -0.77782245313E+02  0.52403185334E+02 -0.10506151395E+03  0.14083356572E+03  0.51100000000E-03 0. -1.
     200002    1    4    4    0    0 -0.21380194428E+01 -0.38833363166E+02  0.31493159667E+02  0.58347410634E+02  0.30000000000E+02 0. -1.
     200000    1    3    3    0    0 -0.46020601862E+03  0.42356347684E+03 -0.30448351185E+03  0.85668302625E+03  0.50000000000E+03 0.  1.
    -200001    1    1    2    0    0  0.54012628337E+03 -0.43713329901E+03  0.64469196131E+03  0.11783249331E+04  0.70000000000E+03 0. -1.
<mgrwt>
<rscale>  0 0.22182207E+04</rscale>
<asrwt>0</asrwt>
<pdfrwt beam="1">  1        2 0.14053920E+00 0.22182207E+04</pdfrwt>
<pdfrwt beam="2">  1       -2 0.17863065E+00 0.22182207E+04</pdfrwt>
<totfact> 0.48834178E+00</totfact>
</mgrwt>
</event>
<event>
 8    1  0.2654897E-009  0.1567224E+04  0.7818608E-02  0.8840940E-01
          2   -1    0    0  501    0  0.00000000000E+00  0.00000000000E+00  0.16839284709E+04  0.16839284709E+04  0.25500000000E-02 0.  1.
         -2   -1    0    0    0  501 -0.00000000000E+00 -0.00000000000E+00 -0.36465213447E+03  0.36465213448E+03  0.25500000000E-02 0. -1.
     200001    2    1    2    0    0  0.13980224794E+03  0.30455881942E+03  0.80368625540E+03  0.11168435853E+04  0.69937633204E+03 0.  0.
    5000001    2    3    3    0    0 -0.19510889199E+02  0.13000557500E+03  0.31840490438E+03  0.38108037577E+03  0.16296762052E+03 0.  0.
        -11    1    4    4    0    0 -0.62974885969E+02 -0.57269228563E+01  0.10881157958E+03  0.12585147500E+03  0.51100000000E-03 0. -1.
     200002    1    4    4    0    0  0.43463996770E+02  0.13573249785E+03  0.20959332480E+03  0.25522890077E+03  0.30000000000E+02 0. -1.
     200000    1    3    3    0    0  0.15931313713E+03  0.17455324443E+03  0.48528135103E+03  0.73576320950E+03  0.50000000000E+03 0. -1.
    -200001    1    1    2    0    0 -0.13980224794E+03 -0.30455881942E+03  0.51559008104E+03  0.93173702013E+03  0.70000000000E+03 0.  1.
<mgrwt>
<rscale>  0 0.15672244E+04</rscale>
<asrwt>0</asrwt>
<pdfrwt beam="1">  1        2 0.24056121E+00 0.15672244E+04</pdfrwt>
<pdfrwt beam="2">  1       -2 0.52093163E-01 0.15672244E+04</pdfrwt>
<totfact> 0.39172924E+01</totfact>
</mgrwt>
</event>
<event>
 8    1  0.2654897E-009  0.1519240E+04  0.7818608E-02  0.8871758E-01
         -2   -1    0    0    0  501 -0.00000000000E+00  0.00000000000E+00  0.15416307507E+03  0.15416307509E+03  0.25500000000E-02 0. -1.
          2   -1    0    0  501    0  0.00000000000E+00 -0.00000000000E+00 -0.37429380796E+04  0.37429380796E+04  0.25500000000E-02 0.  1.
     200001    2    1    2    0    0  0.88656513094E+02  0.51030813677E+02 -0.10874393627E+04  0.12976504215E+04  0.70064836229E+03 0.  0.
    5000001    2    3    3    0    0 -0.49163862590E+01  0.33536092314E+02 -0.27995159473E+03  0.34313565042E+03  0.19550022725E+03 0.  0.
        -11    1    4    4    0    0  0.59393165894E+02 -0.55194446892E+02 -0.15006960924E+03  0.17057216286E+03  0.51100000000E-03 0. -1.
     200002    1    4    4    0    0 -0.64309552153E+02  0.88730539206E+02 -0.12988198548E+03  0.17256348756E+03  0.30000000000E+02 0. -1.
     200000    1    3    3    0    0  0.93572899353E+02  0.17494721363E+02 -0.80748776801E+03  0.95451477110E+03  0.50000000000E+03 0. -1.
    -200001    1    1    2    0    0 -0.88656513094E+02 -0.51030813677E+02 -0.25013356418E+04  0.25994507332E+04  0.70000000000E+03 0.  1.
<mgrwt>
<rscale>  0 0.15192404E+04</rscale>
<asrwt>0</asrwt>
<pdfrwt beam="1">  1        2 0.53470538E+00 0.15192404E+04</pdfrwt>
<pdfrwt beam="2">  1       -2 0.22023299E-01 0.15192404E+04</pdfrwt>
<totfact> 0.14918752E+01</totfact>
</mgrwt>
</event>
<event>
 8    1  0.2654897E-009  0.1702707E+04  0.7818608E-02  0.8759822E-01
          2   -1    0    0  501    0  0.00000000000E+00  0.00000000000E+00  0.12887906582E+04  0.12887906582E+04  0.25500000000E-02 0.  1.
         -2   -1    0    0    0  501 -0.00000000000E+00 -0.00000000000E+00 -0.56238959623E+03  0.56238959624E+03  0.25500000000E-02 0. -1.
     200001    2    1    2    0    0  0.18304894172E+03  0.32055785861E+03  0.21583375788E+02  0.79144810597E+03  0.69975710539E+03 0.  0.
    5000001    2    3    3    0    0  0.32056382629E+02  0.88932530022E+02  0.67673175266E+01  0.21989884184E+03  0.19842655440E+03 0.  0.
        -11    1    4    4    0    0 -0.45492817028E+02  0.10091565053E+03  0.54384100183E+02  0.12333367454E+03  0.51100000000E-03 0. -1.
     200002    1    4    4    0    0  0.77549199657E+02 -0.11983120506E+02 -0.47616782656E+02  0.96565167297E+02  0.30000000000E+02 0. -1.
     200000    1    3    3    0    0  0.15099255909E+03  0.23162532859E+03  0.14816058262E+02  0.57154926413E+03  0.50000000000E+03 0. -1.
    -200001    1    1    2    0    0 -0.18304894172E+03 -0.32055785861E+03  0.70481768621E+03  0.10597321485E+04  0.70000000000E+03 0.  1.
<mgrwt>
<rscale>  0 0.17027066E+04</rscale>
<asrwt>0</asrwt>
<pdfrwt beam="1">  1        2 0.18411295E+00 0.17027066E+04</pdfrwt>
<pdfrwt beam="2">  1       -2 0.80341369E-01 0.17027066E+04</pdfrwt>
<totfact> 0.24874164E+01</totfact>
</mgrwt>
</event>
<event>
 8    1  0.2654897E-009  0.1642041E+04  0.7818608E-02  0.8795129E-01
          2   -1    0    0  501    0  0.00000000000E+00  0.00000000000E+00  0.68825452896E+03  0.68825452896E+03  0.25500000000E-02 0.  1.
         -2   -1    0    0    0  501 -0.00000000000E+00 -0.00000000000E+00 -0.97939703488E+03  0.97939703489E+03  0.25500000000E-02 0. -1.
     200001    2    1    2    0    0  0.50198487190E+02 -0.42319193956E+03 -0.92850405961E+02  0.82448428345E+03  0.69967265913E+03 0.  0.
    5000001    2    3    3    0    0 -0.23771793670E+02 -0.21022433998E+03 -0.10508541244E+03  0.27587103506E+03  0.14248688636E+03 0.  0.
        -11    1    4    4    0    0 -0.27596547893E+02 -0.32331412177E+02 -0.84070844520E+02  0.94206138693E+02  0.51100000000E-03 0. -1.
     200002    1    4    4    0    0  0.38247542233E+01 -0.17789292780E+03 -0.21014567919E+02  0.18166489637E+03  0.30000000000E+02 0. -1.
     200000    1    3    3    0    0  0.73970280860E+02 -0.21296759959E+03  0.12235006478E+02  0.54861324839E+03  0.50000000000E+03 0.  1.
    -200001    1    1    2    0    0 -0.50198487190E+02  0.42319193956E+03 -0.19829209996E+03  0.84316728040E+03  0.70000000000E+03 0.  1.
<mgrwt>
<rscale>  0 0.16420407E+04</rscale>
<asrwt>0</asrwt>
<pdfrwt beam="1">  1        2 0.98322076E-01 0.16420407E+04</pdfrwt>
<pdfrwt beam="2">  1       -2 0.13991386E+00 0.16420407E+04</pdfrwt>
<totfact> 0.15836639E+01</totfact>
</mgrwt>
</event>
<event>
 8    1  0.2654897E-009  0.2905413E+04  0.7818608E-02  0.8271269E-01
          2   -1    0    0  501    0  0.00000000000E+00  0.00000000000E+00  0.26001252224E+04  0.26001252224E+04  0.25500000000E-02 0.  1.
         -2   -1    0    0    0  501 -0.00000000000E+00 -0.00000000000E+00 -0.81163658814E+03  0.81163658814E+03  0.25500000000E-02 0. -1.
     200001    2    1    2    0    0  0.10092332644E+04  0.66161051452E+02 -0.13165443459E+02  0.12302745925E+04  0.70033790225E+03 0.  0.
    5000001    2    3    3    0    0  0.27269363777E+03 -0.21358626436E+01  0.53841381359E+02  0.33492828818E+03  0.18684668016E+03 0.  0.
        -11    1    4    4    0    0  0.13414043366E+03  0.74031431788E+02 -0.25799327395E+02  0.15537024854E+03  0.51100000000E-03 0. -1.
     200002    1    4    4    0    0  0.13855320410E+03 -0.76167294432E+02  0.79640708754E+02  0.17955803964E+03  0.30000000000E+02 0. -1.
     200000    1    3    3    0    0  0.73653962664E+03  0.68296914095E+02 -0.67006824818E+02  0.89534630432E+03  0.50000000000E+03 0. -1.
    -200001    1    1    2    0    0 -0.10092332644E+04 -0.66161051452E+02  0.18016540777E+04  0.21814872181E+04  0.70000000000E+03 0.  1.
<mgrwt>
<rscale>  0 0.29054134E+04</rscale>
<asrwt>0</asrwt>
<pdfrwt beam="1">  1        2 0.37144646E+00 0.29054134E+04</pdfrwt>
<pdfrwt beam="2">  1       -2 0.11594808E+00 0.29054134E+04</pdfrwt>
<totfact> 0.19582485E+00</totfact>
</mgrwt>
</event>
<event>
 8    1  0.2654897E-009  0.1612025E+04  0.7818608E-02  0.8813194E-01
          2   -1    0    0  501    0  0.00000000000E+00  0.00000000000E+00  0.22774578256E+04  0.22774578256E+04  0.25500000000E-02 0.  1.
         -2   -1    0    0    0  501 -0.00000000000E+00 -0.00000000000E+00 -0.28525510558E+03  0.28525510559E+03  0.25500000000E-02 0. -1.
     200001    2    1    2    0    0  0.38541767677E+03  0.10615227304E+02  0.84354240662E+03  0.11633988191E+04  0.70233435910E+03 0.  0.
    5000001    2    3    3    0    0  0.19456582820E+03  0.37276610840E+02  0.24738046253E+03  0.36181019580E+03  0.17453972993E+03 0.  0.
        -11    1    4    4    0    0  0.61832559866E+02 -0.25889422790E+02  0.18949722895E+03  0.20100429710E+03  0.51100000000E-03 0. -1.
     200002    1    4    4    0    0  0.13273326833E+03  0.63166033630E+02  0.57883233582E+02  0.16080589870E+03  0.30000000000E+02 0. -1.
     200000    1    3    3    0    0  0.19085184857E+03 -0.26661383537E+02  0.59616194409E+03  0.80158862333E+03  0.50000000000E+03 0. -1.
    -200001    1    1    2    0    0 -0.38541767677E+03 -0.10615227304E+02  0.11486603134E+04  0.13993141120E+04  0.70000000000E+03 0.  1.
<mgrwt>
<rscale>  0 0.16120254E+04</rscale>
<asrwt>0</asrwt>
<pdfrwt beam="1">  1        2 0.32535110E+00 0.16120254E+04</pdfrwt>
<pdfrwt beam="2">  1       -2 0.40750731E-01 0.16120254E+04</pdfrwt>
<totfact> 0.31569675E+01</totfact>
</mgrwt>
</event>
<event>
 8    1  0.2654897E-009  0.1786791E+04  0.7818608E-02  0.8713355E-01
         -2   -1    0    0    0  501 -0.00000000000E+00  0.00000000000E+00  0.55989237864E+03  0.55989237864E+03  0.25500000000E-02 0. -1.
          2   -1    0    0  501    0  0.00000000000E+00 -0.00000000000E+00 -0.14255519980E+04  0.14255519980E+04  0.25500000000E-02 0.  1.
     200001    2    1    2    0    0 -0.51471037979E+03 -0.16185160452E+03 -0.57785572655E+03  0.10559532268E+04  0.69999804252E+03 0.  0.
    5000001    2    3    3    0    0 -0.13357855652E+03 -0.74765438289E+02 -0.14052844939E+03  0.28517400134E+03  0.19530198264E+03 0.  0.
        -11    1    4    4    0    0 -0.45090903135E+01  0.30885003442E+02 -0.10824339235E+03  0.11265366093E+03  0.51100000000E-03 0. -1.
     200002    1    4    4    0    0 -0.12906946621E+03 -0.10565044173E+03 -0.32285057039E+02  0.17252034041E+03  0.30000000000E+02 0. -1.
     200000    1    3    3    0    0 -0.38113182326E+03 -0.87086166227E+02 -0.43732727716E+03  0.77077922546E+03  0.50000000000E+03 0.  1.
    -200001    1    1    2    0    0  0.51471037979E+03  0.16185160452E+03 -0.28780389282E+03  0.92949114986E+03  0.70000000000E+03 0. -1.
<mgrwt>
<rscale>  0 0.17867912E+04</rscale>
<asrwt>0</asrwt>
<pdfrwt beam="1">  1        2 0.20365028E+00 0.17867912E+04</pdfrwt>
<pdfrwt beam="2">  1       -2 0.79984626E-01 0.17867912E+04</pdfrwt>
<totfact> 0.21010242E+01</totfact>
</mgrwt>
</event>
<event>
 8    1  0.2654897E-009  0.1513559E+04  0.7818608E-02  0.8875486E-01
          2   -1    0    0  501    0  0.00000000000E+00  0.00000000000E+00  0.54472805573E+03  0.54472805574E+03  0.25500000000E-02 0.  1.
         -2   -1    0    0    0  501 -0.00000000000E+00 -0.00000000000E+00 -0.10513777762E+04  0.10513777762E+04  0.25500000000E-02 0. -1.
     200001    2    1    2    0    0 -0.65060833047E+02 -0.23569108124E+03 -0.94853628728E+02  0.74795536244E+03  0.70046899684E+03 0.  0.
    5000001    2    3    3    0    0 -0.45198701946E+02 -0.88970829554E+02  0.72338204574E+02  0.20034743186E+03  0.15794792320E+03 0.  0.
        -11    1    4    4    0    0  0.45104710454E+01  0.33979150545E+02  0.52844254592E+02  0.62987635806E+02  0.51100000000E-03 0. -1.
     200002    1    4    4    0    0 -0.49709172992E+02 -0.12294998010E+03  0.19493949982E+02  0.13735979605E+03  0.30000000000E+02 0. -1.
     200000    1    3    3    0    0 -0.19862131100E+02 -0.14672025169E+03 -0.16719183330E+03  0.54760793058E+03  0.50000000000E+03 0.  1.
    -200001    1    1    2    0    0  0.65060833047E+02  0.23569108124E+03 -0.41179609176E+03  0.84815046953E+03  0.70000000000E+03 0. -1.
<mgrwt>
<rscale>  0 0.15135587E+04</rscale>
<asrwt>0</asrwt>
<pdfrwt beam="1">  1        2 0.77818294E-01 0.15135587E+04</pdfrwt>
<pdfrwt beam="2">  1       -2 0.15019682E+00 0.15135587E+04</pdfrwt>
<totfact> 0.17545886E+01</totfact>
</mgrwt>
</event>
<event>
 8    1  0.2654897E-009  0.2656425E+04  0.7818608E-02  0.8349284E-01
         -2   -1    0    0    0  501 -0.00000000000E+00  0.00000000000E+00  0.46669341118E+03  0.46669341118E+03  0.25500000000E-02 0. -1.
          2   -1    0    0  501    0  0.00000000000E+00 -0.00000000000E+00 -0.37801021855E+04  0.37801021855E+04  0.25500000000E-02 0.  1.
     200001    2    1    2    0    0 -0.10847147463E+04  0.26599915810E+03 -0.13934597403E+04  0.19179405290E+04  0.69957429332E+03 0.  0.
    5000001    2    3    3    0    0 -0.45563637561E+03  0.18407911307E+03 -0.47781208274E+03  0.69693228861E+03  0.12617686729E+03 0.  0.
        -11    1    4    4    0    0 -0.37613249617E+03  0.10360761221E+03 -0.35958212521E+03  0.53057468537E+03  0.51100000000E-03 0. -1.
     200002    1    4    4    0    0 -0.79503879446E+02  0.80471500866E+02 -0.11822995753E+03  0.16635760324E+03  0.30000000000E+02 0. -1.
     200000    1    3    3    0    0 -0.62907837073E+03  0.81920045027E+02 -0.91564765753E+03  0.12210082404E+04  0.50000000000E+03 0. -1.
    -200001    1    1    2    0    0  0.10847147463E+04 -0.26599915810E+03 -0.19199490340E+04  0.23288550677E+04  0.70000000000E+03 0.  1.
<mgrwt>
<rscale>  0 0.26564253E+04</rscale>
<asrwt>0</asrwt>
<pdfrwt beam="1">  1        2 0.54001458E+00 0.26564253E+04</pdfrwt>
<pdfrwt beam="2">  1       -2 0.66670489E-01 0.26564253E+04</pdfrwt>
<totfact> 0.14634454E+00</totfact>
</mgrwt>
</event>
<event>
 8    1  0.2654897E-009  0.1598553E+04  0.7818608E-02  0.8821438E-01
          2   -1    0    0  501    0  0.00000000000E+00  0.00000000000E+00  0.79214939429E+03  0.79214939430E+03  0.25500000000E-02 0.  1.
         -2   -1    0    0    0  501 -0.00000000000E+00 -0.00000000000E+00 -0.80646754989E+03  0.80646754989E+03  0.25500000000E-02 0. -1.
     200001    2    1    2    0    0  0.33852913128E+03 -0.19131640515E+03  0.52184907556E+02  0.79510801641E+03  0.69157035331E+03 0.  0.
    5000001    2    3    3    0    0  0.12564249551E+03 -0.54733407135E+02 -0.36042104153E+02  0.22786940645E+03  0.17844789321E+03 0.  0.
        -11    1    4    4    0    0 -0.40271438200E+02 -0.55702439938E+01 -0.32762341039E+02  0.52212903994E+02  0.51100000000E-03 0. -1.
     200002    1    4    4    0    0  0.16591393371E+03 -0.49163163142E+02 -0.32797631148E+01  0.17565650246E+03  0.30000000000E+02 0. -1.
     200000    1    3    3    0    0  0.21288663577E+03 -0.13658299801E+03  0.88227011709E+02  0.56723860996E+03  0.50000000000E+03 0.  1.
    -200001    1    1    2    0    0 -0.33852913128E+03  0.19131640515E+03 -0.66503063148E+02  0.80350892777E+03  0.70000000000E+03 0.  1.
<mgrwt>
<rscale>  0 0.15985528E+04</rscale>
<asrwt>0</asrwt>
<pdfrwt beam="1">  1        2 0.11316420E+00 0.15985528E+04</pdfrwt>
<pdfrwt beam="2">  1       -2 0.11520965E+00 0.15985528E+04</pdfrwt>
<totfact> 0.21725536E+01</totfact>
</mgrwt>
</event>
<event>
 8    1  0.2654897E-009  0.2039470E+04  0.7818608E-02  0.8588386E-01
         -2   -1    0    0    0  501 -0.00000000000E+00  0.00000000000E+00  0.96203526100E+03  0.96203526101E+03  0.25500000000E-02 0. -1.
          2   -1    0    0  501    0  0.00000000000E+00 -0.00000000000E+00 -0.10808950203E+04  0.10808950203E+04  0.25500000000E-02 0.  1.
     200001    2    1    2    0    0 -0.31347459467E+03  0.18483485358E+03  0.58779254067E+03  0.98378547644E+03  0.69993110247E+03 0.  0.
    5000001    2    3    3    0    0 -0.14904780512E+03  0.99110032286E+02  0.14761987045E+03  0.29231104184E+03  0.17780908953E+03 0.  0.
        -11    1    4    4    0    0 -0.16071335725E+03  0.12944481501E+03  0.13392516854E+03  0.24600954068E+03  0.51100000000E-03 0. -1.
     200002    1    4    4    0    0  0.11665552135E+02 -0.30334782726E+02  0.13694701905E+02  0.46301501163E+02  0.30000000000E+02 0. -1.
     200000    1    3    3    0    0 -0.16442678955E+03  0.85724821289E+02  0.44017267022E+03  0.69147443461E+03  0.50000000000E+03 0. -1.
    -200001    1    1    2    0    0  0.31347459467E+03 -0.18483485358E+03 -0.70665229992E+03  0.10591448048E+04  0.70000000000E+03 0.  1.
<mgrwt>
<rscale>  0 0.20394697E+04</rscale>
<asrwt>0</asrwt>
<pdfrwt beam="1">  1        2 0.15441357E+00 0.20394697E+04</pdfrwt>
<pdfrwt beam="2">  1       -2 0.13743361E+00 0.20394697E+04</pdfrwt>
<totfact> 0.87877902E+00</totfact>
</mgrwt>
</event>
<event>
 8    1  0.2654897E-009  0.1648457E+04  0.7818608E-02  0.8791320E-01
          2   -1    0    0  501    0  0.00000000000E+00  0.00000000000E+00  0.23009415892E+04  0.23009415892E+04  0.25500000000E-02 0.  1.
         -2   -1    0    0    0  501 -0.00000000000E+00 -0.00000000000E+00 -0.29524971092E+03  0.29524971093E+03  0.25500000000E-02 0. -1.
     200001    2    1    2    0    0 -0.35672560543E+03 -0.24093851183E+03  0.10997143986E+04  0.13730397487E+04  0.70040122003E+03 0.  0.
    5000001    2    3    3    0    0 -0.88571316146E+02 -0.66992773015E+02  0.21118372434E+03  0.30455923789E+03  0.18927454736E+03 0.  0.
        -11    1    4    4    0    0 -0.10490127261E+03  0.35940209012E+02  0.10195515767E+03  0.15063475627E+03  0.51100000000E-03 0. -1.
     200002    1    4    4    0    0  0.16329956464E+02 -0.10293298203E+03  0.10922856667E+03  0.15392448162E+03  0.30000000000E+02 0. -1.
     200000    1    3    3    0    0 -0.26815428929E+03 -0.17394573882E+03  0.88853067425E+03  0.10684805108E+04  0.50000000000E+03 0. -1.
    -200001    1    1    2    0    0  0.35672560543E+03  0.24093851183E+03  0.90597747974E+03  0.12231515515E+04  0.70000000000E+03 0.  1.
<mgrwt>
<rscale>  0 0.16484567E+04</rscale>
<asrwt>0</asrwt>
<pdfrwt beam="1">  1        2 0.32870593E+00 0.16484567E+04</pdfrwt>
<pdfrwt beam="2">  1       -2 0.42178531E-01 0.16484567E+04</pdfrwt>
<totfact> 0.28601480E+01</totfact>
</mgrwt>
</event>
<event>
 8    1  0.2654897E-009  0.1756621E+04  0.7818608E-02  0.8729714E-01
         -2   -1    0    0    0  501 -0.00000000000E+00  0.00000000000E+00  0.67739055073E+03  0.67739055074E+03  0.25500000000E-02 0. -1.
          2   -1    0    0  501    0  0.00000000000E+00 -0.00000000000E+00 -0.11388246485E+04  0.11388246485E+04  0.25500000000E-02 0.  1.
     200001    2    1    2    0    0  0.39285347365E+02  0.42551779120E+02  0.31457699093E+03  0.76953129174E+03  0.69990408865E+03 0.  0.
    5000001    2    3    3    0    0  0.94740941448E+02  0.34109314438E+02 -0.31242960887E+02  0.15900853442E+03  0.11903066872E+03 0.  0.
        -11    1    4    4    0    0  0.72627518980E+02  0.57374604518E+00 -0.65891076087E+02  0.98064874476E+02  0.51100000000E-03 0. -1.
     200002    1    4    4    0    0  0.22113422468E+02  0.33535568393E+02  0.34648115201E+02  0.60943659946E+02  0.30000000000E+02 0. -1.
     200000    1    3    3    0    0 -0.55455594082E+02  0.84424646826E+01  0.34581995181E+03  0.61052275731E+03  0.50000000000E+03 0. -1.
    -200001    1    1    2    0    0 -0.39285347365E+02 -0.42551779120E+02 -0.77601108866E+03  0.10466839075E+04  0.70000000000E+03 0.  1.
<mgrwt>
<rscale>  0 0.17566207E+04</rscale>
<asrwt>0</asrwt>
<pdfrwt beam="1">  1        2 0.16268924E+00 0.17566207E+04</pdfrwt>
<pdfrwt beam="2">  1       -2 0.96770078E-01 0.17566207E+04</pdfrwt>
<totfact> 0.19661534E+01</totfact>
</mgrwt>
</event>
<event>
 8    1  0.2654897E-009  0.1938232E+04  0.7818608E-02  0.8636056E-01
          2   -1    0    0  501    0  0.00000000000E+00  0.00000000000E+00  0.21320465621E+04  0.21320465621E+04  0.25500000000E-02 0.  1.
         -2   -1    0    0    0  501 -0.00000000000E+00 -0.00000000000E+00 -0.44050919114E+03  0.44050919115E+03  0.25500000000E-02 0. -1.
     200001    2    1    2    0    0 -0.75932592470E+02 -0.62023875430E+03  0.52308044089E+03  0.10739719323E+04  0.69952890778E+03 0.  0.
    5000001    2    3    3    0    0 -0.26561767455E+02 -0.11848181058E+03  0.87308087107E+02  0.24084826007E+03  0.18879013580E+03 0.  0.
        -11    1    4    4    0    0 -0.51659469176E+02  0.44991735774E+01 -0.35387932250E+02  0.62779368168E+02  0.51100000000E-03 0. -1.
     200002    1    4    4    0    0  0.25097701720E+02 -0.12298098416E+03  0.12269601936E+03  0.17806889190E+03  0.30000000000E+02 0. -1.
     200000    1    3    3    0    0 -0.49370825014E+02 -0.50175694372E+03  0.43577235378E+03  0.83312367224E+03  0.50000000000E+03 0. -1.
    -200001    1    1    2    0    0  0.75932592470E+02  0.62023875430E+03  0.11684569300E+04  0.14985838209E+04  0.70000000000E+03 0. -1.
<mgrwt>
<rscale>  0 0.19382323E+04</rscale>
<asrwt>0</asrwt>
<pdfrwt beam="1">  1        2 0.30457808E+00 0.19382323E+04</pdfrwt>
<pdfrwt beam="2">  1       -2 0.62929884E-01 0.19382323E+04</pdfrwt>
<totfact> 0.15034510E+01</totfact>
</mgrwt>
</event>
<event>
 8    1  0.2654897E-009  0.1854025E+04  0.7818608E-02  0.8678086E-01
         -2   -1    0    0    0  501 -0.00000000000E+00  0.00000000000E+00  0.77160205875E+03  0.77160205875E+03  0.25500000000E-02 0. -1.
          2   -1    0    0  501    0  0.00000000000E+00 -0.00000000000E+00 -0.11137240479E+04  0.11137240479E+04  0.25500000000E-02 0.  1.
     200001    2    1    2    0    0 -0.63846700149E+02 -0.30715713186E+03 -0.70032364529E+03  0.10387268323E+04  0.70005594013E+03 0.  0.
    5000001    2    3    3    0    0 -0.10926965626E+02 -0.15637722923E+03 -0.82533948894E+02  0.22804860623E+03  0.14360040976E+03 0.  0.
        -11    1    4    4    0    0  0.13167725211E+02  0.56879868244E+01 -0.57919762097E+02  0.59669431228E+02  0.51100000000E-03 0. -1.
     200002    1    4    4    0    0 -0.24094690837E+02 -0.16206521605E+03 -0.24614186797E+02  0.16837917500E+03  0.30000000000E+02 0. -1.
     200000    1    3    3    0    0 -0.52919734523E+02 -0.15077990263E+03 -0.61778969639E+03  0.81067822612E+03  0.50000000000E+03 0.  1.
    -200001    1    1    2    0    0  0.63846700149E+02  0.30715713186E+03  0.35820165614E+03  0.84659927429E+03  0.70000000000E+03 0. -1.
<mgrwt>
<rscale>  0 0.18540246E+04</rscale>
<asrwt>0</asrwt>
<pdfrwt beam="1">  1        2 0.15910343E+00 0.18540246E+04</pdfrwt>
<pdfrwt beam="2">  1       -2 0.11022887E+00 0.18540246E+04</pdfrwt>
<totfact> 0.14787724E+01</totfact>
</mgrwt>
</event>
<event>
 8    1  0.2654897E-009  0.1459657E+04  0.7818608E-02  0.8911733E-01
          2   -1    0    0  501    0  0.00000000000E+00  0.00000000000E+00  0.54513722803E+03  0.54513722803E+03  0.25500000000E-02 0.  1.
         -2   -1    0    0    0  501 -0.00000000000E+00 -0.00000000000E+00 -0.97709245435E+03  0.97709245435E+03  0.25500000000E-02 0. -1.
     200001    2    1    2    0    0 -0.76991311978E+02  0.13180051666E+03 -0.42324065569E+02  0.70668601112E+03  0.68870512811E+03 0.  0.
    5000001    2    3    3    0    0 -0.79124607151E+02  0.76145641094E+01 -0.49839444352E+02  0.19143540930E+03  0.16686779401E+03 0.  0.
        -11    1    4    4    0    0  0.48552148632E+02  0.21039320637E+02 -0.16828724585E+02  0.55526301165E+02  0.51100000000E-03 0. -1.
     200002    1    4    4    0    0 -0.12767675578E+03 -0.13424756528E+02 -0.33010719767E+02  0.13590910814E+03  0.30000000000E+02 0. -1.
     200000    1    3    3    0    0  0.21332951727E+01  0.12418595255E+03  0.75153787834E+01  0.51525060182E+03  0.50000000000E+03 0.  1.
    -200001    1    1    2    0    0  0.76991311978E+02 -0.13180051666E+03 -0.38963116075E+03  0.81554367126E+03  0.70000000000E+03 0. -1.
<mgrwt>
<rscale>  0 0.14596568E+04</rscale>
<asrwt>0</asrwt>
<pdfrwt beam="1">  1        2 0.77876747E-01 0.14596568E+04</pdfrwt>
<pdfrwt beam="2">  1       -2 0.13958464E+00 0.14596568E+04</pdfrwt>
<totfact> 0.21335951E+01</totfact>
</mgrwt>
</event>
<event>
 8    1  0.2654897E-009  0.1960095E+04  0.7818608E-02  0.8625508E-01
         -2   -1    0    0    0  501 -0.00000000000E+00  0.00000000000E+00  0.14170516107E+04  0.14170516107E+04  0.25500000000E-02 0. -1.
          2   -1    0    0  501    0  0.00000000000E+00 -0.00000000000E+00 -0.67781068613E+03  0.67781068614E+03  0.25500000000E-02 0.  1.
     200001    2    1    2    0    0 -0.23439586621E+03  0.42083364352E+03 -0.15931328530E+03  0.85815616937E+03  0.69210469622E+03 0.  0.
    5000001    2    3    3    0    0 -0.16305504321E+03  0.12556557836E+03 -0.13337639068E+03  0.27254071036E+03  0.11889287458E+03 0.  0.
        -11    1    4    4    0    0 -0.16357038271E+03  0.10343761950E+03 -0.13375855586E+03  0.23525722624E+03  0.51100000000E-03 0. -1.
     200002    1    4    4    0    0  0.51533950737E+00  0.22127958859E+02  0.38216518118E+00  0.37283484122E+02  0.30000000000E+02 0. -1.
     200000    1    3    3    0    0 -0.71340823000E+02  0.29526806516E+03 -0.25936894623E+02  0.58561545901E+03  0.50000000000E+03 0.  1.
    -200001    1    1    2    0    0  0.23439586621E+03 -0.42083364352E+03  0.89855420984E+03  0.12367061274E+04  0.70000000000E+03 0. -1.
<mgrwt>
<rscale>  0 0.19600946E+04</rscale>
<asrwt>0</asrwt>
<pdfrwt beam="1">  1        2 0.96830099E-01 0.19600946E+04</pdfrwt>
<pdfrwt beam="2">  1       -2 0.20243594E+00 0.19600946E+04</pdfrwt>
<totfact> 0.56116534E+00</totfact>
</mgrwt>
</event>
<event>
 8    1  0.2654897E-009  0.1735223E+04  0.7818608E-02  0.8741527E-01
         -2   -1    0    0    0  501 -0.00000000000E+00  0.00000000000E+00  0.70929407654E+03  0.70929407655E+03  0.25500000000E-02 0. -1.
          2   -1    0    0  501    0  0.00000000000E+00 -0.00000000000E+00 -0.10612660336E+04  0.10612660336E+04  0.25500000000E-02 0.  1.
     200001    2    1    2    0    0 -0.56411356407E+02 -0.55635329540E+02  0.34059544076E+03  0.78266986748E+03  0.70020663819E+03 0.  0.
    5000001    2    3    3    0    0 -0.45227192825E+02  0.34892062674E+01  0.14006782185E+03  0.24060702777E+03  0.19030258422E+03 0.  0.
        -11    1    4    4    0    0  0.14181538495E+02  0.28280035259E+02  0.16294854445E+03  0.16599127859E+03  0.51100000000E-03 0. -1.
     200002    1    4    4    0    0 -0.59408731320E+02 -0.24790828992E+02 -0.22880722598E+02  0.74615749180E+02  0.30000000000E+02 0. -1.
     200000    1    3    3    0    0 -0.11184163583E+02 -0.59124535807E+02  0.20052761891E+03  0.54206283971E+03  0.50000000000E+03 0.  1.
    -200001    1    1    2    0    0  0.56411356407E+02  0.55635329540E+02 -0.69256739777E+03  0.98789024263E+03  0.70000000000E+03 0.  1.
<mgrwt>
<rscale>  0 0.17352230E+04</rscale>
<asrwt>0</asrwt>
<pdfrwt beam="1">  1        2 0.15160943E+00 0.17352230E+04</pdfrwt>
<pdfrwt beam="2">  1       -2 0.10132772E+00 0.17352230E+04</pdfrwt>
<totfact> 0.19632735E+01</totfact>
</mgrwt>
</event>
<event>
 8    1  0.2654897E-009  0.1618966E+04  0.7818608E-02  0.8808980E-01
         -2   -1    0    0    0  501 -0.00000000000E+00  0.00000000000E+00  0.47901751192E+03  0.47901751193E+03  0.25500000000E-02 0. -1.
          2   -1    0    0  501    0  0.00000000000E+00 -0.00000000000E+00 -0.13679311374E+04  0.13679311374E+04  0.25500000000E-02 0.  1.
     200001    2    1    2    0    0 -0.10809577957E+02  0.34337009385E+03 -0.69317094444E+03  0.10429989833E+04  0.69952916494E+03 0.  0.
    5000001    2    3    3    0    0 -0.19697457670E+02  0.11765383361E+03 -0.22366639986E+03  0.32087618077E+03  0.19673446712E+03 0.  0.
        -11    1    4    4    0    0  0.37246397250E+02  0.80953984147E+02 -0.41662362294E+01  0.89208739381E+02  0.51100000000E-03 0. -1.
     200002    1    4    4    0    0 -0.56943854920E+02  0.36699849467E+02 -0.21950016363E+03  0.23166744139E+03  0.30000000000E+02 0. -1.
     200000    1    3    3    0    0  0.88878797128E+01  0.22571626023E+03 -0.46950454458E+03  0.72212280252E+03  0.50000000000E+03 0.  1.
    -200001    1    1    2    0    0  0.10809577957E+02 -0.34337009385E+03 -0.19574268102E+03  0.80394966602E+03  0.70000000000E+03 0. -1.
<mgrwt>
<rscale>  0 0.16189663E+04</rscale>
<asrwt>0</asrwt>
<pdfrwt beam="1">  1        2 0.19541873E+00 0.16189663E+04</pdfrwt>
<pdfrwt beam="2">  1       -2 0.68431074E-01 0.16189663E+04</pdfrwt>
<totfact> 0.32284505E+01</totfact>
</mgrwt>
</event>
<event>
 8    1  0.2654897E-009  0.1569759E+04  0.7818608E-02  0.8839344E-01
         -2   -1    0    0    0  501 -0.00000000000E+00  0.00000000000E+00  0.14948131494E+04  0.14948131494E+04  0.25500000000E-02 0. -1.
          2   -1    0    0  501    0  0.00000000000E+00 -0.00000000000E+00 -0.41211578342E+03  0.41211578343E+03  0.25500000000E-02 0.  1.
     200001    2    1    2    0    0 -0.17686593553E+03  0.30607540249E+03  0.58175986784E+03  0.97639033171E+03  0.69994987311E+03 0.  0.
    5000001    2    3    3    0    0 -0.56018121856E+02  0.14920326891E+03  0.15465628675E+03  0.28963671552E+03  0.18593336042E+03 0.  0.
        -11    1    4    4    0    0  0.27200651934E+02  0.44985549187E+02  0.14309908467E+03  0.15244973970E+03  0.51100000000E-03 0. -1.
     200002    1    4    4    0    0 -0.83218773790E+02  0.10421771972E+03  0.11557202081E+02  0.13718697582E+03  0.30000000000E+02 0. -1.
     200000    1    3    3    0    0 -0.12084781368E+03  0.15687213359E+03  0.42710358109E+03  0.68675361619E+03  0.50000000000E+03 0. -1.
    -200001    1    1    2    0    0  0.17686593553E+03 -0.30607540249E+03  0.50093749816E+03  0.93053860115E+03  0.70000000000E+03 0. -1.
<mgrwt>
<rscale>  0 0.15697593E+04</rscale>
<asrwt>0</asrwt>
<pdfrwt beam="1">  1        2 0.58873684E-01 0.15697593E+04</pdfrwt>
<pdfrwt beam="2">  1       -2 0.21354473E+00 0.15697593E+04</pdfrwt>
<totfact> 0.87459565E+00</totfact>
</mgrwt>
</event>
<event>
 8    1  0.2654897E-009  0.2936963E+04  0.7818608E-02  0.8261964E-01
          2   -1    0    0  501    0  0.00000000000E+00  0.00000000000E+00  0.10450857138E+04  0.10450857139E+04  0.25500000000E-02 0.  1.
         -2   -1    0    0    0  501 -0.00000000000E+00 -0.00000000000E+00 -0.20634077221E+04  0.20634077221E+04  0.25500000000E-02 0. -1.
     200001    2    1    2    0    0  0.75693361586E+03 -0.19718070520E+03  0.57781138305E+03  0.11981346916E+04  0.69988000077E+03 0.  0.
    5000001    2    3    3    0    0  0.91371519481E+02 -0.29320215496E+02  0.38039127993E+02  0.19190204678E+03  0.16177450569E+03 0.  0.
        -11    1    4    4    0    0  0.35406227868E+01  0.19656733211E+02  0.77312779028E+02  0.79851042395E+02  0.51100000000E-03 0. -1.
     200002    1    4    4    0    0  0.87830896695E+02 -0.48976948707E+02 -0.39273651035E+02  0.11205100439E+03  0.30000000000E+02 0. -1.
     200000    1    3    3    0    0  0.66556209638E+03 -0.16786048970E+03  0.53977225506E+03  0.10062326448E+04  0.50000000000E+03 0.  1.
    -200001    1    1    2    0    0 -0.75693361586E+03  0.19718070520E+03 -0.15961333913E+04  0.19103587444E+04  0.70000000000E+03 0. -1.
<mgrwt>
<rscale>  0 0.29369630E+04</rscale>
<asrwt>0</asrwt>
<pdfrwt beam="1">  1        2 0.14929796E+00 0.29369630E+04</pdfrwt>
<pdfrwt beam="2">  1       -2 0.29477253E+00 0.29369630E+04</pdfrwt>
<totfact> 0.78077621E-01</totfact>
</mgrwt>
</event>
<event>
 8    1  0.2654897E-009  0.1533795E+04  0.7818608E-02  0.8862286E-01
          2   -1    0    0  501    0  0.00000000000E+00  0.00000000000E+00  0.14821546320E+04  0.14821546320E+04  0.25500000000E-02 0.  1.
         -2   -1    0    0    0  501 -0.00000000000E+00 -0.00000000000E+00 -0.39680842183E+03  0.39680842183E+03  0.25500000000E-02 0. -1.
     200001    2    1    2    0    0  0.58105390240E+02 -0.30683155581E+03  0.52468695180E+03  0.92929961659E+03  0.70055659300E+03 0.  0.
    5000001    2    3    3    0    0 -0.14783198037E+02 -0.16104567891E+03  0.26045501145E+03  0.34075498234E+03  0.14873765952E+03 0.  0.
        -11    1    4    4    0    0  0.11287737050E+02 -0.55481913780E+02 -0.33145477260E+00  0.56619480985E+02  0.51100000000E-03 0. -1.
     200002    1    4    4    0    0 -0.26070935087E+02 -0.10556376513E+03  0.26078646622E+03  0.28413550136E+03  0.30000000000E+02 0. -1.
     200000    1    3    3    0    0  0.72888588277E+02 -0.14578587689E+03  0.26423194035E+03  0.58854463425E+03  0.50000000000E+03 0. -1.
    -200001    1    1    2    0    0 -0.58105390240E+02  0.30683155581E+03  0.56065925833E+03  0.94966343721E+03  0.70000000000E+03 0. -1.
<mgrwt>
<rscale>  0 0.15337946E+04</rscale>
<asrwt>0</asrwt>
<pdfrwt beam="1">  1        2 0.21173637E+00 0.15337946E+04</pdfrwt>
<pdfrwt beam="2">  1       -2 0.56686918E-01 0.15337946E+04</pdfrwt>
<totfact> 0.42102044E+01</totfact>
</mgrwt>
</event>
<event>
 8    1  0.2654897E-009  0.1923941E+04  0.7818608E-02  0.8643030E-01
         -2   -1    0    0    0  501 -0.00000000000E+00  0.00000000000E+00  0.52099572598E+03  0.52099572599E+03  0.25500000000E-02 0. -1.
          2   -1    0    0  501    0  0.00000000000E+00 -0.00000000000E+00 -0.17761903207E+04  0.17761903207E+04  0.25500000000E-02 0.  1.
     200001    2    1    2    0    0  0.18904045548E+03 -0.25461881736E+03  0.63530822245E+02  0.77088209227E+03  0.69975424175E+03 0.  0.
    5000001    2    3    3    0    0  0.10445170806E+02 -0.10771666780E+03  0.19457774479E+02  0.21823487135E+03  0.18850960710E+03 0.  0.
        -11    1    4    4    0    0 -0.48259851500E+02  0.53859852030E+01 -0.50283386603E+02  0.69903083423E+02  0.51100000000E-03 0. -1.
     200002    1    4    4    0    0  0.58705022307E+02 -0.11310265300E+03  0.69741161082E+02  0.14833178792E+03  0.30000000000E+02 0. -1.
     200000    1    3    3    0    0  0.17859528467E+03 -0.14690214957E+03  0.44073047766E+02  0.55264722092E+03  0.50000000000E+03 0. -1.
    -200001    1    1    2    0    0 -0.18904045548E+03  0.25461881736E+03 -0.13187254170E+04  0.15263039545E+04  0.70000000000E+03 0.  1.
<mgrwt>
<rscale>  0 0.19239413E+04</rscale>
<asrwt>0</asrwt>
<pdfrwt beam="1">  1        2 0.25374147E+00 0.19239413E+04</pdfrwt>
<pdfrwt beam="2">  1       -2 0.74427962E-01 0.19239413E+04</pdfrwt>
<totfact> 0.15952022E+01</totfact>
</mgrwt>
</event>
<event>
 8    1  0.2654897E-009  0.1479647E+04  0.7818608E-02  0.8898101E-01
          2   -1    0    0  501    0  0.00000000000E+00  0.00000000000E+00  0.98792624711E+03  0.98792624711E+03  0.25500000000E-02 0.  1.
         -2   -1    0    0    0  501 -0.00000000000E+00 -0.00000000000E+00 -0.55402804561E+03  0.55402804562E+03  0.25500000000E-02 0. -1.
     200001    2    1    2    0    0 -0.32304203649E+02 -0.88659522431E+02  0.44569010782E+03  0.83552445082E+03  0.70039800344E+03 0.  0.
    5000001    2    3    3    0    0 -0.20164396022E+02 -0.86159674369E+01  0.17882823981E+03  0.26301278961E+03  0.19161250059E+03 0.  0.
        -11    1    4    4    0    0 -0.80405357989E+02  0.42820625960E+02  0.38065536106E+02  0.98729998684E+02  0.51100000000E-03 0. -1.
     200002    1    4    4    0    0  0.60240961967E+02 -0.51436593397E+02  0.14076270371E+03  0.16428279093E+03  0.30000000000E+02 0. -1.
     200000    1    3    3    0    0 -0.12139807627E+02 -0.80043554994E+02  0.26686186800E+03  0.57251166121E+03  0.50000000000E+03 0.  1.
    -200001    1    1    2    0    0  0.32304203649E+02  0.88659522431E+02 -0.11791906319E+02  0.70642984191E+03  0.70000000000E+03 0. -1.
<mgrwt>
<rscale>  0 0.14796470E+04</rscale>
<asrwt>0</asrwt>
<pdfrwt beam="1">  1        2 0.14113232E+00 0.14796470E+04</pdfrwt>
<pdfrwt beam="2">  1       -2 0.79146863E-01 0.14796470E+04</pdfrwt>
<totfact> 0.39232088E+01</totfact>
</mgrwt>
</event>
<event>
 8    1  0.2654897E-009  0.1807749E+04  0.7818608E-02  0.8702189E-01
         -2   -1    0    0    0  501 -0.00000000000E+00  0.00000000000E+00  0.54226707896E+03  0.54226707897E+03  0.25500000000E-02 0. -1.
          2   -1    0    0  501    0  0.00000000000E+00 -0.00000000000E+00 -0.15066183956E+04  0.15066183956E+04  0.25500000000E-02 0.  1.
     200001    2    1    2    0    0  0.82349759893E+02 -0.16762353643E+03 -0.10945245388E+04  0.13127983869E+04  0.70041166874E+03 0.  0.
    5000001    2    3    3    0    0  0.62750119689E+02 -0.19892926559E+01 -0.45287824510E+02  0.13861078213E+03  0.11498011596E+03 0.  0.
        -11    1    4    4    0    0  0.39662651114E+02 -0.53798102479E+02 -0.23172010449E+02  0.70741103979E+02  0.51100000000E-03 0. -1.
     200002    1    4    4    0    0  0.23087468575E+02  0.51808809823E+02 -0.22115814061E+02  0.67869678149E+02  0.30000000000E+02 0. -1.
     200000    1    3    3    0    0  0.19599640204E+02 -0.16563424377E+03 -0.10492367143E+04  0.11741876048E+04  0.50000000000E+03 0.  1.
    -200001    1    1    2    0    0 -0.82349759893E+02  0.16762353643E+03  0.13017322212E+03  0.73608708770E+03  0.70000000000E+03 0. -1.
<mgrwt>
<rscale>  0 0.18077495E+04</rscale>
<asrwt>0</asrwt>
<pdfrwt beam="1">  1        2 0.21523120E+00 0.18077495E+04</pdfrwt>
<pdfrwt beam="2">  1       -2 0.77466726E-01 0.18077495E+04</pdfrwt>
<totfact> 0.20389731E+01</totfact>
</mgrwt>
</event>
<event>
 8    1  0.2654897E-009  0.1484137E+04  0.7818608E-02  0.8895070E-01
          2   -1    0    0  501    0  0.00000000000E+00  0.00000000000E+00  0.22049336617E+04  0.22049336617E+04  0.25500000000E-02 0.  1.
         -2   -1    0    0    0  501 -0.00000000000E+00 -0.00000000000E+00 -0.24974262380E+03  0.24974262381E+03  0.25500000000E-02 0. -1.
     200001    2    1    2    0    0  0.17432663553E+02  0.83988550068E+02  0.13573153242E+04  0.15301151229E+04  0.70113438503E+03 0.  0.
    5000001    2    3    3    0    0  0.77973691313E+01 -0.37442611565E+01  0.28622620834E+03  0.34477897688E+03  0.19202156676E+03 0.  0.
        -11    1    4    4    0    0 -0.68578662591E+02 -0.18689720679E+00  0.28470905715E+02  0.74254025923E+02  0.51100000000E-03 0. -1.
     200002    1    4    4    0    0  0.76376031722E+02 -0.35573639497E+01  0.25775530262E+03  0.27052495096E+03  0.30000000000E+02 0. -1.
     200000    1    3    3    0    0  0.96352944218E+01  0.87732811224E+02  0.10710891159E+04  0.11853361461E+04  0.50000000000E+03 0.  1.
    -200001    1    1    2    0    0 -0.17432663553E+02 -0.83988550068E+02  0.59787571373E+03  0.92456116259E+03  0.70000000000E+03 0. -1.
<mgrwt>
<rscale>  0 0.14841373E+04</rscale>
<asrwt>0</asrwt>
<pdfrwt beam="1">  1        2 0.31499053E+00 0.14841373E+04</pdfrwt>
<pdfrwt beam="2">  1       -2 0.35677517E-01 0.14841373E+04</pdfrwt>
<totfact> 0.44991862E+01</totfact>
</mgrwt>
</event>
<event>
 8    1  0.2654897E-009  0.1658288E+04  0.7818608E-02  0.8785518E-01
         -2   -1    0    0    0  501 -0.00000000000E+00  0.00000000000E+00  0.63329845150E+03  0.63329845150E+03  0.25500000000E-02 0. -1.
          2   -1    0    0  501    0  0.00000000000E+00 -0.00000000000E+00 -0.10855546932E+04  0.10855546932E+04  0.25500000000E-02 0.  1.
     200001    2    1    2    0    0  0.36734439611E+03 -0.19470802456E+03 -0.64024354626E+02  0.81686804600E+03  0.70022936700E+03 0.  0.
    5000001    2    3    3    0    0  0.92830316274E+02 -0.27591563371E+02 -0.56161070269E+02  0.22243745891E+03  0.19221237037E+03 0.  0.
        -11    1    4    4    0    0  0.11127244909E+03 -0.72695560148E+02 -0.85592287449E+02  0.15808934835E+03  0.51100000000E-03 0. -1.
     200002    1    4    4    0    0 -0.18442132815E+02  0.45103996777E+02  0.29431217180E+02  0.64348110561E+02  0.30000000000E+02 0. -1.
     200000    1    3    3    0    0  0.27451407984E+03 -0.16711646118E+03 -0.78632843575E+01  0.59443058709E+03  0.50000000000E+03 0. -1.
    -200001    1    1    2    0    0 -0.36734439611E+03  0.19470802456E+03 -0.38823188711E+03  0.90198509874E+03  0.70000000000E+03 0. -1.
<mgrwt>
<rscale>  0 0.16582884E+04</rscale>
<asrwt>0</asrwt>
<pdfrwt beam="1">  1        2 0.15507924E+00 0.16582884E+04</pdfrwt>
<pdfrwt beam="2">  1       -2 0.90471207E-01 0.16582884E+04</pdfrwt>
<totfact> 0.24906420E+01</totfact>
</mgrwt>
</event>
<event>
 8    1  0.2654897E-009  0.3785467E+04  0.7818608E-02  0.8049281E-01
          2   -1    0    0  501    0  0.00000000000E+00  0.00000000000E+00  0.31451824772E+04  0.31451824772E+04  0.25500000000E-02 0.  1.
         -2   -1    0    0    0  501 -0.00000000000E+00 -0.00000000000E+00 -0.11390245482E+04  0.11390245482E+04  0.25500000000E-02 0. -1.
     200001    2    1    2    0    0 -0.11578351476E+04  0.11798089655E+04  0.16840171760E+04  0.24603906726E+04  0.69647468608E+03 0.  0.
    5000001    2    3    3    0    0 -0.21683230681E+03  0.15268542418E+03  0.18626130991E+03  0.35474546265E+03  0.14429823169E+03 0.  0.
        -11    1    4    4    0    0 -0.25510622500E+02  0.67394985669E+02 -0.11591873819E+01  0.72070934983E+02  0.51100000000E-03 0. -1.
     200002    1    4    4    0    0 -0.19132168430E+03  0.85290438511E+02  0.18742049729E+03  0.28267452767E+03  0.30000000000E+02 0. -1.
     200000    1    3    3    0    0 -0.94100284084E+03  0.10271235413E+04  0.14977558661E+04  0.21056452099E+04  0.50000000000E+03 0.  1.
    -200001    1    1    2    0    0  0.11578351476E+04 -0.11798089655E+04  0.32214075306E+03  0.18238163529E+04  0.70000000000E+03 0. -1.
<mgrwt>
<rscale>  0 0.37854670E+04</rscale>
<asrwt>0</asrwt>
<pdfrwt beam="1">  1        2 0.44931179E+00 0.37854670E+04</pdfrwt>
<pdfrwt beam="2">  1       -2 0.16271779E+00 0.37854670E+04</pdfrwt>
<totfact> 0.38039544E-01</totfact>
</mgrwt>
</event>
<event>
 8    1  0.2654897E-009  0.1450173E+04  0.7818608E-02  0.8918280E-01
         -2   -1    0    0    0  501 -0.00000000000E+00  0.00000000000E+00  0.69101909119E+03  0.69101909120E+03  0.25500000000E-02 0. -1.
          2   -1    0    0  501    0  0.00000000000E+00 -0.00000000000E+00 -0.76083370384E+03  0.76083370385E+03  0.25500000000E-02 0.  1.
     200001    2    1    2    0    0 -0.10803838145E+03  0.17015664747E+02  0.11890261685E+03  0.71865703849E+03  0.70026300914E+03 0.  0.
    5000001    2    3    3    0    0  0.47049356402E+01 -0.20209063780E+02 -0.31015957441E+02  0.18333254355E+03  0.17949453817E+03 0.  0.
        -11    1    4    4    0    0 -0.27945689754E+02 -0.24667665814E+01 -0.97509667784E+02  0.10146517543E+03  0.51100000000E-03 0. -1.
     200002    1    4    4    0    0  0.32650625394E+02 -0.17742297199E+02  0.66493710343E+02  0.81867368125E+02  0.30000000000E+02 0. -1.
     200000    1    3    3    0    0 -0.11274331709E+03  0.37224728527E+02  0.14991857429E+03  0.53532449494E+03  0.50000000000E+03 0. -1.
    -200001    1    1    2    0    0  0.10803838145E+03 -0.17015664747E+02 -0.18871722950E+03  0.73319575655E+03  0.70000000000E+03 0.  1.
<mgrwt>
<rscale>  0 0.14501733E+04</rscale>
<asrwt>0</asrwt>
<pdfrwt beam="1">  1        2 0.10869053E+00 0.14501733E+04</pdfrwt>
<pdfrwt beam="2">  1       -2 0.98717013E-01 0.14501733E+04</pdfrwt>
<totfact> 0.33548546E+01</totfact>
</mgrwt>
</event>
<event>
 8    1  0.2654897E-009  0.1551013E+04  0.7818608E-02  0.8851221E-01
         -2   -1    0    0    0  501 -0.00000000000E+00  0.00000000000E+00  0.86935895589E+03  0.86935895589E+03  0.25500000000E-02 0. -1.
          2   -1    0    0  501    0  0.00000000000E+00 -0.00000000000E+00 -0.69178556514E+03  0.69178556514E+03  0.25500000000E-02 0.  1.
     200001    2    1    2    0    0 -0.56597409531E+02  0.32681383065E+03  0.12023786322E+03  0.78442197766E+03  0.70060698584E+03 0.  0.
    5000001    2    3    3    0    0  0.19577833706E+01  0.14169504427E+03  0.10788099571E+03  0.24790509269E+03  0.17244508476E+03 0.  0.
        -11    1    4    4    0    0  0.28739004320E+02  0.33545844672E+01  0.99469929005E+02  0.10359271395E+03  0.51100000000E-03 0. -1.
     200002    1    4    4    0    0 -0.26781220949E+02  0.13834045981E+03  0.84110667101E+01  0.14431237874E+03  0.30000000000E+02 0. -1.
     200000    1    3    3    0    0 -0.58555192902E+02  0.18511878638E+03  0.12356867503E+02  0.53651688497E+03  0.50000000000E+03 0. -1.
    -200001    1    1    2    0    0  0.56597409531E+02 -0.32681383065E+03  0.57335527537E+02  0.77672254338E+03  0.70000000000E+03 0.  1.
<mgrwt>
<rscale>  0 0.15510125E+04</rscale>
<asrwt>0</asrwt>
<pdfrwt beam="1">  1        2 0.98826509E-01 0.15510125E+04</pdfrwt>
<pdfrwt beam="2">  1       -2 0.12419414E+00 0.15510125E+04</pdfrwt>
<totfact> 0.21465521E+01</totfact>
</mgrwt>
</event>
<event>
 8    1  0.2654897E-009  0.2271989E+04  0.7818608E-02  0.8489048E-01
          2   -1    0    0  501    0  0.00000000000E+00  0.00000000000E+00  0.66040710444E+03  0.66040710444E+03  0.25500000000E-02 0. -1.
         -2   -1    0    0    0  501 -0.00000000000E+00 -0.00000000000E+00 -0.19540727744E+04  0.19540727744E+04  0.25500000000E-02 0.  1.
     200001    2    1    2    0    0  0.44661045952E+03  0.21988327405E+03  0.20872993453E+03  0.88387243949E+03  0.69989481135E+03 0.  0.
    5000001    2    3    3    0    0 -0.86944051362E+01  0.49283170889E+02  0.59537286156E+02  0.17066464276E+03  0.15191217276E+03 0.  0.
        -11    1    4    4    0    0 -0.15672356093E+02  0.81346852054E+02  0.85603983485E+02  0.11912587911E+03  0.51100000000E-03 0. -1.
     200002    1    4    4    0    0  0.69779509563E+01 -0.32063681165E+02 -0.26066697329E+02  0.51538763655E+02  0.30000000000E+02 0. -1.
     200000    1    3    3    0    0  0.45530486466E+03  0.17060010316E+03  0.14919264838E+03  0.71320779672E+03  0.50000000000E+03 0. -1.
    -200001    1    1    2    0    0 -0.44661045952E+03 -0.21988327405E+03 -0.15023956045E+04  0.17306074394E+04  0.70000000000E+03 0.  1.
<mgrwt>
<rscale>  0 0.22719890E+04</rscale>
<asrwt>0</asrwt>
<pdfrwt beam="1">  1        2 0.94343873E-01 0.22719890E+04</pdfrwt>
<pdfrwt beam="2">  1       -2 0.27915325E+00 0.22719890E+04</pdfrwt>
<totfact> 0.18802183E+00</totfact>
</mgrwt>
</event>
<event>
 8    1  0.2654897E-009  0.2252270E+04  0.7818608E-02  0.8496982E-01
          2   -1    0    0  501    0  0.00000000000E+00  0.00000000000E+00  0.71546389141E+03  0.71546389142E+03  0.25500000000E-02 0.  1.
         -2   -1    0    0    0  501 -0.00000000000E+00 -0.00000000000E+00 -0.17725287178E+04  0.17725287178E+04  0.25500000000E-02 0. -1.
     200001    2    1    2    0    0 -0.61284683940E+03  0.60555990165E+03 -0.32072021073E+03  0.11558937255E+04  0.70067453784E+03 0.  0.
    5000001    2    3    3    0    0 -0.17055187572E+03  0.73604256534E+02 -0.15230478192E+03  0.28585614012E+03  0.15495630790E+03 0.  0.
        -11    1    4    4    0    0 -0.16246811323E+03  0.27924429628E+02 -0.54677079751E+02  0.17368144586E+03  0.51100000000E-03 0. -1.
     200002    1    4    4    0    0 -0.80837624933E+01  0.45679826906E+02 -0.97627702168E+02  0.11217469426E+03  0.30000000000E+02 0. -1.
     200000    1    3    3    0    0 -0.44229496368E+03  0.53195564512E+03 -0.16841542881E+03  0.87003758535E+03  0.50000000000E+03 0. -1.
    -200001    1    1    2    0    0  0.61284683940E+03 -0.60555990165E+03 -0.73634461566E+03  0.13320988837E+04  0.70000000000E+03 0.  1.
<mgrwt>
<rscale>  0 0.22522702E+04</rscale>
<asrwt>0</asrwt>
<pdfrwt beam="1">  1        2 0.10220913E+00 0.22522702E+04</pdfrwt>
<pdfrwt beam="2">  1       -2 0.25321839E+00 0.22522702E+04</pdfrwt>
<totfact> 0.24576851E+00</totfact>
</mgrwt>
</event>
<event>
 8    1  0.2654897E-009  0.1429555E+04  0.7818608E-02  0.8932699E-01
         -2   -1    0    0    0  501 -0.00000000000E+00  0.00000000000E+00  0.28071024453E+03  0.28071024455E+03  0.25500000000E-02 0. -1.
          2   -1    0    0  501    0  0.00000000000E+00 -0.00000000000E+00 -0.18200507990E+04  0.18200507990E+04  0.25500000000E-02 0.  1.
     200001    2    1    2    0    0  0.68187545307E+02 -0.58583218935E+01 -0.58131955182E+03  0.91227961635E+03  0.69974124918E+03 0.  0.
    5000001    2    3    3    0    0  0.52832261663E+02 -0.58342541579E+02 -0.11727913312E+03  0.22793767825E+03  0.17890245965E+03 0.  0.
        -11    1    4    4    0    0  0.86951577355E+02 -0.66741580015E+02 -0.87243634241E+01  0.10995967363E+03  0.51100000000E-03 0. -1.
     200002    1    4    4    0    0 -0.34119315692E+02  0.83990384364E+01 -0.10855476970E+03  0.11797800462E+03  0.30000000000E+02 0. -1.
     200000    1    3    3    0    0  0.15355283644E+02  0.52484219685E+02 -0.46404041870E+03  0.68434193810E+03  0.50000000000E+03 0. -1.
    -200001    1    1    2    0    0 -0.68187545307E+02  0.58583218935E+01 -0.95802100260E+03  0.11884814272E+04  0.70000000000E+03 0.  1.
<mgrwt>
<rscale>  0 0.14295550E+04</rscale>
<asrwt>0</asrwt>
<pdfrwt beam="1">  1        2 0.26000725E+00 0.14295550E+04</pdfrwt>
<pdfrwt beam="2">  1       -2 0.40101464E-01 0.14295550E+04</pdfrwt>
<totfact> 0.56843774E+01</totfact>
</mgrwt>
</event>
<event>
 8    1  0.2654897E-009  0.1615872E+04  0.7818608E-02  0.8810856E-01
          2   -1    0    0  501    0  0.00000000000E+00  0.00000000000E+00  0.58646769135E+03  0.58646769135E+03  0.25500000000E-02 0.  1.
         -2   -1    0    0    0  501 -0.00000000000E+00 -0.00000000000E+00 -0.11130373250E+04  0.11130373250E+04  0.25500000000E-02 0. -1.
     200001    2    1    2    0    0  0.52723049519E+02 -0.39351617223E+03 -0.18431075896E+03  0.82499038806E+03  0.69928820008E+03 0.  0.
    5000001    2    3    3    0    0 -0.37758069637E+02 -0.77215532164E+02  0.32742293385E+02  0.18832332015E+03  0.16433412581E+03 0.  0.
        -11    1    4    4    0    0 -0.38120712919E+02 -0.43958396541E+01 -0.57132388607E+02  0.68823121027E+02  0.51100000000E-03 0. -1.
     200002    1    4    4    0    0  0.36264328170E+00 -0.72819692510E+02  0.89874681992E+02  0.11950019912E+03  0.30000000000E+02 0. -1.
     200000    1    3    3    0    0  0.90481119156E+02 -0.31630064007E+03 -0.21705305234E+03  0.63666706791E+03  0.50000000000E+03 0.  1.
    -200001    1    1    2    0    0 -0.52723049519E+02  0.39351617223E+03 -0.34225887466E+03  0.87451462826E+03  0.70000000000E+03 0. -1.
<mgrwt>
<rscale>  0 0.16158718E+04</rscale>
<asrwt>0</asrwt>
<pdfrwt beam="1">  1        2 0.83781099E-01 0.16158718E+04</pdfrwt>
<pdfrwt beam="2">  1       -2 0.15900533E+00 0.16158718E+04</pdfrwt>
<totfact> 0.13702743E+01</totfact>
</mgrwt>
</event>
<event>
 8    1  0.2654897E-009  0.1792758E+04  0.7818608E-02  0.8710160E-01
          2   -1    0    0  501    0  0.00000000000E+00  0.00000000000E+00  0.46124964659E+03  0.46124964659E+03  0.25500000000E-02 0.  1.
         -2   -1    0    0    0  501 -0.00000000000E+00 -0.00000000000E+00 -0.17419974347E+04  0.17419974347E+04  0.25500000000E-02 0. -1.
     200001    2    1    2    0    0 -0.52858788342E+03 -0.31323781294E+02 -0.86306058090E+03  0.12312136802E+04  0.70044787829E+03 0.  0.
    5000001    2    3    3    0    0 -0.20121368244E+03 -0.58878692599E+02 -0.22881931436E+03  0.35932198692E+03  0.18110871105E+03 0.  0.
        -11    1    4    4    0    0 -0.17568069640E+03 -0.22686463968E+02 -0.67838334625E+02  0.18968506103E+03  0.51100000000E-03 0. -1.
     200002    1    4    4    0    0 -0.25532986049E+02 -0.36192228630E+02 -0.16098097973E+03  0.16963692589E+03  0.30000000000E+02 0. -1.
     200000    1    3    3    0    0 -0.32737420098E+03  0.27554911304E+02 -0.63424126655E+03  0.87189169327E+03  0.50000000000E+03 0.  1.
    -200001    1    1    2    0    0  0.52858788342E+03  0.31323781294E+02 -0.41768720719E+03  0.97203340108E+03  0.70000000000E+03 0.  1.
<mgrwt>
<rscale>  0 0.17927584E+04</rscale>
<asrwt>0</asrwt>
<pdfrwt beam="1">  1        2 0.65892807E-01 0.17927584E+04</pdfrwt>
<pdfrwt beam="2">  1       -2 0.24885677E+00 0.17927584E+04</pdfrwt>
<totfact> 0.45548275E+00</totfact>
</mgrwt>
</event>
<event>
 8    1  0.2654897E-009  0.1952678E+04  0.7818608E-02  0.8629070E-01
         -2   -1    0    0    0  501 -0.00000000000E+00  0.00000000000E+00  0.45046155707E+03  0.45046155708E+03  0.25500000000E-02 0. -1.
          2   -1    0    0  501    0  0.00000000000E+00 -0.00000000000E+00 -0.21161359917E+04  0.21161359917E+04  0.25500000000E-02 0.  1.
     200001    2    1    2    0    0  0.28577466136E+03 -0.36071409316E+02 -0.16435017677E+04  0.18093261768E+04  0.69971054731E+03 0.  0.
    5000001    2    3    3    0    0  0.61227965354E+02 -0.66419517463E+02 -0.36544370366E+03  0.41836440832E+03  0.18253564463E+03 0.  0.
        -11    1    4    4    0    0  0.98493910797E+01  0.61467311635E+02 -0.12370115793E+03  0.13848183050E+03  0.51100000000E-03 0. -1.
     200002    1    4    4    0    0  0.51378574274E+02 -0.12788682910E+03 -0.24174254573E+03  0.27988257782E+03  0.30000000000E+02 0. -1.
     200000    1    3    3    0    0  0.22454669601E+03  0.30348108147E+02 -0.12780580640E+04  0.13909617685E+04  0.50000000000E+03 0.  1.
    -200001    1    1    2    0    0 -0.28577466136E+03  0.36071409316E+02 -0.22172666934E+02  0.75727137197E+03  0.70000000000E+03 0. -1.
<mgrwt>
<rscale>  0 0.19526781E+04</rscale>
<asrwt>0</asrwt>
<pdfrwt beam="1">  1        2 0.30230514E+00 0.19526781E+04</pdfrwt>
<pdfrwt beam="2">  1       -2 0.64351652E-01 0.19526781E+04</pdfrwt>
<totfact> 0.14589512E+01</totfact>
</mgrwt>
</event>
<event>
 8    1  0.2654897E-009  0.2011014E+04  0.7818608E-02  0.8601489E-01
          2   -1    0    0  501    0  0.00000000000E+00  0.00000000000E+00  0.10961081737E+04  0.10961081737E+04  0.25500000000E-02 0.  1.
         -2   -1    0    0    0  501 -0.00000000000E+00 -0.00000000000E+00 -0.92239463212E+03  0.92239463213E+03  0.25500000000E-02 0. -1.
     200001    2    1    2    0    0 -0.38814963889E+03 -0.30125481593E+03 -0.44411511580E+03  0.96345453385E+03  0.69970836526E+03 0.  0.
    5000001    2    3    3    0    0 -0.33740209365E+02 -0.13965624817E+03 -0.21067739572E+03  0.28801888925E+03  0.13389416013E+03 0.  0.
        -11    1    4    4    0    0 -0.78350886268E+02 -0.65235046920E+02 -0.13417139948E+03  0.16851242436E+03  0.51100000000E-03 0. -1.
     200002    1    4    4    0    0  0.44610676903E+02 -0.74421201254E+02 -0.76505996237E+02  0.11950646489E+03  0.30000000000E+02 0. -1.
     200000    1    3    3    0    0 -0.35440942953E+03 -0.16159856775E+03 -0.23343772009E+03  0.67543564460E+03  0.50000000000E+03 0. -1.
    -200001    1    1    2    0    0  0.38814963889E+03  0.30125481593E+03  0.61782865733E+03  0.10550482719E+04  0.70000000000E+03 0.  1.
<mgrwt>
<rscale>  0 0.20110140E+04</rscale>
<asrwt>0</asrwt>
<pdfrwt beam="1">  1        2 0.15658688E+00 0.20110140E+04</pdfrwt>
<pdfrwt beam="2">  1       -2 0.13177066E+00 0.20110140E+04</pdfrwt>
<totfact> 0.96061212E+00</totfact>
</mgrwt>
</event>
<event>
 8    1  0.2654897E-009  0.2668869E+04  0.7818608E-02  0.8345177E-01
          2   -1    0    0  501    0  0.00000000000E+00  0.00000000000E+00  0.32142810293E+04  0.32142810293E+04  0.25500000000E-02 0.  1.
         -2   -1    0    0    0  501 -0.00000000000E+00 -0.00000000000E+00 -0.55400101779E+03  0.55400101780E+03  0.25500000000E-02 0. -1.
     200001    2    1    2    0    0  0.98410658591E+03 -0.51495278043E+03  0.16680790491E+04  0.21226499837E+04  0.69965212820E+03 0.  0.
    5000001    2    3    3    0    0  0.21165246357E+03 -0.13655003726E+03  0.36573139098E+03  0.48375296742E+03  0.19187184559E+03 0.  0.
        -11    1    4    4    0    0 -0.22158438011E+02 -0.58622231490E+02  0.40617265300E+02  0.74681487938E+02  0.51100000000E-03 0. -1.
     200002    1    4    4    0    0  0.23381090158E+03 -0.77927805774E+02  0.32511412568E+03  0.40907147948E+03  0.30000000000E+02 0. -1.
     200000    1    3    3    0    0  0.77245412235E+03 -0.37840274317E+03  0.13023476581E+04  0.16388970162E+04  0.50000000000E+03 0.  1.
    -200001    1    1    2    0    0 -0.98410658591E+03  0.51495278043E+03  0.99220096241E+03  0.16456320635E+04  0.70000000000E+03 0.  1.
<mgrwt>
<rscale>  0 0.26688686E+04</rscale>
<asrwt>0</asrwt>
<pdfrwt beam="1">  1        2 0.45918299E+00 0.26688686E+04</pdfrwt>
<pdfrwt beam="2">  1       -2 0.79143005E-01 0.26688686E+04</pdfrwt>
<totfact> 0.22289473E+00</totfact>
</mgrwt>
</event>
<event>
 8    1  0.2654897E-009  0.1456538E+04  0.7818608E-02  0.8913881E-01
          2   -1    0    0  501    0  0.00000000000E+00  0.00000000000E+00  0.15692699772E+04  0.15692699772E+04  0.25500000000E-02 0.  1.
         -2   -1    0    0    0  501 -0.00000000000E+00 -0.00000000000E+00 -0.33797600518E+03  0.33797600519E+03  0.25500000000E-02 0. -1.
     200001    2    1    2    0    0 -0.16134443098E+03  0.30484504720E+02  0.77407630461E+03  0.10551841737E+04  0.69803881311E+03 0.  0.
    5000001    2    3    3    0    0 -0.43973160225E+02  0.13008138018E+03  0.21981950899E+03  0.29301874001E+03  0.13669148172E+03 0.  0.
        -11    1    4    4    0    0  0.34919593510E+01  0.12762817911E+03  0.10547819145E+03  0.16561037032E+03  0.51100000000E-03 0. -1.
     200002    1    4    4    0    0 -0.47465119576E+02  0.24532010688E+01  0.11434131753E+03  0.12740836969E+03  0.30000000000E+02 0. -1.
     200000    1    3    3    0    0 -0.11737127076E+03 -0.99596875463E+02  0.55425679563E+03  0.76216543368E+03  0.50000000000E+03 0. -1.
    -200001    1    1    2    0    0  0.16134443098E+03 -0.30484504720E+02  0.45721766739E+03  0.85206180868E+03  0.70000000000E+03 0.  1.
<mgrwt>
<rscale>  0 0.14565378E+04</rscale>
<asrwt>0</asrwt>
<pdfrwt beam="1">  1        2 0.22418143E+00 0.14565378E+04</pdfrwt>
<pdfrwt beam="2">  1       -2 0.48282285E-01 0.14565378E+04</pdfrwt>
<totfact> 0.52959383E+01</totfact>
</mgrwt>
</event>
<event>
 8    1  0.2679019E-009  0.1588858E+04  0.7818608E-02  0.8827422E-01
          2   -1    0    0  501    0  0.00000000000E+00  0.00000000000E+00  0.13045143897E+04  0.13045143897E+04  0.25500000000E-02 0.  1.
         -2   -1    0    0    0  501 -0.00000000000E+00 -0.00000000000E+00 -0.48379476577E+03  0.48379476578E+03  0.25500000000E-02 0. -1.
     200001    2    1    2    0    0 -0.24145996917E+03  0.28663198759E+03  0.41223406652E+03  0.89538067925E+03  0.70093424952E+03 0.  0.
    5000001    2    3    3    0    0 -0.87001800939E+02 -0.12660371713E+02  0.70595121164E+02  0.20245181490E+03  0.16814716128E+03 0.  0.
        -11    1    4    4    0    0 -0.69853712943E+02  0.48180218717E+01 -0.43182617157E+02  0.82264773576E+02  0.51100000000E-03 0. -1.
     200002    1    4    4    0    0 -0.17148087996E+02 -0.17478393584E+02  0.11377773832E+03  0.12018704132E+03  0.30000000000E+02 0. -1.
     200000    1    3    3    0    0 -0.15445816823E+03  0.29929235930E+03  0.34163894535E+03  0.69292886435E+03  0.50000000000E+03 0. -1.
    -200001    1    1    2    0    0  0.24145996917E+03 -0.28663198759E+03  0.40848555739E+03  0.89292847620E+03  0.70000000000E+03 0.  1.
<mgrwt>
<rscale>  0 0.15888577E+04</rscale>
<asrwt>0</asrwt>
<pdfrwt beam="1">  1        2 0.18635920E+00 0.15888577E+04</pdfrwt>
<pdfrwt beam="2">  1       -2 0.69113538E-01 0.15888577E+04</pdfrwt>
<totfact> 0.34313398E+01</totfact>
</mgrwt>
</event>
<event>
 8    1  0.2654897E-009  0.2062797E+04  0.7818608E-02  0.8577811E-01
          2   -1    0    0  501    0  0.00000000000E+00  0.00000000000E+00  0.19185739724E+04  0.19185739724E+04  0.25500000000E-02 0.  1.
         -2   -1    0    0    0  501 -0.00000000000E+00 -0.00000000000E+00 -0.55446519994E+03  0.55446519994E+03  0.25500000000E-02 0. -1.
     200001    2    1    2    0    0  0.30812695212E+03  0.82160064116E+02  0.15058387445E+04  0.16908755835E+04  0.69986957328E+03 0.  0.
    5000001    2    3    3    0    0  0.63386657852E+02  0.51265654401E+02  0.30584037583E+03  0.36767931648E+03  0.18709278063E+03 0.  0.
        -11    1    4    4    0    0  0.48844462644E+02  0.20011601139E+02  0.31640371240E+03  0.32077648750E+03  0.51100000000E-03 0. -1.
     200002    1    4    4    0    0  0.14542195208E+02  0.31254053262E+02 -0.10563336572E+02  0.46902828980E+02  0.30000000000E+02 0. -1.
     200000    1    3    3    0    0  0.24474029427E+03  0.30894409715E+02  0.11999983686E+04  0.13231962670E+04  0.50000000000E+03 0.  1.
    -200001    1    1    2    0    0 -0.30812695212E+03 -0.82160064116E+02 -0.14172997204E+03  0.78216358886E+03  0.70000000000E+03 0. -1.
<mgrwt>
<rscale>  0 0.20627966E+04</rscale>
<asrwt>0</asrwt>
<pdfrwt beam="1">  1        2 0.27408200E+00 0.20627966E+04</pdfrwt>
<pdfrwt beam="2">  1       -2 0.79209314E-01 0.20627966E+04</pdfrwt>
<totfact> 0.11594133E+01</totfact>
</mgrwt>
</event>
<event>
 8    1  0.2654897E-009  0.1814235E+04  0.7818608E-02  0.8698766E-01
          2   -1    0    0  501    0  0.00000000000E+00  0.00000000000E+00  0.24691216947E+04  0.24691216947E+04  0.25500000000E-02 0.  1.
         -2   -1    0    0    0  501 -0.00000000000E+00 -0.00000000000E+00 -0.33326099787E+03  0.33326099788E+03  0.25500000000E-02 0. -1.
     200001    2    1    2    0    0 -0.13744393796E+03  0.23248753584E+03  0.28082667094E+03  0.80135982225E+03  0.70026613170E+03 0.  0.
    5000001    2    3    3    0    0 -0.46094380240E+02  0.99225899285E+02  0.13619170102E+03  0.25636195070E+03  0.18762409057E+03 0.  0.
        -11    1    4    4    0    0 -0.27573663732E+02  0.12154191801E+03  0.16417493543E+03  0.20612169752E+03  0.51100000000E-03 0. -1.
     200002    1    4    4    0    0 -0.18520716508E+02 -0.22316018728E+02 -0.27983234405E+02  0.50240253180E+02  0.30000000000E+02 0. -1.
     200000    1    3    3    0    0 -0.91349557717E+02  0.13326163655E+03  0.14463496991E+03  0.54499787155E+03  0.50000000000E+03 0. -1.
    -200001    1    1    2    0    0  0.13744393796E+03 -0.23248753584E+03  0.18550340259E+04  0.20010228703E+04  0.70000000000E+03 0.  1.
<mgrwt>
<rscale>  0 0.18142348E+04</rscale>
<asrwt>0</asrwt>
<pdfrwt beam="1">  1        2 0.35273167E+00 0.18142348E+04</pdfrwt>
<pdfrwt beam="2">  1       -2 0.47608714E-01 0.18142348E+04</pdfrwt>
<totfact> 0.18101172E+01</totfact>
</mgrwt>
</event>
<event>
 8    1  0.2654897E-009  0.1484052E+04  0.7818608E-02  0.8895128E-01
         -2   -1    0    0    0  501 -0.00000000000E+00  0.00000000000E+00  0.91678874252E+03  0.91678874252E+03  0.25500000000E-02 0. -1.
          2   -1    0    0  501    0  0.00000000000E+00 -0.00000000000E+00 -0.60057712172E+03  0.60057712172E+03  0.25500000000E-02 0.  1.
     200001    2    1    2    0    0 -0.19929532783E+03  0.55759056998E+02  0.30279537265E+03  0.78729210369E+03  0.69664633689E+03 0.  0.
    5000001    2    3    3    0    0 -0.61426596934E+02  0.59170283019E+02  0.92856191964E+02  0.22774417633E+03  0.18965966430E+03 0.  0.
        -11    1    4    4    0    0 -0.22585941437E+02  0.49320003933E+01 -0.56714671096E+02  0.61245434901E+02  0.51100000000E-03 0. -1.
     200002    1    4    4    0    0 -0.38840655497E+02  0.54238282625E+02  0.14957086306E+03  0.16649874143E+03  0.30000000000E+02 0. -1.
     200000    1    3    3    0    0 -0.13786873089E+03 -0.34112260202E+01  0.20993918069E+03  0.55954792736E+03  0.50000000000E+03 0. -1.
    -200001    1    1    2    0    0  0.19929532783E+03 -0.55759056998E+02  0.13416248144E+02  0.73007376055E+03  0.70000000000E+03 0.  1.
<mgrwt>
<rscale>  0 0.14840517E+04</rscale>
<asrwt>0</asrwt>
<pdfrwt beam="1">  1        2 0.85796731E-01 0.14840517E+04</pdfrwt>
<pdfrwt beam="2">  1       -2 0.13096982E+00 0.14840517E+04</pdfrwt>
<totfact> 0.22380873E+01</totfact>
</mgrwt>
</event>
<event>
 8    1  0.2654897E-009  0.1841130E+04  0.7818608E-02  0.8684728E-01
          2   -1    0    0  501    0  0.00000000000E+00  0.00000000000E+00  0.22066594899E+04  0.22066594899E+04  0.25500000000E-02 0.  1.
         -2   -1    0    0    0  501 -0.00000000000E+00 -0.00000000000E+00 -0.38403757527E+03  0.38403757528E+03  0.25500000000E-02 0. -1.
     200001    2    1    2    0    0  0.44105439489E+03 -0.40677623358E+02  0.34614609324E+03  0.89772202124E+03  0.69993146897E+03 0.  0.
    5000001    2    3    3    0    0  0.94304419700E+02  0.48193896448E+00  0.77310290086E+02  0.23123695469E+03  0.19646906225E+03 0.  0.
        -11    1    4    4    0    0 -0.52635450411E+01  0.81871782157E+02  0.50962065488E+02  0.96580669593E+02  0.51100000000E-03 0. -1.
     200002    1    4    4    0    0  0.99567964741E+02 -0.81389843193E+02  0.26348224598E+02  0.13465628510E+03  0.30000000000E+02 0. -1.
     200000    1    3    3    0    0  0.34674997519E+03 -0.41159562323E+02  0.26883580316E+03  0.66648506654E+03  0.50000000000E+03 0. -1.
    -200001    1    1    2    0    0 -0.44105439489E+03  0.40677623358E+02  0.14764758214E+04  0.16929750439E+04  0.70000000000E+03 0.  1.
<mgrwt>
<rscale>  0 0.18411303E+04</rscale>
<asrwt>0</asrwt>
<pdfrwt beam="1">  1        2 0.31523708E+00 0.18411303E+04</pdfrwt>
<pdfrwt beam="2">  1       -2 0.54862510E-01 0.18411303E+04</pdfrwt>
<totfact> 0.18506432E+01</totfact>
</mgrwt>
</event>
<event>
 8    1  0.2654897E-009  0.1622875E+04  0.7818608E-02  0.8806617E-01
         -2   -1    0    0    0  501 -0.00000000000E+00  0.00000000000E+00  0.68976509428E+03  0.68976509429E+03  0.25500000000E-02 0. -1.
          2   -1    0    0  501    0  0.00000000000E+00 -0.00000000000E+00 -0.95457198581E+03  0.95457198581E+03  0.25500000000E-02 0.  1.
     200001    2    1    2    0    0 -0.21433881860E+03 -0.98004949591E+02 -0.47254522115E+03  0.87706834433E+03  0.70028836581E+03 0.  0.
    5000001    2    3    3    0    0 -0.14504415429E+03 -0.43915538803E+01 -0.19678540511E+03  0.29430879314E+03  0.16381720794E+03 0.  0.
        -11    1    4    4    0    0  0.14963931657E+02  0.32806423664E+00  0.18856657469E+02  0.24074891649E+02  0.51100000000E-03 0. -1.
     200002    1    4    4    0    0 -0.16000808595E+03 -0.47196181169E+01 -0.21564206258E+03  0.27023390149E+03  0.30000000000E+02 0. -1.
     200000    1    3    3    0    0 -0.69294664306E+02 -0.93613395710E+02 -0.27575981604E+03  0.58275955119E+03  0.50000000000E+03 0.  1.
    -200001    1    1    2    0    0  0.21433881860E+03  0.98004949591E+02  0.20773832962E+03  0.76726873577E+03  0.70000000000E+03 0. -1.
<mgrwt>
<rscale>  0 0.16228745E+04</rscale>
<asrwt>0</asrwt>
<pdfrwt beam="1">  1        2 0.13636743E+00 0.16228745E+04</pdfrwt>
<pdfrwt beam="2">  1       -2 0.98537871E-01 0.16228745E+04</pdfrwt>
<totfact> 0.24616287E+01</totfact>
</mgrwt>
</event>
<event>
 8    1  0.2654897E-009  0.1795973E+04  0.7818608E-02  0.8708444E-01
         -2   -1    0    0    0  501 -0.00000000000E+00  0.00000000000E+00  0.50918261724E+03  0.50918261725E+03  0.25500000000E-02 0. -1.
          2   -1    0    0  501    0  0.00000000000E+00 -0.00000000000E+00 -0.15836757680E+04  0.15836757680E+04  0.25500000000E-02 0.  1.
     200001    2    1    2    0    0 -0.15755363732E+03  0.30679002420E+03 -0.10569977387E+04  0.13123141155E+04  0.69712326797E+03 0.  0.
    5000001    2    3    3    0    0 -0.22499937039E+02  0.33250384560E+02 -0.21189874705E+03  0.28408469463E+03  0.18490862468E+03 0.  0.
        -11    1    4    4    0    0 -0.58219268405E+02  0.33653330178E+02 -0.13730458841E+00  0.67246179806E+02  0.51100000000E-03 0. -1.
     200002    1    4    4    0    0  0.35719331366E+02 -0.40294561878E+00 -0.21176144246E+03  0.21683851482E+03  0.30000000000E+02 0. -1.
     200000    1    3    3    0    0 -0.13505370028E+03  0.27353963964E+03 -0.84509899161E+03  0.10282294209E+04  0.50000000000E+03 0.  1.
    -200001    1    1    2    0    0  0.15755363732E+03 -0.30679002420E+03 -0.17495412138E+02  0.78054426974E+03  0.70000000000E+03 0. -1.
<mgrwt>
<rscale>  0 0.17959735E+04</rscale>
<asrwt>0</asrwt>
<pdfrwt beam="1">  1        2 0.22623939E+00 0.17959735E+04</pdfrwt>
<pdfrwt beam="2">  1       -2 0.72740375E-01 0.17959735E+04</pdfrwt>
<totfact> 0.21360977E+01</totfact>
</mgrwt>
</event>
<event>
 8    1  0.2654897E-009  0.1888893E+04  0.7818608E-02  0.8660405E-01
          2   -1    0    0  501    0  0.00000000000E+00  0.00000000000E+00  0.42342085515E+03  0.42342085515E+03  0.25500000000E-02 0.  1.
         -2   -1    0    0    0  501 -0.00000000000E+00 -0.00000000000E+00 -0.21066021036E+04  0.21066021036E+04  0.25500000000E-02 0. -1.
     200001    2    1    2    0    0 -0.11612455165E+02  0.58192479582E+03 -0.11786105389E+04  0.14891757471E+04  0.69982161026E+03 0.  0.
    5000001    2    3    3    0    0  0.57545839069E+02  0.11417480136E+03 -0.30283536676E+03  0.37537366453E+03  0.18124215789E+03 0.  0.
        -11    1    4    4    0    0  0.51760654261E+02 -0.22424245785E+02 -0.20094208471E+02  0.59881460761E+02  0.51100000000E-03 0. -1.
     200002    1    4    4    0    0  0.57851848085E+01  0.13659904715E+03 -0.28274115829E+03  0.31549220377E+03  0.30000000000E+02 0. -1.
     200000    1    3    3    0    0 -0.69158294235E+02  0.46774999445E+03 -0.87577517210E+03  0.11138020825E+04  0.50000000000E+03 0. -1.
    -200001    1    1    2    0    0  0.11612455165E+02 -0.58192479582E+03 -0.50457070956E+03  0.10408472117E+04  0.70000000000E+03 0.  1.
<mgrwt>
<rscale>  0 0.18888931E+04</rscale>
<asrwt>0</asrwt>
<pdfrwt beam="1">  1        2 0.60488695E-01 0.18888931E+04</pdfrwt>
<pdfrwt beam="2">  1       -2 0.30094315E+00 0.18888931E+04</pdfrwt>
<totfact> 0.23953866E+00</totfact>
</mgrwt>
</event>
<event>
 8    1  0.2654897E-009  0.1730718E+04  0.7818608E-02  0.8744036E-01
          2   -1    0    0  501    0  0.00000000000E+00  0.00000000000E+00  0.16134700648E+04  0.16134700648E+04  0.25500000000E-02 0.  1.
         -2   -1    0    0    0  501 -0.00000000000E+00 -0.00000000000E+00 -0.46412142557E+03  0.46412142558E+03  0.25500000000E-02 0. -1.
     200001    2    1    2    0    0 -0.53105646153E+02  0.13115524488E+03 -0.12255367321E+02  0.71401319195E+03  0.69974476514E+03 0.  0.
    5000001    2    3    3    0    0  0.97587507144E+02  0.98856176545E+02  0.15293114553E+02  0.19007562399E+03  0.12883709983E+03 0.  0.
        -11    1    4    4    0    0  0.97472812898E+02  0.16267553412E+02  0.24246509632E+02  0.10175203083E+03  0.51100000000E-03 0. -1.
     200002    1    4    4    0    0  0.11469424575E+00  0.82588623133E+02 -0.89533950790E+01  0.88323593162E+02  0.30000000000E+02 0. -1.
     200000    1    3    3    0    0 -0.15069315330E+03  0.32299068335E+02 -0.27548481873E+02  0.52393756796E+03  0.50000000000E+03 0. -1.
    -200001    1    1    2    0    0  0.53105646153E+02 -0.13115524488E+03  0.11616040065E+04  0.13635782984E+04  0.70000000000E+03 0.  1.
<mgrwt>
<rscale>  0 0.17307178E+04</rscale>
<asrwt>0</asrwt>
<pdfrwt beam="1">  1        2 0.23049573E+00 0.17307178E+04</pdfrwt>
<pdfrwt beam="2">  1       -2 0.66303060E-01 0.17307178E+04</pdfrwt>
<totfact> 0.25343294E+01</totfact>
</mgrwt>
</event>
<event>
 8    1  0.2654897E-009  0.1472066E+04  0.7818608E-02  0.8903244E-01
          2   -1    0    0  501    0  0.00000000000E+00  0.00000000000E+00  0.28676267963E+04  0.28676267963E+04  0.25500000000E-02 0.  1.
         -2   -1    0    0    0  501 -0.00000000000E+00 -0.00000000000E+00 -0.18891726553E+03  0.18891726555E+03  0.25500000000E-02 0. -1.
     200001    2    1    2    0    0  0.96526694938E+02 -0.17327461456E+03  0.11021875135E+04  0.13202367256E+04  0.69918967518E+03 0.  0.
    5000001    2    3    3    0    0  0.47226555940E+01 -0.66792251161E+02  0.12914024318E+03  0.21724648739E+03  0.16135465777E+03 0.  0.
        -11    1    4    4    0    0  0.39239748403E+01  0.47362471284E+02  0.71593960623E+02  0.85931929238E+02  0.51100000000E-03 0. -1.
     200002    1    4    4    0    0  0.79868075364E+00 -0.11415472244E+03  0.57546282558E+02  0.13131455816E+03  0.30000000000E+02 0. -1.
     200000    1    3    3    0    0  0.91804039344E+02 -0.10648236340E+03  0.97304727033E+03  0.11029902382E+04  0.50000000000E+03 0.  1.
    -200001    1    1    2    0    0 -0.96526694938E+02  0.17327461456E+03  0.15765220172E+04  0.17363073362E+04  0.70000000000E+03 0.  1.
<mgrwt>
<rscale>  0 0.14720655E+04</rscale>
<asrwt>0</asrwt>
<pdfrwt beam="1">  1        2 0.40966097E+00 0.14720655E+04</pdfrwt>
<pdfrwt beam="2">  1       -2 0.26988181E-01 0.14720655E+04</pdfrwt>
<totfact> 0.33934358E+01</totfact>
</mgrwt>
</event>
<event>
 8    1  0.2654897E-009  0.2184846E+04  0.7818608E-02  0.8524762E-01
         -2   -1    0    0    0  501 -0.00000000000E+00  0.00000000000E+00  0.57347368110E+03  0.57347368110E+03  0.25500000000E-02 0. -1.
          2   -1    0    0  501    0  0.00000000000E+00 -0.00000000000E+00 -0.20809820604E+04  0.20809820604E+04  0.25500000000E-02 0.  1.
     200001    2    1    2    0    0  0.36192332207E+03  0.59451280891E+03 -0.13227002786E+04  0.16501709188E+04  0.69935260294E+03 0.  0.
    5000001    2    3    3    0    0  0.97825211201E+02  0.15958725319E+03 -0.27543123462E+03  0.38301642875E+03  0.18921246355E+03 0.  0.
        -11    1    4    4    0    0  0.72304428354E+02  0.96190874668E+02 -0.26609764439E+02  0.12324242083E+03  0.51100000000E-03 0. -1.
     200002    1    4    4    0    0  0.25520782847E+02  0.63396378521E+02 -0.24882147018E+03  0.25977400791E+03  0.30000000000E+02 0. -1.
     200000    1    3    3    0    0  0.26409811086E+03  0.43492555572E+03 -0.10472690440E+04  0.12671544901E+04  0.50000000000E+03 0.  1.
    -200001    1    1    2    0    0 -0.36192332207E+03 -0.59451280891E+03 -0.18480810070E+03  0.10042848227E+04  0.70000000000E+03 0. -1.
<mgrwt>
<rscale>  0 0.21848464E+04</rscale>
<asrwt>0</asrwt>
<pdfrwt beam="1">  1        2 0.29728315E+00 0.21848464E+04</pdfrwt>
<pdfrwt beam="2">  1       -2 0.81924812E-01 0.21848464E+04</pdfrwt>
<totfact> 0.87762714E+00</totfact>
</mgrwt>
</event>
<event>
 8    1  0.2654897E-009  0.2115475E+04  0.7818608E-02  0.8554457E-01
          2   -1    0    0  501    0  0.00000000000E+00  0.00000000000E+00  0.13142266265E+04  0.13142266265E+04  0.25500000000E-02 0. -1.
         -2   -1    0    0    0  501 -0.00000000000E+00 -0.00000000000E+00 -0.85130537235E+03  0.85130537236E+03  0.25500000000E-02 0.  1.
     200001    2    1    2    0    0 -0.76186182247E+03 -0.16765004230E+03  0.86391899743E+02  0.10518379978E+04  0.70025683861E+03 0.  0.
    5000001    2    3    3    0    0 -0.33299848539E+03 -0.48510723105E+01  0.11296684304E+03  0.37276989064E+03  0.12362992992E+03 0.  0.
        -11    1    4    4    0    0 -0.28306409963E+03  0.20970878293E+02  0.60469337123E+02  0.29020958456E+03  0.51100000000E-03 0. -1.
     200002    1    4    4    0    0 -0.49934385755E+02 -0.25821950604E+02  0.52497505914E+02  0.82560306085E+02  0.30000000000E+02 0. -1.
     200000    1    3    3    0    0 -0.42886333709E+03 -0.16279896999E+03 -0.26574943294E+02  0.67906810714E+03  0.50000000000E+03 0.  1.
    -200001    1    1    2    0    0  0.76186182247E+03  0.16765004230E+03  0.37652935436E+03  0.11136940010E+04  0.70000000000E+03 0.  1.
<mgrwt>
<rscale>  0 0.21154746E+04</rscale>
<asrwt>0</asrwt>
<pdfrwt beam="1">  1        2 0.18774666E+00 0.21154746E+04</pdfrwt>
<pdfrwt beam="2">  1       -2 0.12161505E+00 0.21154746E+04</pdfrwt>
<totfact> 0.87552800E+00</totfact>
</mgrwt>
</event>
<event>
 8    1  0.2654897E-009  0.1412167E+04  0.7818608E-02  0.8945059E-01
          2   -1    0    0  501    0  0.00000000000E+00  0.00000000000E+00  0.10575599272E+04  0.10575599272E+04  0.25500000000E-02 0.  1.
         -2   -1    0    0    0  501 -0.00000000000E+00 -0.00000000000E+00 -0.47141882132E+03  0.47141882132E+03  0.25500000000E-02 0. -1.
     200001    2    1    2    0    0 -0.57478717667E+02 -0.27966795362E+02  0.22136684415E+03  0.73705311653E+03  0.70011289966E+03 0.  0.
    5000001    2    3    3    0    0  0.52294213478E+01 -0.24422490297E+02  0.97906479227E+02  0.21822045130E+03  0.19341841125E+03 0.  0.
        -11    1    4    4    0    0 -0.40076813314E+02  0.41317849757E+02 -0.29671154837E+02  0.64758729941E+02  0.51100000000E-03 0. -1.
     200002    1    4    4    0    0  0.45306234662E+02 -0.65740340054E+02  0.12757763406E+03  0.15346172136E+03  0.30000000000E+02 0. -1.
     200000    1    3    3    0    0 -0.62708139015E+02 -0.35443050648E+01  0.12346036493E+03  0.51883266523E+03  0.50000000000E+03 0. -1.
    -200001    1    1    2    0    0  0.57478717667E+02  0.27966795362E+02  0.36477426177E+03  0.79192563204E+03  0.70000000000E+03 0.  1.
<mgrwt>
<rscale>  0 0.14121666E+04</rscale>
<asrwt>0</asrwt>
<pdfrwt beam="1">  1        2 0.15107999E+00 0.14121666E+04</pdfrwt>
<pdfrwt beam="2">  1       -2 0.67345546E-01 0.14121666E+04</pdfrwt>
<totfact> 0.51010914E+01</totfact>
</mgrwt>
</event>
<event>
 8    1  0.2654897E-009  0.1425338E+04  0.7818608E-02  0.8935679E-01
          2   -1    0    0  501    0  0.00000000000E+00  0.00000000000E+00  0.17827161405E+03  0.17827161407E+03  0.25500000000E-02 0. -1.
         -2   -1    0    0    0  501 -0.00000000000E+00 -0.00000000000E+00 -0.28490062260E+04  0.28490062260E+04  0.25500000000E-02 0.  1.
     200001    2    1    2    0    0  0.96375640588E+02  0.40142307402E+02 -0.15014828064E+04  0.16605117834E+04  0.70139082963E+03 0.  0.
    5000001    2    3    3    0    0  0.12926469215E+03  0.10054458682E+02 -0.21970683930E+03  0.28394482235E+03  0.12467202625E+03 0.  0.
        -11    1    4    4    0    0  0.60690161131E+02  0.63521316670E+02 -0.10462221093E+03  0.13661647174E+03  0.51100000000E-03 0. -1.
     200002    1    4    4    0    0  0.68574531023E+02 -0.53466857988E+02 -0.11508462837E+03  0.14732835062E+03  0.30000000000E+02 0. -1.
     200000    1    3    3    0    0 -0.32889051565E+02  0.30087848720E+02 -0.12817759671E+04  0.13765669611E+04  0.50000000000E+03 0.  1.
    -200001    1    1    2    0    0 -0.96375640588E+02 -0.40142307402E+02 -0.11692518055E+04  0.13667660566E+04  0.70000000000E+03 0. -1.
<mgrwt>
<rscale>  0 0.14253378E+04</rscale>
<asrwt>0</asrwt>
<pdfrwt beam="1">  1        2 0.25467375E-01 0.14253378E+04</pdfrwt>
<pdfrwt beam="2">  1       -2 0.40700086E+00 0.14253378E+04</pdfrwt>
<totfact> 0.14120739E+00</totfact>
</mgrwt>
</event>
<event>
 8    1  0.2654897E-009  0.1911282E+04  0.7818608E-02  0.8649261E-01
         -2   -1    0    0    0  501 -0.00000000000E+00  0.00000000000E+00  0.57609375444E+03  0.57609375445E+03  0.25500000000E-02 0. -1.
          2   -1    0    0  501    0  0.00000000000E+00 -0.00000000000E+00 -0.15852457808E+04  0.15852457808E+04  0.25500000000E-02 0.  1.
     200001    2    1    2    0    0 -0.55964003926E+03 -0.29413532348E+03 -0.65837823898E+03  0.11549823363E+04  0.70767911473E+03 0.  0.
    5000001    2    3    3    0    0 -0.28424650768E+03 -0.87648928816E+02 -0.28578509006E+03  0.44272965423E+03  0.16080428224E+03 0.  0.
        -11    1    4    4    0    0 -0.37821694871E+02 -0.82863888071E+01  0.17805023760E+02  0.42616472328E+02  0.51100000000E-03 0. -1.
     200002    1    4    4    0    0 -0.24642481281E+03 -0.79362540009E+02 -0.30359011382E+03  0.40011318190E+03  0.30000000000E+02 0. -1.
     200000    1    3    3    0    0 -0.27539353158E+03 -0.20648639466E+03 -0.37259314892E+03  0.71225268202E+03  0.50000000000E+03 0.  1.
    -200001    1    1    2    0    0  0.55964003926E+03  0.29413532348E+03 -0.35077378737E+03  0.10063571990E+04  0.70000000000E+03 0. -1.
<mgrwt>
<rscale>  0 0.19112825E+04</rscale>
<asrwt>0</asrwt>
<pdfrwt beam="1">  1        2 0.22646368E+00 0.19112825E+04</pdfrwt>
<pdfrwt beam="2">  1       -2 0.82299108E-01 0.19112825E+04</pdfrwt>
<totfact> 0.16041130E+01</totfact>
</mgrwt>
</event>
<event>
 8    1  0.2654897E-009  0.1654440E+04  0.7818608E-02  0.8787784E-01
         -2   -1    0    0    0  501 -0.00000000000E+00  0.00000000000E+00  0.40729900087E+03  0.40729900088E+03  0.25500000000E-02 0. -1.
          2   -1    0    0  501    0  0.00000000000E+00 -0.00000000000E+00 -0.16800741353E+04  0.16800741353E+04  0.25500000000E-02 0.  1.
     200001    2    1    2    0    0 -0.59558634626E+02 -0.43163186956E+03 -0.75786585139E+03  0.11152698127E+04  0.69254083249E+03 0.  0.
    5000001    2    3    3    0    0  0.30931036684E+02 -0.23970129142E+01 -0.25509925680E+03  0.28148015614E+03  0.11486066681E+03 0.  0.
        -11    1    4    4    0    0 -0.35469245870E+02  0.21750548469E+02 -0.10364925526E+03  0.11168850378E+03  0.51100000000E-03 0. -1.
     200002    1    4    4    0    0  0.66400282554E+02 -0.24147561383E+02 -0.15145000154E+03  0.16979165236E+03  0.30000000000E+02 0. -1.
     200000    1    3    3    0    0 -0.90489671309E+02 -0.42923485665E+03 -0.50276659459E+03  0.83378965658E+03  0.50000000000E+03 0. -1.
    -200001    1    1    2    0    0  0.59558634626E+02  0.43163186956E+03 -0.51490928308E+03  0.97210332351E+03  0.70000000000E+03 0. -1.
<mgrwt>
<rscale>  0 0.16544395E+04</rscale>
<asrwt>0</asrwt>
<pdfrwt beam="1">  1        2 0.24001059E+00 0.16544395E+04</pdfrwt>
<pdfrwt beam="2">  1       -2 0.58185572E-01 0.16544395E+04</pdfrwt>
<totfact> 0.31067646E+01</totfact>
</mgrwt>
</event>
<event>
 8    1  0.2654897E-009  0.1645496E+04  0.7818608E-02  0.8793075E-01
         -2   -1    0    0    0  501 -0.00000000000E+00  0.00000000000E+00  0.44297760996E+03  0.44297760997E+03  0.25500000000E-02 0. -1.
          2   -1    0    0  501    0  0.00000000000E+00 -0.00000000000E+00 -0.15281009735E+04  0.15281009735E+04  0.25500000000E-02 0.  1.
     200001    2    1    2    0    0  0.20138244344E+03  0.36867384356E+03 -0.66540364110E+03  0.10531243706E+04  0.69988116347E+03 0.  0.
    5000001    2    3    3    0    0  0.11777805592E+02  0.75329800399E+02 -0.21125044158E+03  0.29269306210E+03  0.18769438991E+03 0.  0.
        -11    1    4    4    0    0 -0.45472385680E+02 -0.12196974455E+02 -0.16988885193E+03  0.17629159384E+03  0.51100000000E-03 0. -1.
     200002    1    4    4    0    0  0.57250191272E+02  0.87526774855E+02 -0.41361589645E+02  0.11640146827E+03  0.30000000000E+02 0. -1.
     200000    1    3    3    0    0  0.18960463785E+03  0.29334404316E+03 -0.45415319952E+03  0.76043130853E+03  0.50000000000E+03 0. -1.
    -200001    1    1    2    0    0 -0.20138244344E+03 -0.36867384356E+03 -0.41971972243E+03  0.91795421283E+03  0.70000000000E+03 0. -1.
<mgrwt>
<rscale>  0 0.16454963E+04</rscale>
<asrwt>0</asrwt>
<pdfrwt beam="1">  1        2 0.21830014E+00 0.16454963E+04</pdfrwt>
<pdfrwt beam="2">  1       -2 0.63282517E-01 0.16454963E+04</pdfrwt>
<totfact> 0.31276560E+01</totfact>
</mgrwt>
</event>
<event>
 8    1  0.2654897E-009  0.1498820E+04  0.7818608E-02  0.8885238E-01
          2   -1    0    0  501    0  0.00000000000E+00  0.00000000000E+00  0.60756641299E+03  0.60756641299E+03  0.25500000000E-02 0.  1.
         -2   -1    0    0    0  501 -0.00000000000E+00 -0.00000000000E+00 -0.92436856301E+03  0.92436856302E+03  0.25500000000E-02 0. -1.
     200001    2    1    2    0    0 -0.14992220638E+02  0.25031477805E+03 -0.75667213165E+02  0.75025197596E+03  0.70304355875E+03 0.  0.
    5000001    2    3    3    0    0 -0.53287577589E+02  0.10578193409E+03 -0.67547307638E+02  0.22831116494E+03  0.18312281606E+03 0.  0.
        -11    1    4    4    0    0  0.49370678758E+01  0.13329076327E+03 -0.80938771248E+02  0.15601886714E+03  0.51100000000E-03 0. -1.
     200002    1    4    4    0    0 -0.58224645465E+02 -0.27508829183E+02  0.13391463610E+02  0.72292297793E+02  0.30000000000E+02 0. -1.
     200000    1    3    3    0    0  0.38295356951E+02  0.14453284396E+03 -0.81199055267E+01  0.52194081102E+03  0.50000000000E+03 0.  1.
    -200001    1    1    2    0    0  0.14992220638E+02 -0.25031477805E+03 -0.24113493686E+03  0.78168300005E+03  0.70000000000E+03 0. -1.
<mgrwt>
<rscale>  0 0.14988199E+04</rscale>
<asrwt>0</asrwt>
<pdfrwt beam="1">  1        2 0.86795202E-01 0.14988199E+04</pdfrwt>
<pdfrwt beam="2">  1       -2 0.13205265E+00 0.14988199E+04</pdfrwt>
<totfact> 0.21594413E+01</totfact>
</mgrwt>
</event>
<event>
 8    1  0.2654897E-009  0.1536093E+04  0.7818608E-02  0.8860800E-01
          2   -1    0    0  501    0  0.00000000000E+00  0.00000000000E+00  0.37456982474E+04  0.37456982474E+04  0.25500000000E-02 0.  1.
         -2   -1    0    0    0  501 -0.00000000000E+00 -0.00000000000E+00 -0.15748608938E+03  0.15748608940E+03  0.25500000000E-02 0. -1.
     200001    2    1    2    0    0 -0.92399689718E+02 -0.26516550347E+03  0.21629060280E+04  0.22906248771E+04  0.69996385238E+03 0.  0.
    5000001    2    3    3    0    0  0.36478642078E+02  0.34580965304E+02  0.22836326979E+03  0.26604757470E+03  0.12690545507E+03 0.  0.
        -11    1    4    4    0    0  0.50227824163E+02 -0.19083949024E+02  0.38761488808E+02  0.66253184417E+02  0.51100000000E-03 0. -1.
     200002    1    4    4    0    0 -0.13749182085E+02  0.53664914328E+02  0.18960178098E+03  0.19979439028E+03  0.30000000000E+02 0. -1.
     200000    1    3    3    0    0 -0.12887833180E+03 -0.29974646878E+03  0.19345427582E+04  0.20245773024E+04  0.50000000000E+03 0.  1.
    -200001    1    1    2    0    0  0.92399689718E+02  0.26516550347E+03  0.14253061300E+04  0.16125594597E+04  0.70000000000E+03 0. -1.
<mgrwt>
<rscale>  0 0.15360929E+04</rscale>
<asrwt>0</asrwt>
<pdfrwt beam="1">  1        2 0.53509975E+00 0.15360929E+04</pdfrwt>
<pdfrwt beam="2">  1       -2 0.22498013E-01 0.15360929E+04</pdfrwt>
<totfact> 0.14279365E+01</totfact>
</mgrwt>
</event>
<event>
 8    1  0.2654897E-009  0.2299776E+04  0.7818608E-02  0.8478009E-01
          2   -1    0    0  501    0  0.00000000000E+00  0.00000000000E+00  0.19996258257E+04  0.19996258257E+04  0.25500000000E-02 0.  1.
         -2   -1    0    0    0  501 -0.00000000000E+00 -0.00000000000E+00 -0.66124516982E+03  0.66124516982E+03  0.25500000000E-02 0. -1.
     200001    2    1    2    0    0 -0.58015142909E+03  0.45262605073E+03  0.43427759803E+02  0.10151647564E+04  0.69801682631E+03 0.  0.
    5000001    2    3    3    0    0 -0.31076239166E+03  0.17637210265E+03  0.12755519849E+02  0.38284562524E+03  0.13684913888E+03 0.  0.
        -11    1    4    4    0    0 -0.69581955562E+02 -0.16267858283E+02 -0.86594400253E+01  0.71981092342E+02  0.51100000000E-03 0. -1.
     200002    1    4    4    0    0 -0.24118043610E+03  0.19263996093E+03  0.21414959874E+02  0.31086453290E+03  0.30000000000E+02 0. -1.
     200000    1    3    3    0    0 -0.26938903743E+03  0.27625394808E+03  0.30672239954E+02  0.63231913115E+03  0.50000000000E+03 0. -1.
    -200001    1    1    2    0    0  0.58015142909E+03 -0.45262605073E+03  0.12949528961E+04  0.16457062392E+04  0.70000000000E+03 0.  1.
<mgrwt>
<rscale>  0 0.22997764E+04</rscale>
<asrwt>0</asrwt>
<pdfrwt beam="1">  1        2 0.28566083E+00 0.22997764E+04</pdfrwt>
<pdfrwt beam="2">  1       -2 0.94463596E-01 0.22997764E+04</pdfrwt>
<totfact> 0.69079479E+00</totfact>
</mgrwt>
</event>
<event>
 8    1  0.2654897E-009  0.1994563E+04  0.7818608E-02  0.8609167E-01
          2   -1    0    0  501    0  0.00000000000E+00  0.00000000000E+00  0.15366444091E+04  0.15366444091E+04  0.25500000000E-02 0.  1.
         -2   -1    0    0    0  501 -0.00000000000E+00 -0.00000000000E+00 -0.64723553616E+03  0.64723553616E+03  0.25500000000E-02 0. -1.
     200001    2    1    2    0    0  0.11496169755E+03 -0.53383154097E+03 -0.51337732832E+02  0.89035898204E+03  0.70136384855E+03 0.  0.
    5000001    2    3    3    0    0 -0.43874404087E+02 -0.11944049291E+03  0.73279898414E+01  0.21924757929E+03  0.17839508655E+03 0.  0.
        -11    1    4    4    0    0 -0.46222333063E+02 -0.13611983972E+03 -0.50157605164E+02  0.15225275103E+03  0.51100000000E-03 0. -1.
     200002    1    4    4    0    0  0.23479289755E+01  0.16679346808E+02  0.57485595005E+02  0.66994828259E+02  0.30000000000E+02 0. -1.
     200000    1    3    3    0    0  0.15883610164E+03 -0.41439104805E+03 -0.58665722673E+02  0.67111140275E+03  0.50000000000E+03 0.  1.
    -200001    1    1    2    0    0 -0.11496169755E+03  0.53383154097E+03  0.94074660579E+03  0.12935209632E+04  0.70000000000E+03 0.  1.
<mgrwt>
<rscale>  0 0.19945635E+04</rscale>
<asrwt>0</asrwt>
<pdfrwt beam="1">  1        2 0.21952063E+00 0.19945635E+04</pdfrwt>
<pdfrwt beam="2">  1       -2 0.92462218E-01 0.19945635E+04</pdfrwt>
<totfact> 0.12949445E+01</totfact>
</mgrwt>
</event>
<event>
 8    1  0.2654897E-009  0.1468525E+04  0.7818608E-02  0.8905657E-01
         -2   -1    0    0    0  501 -0.00000000000E+00  0.00000000000E+00  0.11694120349E+04  0.11694120349E+04  0.25500000000E-02 0. -1.
          2   -1    0    0  501    0  0.00000000000E+00 -0.00000000000E+00 -0.46103659267E+03  0.46103659268E+03  0.25500000000E-02 0.  1.
     200001    2    1    2    0    0  0.81572928816E+00 -0.11962081155E+03  0.56126279468E+03  0.90522319021E+03  0.70007377857E+03 0.  0.
    5000001    2    3    3    0    0  0.42495637068E+02 -0.13331817071E+02  0.18288213371E+03  0.26787988425E+03  0.19060467214E+03 0.  0.
        -11    1    4    4    0    0 -0.72943106493E+02 -0.30915392838E+01  0.47205208136E+02  0.86940129258E+02  0.51100000000E-03 0. -1.
     200002    1    4    4    0    0  0.11543874356E+03 -0.10240277787E+02  0.13567692557E+03  0.18093975499E+03  0.30000000000E+02 0. -1.
     200000    1    3    3    0    0 -0.41679907780E+02 -0.10628899448E+03  0.37838066097E+03  0.63734330596E+03  0.50000000000E+03 0. -1.
    -200001    1    1    2    0    0 -0.81572928816E+00  0.11962081155E+03  0.14711264758E+03  0.72522543740E+03  0.70000000000E+03 0.  1.
<mgrwt>
<rscale>  0 0.14685254E+04</rscale>
<asrwt>0</asrwt>
<pdfrwt beam="1">  1        2 0.65862371E-01 0.14685254E+04</pdfrwt>
<pdfrwt beam="2">  1       -2 0.16705886E+00 0.14685254E+04</pdfrwt>
<totfact> 0.15975240E+01</totfact>
</mgrwt>
</event>
<event>
 8    1  0.2654897E-009  0.1468072E+04  0.7818608E-02  0.8905966E-01
         -2   -1    0    0    0  501 -0.00000000000E+00  0.00000000000E+00  0.37658699343E+03  0.37658699344E+03  0.25500000000E-02 0. -1.
          2   -1    0    0  501    0  0.00000000000E+00 -0.00000000000E+00 -0.14307693432E+04  0.14307693432E+04  0.25500000000E-02 0.  1.
     200001    2    1    2    0    0 -0.60368378540E+01  0.21612947124E+03 -0.46321978511E+03  0.86608849772E+03  0.69913398202E+03 0.  0.
    5000001    2    3    3    0    0  0.32473380708E+02  0.96962984778E+01 -0.16301139006E+03  0.24623143983E+03  0.18140746957E+03 0.  0.
        -11    1    4    4    0    0  0.10143993360E+03  0.14499001365E+02 -0.60495980631E+02  0.11899598667E+03  0.51100000000E-03 0. -1.
     200002    1    4    4    0    0 -0.68966552894E+02 -0.48027028874E+01 -0.10251540942E+03  0.12723545317E+03  0.30000000000E+02 0. -1.
     200000    1    3    3    0    0 -0.38510218562E+02  0.20643317276E+03 -0.30020839506E+03  0.61985705789E+03  0.50000000000E+03 0. -1.
    -200001    1    1    2    0    0  0.60368378540E+01 -0.21612947124E+03 -0.59096256464E+03  0.94126783890E+03  0.70000000000E+03 0.  1.
<mgrwt>
<rscale>  0 0.14680724E+04</rscale>
<asrwt>0</asrwt>
<pdfrwt beam="1">  1        2 0.20439562E+00 0.14680724E+04</pdfrwt>
<pdfrwt beam="2">  1       -2 0.53798143E-01 0.14680724E+04</pdfrwt>
<totfact> 0.50257493E+01</totfact>
</mgrwt>
</event>
<event>
 8    1  0.2654897E-009  0.1561829E+04  0.7818608E-02  0.8844347E-01
          2   -1    0    0  501    0  0.00000000000E+00  0.00000000000E+00  0.27421731221E+03  0.27421731222E+03  0.25500000000E-02 0.  1.
         -2   -1    0    0    0  501 -0.00000000000E+00 -0.00000000000E+00 -0.22238827283E+04  0.22238827283E+04  0.25500000000E-02 0. -1.
     200001    2    1    2    0    0 -0.10689405289E+03 -0.24262810187E+03 -0.13300263214E+04  0.15263761384E+04  0.70039943306E+03 0.  0.
    5000001    2    3    3    0    0 -0.80190821904E+02 -0.18448923683E+02 -0.43514457229E+03  0.47671775997E+03  0.17645989111E+03 0.  0.
        -11    1    4    4    0    0 -0.56348738781E+02  0.22795541100E+01 -0.20829916685E+02  0.60118733840E+02  0.51100000000E-03 0. -1.
     200002    1    4    4    0    0 -0.23842083123E+02 -0.20728477793E+02 -0.41431465561E+03  0.41659902613E+03  0.30000000000E+02 0. -1.
     200000    1    3    3    0    0 -0.26703230983E+02 -0.22417917818E+03 -0.89488174914E+03  0.10496583784E+04  0.50000000000E+03 0. -1.
    -200001    1    1    2    0    0  0.10689405289E+03  0.24262810187E+03 -0.61963909469E+03  0.97172390216E+03  0.70000000000E+03 0.  1.
<mgrwt>
<rscale>  0 0.15618286E+04</rscale>
<asrwt>0</asrwt>
<pdfrwt beam="1">  1        2 0.39173903E-01 0.15618286E+04</pdfrwt>
<pdfrwt beam="2">  1       -2 0.31769752E+00 0.15618286E+04</pdfrwt>
<totfact> 0.31575859E+00</totfact>
</mgrwt>
</event>
<event>
 8    1  0.2654897E-009  0.2579676E+04  0.7818608E-02  0.8375138E-01
          2   -1    0    0  501    0  0.00000000000E+00  0.00000000000E+00  0.18166472100E+04  0.18166472100E+04  0.25500000000E-02 0.  1.
         -2   -1    0    0    0  501 -0.00000000000E+00 -0.00000000000E+00 -0.91579780647E+03  0.91579780647E+03  0.25500000000E-02 0. -1.
     200001    2    1    2    0    0  0.99809936572E+03 -0.40929573426E+03  0.34571245023E+03  0.13317657602E+04  0.70025538195E+03 0.  0.
    5000001    2    3    3    0    0  0.17989637755E+03 -0.19167384446E+03  0.50850927085E+02  0.30523824740E+03  0.14657080741E+03 0.  0.
        -11    1    4    4    0    0  0.12683801459E+03 -0.41072229241E+02 -0.50605109500E+01  0.13341820989E+03  0.51100000000E-03 0. -1.
     200002    1    4    4    0    0  0.53058362963E+02 -0.15060161522E+03  0.55911438035E+02  0.17182003751E+03  0.30000000000E+02 0. -1.
     200000    1    3    3    0    0  0.81820298817E+03 -0.21762188980E+03  0.29486152314E+03  0.10265275128E+04  0.50000000000E+03 0. -1.
    -200001    1    1    2    0    0 -0.99809936572E+03  0.40929573426E+03  0.55513695331E+03  0.14006792562E+04  0.70000000000E+03 0.  1.
<mgrwt>
<rscale>  0 0.25796756E+04</rscale>
<asrwt>0</asrwt>
<pdfrwt beam="1">  1        2 0.25952103E+00 0.25796756E+04</pdfrwt>
<pdfrwt beam="2">  1       -2 0.13082826E+00 0.25796756E+04</pdfrwt>
<totfact> 0.38027493E+00</totfact>
</mgrwt>
</event>
<event>
 8    1  0.2654897E-009  0.1766926E+04  0.7818608E-02  0.8724088E-01
          2   -1    0    0  501    0  0.00000000000E+00  0.00000000000E+00  0.12834383362E+04  0.12834383362E+04  0.25500000000E-02 0.  1.
         -2   -1    0    0    0  501 -0.00000000000E+00 -0.00000000000E+00 -0.60813743715E+03  0.60813743715E+03  0.25500000000E-02 0. -1.
     200001    2    1    2    0    0 -0.47619687859E+03  0.23851413247E+03  0.24635660001E+03  0.91298205263E+03  0.69942275877E+03 0.  0.
    5000001    2    3    3    0    0 -0.12380711781E+03  0.17403962023E+02 -0.80371948426E+01  0.21456637852E+03  0.17419251986E+03 0.  0.
        -11    1    4    4    0    0 -0.32362616070E+02  0.29071749504E+02 -0.81868299790E+02  0.92708813221E+02  0.51100000000E-03 0. -1.
     200002    1    4    4    0    0 -0.91444501744E+02 -0.11667787480E+02  0.73831104947E+02  0.12185756530E+03  0.30000000000E+02 0.  1.
     200000    1    3    3    0    0 -0.35238976078E+03  0.22111017045E+03  0.25439379485E+03  0.69841567411E+03  0.50000000000E+03 0.  1.
    -200001    1    1    2    0    0  0.47619687859E+03 -0.23851413247E+03  0.42894429905E+03  0.97859372073E+03  0.70000000000E+03 0. -1.
<mgrwt>
<rscale>  0 0.17669260E+04</rscale>
<asrwt>0</asrwt>
<pdfrwt beam="1">  1        2 0.18334833E+00 0.17669260E+04</pdfrwt>
<pdfrwt beam="2">  1       -2 0.86876777E-01 0.17669260E+04</pdfrwt>
<totfact> 0.20870061E+01</totfact>
</mgrwt>
</event>
<event>
 8    1  0.2654897E-009  0.2101705E+04  0.7818608E-02  0.8560493E-01
         -2   -1    0    0    0  501 -0.00000000000E+00  0.00000000000E+00  0.54982574672E+03  0.54982574673E+03  0.25500000000E-02 0.  1.
          2   -1    0    0  501    0  0.00000000000E+00 -0.00000000000E+00 -0.20084378182E+04  0.20084378182E+04  0.25500000000E-02 0. -1.
     200001    2    1    2    0    0 -0.19449689776E+02  0.58364178875E+03 -0.13663867843E+04  0.16420094891E+04  0.69868897931E+03 0.  0.
    5000001    2    3    3    0    0  0.49767645319E+02  0.10635476514E+03 -0.38963997530E+03  0.44341519936E+03  0.17609535509E+03 0.  0.
        -11    1    4    4    0    0  0.41394389154E+02  0.82564230968E+01 -0.31109198023E+03  0.31394248540E+03  0.51100000000E-03 0. -1.
     200002    1    4    4    0    0  0.83732561651E+01  0.98098342044E+02 -0.78547995068E+02  0.12947271396E+03  0.30000000000E+02 0. -1.
     200000    1    3    3    0    0 -0.69217335096E+02  0.47728702361E+03 -0.97674680901E+03  0.11985942897E+04  0.50000000000E+03 0. -1.
    -200001    1    1    2    0    0  0.19449689776E+02 -0.58364178875E+03 -0.92225287190E+02  0.91625407590E+03  0.70000000000E+03 0.  1.
<mgrwt>
<rscale>  0 0.21017049E+04</rscale>
<asrwt>0</asrwt>
<pdfrwt beam="1">  1        2 0.28691968E+00 0.21017049E+04</pdfrwt>
<pdfrwt beam="2">  1       -2 0.78546536E-01 0.21017049E+04</pdfrwt>
<totfact> 0.10586300E+01</totfact>
</mgrwt>
</event>
<event>
 8    1  0.2654897E-009  0.1601571E+04  0.7818608E-02  0.8819583E-01
         -2   -1    0    0    0  501 -0.00000000000E+00  0.00000000000E+00  0.16008552935E+04  0.16008552935E+04  0.25500000000E-02 0. -1.
          2   -1    0    0  501    0  0.00000000000E+00 -0.00000000000E+00 -0.40057189303E+03  0.40057189304E+03  0.25500000000E-02 0.  1.
     200001    2    1    2    0    0  0.90345995354E+02 -0.33554658758E+03  0.38275209385E+03  0.87044913695E+03  0.70030609261E+03 0.  0.
    5000001    2    3    3    0    0  0.19613539387E+02  0.29960881627E+02  0.57027971727E+02  0.16710356462E+03  0.15293484363E+03 0.  0.
        -11    1    4    4    0    0 -0.29463398458E+02 -0.32904770661E+02 -0.23354715044E+02  0.49962570951E+02  0.51100000000E-03 0. -1.
     200002    1    4    4    0    0  0.49076937846E+02  0.62865652288E+02  0.80382686772E+02  0.11714099367E+03  0.30000000000E+02 0. -1.
     200000    1    3    3    0    0  0.70732455967E+02 -0.36550746921E+03  0.32572412212E+03  0.70334557232E+03  0.50000000000E+03 0.  1.
    -200001    1    1    2    0    0 -0.90345995354E+02  0.33554658758E+03  0.81753130658E+03  0.11309780495E+04  0.70000000000E+03 0. -1.
<mgrwt>
<rscale>  0 0.16015713E+04</rscale>
<asrwt>0</asrwt>
<pdfrwt beam="1">  1        2 0.57224556E-01 0.16015713E+04</pdfrwt>
<pdfrwt beam="2">  1       -2 0.22869362E+00 0.16015713E+04</pdfrwt>
<totfact> 0.72259802E+00</totfact>
</mgrwt>
</event>
<event>
 8    1  0.2654897E-009  0.1816461E+04  0.7818608E-02  0.8697594E-01
         -2   -1    0    0    0  501 -0.00000000000E+00  0.00000000000E+00  0.45917753598E+03  0.45917753598E+03  0.25500000000E-02 0. -1.
          2   -1    0    0  501    0  0.00000000000E+00 -0.00000000000E+00 -0.17964352448E+04  0.17964352448E+04  0.25500000000E-02 0.  1.
     200001    2    1    2    0    0  0.22087394506E+03  0.38110393832E+03 -0.20345164738E+03  0.85220916943E+03  0.70060144464E+03 0.  0.
    5000001    2    3    3    0    0  0.12520512345E+03  0.97558680466E+02 -0.72222340609E+02  0.25490558863E+03  0.18592141770E+03 0.  0.
        -11    1    4    4    0    0  0.13118860588E+03  0.13986188058E+03 -0.50025098757E+02  0.19817746203E+03  0.51100000000E-03 0. -1.
     200002    1    4    4    0    0 -0.59834824300E+01 -0.42303200112E+02 -0.22197241852E+02  0.56728126600E+02  0.30000000000E+02 0. -1.
     200000    1    3    3    0    0  0.95668821612E+02  0.28354525786E+03 -0.13122930677E+03  0.59730358080E+03  0.50000000000E+03 0. -1.
    -200001    1    1    2    0    0 -0.22087394506E+03 -0.38110393832E+03 -0.11338060615E+04  0.14034036114E+04  0.70000000000E+03 0.  1.
<mgrwt>
<rscale>  0 0.18164611E+04</rscale>
<asrwt>0</asrwt>
<pdfrwt beam="1">  1        2 0.25663360E+00 0.18164611E+04</pdfrwt>
<pdfrwt beam="2">  1       -2 0.65596792E-01 0.18164611E+04</pdfrwt>
<totfact> 0.20687391E+01</totfact>
</mgrwt>
</event>
<event>
 8    1  0.2654897E-009  0.1982899E+04  0.7818608E-02  0.8614658E-01
          2   -1    0    0  501    0  0.00000000000E+00  0.00000000000E+00  0.74038183237E+03  0.74038183238E+03  0.25500000000E-02 0.  1.
         -2   -1    0    0    0  501 -0.00000000000E+00 -0.00000000000E+00 -0.13276554080E+04  0.13276554080E+04  0.25500000000E-02 0. -1.
     200001    2    1    2    0    0 -0.67919514884E+03  0.16856227331E+03 -0.31969226202E+03  0.10426987355E+04  0.70377426809E+03 0.  0.
    5000001    2    3    3    0    0 -0.82000438970E+02 -0.11302077037E+03 -0.64222219084E+02  0.17598339883E+03  0.85719873492E+02 0.  0.
        -11    1    4    4    0    0 -0.66346890034E+02 -0.93149872751E+02 -0.18698718775E+02  0.11588119215E+03  0.51100000000E-03 0. -1.
     200002    1    4    4    0    0 -0.15653548935E+02 -0.19870897621E+02 -0.45523500309E+02  0.60102206673E+02  0.30000000000E+02 0. -1.
     200000    1    3    3    0    0 -0.59719470987E+03  0.28158304369E+03 -0.25547004294E+03  0.86671533667E+03  0.50000000000E+03 0. -1.
    -200001    1    1    2    0    0  0.67919514884E+03 -0.16856227331E+03 -0.26758131359E+03  0.10253385049E+04  0.70000000000E+03 0. -1.
<mgrwt>
<rscale>  0 0.19828988E+04</rscale>
<asrwt>0</asrwt>
<pdfrwt beam="1">  1        2 0.10576883E+00 0.19828988E+04</pdfrwt>
<pdfrwt beam="2">  1       -2 0.18966506E+00 0.19828988E+04</pdfrwt>
<totfact> 0.61009469E+00</totfact>
</mgrwt>
</event>
<event>
 8    1  0.2654897E-009  0.1477197E+04  0.7818608E-02  0.8899760E-01
          2   -1    0    0  501    0  0.00000000000E+00  0.00000000000E+00  0.41820799675E+04  0.41820799675E+04  0.25500000000E-02 0.  1.
         -2   -1    0    0    0  501 -0.00000000000E+00 -0.00000000000E+00 -0.13044409697E+03  0.13044409699E+03  0.25500000000E-02 0. -1.
     200001    2    1    2    0    0 -0.42866572809E+02  0.23371524283E+03  0.20504950787E+04  0.21792109542E+04  0.69854846456E+03 0.  0.
    5000001    2    3    3    0    0 -0.72630409218E+01  0.11002095231E+03  0.82314795623E+03  0.84768970089E+03  0.16984672335E+03 0.  0.
        -11    1    4    4    0    0  0.22418165379E+02  0.12652812192E+03  0.75495955134E+03  0.76581712173E+03  0.51100000000E-03 0. -1.
     200002    1    4    4    0    0 -0.29681206300E+02 -0.16507169613E+02  0.68188404893E+02  0.81872579157E+02  0.30000000000E+02 0. -1.
     200000    1    3    3    0    0 -0.35603531887E+02  0.12369429052E+03  0.12273471225E+04  0.13315212533E+04  0.50000000000E+03 0. -1.
    -200001    1    1    2    0    0  0.42866572809E+02 -0.23371524283E+03  0.20011407918E+04  0.21333131103E+04  0.70000000000E+03 0. -1.
<mgrwt>
<rscale>  0 0.14771969E+04</rscale>
<asrwt>0</asrwt>
<pdfrwt beam="1">  1        2 0.59744009E+00 0.14771969E+04</pdfrwt>
<pdfrwt beam="2">  1       -2 0.18634868E-01 0.14771969E+04</pdfrwt>
<totfact> 0.10155502E+01</totfact>
</mgrwt>
</event>
<event>
 8    1  0.2654897E-009  0.1636894E+04  0.7818608E-02  0.8798197E-01
         -2   -1    0    0    0  501 -0.00000000000E+00  0.00000000000E+00  0.85586757534E+03  0.85586757534E+03  0.25500000000E-02 0. -1.
          2   -1    0    0  501    0  0.00000000000E+00 -0.00000000000E+00 -0.78266301235E+03  0.78266301235E+03  0.25500000000E-02 0.  1.
     200001    2    1    2    0    0 -0.29982532156E+03  0.11144591242E+03  0.31712015612E+03  0.83118293555E+03  0.69855884798E+03 0.  0.
    5000001    2    3    3    0    0 -0.92006721427E+02  0.78803837639E+01  0.19881381197E+03  0.26734716128E+03  0.15303671316E+03 0.  0.
        -11    1    4    4    0    0  0.41325244980E+02  0.37864300773E+01  0.38025716375E+02  0.56285593463E+02  0.51100000000E-03 0. -1.
     200002    1    4    4    0    0 -0.13333196641E+03  0.40939536866E+01  0.16078809560E+03  0.21106156781E+03  0.30000000000E+02 0. -1.
     200000    1    3    3    0    0 -0.20781860013E+03  0.10356552865E+03  0.11830634415E+03  0.56383577427E+03  0.50000000000E+03 0. -1.
    -200001    1    1    2    0    0  0.29982532156E+03 -0.11144591242E+03 -0.24391559313E+03  0.80734765214E+03  0.70000000000E+03 0.  1.
<mgrwt>
<rscale>  0 0.16368945E+04</rscale>
<asrwt>0</asrwt>
<pdfrwt beam="1">  1        2 0.11180900E+00 0.16368945E+04</pdfrwt>
<pdfrwt beam="2">  1       -2 0.12226680E+00 0.16368945E+04</pdfrwt>
<totfact> 0.18994041E+01</totfact>
</mgrwt>
</event>
<event>
 8    1  0.2654897E-009  0.1680490E+04  0.7818608E-02  0.8772570E-01
          2   -1    0    0  501    0  0.00000000000E+00  0.00000000000E+00  0.26278476013E+04  0.26278476013E+04  0.25500000000E-02 0.  1.
         -2   -1    0    0    0  501 -0.00000000000E+00 -0.00000000000E+00 -0.26866548426E+03  0.26866548427E+03  0.25500000000E-02 0. -1.
     200001    2    1    2    0    0  0.36023132470E+02 -0.29965718499E+03  0.56995897968E+03  0.95167079637E+03  0.69980852493E+03 0.  0.
    5000001    2    3    3    0    0  0.12974257047E+03  0.58667343777E+01  0.19644051976E+03  0.25049732407E+03  0.85396009244E+02 0.  0.
        -11    1    4    4    0    0  0.67953597859E+02 -0.28014377149E+02  0.12889230550E+03  0.14837696319E+03  0.51100000000E-03 0. -1.
     200002    1    4    4    0    0  0.61788972613E+02  0.33881111527E+02  0.67548214263E+02  0.10212036087E+03  0.30000000000E+02 0. -1.
     200000    1    3    3    0    0 -0.93719438003E+02 -0.30552391937E+03  0.37351845992E+03  0.70117347231E+03  0.50000000000E+03 0. -1.
    -200001    1    1    2    0    0 -0.36023132470E+02  0.29965718499E+03  0.17892231373E+04  0.19448422892E+04  0.70000000000E+03 0.  1.
<mgrwt>
<rscale>  0 0.16804903E+04</rscale>
<asrwt>0</asrwt>
<pdfrwt beam="1">  1        2 0.37540680E+00 0.16804903E+04</pdfrwt>
<pdfrwt beam="2">  1       -2 0.38380784E-01 0.16804903E+04</pdfrwt>
<totfact> 0.23112818E+01</totfact>
</mgrwt>
</event>
<event>
 8    1  0.2654897E-009  0.1944457E+04  0.7818608E-02  0.8633038E-01
          2   -1    0    0  501    0  0.00000000000E+00  0.00000000000E+00  0.33087996516E+04  0.33087996516E+04  0.25500000000E-02 0.  1.
         -2   -1    0    0    0  501 -0.00000000000E+00 -0.00000000000E+00 -0.28567104981E+03  0.28567104982E+03  0.25500000000E-02 0. -1.
     200001    2    1    2    0    0  0.43280474238E+03 -0.15992917069E+03  0.24209735297E+04  0.25622459122E+04  0.70078099163E+03 0.  0.
    5000001    2    3    3    0    0  0.89165486220E+02 -0.15522918813E+03  0.94841907217E+03  0.96959822401E+03  0.92603427348E+02 0.  0.
        -11    1    4    4    0    0  0.66773712411E+02 -0.35948865736E+02  0.31984233785E+03  0.32870985793E+03  0.51100000000E-03 0. -1.
     200002    1    4    4    0    0  0.22391773808E+02 -0.11928032240E+03  0.62857673432E+03  0.64088836608E+03  0.30000000000E+02 0. -1.
     200000    1    3    3    0    0  0.34363925616E+03 -0.46999825548E+01  0.14725544576E+04  0.15926476882E+04  0.50000000000E+03 0.  1.
    -200001    1    1    2    0    0 -0.43280474238E+03  0.15992917069E+03  0.60215507204E+03  0.10322247892E+04  0.70000000000E+03 0. -1.
<mgrwt>
<rscale>  0 0.19444570E+04</rscale>
<asrwt>0</asrwt>
<pdfrwt beam="1">  1        2 0.47268568E+00 0.19444570E+04</pdfrwt>
<pdfrwt beam="2">  1       -2 0.40810149E-01 0.19444570E+04</pdfrwt>
<totfact> 0.83635434E+00</totfact>
</mgrwt>
</event>
<event>
 8    1  0.2654897E-009  0.1791974E+04  0.7818608E-02  0.8710579E-01
         -2   -1    0    0    0  501 -0.00000000000E+00  0.00000000000E+00  0.22533860493E+03  0.22533860494E+03  0.25500000000E-02 0. -1.
          2   -1    0    0  501    0  0.00000000000E+00 -0.00000000000E+00 -0.35626051077E+04  0.35626051077E+04  0.25500000000E-02 0.  1.
     200001    2    1    2    0    0  0.49916798231E+03  0.17852590330E+03 -0.20440123650E+04  0.22247590026E+04  0.70037554131E+03 0.  0.
    5000001    2    3    3    0    0  0.13988321205E+03 -0.50217104995E+02 -0.57937169284E+03  0.61958573831E+03  0.16163495293E+03 0.  0.
        -11    1    4    4    0    0  0.27665510635E+02  0.50630206331E+02 -0.24226331466E+03  0.24903877590E+03  0.51100000000E-03 0. -1.
     200002    1    4    4    0    0  0.11221770142E+03 -0.10084731133E+03 -0.33710837818E+03  0.37054696241E+03  0.30000000000E+02 0. -1.
     200000    1    3    3    0    0  0.35928477025E+03  0.22874300830E+03 -0.14646406721E+04  0.16051732643E+04  0.50000000000E+03 0. -1.
    -200001    1    1    2    0    0 -0.49916798231E+03 -0.17852590330E+03 -0.12932541378E+04  0.15631847100E+04  0.70000000000E+03 0.  1.
<mgrwt>
<rscale>  0 0.17919737E+04</rscale>
<asrwt>0</asrwt>
<pdfrwt beam="1">  1        2 0.50894355E+00 0.17919737E+04</pdfrwt>
<pdfrwt beam="2">  1       -2 0.32191231E-01 0.17919737E+04</pdfrwt>
<totfact> 0.94132506E+00</totfact>
</mgrwt>
</event>
<event>
 8    1  0.2654897E-009  0.1475390E+04  0.7818608E-02  0.8900985E-01
         -2   -1    0    0    0  501 -0.00000000000E+00  0.00000000000E+00  0.32464967340E+03  0.32464967341E+03  0.25500000000E-02 0. -1.
          2   -1    0    0  501    0  0.00000000000E+00 -0.00000000000E+00 -0.16762504462E+04  0.16762504462E+04  0.25500000000E-02 0.  1.
     200001    2    1    2    0    0  0.74020398382E+02 -0.16743123695E+02 -0.97468056235E+03  0.12022586502E+04  0.69976018165E+03 0.  0.
    5000001    2    3    3    0    0 -0.14326031905E+02  0.40529229781E+02 -0.36985406959E+03  0.41048829174E+03  0.17280263657E+03 0.  0.
        -11    1    4    4    0    0  0.12146883051E+02 -0.81318230965E+01 -0.34080038688E+03  0.34111373032E+03  0.51100000000E-03 0. -1.
     200002    1    4    4    0    0 -0.26472914956E+02  0.48661052877E+02 -0.29053682717E+02  0.69374561424E+02  0.30000000000E+02 0. -1.
     200000    1    3    3    0    0  0.88346430286E+02 -0.57272353476E+02 -0.60482649275E+03  0.79177035847E+03  0.50000000000E+03 0. -1.
    -200001    1    1    2    0    0 -0.74020398382E+02  0.16743123695E+02 -0.37692021043E+03  0.79864146937E+03  0.70000000000E+03 0. -1.
<mgrwt>
<rscale>  0 0.14753903E+04</rscale>
<asrwt>0</asrwt>
<pdfrwt beam="1">  1        2 0.23946434E+00 0.14753903E+04</pdfrwt>
<pdfrwt beam="2">  1       -2 0.46378526E-01 0.14753903E+04</pdfrwt>
<totfact> 0.50410705E+01</totfact>
</mgrwt>
</event>
<event>
 8    1  0.2654897E-009  0.1953474E+04  0.7818608E-02  0.8628687E-01
          2   -1    0    0  501    0  0.00000000000E+00  0.00000000000E+00  0.53425552583E+03  0.53425552583E+03  0.25500000000E-02 0.  1.
         -2   -1    0    0    0  501 -0.00000000000E+00 -0.00000000000E+00 -0.17856904069E+04  0.17856904069E+04  0.25500000000E-02 0. -1.
     200001    2    1    2    0    0  0.23432648109E+02  0.12194271619E+03 -0.14209896934E+04  0.15890779902E+04  0.70038420533E+03 0.  0.
    5000001    2    3    3    0    0  0.13506244809E+02  0.84879427558E+02 -0.50827303781E+03  0.54767321092E+03  0.18497980736E+03 0.  0.
        -11    1    4    4    0    0  0.10614976824E+02  0.76817172102E+02 -0.51053663160E+03  0.51639249401E+03  0.51100000000E-03 0. -1.
     200002    1    4    4    0    0  0.28912679854E+01  0.80622554560E+01  0.22635937970E+01  0.31280716911E+02  0.30000000000E+02 0. -1.
     200000    1    3    3    0    0  0.99264033001E+01  0.37063288633E+02 -0.91271665564E+03  0.10414047793E+04  0.50000000000E+03 0. -1.
    -200001    1    1    2    0    0 -0.23432648109E+02 -0.12194271619E+03  0.16955481236E+03  0.73086794253E+03  0.70000000000E+03 0.  1.
<mgrwt>
<rscale>  0 0.19534738E+04</rscale>
<asrwt>0</asrwt>
<pdfrwt beam="1">  1        2 0.76322219E-01 0.19534738E+04</pdfrwt>
<pdfrwt beam="2">  1       -2 0.25509863E+00 0.19534738E+04</pdfrwt>
<totfact> 0.34786611E+00</totfact>
</mgrwt>
</event>
<event>
 8    1  0.2654897E-009  0.1809146E+04  0.7818608E-02  0.8701451E-01
          2   -1    0    0  501    0  0.00000000000E+00  0.00000000000E+00  0.18563296467E+04  0.18563296467E+04  0.25500000000E-02 0.  1.
         -2   -1    0    0    0  501 -0.00000000000E+00 -0.00000000000E+00 -0.44079059474E+03  0.44079059475E+03  0.25500000000E-02 0. -1.
     200001    2    1    2    0    0 -0.25222956980E+03 -0.26337355178E+03  0.12682004306E+04  0.14941918181E+04  0.70092187403E+03 0.  0.
    5000001    2    3    3    0    0 -0.51937088530E+02 -0.52924497700E+02  0.35915618093E+03  0.41680269144E+03  0.19807285951E+03 0.  0.
        -11    1    4    4    0    0 -0.40326606966E+02  0.71328936917E+02  0.16210136760E+03  0.18163398869E+03  0.51100000000E-03 0. -1.
     200002    1    4    4    0    0 -0.11610481563E+02 -0.12425343462E+03  0.19705481333E+03  0.23516870275E+03  0.30000000000E+02 0. -1.
     200000    1    3    3    0    0 -0.20029248127E+03 -0.21044905408E+03  0.90904424966E+03  0.10773891267E+04  0.50000000000E+03 0.  1.
    -200001    1    1    2    0    0  0.25222956980E+03  0.26337355178E+03  0.14733862136E+03  0.80292842334E+03  0.70000000000E+03 0. -1.
<mgrwt>
<rscale>  0 0.18091464E+04</rscale>
<asrwt>0</asrwt>
<pdfrwt beam="1">  1        2 0.26518995E+00 0.18091464E+04</pdfrwt>
<pdfrwt beam="2">  1       -2 0.62970085E-01 0.18091464E+04</pdfrwt>
<totfact> 0.21040133E+01</totfact>
</mgrwt>
</event>
<event>
 8    1  0.2654897E-009  0.2071339E+04  0.7818608E-02  0.8573975E-01
         -2   -1    0    0    0  501 -0.00000000000E+00  0.00000000000E+00  0.51210080646E+03  0.51210080647E+03  0.25500000000E-02 0. -1.
          2   -1    0    0  501    0  0.00000000000E+00 -0.00000000000E+00 -0.20945310483E+04  0.20945310483E+04  0.25500000000E-02 0.  1.
     200001    2    1    2    0    0  0.13821793858E+03 -0.16959558913E+03  0.12717069874E+03  0.74636245535E+03  0.70215216709E+03 0.  0.
    5000001    2    3    3    0    0  0.88111349664E+02 -0.88323908803E+02 -0.92704136222E+02  0.19187106739E+03  0.11249767475E+03 0.  0.
        -11    1    4    4    0    0  0.16567334907E+02 -0.64962680788E+02  0.22111397151E+01  0.67078428874E+02  0.51100000000E-03 0. -1.
     200002    1    4    4    0    0  0.71544014757E+02 -0.23361228015E+02 -0.94915275937E+02  0.12479263852E+03  0.30000000000E+02 0. -1.
     200000    1    3    3    0    0  0.50106588918E+02 -0.81271680327E+02  0.21987483496E+03  0.55449138796E+03  0.50000000000E+03 0. -1.
    -200001    1    1    2    0    0 -0.13821793858E+03  0.16959558913E+03 -0.17096009406E+04  0.18602693994E+04  0.70000000000E+03 0.  1.
<mgrwt>
<rscale>  0 0.20713387E+04</rscale>
<asrwt>0</asrwt>
<pdfrwt beam="1">  1        2 0.29921872E+00 0.20713387E+04</pdfrwt>
<pdfrwt beam="2">  1       -2 0.73157259E-01 0.20713387E+04</pdfrwt>
<totfact> 0.11219751E+01</totfact>
</mgrwt>
</event>
<event>
 8    1  0.2654897E-009  0.1436673E+04  0.7818608E-02  0.8927692E-01
         -2   -1    0    0    0  501 -0.00000000000E+00  0.00000000000E+00  0.48774706537E+03  0.48774706538E+03  0.25500000000E-02 0. -1.
          2   -1    0    0  501    0  0.00000000000E+00 -0.00000000000E+00 -0.10579405590E+04  0.10579405590E+04  0.25500000000E-02 0.  1.
     200001    2    1    2    0    0  0.81832371280E+02 -0.26627380260E+02 -0.14118074550E+03  0.72018323771E+03  0.70094674449E+03 0.  0.
    5000001    2    3    3    0    0  0.52427319752E+02  0.30719059591E+02 -0.85760511787E+02  0.21301001925E+03  0.18527309152E+03 0.  0.
        -11    1    4    4    0    0 -0.53831281299E+02 -0.12251131928E+01  0.19388242483E+02  0.57229465273E+02  0.51100000000E-03 0. -1.
     200002    1    4    4    0    0  0.10625860105E+03  0.31944172784E+02 -0.10514875427E+03  0.15578055397E+03  0.30000000000E+02 0. -1.
     200000    1    3    3    0    0  0.29405051528E+02 -0.57346439851E+02 -0.55420233708E+02  0.50717321846E+03  0.50000000000E+03 0. -1.
    -200001    1    1    2    0    0 -0.81832371280E+02  0.26627380260E+02 -0.42901274816E+03  0.82550438670E+03  0.70000000000E+03 0.  1.
<mgrwt>
<rscale>  0 0.14366731E+04</rscale>
<asrwt>0</asrwt>
<pdfrwt beam="1">  1        2 0.15113436E+00 0.14366731E+04</pdfrwt>
<pdfrwt beam="2">  1       -2 0.69678153E-01 0.14366731E+04</pdfrwt>
<totfact> 0.47264477E+01</totfact>
</mgrwt>
</event>
<event>
 8    1  0.2654897E-009  0.1477309E+04  0.7818608E-02  0.8899684E-01
          2   -1    0    0  501    0  0.00000000000E+00  0.00000000000E+00  0.17037308762E+04  0.17037308762E+04  0.25500000000E-02 0.  1.
         -2   -1    0    0    0  501 -0.00000000000E+00 -0.00000000000E+00 -0.32024445620E+03  0.32024445621E+03  0.25500000000E-02 0. -1.
     200001    2    1    2    0    0 -0.14722513921E+03 -0.16465080853E+03  0.80451186431E+03  0.10890974439E+04  0.70007769001E+03 0.  0.
    5000001    2    3    3    0    0 -0.10210863460E+03 -0.44490837166E+02  0.25448266851E+03  0.33477255766E+03  0.18683048183E+03 0.  0.
        -11    1    4    4    0    0 -0.90122651781E+02 -0.50231585169E+02  0.27659048889E+03  0.29520772866E+03  0.51100000000E-03 0. -1.
     200002    1    4    4    0    0 -0.11985982819E+02  0.57407480036E+01 -0.22107820388E+02  0.39564829004E+02  0.30000000000E+02 0. -1.
     200000    1    3    3    0    0 -0.45116504613E+02 -0.12015997137E+03  0.55002919581E+03  0.75432488620E+03  0.50000000000E+03 0.  1.
    -200001    1    1    2    0    0  0.14722513921E+03  0.16465080853E+03  0.57897455568E+03  0.93487788855E+03  0.70000000000E+03 0.  1.
<mgrwt>
<rscale>  0 0.14773089E+04</rscale>
<asrwt>0</asrwt>
<pdfrwt beam="1">  1        2 0.24339013E+00 0.14773089E+04</pdfrwt>
<pdfrwt beam="2">  1       -2 0.45749207E-01 0.14773089E+04</pdfrwt>
<totfact> 0.50125974E+01</totfact>
</mgrwt>
</event>
<event>
 8    1  0.2654897E-009  0.1704088E+04  0.7818608E-02  0.8759036E-01
         -2   -1    0    0    0  501 -0.00000000000E+00  0.00000000000E+00  0.22479566646E+03  0.22479566647E+03  0.25500000000E-02 0. -1.
          2   -1    0    0  501    0  0.00000000000E+00 -0.00000000000E+00 -0.32295058462E+04  0.32295058462E+04  0.25500000000E-02 0.  1.
     200001    2    1    2    0    0  0.13307410955E+02  0.44252079289E+03 -0.10976543719E+04  0.13751517842E+04  0.70013967894E+03 0.  0.
    5000001    2    3    3    0    0  0.53419571932E+02  0.10200281612E+03 -0.15287309760E+03  0.25257745067E+03  0.16482402572E+03 0.  0.
        -11    1    4    4    0    0 -0.21237963443E+02  0.16962350698E+02 -0.13061020860E+03  0.13340839187E+03  0.51100000000E-03 0. -1.
     200002    1    4    4    0    0  0.74657535375E+02  0.85040465426E+02 -0.22262889006E+02  0.11916905880E+03  0.30000000000E+02 0. -1.
     200000    1    3    3    0    0 -0.40112160978E+02  0.34051797676E+03 -0.94478127431E+03  0.11225743335E+04  0.50000000000E+03 0. -1.
    -200001    1    1    2    0    0 -0.13307410955E+02 -0.44252079289E+03 -0.19070558079E+04  0.20791497285E+04  0.70000000000E+03 0.  1.
<mgrwt>
<rscale>  0 0.17040879E+04</rscale>
<asrwt>0</asrwt>
<pdfrwt beam="1">  1        2 0.46135795E+00 0.17040879E+04</pdfrwt>
<pdfrwt beam="2">  1       -2 0.32113669E-01 0.17040879E+04</pdfrwt>
<totfact> 0.15069554E+01</totfact>
</mgrwt>
</event>
<event>
 8    1  0.2654897E-009  0.1530768E+04  0.7818608E-02  0.8864247E-01
         -2   -1    0    0    0  501 -0.00000000000E+00  0.00000000000E+00  0.99482890496E+03  0.99482890496E+03  0.25500000000E-02 0. -1.
          2   -1    0    0  501    0  0.00000000000E+00 -0.00000000000E+00 -0.58885744983E+03  0.58885744983E+03  0.25500000000E-02 0.  1.
     200001    2    1    2    0    0 -0.24194913233E+03  0.18131404615E+03  0.13971526741E+03  0.77603140157E+03  0.70092097580E+03 0.  0.
    5000001    2    3    3    0    0 -0.21574151437E+02  0.37279349573E+02  0.15572218095E+03  0.21072852054E+03  0.13528458085E+03 0.  0.
        -11    1    4    4    0    0  0.29702931666E+02  0.68493451802E+02  0.76276601467E+02  0.10673208056E+03  0.51100000000E-03 0. -1.
     200002    1    4    4    0    0 -0.51277083103E+02 -0.31214102229E+02  0.79445579479E+02  0.10399643998E+03  0.30000000000E+02 0. -1.
     200000    1    3    3    0    0 -0.22037498089E+03  0.14403469658E+03 -0.16006913539E+02  0.56530288103E+03  0.50000000000E+03 0. -1.
    -200001    1    1    2    0    0  0.24194913233E+03 -0.18131404615E+03  0.26625618773E+03  0.80765495322E+03  0.70000000000E+03 0.  1.
<mgrwt>
<rscale>  0 0.15307677E+04</rscale>
<asrwt>0</asrwt>
<pdfrwt beam="1">  1        2 0.84122494E-01 0.15307677E+04</pdfrwt>
<pdfrwt beam="2">  1       -2 0.14211841E+00 0.15307677E+04</pdfrwt>
<totfact> 0.18500669E+01</totfact>
</mgrwt>
</event>
<event>
 8    1  0.2654897E-009  0.1408385E+04  0.7818608E-02  0.8947771E-01
         -2   -1    0    0    0  501 -0.00000000000E+00  0.00000000000E+00  0.54569036494E+03  0.54569036495E+03  0.25500000000E-02 0. -1.
          2   -1    0    0  501    0  0.00000000000E+00 -0.00000000000E+00 -0.90873341140E+03  0.90873341140E+03  0.25500000000E-02 0.  1.
     200001    2    1    2    0    0  0.63405595832E+02  0.23833465676E+02 -0.17025679598E+03  0.72520855295E+03  0.70167782138E+03 0.  0.
    5000001    2    3    3    0    0  0.93785364437E+01  0.40777931450E+02 -0.41582299127E+02  0.20582125602E+03  0.19718647314E+03 0.  0.
        -11    1    4    4    0    0  0.88804519196E+02 -0.23616505677E+02 -0.37305511750E+02  0.99175012867E+02  0.51100000000E-03 0. -1.
     200002    1    4    4    0    0 -0.79425982752E+02  0.64394437127E+02 -0.42767873766E+01  0.10664624316E+03  0.30000000000E+02 0. -1.
     200000    1    3    3    0    0  0.54027059388E+02 -0.16944465774E+02 -0.12867449685E+03  0.51938729692E+03  0.50000000000E+03 0. -1.
    -200001    1    1    2    0    0 -0.63405595832E+02 -0.23833465676E+02 -0.19278625048E+03  0.72921522340E+03  0.70000000000E+03 0. -1.
<mgrwt>
<rscale>  0 0.14083850E+04</rscale>
<asrwt>0</asrwt>
<pdfrwt beam="1">  1        2 0.12981906E+00 0.14083850E+04</pdfrwt>
<pdfrwt beam="2">  1       -2 0.77955767E-01 0.14083850E+04</pdfrwt>
<totfact> 0.45816008E+01</totfact>
</mgrwt>
</event>
<event>
 8    1  0.2654897E-009  0.2034431E+04  0.7818608E-02  0.8590690E-01
          2   -1    0    0  501    0  0.00000000000E+00  0.00000000000E+00  0.17673544018E+04  0.17673544018E+04  0.25500000000E-02 0.  1.
         -2   -1    0    0    0  501 -0.00000000000E+00 -0.00000000000E+00 -0.58546700861E+03  0.58546700862E+03  0.25500000000E-02 0. -1.
     200001    2    1    2    0    0 -0.56113046893E+03 -0.46371252223E+03  0.46602816378E+03  0.11149396944E+04  0.70428088600E+03 0.  0.
    5000001    2    3    3    0    0 -0.25753394888E+03 -0.14555260193E+03  0.23176495977E+03  0.40905313797E+03  0.16155549618E+03 0.  0.
        -11    1    4    4    0    0 -0.14777719114E+02  0.19968417942E+02 -0.10586307226E+02  0.27003492334E+02  0.51100000000E-03 0. -1.
     200002    1    4    4    0    0 -0.24275622977E+03 -0.16552101987E+03  0.24235126700E+03  0.38204964563E+03  0.30000000000E+02 0. -1.
     200000    1    3    3    0    0 -0.30359652004E+03 -0.31815992030E+03  0.23426320401E+03  0.70588655648E+03  0.50000000000E+03 0. -1.
    -200001    1    1    2    0    0  0.56113046893E+03  0.46371252223E+03  0.71585922944E+03  0.12378817160E+04  0.70000000000E+03 0.  1.
<mgrwt>
<rscale>  0 0.20344313E+04</rscale>
<asrwt>0</asrwt>
<pdfrwt beam="1">  1        2 0.25247920E+00 0.20344313E+04</pdfrwt>
<pdfrwt beam="2">  1       -2 0.83638143E-01 0.20344313E+04</pdfrwt>
<totfact> 0.12304578E+01</totfact>
</mgrwt>
</event>
<event>
 8    1  0.2654897E-009  0.2124574E+04  0.7818608E-02  0.8550495E-01
          2   -1    0    0  501    0  0.00000000000E+00  0.00000000000E+00  0.50148196569E+03  0.50148196570E+03  0.25500000000E-02 0.  1.
         -2   -1    0    0    0  501 -0.00000000000E+00 -0.00000000000E+00 -0.22502376669E+04  0.22502376669E+04  0.25500000000E-02 0. -1.
     200001    2    1    2    0    0  0.44012823283E+02  0.58278998527E+03 -0.16918988952E+03  0.92782011536E+03  0.70045960070E+03 0.  0.
    5000001    2    3    3    0    0 -0.32817454267E+02  0.16077474667E+03  0.66778754819E+02  0.22804804228E+03  0.14360014979E+03 0.  0.
        -11    1    4    4    0    0  0.45105229755E+01  0.24031207477E+02 -0.40816310524E+02  0.47579564472E+02  0.51100000000E-03 0. -1.
     200002    1    4    4    0    0 -0.37327977243E+02  0.13674353919E+03  0.10759506534E+03  0.18046847781E+03  0.30000000000E+02 0. -1.
     200000    1    3    3    0    0  0.76830277550E+02  0.42201523860E+03 -0.23596864434E+03  0.69977207308E+03  0.50000000000E+03 0.  1.
    -200001    1    1    2    0    0 -0.44012823283E+02 -0.58278998527E+03 -0.15795658117E+04  0.18238995173E+04  0.70000000000E+03 0. -1.
<mgrwt>
<rscale>  0 0.21245739E+04</rscale>
<asrwt>0</asrwt>
<pdfrwt beam="1">  1        2 0.71640282E-01 0.21245739E+04</pdfrwt>
<pdfrwt beam="2">  1       -2 0.32146252E+00 0.21245739E+04</pdfrwt>
<totfact> 0.14501079E+00</totfact>
</mgrwt>
</event>
<event>
 8    1  0.2654897E-009  0.2465860E+04  0.7818608E-02  0.8415250E-01
          2   -1    0    0  501    0  0.00000000000E+00  0.00000000000E+00  0.32200478659E+04  0.32200478659E+04  0.25500000000E-02 0.  1.
         -2   -1    0    0    0  501 -0.00000000000E+00 -0.00000000000E+00 -0.47207886210E+03  0.47207886210E+03  0.25500000000E-02 0. -1.
     200001    2    1    2    0    0  0.98219408476E+03  0.19600436501E+03  0.11266843456E+04  0.16619329259E+04  0.69962883321E+03 0.  0.
    5000001    2    3    3    0    0  0.27853602092E+03  0.63763120878E+02  0.21273410891E+03  0.39784137357E+03  0.17712681022E+03 0.  0.
        -11    1    4    4    0    0  0.67925325114E+02 -0.27373682568E+02  0.13520468516E+03  0.15376434951E+03  0.51100000000E-03 0. -1.
     200002    1    4    4    0    0  0.21061069581E+03  0.91136803446E+02  0.77529423748E+02  0.24407702407E+03  0.30000000000E+02 0. -1.
     200000    1    3    3    0    0  0.70365806383E+03  0.13224124413E+03  0.91395023671E+03  0.12640915523E+04  0.50000000000E+03 0.  1.
    -200001    1    1    2    0    0 -0.98219408476E+03 -0.19600436501E+03  0.16212846581E+04  0.20301938021E+04  0.70000000000E+03 0.  1.
<mgrwt>
<rscale>  0 0.24658601E+04</rscale>
<asrwt>0</asrwt>
<pdfrwt beam="1">  1        2 0.46000684E+00 0.24658601E+04</pdfrwt>
<pdfrwt beam="2">  1       -2 0.67439837E-01 0.24658601E+04</pdfrwt>
<totfact> 0.32009458E+00</totfact>
</mgrwt>
</event>
<event>
 8    1  0.2654897E-009  0.2086275E+04  0.7818608E-02  0.8567314E-01
         -2   -1    0    0    0  501 -0.00000000000E+00  0.00000000000E+00  0.10507154529E+04  0.10507154529E+04  0.25500000000E-02 0. -1.
          2   -1    0    0  501    0  0.00000000000E+00 -0.00000000000E+00 -0.10356138699E+04  0.10356138699E+04  0.25500000000E-02 0.  1.
     200001    2    1    2    0    0  0.20309838145E+03  0.56353491716E+03 -0.48233216954E+03  0.10393045411E+04  0.69906298143E+03 0.  0.
    5000001    2    3    3    0    0 -0.31100377170E+02  0.14722605317E+03 -0.96487156291E+02  0.24744691312E+03  0.17110657290E+03 0.  0.
        -11    1    4    4    0    0 -0.14724776749E+02  0.15531613228E+03 -0.12680733847E+03  0.20104731057E+03  0.51100000000E-03 0. -1.
     200002    1    4    4    0    0 -0.16375600421E+02 -0.80900791064E+01  0.30320182182E+02  0.46399602549E+02  0.30000000000E+02 0. -1.
     200000    1    3    3    0    0  0.23419875862E+03  0.41630886399E+03 -0.38584501325E+03  0.79185762800E+03  0.50000000000E+03 0.  1.
    -200001    1    1    2    0    0 -0.20309838145E+03 -0.56353491716E+03  0.49743375247E+03  0.10470247817E+04  0.70000000000E+03 0. -1.
<mgrwt>
<rscale>  0 0.20862747E+04</rscale>
<asrwt>0</asrwt>
<pdfrwt beam="1">  1        2 0.14794484E+00 0.20862747E+04</pdfrwt>
<pdfrwt beam="2">  1       -2 0.15010221E+00 0.20862747E+04</pdfrwt>
<totfact> 0.73992417E+00</totfact>
</mgrwt>
</event>
<event>
 8    1  0.2654897E-009  0.2159089E+04  0.7818608E-02  0.8535652E-01
         -2   -1    0    0    0  501 -0.00000000000E+00  0.00000000000E+00  0.50842887003E+03  0.50842887004E+03  0.25500000000E-02 0. -1.
          2   -1    0    0  501    0  0.00000000000E+00 -0.00000000000E+00 -0.22921925206E+04  0.22921925206E+04  0.25500000000E-02 0.  1.
     200001    2    1    2    0    0  0.14508273271E+03  0.20381401217E+03 -0.19074180777E+04  0.20470435458E+04  0.69968164493E+03 0.  0.
    5000001    2    3    3    0    0  0.66933564841E+02  0.18311433722E+02 -0.52651348655E+03  0.56467517424E+03  0.19190151166E+03 0.  0.
        -11    1    4    4    0    0  0.29007717289E+01  0.96876390183E+02 -0.21853231627E+03  0.23906029095E+03  0.51100000000E-03 0. -1.
     200002    1    4    4    0    0  0.64032793112E+02 -0.78564956460E+02 -0.30798117028E+03  0.32561488329E+03  0.30000000000E+02 0. -1.
     200000    1    3    3    0    0  0.78149167864E+02  0.18550257845E+03 -0.13809045912E+04  0.14823683716E+04  0.50000000000E+03 0.  1.
    -200001    1    1    2    0    0 -0.14508273271E+03 -0.20381401217E+03  0.12365442716E+03  0.75357784485E+03  0.70000000000E+03 0. -1.
<mgrwt>
<rscale>  0 0.21590895E+04</rscale>
<asrwt>0</asrwt>
<pdfrwt beam="1">  1        2 0.32745607E+00 0.21590895E+04</pdfrwt>
<pdfrwt beam="2">  1       -2 0.72632697E-01 0.21590895E+04</pdfrwt>
<totfact> 0.89429531E+00</totfact>
</mgrwt>
</event>
<event>
 8    1  0.2654897E-009  0.1487807E+04  0.7818608E-02  0.8892602E-01
          2   -1    0    0  501    0  0.00000000000E+00  0.00000000000E+00  0.46985769951E+03  0.46985769952E+03  0.25500000000E-02 0.  1.
         -2   -1    0    0    0  501 -0.00000000000E+00 -0.00000000000E+00 -0.11777876507E+04  0.11777876507E+04  0.25500000000E-02 0. -1.
     200001    2    1    2    0    0 -0.17950263810E+03 -0.16104039926E+03 -0.34445440286E+03  0.82286072289E+03  0.70731586038E+03 0.  0.
    5000001    2    3    3    0    0 -0.20755990304E+02 -0.13982107937E+02 -0.14274946797E+03  0.24190330621E+03  0.19368399128E+03 0.  0.
        -11    1    4    4    0    0 -0.48640446014E+02  0.61060876539E+02 -0.13514633992E+03  0.15607324187E+03  0.51100000000E-03 0. -1.
     200002    1    4    4    0    0  0.27884455710E+02 -0.75042984477E+02 -0.76031280417E+01  0.85830064345E+02  0.30000000000E+02 0. -1.
     200000    1    3    3    0    0 -0.15874664780E+03 -0.14705829133E+03 -0.20170493490E+03  0.58095741668E+03  0.50000000000E+03 0. -1.
    -200001    1    1    2    0    0  0.17950263810E+03  0.16104039926E+03 -0.36347554836E+03  0.82478462736E+03  0.70000000000E+03 0.  1.
<mgrwt>
<rscale>  0 0.14878072E+04</rscale>
<asrwt>0</asrwt>
<pdfrwt beam="1">  1        2 0.67122529E-01 0.14878072E+04</pdfrwt>
<pdfrwt beam="2">  1       -2 0.16825538E+00 0.14878072E+04</pdfrwt>
<totfact> 0.15307032E+01</totfact>
</mgrwt>
</event>
<event>
 8    1  0.2654897E-009  0.1511595E+04  0.7818608E-02  0.8876779E-01
         -2   -1    0    0    0  501 -0.00000000000E+00  0.00000000000E+00  0.33084965880E+03  0.33084965881E+03  0.25500000000E-02 0. -1.
          2   -1    0    0  501    0  0.00000000000E+00 -0.00000000000E+00 -0.17265544957E+04  0.17265544957E+04  0.25500000000E-02 0.  1.
     200001    2    1    2    0    0  0.18682327834E+03  0.19335585809E+03 -0.56969836945E+03  0.94179844036E+03  0.70009902508E+03 0.  0.
    5000001    2    3    3    0    0  0.60803646456E+02  0.15266940382E+03 -0.25023413930E+03  0.33385623132E+03  0.14777627834E+03 0.  0.
        -11    1    4    4    0    0  0.96413503360E+01  0.15437124273E+03 -0.13978333506E+03  0.20847737762E+03  0.51100000000E-03 0. -1.
     200002    1    4    4    0    0  0.51162296120E+02 -0.17018389095E+01 -0.11045080423E+03  0.12537885370E+03  0.30000000000E+02 0. -1.
     200000    1    3    3    0    0  0.12601963188E+03  0.40686454272E+02 -0.31946423015E+03  0.60794220904E+03  0.50000000000E+03 0.  1.
    -200001    1    1    2    0    0 -0.18682327834E+03 -0.19335585809E+03 -0.82600646748E+03  0.11156057142E+04  0.70000000000E+03 0. -1.
<mgrwt>
<rscale>  0 0.15115951E+04</rscale>
<asrwt>0</asrwt>
<pdfrwt beam="1">  1        2 0.24665064E+00 0.15115951E+04</pdfrwt>
<pdfrwt beam="2">  1       -2 0.47264238E-01 0.15115951E+04</pdfrwt>
<totfact> 0.45565960E+01</totfact>
</mgrwt>
</event>
<event>
 8    1  0.2654897E-009  0.1614835E+04  0.7818608E-02  0.8811486E-01
         -2   -1    0    0    0  501 -0.00000000000E+00  0.00000000000E+00  0.14996179288E+04  0.14996179288E+04  0.25500000000E-02 0.  1.
          2   -1    0    0  501    0  0.00000000000E+00 -0.00000000000E+00 -0.43472607007E+03  0.43472607008E+03  0.25500000000E-02 0. -1.
     200001    2    1    2    0    0 -0.68321166071E+02 -0.10964449149E+03  0.99000065675E+03  0.12185937712E+04  0.69869863511E+03 0.  0.
    5000001    2    3    3    0    0  0.66531882746E+02 -0.16274796433E+02  0.23155468707E+03  0.29547756315E+03  0.17028815813E+03 0.  0.
        -11    1    4    4    0    0  0.84326298265E+02  0.13693810000E+02  0.32863213950E+02  0.91533796178E+02  0.51100000000E-03 0. -1.
     200002    1    4    4    0    0 -0.17794415519E+02 -0.29968606434E+02  0.19869147312E+03  0.20394376697E+03  0.30000000000E+02 0. -1.
     200000    1    3    3    0    0 -0.13485304882E+03 -0.93369695052E+02  0.75844596968E+03  0.92311620810E+03  0.50000000000E+03 0.  1.
    -200001    1    1    2    0    0  0.68321166071E+02  0.10964449149E+03  0.74891201989E+02  0.71575022765E+03  0.70000000000E+03 0. -1.
<mgrwt>
<rscale>  0 0.16148350E+04</rscale>
<asrwt>0</asrwt>
<pdfrwt beam="1">  1        2 0.62103724E-01 0.16148350E+04</pdfrwt>
<pdfrwt beam="2">  1       -2 0.21423113E+00 0.16148350E+04</pdfrwt>
<totfact> 0.81250739E+00</totfact>
</mgrwt>
</event>
<event>
 8    1  0.2654897E-009  0.1432463E+04  0.7818608E-02  0.8930650E-01
          2   -1    0    0  501    0  0.00000000000E+00  0.00000000000E+00  0.29477181360E+04  0.29477181360E+04  0.25500000000E-02 0.  1.
         -2   -1    0    0    0  501 -0.00000000000E+00 -0.00000000000E+00 -0.17402860898E+03  0.17402860900E+03  0.25500000000E-02 0. -1.
     200001    2    1    2    0    0  0.97455867835E+02  0.53626929912E+02  0.11682540390E+04  0.13668118175E+04  0.70070218415E+03 0.  0.
    5000001    2    3    3    0    0  0.98677778677E+02 -0.95086506182E+02  0.39060537213E+03  0.43040665501E+03  0.11789225708E+03 0.  0.
        -11    1    4    4    0    0  0.37964514188E+02  0.32797348699E+01  0.24468040529E+02  0.45285163199E+02  0.51100000000E-03 0. -1.
     200002    1    4    4    0    0  0.60713264489E+02 -0.98366241052E+02  0.36613733160E+03  0.38512149182E+03  0.30000000000E+02 0. -1.
     200000    1    3    3    0    0 -0.12219108420E+01  0.14871343609E+03  0.77764866690E+03  0.93640516246E+03  0.50000000000E+03 0. -1.
    -200001    1    1    2    0    0 -0.97455867835E+02 -0.53626929912E+02  0.16054354880E+04  0.17549349276E+04  0.70000000000E+03 0.  1.
<mgrwt>
<rscale>  0 0.14324626E+04</rscale>
<asrwt>0</asrwt>
<pdfrwt beam="1">  1        2 0.42110255E+00 0.14324626E+04</pdfrwt>
<pdfrwt beam="2">  1       -2 0.24861233E-01 0.14324626E+04</pdfrwt>
<totfact> 0.35736614E+01</totfact>
</mgrwt>
</event>
<event>
 8    1  0.2654897E-009  0.1529354E+04  0.7818608E-02  0.8865164E-01
         -2   -1    0    0    0  501 -0.00000000000E+00  0.00000000000E+00  0.11813434293E+04  0.11813434293E+04  0.25500000000E-02 0. -1.
          2   -1    0    0  501    0  0.00000000000E+00 -0.00000000000E+00 -0.49497127768E+03  0.49497127769E+03  0.25500000000E-02 0.  1.
     200001    2    1    2    0    0  0.15217570601E+03  0.11442935320E+03  0.74799888126E+02  0.72748798106E+03  0.69813481287E+03 0.  0.
    5000001    2    3    3    0    0  0.13610667497E+03  0.17606823126E+01  0.19297827805E+02  0.21170418734E+03  0.16099108611E+03 0.  0.
        -11    1    4    4    0    0  0.14796500577E+03  0.25923800812E+02 -0.24477451977E+02  0.15219997384E+03  0.51100000000E-03 0. -1.
     200002    1    4    4    0    0 -0.11858330798E+02 -0.24163118499E+02  0.43775279782E+02  0.59504213505E+02  0.30000000000E+02 0. -1.
     200000    1    3    3    0    0  0.16069031039E+02  0.11266867089E+03  0.55502060321E+02  0.51578379371E+03  0.50000000000E+03 0.  1.
    -200001    1    1    2    0    0 -0.15217570601E+03 -0.11442935320E+03  0.61157226349E+03  0.94882672594E+03  0.70000000000E+03 0. -1.
<mgrwt>
<rscale>  0 0.15293542E+04</rscale>
<asrwt>0</asrwt>
<pdfrwt beam="1">  1        2 0.70710183E-01 0.15293542E+04</pdfrwt>
<pdfrwt beam="2">  1       -2 0.16876335E+00 0.15293542E+04</pdfrwt>
<totfact> 0.14259710E+01</totfact>
</mgrwt>
</event>
<event>
 8    1  0.2654897E-009  0.3643884E+04  0.7818608E-02  0.8080513E-01
          2   -1    0    0  501    0  0.00000000000E+00  0.00000000000E+00  0.15551143798E+04  0.15551143798E+04  0.25500000000E-02 0.  1.
         -2   -1    0    0    0  501 -0.00000000000E+00 -0.00000000000E+00 -0.21345516305E+04  0.21345516305E+04  0.25500000000E-02 0. -1.
     200001    2    1    2    0    0 -0.12165403318E+04 -0.10886784754E+04 -0.70046358713E+03  0.19092619619E+04  0.69960045791E+03 0.  0.
    5000001    2    3    3    0    0 -0.42897786705E+03 -0.34325205236E+03 -0.34733325726E+03  0.66402454766E+03  0.13580952259E+03 0.  0.
        -11    1    4    4    0    0 -0.24903111136E+03 -0.15069149885E+03 -0.24231694493E+03  0.37873727576E+03  0.51100000000E-03 0. -1.
     200002    1    4    4    0    0 -0.17994675569E+03 -0.19256055351E+03 -0.10501631234E+03  0.28528727190E+03  0.30000000000E+02 0. -1.
     200000    1    3    3    0    0 -0.78756246473E+03 -0.74542642299E+03 -0.35313032986E+03  0.12452374142E+04  0.50000000000E+03 0. -1.
    -200001    1    1    2    0    0  0.12165403318E+04  0.10886784754E+04  0.12102633642E+03  0.17804040484E+04  0.70000000000E+03 0.  1.
<mgrwt>
<rscale>  0 0.36438836E+04</rscale>
<asrwt>0</asrwt>
<pdfrwt beam="1">  1        2 0.22215920E+00 0.36438836E+04</pdfrwt>
<pdfrwt beam="2">  1       -2 0.30493594E+00 0.36438836E+04</pdfrwt>
<totfact> 0.33204639E-01</totfact>
</mgrwt>
</event>
<event>
 8    1  0.2654897E-009  0.1493227E+04  0.7818608E-02  0.8888969E-01
          2   -1    0    0  501    0  0.00000000000E+00  0.00000000000E+00  0.20589370091E+04  0.20589370091E+04  0.25500000000E-02 0.  1.
         -2   -1    0    0    0  501 -0.00000000000E+00 -0.00000000000E+00 -0.27073759597E+03  0.27073759598E+03  0.25500000000E-02 0. -1.
     200001    2    1    2    0    0  0.43122171437E+02 -0.20851554213E+03  0.66785193072E+03  0.99157269030E+03  0.70132157090E+03 0.  0.
    5000001    2    3    3    0    0 -0.46726843894E+02 -0.40703589651E+02  0.16758716011E+03  0.25911208545E+03  0.18765243521E+03 0.  0.
        -11    1    4    4    0    0 -0.10088692220E+03 -0.22018553646E+01  0.15525469319E+03  0.18516759705E+03  0.51100000000E-03 0. -1.
     200002    1    4    4    0    0  0.54160078305E+02 -0.38501734286E+02  0.12332466921E+02  0.73944488405E+02  0.30000000000E+02 0. -1.
     200000    1    3    3    0    0  0.89849015330E+02 -0.16781195247E+03  0.50026477061E+03  0.73246060486E+03  0.50000000000E+03 0. -1.
    -200001    1    1    2    0    0 -0.43122171437E+02  0.20851554213E+03  0.11203474824E+04  0.13381019148E+04  0.70000000000E+03 0.  1.
<mgrwt>
<rscale>  0 0.14932269E+04</rscale>
<asrwt>0</asrwt>
<pdfrwt beam="1">  1        2 0.29413387E+00 0.14932269E+04</pdfrwt>
<pdfrwt beam="2">  1       -2 0.38676799E-01 0.14932269E+04</pdfrwt>
<totfact> 0.45742346E+01</totfact>
</mgrwt>
</event>
<event>
 8    1  0.2654897E-009  0.1754805E+04  0.7818608E-02  0.8730710E-01
         -2   -1    0    0    0  501 -0.00000000000E+00  0.00000000000E+00  0.63600298134E+03  0.63600298134E+03  0.25500000000E-02 0. -1.
          2   -1    0    0  501    0  0.00000000000E+00 -0.00000000000E+00 -0.12104276360E+04  0.12104276360E+04  0.25500000000E-02 0.  1.
     200001    2    1    2    0    0 -0.50906881376E+03 -0.24555393103E+02 -0.13302615738E+03  0.87453213608E+03  0.69810921353E+03 0.  0.
    5000001    2    3    3    0    0 -0.12550517439E+03 -0.24916640435E+02 -0.11033384987E+02  0.23265720086E+03  0.19399806638E+03 0.  0.
        -11    1    4    4    0    0 -0.15108488917E+03 -0.35742437016E+02 -0.62123032910E+02  0.16722271603E+03  0.51100000000E-03 0. -1.
     200002    1    4    4    0    0  0.25579714780E+02  0.10825796582E+02  0.51089647923E+02  0.65434484829E+02  0.30000000000E+02 0. -1.
     200000    1    3    3    0    0 -0.38356363937E+03  0.36124733209E+00 -0.12199277239E+03  0.64187493522E+03  0.50000000000E+03 0. -1.
    -200001    1    1    2    0    0  0.50906881376E+03  0.24555393103E+02 -0.44139849726E+03  0.97189848125E+03  0.70000000000E+03 0.  1.
<mgrwt>
<rscale>  0 0.17548055E+04</rscale>
<asrwt>0</asrwt>
<pdfrwt beam="1">  1        2 0.17291823E+00 0.17548055E+04</pdfrwt>
<pdfrwt beam="2">  1       -2 0.90857569E-01 0.17548055E+04</pdfrwt>
<totfact> 0.20713548E+01</totfact>
</mgrwt>
</event>
<event>
 8    1  0.2654897E-009  0.1931200E+04  0.7818608E-02  0.8639480E-01
          2   -1    0    0  501    0  0.00000000000E+00  0.00000000000E+00  0.87573223710E+03  0.87573223710E+03  0.25500000000E-02 0.  1.
         -2   -1    0    0    0  501 -0.00000000000E+00 -0.00000000000E+00 -0.10646896365E+04  0.10646896365E+04  0.25500000000E-02 0. -1.
     200001    2    1    2    0    0  0.45936127129E+03 -0.11034524558E+03  0.37623270800E+03  0.92423847073E+03  0.69962622122E+03 0.  0.
    5000001    2    3    3    0    0  0.55730528439E+02 -0.87980461749E-01  0.12470166751E+03  0.22542354143E+03  0.17933033098E+03 0.  0.
        -11    1    4    4    0    0 -0.41297225196E+02 -0.13468428691E+02  0.11451999857E+03  0.12248138411E+03  0.51100000000E-03 0. -1.
     200002    1    4    4    0    0  0.97027753636E+02  0.13380448229E+02  0.10181668936E+02  0.10294215732E+03  0.30000000000E+02 0. -1.
     200000    1    3    3    0    0  0.40363074285E+03 -0.11025726512E+03  0.25153104049E+03  0.69881492930E+03  0.50000000000E+03 0.  1.
    -200001    1    1    2    0    0 -0.45936127129E+03  0.11034524558E+03 -0.56519010738E+03  0.10161834029E+04  0.70000000000E+03 0. -1.
<mgrwt>
<rscale>  0 0.19311997E+04</rscale>
<asrwt>0</asrwt>
<pdfrwt beam="1">  1        2 0.12510461E+00 0.19311997E+04</pdfrwt>
<pdfrwt beam="2">  1       -2 0.15209852E+00 0.19311997E+04</pdfrwt>
<totfact> 0.91317517E+00</totfact>
</mgrwt>
</event>
<event>
 8    1  0.2654897E-009  0.1561086E+04  0.7818608E-02  0.8844818E-01
          2   -1    0    0  501    0  0.00000000000E+00  0.00000000000E+00  0.49239543842E+03  0.49239543843E+03  0.25500000000E-02 0.  1.
         -2   -1    0    0    0  501 -0.00000000000E+00 -0.00000000000E+00 -0.12373128931E+04  0.12373128931E+04  0.25500000000E-02 0. -1.
     200001    2    1    2    0    0  0.14750825871E+03 -0.17699876604E+03 -0.65771763005E+03  0.98762271722E+03  0.69979918629E+03 0.  0.
    5000001    2    3    3    0    0 -0.92879795470E+02 -0.58081891017E+02 -0.46205703624E+02  0.15343180627E+03  0.96985512611E+02 0.  0.
        -11    1    4    4    0    0 -0.40949962217E+02 -0.66837437430E+02 -0.19911788810E+01  0.78409866990E+02  0.51100000000E-03 0. -1.
     200002    1    4    4    0    0 -0.51929833253E+02  0.87555464136E+01 -0.44214524743E+02  0.75021939278E+02  0.30000000000E+02 0. -1.
     200000    1    3    3    0    0  0.24038805418E+03 -0.11891687502E+03 -0.61151192643E+03  0.83419091095E+03  0.50000000000E+03 0. -1.
    -200001    1    1    2    0    0 -0.14750825871E+03  0.17699876604E+03 -0.87199824637E+02  0.74208561432E+03  0.70000000000E+03 0.  1.
<mgrwt>
<rscale>  0 0.15610858E+04</rscale>
<asrwt>0</asrwt>
<pdfrwt beam="1">  1        2 0.70342206E-01 0.15610858E+04</pdfrwt>
<pdfrwt beam="2">  1       -2 0.17675898E+00 0.15610858E+04</pdfrwt>
<totfact> 0.12566534E+01</totfact>
</mgrwt>
</event>
<event>
 8    1  0.2654897E-009  0.2135389E+04  0.7818608E-02  0.8545813E-01
         -2   -1    0    0    0  501 -0.00000000000E+00  0.00000000000E+00  0.10841302239E+04  0.10841302239E+04  0.25500000000E-02 0. -1.
          2   -1    0    0  501    0  0.00000000000E+00 -0.00000000000E+00 -0.10515076033E+04  0.10515076033E+04  0.25500000000E-02 0.  1.
     200001    2    1    2    0    0  0.34839287552E+02  0.78451219507E+03  0.19358338966E+03  0.10714096893E+04  0.70268843273E+03 0.  0.
    5000001    2    3    3    0    0 -0.11003507861E+03  0.16117845792E+03  0.38534496311E+02  0.24462453637E+03  0.14237289969E+03 0.  0.
        -11    1    4    4    0    0  0.96192358327E+01 -0.14770778400E+02 -0.15029961625E+02  0.23164743453E+02  0.51100000000E-03 0. -1.
     200002    1    4    4    0    0 -0.11965431444E+03  0.17594923632E+03  0.53564457937E+02  0.22145979292E+03  0.30000000000E+02 0. -1.
     200000    1    3    3    0    0  0.14487436616E+03  0.62333373715E+03  0.15504889335E+03  0.82678515297E+03  0.50000000000E+03 0. -1.
    -200001    1    1    2    0    0 -0.34839287552E+02 -0.78451219507E+03 -0.16096076902E+03  0.10642281378E+04  0.70000000000E+03 0.  1.
<mgrwt>
<rscale>  0 0.21353887E+04</rscale>
<asrwt>0</asrwt>
<pdfrwt beam="1">  1        2 0.15021537E+00 0.21353887E+04</pdfrwt>
<pdfrwt beam="2">  1       -2 0.15487575E+00 0.21353887E+04</pdfrwt>
<totfact> 0.66314972E+00</totfact>
</mgrwt>
</event>
<event>
 8    1  0.2654897E-009  0.2328140E+04  0.7818608E-02  0.8466908E-01
         -2   -1    0    0    0  501 -0.00000000000E+00  0.00000000000E+00  0.10901666818E+04  0.10901666818E+04  0.25500000000E-02 0. -1.
          2   -1    0    0  501    0  0.00000000000E+00 -0.00000000000E+00 -0.12429829708E+04  0.12429829708E+04  0.25500000000E-02 0.  1.
     200001    2    1    2    0    0 -0.47270118294E+03 -0.62813203493E+03 -0.57472480490E+03  0.11991289044E+04  0.69971799051E+03 0.  0.
    5000001    2    3    3    0    0  0.56048650354E+01 -0.92994236571E+02 -0.36108652864E+02  0.17187212147E+03  0.13984580358E+03 0.  0.
        -11    1    4    4    0    0  0.20418335852E+02 -0.22926291864E+02  0.48268970595E+02  0.57205041912E+02  0.51100000000E-03 0. -1.
     200002    1    4    4    0    0 -0.14813470817E+02 -0.70067944706E+02 -0.84377623459E+02  0.11466707955E+03  0.30000000000E+02 0. -1.
     200000    1    3    3    0    0 -0.47830604798E+03 -0.53513779836E+03 -0.53861615204E+03  0.10272567829E+04  0.50000000000E+03 0.  1.
    -200001    1    1    2    0    0  0.47270118294E+03  0.62813203493E+03  0.42190851588E+03  0.11340207482E+04  0.70000000000E+03 0. -1.
<mgrwt>
<rscale>  0 0.23281397E+04</rscale>
<asrwt>0</asrwt>
<pdfrwt beam="1">  1        2 0.17756900E+00 0.23281397E+04</pdfrwt>
<pdfrwt beam="2">  1       -2 0.15573810E+00 0.23281397E+04</pdfrwt>
<totfact> 0.49792535E+00</totfact>
</mgrwt>
</event>
<event>
 8    1  0.2654897E-009  0.1501236E+04  0.7818608E-02  0.8883631E-01
         -2   -1    0    0    0  501 -0.00000000000E+00  0.00000000000E+00  0.98679506776E+03  0.98679506776E+03  0.25500000000E-02 0. -1.
          2   -1    0    0  501    0  0.00000000000E+00 -0.00000000000E+00 -0.57096695634E+03  0.57096695635E+03  0.25500000000E-02 0.  1.
     200001    2    1    2    0    0 -0.26223386981E+03 -0.62327592425E+02  0.22295478111E+03  0.78326124761E+03  0.70081239739E+03 0.  0.
    5000001    2    3    3    0    0 -0.76465001214E+02  0.67486281870E+02 -0.32448709428E+02  0.17779229095E+03  0.14197142433E+03 0.  0.
        -11    1    4    4    0    0 -0.66335094210E+02  0.34572636544E+02  0.45423312260E+02  0.87515079949E+02  0.51100000000E-03 0. -1.
     200002    1    4    4    0    0 -0.10129907004E+02  0.32913645326E+02 -0.77872021688E+02  0.90277211002E+02  0.30000000000E+02 0. -1.
     200000    1    3    3    0    0 -0.18576886860E+03 -0.12981387429E+03  0.25540349054E+03  0.60546895666E+03  0.50000000000E+03 0. -1.
    -200001    1    1    2    0    0  0.26223386981E+03  0.62327592425E+02  0.19287333031E+03  0.77450077650E+03  0.70000000000E+03 0.  1.
<mgrwt>
<rscale>  0 0.15012360E+04</rscale>
<asrwt>0</asrwt>
<pdfrwt beam="1">  1        2 0.81566708E-01 0.15012360E+04</pdfrwt>
<pdfrwt beam="2">  1       -2 0.14097072E+00 0.15012360E+04</pdfrwt>
<totfact> 0.19638735E+01</totfact>
</mgrwt>
</event>
<event>
 8    1  0.2654897E-009  0.1686067E+04  0.7818608E-02  0.8769351E-01
          2   -1    0    0  501    0  0.00000000000E+00  0.00000000000E+00  0.81182784192E+03  0.81182784193E+03  0.25500000000E-02 0.  1.
         -2   -1    0    0    0  501 -0.00000000000E+00 -0.00000000000E+00 -0.87543855246E+03  0.87543855246E+03  0.25500000000E-02 0. -1.
     200001    2    1    2    0    0 -0.34634463069E+03 -0.23137938818E+03 -0.24846863791E+03  0.85200387410E+03  0.70048762514E+03 0.  0.
    5000001    2    3    3    0    0 -0.22872182794E+03 -0.25349195726E+02 -0.12796865410E+03  0.28560842035E+03  0.11063424896E+03 0.  0.
        -11    1    4    4    0    0 -0.18392129692E+03  0.70265498853E+01 -0.12530579361E+03  0.22266108276E+03  0.51100000000E-03 0. -1.
     200002    1    4    4    0    0 -0.44800531018E+02 -0.32375745611E+02 -0.26628604904E+01  0.62947337588E+02  0.30000000000E+02 0. -1.
     200000    1    3    3    0    0 -0.11762280275E+03 -0.20603019246E+03 -0.12049998382E+03  0.56639545375E+03  0.50000000000E+03 0.  1.
    -200001    1    1    2    0    0  0.34634463069E+03  0.23137938818E+03  0.18485792738E+03  0.83526252029E+03  0.70000000000E+03 0. -1.
<mgrwt>
<rscale>  0 0.16860669E+04</rscale>
<asrwt>0</asrwt>
<pdfrwt beam="1">  1        2 0.11597541E+00 0.16860669E+04</pdfrwt>
<pdfrwt beam="2">  1       -2 0.12506265E+00 0.16860669E+04</pdfrwt>
<totfact> 0.17056388E+01</totfact>
</mgrwt>
</event>
<event>
 8    1  0.2654897E-009  0.1762674E+04  0.7818608E-02  0.8726405E-01
          2   -1    0    0  501    0  0.00000000000E+00  0.00000000000E+00  0.56958758859E+03  0.56958758860E+03  0.25500000000E-02 0.  1.
         -2   -1    0    0    0  501 -0.00000000000E+00 -0.00000000000E+00 -0.13637143095E+04  0.13637143095E+04  0.25500000000E-02 0. -1.
     200001    2    1    2    0    0 -0.19992796510E+03 -0.35214167623E+03 -0.78179017048E+03  0.11245206286E+04  0.69955401658E+03 0.  0.
    5000001    2    3    3    0    0 -0.14201100734E+03 -0.20102841592E+02 -0.25524138815E+03  0.32398469444E+03  0.13873235224E+03 0.  0.
        -11    1    4    4    0    0 -0.93475321840E+02  0.52469039126E+02 -0.14007611641E+03  0.17638581080E+03  0.51100000000E-03 0. -1.
     200002    1    4    4    0    0 -0.48535685502E+02 -0.72571880719E+02 -0.11516527173E+03  0.14759888364E+03  0.30000000000E+02 0. -1.
     200000    1    3    3    0    0 -0.57916957757E+02 -0.33203883464E+03 -0.52654878234E+03  0.80053593416E+03  0.50000000000E+03 0. -1.
    -200001    1    1    2    0    0  0.19992796510E+03  0.35214167623E+03 -0.12336550390E+02  0.80878126947E+03  0.70000000000E+03 0.  1.
<mgrwt>
<rscale>  0 0.17626738E+04</rscale>
<asrwt>0</asrwt>
<pdfrwt beam="1">  1        2 0.81369656E-01 0.17626738E+04</pdfrwt>
<pdfrwt beam="2">  1       -2 0.19481633E+00 0.17626738E+04</pdfrwt>
<totfact> 0.78792518E+00</totfact>
</mgrwt>
</event>
<event>
 8    1  0.2654897E-009  0.1656877E+04  0.7818608E-02  0.8786349E-01
         -2   -1    0    0    0  501 -0.00000000000E+00  0.00000000000E+00  0.41124544882E+03  0.41124544883E+03  0.25500000000E-02 0. -1.
          2   -1    0    0  501    0  0.00000000000E+00 -0.00000000000E+00 -0.16688574793E+04  0.16688574793E+04  0.25500000000E-02 0.  1.
     200001    2    1    2    0    0 -0.20055867541E+03 -0.39232897039E+03 -0.69153048853E+03  0.10778085026E+04  0.69950764720E+03 0.  0.
    5000001    2    3    3    0    0  0.43809898449E+02 -0.59177768772E+02 -0.66470978187E+02  0.17702822171E+03  0.14662634423E+03 0.  0.
        -11    1    4    4    0    0 -0.36682406739E+02 -0.37613080284E+01 -0.65071576228E+02  0.74793425081E+02  0.51100000000E-03 0. -1.
     200002    1    4    4    0    0  0.80492305188E+02 -0.55416460744E+02 -0.13994019586E+01  0.10223479663E+03  0.30000000000E+02 0. -1.
     200000    1    3    3    0    0 -0.24436857386E+03 -0.33315120162E+03 -0.62505951035E+03  0.90078028093E+03  0.50000000000E+03 0.  1.
    -200001    1    1    2    0    0  0.20055867541E+03  0.39232897039E+03 -0.56608154199E+03  0.10022944255E+04  0.70000000000E+03 0. -1.
<mgrwt>
<rscale>  0 0.16568766E+04</rscale>
<asrwt>0</asrwt>
<pdfrwt beam="1">  1        2 0.23840821E+00 0.16568766E+04</pdfrwt>
<pdfrwt beam="2">  1       -2 0.58749350E-01 0.16568766E+04</pdfrwt>
<totfact> 0.30851415E+01</totfact>
</mgrwt>
</event>
<event>
 8    1  0.2654897E-009  0.1730050E+04  0.7818608E-02  0.8744409E-01
          2   -1    0    0  501    0  0.00000000000E+00  0.00000000000E+00  0.27668054076E+04  0.27668054076E+04  0.25500000000E-02 0.  1.
         -2   -1    0    0    0  501 -0.00000000000E+00 -0.00000000000E+00 -0.27044492857E+03  0.27044492858E+03  0.25500000000E-02 0. -1.
     200001    2    1    2    0    0 -0.12057925091E+03  0.29852155345E+03  0.19472368933E+04  0.20911049002E+04  0.69089341528E+03 0.  0.
    5000001    2    3    3    0    0  0.10675592986E+02  0.15665185804E+03  0.36919604758E+03  0.42450124144E+03  0.13871484970E+03 0.  0.
        -11    1    4    4    0    0  0.17973819592E+02  0.69938822522E+02  0.30206333880E+03  0.31057488265E+03  0.51100000000E-03 0. -1.
     200002    1    4    4    0    0 -0.72982266052E+01  0.86713035514E+02  0.67132708775E+02  0.11392635879E+03  0.30000000000E+02 0. -1.
     200000    1    3    3    0    0 -0.13125484390E+03  0.14186969542E+03  0.15780408457E+04  0.16666036588E+04  0.50000000000E+03 0.  1.
    -200001    1    1    2    0    0  0.12057925091E+03 -0.29852155345E+03  0.54912358569E+03  0.94614543596E+03  0.70000000000E+03 0. -1.
<mgrwt>
<rscale>  0 0.17300503E+04</rscale>
<asrwt>0</asrwt>
<pdfrwt beam="1">  1        2 0.39525789E+00 0.17300503E+04</pdfrwt>
<pdfrwt beam="2">  1       -2 0.38634992E-01 0.17300503E+04</pdfrwt>
<totfact> 0.19137942E+01</totfact>
</mgrwt>
</event>
<event>
 8    1  0.2654897E-009  0.1661096E+04  0.7818608E-02  0.8783869E-01
          2   -1    0    0  501    0  0.00000000000E+00  0.00000000000E+00  0.17708568333E+04  0.17708568333E+04  0.25500000000E-02 0.  1.
         -2   -1    0    0    0  501 -0.00000000000E+00 -0.00000000000E+00 -0.38953477801E+03  0.38953477802E+03  0.25500000000E-02 0. -1.
     200001    2    1    2    0    0  0.11158289023E+03 -0.43295939501E+03  0.69769317689E+03  0.10846346581E+04  0.69982282990E+03 0.  0.
    5000001    2    3    3    0    0 -0.41635453355E+02 -0.14342604545E+03  0.11847946999E+03  0.25229221676E+03  0.16525566961E+03 0.  0.
        -11    1    4    4    0    0 -0.17454337018E+02  0.30084749307E+02 -0.60058121818E+01  0.35296115959E+02  0.51100000000E-03 0. -1.
     200002    1    4    4    0    0 -0.24181116337E+02 -0.17351079476E+03  0.12448528217E+03  0.21699610080E+03  0.30000000000E+02 0. -1.
     200000    1    3    3    0    0  0.15321834359E+03 -0.28953334956E+03  0.57921370690E+03  0.83234244129E+03  0.50000000000E+03 0. -1.
    -200001    1    1    2    0    0 -0.11158289023E+03  0.43295939501E+03  0.68362887841E+03  0.10757569533E+04  0.70000000000E+03 0.  1.
<mgrwt>
<rscale>  0 0.16610964E+04</rscale>
<asrwt>0</asrwt>
<pdfrwt beam="1">  1        2 0.25297955E+00 0.16610964E+04</pdfrwt>
<pdfrwt beam="2">  1       -2 0.55647825E-01 0.16610964E+04</pdfrwt>
<totfact> 0.30578944E+01</totfact>
</mgrwt>
</event>
<event>
 8    1  0.2654897E-009  0.1755182E+04  0.7818608E-02  0.8730503E-01
         -2   -1    0    0    0  501 -0.00000000000E+00  0.00000000000E+00  0.34395222309E+03  0.34395222310E+03  0.25500000000E-02 0. -1.
          2   -1    0    0  501    0  0.00000000000E+00 -0.00000000000E+00 -0.22391651912E+04  0.22391651912E+04  0.25500000000E-02 0.  1.
     200001    2    1    2    0    0 -0.51731923022E+03 -0.12310276756E+02 -0.78326190238E+03  0.11709538609E+04  0.69990214165E+03 0.  0.
    5000001    2    3    3    0    0 -0.86850713368E+02 -0.16075406491E+02 -0.18106444749E+03  0.27766829918E+03  0.19108606730E+03 0.  0.
        -11    1    4    4    0    0 -0.11645697091E+03 -0.73527446291E+02 -0.10305254238E+03  0.17201260978E+03  0.51100000000E-03 0. -1.
     200002    1    4    4    0    0  0.29606257543E+02  0.57452039800E+02 -0.78011905115E+02  0.10565568940E+03  0.30000000000E+02 0. -1.
     200000    1    3    3    0    0 -0.43046851685E+03  0.37651297347E+01 -0.60219745488E+03  0.89328556177E+03  0.50000000000E+03 0.  1.
    -200001    1    1    2    0    0  0.51731923022E+03  0.12310276756E+02 -0.11119510658E+04  0.14121635534E+04  0.70000000000E+03 0.  1.
<mgrwt>
<rscale>  0 0.17551819E+04</rscale>
<asrwt>0</asrwt>
<pdfrwt beam="1">  1        2 0.31988073E+00 0.17551819E+04</pdfrwt>
<pdfrwt beam="2">  1       -2 0.49136033E-01 0.17551819E+04</pdfrwt>
<totfact> 0.22483364E+01</totfact>
</mgrwt>
</event>
<event>
 8    1  0.2654897E-009  0.1482875E+04  0.7818608E-02  0.8895922E-01
          2   -1    0    0  501    0  0.00000000000E+00  0.00000000000E+00  0.16791668225E+04  0.16791668226E+04  0.25500000000E-02 0.  1.
         -2   -1    0    0    0  501 -0.00000000000E+00 -0.00000000000E+00 -0.32738212954E+03  0.32738212955E+03  0.25500000000E-02 0. -1.
     200001    2    1    2    0    0 -0.89393200652E+01 -0.18321535329E+03  0.45708561365E+03  0.85583864114E+03  0.69991766969E+03 0.  0.
    5000001    2    3    3    0    0 -0.53926331833E+02 -0.86684648795E+02  0.13099597171E+03  0.24947533197E+03  0.18616046587E+03 0.  0.
        -11    1    4    4    0    0 -0.84166462879E+02 -0.87041583500E+02  0.10339668824E+02  0.12152011967E+03  0.51100000000E-03 0. -1.
     200002    1    4    4    0    0  0.30240131046E+02  0.35693470501E+00  0.12065630289E+03  0.12795521230E+03  0.30000000000E+02 0. -1.
     200000    1    3    3    0    0  0.44987011768E+02 -0.96530704492E+02  0.32608964194E+03  0.60636330918E+03  0.50000000000E+03 0. -1.
    -200001    1    1    2    0    0  0.89393200652E+01  0.18321535329E+03  0.89469907936E+03  0.11507103110E+04  0.70000000000E+03 0.  1.
<mgrwt>
<rscale>  0 0.14828745E+04</rscale>
<asrwt>0</asrwt>
<pdfrwt beam="1">  1        2 0.23988097E+00 0.14828745E+04</pdfrwt>
<pdfrwt beam="2">  1       -2 0.46768877E-01 0.14828745E+04</pdfrwt>
<totfact> 0.49367437E+01</totfact>
</mgrwt>
</event>
<event>
 8    1  0.2654897E-009  0.1628608E+04  0.7818608E-02  0.8803163E-01
         -2   -1    0    0    0  501 -0.00000000000E+00  0.00000000000E+00  0.32758099902E+03  0.32758099903E+03  0.25500000000E-02 0. -1.
          2   -1    0    0  501    0  0.00000000000E+00 -0.00000000000E+00 -0.20242041111E+04  0.20242041111E+04  0.25500000000E-02 0.  1.
     200001    2    1    2    0    0  0.30643656095E+03 -0.36815020183E+01 -0.12544672751E+04  0.14689381791E+04  0.70012449645E+03 0.  0.
    5000001    2    3    3    0    0  0.14039964296E+03 -0.53193738448E+02 -0.21965877895E+03  0.30667816375E+03  0.15251191233E+03 0.  0.
        -11    1    4    4    0    0  0.15504515790E+02  0.24121263302E+02  0.11717777583E+02  0.30976308122E+02  0.51100000000E-03 0. -1.
     200002    1    4    4    0    0  0.12489512717E+03 -0.77315001750E+02 -0.23137655653E+03  0.27570185563E+03  0.30000000000E+02 0. -1.
     200000    1    3    3    0    0  0.16603691799E+03  0.49512236430E+02 -0.10348084961E+04  0.11622600154E+04  0.50000000000E+03 0.  1.
    -200001    1    1    2    0    0 -0.30643656095E+03  0.36815020183E+01 -0.44215583698E+03  0.88284693097E+03  0.70000000000E+03 0.  1.
<mgrwt>
<rscale>  0 0.16286078E+04</rscale>
<asrwt>0</asrwt>
<pdfrwt beam="1">  1        2 0.28917201E+00 0.16286078E+04</pdfrwt>
<pdfrwt beam="2">  1       -2 0.46797287E-01 0.16286078E+04</pdfrwt>
<totfact> 0.32352563E+01</totfact>
</mgrwt>
</event>
<event>
 8    1  0.2654897E-009  0.1570780E+04  0.7818608E-02  0.8838703E-01
          2   -1    0    0  501    0  0.00000000000E+00  0.00000000000E+00  0.47492430258E+03  0.47492430259E+03  0.25500000000E-02 0.  1.
         -2   -1    0    0    0  501 -0.00000000000E+00 -0.00000000000E+00 -0.12988116604E+04  0.12988116604E+04  0.25500000000E-02 0. -1.
     200001    2    1    2    0    0 -0.12822724341E+02 -0.34094267882E+03 -0.29147709903E+03  0.83040833372E+03  0.69872224019E+03 0.  0.
    5000001    2    3    3    0    0 -0.38516158976E+02 -0.22427889691E+03 -0.48617595602E+02  0.26185637567E+03  0.12008568930E+03 0.  0.
        -11    1    4    4    0    0 -0.12333985468E+02 -0.11174299622E+03  0.33099381123E+02  0.11719297519E+03  0.51100000000E-03 0. -1.
     200002    1    4    4    0    0 -0.26182173509E+02 -0.11253590069E+03 -0.81716976726E+02  0.14466340048E+03  0.30000000000E+02 0. -1.
     200000    1    3    3    0    0  0.25693434636E+02 -0.11666378191E+03 -0.24285950343E+03  0.56855195805E+03  0.50000000000E+03 0. -1.
    -200001    1    1    2    0    0  0.12822724341E+02  0.34094267882E+03 -0.53241025880E+03  0.94332762929E+03  0.70000000000E+03 0.  1.
<mgrwt>
<rscale>  0 0.15707797E+04</rscale>
<asrwt>0</asrwt>
<pdfrwt beam="1">  1        2 0.67846329E-01 0.15707797E+04</pdfrwt>
<pdfrwt beam="2">  1       -2 0.18554452E+00 0.15707797E+04</pdfrwt>
<totfact> 0.11384193E+01</totfact>
</mgrwt>
</event>
<event>
 8    1  0.2654897E-009  0.2144234E+04  0.7818608E-02  0.8542004E-01
         -2   -1    0    0    0  501 -0.00000000000E+00  0.00000000000E+00  0.17835478241E+04  0.17835478241E+04  0.25500000000E-02 0. -1.
          2   -1    0    0  501    0  0.00000000000E+00 -0.00000000000E+00 -0.64446547438E+03  0.64446547438E+03  0.25500000000E-02 0.  1.
     200001    2    1    2    0    0  0.67804983963E+03 -0.26077353325E+03  0.98016738847E+03  0.14067354785E+04  0.70030148971E+03 0.  0.
    5000001    2    3    3    0    0  0.15771389063E+03 -0.32373636717E+02  0.24894745806E+03  0.35431037470E+03  0.19400845624E+03 0.  0.
        -11    1    4    4    0    0  0.19706091988E+03 -0.33856026224E+02  0.17735837413E+03  0.26727369779E+03  0.51100000000E-03 0. -1.
     200002    1    4    4    0    0 -0.39347029251E+02  0.14823895075E+01  0.71589083935E+02  0.87036676914E+02  0.30000000000E+02 0. -1.
     200000    1    3    3    0    0  0.52033594901E+03 -0.22839989654E+03  0.73121993040E+03  0.10524251038E+04  0.50000000000E+03 0. -1.
    -200001    1    1    2    0    0 -0.67804983963E+03  0.26077353325E+03  0.15891496129E+03  0.10212778200E+04  0.70000000000E+03 0.  1.
<mgrwt>
<rscale>  0 0.21442341E+04</rscale>
<asrwt>0</asrwt>
<pdfrwt beam="1">  1        2 0.92066494E-01 0.21442341E+04</pdfrwt>
<pdfrwt beam="2">  1       -2 0.25479255E+00 0.21442341E+04</pdfrwt>
<totfact> 0.27561004E+00</totfact>
</mgrwt>
</event>
<event>
 8    1  0.2654897E-009  0.1679733E+04  0.7818608E-02  0.8773008E-01
         -2   -1    0    0    0  501 -0.00000000000E+00  0.00000000000E+00  0.34941646325E+03  0.34941646326E+03  0.25500000000E-02 0. -1.
          2   -1    0    0  501    0  0.00000000000E+00 -0.00000000000E+00 -0.20187254705E+04  0.20187254705E+04  0.25500000000E-02 0.  1.
     200001    2    1    2    0    0 -0.23554767791E+03  0.22622081576E+02 -0.13976178560E+04  0.15808614572E+04  0.69985199029E+03 0.  0.
    5000001    2    3    3    0    0 -0.70982679239E+01 -0.11414541345E+03 -0.35580547137E+03  0.39499994531E+03  0.12785876005E+03 0.  0.
        -11    1    4    4    0    0 -0.21256848020E+02  0.10624132056E+02 -0.98224408543E+01  0.25713928410E+02  0.51100000000E-03 0. -1.
     200002    1    4    4    0    0  0.14158580096E+02 -0.12476954550E+03 -0.34598303052E+03  0.36928601690E+03  0.30000000000E+02 0. -1.
     200000    1    3    3    0    0 -0.22844940999E+03  0.13676749502E+03 -0.10418123846E+04  0.11858615119E+04  0.50000000000E+03 0.  1.
    -200001    1    1    2    0    0  0.23554767791E+03 -0.22622081576E+02 -0.27169115129E+03  0.78728047660E+03  0.70000000000E+03 0. -1.
<mgrwt>
<rscale>  0 0.16797332E+04</rscale>
<asrwt>0</asrwt>
<pdfrwt beam="1">  1        2 0.28838935E+00 0.16797332E+04</pdfrwt>
<pdfrwt beam="2">  1       -2 0.49916639E-01 0.16797332E+04</pdfrwt>
<totfact> 0.28459273E+01</totfact>
</mgrwt>
</event>
<event>
 8    1  0.2654897E-009  0.1722823E+04  0.7818608E-02  0.8748453E-01
         -2   -1    0    0    0  501 -0.00000000000E+00  0.00000000000E+00  0.38636940218E+03  0.38636940219E+03  0.25500000000E-02 0. -1.
          2   -1    0    0  501    0  0.00000000000E+00 -0.00000000000E+00 -0.19205198063E+04  0.19205198063E+04  0.25500000000E-02 0.  1.
     200001    2    1    2    0    0  0.16699585597E+03 -0.46148717038E+03 -0.62092607999E+03  0.10559548815E+04  0.69902324036E+03 0.  0.
    5000001    2    3    3    0    0  0.28378524630E+02 -0.19715605948E+03 -0.24532924216E+03  0.36302004664E+03  0.17866523096E+03 0.  0.
        -11    1    4    4    0    0  0.72910587254E+02 -0.12724027715E+02 -0.85909756538E+02  0.11339462458E+03  0.51100000000E-03 0. -1.
     200002    1    4    4    0    0 -0.44532062624E+02 -0.18443203177E+03 -0.15941948562E+03  0.24962542206E+03  0.30000000000E+02 0. -1.
     200000    1    3    3    0    0  0.13861733134E+03 -0.26433111090E+03 -0.37559683784E+03  0.69293483484E+03  0.50000000000E+03 0. -1.
    -200001    1    1    2    0    0 -0.16699585597E+03  0.46148717038E+03 -0.91322432412E+03  0.12509343270E+04  0.70000000000E+03 0.  1.
<mgrwt>
<rscale>  0 0.17228234E+04</rscale>
<asrwt>0</asrwt>
<pdfrwt beam="1">  1        2 0.27435997E+00 0.17228234E+04</pdfrwt>
<pdfrwt beam="2">  1       -2 0.55195630E-01 0.17228234E+04</pdfrwt>
<totfact> 0.25908379E+01</totfact>
</mgrwt>
</event>
<event>
 8    1  0.2654897E-009  0.1890025E+04  0.7818608E-02  0.8659838E-01
          2   -1    0    0  501    0  0.00000000000E+00  0.00000000000E+00  0.30175172326E+04  0.30175172326E+04  0.25500000000E-02 0.  1.
         -2   -1    0    0    0  501 -0.00000000000E+00 -0.00000000000E+00 -0.29595469775E+03  0.29595469776E+03  0.25500000000E-02 0. -1.
     200001    2    1    2    0    0 -0.13681632099E+01  0.57163247724E+03  0.88050585339E+03  0.12625562165E+04  0.70142147181E+03 0.  0.
    5000001    2    3    3    0    0  0.66617163362E+02  0.21517599113E+03  0.25638618151E+03  0.38437138634E+03  0.17683024334E+03 0.  0.
        -11    1    4    4    0    0  0.89865291584E+02  0.38143880013E+02  0.13416625607E+03  0.16592561732E+03  0.51100000000E-03 0. -1.
     200002    1    4    4    0    0 -0.23248128221E+02  0.17703211112E+03  0.12221992544E+03  0.21844576903E+03  0.30000000000E+02 0. -1.
     200000    1    3    3    0    0 -0.67985326572E+02  0.35645648611E+03  0.62411967188E+03  0.87818483018E+03  0.50000000000E+03 0.  1.
    -200001    1    1    2    0    0  0.13681632099E+01 -0.57163247724E+03  0.18410566814E+04  0.20509157138E+04  0.70000000000E+03 0.  1.
<mgrwt>
<rscale>  0 0.18900248E+04</rscale>
<asrwt>0</asrwt>
<pdfrwt beam="1">  1        2 0.43107386E+00 0.18900248E+04</pdfrwt>
<pdfrwt beam="2">  1       -2 0.42279246E-01 0.18900248E+04</pdfrwt>
<totfact> 0.11515054E+01</totfact>
</mgrwt>
</event>
<event>
 8    1  0.2654897E-009  0.2076050E+04  0.7818608E-02  0.8571867E-01
         -2   -1    0    0    0  501 -0.00000000000E+00  0.00000000000E+00  0.16345853793E+04  0.16345853793E+04  0.25500000000E-02 0. -1.
          2   -1    0    0  501    0  0.00000000000E+00 -0.00000000000E+00 -0.65918629875E+03  0.65918629876E+03  0.25500000000E-02 0.  1.
     200001    2    1    2    0    0 -0.20782159318E+03 -0.13650280029E+03 -0.31291949859E+03  0.80663093474E+03  0.70065114230E+03 0.  0.
    5000001    2    3    3    0    0  0.47758069049E+02 -0.90182357109E+02 -0.10126648069E+03  0.20474760120E+03  0.14578405055E+03 0.  0.
        -11    1    4    4    0    0  0.42405985304E+02 -0.10512285249E+03 -0.17927255977E+02  0.11476266036E+03  0.51100000000E-03 0. -1.
     200002    1    4    4    0    0  0.53520837448E+01  0.14940495383E+02 -0.83339224714E+02  0.89984940843E+02  0.30000000000E+02 0. -1.
     200000    1    3    3    0    0 -0.25557966223E+03 -0.46320443178E+02 -0.21165301790E+03  0.60188333354E+03  0.50000000000E+03 0.  1.
    -200001    1    1    2    0    0  0.20782159318E+03  0.13650280029E+03  0.12883185791E+04  0.14871407433E+04  0.70000000000E+03 0. -1.
<mgrwt>
<rscale>  0 0.20760504E+04</rscale>
<asrwt>0</asrwt>
<pdfrwt beam="1">  1        2 0.94169471E-01 0.20760504E+04</pdfrwt>
<pdfrwt beam="2">  1       -2 0.23351220E+00 0.20760504E+04</pdfrwt>
<totfact> 0.36487396E+00</totfact>
</mgrwt>
</event>
<event>
 8    1  0.2654897E-009  0.2059829E+04  0.7818608E-02  0.8579148E-01
          2   -1    0    0  501    0  0.00000000000E+00  0.00000000000E+00  0.18220364586E+04  0.18220364586E+04  0.25500000000E-02 0.  1.
         -2   -1    0    0    0  501 -0.00000000000E+00 -0.00000000000E+00 -0.58216405678E+03  0.58216405679E+03  0.25500000000E-02 0. -1.
     200001    2    1    2    0    0  0.42199206008E+03  0.56575529095E+03  0.93468812307E+03  0.13643477412E+04  0.69974747116E+03 0.  0.
    5000001    2    3    3    0    0  0.17427261502E+02  0.14279465588E+03  0.31122302516E+03  0.37375342290E+03  0.14878785753E+03 0.  0.
        -11    1    4    4    0    0 -0.18836006146E+02 -0.25344361677E+02  0.36765107301E+02  0.48464470610E+02  0.51100000000E-03 0. -1.
     200002    1    4    4    0    0  0.36263267648E+02  0.16813901756E+03  0.27445791786E+03  0.32528895229E+03  0.30000000000E+02 0. -1.
     200000    1    3    3    0    0  0.40456479858E+03  0.42296063507E+03  0.62346509791E+03  0.99059431826E+03  0.50000000000E+03 0.  1.
    -200001    1    1    2    0    0 -0.42199206008E+03 -0.56575529095E+03  0.30518427870E+03  0.10398527742E+04  0.70000000000E+03 0. -1.
<mgrwt>
<rscale>  0 0.20598293E+04</rscale>
<asrwt>0</asrwt>
<pdfrwt beam="1">  1        2 0.26029093E+00 0.20598293E+04</pdfrwt>
<pdfrwt beam="2">  1       -2 0.83166292E-01 0.20598293E+04</pdfrwt>
<totfact> 0.11653217E+01</totfact>
</mgrwt>
</event>
<event>
 8    1  0.2654897E-009  0.2011177E+04  0.7818608E-02  0.8601413E-01
          2   -1    0    0  501    0  0.00000000000E+00  0.00000000000E+00  0.31650542675E+04  0.31650542675E+04  0.25500000000E-02 0.  1.
         -2   -1    0    0    0  501 -0.00000000000E+00 -0.00000000000E+00 -0.31949153651E+03  0.31949153652E+03  0.25500000000E-02 0. -1.
     200001    2    1    2    0    0 -0.71507935849E+03 -0.94209258031E+02  0.14703623415E+04  0.17811991029E+04  0.70035059463E+03 0.  0.
    5000001    2    3    3    0    0 -0.14269124629E+03 -0.38085832660E+02  0.30184240825E+03  0.38613035031E+03  0.19020117138E+03 0.  0.
        -11    1    4    4    0    0 -0.14946584634E+03 -0.62630587187E+02  0.12418628931E+03  0.20416871486E+03  0.51100000000E-03 0. -1.
     200002    1    4    4    0    0  0.67746000439E+01  0.24544754526E+02  0.17765611894E+03  0.18196163546E+03  0.30000000000E+02 0. -1.
     200000    1    3    3    0    0 -0.57238811219E+03 -0.56123425371E+02  0.11685199333E+04  0.13950687526E+04  0.50000000000E+03 0. -1.
    -200001    1    1    2    0    0  0.71507935849E+03  0.94209258031E+02  0.13752003895E+04  0.17033467012E+04  0.70000000000E+03 0.  1.
<mgrwt>
<rscale>  0 0.20111768E+04</rscale>
<asrwt>0</asrwt>
<pdfrwt beam="1">  1        2 0.45215064E+00 0.20111768E+04</pdfrwt>
<pdfrwt beam="2">  1       -2 0.45641645E-01 0.20111768E+04</pdfrwt>
<totfact> 0.80716072E+00</totfact>
</mgrwt>
</event>
<event>
 8    1  0.2654897E-009  0.1979945E+04  0.7818608E-02  0.8616055E-01
         -2   -1    0    0    0  501 -0.00000000000E+00  0.00000000000E+00  0.28589945507E+03  0.28589945508E+03  0.25500000000E-02 0. -1.
          2   -1    0    0  501    0  0.00000000000E+00 -0.00000000000E+00 -0.34279384594E+04  0.34279384594E+04  0.25500000000E-02 0.  1.
     200001    2    1    2    0    0 -0.40076997903E+03  0.33934534672E+03 -0.70264449388E+03  0.11222327327E+04  0.69994655598E+03 0.  0.
    5000001    2    3    3    0    0 -0.21361912483E+03  0.73389888917E+02 -0.29519290960E+03  0.39989310258E+03  0.14750062145E+03 0.  0.
        -11    1    4    4    0    0 -0.23064261007E+02  0.73301741111E+02 -0.86459791045E+02  0.11567368263E+03  0.51100000000E-03 0. -1.
     200002    1    4    4    0    0 -0.19055486383E+03  0.88147806420E-01 -0.20873311855E+03  0.28421941995E+03  0.30000000000E+02 0. -1.
     200000    1    3    3    0    0 -0.18715085419E+03  0.26595545781E+03 -0.40745158428E+03  0.72233963016E+03  0.50000000000E+03 0. -1.
    -200001    1    1    2    0    0  0.40076997903E+03 -0.33934534672E+03 -0.24393945104E+04  0.25916051817E+04  0.70000000000E+03 0.  1.
<mgrwt>
<rscale>  0 0.19799452E+04</rscale>
<asrwt>0</asrwt>
<pdfrwt beam="1">  1        2 0.48970547E+00 0.19799452E+04</pdfrwt>
<pdfrwt beam="2">  1       -2 0.40842781E-01 0.19799452E+04</pdfrwt>
<totfact> 0.70712343E+00</totfact>
</mgrwt>
</event>
<event>
 8    1  0.2654897E-009  0.1536906E+04  0.7818608E-02  0.8860275E-01
         -2   -1    0    0    0  501 -0.00000000000E+00  0.00000000000E+00  0.48942849609E+03  0.48942849610E+03  0.25500000000E-02 0. -1.
          2   -1    0    0  501    0  0.00000000000E+00 -0.00000000000E+00 -0.12065508321E+04  0.12065508322E+04  0.25500000000E-02 0.  1.
     200001    2    1    2    0    0 -0.28123304280E+03  0.79114566794E+01 -0.52071245972E+03  0.91640800051E+03  0.69964815599E+03 0.  0.
    5000001    2    3    3    0    0 -0.10071244980E+03  0.68817495486E+02 -0.16940649026E+03  0.27631963611E+03  0.18103904863E+03 0.  0.
        -11    1    4    4    0    0 -0.11205125025E+03  0.97066825326E+02 -0.17909974901E+03  0.23249552976E+03  0.51100000000E-03 0. -1.
     200002    1    4    4    0    0  0.11338800453E+02 -0.28249329840E+02  0.96932587509E+01  0.43824106349E+02  0.30000000000E+02 0. -1.
     200000    1    3    3    0    0 -0.18052059300E+03 -0.60906038807E+02 -0.35130596946E+03  0.64008836440E+03  0.50000000000E+03 0.  1.
    -200001    1    1    2    0    0  0.28123304280E+03 -0.79114566794E+01 -0.19640987634E+03  0.77957132774E+03  0.70000000000E+03 0.  1.
<mgrwt>
<rscale>  0 0.15369065E+04</rscale>
<asrwt>0</asrwt>
<pdfrwt beam="1">  1        2 0.17236440E+00 0.15369065E+04</pdfrwt>
<pdfrwt beam="2">  1       -2 0.69918357E-01 0.15369065E+04</pdfrwt>
<totfact> 0.38121943E+01</totfact>
</mgrwt>
</event>
<event>
 8    1  0.2654897E-009  0.1770263E+04  0.7818608E-02  0.8722275E-01
          2   -1    0    0  501    0  0.00000000000E+00  0.00000000000E+00  0.27108510769E+04  0.27108510769E+04  0.25500000000E-02 0.  1.
         -2   -1    0    0    0  501 -0.00000000000E+00 -0.00000000000E+00 -0.28900817066E+03  0.28900817067E+03  0.25500000000E-02 0. -1.
     200001    2    1    2    0    0  0.27345757817E+03  0.34231682553E+03  0.67349332009E+03  0.10662910094E+04  0.70101598306E+03 0.  0.
    5000001    2    3    3    0    0  0.47337751049E+02  0.16038401351E+03  0.20472570608E+03  0.32199751877E+03  0.18386378899E+03 0.  0.
        -11    1    4    4    0    0  0.18116627867E+02  0.10912434319E+03  0.40556473978E+01  0.11069228861E+03  0.51100000000E-03 0. -1.
     200002    1    4    4    0    0  0.29221123182E+02  0.51259670319E+02  0.20067005868E+03  0.21130523016E+03  0.30000000000E+02 0. -1.
     200000    1    3    3    0    0  0.22611982712E+03  0.18193281202E+03  0.46876761401E+03  0.74429349067E+03  0.50000000000E+03 0. -1.
    -200001    1    1    2    0    0 -0.27345757817E+03 -0.34231682553E+03  0.17483495861E+04  0.19335682381E+04  0.70000000000E+03 0.  1.
<mgrwt>
<rscale>  0 0.17702634E+04</rscale>
<asrwt>0</asrwt>
<pdfrwt beam="1">  1        2 0.38726443E+00 0.17702634E+04</pdfrwt>
<pdfrwt beam="2">  1       -2 0.41286882E-01 0.17702634E+04</pdfrwt>
<totfact> 0.17956296E+01</totfact>
</mgrwt>
</event>
<event>
 8    1  0.2654897E-009  0.1677278E+04  0.7818608E-02  0.8774430E-01
          2   -1    0    0  501    0  0.00000000000E+00  0.00000000000E+00  0.10569761785E+04  0.10569761785E+04  0.25500000000E-02 0.  1.
         -2   -1    0    0    0  501 -0.00000000000E+00 -0.00000000000E+00 -0.66540352113E+03  0.66540352114E+03  0.25500000000E-02 0. -1.
     200001    2    1    2    0    0  0.22201646864E+03  0.28761368451E+03  0.48885313814E+03  0.92772478348E+03  0.69977349146E+03 0.  0.
    5000001    2    3    3    0    0  0.10684410274E+03  0.11797580268E+03  0.32029972728E+02  0.22010264613E+03  0.14861124914E+03 0.  0.
        -11    1    4    4    0    0  0.13151985453E+03  0.75663424463E+02  0.50261986825E+02  0.15983958601E+03  0.51100000000E-03 0. -1.
     200002    1    4    4    0    0 -0.24675751787E+02  0.42312378213E+02 -0.18232014097E+02  0.60263060115E+02  0.30000000000E+02 0. -1.
     200000    1    3    3    0    0  0.11517236590E+03  0.16963788183E+03  0.45682316541E+03  0.70762213735E+03  0.50000000000E+03 0.  1.
    -200001    1    1    2    0    0 -0.22201646864E+03 -0.28761368451E+03 -0.97280480756E+02  0.79465491617E+03  0.70000000000E+03 0. -1.
<mgrwt>
<rscale>  0 0.16772784E+04</rscale>
<asrwt>0</asrwt>
<pdfrwt beam="1">  1        2 0.15099660E+00 0.16772784E+04</pdfrwt>
<pdfrwt beam="2">  1       -2 0.95057645E-01 0.16772784E+04</pdfrwt>
<totfact> 0.23061486E+01</totfact>
</mgrwt>
</event>
<event>
 8    1  0.2654897E-009  0.2023034E+04  0.7818608E-02  0.8595927E-01
          2   -1    0    0  501    0  0.00000000000E+00  0.00000000000E+00  0.65204774462E+03  0.65204774463E+03  0.25500000000E-02 0.  1.
         -2   -1    0    0    0  501 -0.00000000000E+00 -0.00000000000E+00 -0.15691589789E+04  0.15691589789E+04  0.25500000000E-02 0. -1.
     200001    2    1    2    0    0 -0.89194069061E+02  0.56094543973E+03  0.42829236526E+02  0.90435400748E+03  0.70242897080E+03 0.  0.
    5000001    2    3    3    0    0  0.17779345841E+02  0.53108019940E+02  0.93118576620E+02  0.18194749161E+03  0.14593578544E+03 0.  0.
        -11    1    4    4    0    0  0.20533250148E+02 -0.36879565117E+01 -0.33773883550E+02  0.39697488525E+02  0.51100000000E-03 0. -1.
     200002    1    4    4    0    0 -0.27539043064E+01  0.56795976452E+02  0.12689246017E+03  0.14225000309E+03  0.30000000000E+02 0. -1.
     200000    1    3    3    0    0 -0.10697341490E+03  0.50783741979E+03 -0.50289340093E+02  0.72240651587E+03  0.50000000000E+03 0. -1.
    -200001    1    1    2    0    0  0.89194069061E+02 -0.56094543973E+03 -0.95994047085E+03  0.13168527161E+04  0.70000000000E+03 0.  1.
<mgrwt>
<rscale>  0 0.20230339E+04</rscale>
<asrwt>0</asrwt>
<pdfrwt beam="1">  1        2 0.93149678E-01 0.20230339E+04</pdfrwt>
<pdfrwt beam="2">  1       -2 0.22416557E+00 0.20230339E+04</pdfrwt>
<totfact> 0.42485215E+00</totfact>
</mgrwt>
</event>
<event>
 8    1  0.2654897E-009  0.1598826E+04  0.7818608E-02  0.8821270E-01
          2   -1    0    0  501    0  0.00000000000E+00  0.00000000000E+00  0.83584403557E+03  0.83584403558E+03  0.25500000000E-02 0.  1.
         -2   -1    0    0    0  501 -0.00000000000E+00 -0.00000000000E+00 -0.76456953431E+03  0.76456953432E+03  0.25500000000E-02 0. -1.
     200001    2    1    2    0    0 -0.20642365086E+03 -0.11048576598E+03  0.34089816631E+03  0.81459250319E+03  0.70180592642E+03 0.  0.
    5000001    2    3    3    0    0 -0.16625281756E+03 -0.79926511810E+02  0.37627180698E+02  0.22763351436E+03  0.12795688920E+03 0.  0.
        -11    1    4    4    0    0 -0.12484831776E+03 -0.57803910860E+02  0.78625666012E+02  0.15846258206E+03  0.51100000000E-03 0. -1.
     200002    1    4    4    0    0 -0.41404499808E+02 -0.22122600950E+02 -0.40998485314E+02  0.69170932300E+02  0.30000000000E+02 0. -1.
     200000    1    3    3    0    0 -0.40170833298E+02 -0.30559254170E+02  0.30327098561E+03  0.58695898884E+03  0.50000000000E+03 0.  1.
    -200001    1    1    2    0    0  0.20642365086E+03  0.11048576598E+03 -0.26962366505E+03  0.78582106670E+03  0.70000000000E+03 0. -1.
<mgrwt>
<rscale>  0 0.15988257E+04</rscale>
<asrwt>0</asrwt>
<pdfrwt beam="1">  1        2 0.11940629E+00 0.15988257E+04</pdfrwt>
<pdfrwt beam="2">  1       -2 0.10922422E+00 0.15988257E+04</pdfrwt>
<totfact> 0.23066223E+01</totfact>
</mgrwt>
</event>
<event>
 8    1  0.2654897E-009  0.1829710E+04  0.7818608E-02  0.8690657E-01
          2   -1    0    0  501    0  0.00000000000E+00  0.00000000000E+00  0.13121077808E+04  0.13121077808E+04  0.25500000000E-02 0.  1.
         -2   -1    0    0    0  501 -0.00000000000E+00 -0.00000000000E+00 -0.63787447364E+03  0.63787447365E+03  0.25500000000E-02 0. -1.
     200001    2    1    2    0    0  0.22863227113E+03 -0.38700072641E+01  0.91564634530E+03  0.11750190635E+04  0.69998134089E+03 0.  0.
    5000001    2    3    3    0    0  0.11790835643E+03  0.38961010095E+02  0.20788482302E+03  0.30036447240E+03  0.17771430954E+03 0.  0.
        -11    1    4    4    0    0  0.13057756846E+03  0.55206194152E+02  0.22024725665E+03  0.26192953121E+03  0.51100000000E-03 0. -1.
     200002    1    4    4    0    0 -0.12669212031E+02 -0.16245184057E+02 -0.12362433635E+02  0.38434941185E+02  0.30000000000E+02 0. -1.
     200000    1    3    3    0    0  0.11072391470E+03 -0.42831017359E+02  0.70776152228E+03  0.87465459111E+03  0.50000000000E+03 0.  1.
    -200001    1    1    2    0    0 -0.22863227113E+03  0.38700072641E+01 -0.24141303812E+03  0.77496319095E+03  0.70000000000E+03 0. -1.
<mgrwt>
<rscale>  0 0.18297104E+04</rscale>
<asrwt>0</asrwt>
<pdfrwt beam="1">  1        2 0.18744397E+00 0.18297104E+04</pdfrwt>
<pdfrwt beam="2">  1       -2 0.91124926E-01 0.18297104E+04</pdfrwt>
<totfact> 0.17938906E+01</totfact>
</mgrwt>
</event>
<event>
 8    1  0.2654897E-009  0.2356585E+04  0.7818608E-02  0.8455939E-01
         -2   -1    0    0    0  501 -0.00000000000E+00  0.00000000000E+00  0.12158348679E+04  0.12158348679E+04  0.25500000000E-02 0.  1.
          2   -1    0    0  501    0  0.00000000000E+00 -0.00000000000E+00 -0.11419095115E+04  0.11419095115E+04  0.25500000000E-02 0. -1.
     200001    2    1    2    0    0  0.12287002213E+03  0.49117905206E+02 -0.90161400286E+03  0.11497763945E+04  0.70111934524E+03 0.  0.
    5000001    2    3    3    0    0  0.11864711898E+02  0.33144027975E+02 -0.25917089247E+03  0.32800361950E+03  0.19793313246E+03 0.  0.
        -11    1    4    4    0    0  0.36007079537E+02  0.14196444374E+02  0.21360982628E+02  0.44207922240E+02  0.51100000000E-03 0. -1.
     200002    1    4    4    0    0 -0.24142367639E+02  0.18947583601E+02 -0.28053187509E+03  0.28379569726E+03  0.30000000000E+02 0. -1.
     200000    1    3    3    0    0  0.11100531023E+03  0.15973877230E+02 -0.64244311040E+03  0.82177277501E+03  0.50000000000E+03 0. -1.
    -200001    1    1    2    0    0 -0.12287002213E+03 -0.49117905206E+02  0.97553935931E+03  0.12079679849E+04  0.70000000000E+03 0.  1.
<mgrwt>
<rscale>  0 0.23565852E+04</rscale>
<asrwt>0</asrwt>
<pdfrwt beam="1">  1        2 0.16312993E+00 0.23565852E+04</pdfrwt>
<pdfrwt beam="2">  1       -2 0.17369070E+00 0.23565852E+04</pdfrwt>
<totfact> 0.42025204E+00</totfact>
</mgrwt>
</event>
<event>
 8    1  0.2654897E-009  0.1596164E+04  0.7818608E-02  0.8822908E-01
         -2   -1    0    0    0  501 -0.00000000000E+00  0.00000000000E+00  0.18810209416E+04  0.18810209416E+04  0.25500000000E-02 0. -1.
          2   -1    0    0  501    0  0.00000000000E+00 -0.00000000000E+00 -0.33861118945E+03  0.33861118946E+03  0.25500000000E-02 0.  1.
     200001    2    1    2    0    0  0.35616986652E+03  0.11996413524E+03  0.87179213071E+03  0.11799320004E+04  0.70069225682E+03 0.  0.
    5000001    2    3    3    0    0  0.17358893768E+03  0.44734942668E+02  0.33614610840E+03  0.42104341289E+03  0.17930146392E+03 0.  0.
        -11    1    4    4    0    0  0.11134288753E+03 -0.46191300793E+02  0.92445805853E+02  0.15191149362E+03  0.51100000000E-03 0. -1.
     200002    1    4    4    0    0  0.62246050144E+02  0.90926243461E+02  0.24370030255E+03  0.26913191927E+03  0.30000000000E+02 0. -1.
     200000    1    3    3    0    0  0.18258092884E+03  0.75229192572E+02  0.53564602231E+03  0.75888858748E+03  0.50000000000E+03 0. -1.
    -200001    1    1    2    0    0 -0.35616986652E+03 -0.11996413524E+03  0.67061762144E+03  0.10397001307E+04  0.70000000000E+03 0.  1.
<mgrwt>
<rscale>  0 0.15961638E+04</rscale>
<asrwt>0</asrwt>
<pdfrwt beam="1">  1        2 0.48373025E-01 0.15961638E+04</pdfrwt>
<pdfrwt beam="2">  1       -2 0.26871729E+00 0.15961638E+04</pdfrwt>
<totfact> 0.49495764E+00</totfact>
</mgrwt>
</event>
<event>
 8    1  0.2654897E-009  0.2630976E+04  0.7818608E-02  0.8357755E-01
          2   -1    0    0  501    0  0.00000000000E+00  0.00000000000E+00  0.35123191951E+04  0.35123191951E+04  0.25500000000E-02 0.  1.
         -2   -1    0    0    0  501 -0.00000000000E+00 -0.00000000000E+00 -0.49269688018E+03  0.49269688019E+03  0.25500000000E-02 0. -1.
     200001    2    1    2    0    0 -0.41635168065E+03  0.75455777739E+03  0.25836207401E+04  0.28122027895E+04  0.70048714435E+03 0.  0.
    5000001    2    3    3    0    0 -0.20274941370E+03  0.25948934358E+03  0.78477343975E+03  0.86886280575E+03  0.17496050781E+03 0.  0.
        -11    1    4    4    0    0 -0.22437977634E+03  0.20236047260E+03  0.67748750406E+03  0.74181221549E+03  0.51100000000E-03 0. -1.
     200002    1    4    4    0    0  0.21630362639E+02  0.57128870977E+02  0.10728593569E+03  0.12705059026E+03  0.30000000000E+02 0. -1.
     200000    1    3    3    0    0 -0.21360226694E+03  0.49506843381E+03  0.17988473003E+04  0.19433399838E+04  0.50000000000E+03 0.  1.
    -200001    1    1    2    0    0  0.41635168065E+03 -0.75455777739E+03  0.43600157480E+03  0.11928132857E+04  0.70000000000E+03 0. -1.
<mgrwt>
<rscale>  0 0.26309760E+04</rscale>
<asrwt>0</asrwt>
<pdfrwt beam="1">  1        2 0.50175988E+00 0.26309760E+04</pdfrwt>
<pdfrwt beam="2">  1       -2 0.70385269E-01 0.26309760E+04</pdfrwt>
<totfact> 0.19249147E+00</totfact>
</mgrwt>
</event>
<event>
 8    1  0.2654897E-009  0.1456321E+04  0.7818608E-02  0.8914030E-01
          2   -1    0    0  501    0  0.00000000000E+00  0.00000000000E+00  0.10766258279E+04  0.10766258279E+04  0.25500000000E-02 0.  1.
         -2   -1    0    0    0  501 -0.00000000000E+00 -0.00000000000E+00 -0.49248069332E+03  0.49248069333E+03  0.25500000000E-02 0. -1.
     200001    2    1    2    0    0 -0.94178864978E+02  0.16939391797E+03  0.23692995076E+03  0.76404606267E+03  0.70004758857E+03 0.  0.
    5000001    2    3    3    0    0 -0.41040627554E+02  0.77664103004E+02  0.12923959953E+02  0.20599882887E+03  0.18588287374E+03 0.  0.
        -11    1    4    4    0    0  0.35092099923E+02 -0.28201954980E+02  0.49871636080E+02  0.67186202656E+02  0.51100000000E-03 0. -1.
     200002    1    4    4    0    0 -0.76132727477E+02  0.10586605798E+03 -0.36947676128E+02  0.13881262622E+03  0.30000000000E+02 0. -1.
     200000    1    3    3    0    0 -0.53138237423E+02  0.91729814964E+02  0.22400599081E+03  0.55804723380E+03  0.50000000000E+03 0.  1.
    -200001    1    1    2    0    0  0.94178864978E+02 -0.16939391797E+03  0.34721518380E+03  0.80506045854E+03  0.70000000000E+03 0. -1.
<mgrwt>
<rscale>  0 0.14563206E+04</rscale>
<asrwt>0</asrwt>
<pdfrwt beam="1">  1        2 0.15380369E+00 0.14563206E+04</pdfrwt>
<pdfrwt beam="2">  1       -2 0.70354385E-01 0.14563206E+04</pdfrwt>
<totfact> 0.45035200E+01</totfact>
</mgrwt>
</event>
<event>
 8    1  0.2654897E-009  0.1414064E+04  0.7818608E-02  0.8943701E-01
         -2   -1    0    0    0  501 -0.00000000000E+00  0.00000000000E+00  0.52552726506E+03  0.52552726507E+03  0.25500000000E-02 0. -1.
          2   -1    0    0  501    0  0.00000000000E+00 -0.00000000000E+00 -0.95122399065E+03  0.95122399065E+03  0.25500000000E-02 0.  1.
     200001    2    1    2    0    0  0.40701823861E+02 -0.65869314799E+02 -0.14634089692E+03  0.71910022516E+03  0.69978144490E+03 0.  0.
    5000001    2    3    3    0    0 -0.63820682100E+02  0.32399338461E+01 -0.56952370212E+02  0.19594503671E+03  0.17625920771E+03 0.  0.
        -11    1    4    4    0    0 -0.88290366133E+02 -0.54830992919E+02  0.29469034159E+01  0.10397264437E+03  0.51100000000E-03 0. -1.
     200002    1    4    4    0    0  0.24469684033E+02  0.58070926765E+02 -0.59899273628E+02  0.91972392342E+02  0.30000000000E+02 0. -1.
     200000    1    3    3    0    0  0.10452250596E+03 -0.69109248645E+02 -0.89388526712E+02  0.52315518846E+03  0.50000000000E+03 0. -1.
    -200001    1    1    2    0    0 -0.40701823861E+02  0.65869314799E+02 -0.27935582866E+03  0.75765103056E+03  0.70000000000E+03 0.  1.
<mgrwt>
<rscale>  0 0.14140638E+04</rscale>
<asrwt>0</asrwt>
<pdfrwt beam="1">  1        2 0.13588914E+00 0.14140638E+04</pdfrwt>
<pdfrwt beam="2">  1       -2 0.75075324E-01 0.14140638E+04</pdfrwt>
<totfact> 0.46765799E+01</totfact>
</mgrwt>
</event>
<event>
 8    1  0.2654897E-009  0.1780126E+04  0.7818608E-02  0.8716940E-01
         -2   -1    0    0    0  501 -0.00000000000E+00  0.00000000000E+00  0.35639418763E+03  0.35639418764E+03  0.25500000000E-02 0. -1.
          2   -1    0    0  501    0  0.00000000000E+00 -0.00000000000E+00 -0.22228537569E+04  0.22228537569E+04  0.25500000000E-02 0.  1.
     200001    2    1    2    0    0  0.23254802969E+03 -0.27606658246E+03 -0.33449616898E+03  0.85669077456E+03  0.70124179288E+03 0.  0.
    5000001    2    3    3    0    0  0.11878776297E+03 -0.64991099494E+02 -0.59939602954E+02  0.23792137830E+03  0.18622419447E+03 0.  0.
        -11    1    4    4    0    0  0.16325670537E+03 -0.36096162960E+02 -0.57957110366E+02  0.17695963232E+03  0.51100000000E-03 0. -1.
     200002    1    4    4    0    0 -0.44468942404E+02 -0.28894936534E+02 -0.19824925877E+01  0.60961745978E+02  0.30000000000E+02 0. -1.
     200000    1    3    3    0    0  0.11376026673E+03 -0.21107548297E+03 -0.27455656603E+03  0.61876939626E+03  0.50000000000E+03 0. -1.
    -200001    1    1    2    0    0 -0.23254802969E+03  0.27606658246E+03 -0.15319634003E+04  0.17225571700E+04  0.70000000000E+03 0.  1.
<mgrwt>
<rscale>  0 0.17801260E+04</rscale>
<asrwt>0</asrwt>
<pdfrwt beam="1">  1        2 0.31755053E+00 0.17801260E+04</pdfrwt>
<pdfrwt beam="2">  1       -2 0.50913457E-01 0.17801260E+04</pdfrwt>
<totfact> 0.21279478E+01</totfact>
</mgrwt>
</event>
<event>
 8    1  0.2654897E-009  0.1634227E+04  0.7818608E-02  0.8799793E-01
          2   -1    0    0  501    0  0.00000000000E+00  0.00000000000E+00  0.69170945222E+03  0.69170945223E+03  0.25500000000E-02 0.  1.
         -2   -1    0    0    0  501 -0.00000000000E+00 -0.00000000000E+00 -0.96525269253E+03  0.96525269253E+03  0.25500000000E-02 0. -1.
     200001    2    1    2    0    0 -0.27115446399E+03  0.11244148233E+03 -0.44282305296E+03  0.87925816170E+03  0.70059605223E+03 0.  0.
    5000001    2    3    3    0    0 -0.58499709882E+02  0.13111939531E+01  0.21013508269E+02  0.15626691627E+03  0.14336612677E+03 0.  0.
        -11    1    4    4    0    0  0.34023711045E+02  0.36450098816E+02  0.17314039252E+02  0.52782559359E+02  0.51100000000E-03 0. -1.
     200002    1    4    4    0    0 -0.92523420927E+02 -0.35138904863E+02  0.36994690161E+01  0.10348435691E+03  0.30000000000E+02 0. -1.
     200000    1    3    3    0    0 -0.21265475411E+03  0.11113028837E+03 -0.46383656123E+03  0.72299124543E+03  0.50000000000E+03 0. -1.
    -200001    1    1    2    0    0  0.27115446399E+03 -0.11244148233E+03  0.16927981265E+03  0.77770398306E+03  0.70000000000E+03 0.  1.
<mgrwt>
<rscale>  0 0.16342269E+04</rscale>
<asrwt>0</asrwt>
<pdfrwt beam="1">  1        2 0.98815636E-01 0.16342269E+04</pdfrwt>
<pdfrwt beam="2">  1       -2 0.13789324E+00 0.16342269E+04</pdfrwt>
<totfact> 0.16354565E+01</totfact>
</mgrwt>
</event>
<event>
 8    1  0.2654897E-009  0.1980258E+04  0.7818608E-02  0.8615907E-01
         -2   -1    0    0    0  501 -0.00000000000E+00  0.00000000000E+00  0.36524329385E+03  0.36524329386E+03  0.25500000000E-02 0. -1.
          2   -1    0    0  501    0  0.00000000000E+00 -0.00000000000E+00 -0.26841160522E+04  0.26841160522E+04  0.25500000000E-02 0.  1.
     200001    2    1    2    0    0  0.41990478781E+03  0.55689080479E+03 -0.12562664376E+04  0.15982978063E+04  0.69993079379E+03 0.  0.
    5000001    2    3    3    0    0  0.15900048334E+03  0.15412526885E+03 -0.44064942329E+03  0.52800707614E+03  0.18863670377E+03 0.  0.
        -11    1    4    4    0    0  0.11785564490E+03  0.16245730589E+03 -0.20544928131E+03  0.28721374699E+03  0.51100000000E-03 0. -1.
     200002    1    4    4    0    0  0.41144838431E+02 -0.83320370430E+01 -0.23520014198E+03  0.24079332914E+03  0.30000000000E+02 0. -1.
     200000    1    3    3    0    0  0.26090430448E+03  0.40276553594E+03 -0.81561701432E+03  0.10702907302E+04  0.50000000000E+03 0.  1.
    -200001    1    1    2    0    0 -0.41990478781E+03 -0.55689080479E+03 -0.10626063208E+04  0.14510615398E+04  0.70000000000E+03 0. -1.
<mgrwt>
<rscale>  0 0.19802580E+04</rscale>
<asrwt>0</asrwt>
<pdfrwt beam="1">  1        2 0.38344514E+00 0.19802580E+04</pdfrwt>
<pdfrwt beam="2">  1       -2 0.52177615E-01 0.19802580E+04</pdfrwt>
<totfact> 0.11390154E+01</totfact>
</mgrwt>
</event>
<event>
 8    1  0.2654897E-009  0.1542762E+04  0.7818608E-02  0.8856504E-01
         -2   -1    0    0    0  501 -0.00000000000E+00  0.00000000000E+00  0.17094801461E+03  0.17094801463E+03  0.25500000000E-02 0. -1.
          2   -1    0    0  501    0  0.00000000000E+00 -0.00000000000E+00 -0.34807571381E+04  0.34807571381E+04  0.25500000000E-02 0.  1.
     200001    2    1    2    0    0  0.10151195335E+03 -0.24821842537E+01 -0.92799448981E+03  0.11670820853E+04  0.70042557264E+03 0.  0.
    5000001    2    3    3    0    0  0.14365004547E+03 -0.57100736888E+02 -0.31066633578E+03  0.36967826361E+03  0.12748575089E+03 0.  0.
        -11    1    4    4    0    0  0.11566010621E+02 -0.63749650601E+01  0.10872958689E+02  0.17106548808E+02  0.51100000000E-03 0. -1.
     200002    1    4    4    0    0  0.13208403485E+03 -0.50725771828E+02 -0.32153929447E+03  0.35257171480E+03  0.30000000000E+02 0. -1.
     200000    1    3    3    0    0 -0.42138092125E+02  0.54618552635E+02 -0.61732815403E+03  0.79740382170E+03  0.50000000000E+03 0. -1.
    -200001    1    1    2    0    0 -0.10151195335E+03  0.24821842537E+01 -0.23818146336E+04  0.24846230674E+04  0.70000000000E+03 0. -1.
<mgrwt>
<rscale>  0 0.15427618E+04</rscale>
<asrwt>0</asrwt>
<pdfrwt beam="1">  1        2 0.49725098E+00 0.15427618E+04</pdfrwt>
<pdfrwt beam="2">  1       -2 0.24421147E-01 0.15427618E+04</pdfrwt>
<totfact> 0.18001171E+01</totfact>
</mgrwt>
</event>
<event>
 8    1  0.2654897E-009  0.1692287E+04  0.7818608E-02  0.8765776E-01
          2   -1    0    0  501    0  0.00000000000E+00  0.00000000000E+00  0.72582029191E+03  0.72582029191E+03  0.25500000000E-02 0.  1.
         -2   -1    0    0    0  501 -0.00000000000E+00 -0.00000000000E+00 -0.98641302981E+03  0.98641302982E+03  0.25500000000E-02 0. -1.
     200001    2    1    2    0    0  0.42656465874E+03 -0.66067031042E+02  0.70681200938E+02  0.82563043248E+03  0.70024818329E+03 0.  0.
    5000001    2    3    3    0    0  0.15906129769E+02  0.20390885875E+02 -0.39427562190E+02  0.16363395324E+03  0.15669315493E+03 0.  0.
        -11    1    4    4    0    0 -0.44007902348E+02 -0.46535366970E+02 -0.13696500665E+02  0.65496793653E+02  0.51100000000E-03 0. -1.
     200002    1    4    4    0    0  0.59914032117E+02  0.66926252845E+02 -0.25731061525E+02  0.98137159586E+02  0.30000000000E+02 0. -1.
     200000    1    3    3    0    0  0.41065852897E+03 -0.86457916918E+02  0.11010876313E+03  0.66199647924E+03  0.50000000000E+03 0.  1.
    -200001    1    1    2    0    0 -0.42656465874E+03  0.66067031042E+02 -0.33127393884E+03  0.88660288925E+03  0.70000000000E+03 0. -1.
<mgrwt>
<rscale>  0 0.16922867E+04</rscale>
<asrwt>0</asrwt>
<pdfrwt beam="1">  1        2 0.10368861E+00 0.16922867E+04</pdfrwt>
<pdfrwt beam="2">  1       -2 0.14091615E+00 0.16922867E+04</pdfrwt>
<totfact> 0.14498348E+01</totfact>
</mgrwt>
</event>
<event>
 8    1  0.2654897E-009  0.1463014E+04  0.7818608E-02  0.8909427E-01
         -2   -1    0    0    0  501 -0.00000000000E+00  0.00000000000E+00  0.51756533123E+03  0.51756533123E+03  0.25500000000E-02 0. -1.
          2   -1    0    0  501    0  0.00000000000E+00 -0.00000000000E+00 -0.10338843879E+04  0.10338843879E+04  0.25500000000E-02 0.  1.
     200001    2    1    2    0    0  0.29488753567E+02 -0.28969346572E+02 -0.35233995392E+02  0.70106648447E+03  0.69895920595E+03 0.  0.
    5000001    2    3    3    0    0  0.28067079143E+02  0.12278723977E+03  0.79594819431E+01  0.17675955228E+03  0.12375830796E+03 0.  0.
        -11    1    4    4    0    0 -0.33744163002E+02  0.62572741216E+02 -0.30853331286E+02  0.77498029212E+02  0.51100000000E-03 0. -1.
     200002    1    4    4    0    0  0.61811242145E+02  0.60214498552E+02  0.38812813230E+02  0.99261523070E+02  0.30000000000E+02 0. -1.
     200000    1    3    3    0    0  0.14216744230E+01 -0.15175658634E+03 -0.43193477335E+02  0.52430693219E+03  0.50000000000E+03 0. -1.
    -200001    1    1    2    0    0 -0.29488753567E+02  0.28969346572E+02 -0.48108506130E+03  0.85038323468E+03  0.70000000000E+03 0.  1.
<mgrwt>
<rscale>  0 0.14630143E+04</rscale>
<asrwt>0</asrwt>
<pdfrwt beam="1">  1        2 0.14769777E+00 0.14630143E+04</pdfrwt>
<pdfrwt beam="2">  1       -2 0.73937905E-01 0.14630143E+04</pdfrwt>
<totfact> 0.42825212E+01</totfact>
</mgrwt>
</event>
<event>
 8    1  0.2654897E-009  0.1729437E+04  0.7818608E-02  0.8744751E-01
          2   -1    0    0  501    0  0.00000000000E+00  0.00000000000E+00  0.10224681859E+04  0.10224681859E+04  0.25500000000E-02 0.  1.
         -2   -1    0    0    0  501 -0.00000000000E+00 -0.00000000000E+00 -0.73130659899E+03  0.73130659900E+03  0.25500000000E-02 0. -1.
     200001    2    1    2    0    0  0.57046167942E+02 -0.33087926794E+03  0.53088613517E+03  0.94124588438E+03  0.70097672652E+03 0.  0.
    5000001    2    3    3    0    0  0.22437058738E+00 -0.92790821783E+02  0.21190768607E+03  0.29963691013E+03  0.19043955353E+03 0.  0.
        -11    1    4    4    0    0  0.68733171309E+02 -0.97876760473E+02  0.18439490019E+03  0.21978532320E+03  0.51100000000E-03 0. -1.
     200002    1    4    4    0    0 -0.68508800722E+02  0.50859386898E+01  0.27512785879E+02  0.79851586932E+02  0.30000000000E+02 0. -1.
     200000    1    3    3    0    0  0.56821797354E+02 -0.23808844615E+03  0.31897844910E+03  0.64160897425E+03  0.50000000000E+03 0.  1.
    -200001    1    1    2    0    0 -0.57046167942E+02  0.33087926794E+03 -0.23972454822E+03  0.81252890056E+03  0.70000000000E+03 0. -1.
<mgrwt>
<rscale>  0 0.17294366E+04</rscale>
<asrwt>0</asrwt>
<pdfrwt beam="1">  1        2 0.14606689E+00 0.17294366E+04</pdfrwt>
<pdfrwt beam="2">  1       -2 0.10447237E+00 0.17294366E+04</pdfrwt>
<totfact> 0.19273661E+01</totfact>
</mgrwt>
</event>
<event>
 8    1  0.2654897E-009  0.1733665E+04  0.7818608E-02  0.8742394E-01
          2   -1    0    0  501    0  0.00000000000E+00  0.00000000000E+00  0.31209613172E+04  0.31209613172E+04  0.25500000000E-02 0.  1.
         -2   -1    0    0    0  501 -0.00000000000E+00 -0.00000000000E+00 -0.24075865075E+03  0.24075865077E+03  0.25500000000E-02 0. -1.
     200001    2    1    2    0    0 -0.47233680592E+03 -0.11966202129E+02  0.10628788358E+04  0.13577461274E+04  0.70036981565E+03 0.  0.
    5000001    2    3    3    0    0 -0.22518799075E+03 -0.22797208843E+02  0.39260431568E+03  0.48569808981E+03  0.17474307382E+03 0.  0.
        -11    1    4    4    0    0 -0.36461927576E+02  0.46054279271E+02  0.18973437336E+03  0.19861923683E+03  0.51100000000E-03 0. -1.
     200002    1    4    4    0    0 -0.18872606317E+03 -0.68851488114E+02  0.20286994231E+03  0.28707885298E+03  0.30000000000E+02 0. -1.
     200000    1    3    3    0    0 -0.24714881517E+03  0.10831006714E+02  0.67027452015E+03  0.87204803761E+03  0.50000000000E+03 0.  1.
    -200001    1    1    2    0    0  0.47233680592E+03  0.11966202129E+02  0.18173238306E+04  0.20039738405E+04  0.70000000000E+03 0.  1.
<mgrwt>
<rscale>  0 0.17336648E+04</rscale>
<asrwt>0</asrwt>
<pdfrwt beam="1">  1        2 0.44585159E+00 0.17336648E+04</pdfrwt>
<pdfrwt beam="2">  1       -2 0.34394095E-01 0.17336648E+04</pdfrwt>
<totfact> 0.15231498E+01</totfact>
</mgrwt>
</event>
<event>
 8    1  0.2654897E-009  0.1850366E+04  0.7818608E-02  0.8679965E-01
         -2   -1    0    0    0  501 -0.00000000000E+00  0.00000000000E+00  0.19932005916E+04  0.19932005916E+04  0.25500000000E-02 0. -1.
          2   -1    0    0  501    0  0.00000000000E+00 -0.00000000000E+00 -0.42944186561E+03  0.42944186562E+03  0.25500000000E-02 0.  1.
     200001    2    1    2    0    0 -0.13411414996E+03  0.58935854797E+03  0.77001449068E+03  0.12038889898E+04  0.70078262004E+03 0.  0.
    5000001    2    3    3    0    0 -0.18316434072E+02  0.12915315086E+03  0.18264394507E+03  0.29823879439E+03  0.19639638407E+03 0.  0.
        -11    1    4    4    0    0 -0.61431664392E+02  0.12763679541E+03  0.41461098560E+02  0.14759411786E+03  0.51100000000E-03 0. -1.
     200002    1    4    4    0    0  0.43115230320E+02  0.15163554494E+01  0.14118284651E+03  0.15064467653E+03  0.30000000000E+02 0. -1.
     200000    1    3    3    0    0 -0.11579771589E+03  0.46020539712E+03  0.58737054562E+03  0.90565019538E+03  0.50000000000E+03 0.  1.
    -200001    1    1    2    0    0  0.13411414996E+03 -0.58935854797E+03  0.79374423526E+03  0.12187534674E+04  0.70000000000E+03 0.  1.
<mgrwt>
<rscale>  0 0.18503662E+04</rscale>
<asrwt>0</asrwt>
<pdfrwt beam="1">  1        2 0.61348836E-01 0.18503662E+04</pdfrwt>
<pdfrwt beam="2">  1       -2 0.28474295E+00 0.18503662E+04</pdfrwt>
<totfact> 0.29689447E+00</totfact>
</mgrwt>
</event>
<event>
 8    1  0.2654897E-009  0.2182796E+04  0.7818608E-02  0.8525623E-01
         -2   -1    0    0    0  501 -0.00000000000E+00  0.00000000000E+00  0.50348036798E+03  0.50348036799E+03  0.25500000000E-02 0. -1.
          2   -1    0    0  501    0  0.00000000000E+00 -0.00000000000E+00 -0.23658305704E+04  0.23658305704E+04  0.25500000000E-02 0.  1.
     200001    2    1    2    0    0 -0.12372669258E+02 -0.83656503086E+03 -0.97428041940E+03  0.14626617023E+04  0.70011626609E+03 0.  0.
    5000001    2    3    3    0    0 -0.38161349522E+02 -0.29415792675E+02 -0.14840994192E+03  0.20400488084E+03  0.13141880797E+03 0.  0.
        -11    1    4    4    0    0 -0.54923838335E+02 -0.33453630122E+01 -0.61726249897E+01  0.55370757360E+02  0.51100000000E-03 0. -1.
     200002    1    4    4    0    0  0.16762488813E+02 -0.26070429663E+02 -0.14223731693E+03  0.14863412348E+03  0.30000000000E+02 0. -1.
     200000    1    3    3    0    0  0.25788680264E+02 -0.80714923819E+03 -0.82587047747E+03  0.12586568215E+04  0.50000000000E+03 0.  1.
    -200001    1    1    2    0    0  0.12372669258E+02  0.83656503086E+03 -0.88806978304E+03  0.14066492361E+04  0.70000000000E+03 0. -1.
<mgrwt>
<rscale>  0 0.21827957E+04</rscale>
<asrwt>0</asrwt>
<pdfrwt beam="1">  1        2 0.33797579E+00 0.21827957E+04</pdfrwt>
<pdfrwt beam="2">  1       -2 0.71925768E-01 0.21827957E+04</pdfrwt>
<totfact> 0.83484680E+00</totfact>
</mgrwt>
</event>
<event>
 8    1  0.2654897E-009  0.2011210E+04  0.7818608E-02  0.8601398E-01
         -2   -1    0    0    0  501 -0.00000000000E+00  0.00000000000E+00  0.42382826308E+03  0.42382826309E+03  0.25500000000E-02 0. -1.
          2   -1    0    0  501    0  0.00000000000E+00 -0.00000000000E+00 -0.23859687496E+04  0.23859687496E+04  0.25500000000E-02 0.  1.
     200001    2    1    2    0    0  0.49096600607E+03  0.19733767413E+03 -0.29205022420E+03  0.92321511385E+03  0.69788468692E+03 0.  0.
    5000001    2    3    3    0    0  0.24361674211E+03  0.29056970138E+02 -0.14276599155E+03  0.32172875836E+03  0.15143923225E+03 0.  0.
        -11    1    4    4    0    0  0.24775130632E+03  0.46837550914E+02 -0.11584097031E+03  0.27747719972E+03  0.51100000000E-03 0. -1.
     200002    1    4    4    0    0 -0.41345642094E+01 -0.17780580776E+02 -0.26925021237E+02  0.44251558645E+02  0.30000000000E+02 0. -1.
     200000    1    3    3    0    0  0.24734926396E+03  0.16828070399E+03 -0.14928423265E+03  0.60148635549E+03  0.50000000000E+03 0. -1.
    -200001    1    1    2    0    0 -0.49096600607E+03 -0.19733767413E+03 -0.16700902624E+04  0.18865818989E+04  0.70000000000E+03 0.  1.
<mgrwt>
<rscale>  0 0.20112096E+04</rscale>
<asrwt>0</asrwt>
<pdfrwt beam="1">  1        2 0.34085267E+00 0.20112096E+04</pdfrwt>
<pdfrwt beam="2">  1       -2 0.60546896E-01 0.20112096E+04</pdfrwt>
<totfact> 0.11978668E+01</totfact>
</mgrwt>
</event>
<event>
 8    1  0.2654897E-009  0.1471648E+04  0.7818608E-02  0.8903529E-01
         -2   -1    0    0    0  501 -0.00000000000E+00  0.00000000000E+00  0.85767345537E+03  0.85767345537E+03  0.25500000000E-02 0. -1.
          2   -1    0    0  501    0  0.00000000000E+00 -0.00000000000E+00 -0.63128527371E+03  0.63128527371E+03  0.25500000000E-02 0.  1.
     200001    2    1    2    0    0  0.16416265494E+03  0.35810107648E+02 -0.42435561374E+02  0.72052008749E+03  0.69936877148E+03 0.  0.
    5000001    2    3    3    0    0 -0.34096052625E+02  0.61902012644E+01 -0.94573420728E+02  0.17931568030E+03  0.14835471647E+03 0.  0.
        -11    1    4    4    0    0 -0.20037268235E+02  0.18501282857E+02  0.35363046916E+02  0.44657974351E+02  0.51100000000E-03 0. -1.
     200002    1    4    4    0    0 -0.14058784390E+02 -0.12311081593E+02 -0.12993646764E+03  0.13465770595E+03  0.30000000000E+02 0. -1.
     200000    1    3    3    0    0  0.19825870756E+03  0.29619906383E+02  0.52137859354E+02  0.54120440718E+03  0.50000000000E+03 0.  1.
    -200001    1    1    2    0    0 -0.16416265494E+03 -0.35810107648E+02  0.26882374303E+03  0.76843864160E+03  0.70000000000E+03 0. -1.
<mgrwt>
<rscale>  0 0.14716475E+04</rscale>
<asrwt>0</asrwt>
<pdfrwt beam="1">  1        2 0.90183611E-01 0.14716475E+04</pdfrwt>
<pdfrwt beam="2">  1       -2 0.12252478E+00 0.14716475E+04</pdfrwt>
<totfact> 0.24966091E+01</totfact>
</mgrwt>
</event>
<event>
 8    1  0.2654897E-009  0.1558757E+04  0.7818608E-02  0.8846293E-01
          2   -1    0    0  501    0  0.00000000000E+00  0.00000000000E+00  0.36488585163E+04  0.36488585163E+04  0.25500000000E-02 0.  1.
         -2   -1    0    0    0  501 -0.00000000000E+00 -0.00000000000E+00 -0.16647155024E+03  0.16647155026E+03  0.25500000000E-02 0. -1.
     200001    2    1    2    0    0  0.61804319394E+02  0.48993568884E+01  0.25663010816E+04  0.26607491359E+04  0.69988638043E+03 0.  0.
    5000001    2    3    3    0    0  0.36088548487E+02 -0.18103243728E+02  0.70021978708E+03  0.72853542670E+03  0.19704316018E+03 0.  0.
        -11    1    4    4    0    0 -0.15024692654E+02 -0.93155112359E+02  0.22843927488E+03  0.24716010733E+03  0.51100000000E-03 0. -1.
     200002    1    4    4    0    0  0.51113241141E+02  0.75051868630E+02  0.47178051221E+03  0.48137531937E+03  0.30000000000E+02 0. -1.
     200000    1    3    3    0    0  0.25715770908E+02  0.23002600617E+02  0.18660812945E+04  0.19322137092E+04  0.50000000000E+03 0.  1.
    -200001    1    1    2    0    0 -0.61804319394E+02 -0.48993568884E+01  0.91608588449E+03  0.11545809306E+04  0.70000000000E+03 0. -1.
<mgrwt>
<rscale>  0 0.15587574E+04</rscale>
<asrwt>0</asrwt>
<pdfrwt beam="1">  1        2 0.52126543E+00 0.15587574E+04</pdfrwt>
<pdfrwt beam="2">  1       -2 0.23781653E-01 0.15587574E+04</pdfrwt>
<totfact> 0.14855792E+01</totfact>
</mgrwt>
</event>
<event>
 8    1  0.2654897E-009  0.1578603E+04  0.7818608E-02  0.8833802E-01
          2   -1    0    0  501    0  0.00000000000E+00  0.00000000000E+00  0.19605551295E+04  0.19605551295E+04  0.25500000000E-02 0.  1.
         -2   -1    0    0    0  501 -0.00000000000E+00 -0.00000000000E+00 -0.31776554580E+03  0.31776554581E+03  0.25500000000E-02 0. -1.
     200001    2    1    2    0    0 -0.20697570197E+03  0.28212086483E+03  0.67600524246E+03  0.10344946883E+04  0.70054625017E+03 0.  0.
    5000001    2    3    3    0    0 -0.25997196949E+02  0.85683264018E+01  0.22577725108E+03  0.28596983578E+03  0.17336121079E+03 0.  0.
        -11    1    4    4    0    0 -0.64588467917E+02  0.10955172746E+02  0.22775681419E+03  0.23699124964E+03  0.51100000000E-03 0. -1.
     200002    1    4    4    0    0  0.38591270968E+02 -0.23868463438E+01 -0.19795631049E+01  0.48978586142E+02  0.30000000000E+02 0. -1.
     200000    1    3    3    0    0 -0.18097850502E+03  0.27355253843E+03  0.45022799138E+03  0.74852485248E+03  0.50000000000E+03 0. -1.
    -200001    1    1    2    0    0  0.20697570197E+03 -0.28212086483E+03  0.96678434126E+03  0.12438259871E+04  0.70000000000E+03 0. -1.
<mgrwt>
<rscale>  0 0.15786030E+04</rscale>
<asrwt>0</asrwt>
<pdfrwt beam="1">  1        2 0.28007930E+00 0.15786030E+04</pdfrwt>
<pdfrwt beam="2">  1       -2 0.45395079E-01 0.15786030E+04</pdfrwt>
<totfact> 0.37226659E+01</totfact>
</mgrwt>
</event>
<event>
 8    1  0.2654897E-009  0.1755753E+04  0.7818608E-02  0.8730190E-01
          2   -1    0    0  501    0  0.00000000000E+00  0.00000000000E+00  0.76018988773E+03  0.76018988773E+03  0.25500000000E-02 0.  1.
         -2   -1    0    0    0  501 -0.00000000000E+00 -0.00000000000E+00 -0.10137827056E+04  0.10137827056E+04  0.25500000000E-02 0. -1.
     200001    2    1    2    0    0 -0.32249464251E+02  0.20402326928E+03 -0.61956224003E+03  0.95751736470E+03  0.70022611496E+03 0.  0.
    5000001    2    3    3    0    0 -0.57420107218E+02  0.18466028404E+02 -0.15446729970E+03  0.24943661052E+03  0.18633414361E+03 0.  0.
        -11    1    4    4    0    0  0.57158613191E+02  0.46370283395E+02 -0.67521677864E+02  0.99882366941E+02  0.51100000000E-03 0. -1.
     200002    1    4    4    0    0 -0.11457872041E+03 -0.27904254991E+02 -0.86945621833E+02  0.14955424358E+03  0.30000000000E+02 0. -1.
     200000    1    3    3    0    0  0.25170642966E+02  0.18555724087E+03 -0.46509494033E+03  0.70808075417E+03  0.50000000000E+03 0. -1.
    -200001    1    1    2    0    0  0.32249464251E+02 -0.20402326928E+03  0.36596942218E+03  0.81645522861E+03  0.70000000000E+03 0.  1.
<mgrwt>
<rscale>  0 0.17557532E+04</rscale>
<asrwt>0</asrwt>
<pdfrwt beam="1">  1        2 0.10859856E+00 0.17557532E+04</pdfrwt>
<pdfrwt beam="2">  1       -2 0.14482610E+00 0.17557532E+04</pdfrwt>
<totfact> 0.12670716E+01</totfact>
</mgrwt>
</event>
<event>
 8    1  0.2654897E-009  0.2316918E+04  0.7818608E-02  0.8471280E-01
          2   -1    0    0  501    0  0.00000000000E+00  0.00000000000E+00  0.19950788001E+04  0.19950788001E+04  0.25500000000E-02 0.  1.
         -2   -1    0    0    0  501 -0.00000000000E+00 -0.00000000000E+00 -0.67266861854E+03  0.67266861855E+03  0.25500000000E-02 0. -1.
     200001    2    1    2    0    0 -0.39094185811E+03  0.28211109232E+03  0.15673250720E+04  0.17832105294E+04  0.70064948876E+03 0.  0.
    5000001    2    3    3    0    0 -0.83214645620E+02  0.77937304841E+02  0.42759180375E+03  0.48499063451E+03  0.19844965154E+03 0.  0.
        -11    1    4    4    0    0  0.55819322939E+02  0.13979519944E+02  0.49155571189E+02  0.75680208578E+02  0.51100000000E-03 0. -1.
     200002    1    4    4    0    0 -0.13903396856E+03  0.63957784897E+02  0.37843623256E+03  0.40931042593E+03  0.30000000000E+02 0. -1.
     200000    1    3    3    0    0 -0.30772721249E+03  0.20417378748E+03  0.11397332682E+04  0.12982198949E+04  0.50000000000E+03 0.  1.
    -200001    1    1    2    0    0  0.39094185811E+03 -0.28211109232E+03 -0.24491489044E+03  0.88453688922E+03  0.70000000000E+03 0. -1.
<mgrwt>
<rscale>  0 0.23169177E+04</rscale>
<asrwt>0</asrwt>
<pdfrwt beam="1">  1        2 0.28501126E+00 0.23169177E+04</pdfrwt>
<pdfrwt beam="2">  1       -2 0.96095515E-01 0.23169177E+04</pdfrwt>
<totfact> 0.66636415E+00</totfact>
</mgrwt>
</event>
<event>
 8    1  0.2654897E-009  0.1955817E+04  0.7818608E-02  0.8627561E-01
          2   -1    0    0  501    0  0.00000000000E+00  0.00000000000E+00  0.35724176957E+04  0.35724176957E+04  0.25500000000E-02 0.  1.
         -2   -1    0    0    0  501 -0.00000000000E+00 -0.00000000000E+00 -0.26769139184E+03  0.26769139185E+03  0.25500000000E-02 0. -1.
     200001    2    1    2    0    0  0.61800115707E+03 -0.28905600123E+03  0.16970168272E+04  0.19585648911E+04  0.70045093958E+03 0.  0.
    5000001    2    3    3    0    0  0.13212961968E+03  0.16248923911E+02  0.54932221050E+03  0.58143556477E+03  0.13634574107E+03 0.  0.
        -11    1    4    4    0    0  0.14900806645E+03  0.30699703931E+02  0.41442970259E+03  0.44147237069E+03  0.51100000000E-03 0. -1.
     200002    1    4    4    0    0 -0.16878446772E+02 -0.14450780020E+02  0.13489250791E+03  0.13996319409E+03  0.30000000000E+02 0. -1.
     200000    1    3    3    0    0  0.48587153739E+03 -0.30530492514E+03  0.11476946167E+04  0.13771293263E+04  0.50000000000E+03 0. -1.
    -200001    1    1    2    0    0 -0.61800115707E+03  0.28905600123E+03  0.16077094767E+04  0.18815441965E+04  0.70000000000E+03 0.  1.
<mgrwt>
<rscale>  0 0.19558174E+04</rscale>
<asrwt>0</asrwt>
<pdfrwt beam="1">  1        2 0.51034538E+00 0.19558174E+04</pdfrwt>
<pdfrwt beam="2">  1       -2 0.38241628E-01 0.19558174E+04</pdfrwt>
<totfact> 0.65776657E+00</totfact>
</mgrwt>
</event>
<event>
 8    1  0.2654897E-009  0.1745903E+04  0.7818608E-02  0.8735609E-01
          2   -1    0    0  501    0  0.00000000000E+00  0.00000000000E+00  0.82557479740E+03  0.82557479740E+03  0.25500000000E-02 0.  1.
         -2   -1    0    0    0  501 -0.00000000000E+00 -0.00000000000E+00 -0.92304654745E+03  0.92304654745E+03  0.25500000000E-02 0. -1.
     200001    2    1    2    0    0 -0.35576993868E+03 -0.19581615041E+03  0.27873324343E+03  0.85618288134E+03  0.70031470874E+03 0.  0.
    5000001    2    3    3    0    0 -0.12704535872E+03 -0.50719805238E+02  0.43715365908E+01  0.22480167395E+03  0.17833580814E+03 0.  0.
        -11    1    4    4    0    0  0.43837249304E+02 -0.66003631692E+01 -0.91791774475E+01  0.45271696670E+02  0.51100000000E-03 0. -1.
     200002    1    4    4    0    0 -0.17088260802E+03 -0.44119442069E+02  0.13550714038E+02  0.17952997728E+03  0.30000000000E+02 0. -1.
     200000    1    3    3    0    0 -0.22872457996E+03 -0.14509634517E+03  0.27436170684E+03  0.63138120739E+03  0.50000000000E+03 0. -1.
    -200001    1    1    2    0    0  0.35576993868E+03  0.19581615041E+03 -0.37620499349E+03  0.89243846351E+03  0.70000000000E+03 0. -1.
<mgrwt>
<rscale>  0 0.17459026E+04</rscale>
<asrwt>0</asrwt>
<pdfrwt beam="1">  1        2 0.11793926E+00 0.17459026E+04</pdfrwt>
<pdfrwt beam="2">  1       -2 0.13186379E+00 0.17459026E+04</pdfrwt>
<totfact> 0.14530035E+01</totfact>
</mgrwt>
</event>
<event>
 8    1  0.2654897E-009  0.1793361E+04  0.7818608E-02  0.8709838E-01
         -2   -1    0    0    0  501 -0.00000000000E+00  0.00000000000E+00  0.11717590379E+04  0.11717590379E+04  0.25500000000E-02 0. -1.
          2   -1    0    0  501    0  0.00000000000E+00 -0.00000000000E+00 -0.68617880698E+03  0.68617880699E+03  0.25500000000E-02 0.  1.
     200001    2    1    2    0    0  0.52036887443E+03 -0.16817898974E+03  0.37142640230E+03  0.96233802653E+03  0.69933466017E+03 0.  0.
    5000001    2    3    3    0    0  0.19503376771E+03 -0.74040882300E+02  0.41129490299E+02  0.27400600998E+03  0.17282197700E+03 0.  0.
        -11    1    4    4    0    0  0.17758752498E+03 -0.27814914262E+02 -0.30119294103E+02  0.18225852617E+03  0.51100000000E-03 0. -1.
     200002    1    4    4    0    0  0.17446242727E+02 -0.46225968037E+02  0.71248784401E+02  0.91747483807E+02  0.30000000000E+02 0. -1.
     200000    1    3    3    0    0  0.32533510673E+03 -0.94138107438E+02  0.33029691200E+03  0.68833201656E+03  0.50000000000E+03 0. -1.
    -200001    1    1    2    0    0 -0.52036887443E+03  0.16817898974E+03  0.11415382863E+03  0.89559981837E+03  0.70000000000E+03 0. -1.
<mgrwt>
<rscale>  0 0.17933613E+04</rscale>
<asrwt>0</asrwt>
<pdfrwt beam="1">  1        2 0.98025545E-01 0.17933613E+04</pdfrwt>
<pdfrwt beam="2">  1       -2 0.16739415E+00 0.17933613E+04</pdfrwt>
<totfact> 0.97172706E+00</totfact>
</mgrwt>
</event>
<event>
 8    1  0.2654897E-009  0.2490430E+04  0.7818608E-02  0.8406403E-01
         -2   -1    0    0    0  501 -0.00000000000E+00  0.00000000000E+00  0.18086394103E+04  0.18086394103E+04  0.25500000000E-02 0. -1.
          2   -1    0    0  501    0  0.00000000000E+00 -0.00000000000E+00 -0.85730742979E+03  0.85730742980E+03  0.25500000000E-02 0.  1.
     200001    2    1    2    0    0  0.45886078362E+03  0.15821579144E+03  0.14471253727E+04  0.16803523276E+04  0.70272800237E+03 0.  0.
    5000001    2    3    3    0    0  0.58867790482E+02 -0.12220148678E+00  0.14025802693E+03  0.21646449930E+03  0.15401017385E+03 0.  0.
        -11    1    4    4    0    0  0.87369681598E+02  0.16536869140E+02  0.24239165248E+02  0.92165429721E+02  0.51100000000E-03 0. -1.
     200002    1    4    4    0    0 -0.28501891116E+02 -0.16659070626E+02  0.11601886168E+03  0.12429906958E+03  0.30000000000E+02 0. -1.
     200000    1    3    3    0    0  0.39999299313E+03  0.15833799292E+03  0.13068673458E+04  0.14638878283E+04  0.50000000000E+03 0. -1.
    -200001    1    1    2    0    0 -0.45886078362E+03 -0.15821579144E+03 -0.49579339213E+03  0.98559451251E+03  0.70000000000E+03 0.  1.
<mgrwt>
<rscale>  0 0.24904297E+04</rscale>
<asrwt>0</asrwt>
<pdfrwt beam="1">  1        2 0.12247249E+00 0.24904297E+04</pdfrwt>
<pdfrwt beam="2">  1       -2 0.25837706E+00 0.24904297E+04</pdfrwt>
<totfact> 0.17773536E+00</totfact>
</mgrwt>
</event>
<event>
 8    1  0.2654897E-009  0.1815872E+04  0.7818608E-02  0.8697904E-01
          2   -1    0    0  501    0  0.00000000000E+00  0.00000000000E+00  0.30799795912E+04  0.30799795912E+04  0.25500000000E-02 0.  1.
         -2   -1    0    0    0  501 -0.00000000000E+00 -0.00000000000E+00 -0.26764729033E+03  0.26764729034E+03  0.25500000000E-02 0. -1.
     200001    2    1    2    0    0  0.22140875370E+03 -0.33274471416E+03  0.21768080349E+04  0.23211611132E+04  0.69968193589E+03 0.  0.
    5000001    2    3    3    0    0 -0.55216749995E+02 -0.59111521693E+02  0.62343967986E+03  0.64355864542E+03  0.13765040572E+03 0.  0.
        -11    1    4    4    0    0 -0.95933238986E+02 -0.27670205055E+02  0.40810510881E+03  0.42014117440E+03  0.51100000000E-03 0. -1.
     200002    1    4    4    0    0  0.40716488991E+02 -0.31441316637E+02  0.21533457106E+03  0.22341747103E+03  0.30000000000E+02 0. -1.
     200000    1    3    3    0    0  0.27662550369E+03 -0.27363319247E+03  0.15533683551E+04  0.16776024678E+04  0.50000000000E+03 0.  1.
    -200001    1    1    2    0    0 -0.22140875370E+03  0.33274471416E+03  0.63552426594E+03  0.10264657684E+04  0.70000000000E+03 0. -1.
<mgrwt>
<rscale>  0 0.18158725E+04</rscale>
<asrwt>0</asrwt>
<pdfrwt beam="1">  1        2 0.43999710E+00 0.18158725E+04</pdfrwt>
<pdfrwt beam="2">  1       -2 0.38235325E-01 0.18158725E+04</pdfrwt>
<totfact> 0.13013618E+01</totfact>
</mgrwt>
</event>
<event>
 8    1  0.2654897E-009  0.1534243E+04  0.7818608E-02  0.8861995E-01
         -2   -1    0    0    0  501 -0.00000000000E+00  0.00000000000E+00  0.76118376187E+03  0.76118376187E+03  0.25500000000E-02 0. -1.
          2   -1    0    0  501    0  0.00000000000E+00 -0.00000000000E+00 -0.77310599673E+03  0.77310599674E+03  0.25500000000E-02 0.  1.
     200001    2    1    2    0    0  0.18974572608E+03 -0.22966024847E+03 -0.10469069320E+03  0.76790000323E+03  0.69997357338E+03 0.  0.
    5000001    2    3    3    0    0  0.12141231329E+03 -0.11641995231E+03 -0.87271686910E+02  0.25040967312E+03  0.16368904038E+03 0.  0.
        -11    1    4    4    0    0  0.11622509978E+03 -0.11721543032E+03 -0.12122362333E+03  0.20479965278E+03  0.51100000000E-03 0. -1.
     200002    1    4    4    0    0  0.51872135102E+01  0.79547801479E+00  0.33951936417E+02  0.45610020343E+02  0.30000000000E+02 0. -1.
     200000    1    3    3    0    0  0.68333412793E+02 -0.11324029616E+03 -0.17419006286E+02  0.51749033011E+03  0.50000000000E+03 0.  1.
    -200001    1    1    2    0    0 -0.18974572608E+03  0.22966024847E+03  0.92768458332E+02  0.76638975538E+03  0.70000000000E+03 0. -1.
<mgrwt>
<rscale>  0 0.15342434E+04</rscale>
<asrwt>0</asrwt>
<pdfrwt beam="1">  1        2 0.11044371E+00 0.15342434E+04</pdfrwt>
<pdfrwt beam="2">  1       -2 0.10874054E+00 0.15342434E+04</pdfrwt>
<totfact> 0.25919060E+01</totfact>
</mgrwt>
</event>
<event>
 8    1  0.2654897E-009  0.1870533E+04  0.7818608E-02  0.8669665E-01
          2   -1    0    0  501    0  0.00000000000E+00  0.00000000000E+00  0.18175765145E+04  0.18175765145E+04  0.25500000000E-02 0.  1.
         -2   -1    0    0    0  501 -0.00000000000E+00 -0.00000000000E+00 -0.48125794141E+03  0.48125794141E+03  0.25500000000E-02 0. -1.
     200001    2    1    2    0    0  0.35175168569E+03  0.48708785424E+03  0.84169530098E+03  0.12521081271E+04  0.70593197695E+03 0.  0.
    5000001    2    3    3    0    0  0.67487802690E+02  0.53282443971E+02  0.29443939725E+03  0.34740811419E+03  0.16310799124E+03 0.  0.
        -11    1    4    4    0    0 -0.14580466368E+02  0.77525886376E+02  0.70468966567E+02  0.10577678529E+03  0.51100000000E-03 0. -1.
     200002    1    4    4    0    0  0.82068269058E+02 -0.24243442405E+02  0.22397043068E+03  0.24163132890E+03  0.30000000000E+02 0. -1.
     200000    1    3    3    0    0  0.28426388300E+03  0.43380541027E+03  0.54725590373E+03  0.90470001289E+03  0.50000000000E+03 0.  1.
    -200001    1    1    2    0    0 -0.35175168569E+03 -0.48708785424E+03  0.49462327210E+03  0.10467263288E+04  0.70000000000E+03 0. -1.
<mgrwt>
<rscale>  0 0.18705327E+04</rscale>
<asrwt>0</asrwt>
<pdfrwt beam="1">  1        2 0.25965379E+00 0.18705327E+04</pdfrwt>
<pdfrwt beam="2">  1       -2 0.68751135E-01 0.18705327E+04</pdfrwt>
<totfact> 0.18146358E+01</totfact>
</mgrwt>
</event>
<event>
 8    1  0.2654897E-009  0.2893136E+04  0.7818608E-02  0.8274923E-01
          2   -1    0    0  501    0  0.00000000000E+00  0.00000000000E+00  0.92054464064E+03  0.92054464064E+03  0.25500000000E-02 0. -1.
         -2   -1    0    0    0  501 -0.00000000000E+00 -0.00000000000E+00 -0.22731751196E+04  0.22731751196E+04  0.25500000000E-02 0.  1.
     200001    2    1    2    0    0  0.73316698132E+03  0.30215160114E+03  0.41245268122E+03  0.11359666227E+04  0.70105173927E+03 0.  0.
    5000001    2    3    3    0    0  0.20224064052E+03  0.97229176060E+02  0.63018628896E+02  0.30171238295E+03  0.19158346767E+03 0.  0.
        -11    1    4    4    0    0  0.15550813905E+03  0.52482470298E+02 -0.46890547165E+02  0.17069245564E+03  0.51100000000E-03 0. -1.
     200002    1    4    4    0    0  0.46732501471E+02  0.44746705761E+02  0.10990917606E+03  0.13101992731E+03  0.30000000000E+02 0. -1.
     200000    1    3    3    0    0  0.53092634080E+03  0.20492242508E+03  0.34943405232E+03  0.83425423977E+03  0.50000000000E+03 0. -1.
    -200001    1    1    2    0    0 -0.73316698132E+03 -0.30215160114E+03 -0.17650831601E+04  0.20577531375E+04  0.70000000000E+03 0.  1.
<mgrwt>
<rscale>  0 0.28931361E+04</rscale>
<asrwt>0</asrwt>
<pdfrwt beam="1">  1        2 0.13150638E+00 0.28931361E+04</pdfrwt>
<pdfrwt beam="2">  1       -2 0.32473930E+00 0.28931361E+04</pdfrwt>
<totfact> 0.61301843E-01</totfact>
</mgrwt>
</event>
<event>
 8    1  0.2654897E-009  0.1725563E+04  0.7818608E-02  0.8746917E-01
         -2   -1    0    0    0  501 -0.00000000000E+00  0.00000000000E+00  0.15878519866E+04  0.15878519866E+04  0.25500000000E-02 0. -1.
          2   -1    0    0  501    0  0.00000000000E+00 -0.00000000000E+00 -0.46880460119E+03  0.46880460120E+03  0.25500000000E-02 0.  1.
     200001    2    1    2    0    0 -0.30817431762E+03  0.36338023895E+03  0.36406108372E+03  0.92218714183E+03  0.70062261152E+03 0.  0.
    5000001    2    3    3    0    0 -0.65456085500E+02  0.50363888463E+02  0.14703498165E+03  0.24839807628E+03  0.18237680247E+03 0.  0.
        -11    1    4    4    0    0 -0.11270416713E+03 -0.14931170371E+02  0.74818310381E+02  0.13609904006E+03  0.51100000000E-03 0. -1.
     200002    1    4    4    0    0  0.47248081630E+02  0.65295058834E+02  0.72216671270E+02  0.11229903622E+03  0.30000000000E+02 0. -1.
     200000    1    3    3    0    0 -0.24271823212E+03  0.31301635049E+03  0.21702610207E+03  0.67378906555E+03  0.50000000000E+03 0.  1.
    -200001    1    1    2    0    0  0.30817431762E+03 -0.36338023895E+03  0.75498630168E+03  0.11344694460E+04  0.70000000000E+03 0. -1.
<mgrwt>
<rscale>  0 0.17255635E+04</rscale>
<asrwt>0</asrwt>
<pdfrwt beam="1">  1        2 0.66972085E-01 0.17255635E+04</pdfrwt>
<pdfrwt beam="2">  1       -2 0.22683600E+00 0.17255635E+04</pdfrwt>
<totfact> 0.61556205E+00</totfact>
</mgrwt>
</event>
<event>
 8    1  0.2654897E-009  0.2025337E+04  0.7818608E-02  0.8594866E-01
         -2   -1    0    0    0  501 -0.00000000000E+00  0.00000000000E+00  0.68906653265E+03  0.68906653265E+03  0.25500000000E-02 0. -1.
          2   -1    0    0  501    0  0.00000000000E+00 -0.00000000000E+00 -0.14882410679E+04  0.14882410679E+04  0.25500000000E-02 0.  1.
     200001    2    1    2    0    0 -0.12387518518E+03  0.11172507413E+03 -0.11653964464E+04  0.13698758437E+04  0.70041658757E+03 0.  0.
    5000001    2    3    3    0    0 -0.13553396167E+03 -0.25273017163E+02 -0.22597284749E+03  0.29683292643E+03  0.13430516837E+03 0.  0.
        -11    1    4    4    0    0 -0.45439197081E+02 -0.58336338859E+02 -0.36795354066E+02  0.82593868683E+02  0.51100000000E-03 0. -1.
     200002    1    4    4    0    0 -0.90094764584E+02  0.33063321696E+02 -0.18917749342E+03  0.21423905775E+03  0.30000000000E+02 0. -1.
     200000    1    3    3    0    0  0.11658776486E+02  0.13699809129E+03 -0.93942359892E+03  0.10730429173E+04  0.50000000000E+03 0.  1.
    -200001    1    1    2    0    0  0.12387518518E+03 -0.11172507413E+03  0.36622191119E+03  0.80743175682E+03  0.70000000000E+03 0. -1.
<mgrwt>
<rscale>  0 0.20253366E+04</rscale>
<asrwt>0</asrwt>
<pdfrwt beam="1">  1        2 0.21260587E+00 0.20253366E+04</pdfrwt>
<pdfrwt beam="2">  1       -2 0.98438076E-01 0.20253366E+04</pdfrwt>
<totfact> 0.11839267E+01</totfact>
</mgrwt>
</event>
<event>
 8    1  0.2654897E-009  0.1460817E+04  0.7818608E-02  0.8910936E-01
         -2   -1    0    0    0  501 -0.00000000000E+00  0.00000000000E+00  0.30232353450E+03  0.30232353451E+03  0.25500000000E-02 0. -1.
          2   -1    0    0  501    0  0.00000000000E+00 -0.00000000000E+00 -0.17646537857E+04  0.17646537857E+04  0.25500000000E-02 0.  1.
     200001    2    1    2    0    0 -0.11442356292E+03  0.17375084405E+03 -0.71834631490E+03  0.10244830972E+04  0.70018717553E+03 0.  0.
    5000001    2    3    3    0    0 -0.15097468210E+02  0.12282302273E+03 -0.30798655539E+03  0.36808805739E+03  0.15912156119E+03 0.  0.
        -11    1    4    4    0    0 -0.52566792390E+02  0.62770545801E+02 -0.43617850534E+02  0.92768130129E+02  0.51100000000E-03 0. -1.
     200002    1    4    4    0    0  0.37469324180E+02  0.60052476926E+02 -0.26436870486E+03  0.27531992726E+03  0.30000000000E+02 0. -1.
     200000    1    3    3    0    0 -0.99326094709E+02  0.50927821318E+02 -0.41035975951E+03  0.65639503982E+03  0.50000000000E+03 0. -1.
    -200001    1    1    2    0    0  0.11442356292E+03 -0.17375084405E+03 -0.74398393634E+03  0.10424942231E+04  0.70000000000E+03 0. -1.
<mgrwt>
<rscale>  0 0.14608167E+04</rscale>
<asrwt>0</asrwt>
<pdfrwt beam="1">  1        2 0.25209339E+00 0.14608167E+04</pdfrwt>
<pdfrwt beam="2">  1       -2 0.43189077E-01 0.14608167E+04</pdfrwt>
<totfact> 0.52342134E+01</totfact>
</mgrwt>
</event>
<event>
 8    1  0.2654897E-009  0.1734672E+04  0.7818608E-02  0.8741833E-01
          2   -1    0    0  501    0  0.00000000000E+00  0.00000000000E+00  0.23324896755E+04  0.23324896755E+04  0.25500000000E-02 0.  1.
         -2   -1    0    0    0  501 -0.00000000000E+00 -0.00000000000E+00 -0.32251876885E+03  0.32251876886E+03  0.25500000000E-02 0. -1.
     200001    2    1    2    0    0 -0.61015212154E+02 -0.80985776280E+02  0.17729248054E+04  0.19090376633E+04  0.70062891901E+03 0.  0.
    5000001    2    3    3    0    0 -0.17689735119E+02 -0.19879045398E+02  0.49466961596E+03  0.53442955227E+03  0.20052135601E+03 0.  0.
        -11    1    4    4    0    0 -0.35838911524E+02 -0.97110274783E+02  0.36571069745E+03  0.38007781739E+03  0.51100000000E-03 0. -1.
     200002    1    4    4    0    0  0.18149176405E+02  0.77231229384E+02  0.12895891851E+03  0.15435173488E+03  0.30000000000E+02 0. -1.
     200000    1    3    3    0    0 -0.43325477035E+02 -0.61106730882E+02  0.12782551895E+04  0.13746081111E+04  0.50000000000E+03 0.  1.
    -200001    1    1    2    0    0  0.61015212154E+02  0.80985776280E+02  0.23704610122E+03  0.74597078105E+03  0.70000000000E+03 0. -1.
<mgrwt>
<rscale>  0 0.17346720E+04</rscale>
<asrwt>0</asrwt>
<pdfrwt beam="1">  1        2 0.33321280E+00 0.17346720E+04</pdfrwt>
<pdfrwt beam="2">  1       -2 0.46074111E-01 0.17346720E+04</pdfrwt>
<totfact> 0.22940270E+01</totfact>
</mgrwt>
</event>
<event>
 8    1  0.2654897E-009  0.1657724E+04  0.7818608E-02  0.8785850E-01
         -2   -1    0    0    0  501 -0.00000000000E+00  0.00000000000E+00  0.45840004222E+03  0.45840004223E+03  0.25500000000E-02 0. -1.
          2   -1    0    0  501    0  0.00000000000E+00 -0.00000000000E+00 -0.14987179817E+04  0.14987179817E+04  0.25500000000E-02 0.  1.
     200001    2    1    2    0    0 -0.23716037603E+02 -0.40409956895E+03 -0.30561927483E+03  0.86457921917E+03  0.70016796057E+03 0.  0.
    5000001    2    3    3    0    0  0.18520386385E+02 -0.13102752431E+03  0.21241537731E+02  0.20640732076E+03  0.15697631126E+03 0.  0.
        -11    1    4    4    0    0 -0.11562366993E+02 -0.10547502428E+03  0.77518781474E+02  0.13140711761E+03  0.51100000000E-03 0. -1.
     200002    1    4    4    0    0  0.30082753378E+02 -0.25552500035E+02 -0.56277243744E+02  0.75000203148E+02  0.30000000000E+02 0. -1.
     200000    1    3    3    0    0 -0.42236423989E+02 -0.27307204464E+03 -0.32686081256E+03  0.65817189841E+03  0.50000000000E+03 0. -1.
    -200001    1    1    2    0    0  0.23716037603E+02  0.40409956895E+03 -0.73469866466E+03  0.10925388048E+04  0.70000000000E+03 0.  1.
<mgrwt>
<rscale>  0 0.16577242E+04</rscale>
<asrwt>0</asrwt>
<pdfrwt beam="1">  1        2 0.21410257E+00 0.16577242E+04</pdfrwt>
<pdfrwt beam="2">  1       -2 0.65485721E-01 0.16577242E+04</pdfrwt>
<totfact> 0.30099586E+01</totfact>
</mgrwt>
</event>
<event>
 8    1  0.2654897E-009  0.3200739E+04  0.7818608E-02  0.8188622E-01
         -2   -1    0    0    0  501 -0.00000000000E+00  0.00000000000E+00  0.10216705181E+04  0.10216705181E+04  0.25500000000E-02 0. -1.
          2   -1    0    0  501    0  0.00000000000E+00 -0.00000000000E+00 -0.25068581128E+04  0.25068581128E+04  0.25500000000E-02 0.  1.
     200001    2    1    2    0    0  0.31443087657E+03 -0.33043865193E+03 -0.22473291610E+04  0.23976368387E+04  0.70008397621E+03 0.  0.
    5000001    2    3    3    0    0  0.12599039916E+03 -0.16672165347E+03 -0.52894939198E+03  0.59066641848E+03  0.15946682483E+03 0.  0.
        -11    1    4    4    0    0  0.29943511536E+01  0.25029789449E+02 -0.19746982530E+02  0.32021864687E+02  0.51100000000E-03 0. -1.
     200002    1    4    4    0    0  0.12299604801E+03 -0.19175144292E+03 -0.50920240945E+03  0.55864455379E+03  0.30000000000E+02 0. -1.
     200000    1    3    3    0    0  0.18844047741E+03 -0.16371699845E+03 -0.17183797690E+04  0.18069704202E+04  0.50000000000E+03 0.  1.
    -200001    1    1    2    0    0 -0.31443087657E+03  0.33043865193E+03  0.76214156622E+03  0.11308917923E+04  0.70000000000E+03 0. -1.
<mgrwt>
<rscale>  0 0.32007393E+04</rscale>
<asrwt>0</asrwt>
<pdfrwt beam="1">  1        2 0.35812259E+00 0.32007393E+04</pdfrwt>
<pdfrwt beam="2">  1       -2 0.14595293E+00 0.32007393E+04</pdfrwt>
<totfact> 0.11955145E+00</totfact>
</mgrwt>
</event>
<event>
 8    1  0.2654897E-009  0.1515521E+04  0.7818608E-02  0.8874197E-01
         -2   -1    0    0    0  501 -0.00000000000E+00  0.00000000000E+00  0.39419393842E+03  0.39419393843E+03  0.25500000000E-02 0. -1.
          2   -1    0    0  501    0  0.00000000000E+00 -0.00000000000E+00 -0.14566453855E+04  0.14566453855E+04  0.25500000000E-02 0.  1.
     200001    2    1    2    0    0  0.16935677843E+03  0.17327452256E+03 -0.33405309402E+03  0.81196014939E+03  0.69927250482E+03 0.  0.
    5000001    2    3    3    0    0  0.67235146780E+01  0.75936981123E+02 -0.12450042859E+02  0.18797882117E+03  0.17137503578E+03 0.  0.
        -11    1    4    4    0    0 -0.16272104338E+02  0.58787607283E+02 -0.84864377339E+02  0.10451184952E+03  0.51100000000E-03 0. -1.
     200002    1    4    4    0    0  0.22995619016E+02  0.17149373839E+02  0.72414334479E+02  0.83466971642E+02  0.30000000000E+02 0. -1.
     200000    1    3    3    0    0  0.16263326376E+03  0.97337541439E+02 -0.32160305116E+03  0.62398132822E+03  0.50000000000E+03 0.  1.
    -200001    1    1    2    0    0 -0.16935677843E+03 -0.17327452256E+03 -0.72839835306E+03  0.10388791746E+04  0.70000000000E+03 0. -1.
<mgrwt>
<rscale>  0 0.15155207E+04</rscale>
<asrwt>0</asrwt>
<pdfrwt beam="1">  1        2 0.20809220E+00 0.15155207E+04</pdfrwt>
<pdfrwt beam="2">  1       -2 0.56313420E-01 0.15155207E+04</pdfrwt>
<totfact> 0.44110328E+01</totfact>
</mgrwt>
</event>
<event>
 8    1  0.2654897E-009  0.1698076E+04  0.7818608E-02  0.8762463E-01
         -2   -1    0    0    0  501 -0.00000000000E+00  0.00000000000E+00  0.58566233310E+03  0.58566233311E+03  0.25500000000E-02 0. -1.
          2   -1    0    0  501    0  0.00000000000E+00 -0.00000000000E+00 -0.12308549983E+04  0.12308549983E+04  0.25500000000E-02 0.  1.
     200001    2    1    2    0    0  0.37274666039E+03 -0.20274581882E+03 -0.56409030585E+03  0.99394603810E+03  0.69977490211E+03 0.  0.
    5000001    2    3    3    0    0  0.63301039874E+02 -0.76743114740E+02 -0.22881218987E+03  0.30543700508E+03  0.17618234455E+03 0.  0.
        -11    1    4    4    0    0  0.40208203095E+02  0.14401964590E+02 -0.19724583445E+03  0.20181683624E+03  0.51100000000E-03 0. -1.
     200002    1    4    4    0    0  0.23092836778E+02 -0.91145079330E+02 -0.31566355415E+02  0.10362016884E+03  0.30000000000E+02 0. -1.
     200000    1    3    3    0    0  0.30944562052E+03 -0.12600270408E+03 -0.33527811598E+03  0.68850903302E+03  0.50000000000E+03 0.  1.
    -200001    1    1    2    0    0 -0.37274666039E+03  0.20274581882E+03 -0.81102359343E+02  0.82257129331E+03  0.70000000000E+03 0. -1.
<mgrwt>
<rscale>  0 0.16980759E+04</rscale>
<asrwt>0</asrwt>
<pdfrwt beam="1">  1        2 0.17583643E+00 0.16980759E+04</pdfrwt>
<pdfrwt beam="2">  1       -2 0.83666048E-01 0.16980759E+04</pdfrwt>
<totfact> 0.24466954E+01</totfact>
</mgrwt>
</event>
<event>
 8    1  0.2654897E-009  0.1835360E+04  0.7818608E-02  0.8687718E-01
         -2   -1    0    0    0  501 -0.00000000000E+00  0.00000000000E+00  0.45687283736E+03  0.45687283737E+03  0.25500000000E-02 0. -1.
          2   -1    0    0  501    0  0.00000000000E+00 -0.00000000000E+00 -0.18432634245E+04  0.18432634245E+04  0.25500000000E-02 0.  1.
     200001    2    1    2    0    0  0.70404339983E+02 -0.58932812573E+03 -0.68875040814E+03  0.11473282856E+04  0.69980044244E+03 0.  0.
    5000001    2    3    3    0    0 -0.51872285139E+02 -0.22274745071E+03 -0.12608359452E+03  0.30120364491E+03  0.15006465985E+03 0.  0.
        -11    1    4    4    0    0  0.17234324946E+02 -0.10969526913E+03  0.66899951351E+01  0.11124221349E+03  0.51100000000E-03 0. -1.
     200002    1    4    4    0    0 -0.69106610086E+02 -0.11305218158E+03 -0.13277358966E+03  0.18996143142E+03  0.30000000000E+02 0. -1.
     200000    1    3    3    0    0  0.12227662512E+03 -0.36658067502E+03 -0.56266681362E+03  0.84612464064E+03  0.50000000000E+03 0. -1.
    -200001    1    1    2    0    0 -0.70404339983E+02  0.58932812573E+03 -0.69764017895E+03  0.11528079763E+04  0.70000000000E+03 0.  1.
<mgrwt>
<rscale>  0 0.18353604E+04</rscale>
<asrwt>0</asrwt>
<pdfrwt beam="1">  1        2 0.26332334E+00 0.18353604E+04</pdfrwt>
<pdfrwt beam="2">  1       -2 0.65267549E-01 0.18353604E+04</pdfrwt>
<totfact> 0.19749231E+01</totfact>
</mgrwt>
</event>
<event>
 8    1  0.2654897E-009  0.3012789E+04  0.7818608E-02  0.8240088E-01
         -2   -1    0    0    0  501 -0.00000000000E+00  0.00000000000E+00  0.65397905836E+03  0.65397905836E+03  0.25500000000E-02 0. -1.
          2   -1    0    0  501    0  0.00000000000E+00 -0.00000000000E+00 -0.34698727673E+04  0.34698727673E+04  0.25500000000E-02 0.  1.
     200001    2    1    2    0    0 -0.85434757619E+03  0.63629958308E+03 -0.25070619574E+04  0.28123016012E+04  0.69920933746E+03 0.  0.
    5000001    2    3    3    0    0 -0.18073135406E+03  0.95054344204E+02 -0.71156719981E+03  0.75791443034E+03  0.16250308669E+03 0.  0.
        -11    1    4    4    0    0  0.17855144046E+02  0.22892912442E+02 -0.23015262948E+02  0.37048534894E+02  0.51100000000E-03 0. -1.
     200002    1    4    4    0    0 -0.19858649810E+03  0.72161431763E+02 -0.68855193687E+03  0.72086589545E+03  0.30000000000E+02 0. -1.
     200000    1    3    3    0    0 -0.67361622213E+03  0.54124523888E+03 -0.17954947576E+04  0.20543871709E+04  0.50000000000E+03 0.  1.
    -200001    1    1    2    0    0  0.85434757619E+03 -0.63629958308E+03 -0.30883175148E+03  0.13115502244E+04  0.70000000000E+03 0. -1.
<mgrwt>
<rscale>  0 0.30127888E+04</rscale>
<asrwt>0</asrwt>
<pdfrwt beam="1">  1        2 0.49569610E+00 0.30127888E+04</pdfrwt>
<pdfrwt beam="2">  1       -2 0.93425582E-01 0.30127888E+04</pdfrwt>
<totfact> 0.10456054E+00</totfact>
</mgrwt>
</event>
<event>
 8    1  0.2654897E-009  0.1462485E+04  0.7818608E-02  0.8909791E-01
         -2   -1    0    0    0  501 -0.00000000000E+00  0.00000000000E+00  0.32859104198E+03  0.32859104199E+03  0.25500000000E-02 0. -1.
          2   -1    0    0  501    0  0.00000000000E+00 -0.00000000000E+00 -0.16272970659E+04  0.16272970659E+04  0.25500000000E-02 0.  1.
     200001    2    1    2    0    0  0.24362298592E+02 -0.46861456364E+02 -0.92371822275E+03  0.11600204250E+04  0.69971602358E+03 0.  0.
    5000001    2    3    3    0    0 -0.82007845913E+02 -0.56915936434E+02 -0.28752442874E+03  0.34383524762E+03  0.15996146340E+03 0.  0.
        -11    1    4    4    0    0 -0.17355229103E+01 -0.65817726763E+02 -0.30135513432E+02  0.72409490857E+02  0.51100000000E-03 0. -1.
     200002    1    4    4    0    0 -0.80272323003E+02  0.89017903293E+01 -0.25738891531E+03  0.27142575676E+03  0.30000000000E+02 0. -1.
     200000    1    3    3    0    0  0.10637014450E+03  0.10054480070E+02 -0.63619379401E+03  0.81618517736E+03  0.50000000000E+03 0.  1.
    -200001    1    1    2    0    0 -0.24362298592E+02  0.46861456364E+02 -0.37498780120E+03  0.79586768293E+03  0.70000000000E+03 0. -1.
<mgrwt>
<rscale>  0 0.14624845E+04</rscale>
<asrwt>0</asrwt>
<pdfrwt beam="1">  1        2 0.23247100E+00 0.14624845E+04</pdfrwt>
<pdfrwt beam="2">  1       -2 0.46941578E-01 0.14624845E+04</pdfrwt>
<totfact> 0.52235583E+01</totfact>
</mgrwt>
</event>
<event>
 8    1  0.2654897E-009  0.2169550E+04  0.7818608E-02  0.8531210E-01
          2   -1    0    0  501    0  0.00000000000E+00  0.00000000000E+00  0.28382891494E+04  0.28382891494E+04  0.25500000000E-02 0.  1.
         -2   -1    0    0    0  501 -0.00000000000E+00 -0.00000000000E+00 -0.41459381169E+03  0.41459381170E+03  0.25500000000E-02 0. -1.
     200001    2    1    2    0    0  0.74445077796E+03 -0.21985259273E+03  0.16465231555E+04  0.19503704951E+04  0.70026026817E+03 0.  0.
    5000001    2    3    3    0    0  0.23088526416E+03 -0.16924632343E+03  0.45351365696E+03  0.55768165868E+03  0.15291132128E+03 0.  0.
        -11    1    4    4    0    0  0.11351524824E+03 -0.14541346005E+03  0.18070277614E+03  0.25823299412E+03  0.51100000000E-03 0. -1.
     200002    1    4    4    0    0  0.11737001593E+03 -0.23832863387E+02  0.27281088081E+03  0.29944866456E+03  0.30000000000E+02 0. -1.
     200000    1    3    3    0    0  0.51356551380E+03 -0.50606269301E+02  0.11930094985E+04  0.13926888364E+04  0.50000000000E+03 0.  1.
    -200001    1    1    2    0    0 -0.74445077796E+03  0.21985259273E+03  0.77717218222E+03  0.13025124660E+04  0.70000000000E+03 0. -1.
<mgrwt>
<rscale>  0 0.21695503E+04</rscale>
<asrwt>0</asrwt>
<pdfrwt beam="1">  1        2 0.40546989E+00 0.21695503E+04</pdfrwt>
<pdfrwt beam="2">  1       -2 0.59227686E-01 0.21695503E+04</pdfrwt>
<totfact> 0.71039145E+00</totfact>
</mgrwt>
</event>
<event>
 8    1  0.2654897E-009  0.1594820E+04  0.7818608E-02  0.8823737E-01
          2   -1    0    0  501    0  0.00000000000E+00  0.00000000000E+00  0.13964075376E+04  0.13964075376E+04  0.25500000000E-02 0.  1.
         -2   -1    0    0    0  501 -0.00000000000E+00 -0.00000000000E+00 -0.45535593556E+03  0.45535593557E+03  0.25500000000E-02 0. -1.
     200001    2    1    2    0    0  0.11738295745E+03  0.18169914800E+03  0.83583621447E+03  0.11115853751E+04  0.70014750560E+03 0.  0.
    5000001    2    3    3    0    0 -0.25035939041E+02  0.15379779592E+03  0.24449962780E+03  0.32371445529E+03  0.14398062472E+03 0.  0.
        -11    1    4    4    0    0 -0.50374817033E+02 -0.27960466118E+01  0.65240957719E+02  0.82473163102E+02  0.51100000000E-03 0. -1.
     200002    1    4    4    0    0  0.25338877992E+02  0.15659384253E+03  0.17925867008E+03  0.24124129219E+03  0.30000000000E+02 0. -1.
     200000    1    3    3    0    0  0.14241889649E+03  0.27901352086E+02  0.59133658667E+03  0.78787091980E+03  0.50000000000E+03 0.  1.
    -200001    1    1    2    0    0 -0.11738295745E+03 -0.18169914800E+03  0.10521538755E+03  0.74017809807E+03  0.70000000000E+03 0. -1.
<mgrwt>
<rscale>  0 0.15948197E+04</rscale>
<asrwt>0</asrwt>
<pdfrwt beam="1">  1        2 0.19948679E+00 0.15948197E+04</pdfrwt>
<pdfrwt beam="2">  1       -2 0.65050847E-01 0.15948197E+04</pdfrwt>
<totfact> 0.34819952E+01</totfact>
</mgrwt>
</event>
<event>
 8    1  0.2654897E-009  0.1728226E+04  0.7818608E-02  0.8745428E-01
         -2   -1    0    0    0  501 -0.00000000000E+00  0.00000000000E+00  0.94876180842E+03  0.94876180843E+03  0.25500000000E-02 0. -1.
          2   -1    0    0  501    0  0.00000000000E+00 -0.00000000000E+00 -0.78701660968E+03  0.78701660969E+03  0.25500000000E-02 0.  1.
     200001    2    1    2    0    0  0.12758800256E+03 -0.28481266412E+03  0.48159009685E+03  0.90529800842E+03  0.70017034400E+03 0.  0.
    5000001    2    3    3    0    0  0.52470630649E+02 -0.50907512807E+02  0.78946160050E+02  0.21792883598E+03  0.18951448342E+03 0.  0.
        -11    1    4    4    0    0  0.61320053279E+02 -0.13529407416E+02  0.13182362387E+03  0.14601596354E+03  0.51100000000E-03 0. -1.
     200002    1    4    4    0    0 -0.88494226295E+01 -0.37378105392E+02 -0.52877463815E+02  0.71912872443E+02  0.30000000000E+02 0. -1.
     200000    1    3    3    0    0  0.75117371916E+02 -0.23390515131E+03  0.40264393680E+03  0.68736917244E+03  0.50000000000E+03 0. -1.
    -200001    1    1    2    0    0 -0.12758800256E+03  0.28481266412E+03 -0.31984489811E+03  0.83048040970E+03  0.70000000000E+03 0.  1.
<mgrwt>
<rscale>  0 0.17282260E+04</rscale>
<asrwt>0</asrwt>
<pdfrwt beam="1">  1        2 0.11243094E+00 0.17282260E+04</pdfrwt>
<pdfrwt beam="2">  1       -2 0.13553740E+00 0.17282260E+04</pdfrwt>
<totfact> 0.14431943E+01</totfact>
</mgrwt>
</event>
<event>
 8    1  0.2654897E-009  0.2689025E+04  0.7818608E-02  0.8338575E-01
          2   -1    0    0  501    0  0.00000000000E+00  0.00000000000E+00  0.22114806172E+04  0.22114806172E+04  0.25500000000E-02 0. -1.
         -2   -1    0    0    0  501 -0.00000000000E+00 -0.00000000000E+00 -0.81742241891E+03  0.81742241891E+03  0.25500000000E-02 0.  1.
     200001    2    1    2    0    0 -0.24367044862E+03  0.21312222087E+03  0.19378156193E+04  0.20852566503E+04  0.69883442587E+03 0.  0.
    5000001    2    3    3    0    0 -0.33518489905E+02  0.12092773018E+03  0.65138254244E+03  0.68612344327E+03  0.17526881557E+03 0.  0.
        -11    1    4    4    0    0 -0.77613528940E+02  0.64719786425E+02  0.16411376600E+03  0.19273255776E+03  0.51100000000E-03 0. -1.
     200002    1    4    4    0    0  0.44095039035E+02  0.56207943759E+02  0.48726877644E+03  0.49339088551E+03  0.30000000000E+02 0. -1.
     200000    1    3    3    0    0 -0.21015195872E+03  0.92194490683E+02  0.12864330768E+04  0.13991332070E+04  0.50000000000E+03 0. -1.
    -200001    1    1    2    0    0  0.24367044862E+03 -0.21312222087E+03 -0.54375742099E+03  0.94364638580E+03  0.70000000000E+03 0.  1.
<mgrwt>
<rscale>  0 0.26890250E+04</rscale>
<asrwt>0</asrwt>
<pdfrwt beam="1">  1        2 0.31592580E+00 0.26890250E+04</pdfrwt>
<pdfrwt beam="2">  1       -2 0.11677463E+00 0.26890250E+04</pdfrwt>
<totfact> 0.31319483E+00</totfact>
</mgrwt>
</event>
<event>
 8    1  0.2654897E-009  0.1876525E+04  0.7818608E-02  0.8666630E-01
         -2   -1    0    0    0  501 -0.00000000000E+00  0.00000000000E+00  0.10151454038E+04  0.10151454038E+04  0.25500000000E-02 0. -1.
          2   -1    0    0  501    0  0.00000000000E+00 -0.00000000000E+00 -0.86720248306E+03  0.86720248306E+03  0.25500000000E-02 0.  1.
     200001    2    1    2    0    0  0.20890174901E+03 -0.58136886817E+03 -0.16193744997E+02  0.93441827629E+03  0.70088913251E+03 0.  0.
    5000001    2    3    3    0    0  0.16658629920E+03 -0.19798531811E+03 -0.55164265081E+02  0.30173174634E+03  0.14508538637E+03 0.  0.
        -11    1    4    4    0    0  0.10368362234E+03 -0.16782681865E+03  0.15661696249E+02  0.19789245395E+03  0.51100000000E-03 0. -1.
     200002    1    4    4    0    0  0.62902676857E+02 -0.30158499459E+02 -0.70825961330E+02  0.10383929239E+03  0.30000000000E+02 0. -1.
     200000    1    3    3    0    0  0.42315449815E+02 -0.38338355006E+03  0.38970520084E+02  0.63268652995E+03  0.50000000000E+03 0.  1.
    -200001    1    1    2    0    0 -0.20890174901E+03  0.58136886817E+03  0.16413666578E+03  0.94792961061E+03  0.70000000000E+03 0. -1.
<mgrwt>
<rscale>  0 0.18765251E+04</rscale>
<asrwt>0</asrwt>
<pdfrwt beam="1">  1        2 0.12388607E+00 0.18765251E+04</pdfrwt>
<pdfrwt beam="2">  1       -2 0.14502077E+00 0.18765251E+04</pdfrwt>
<totfact> 0.10540118E+01</totfact>
</mgrwt>
</event>
<event>
 8    1  0.2654897E-009  0.1617744E+04  0.7818608E-02  0.8809721E-01
         -2   -1    0    0    0  501 -0.00000000000E+00  0.00000000000E+00  0.61360470285E+03  0.61360470285E+03  0.25500000000E-02 0. -1.
          2   -1    0    0  501    0  0.00000000000E+00 -0.00000000000E+00 -0.10662791153E+04  0.10662791153E+04  0.25500000000E-02 0.  1.
     200001    2    1    2    0    0  0.25614352896E+03  0.31318890938E+03 -0.20100332630E+03  0.83310454584E+03  0.69997431862E+03 0.  0.
    5000001    2    3    3    0    0  0.12000976275E+03  0.10024153376E+03 -0.78692870916E+02  0.25965983658E+03  0.19178100676E+03 0.  0.
        -11    1    4    4    0    0  0.98314186592E+02  0.34698743991E+02 -0.13142102045E+03  0.16775329128E+03  0.51100000000E-03 0. -1.
     200002    1    4    4    0    0  0.21695576156E+02  0.65542789772E+02  0.52728149529E+02  0.91906545298E+02  0.30000000000E+02 0. -1.
     200000    1    3    3    0    0  0.13613376622E+03  0.21294737561E+03 -0.12231045539E+03  0.57344470926E+03  0.50000000000E+03 0.  1.
    -200001    1    1    2    0    0 -0.25614352896E+03 -0.31318890938E+03 -0.25167108612E+03  0.84677927229E+03  0.70000000000E+03 0. -1.
<mgrwt>
<rscale>  0 0.16177440E+04</rscale>
<asrwt>0</asrwt>
<pdfrwt beam="1">  1        2 0.15232559E+00 0.16177440E+04</pdfrwt>
<pdfrwt beam="2">  1       -2 0.87657815E-01 0.16177440E+04</pdfrwt>
<totfact> 0.27588949E+01</totfact>
</mgrwt>
</event>
<event>
 8    1  0.2654897E-009  0.1734641E+04  0.7818608E-02  0.8741850E-01
         -2   -1    0    0    0  501 -0.00000000000E+00  0.00000000000E+00  0.81809562402E+03  0.81809562403E+03  0.25500000000E-02 0. -1.
          2   -1    0    0  501    0  0.00000000000E+00 -0.00000000000E+00 -0.91950764847E+03  0.91950764847E+03  0.25500000000E-02 0.  1.
     200001    2    1    2    0    0  0.36097561570E+01  0.23131990262E+03  0.40664312317E+03  0.84225866806E+03  0.70037069228E+03 0.  0.
    5000001    2    3    3    0    0  0.10110707800E+03  0.43720780079E+02  0.40802410299E+02  0.18763008196E+03  0.14630811029E+03 0.  0.
        -11    1    4    4    0    0  0.54742151127E+02  0.92886695212E+02  0.35456149566E+02  0.11349792861E+03  0.51100000000E-03 0. -1.
     200002    1    4    4    0    0  0.46364926878E+02 -0.49165915133E+02  0.53462607328E+01  0.74132153342E+02  0.30000000000E+02 0. -1.
     200000    1    3    3    0    0 -0.97497321848E+02  0.18759912254E+03  0.36584071287E+03  0.65462858610E+03  0.50000000000E+03 0. -1.
    -200001    1    1    2    0    0 -0.36097561570E+01 -0.23131990262E+03 -0.50805514761E+03  0.89534460444E+03  0.70000000000E+03 0.  1.
<mgrwt>
<rscale>  0 0.17346414E+04</rscale>
<asrwt>0</asrwt>
<pdfrwt beam="1">  1        2 0.13135824E+00 0.17346414E+04</pdfrwt>
<pdfrwt beam="2">  1       -2 0.11687080E+00 0.17346414E+04</pdfrwt>
<totfact> 0.17036469E+01</totfact>
</mgrwt>
</event>
<event>
 8    1  0.2654897E-009  0.1945893E+04  0.7818608E-02  0.8632344E-01
          2   -1    0    0  501    0  0.00000000000E+00  0.00000000000E+00  0.34052089419E+04  0.34052089419E+04  0.25500000000E-02 0.  1.
         -2   -1    0    0    0  501 -0.00000000000E+00 -0.00000000000E+00 -0.27799329787E+03  0.27799329788E+03  0.25500000000E-02 0. -1.
     200001    2    1    2    0    0 -0.25236868127E+03 -0.62729390571E+03  0.16047585263E+04  0.18762536321E+04  0.69849135204E+03 0.  0.
    5000001    2    3    3    0    0 -0.13595945797E+03 -0.18770775537E+03  0.41926188615E+03  0.51163303480E+03  0.17963478916E+03 0.  0.
        -11    1    4    4    0    0 -0.45225436063E+02  0.29800866566E+02  0.59023939252E+02  0.80107784392E+02  0.51100000000E-03 0. -1.
     200002    1    4    4    0    0 -0.90734021907E+02 -0.21750862194E+03  0.36023794690E+03  0.43152525040E+03  0.30000000000E+02 0. -1.
     200000    1    3    3    0    0 -0.11640922330E+03 -0.43958615034E+03  0.11854966401E+04  0.13646205973E+04  0.50000000000E+03 0.  1.
    -200001    1    1    2    0    0  0.25236868127E+03  0.62729390571E+03  0.15224571178E+04  0.18069486077E+04  0.70000000000E+03 0. -1.
<mgrwt>
<rscale>  0 0.19458934E+04</rscale>
<asrwt>0</asrwt>
<pdfrwt beam="1">  1        2 0.48645841E+00 0.19458934E+04</pdfrwt>
<pdfrwt beam="2">  1       -2 0.39713329E-01 0.19458934E+04</pdfrwt>
<totfact> 0.77323188E+00</totfact>
</mgrwt>
</event>
<event>
 8    1  0.2654897E-009  0.2699767E+04  0.7818608E-02  0.8335081E-01
          2   -1    0    0  501    0  0.00000000000E+00  0.00000000000E+00  0.13967829259E+04  0.13967829259E+04  0.25500000000E-02 0.  1.
         -2   -1    0    0    0  501 -0.00000000000E+00 -0.00000000000E+00 -0.13045586409E+04  0.13045586409E+04  0.25500000000E-02 0. -1.
     200001    2    1    2    0    0 -0.10374833931E+04  0.18413184599E+03 -0.42525871180E+03  0.13345698303E+04  0.69996809374E+03 0.  0.
    5000001    2    3    3    0    0 -0.33585448111E+03  0.49855857161E+01 -0.18806176093E+03  0.42317589447E+03  0.17574846569E+03 0.  0.
        -11    1    4    4    0    0 -0.26111107571E+03 -0.30787452287E+02 -0.63307006723E+02  0.27043416607E+03  0.51100000000E-03 0. -1.
     200002    1    4    4    0    0 -0.74743405398E+02  0.35773038003E+02 -0.12475475421E+03  0.15274172840E+03  0.30000000000E+02 0. -1.
     200000    1    3    3    0    0 -0.70162891202E+03  0.17914626028E+03 -0.23719695086E+03  0.91139393582E+03  0.50000000000E+03 0. -1.
    -200001    1    1    2    0    0  0.10374833931E+04 -0.18413184599E+03  0.51748299682E+03  0.13667717365E+04  0.70000000000E+03 0.  1.
<mgrwt>
<rscale>  0 0.26997668E+04</rscale>
<asrwt>0</asrwt>
<pdfrwt beam="1">  1        2 0.19954042E+00 0.26997668E+04</pdfrwt>
<pdfrwt beam="2">  1       -2 0.18636552E+00 0.26997668E+04</pdfrwt>
<totfact> 0.24062120E+00</totfact>
</mgrwt>
</event>
<event>
 8    1  0.2654897E-009  0.1631657E+04  0.7818608E-02  0.8801332E-01
         -2   -1    0    0    0  501 -0.00000000000E+00  0.00000000000E+00  0.77889927651E+03  0.77889927651E+03  0.25500000000E-02 0. -1.
          2   -1    0    0  501    0  0.00000000000E+00 -0.00000000000E+00 -0.85450887336E+03  0.85450887337E+03  0.25500000000E-02 0.  1.
     200001    2    1    2    0    0 -0.82404406774E+02  0.30557675554E+03  0.23844495112E+03  0.80346965885E+03  0.69895626344E+03 0.  0.
    5000001    2    3    3    0    0 -0.74641763420E+01  0.49413702473E+02 -0.42406384753E+02  0.17092478237E+03  0.15785927860E+03 0.  0.
        -11    1    4    4    0    0  0.38703822303E+02  0.46126377932E+02  0.39619570860E+02  0.72078700026E+02  0.51100000000E-03 0. -1.
     200002    1    4    4    0    0 -0.46167998645E+02  0.32873245410E+01 -0.82025955613E+02  0.98846082349E+02  0.30000000000E+02 0. -1.
     200000    1    3    3    0    0 -0.74940230432E+02  0.25616305306E+03  0.28085133588E+03  0.63254487648E+03  0.50000000000E+03 0. -1.
    -200001    1    1    2    0    0  0.82404406774E+02 -0.30557675554E+03 -0.31405454798E+03  0.82993849103E+03  0.70000000000E+03 0.  1.
<mgrwt>
<rscale>  0 0.16316572E+04</rscale>
<asrwt>0</asrwt>
<pdfrwt beam="1">  1        2 0.12207270E+00 0.16316572E+04</pdfrwt>
<pdfrwt beam="2">  1       -2 0.11127133E+00 0.16316572E+04</pdfrwt>
<totfact> 0.21364290E+01</totfact>
</mgrwt>
</event>
<event>
 8    1  0.2654897E-009  0.1795410E+04  0.7818608E-02  0.8708744E-01
          2   -1    0    0  501    0  0.00000000000E+00  0.00000000000E+00  0.20098153122E+04  0.20098153122E+04  0.25500000000E-02 0.  1.
         -2   -1    0    0    0  501 -0.00000000000E+00 -0.00000000000E+00 -0.40096944244E+03  0.40096944244E+03  0.25500000000E-02 0. -1.
     200001    2    1    2    0    0 -0.41598345988E+02 -0.53520888627E+03  0.57968743865E+03  0.10552973697E+04  0.69959705381E+03 0.  0.
    5000001    2    3    3    0    0 -0.89567953468E+02 -0.29314272131E+03  0.17468813528E+03  0.36615185012E+03  0.97959988771E+02 0.  0.
        -11    1    4    4    0    0  0.30633537144E+01  0.95810031977E+00 -0.65060241042E+01  0.72546841494E+01  0.51100000000E-03 0. -1.
     200002    1    4    4    0    0 -0.92631307182E+02 -0.29410082162E+03  0.18119415938E+03  0.35889716597E+03  0.30000000000E+02 0. -1.
     200000    1    3    3    0    0  0.47969607480E+02 -0.24206616497E+03  0.40499930338E+03  0.68914551961E+03  0.50000000000E+03 0.  1.
    -200001    1    1    2    0    0  0.41598345988E+02  0.53520888627E+03  0.10291584311E+04  0.13554873849E+04  0.70000000000E+03 0. -1.
<mgrwt>
<rscale>  0 0.17954103E+04</rscale>
<asrwt>0</asrwt>
<pdfrwt beam="1">  1        2 0.28711647E+00 0.17954103E+04</pdfrwt>
<pdfrwt beam="2">  1       -2 0.57281349E-01 0.17954103E+04</pdfrwt>
<totfact> 0.21446268E+01</totfact>
</mgrwt>
</event>
<event>
 8    1  0.2654897E-009  0.1529097E+04  0.7818608E-02  0.8865331E-01
         -2   -1    0    0    0  501 -0.00000000000E+00  0.00000000000E+00  0.15961004275E+03  0.15961004277E+03  0.25500000000E-02 0. -1.
          2   -1    0    0  501    0  0.00000000000E+00 -0.00000000000E+00 -0.36622652088E+04  0.36622652088E+04  0.25500000000E-02 0.  1.
     200001    2    1    2    0    0 -0.26211580905E+03 -0.15229508467E+03 -0.18713613517E+04  0.20210371137E+04  0.70049926199E+03 0.  0.
    5000001    2    3    3    0    0  0.34104062966E+02 -0.83842098751E+00 -0.32355359188E+03  0.36079791558E+03  0.15596287701E+03 0.  0.
        -11    1    4    4    0    0  0.42564862560E+02  0.16055460288E+02 -0.32211830446E+03  0.32531484350E+03  0.51100000000E-03 0. -1.
     200002    1    4    4    0    0 -0.84607995944E+01 -0.16893881276E+02 -0.14352874212E+01  0.35483072081E+02  0.30000000000E+02 0. -1.
     200000    1    3    3    0    0 -0.29621987202E+03 -0.15145666368E+03 -0.15478077599E+04  0.16602391981E+04  0.50000000000E+03 0. -1.
    -200001    1    1    2    0    0  0.26211580905E+03  0.15229508467E+03 -0.16312938143E+04  0.18008381378E+04  0.70000000000E+03 0. -1.
<mgrwt>
<rscale>  0 0.15290969E+04</rscale>
<asrwt>0</asrwt>
<pdfrwt beam="1">  1        2 0.52318069E+00 0.15290969E+04</pdfrwt>
<pdfrwt beam="2">  1       -2 0.22801437E-01 0.15290969E+04</pdfrwt>
<totfact> 0.15759469E+01</totfact>
</mgrwt>
</event>
<event>
 8    1  0.2654897E-009  0.1505265E+04  0.7818608E-02  0.8880959E-01
          2   -1    0    0  501    0  0.00000000000E+00  0.00000000000E+00  0.30417261768E+04  0.30417261768E+04  0.25500000000E-02 0.  1.
         -2   -1    0    0    0  501 -0.00000000000E+00 -0.00000000000E+00 -0.18622831536E+03  0.18622831538E+03  0.25500000000E-02 0. -1.
     200001    2    1    2    0    0  0.12956056635E+01  0.20198469566E+03  0.18360082369E+04  0.19748948007E+04  0.69891611229E+03 0.  0.
    5000001    2    3    3    0    0  0.85356160819E+02  0.27044026063E+01  0.22841620876E+03  0.27750535185E+03  0.13244722685E+03 0.  0.
        -11    1    4    4    0    0  0.68259755973E+02 -0.26828051578E+02  0.21919909956E+03  0.23114364340E+03  0.51100000000E-03 0. -1.
     200002    1    4    4    0    0  0.17096404846E+02  0.29532454184E+02  0.92171091991E+01  0.46361708454E+02  0.30000000000E+02 0.  1.
     200000    1    3    3    0    0 -0.84060555156E+02  0.19928029306E+03  0.16075920281E+04  0.16973894488E+04  0.50000000000E+03 0.  1.
    -200001    1    1    2    0    0 -0.12956056635E+01 -0.20198469566E+03  0.10194896246E+04  0.12530596915E+04  0.70000000000E+03 0. -1.
<mgrwt>
<rscale>  0 0.15052648E+04</rscale>
<asrwt>0</asrwt>
<pdfrwt beam="1">  1        2 0.43453232E+00 0.15052648E+04</pdfrwt>
<pdfrwt beam="2">  1       -2 0.26604045E-01 0.15052648E+04</pdfrwt>
<totfact> 0.27826448E+01</totfact>
</mgrwt>
</event>
<event>
 8    1  0.2654897E-009  0.1652168E+04  0.7818608E-02  0.8789125E-01
          2   -1    0    0  501    0  0.00000000000E+00  0.00000000000E+00  0.11562779181E+04  0.11562779181E+04  0.25500000000E-02 0.  1.
         -2   -1    0    0    0  501 -0.00000000000E+00 -0.00000000000E+00 -0.59018236282E+03  0.59018236282E+03  0.25500000000E-02 0. -1.
     200001    2    1    2    0    0  0.13866019732E+03 -0.28598157588E+03 -0.36072052531E+02  0.76992664609E+03  0.70033830062E+03 0.  0.
    5000001    2    3    3    0    0  0.28590662297E+02 -0.14064576737E+03  0.72385908786E+01  0.23596633707E+03  0.18716051181E+03 0.  0.
        -11    1    4    4    0    0  0.83149413101E+02 -0.87397251370E+02 -0.55489649397E+02  0.13278255020E+03  0.51100000000E-03 0. -1.
     200002    1    4    4    0    0 -0.54558750804E+02 -0.53248516001E+02  0.62728240276E+02  0.10318378687E+03  0.30000000000E+02 0. -1.
     200000    1    3    3    0    0  0.11006953502E+03 -0.14533580851E+03 -0.43310643409E+02  0.53396030902E+03  0.50000000000E+03 0.  1.
    -200001    1    1    2    0    0 -0.13866019732E+03  0.28598157588E+03  0.60216760781E+03  0.97653363483E+03  0.70000000000E+03 0.  1.
<mgrwt>
<rscale>  0 0.16521681E+04</rscale>
<asrwt>0</asrwt>
<pdfrwt beam="1">  1        2 0.16518256E+00 0.16521681E+04</pdfrwt>
<pdfrwt beam="2">  1       -2 0.84311766E-01 0.16521681E+04</pdfrwt>
<totfact> 0.26617753E+01</totfact>
</mgrwt>
</event>
<event>
 8    1  0.2654897E-009  0.1797149E+04  0.7818608E-02  0.8707817E-01
         -2   -1    0    0    0  501 -0.00000000000E+00  0.00000000000E+00  0.15005591852E+04  0.15005591852E+04  0.25500000000E-02 0. -1.
          2   -1    0    0  501    0  0.00000000000E+00 -0.00000000000E+00 -0.53809027924E+03  0.53809027925E+03  0.25500000000E-02 0.  1.
     200001    2    1    2    0    0 -0.20652569486E+03  0.46282544811E+03  0.20053460254E+03  0.88651920239E+03  0.69917230447E+03 0.  0.
    5000001    2    3    3    0    0 -0.45965942642E+02 -0.22046140741E+02  0.84688067243E+01  0.14640491282E+03  0.13698093884E+03 0.  0.
        -11    1    4    4    0    0 -0.35285699740E+02 -0.70578890706E+02 -0.20504523427E+02  0.81528497476E+02  0.51100000000E-03 0. -1.
     200002    1    4    4    0    0 -0.10680242902E+02  0.48532749965E+02  0.28973330151E+02  0.64876415342E+02  0.30000000000E+02 0. -1.
     200000    1    3    3    0    0 -0.16055975222E+03  0.48487158885E+03  0.19206579581E+03  0.74011428957E+03  0.50000000000E+03 0. -1.
    -200001    1    1    2    0    0  0.20652569486E+03 -0.46282544811E+03  0.76193430345E+03  0.11521302621E+04  0.70000000000E+03 0.  1.
<mgrwt>
<rscale>  0 0.17971492E+04</rscale>
<asrwt>0</asrwt>
<pdfrwt beam="1">  1        2 0.76870040E-01 0.17971492E+04</pdfrwt>
<pdfrwt beam="2">  1       -2 0.21436560E+00 0.17971492E+04</pdfrwt>
<totfact> 0.62654461E+00</totfact>
</mgrwt>
</event>
<event>
 8    1  0.2654897E-009  0.1790843E+04  0.7818608E-02  0.8711184E-01
         -2   -1    0    0    0  501 -0.00000000000E+00  0.00000000000E+00  0.55759135558E+03  0.55759135558E+03  0.25500000000E-02 0. -1.
          2   -1    0    0  501    0  0.00000000000E+00 -0.00000000000E+00 -0.14379339013E+04  0.14379339013E+04  0.25500000000E-02 0.  1.
     200001    2    1    2    0    0  0.80271576810E+02  0.10199381749E+03 -0.10444903663E+04  0.12649153939E+04  0.70157292108E+03 0.  0.
    5000001    2    3    3    0    0 -0.89414672040E+02  0.11590276902E+02 -0.25265532293E+03  0.30889815603E+03  0.15314712044E+03 0.  0.
        -11    1    4    4    0    0  0.56303044232E+01 -0.58772496152E+01 -0.18938362071E+03  0.18955842947E+03  0.51100000000E-03 0. -1.
     200002    1    4    4    0    0 -0.95044976463E+02  0.17467526517E+02 -0.63271702228E+02  0.11933972656E+03  0.30000000000E+02 0. -1.
     200000    1    3    3    0    0  0.16968624885E+03  0.90403540584E+02 -0.79183504338E+03  0.95601723788E+03  0.50000000000E+03 0.  1.
    -200001    1    1    2    0    0 -0.80271576810E+02 -0.10199381749E+03  0.16414782060E+03  0.73060986296E+03  0.70000000000E+03 0. -1.
<mgrwt>
<rscale>  0 0.17908428E+04</rscale>
<asrwt>0</asrwt>
<pdfrwt beam="1">  1        2 0.20541913E+00 0.17908428E+04</pdfrwt>
<pdfrwt beam="2">  1       -2 0.79655909E-01 0.17908428E+04</pdfrwt>
<totfact> 0.20875684E+01</totfact>
</mgrwt>
</event>
<event>
 8    1  0.2654897E-009  0.1809257E+04  0.7818608E-02  0.8701392E-01
          2   -1    0    0  501    0  0.00000000000E+00  0.00000000000E+00  0.14942012455E+04  0.14942012455E+04  0.25500000000E-02 0. -1.
         -2   -1    0    0    0  501 -0.00000000000E+00 -0.00000000000E+00 -0.54768577683E+03  0.54768577684E+03  0.25500000000E-02 0.  1.
     200001    2    1    2    0    0  0.41360680821E+03 -0.36830483879E+03  0.30517901716E+03  0.94278216377E+03  0.69927457392E+03 0.  0.
    5000001    2    3    3    0    0  0.81306597550E+00 -0.16371637699E+03  0.19792534690E+02  0.20542163003E+03  0.12248505413E+03 0.  0.
        -11    1    4    4    0    0 -0.46407617197E+02 -0.13248438235E+03  0.14801563916E+02  0.14115546321E+03  0.51100000000E-03 0. -1.
     200002    1    4    4    0    0  0.47220683173E+02 -0.31231994639E+02  0.49909707742E+01  0.64266166820E+02  0.30000000000E+02 0. -1.
     200000    1    3    3    0    0  0.41279374224E+03 -0.20458846180E+03  0.28538648247E+03  0.73736053374E+03  0.50000000000E+03 0. -1.
    -200001    1    1    2    0    0 -0.41360680821E+03  0.36830483879E+03  0.64133645147E+03  0.10991048585E+04  0.70000000000E+03 0. -1.
<mgrwt>
<rscale>  0 0.18092571E+04</rscale>
<asrwt>0</asrwt>
<pdfrwt beam="1">  1        2 0.21345732E+00 0.18092571E+04</pdfrwt>
<pdfrwt beam="2">  1       -2 0.78240826E-01 0.18092571E+04</pdfrwt>
<totfact> 0.20245382E+01</totfact>
</mgrwt>
</event>
<event>
 8    1  0.2654897E-009  0.1647663E+04  0.7818608E-02  0.8791790E-01
         -2   -1    0    0    0  501 -0.00000000000E+00  0.00000000000E+00  0.75827089083E+03  0.75827089083E+03  0.25500000000E-02 0.  1.
          2   -1    0    0  501    0  0.00000000000E+00 -0.00000000000E+00 -0.89506081873E+03  0.89506081873E+03  0.25500000000E-02 0. -1.
     200001    2    1    2    0    0  0.11484143778E+03 -0.33855539917E+03 -0.31563825451E+03  0.84723305675E+03  0.70026282966E+03 0.  0.
    5000001    2    3    3    0    0  0.38775692954E+02 -0.74638128891E+02 -0.89576721291E+02  0.23360276098E+03  0.19867525335E+03 0.  0.
        -11    1    4    4    0    0 -0.37692414865E+00  0.64880190531E+02 -0.10202649627E+02  0.65678575311E+02  0.51100000000E-03 0. -1.
     200002    1    4    4    0    0  0.39152617102E+02 -0.13951831942E+03 -0.79374071663E+02  0.16792418567E+03  0.30000000000E+02 0. -1.
     200000    1    3    3    0    0  0.76065744823E+02 -0.26391727028E+03 -0.22606153322E+03  0.61363029577E+03  0.50000000000E+03 0.  1.
    -200001    1    1    2    0    0 -0.11484143778E+03  0.33855539917E+03  0.17884832662E+03  0.80609865281E+03  0.70000000000E+03 0. -1.
<mgrwt>
<rscale>  0 0.16476633E+04</rscale>
<asrwt>0</asrwt>
<pdfrwt beam="1">  1        2 0.12786583E+00 0.16476633E+04</pdfrwt>
<pdfrwt beam="2">  1       -2 0.10832441E+00 0.16476633E+04</pdfrwt>
<totfact> 0.21400750E+01</totfact>
</mgrwt>
</event>
<event>
 8    1  0.2654897E-009  0.1941233E+04  0.7818608E-02  0.8634600E-01
         -2   -1    0    0    0  501 -0.00000000000E+00  0.00000000000E+00  0.21887829470E+03  0.21887829471E+03  0.25500000000E-02 0. -1.
          2   -1    0    0  501    0  0.00000000000E+00 -0.00000000000E+00 -0.43042034892E+04  0.43042034892E+04  0.25500000000E-02 0.  1.
     200001    2    1    2    0    0 -0.51557660756E+03 -0.16595569771E+03 -0.29726476408E+04  0.31013181361E+04  0.69869854208E+03 0.  0.
    5000001    2    3    3    0    0 -0.19948659494E+03 -0.11159597771E+03 -0.61736707567E+03  0.67228243936E+03  0.13628282488E+03 0.  0.
        -11    1    4    4    0    0 -0.16072376265E+03 -0.10163972510E+03 -0.33234138074E+03  0.38290149510E+03  0.51100000000E-03 0. -1.
     200002    1    4    4    0    0 -0.38762832287E+02 -0.99562526124E+01 -0.28502569493E+03  0.28938094427E+03  0.30000000000E+02 0. -1.
     200000    1    3    3    0    0 -0.31609001263E+03 -0.54359719997E+02 -0.23552805652E+04  0.24290356967E+04  0.50000000000E+03 0.  1.
    -200001    1    1    2    0    0  0.51557660756E+03  0.16595569771E+03 -0.11126775536E+04  0.14217636478E+04  0.70000000000E+03 0. -1.
<mgrwt>
<rscale>  0 0.19412333E+04</rscale>
<asrwt>0</asrwt>
<pdfrwt beam="1">  1        2 0.61488616E+00 0.19412333E+04</pdfrwt>
<pdfrwt beam="2">  1       -2 0.31268330E-01 0.19412333E+04</pdfrwt>
<totfact> 0.30913714E+00</totfact>
</mgrwt>
</event>
<event>
 8    1  0.2654897E-009  0.1573970E+04  0.7818608E-02  0.8836701E-01
         -2   -1    0    0    0  501 -0.00000000000E+00  0.00000000000E+00  0.13690368804E+04  0.13690368804E+04  0.25500000000E-02 0. -1.
          2   -1    0    0  501    0  0.00000000000E+00 -0.00000000000E+00 -0.45239498283E+03  0.45239498283E+03  0.25500000000E-02 0.  1.
     200001    2    1    2    0    0 -0.21699938727E+03 -0.27831036304E+03  0.55799124023E+03  0.95935548246E+03  0.69603399723E+03 0.  0.
    5000001    2    3    3    0    0  0.25129669030E+02  0.49735651225E+02  0.56205114446E+02  0.14202447032E+03  0.11792709617E+03 0.  0.
        -11    1    4    4    0    0 -0.32714386640E+02  0.50542492109E+02  0.75059482614E+01  0.60672183588E+02  0.51100000000E-03 0. -1.
     200002    1    4    4    0    0  0.57844055670E+02 -0.80684088376E+00  0.48699166185E+02  0.81352286727E+02  0.30000000000E+02 0. -1.
     200000    1    3    3    0    0 -0.24212905630E+03 -0.32804601426E+03  0.50178612579E+03  0.81733101214E+03  0.50000000000E+03 0.  1.
    -200001    1    1    2    0    0  0.21699938727E+03  0.27831036304E+03  0.35865065730E+03  0.86207638074E+03  0.70000000000E+03 0. -1.
<mgrwt>
<rscale>  0 0.15739700E+04</rscale>
<asrwt>0</asrwt>
<pdfrwt beam="1">  1        2 0.64627855E-01 0.15739700E+04</pdfrwt>
<pdfrwt beam="2">  1       -2 0.19557670E+00 0.15739700E+04</pdfrwt>
<totfact> 0.10300512E+01</totfact>
</mgrwt>
</event>
<event>
 8    1  0.2654897E-009  0.1923768E+04  0.7818608E-02  0.8643115E-01
         -2   -1    0    0    0  501 -0.00000000000E+00  0.00000000000E+00  0.30546974873E+03  0.30546974875E+03  0.25500000000E-02 0.  1.
          2   -1    0    0  501    0  0.00000000000E+00 -0.00000000000E+00 -0.30288474337E+04  0.30288474337E+04  0.25500000000E-02 0. -1.
     200001    2    1    2    0    0 -0.57850379074E+03 -0.91490007647E+02 -0.18862601348E+04  0.20958492377E+04  0.70112029894E+03 0.  0.
    5000001    2    3    3    0    0 -0.13533178123E+03 -0.83644779724E+02 -0.45412887378E+03  0.51551290437E+03  0.18495778001E+03 0.  0.
        -11    1    4    4    0    0  0.33708987836E+02  0.19882881277E+02 -0.43225108557E+02  0.58309817688E+02  0.51100000000E-03 0. -1.
     200002    1    4    4    0    0 -0.16904076906E+03 -0.10352766100E+03 -0.41090376523E+03  0.45720308668E+03  0.30000000000E+02 0. -1.
     200000    1    3    3    0    0 -0.44317200952E+03 -0.78452279224E+01 -0.14321312610E+04  0.15803363333E+04  0.50000000000E+03 0. -1.
    -200001    1    1    2    0    0  0.57850379074E+03  0.91490007647E+02 -0.83711755019E+03  0.12384679448E+04  0.70000000000E+03 0.  1.
<mgrwt>
<rscale>  0 0.19237685E+04</rscale>
<asrwt>0</asrwt>
<pdfrwt beam="1">  1        2 0.43269247E+00 0.19237685E+04</pdfrwt>
<pdfrwt beam="2">  1       -2 0.43638537E-01 0.19237685E+04</pdfrwt>
<totfact> 0.10627335E+01</totfact>
</mgrwt>
</event>
<event>
 8    1  0.2654897E-009  0.1920085E+04  0.7818608E-02  0.8644923E-01
          2   -1    0    0  501    0  0.00000000000E+00  0.00000000000E+00  0.32862236185E+04  0.32862236185E+04  0.25500000000E-02 0.  1.
         -2   -1    0    0    0  501 -0.00000000000E+00 -0.00000000000E+00 -0.28046839703E+03  0.28046839704E+03  0.25500000000E-02 0. -1.
     200001    2    1    2    0    0 -0.19742274239E+03  0.11167869360E+03  0.26482460709E+04  0.27486084852E+04  0.70013818871E+03 0.  0.
    5000001    2    3    3    0    0 -0.14061982043E+03  0.19112772189E+01  0.81300478358E+03  0.84246419891E+03  0.17026908539E+03 0.  0.
        -11    1    4    4    0    0 -0.14256201793E+02  0.52112448646E+02  0.45725297132E+03  0.46043373723E+03  0.51100000000E-03 0. -1.
     200002    1    4    4    0    0 -0.12636361864E+03 -0.50201171427E+02  0.35575181226E+03  0.38203046168E+03  0.30000000000E+02 0. -1.
     200000    1    3    3    0    0 -0.56802921963E+02  0.10976741638E+03  0.18352412873E+04  0.19061442863E+04  0.50000000000E+03 0.  1.
    -200001    1    1    2    0    0  0.19742274239E+03 -0.11167869360E+03  0.35750915057E+03  0.81808353031E+03  0.70000000000E+03 0. -1.
<mgrwt>
<rscale>  0 0.19200853E+04</rscale>
<asrwt>0</asrwt>
<pdfrwt beam="1">  1        2 0.46946046E+00 0.19200853E+04</pdfrwt>
<pdfrwt beam="2">  1       -2 0.40066918E-01 0.19200853E+04</pdfrwt>
<totfact> 0.89581178E+00</totfact>
</mgrwt>
</event>
<event>
 8    1  0.2654897E-009  0.2681404E+04  0.7818608E-02  0.8341064E-01
          2   -1    0    0  501    0  0.00000000000E+00  0.00000000000E+00  0.20788417738E+04  0.20788417738E+04  0.25500000000E-02 0.  1.
         -2   -1    0    0    0  501 -0.00000000000E+00 -0.00000000000E+00 -0.86465540183E+03  0.86465540184E+03  0.25500000000E-02 0. -1.
     200001    2    1    2    0    0 -0.72747846990E+03  0.42812333391E+03 -0.23929462628E+03  0.11227496573E+04  0.70056431654E+03 0.  0.
    5000001    2    3    3    0    0 -0.21639025473E+03  0.11354658077E+03 -0.10289997051E+03  0.32979745230E+03  0.19611320013E+03 0.  0.
        -11    1    4    4    0    0 -0.18843242491E+03 -0.29699107470E+01 -0.77055727966E+02  0.20360055093E+03  0.51100000000E-03 0. -1.
     200002    1    4    4    0    0 -0.27957829826E+02  0.11651649151E+03 -0.25844242545E+02  0.12619690137E+03  0.30000000000E+02 0. -1.
     200000    1    3    3    0    0 -0.51108821516E+03  0.31457675315E+03 -0.13639465577E+03  0.79295220501E+03  0.50000000000E+03 0. -1.
    -200001    1    1    2    0    0  0.72747846990E+03 -0.42812333391E+03  0.14534809982E+04  0.18207475183E+04  0.70000000000E+03 0. -1.
<mgrwt>
<rscale>  0 0.26814039E+04</rscale>
<asrwt>0</asrwt>
<pdfrwt beam="1">  1        2 0.29697740E+00 0.26814039E+04</pdfrwt>
<pdfrwt beam="2">  1       -2 0.12352220E+00 0.26814039E+04</pdfrwt>
<totfact> 0.31925472E+00</totfact>
</mgrwt>
</event>
<event>
 8    1  0.2654897E-009  0.1635705E+04  0.7818608E-02  0.8798909E-01
         -2   -1    0    0    0  501 -0.00000000000E+00  0.00000000000E+00  0.33039090027E+03  0.33039090028E+03  0.25500000000E-02 0. -1.
          2   -1    0    0  501    0  0.00000000000E+00 -0.00000000000E+00 -0.20245181420E+04  0.20245181420E+04  0.25500000000E-02 0.  1.
     200001    2    1    2    0    0 -0.25927704154E+03 -0.74572072796E+02 -0.37575916841E+03  0.83804386862E+03  0.69881112955E+03 0.  0.
    5000001    2    3    3    0    0 -0.10328374772E+03 -0.11134695639E+03 -0.34135655357E+02  0.21163112573E+03  0.14337647357E+03 0.  0.
        -11    1    4    4    0    0 -0.12918906744E+02 -0.10935903790E+03 -0.37519486541E+02  0.11633576059E+03  0.51100000000E-03 0. -1.
     200002    1    4    4    0    0 -0.90364840971E+02 -0.19879184905E+01  0.33838311843E+01  0.95295365140E+02  0.30000000000E+02 0. -1.
     200000    1    3    3    0    0 -0.15599329383E+03  0.36774883597E+02 -0.34162351306E+03  0.62641274289E+03  0.50000000000E+03 0.  1.
    -200001    1    1    2    0    0  0.25927704154E+03  0.74572072796E+02 -0.13183680733E+04  0.15168651736E+04  0.70000000000E+03 0. -1.
<mgrwt>
<rscale>  0 0.16357046E+04</rscale>
<asrwt>0</asrwt>
<pdfrwt beam="1">  1        2 0.28921687E+00 0.16357046E+04</pdfrwt>
<pdfrwt beam="2">  1       -2 0.47198701E-01 0.16357046E+04</pdfrwt>
<totfact> 0.31771170E+01</totfact>
</mgrwt>
</event>
<event>
 8    1  0.2654897E-009  0.1500788E+04  0.7818608E-02  0.8883929E-01
         -2   -1    0    0    0  501 -0.00000000000E+00  0.00000000000E+00  0.22261013615E+03  0.22261013617E+03  0.25500000000E-02 0. -1.
          2   -1    0    0  501    0  0.00000000000E+00 -0.00000000000E+00 -0.25294952955E+04  0.25294952955E+04  0.25500000000E-02 0.  1.
     200001    2    1    2    0    0  0.26547478774E+03 -0.49366135899E+02 -0.11133569193E+04  0.13423453322E+04  0.69958093368E+03 0.  0.
    5000001    2    3    3    0    0  0.12070365235E+03  0.69354381827E+02 -0.39230127999E+03  0.44514163293E+03  0.15770661722E+03 0.  0.
        -11    1    4    4    0    0  0.14753408933E+03  0.48209139180E+02 -0.23682645030E+03  0.28315578076E+03  0.51100000000E-03 0. -1.
     200002    1    4    4    0    0 -0.26830436981E+02  0.21145242647E+02 -0.15547482969E+03  0.16198585217E+03  0.30000000000E+02 0. -1.
     200000    1    3    3    0    0  0.14477113539E+03 -0.11872051773E+03 -0.72105563928E+03  0.89720369923E+03  0.50000000000E+03 0. -1.
    -200001    1    1    2    0    0 -0.26547478774E+03  0.49366135899E+02 -0.11935282401E+04  0.14097600995E+04  0.70000000000E+03 0. -1.
<mgrwt>
<rscale>  0 0.15007882E+04</rscale>
<asrwt>0</asrwt>
<pdfrwt beam="1">  1        2 0.36135646E+00 0.15007882E+04</pdfrwt>
<pdfrwt beam="2">  1       -2 0.31801449E-01 0.15007882E+04</pdfrwt>
<totfact> 0.37881788E+01</totfact>
</mgrwt>
</event>
<event>
 8    1  0.2654897E-009  0.2882613E+04  0.7818608E-02  0.8278069E-01
         -2   -1    0    0    0  501 -0.00000000000E+00  0.00000000000E+00  0.15627905674E+04  0.15627905674E+04  0.25500000000E-02 0.  1.
          2   -1    0    0  501    0  0.00000000000E+00 -0.00000000000E+00 -0.13292662727E+04  0.13292662727E+04  0.25500000000E-02 0. -1.
     200001    2    1    2    0    0 -0.38163149733E+03  0.97795942962E+03 -0.58572278877E+03  0.13876589441E+04  0.69316586329E+03 0.  0.
    5000001    2    3    3    0    0 -0.23795038789E+02  0.10262269081E+03 -0.15149471367E+02  0.17529957164E+03  0.13929397975E+03 0.  0.
        -11    1    4    4    0    0 -0.46584509983E+02  0.10994092967E+03  0.22536701401E+02  0.12151142950E+03  0.51100000000E-03 0. -1.
     200002    1    4    4    0    0  0.22789471194E+02 -0.73182388678E+01 -0.37686172767E+02  0.53788142144E+02  0.30000000000E+02 0. -1.
     200000    1    3    3    0    0 -0.35783645854E+03  0.87533673882E+03 -0.57057331740E+03  0.12123593724E+04  0.50000000000E+03 0. -1.
    -200001    1    1    2    0    0  0.38163149733E+03 -0.97795942962E+03  0.81924708346E+03  0.15043978960E+04  0.70000000000E+03 0.  1.
<mgrwt>
<rscale>  0 0.28826133E+04</rscale>
<asrwt>0</asrwt>
<pdfrwt beam="1">  1        2 0.18989518E+00 0.28826133E+04</pdfrwt>
<pdfrwt beam="2">  1       -2 0.22325580E+00 0.28826133E+04</pdfrwt>
<totfact> 0.14837490E+00</totfact>
</mgrwt>
</event>
<event>
 8    1  0.2654897E-009  0.1546487E+04  0.7818608E-02  0.8854115E-01
          2   -1    0    0  501    0  0.00000000000E+00  0.00000000000E+00  0.19231874924E+04  0.19231874924E+04  0.25500000000E-02 0.  1.
         -2   -1    0    0    0  501 -0.00000000000E+00 -0.00000000000E+00 -0.31089290604E+03  0.31089290605E+03  0.25500000000E-02 0. -1.
     200001    2    1    2    0    0  0.10157784024E+02  0.69426523716E+01  0.33076594648E+03  0.77378349857E+03  0.69941647843E+03 0.  0.
    5000001    2    3    3    0    0 -0.14344692670E+02  0.11908238752E+03  0.11797617056E+03  0.21839608396E+03  0.13925547546E+03 0.  0.
        -11    1    4    4    0    0 -0.65501409351E+02  0.24741024628E+02  0.62780723853E+02  0.94042395835E+02  0.51100000000E-03 0. -1.
     200002    1    4    4    0    0  0.51156716681E+02  0.94341362894E+02  0.55195446704E+02  0.12435368813E+03  0.30000000000E+02 0. -1.
     200000    1    3    3    0    0  0.24502476694E+02 -0.11213973515E+03  0.21278977593E+03  0.55538741461E+03  0.50000000000E+03 0. -1.
    -200001    1    1    2    0    0 -0.10157784024E+02 -0.69426523716E+01  0.12815286399E+04  0.14602968999E+04  0.70000000000E+03 0.  1.
<mgrwt>
<rscale>  0 0.15464868E+04</rscale>
<asrwt>0</asrwt>
<pdfrwt beam="1">  1        2 0.27474107E+00 0.15464868E+04</pdfrwt>
<pdfrwt beam="2">  1       -2 0.44413272E-01 0.15464868E+04</pdfrwt>
<totfact> 0.40749034E+01</totfact>
</mgrwt>
</event>
<event>
 8    1  0.2654897E-009  0.2324638E+04  0.7818608E-02  0.8468270E-01
         -2   -1    0    0    0  501 -0.00000000000E+00  0.00000000000E+00  0.46829948905E+03  0.46829948906E+03  0.25500000000E-02 0. -1.
          2   -1    0    0  501    0  0.00000000000E+00 -0.00000000000E+00 -0.28848737870E+04  0.28848737870E+04  0.25500000000E-02 0.  1.
     200001    2    1    2    0    0  0.60192060038E+03  0.70588883093E+03 -0.12320943393E+04  0.16937817541E+04  0.70018049013E+03 0.  0.
    5000001    2    3    3    0    0  0.57001840862E+01 -0.20525718654E+02 -0.14941699846E+03  0.17544479972E+03  0.89451892621E+02 0.  0.
        -11    1    4    4    0    0 -0.17609029182E+02 -0.25574505641E+02 -0.12853984190E+02  0.33605924438E+02  0.51100000000E-03 0. -1.
     200002    1    4    4    0    0  0.23309213268E+02  0.50487869878E+01 -0.13656301427E+03  0.14183887528E+03  0.30000000000E+02 0. -1.
     200000    1    3    3    0    0  0.59622041630E+03  0.72641454958E+03 -0.10826773409E+04  0.15183369544E+04  0.50000000000E+03 0.  1.
    -200001    1    1    2    0    0 -0.60192060038E+03 -0.70588883093E+03 -0.11844799586E+04  0.16593915220E+04  0.70000000000E+03 0. -1.
<mgrwt>
<rscale>  0 0.23246375E+04</rscale>
<asrwt>0</asrwt>
<pdfrwt beam="1">  1        2 0.41212482E+00 0.23246375E+04</pdfrwt>
<pdfrwt beam="2">  1       -2 0.66899929E-01 0.23246375E+04</pdfrwt>
<totfact> 0.50978243E+00</totfact>
</mgrwt>
</event>
<event>
 8    1  0.2654897E-009  0.1794151E+04  0.7818608E-02  0.8709416E-01
         -2   -1    0    0    0  501 -0.00000000000E+00  0.00000000000E+00  0.40347184180E+03  0.40347184180E+03  0.25500000000E-02 0. -1.
          2   -1    0    0  501    0  0.00000000000E+00 -0.00000000000E+00 -0.19945484866E+04  0.19945484866E+04  0.25500000000E-02 0.  1.
     200001    2    1    2    0    0 -0.65752804543E+02 -0.40203376088E+03 -0.28618704964E+03  0.86221714058E+03  0.70396079005E+03 0.  0.
    5000001    2    3    3    0    0 -0.49687200690E+02 -0.35262268934E+02 -0.55892045738E+02  0.20054107198E+03  0.18270346262E+03 0.  0.
        -11    1    4    4    0    0 -0.85525448114E+02  0.46259783076E+02 -0.16388632769E+02  0.98606070247E+02  0.51100000000E-03 0. -1.
     200002    1    4    4    0    0  0.35838247424E+02 -0.81522052009E+02 -0.39503412968E+02  0.10193500173E+03  0.30000000000E+02 0. -1.
     200000    1    3    3    0    0 -0.16065603852E+02 -0.36677149195E+03 -0.23029500391E+03  0.66167606860E+03  0.50000000000E+03 0. -1.
    -200001    1    1    2    0    0  0.65752804543E+02  0.40203376088E+03 -0.13048895952E+04  0.15358031878E+04  0.70000000000E+03 0.  1.
<mgrwt>
<rscale>  0 0.17941507E+04</rscale>
<asrwt>0</asrwt>
<pdfrwt beam="1">  1        2 0.28493549E+00 0.17941507E+04</pdfrwt>
<pdfrwt beam="2">  1       -2 0.57638836E-01 0.17941507E+04</pdfrwt>
<totfact> 0.21557367E+01</totfact>
</mgrwt>
</event>
<event>
 8    1  0.2654897E-009  0.1711476E+04  0.7818608E-02  0.8754846E-01
          2   -1    0    0  501    0  0.00000000000E+00  0.00000000000E+00  0.18493508454E+04  0.18493508454E+04  0.25500000000E-02 0.  1.
         -2   -1    0    0    0  501 -0.00000000000E+00 -0.00000000000E+00 -0.39597005993E+03  0.39597005994E+03  0.25500000000E-02 0. -1.
     200001    2    1    2    0    0  0.36731815550E+03 -0.32339236770E+03  0.80148885150E+03  0.11708590194E+04  0.69930051716E+03 0.  0.
    5000001    2    3    3    0    0  0.82614890837E+02 -0.93394118008E+02  0.12291539350E+03  0.25193732429E+03  0.18115336030E+03 0.  0.
        -11    1    4    4    0    0  0.73749498455E+01  0.32951190049E+02 -0.24382745697E+02  0.41649599024E+02  0.51100000000E-03 0. -1.
     200002    1    4    4    0    0  0.75239940991E+02 -0.12634530806E+03  0.14729813919E+03  0.21028772527E+03  0.30000000000E+02 0. -1.
     200000    1    3    3    0    0  0.28470326466E+03 -0.22999824969E+03  0.67857345801E+03  0.91892169508E+03  0.50000000000E+03 0.  1.
    -200001    1    1    2    0    0 -0.36731815550E+03  0.32339236770E+03  0.65189193396E+03  0.10744618860E+04  0.70000000000E+03 0. -1.
<mgrwt>
<rscale>  0 0.17114760E+04</rscale>
<asrwt>0</asrwt>
<pdfrwt beam="1">  1        2 0.26419298E+00 0.17114760E+04</pdfrwt>
<pdfrwt beam="2">  1       -2 0.56567152E-01 0.17114760E+04</pdfrwt>
<totfact> 0.26810326E+01</totfact>
</mgrwt>
</event>
<event>
 8    1  0.2654897E-009  0.1504380E+04  0.7818608E-02  0.8881545E-01
         -2   -1    0    0    0  501 -0.00000000000E+00  0.00000000000E+00  0.38665848370E+03  0.38665848371E+03  0.25500000000E-02 0. -1.
          2   -1    0    0  501    0  0.00000000000E+00 -0.00000000000E+00 -0.14632809303E+04  0.14632809303E+04  0.25500000000E-02 0.  1.
     200001    2    1    2    0    0 -0.45999212978E+02 -0.10287412094E+03 -0.22900745070E+03  0.74488276677E+03  0.69979061969E+03 0.  0.
    5000001    2    3    3    0    0 -0.29455207402E+02  0.11871251106E+02  0.32868126108E+02  0.16867184857E+03  0.16236176563E+03 0.  0.
        -11    1    4    4    0    0 -0.28128208168E+02  0.74104443396E+02 -0.19905872046E+02  0.81724588515E+02  0.51100000000E-03 0. -1.
     200002    1    4    4    0    0 -0.13269992343E+01 -0.62233192289E+02  0.52773998154E+02  0.86947260052E+02  0.30000000000E+02 0. -1.
     200000    1    3    3    0    0 -0.16544005576E+02 -0.11474537205E+03 -0.26187557681E+03  0.57621091820E+03  0.50000000000E+03 0. -1.
    -200001    1    1    2    0    0  0.45999212978E+02  0.10287412094E+03 -0.84761499593E+03  0.11050566473E+04  0.70000000000E+03 0.  1.
<mgrwt>
<rscale>  0 0.15043803E+04</rscale>
<asrwt>0</asrwt>
<pdfrwt beam="1">  1        2 0.20904013E+00 0.15043803E+04</pdfrwt>
<pdfrwt beam="2">  1       -2 0.55236927E-01 0.15043803E+04</pdfrwt>
<totfact> 0.45583267E+01</totfact>
</mgrwt>
</event>
<event>
 8    1  0.2654897E-009  0.1476929E+04  0.7818608E-02  0.8899941E-01
          2   -1    0    0  501    0  0.00000000000E+00  0.00000000000E+00  0.44067535232E+03  0.44067535232E+03  0.25500000000E-02 0.  1.
         -2   -1    0    0    0  501 -0.00000000000E+00 -0.00000000000E+00 -0.12374866927E+04  0.12374866927E+04  0.25500000000E-02 0. -1.
     200001    2    1    2    0    0 -0.15489124614E+03  0.14657860383E+03 -0.28608445909E+03  0.78579523003E+03  0.70010944899E+03 0.  0.
    5000001    2    3    3    0    0  0.50239598999E+02 -0.49418180497E+02 -0.40046626533E+02  0.16047289863E+03  0.13849781596E+03 0.  0.
        -11    1    4    4    0    0 -0.36843774785E+02 -0.38947579603E+02 -0.41442348466E+02  0.67763160670E+02  0.51100000000E-03 0. -1.
     200002    1    4    4    0    0  0.87083373783E+02 -0.10470600894E+02  0.13957219326E+01  0.92709737958E+02  0.30000000000E+02 0. -1.
     200000    1    3    3    0    0 -0.20513084514E+03  0.19599678433E+03 -0.24603783256E+03  0.62532233140E+03  0.50000000000E+03 0.  1.
    -200001    1    1    2    0    0  0.15489124614E+03 -0.14657860383E+03 -0.51072688129E+03  0.89236681500E+03  0.70000000000E+03 0. -1.
<mgrwt>
<rscale>  0 0.14769291E+04</rscale>
<asrwt>0</asrwt>
<pdfrwt beam="1">  1        2 0.62953622E-01 0.14769291E+04</pdfrwt>
<pdfrwt beam="2">  1       -2 0.17678381E+00 0.14769291E+04</pdfrwt>
<totfact> 0.14339134E+01</totfact>
</mgrwt>
</event>
<event>
 8    1  0.2654897E-009  0.1595548E+04  0.7818608E-02  0.8823288E-01
         -2   -1    0    0    0  501 -0.00000000000E+00  0.00000000000E+00  0.29953130965E+03  0.29953130966E+03  0.25500000000E-02 0. -1.
          2   -1    0    0  501    0  0.00000000000E+00 -0.00000000000E+00 -0.21247968206E+04  0.21247968206E+04  0.25500000000E-02 0.  1.
     200001    2    1    2    0    0  0.36034664228E+03 -0.11927479177E+03 -0.98669269554E+03  0.12679196621E+04  0.69998686806E+03 0.  0.
    5000001    2    3    3    0    0  0.20202877428E+02 -0.68997266275E+02 -0.29009089127E+03  0.34408002010E+03  0.17049796487E+03 0.  0.
        -11    1    4    4    0    0  0.17093075398E+02 -0.86182015295E+02 -0.29609155825E+03  0.30885226866E+03  0.51100000000E-03 0. -1.
     200002    1    4    4    0    0  0.31098020303E+01  0.17184749020E+02  0.60006669825E+01  0.35227751444E+02  0.30000000000E+02 0. -1.
     200000    1    3    3    0    0  0.34014376486E+03 -0.50277525492E+02 -0.69660180427E+03  0.92383964196E+03  0.50000000000E+03 0.  1.
    -200001    1    1    2    0    0 -0.36034664228E+03  0.11927479177E+03 -0.83857281539E+03  0.11564084682E+04  0.70000000000E+03 0.  1.
<mgrwt>
<rscale>  0 0.15955478E+04</rscale>
<asrwt>0</asrwt>
<pdfrwt beam="1">  1        2 0.30354239E+00 0.15955478E+04</pdfrwt>
<pdfrwt beam="2">  1       -2 0.42790189E-01 0.15955478E+04</pdfrwt>
<totfact> 0.34424294E+01</totfact>
</mgrwt>
</event>
<event>
 8    1  0.2654897E-009  0.2896820E+04  0.7818608E-02  0.8273824E-01
          2   -1    0    0  501    0  0.00000000000E+00  0.00000000000E+00  0.23157403100E+04  0.23157403100E+04  0.25500000000E-02 0.  1.
         -2   -1    0    0    0  501 -0.00000000000E+00 -0.00000000000E+00 -0.90592670288E+03  0.90592670288E+03  0.25500000000E-02 0. -1.
     200001    2    1    2    0    0 -0.17383014798E+03 -0.11878104163E+04  0.25126988453E+03  0.14124312453E+04  0.70051050126E+03 0.  0.
    5000001    2    3    3    0    0 -0.13611499567E+03 -0.31991071924E+03  0.72945405298E+02  0.39435858739E+03  0.17125274584E+03 0.  0.
        -11    1    4    4    0    0 -0.27787501263E+02 -0.10929606968E+03 -0.52814039164E+02  0.12452750221E+03  0.51100000000E-03 0. -1.
     200002    1    4    4    0    0 -0.10832749441E+03 -0.21061464956E+03  0.12575944446E+03  0.26983108518E+03  0.30000000000E+02 0. -1.
     200000    1    3    3    0    0 -0.37715152305E+02 -0.86789969709E+03  0.17832447923E+03  0.10180726579E+04  0.50000000000E+03 0. -1.
    -200001    1    1    2    0    0  0.17383014798E+03  0.11878104163E+04  0.11585437226E+04  0.18092357676E+04  0.70000000000E+03 0.  1.
<mgrwt>
<rscale>  0 0.28968196E+04</rscale>
<asrwt>0</asrwt>
<pdfrwt beam="1">  1        2 0.33082005E+00 0.28968196E+04</pdfrwt>
<pdfrwt beam="2">  1       -2 0.12941810E+00 0.28968196E+04</pdfrwt>
<totfact> 0.21037677E+00</totfact>
</mgrwt>
</event>
<event>
 8    1  0.2654897E-009  0.1526003E+04  0.7818608E-02  0.8867343E-01
          2   -1    0    0  501    0  0.00000000000E+00  0.00000000000E+00  0.85896346429E+03  0.85896346430E+03  0.25500000000E-02 0.  1.
         -2   -1    0    0    0  501 -0.00000000000E+00 -0.00000000000E+00 -0.67775998789E+03  0.67775998790E+03  0.25500000000E-02 0. -1.
     200001    2    1    2    0    0  0.22789694886E+03 -0.18397257777E+03  0.17363537039E+03  0.77788209532E+03  0.69940573611E+03 0.  0.
    5000001    2    3    3    0    0  0.56697078449E+02 -0.45750977292E+02  0.13364935554E+03  0.23014722529E+03  0.17262063737E+03 0.  0.
        -11    1    4    4    0    0 -0.52069540990E+02  0.26086695584E+01  0.81556471412E+02  0.96796179084E+02  0.51100000000E-03 0. -1.
     200002    1    4    4    0    0  0.10876661944E+03 -0.48359646850E+02  0.52092884129E+02  0.13335104621E+03  0.30000000000E+02 0. -1.
     200000    1    3    3    0    0  0.17119987041E+03 -0.13822160048E+03  0.39986014851E+02  0.54773487003E+03  0.50000000000E+03 0. -1.
    -200001    1    1    2    0    0 -0.22789694886E+03  0.18397257777E+03  0.75681060102E+01  0.75884135687E+03  0.70000000000E+03 0. -1.
<mgrwt>
<rscale>  0 0.15260027E+04</rscale>
<asrwt>0</asrwt>
<pdfrwt beam="1">  1        2 0.12270907E+00 0.15260027E+04</pdfrwt>
<pdfrwt beam="2">  1       -2 0.96822855E-01 0.15260027E+04</pdfrwt>
<totfact> 0.29829400E+01</totfact>
</mgrwt>
</event>
<event>
 8    1  0.2654897E-009  0.1954564E+04  0.7818608E-02  0.8628163E-01
         -2   -1    0    0    0  501 -0.00000000000E+00  0.00000000000E+00  0.88925136086E+03  0.88925136086E+03  0.25500000000E-02 0. -1.
          2   -1    0    0  501    0  0.00000000000E+00 -0.00000000000E+00 -0.10740266597E+04  0.10740266597E+04  0.25500000000E-02 0.  1.
     200001    2    1    2    0    0 -0.28934521268E+03 -0.16675085384E+03  0.50500761646E+03  0.92533439513E+03  0.69977464284E+03 0.  0.
    5000001    2    3    3    0    0  0.99838675569E+01 -0.12736212852E+03  0.16245957151E+03  0.24821658185E+03  0.13746843178E+03 0.  0.
        -11    1    4    4    0    0 -0.57535796507E+02 -0.67343027456E+02  0.53268941172E+02  0.10335875058E+03  0.51100000000E-03 0. -1.
     200002    1    4    4    0    0  0.67519664064E+02 -0.60019101068E+02  0.10919063034E+03  0.14485783128E+03  0.30000000000E+02 0. -1.
     200000    1    3    3    0    0 -0.29932908023E+03 -0.39388725320E+02  0.34254804495E+03  0.67711781328E+03  0.50000000000E+03 0. -1.
    -200001    1    1    2    0    0  0.28934521268E+03  0.16675085384E+03 -0.68978291532E+03  0.10379436255E+04  0.70000000000E+03 0.  1.
<mgrwt>
<rscale>  0 0.19545636E+04</rscale>
<asrwt>0</asrwt>
<pdfrwt beam="1">  1        2 0.15343238E+00 0.19545636E+04</pdfrwt>
<pdfrwt beam="2">  1       -2 0.12703591E+00 0.19545636E+04</pdfrwt>
<totfact> 0.10910108E+01</totfact>
</mgrwt>
</event>
<event>
 8    1  0.2654897E-009  0.1932563E+04  0.7818608E-02  0.8638815E-01
          2   -1    0    0  501    0  0.00000000000E+00  0.00000000000E+00  0.32356277476E+04  0.32356277476E+04  0.25500000000E-02 0.  1.
         -2   -1    0    0    0  501 -0.00000000000E+00 -0.00000000000E+00 -0.28856843103E+03  0.28856843104E+03  0.25500000000E-02 0. -1.
     200001    2    1    2    0    0 -0.42753205200E+03 -0.50868168635E+03  0.14761470448E+04  0.17648998350E+04  0.70307938117E+03 0.  0.
    5000001    2    3    3    0    0 -0.22788564227E+03 -0.17542009404E+03  0.49683620922E+03  0.59872159369E+03  0.17005073542E+03 0.  0.
        -11    1    4    4    0    0 -0.12845222973E+02 -0.91715717797E+02  0.85072180853E+02  0.12575392081E+03  0.51100000000E-03 0. -1.
     200002    1    4    4    0    0 -0.21504041930E+03 -0.83704376245E+02  0.41176402837E+03  0.47296767288E+03  0.30000000000E+02 0. -1.
     200000    1    3    3    0    0 -0.19964640972E+03 -0.33326159231E+03  0.97931083555E+03  0.11661782413E+04  0.50000000000E+03 0. -1.
    -200001    1    1    2    0    0  0.42753205200E+03  0.50868168635E+03  0.14709122718E+04  0.17592963437E+04  0.70000000000E+03 0.  1.
<mgrwt>
<rscale>  0 0.19325631E+04</rscale>
<asrwt>0</asrwt>
<pdfrwt beam="1">  1        2 0.46223252E+00 0.19325631E+04</pdfrwt>
<pdfrwt beam="2">  1       -2 0.41224063E-01 0.19325631E+04</pdfrwt>
<totfact> 0.90568706E+00</totfact>
</mgrwt>
</event>
<event>
 8    1  0.2654897E-009  0.1491007E+04  0.7818608E-02  0.8890455E-01
         -2   -1    0    0    0  501 -0.00000000000E+00  0.00000000000E+00  0.49061243989E+03  0.49061243989E+03  0.25500000000E-02 0. -1.
          2   -1    0    0  501    0  0.00000000000E+00 -0.00000000000E+00 -0.11328205014E+04  0.11328205014E+04  0.25500000000E-02 0.  1.
     200001    2    1    2    0    0  0.57568732868E+02 -0.18194034788E+03 -0.13325943385E+03  0.73717950417E+03  0.69947058228E+03 0.  0.
    5000001    2    3    3    0    0 -0.69766579917E+01 -0.39005313252E+01  0.13678696875E+02  0.18269316708E+03  0.18200494128E+03 0.  0.
        -11    1    4    4    0    0 -0.17071251312E+02 -0.77425581046E+02  0.51103530750E+02  0.94327721678E+02  0.51100000000E-03 0. -1.
     200002    1    4    4    0    0  0.10094593320E+02  0.73525049721E+02 -0.37424833875E+02  0.88365445403E+02  0.30000000000E+02 0. -1.
     200000    1    3    3    0    0  0.64545390860E+02 -0.17803981656E+03 -0.14693813072E+03  0.55448633709E+03  0.50000000000E+03 0. -1.
    -200001    1    1    2    0    0 -0.57568732868E+02  0.18194034788E+03 -0.50894862764E+03  0.88625343710E+03  0.70000000000E+03 0.  1.
<mgrwt>
<rscale>  0 0.14910075E+04</rscale>
<asrwt>0</asrwt>
<pdfrwt beam="1">  1        2 0.16183150E+00 0.14910075E+04</pdfrwt>
<pdfrwt beam="2">  1       -2 0.70087492E-01 0.14910075E+04</pdfrwt>
<totfact> 0.41963278E+01</totfact>
</mgrwt>
</event>
<event>
 8    1  0.2654897E-009  0.1778591E+04  0.7818608E-02  0.8717768E-01
         -2   -1    0    0    0  501 -0.00000000000E+00  0.00000000000E+00  0.19941750350E+03  0.19941750351E+03  0.25500000000E-02 0. -1.
          2   -1    0    0  501    0  0.00000000000E+00 -0.00000000000E+00 -0.39657830029E+04  0.39657830029E+04  0.25500000000E-02 0.  1.
     200001    2    1    2    0    0  0.63294736359E+02 -0.15695453090E+03 -0.66241007128E+03  0.97879496910E+03  0.70043667850E+03 0.  0.
    5000001    2    3    3    0    0  0.30472394936E+02 -0.73604321100E+02 -0.99492369122E+02  0.22057277016E+03  0.18002070016E+03 0.  0.
        -11    1    4    4    0    0  0.86251470759E+02 -0.45657230731E+02 -0.11376722079E+03  0.14988955752E+03  0.51100000000E-03 0. -1.
     200002    1    4    4    0    0 -0.55779075823E+02 -0.27947090369E+02  0.14274851666E+02  0.70683212645E+02  0.30000000000E+02 0. -1.
     200000    1    3    3    0    0  0.32822341423E+02 -0.83350209799E+02 -0.56291770216E+03  0.75822219894E+03  0.50000000000E+03 0. -1.
    -200001    1    1    2    0    0 -0.63294736359E+02  0.15695453090E+03 -0.31039554281E+04  0.31864055373E+04  0.70000000000E+03 0.  1.
<mgrwt>
<rscale>  0 0.17785911E+04</rscale>
<asrwt>0</asrwt>
<pdfrwt beam="1">  1        2 0.56654038E+00 0.17785911E+04</pdfrwt>
<pdfrwt beam="2">  1       -2 0.28488217E-01 0.17785911E+04</pdfrwt>
<totfact> 0.65014698E+00</totfact>
</mgrwt>
</event>
<event>
 8    1  0.2654897E-009  0.1591436E+04  0.7818608E-02  0.8825826E-01
          2   -1    0    0  501    0  0.00000000000E+00  0.00000000000E+00  0.17480432927E+04  0.17480432927E+04  0.25500000000E-02 0.  1.
         -2   -1    0    0    0  501 -0.00000000000E+00 -0.00000000000E+00 -0.36221491951E+03  0.36221491952E+03  0.25500000000E-02 0. -1.
     200001    2    1    2    0    0 -0.36875509796E+03 -0.75545217463E+02  0.74853832795E+03  0.10915207564E+04  0.69958597119E+03 0.  0.
    5000001    2    3    3    0    0 -0.10214191498E+03 -0.93704459220E+01  0.16507730916E+03  0.27550087296E+03  0.19526760343E+03 0.  0.
        -11    1    4    4    0    0 -0.44812908110E+02  0.76608899713E+02  0.13877163247E+03  0.16472609456E+03  0.51100000000E-03 0. -1.
     200002    1    4    4    0    0 -0.57329006867E+02 -0.85979345635E+02  0.26305676693E+02  0.11077477840E+03  0.30000000000E+02 0. -1.
     200000    1    3    3    0    0 -0.26661318299E+03 -0.66174771541E+02  0.58346101879E+03  0.81601988344E+03  0.50000000000E+03 0.  1.
    -200001    1    1    2    0    0  0.36875509796E+03  0.75545217463E+02  0.63729004528E+03  0.10187374559E+04  0.70000000000E+03 0. -1.
<mgrwt>
<rscale>  0 0.15914363E+04</rscale>
<asrwt>0</asrwt>
<pdfrwt beam="1">  1        2 0.24972047E+00 0.15914363E+04</pdfrwt>
<pdfrwt beam="2">  1       -2 0.51744989E-01 0.15914363E+04</pdfrwt>
<totfact> 0.36715378E+01</totfact>
</mgrwt>
</event>
<event>
 8    1  0.2654897E-009  0.1444675E+04  0.7818608E-02  0.8922101E-01
          2   -1    0    0  501    0  0.00000000000E+00  0.00000000000E+00  0.18960451224E+04  0.18960451224E+04  0.25500000000E-02 0.  1.
         -2   -1    0    0    0  501 -0.00000000000E+00 -0.00000000000E+00 -0.27518937921E+03  0.27518937922E+03  0.25500000000E-02 0. -1.
     200001    2    1    2    0    0  0.11963716564E+03  0.19241136058E+02  0.10089365499E+04  0.12336160441E+04  0.69940854287E+03 0.  0.
    5000001    2    3    3    0    0  0.52809027304E+02  0.42070762095E+02  0.22571803201E+03  0.30172633032E+03  0.18849776139E+03 0.  0.
        -11    1    4    4    0    0  0.68560475559E+02  0.95800053071E+02  0.78984113140E+02  0.14183327926E+03  0.51100000000E-03 0. -1.
     200002    1    4    4    0    0 -0.15751448255E+02 -0.53729290976E+02  0.14673391887E+03  0.15989305106E+03  0.30000000000E+02 0. -1.
     200000    1    3    3    0    0  0.66828138335E+02 -0.22829626037E+02  0.78321851788E+03  0.93188971378E+03  0.50000000000E+03 0.  1.
    -200001    1    1    2    0    0 -0.11963716564E+03 -0.19241136058E+02  0.61191919327E+03  0.93761845748E+03  0.70000000000E+03 0. -1.
<mgrwt>
<rscale>  0 0.14446750E+04</rscale>
<asrwt>0</asrwt>
<pdfrwt beam="1">  1        2 0.27086359E+00 0.14446750E+04</pdfrwt>
<pdfrwt beam="2">  1       -2 0.39312769E-01 0.14446750E+04</pdfrwt>
<totfact> 0.53936750E+01</totfact>
</mgrwt>
</event>
<event>
 8    1  0.2654897E-009  0.2073191E+04  0.7818608E-02  0.8573146E-01
         -2   -1    0    0    0  501 -0.00000000000E+00  0.00000000000E+00  0.33405032638E+03  0.33405032639E+03  0.25500000000E-02 0. -1.
          2   -1    0    0  501    0  0.00000000000E+00 -0.00000000000E+00 -0.32166726319E+04  0.32166726319E+04  0.25500000000E-02 0.  1.
     200001    2    1    2    0    0  0.26014249617E+03 -0.48188546292E+03 -0.52924001175E+03  0.10351125079E+04  0.70105291970E+03 0.  0.
    5000001    2    3    3    0    0  0.11080655538E+03 -0.25433688986E+03 -0.24978251876E+03  0.40093897744E+03  0.14627170161E+03 0.  0.
        -11    1    4    4    0    0  0.58693853073E+02 -0.23395360264E+03 -0.15450906020E+03  0.28644773740E+03  0.51100000000E-03 0. -1.
     200002    1    4    4    0    0  0.52112702311E+02 -0.20383287223E+02 -0.95273458554E+02  0.11449124004E+03  0.30000000000E+02 0.  1.
     200000    1    3    3    0    0  0.14933594079E+03 -0.22754857306E+03 -0.27945749300E+03  0.63417353043E+03  0.50000000000E+03 0. -1.
    -200001    1    1    2    0    0 -0.26014249617E+03  0.48188546292E+03 -0.23533822938E+04  0.25156104504E+04  0.70000000000E+03 0.  1.
<mgrwt>
<rscale>  0 0.20731913E+04</rscale>
<asrwt>0</asrwt>
<pdfrwt beam="1">  1        2 0.45952464E+00 0.20731913E+04</pdfrwt>
<pdfrwt beam="2">  1       -2 0.47721477E-01 0.20731913E+04</pdfrwt>
<totfact> 0.68535668E+00</totfact>
</mgrwt>
</event>
<event>
 8    1  0.2654897E-009  0.1519784E+04  0.7818608E-02  0.8871402E-01
         -2   -1    0    0    0  501 -0.00000000000E+00  0.00000000000E+00  0.36226655595E+03  0.36226655596E+03  0.25500000000E-02 0. -1.
          2   -1    0    0  501    0  0.00000000000E+00 -0.00000000000E+00 -0.15939530122E+04  0.15939530122E+04  0.25500000000E-02 0.  1.
     200001    2    1    2    0    0  0.27215571241E+03  0.23809527300E+02 -0.47178230345E+03  0.88753348384E+03  0.70035813531E+03 0.  0.
    5000001    2    3    3    0    0  0.15550687886E+03 -0.68714910903E+02 -0.21154068515E+03  0.30452969146E+03  0.13814754124E+03 0.  0.
        -11    1    4    4    0    0  0.12860244793E+03 -0.68854553515E+02 -0.78781121507E+02  0.16578903540E+03  0.51100000000E-03 0. -1.
     200002    1    4    4    0    0  0.26904430932E+02  0.13964261110E+00 -0.13275956364E+03  0.13874065606E+03  0.30000000000E+02 0. -1.
     200000    1    3    3    0    0  0.11664883355E+03  0.92524438204E+02 -0.26024161830E+03  0.58300379238E+03  0.50000000000E+03 0. -1.
    -200001    1    1    2    0    0 -0.27215571241E+03 -0.23809527300E+02 -0.75990415276E+03  0.10686860843E+04  0.70000000000E+03 0.  1.
<mgrwt>
<rscale>  0 0.15197840E+04</rscale>
<asrwt>0</asrwt>
<pdfrwt beam="1">  1        2 0.22770757E+00 0.15197840E+04</pdfrwt>
<pdfrwt beam="2">  1       -2 0.51752366E-01 0.15197840E+04</pdfrwt>
<totfact> 0.44408129E+01</totfact>
</mgrwt>
</event>
<event>
 8    1  0.2654897E-009  0.1705893E+04  0.7818608E-02  0.8758010E-01
         -2   -1    0    0    0  501 -0.00000000000E+00  0.00000000000E+00  0.61506642339E+03  0.61506642340E+03  0.25500000000E-02 0. -1.
          2   -1    0    0  501    0  0.00000000000E+00 -0.00000000000E+00 -0.11828283112E+04  0.11828283112E+04  0.25500000000E-02 0.  1.
     200001    2    1    2    0    0  0.38633138232E+03  0.20202666239E+03 -0.51340145447E+03  0.97144342572E+03  0.70003897508E+03 0.  0.
    5000001    2    3    3    0    0  0.26229640695E+02  0.67990916980E+02 -0.10792535768E+03  0.22174367886E+03  0.17947595226E+03 0.  0.
        -11    1    4    4    0    0 -0.66201231422E+02 -0.99804121711E+01 -0.22298412974E+02  0.70565082657E+02  0.51100000000E-03 0. -1.
     200002    1    4    4    0    0  0.92430872117E+02  0.77971329152E+02 -0.85626944708E+02  0.15117859620E+03  0.30000000000E+02 0. -1.
     200000    1    3    3    0    0  0.36010174162E+03  0.13403574541E+03 -0.40547609679E+03  0.74969974685E+03  0.50000000000E+03 0. -1.
    -200001    1    1    2    0    0 -0.38633138232E+03 -0.20202666239E+03 -0.54360433358E+02  0.82645130891E+03  0.70000000000E+03 0. -1.
<mgrwt>
<rscale>  0 0.17058933E+04</rscale>
<asrwt>0</asrwt>
<pdfrwt beam="1">  1        2 0.16897547E+00 0.17058933E+04</pdfrwt>
<pdfrwt beam="2">  1       -2 0.87866632E-01 0.17058933E+04</pdfrwt>
<totfact> 0.23288141E+01</totfact>
</mgrwt>
</event>
<event>
 8    1  0.2654897E-009  0.1838098E+04  0.7818608E-02  0.8686298E-01
          2   -1    0    0  501    0  0.00000000000E+00  0.00000000000E+00  0.14252085218E+04  0.14252085218E+04  0.25500000000E-02 0.  1.
         -2   -1    0    0    0  501 -0.00000000000E+00 -0.00000000000E+00 -0.59265078786E+03  0.59265078787E+03  0.25500000000E-02 0. -1.
     200001    2    1    2    0    0  0.49917842250E+03 -0.31090105998E+03  0.35217247380E+03  0.98509187954E+03  0.70748992449E+03 0.  0.
    5000001    2    3    3    0    0  0.13673739898E+03 -0.15712186534E+03  0.11969066485E+03  0.30755270892E+03  0.19203753973E+03 0.  0.
        -11    1    4    4    0    0  0.15097597042E+03 -0.12549614588E+03  0.15462545405E+03  0.24990409624E+03  0.51100000000E-03 0. -1.
     200002    1    4    4    0    0 -0.14238571439E+02 -0.31625719463E+02 -0.34934789204E+02  0.57648612688E+02  0.30000000000E+02 0. -1.
     200000    1    3    3    0    0  0.36244102351E+03 -0.15377919464E+03  0.23248180895E+03  0.67753917062E+03  0.50000000000E+03 0. -1.
    -200001    1    1    2    0    0 -0.49917842250E+03  0.31090105998E+03  0.48038526016E+03  0.10327674301E+04  0.70000000000E+03 0. -1.
<mgrwt>
<rscale>  0 0.18380979E+04</rscale>
<asrwt>0</asrwt>
<pdfrwt beam="1">  1        2 0.20360121E+00 0.18380979E+04</pdfrwt>
<pdfrwt beam="2">  1       -2 0.84664399E-01 0.18380979E+04</pdfrwt>
<totfact> 0.18409249E+01</totfact>
</mgrwt>
</event>
<event>
 8    1  0.2654897E-009  0.1562096E+04  0.7818608E-02  0.8844178E-01
          2   -1    0    0  501    0  0.00000000000E+00  0.00000000000E+00  0.53662462843E+03  0.53662462844E+03  0.25500000000E-02 0.  1.
         -2   -1    0    0    0  501 -0.00000000000E+00 -0.00000000000E+00 -0.11368025496E+04  0.11368025496E+04  0.25500000000E-02 0. -1.
     200001    2    1    2    0    0  0.99950095976E+02 -0.23884696515E+03 -0.72572131234E+02  0.75942183669E+03  0.71022314618E+03 0.  0.
    5000001    2    3    3    0    0  0.97424950424E+01 -0.65068421350E+02  0.75831126451E+02  0.20232227607E+03  0.17565627797E+03 0.  0.
        -11    1    4    4    0    0 -0.41160455467E+02  0.25057816251E+02  0.81198940912E+02  0.94421105982E+02  0.51100000000E-03 0. -1.
     200002    1    4    4    0    0  0.50902950509E+02 -0.90126237601E+02 -0.53678144604E+01  0.10790117009E+03  0.30000000000E+02 0. -1.
     200000    1    3    3    0    0  0.90207600934E+02 -0.17377854380E+03 -0.14840325769E+03  0.55709956062E+03  0.50000000000E+03 0.  1.
    -200001    1    1    2    0    0 -0.99950095976E+02  0.23884696515E+03 -0.52760578994E+03  0.91400534135E+03  0.70000000000E+03 0. -1.
<mgrwt>
<rscale>  0 0.15620963E+04</rscale>
<asrwt>0</asrwt>
<pdfrwt beam="1">  1        2 0.76660662E-01 0.15620963E+04</pdfrwt>
<pdfrwt beam="2">  1       -2 0.16240036E+00 0.15620963E+04</pdfrwt>
<totfact> 0.14409851E+01</totfact>
</mgrwt>
</event>
<event>
 8    1  0.2654897E-009  0.2150627E+04  0.7818608E-02  0.8539264E-01
          2   -1    0    0  501    0  0.00000000000E+00  0.00000000000E+00  0.45533971004E+03  0.45533971004E+03  0.25500000000E-02 0.  1.
         -2   -1    0    0    0  501 -0.00000000000E+00 -0.00000000000E+00 -0.25394207491E+04  0.25394207491E+04  0.25500000000E-02 0. -1.
     200001    2    1    2    0    0  0.31068277566E+03  0.24357638227E+03 -0.20372991272E+04  0.21897500317E+04  0.69897369498E+03 0.  0.
    5000001    2    3    3    0    0  0.10540070962E+03  0.10898090229E+03 -0.71812700589E+03  0.75780319062E+03  0.18860841039E+03 0.  0.
        -11    1    4    4    0    0  0.14037396932E+03  0.31624028939E+02 -0.34177493373E+03  0.37083019806E+03  0.51100000000E-03 0. -1.
     200002    1    4    4    0    0 -0.34973259697E+02  0.77356873352E+02 -0.37635207216E+03  0.38697299255E+03  0.30000000000E+02 0. -1.
     200000    1    3    3    0    0  0.20528206605E+03  0.13459547997E+03 -0.13191721213E+04  0.14319468411E+04  0.50000000000E+03 0. -1.
    -200001    1    1    2    0    0 -0.31068277566E+03 -0.24357638227E+03 -0.46781911847E+02  0.80501042749E+03  0.70000000000E+03 0. -1.
<mgrwt>
<rscale>  0 0.21506270E+04</rscale>
<asrwt>0</asrwt>
<pdfrwt beam="1">  1        2 0.65048532E-01 0.21506270E+04</pdfrwt>
<pdfrwt beam="2">  1       -2 0.36277438E+00 0.21506270E+04</pdfrwt>
<totfact> 0.89012541E-01</totfact>
</mgrwt>
</event>
<event>
 8    1  0.2654897E-009  0.2556382E+04  0.7818608E-02  0.8383170E-01
          2   -1    0    0  501    0  0.00000000000E+00  0.00000000000E+00  0.29164013354E+04  0.29164013354E+04  0.25500000000E-02 0.  1.
         -2   -1    0    0    0  501 -0.00000000000E+00 -0.00000000000E+00 -0.56020151963E+03  0.56020151964E+03  0.25500000000E-02 0. -1.
     200001    2    1    2    0    0  0.31897375480E+03  0.81108786906E+02  0.25610025770E+04  0.26764359583E+04  0.70445180679E+03 0.  0.
    5000001    2    3    3    0    0  0.44140616736E+02  0.74713423235E+02  0.66737576923E+03  0.69871084054E+03  0.18781887997E+03 0.  0.
        -11    1    4    4    0    0  0.33658859823E+02 -0.24016695238E+02  0.50066360296E+03  0.50236815566E+03  0.51100000000E-03 0. -1.
     200002    1    4    4    0    0  0.10481756913E+02  0.98730118473E+02  0.16671216627E+03  0.19634268488E+03  0.30000000000E+02 0. -1.
     200000    1    3    3    0    0  0.27483313807E+03  0.63953636710E+01  0.18936268078E+04  0.19777251178E+04  0.50000000000E+03 0.  1.
    -200001    1    1    2    0    0 -0.31897375480E+03 -0.81108786906E+02 -0.20480276124E+03  0.80016689670E+03  0.70000000000E+03 0. -1.
<mgrwt>
<rscale>  0 0.25563822E+04</rscale>
<asrwt>0</asrwt>
<pdfrwt beam="1">  1        2 0.41662876E+00 0.25563822E+04</pdfrwt>
<pdfrwt beam="2">  1       -2 0.80028788E-01 0.25563822E+04</pdfrwt>
<totfact> 0.32368213E+00</totfact>
</mgrwt>
</event>
<event>
 8    1  0.2654897E-009  0.1700428E+04  0.7818608E-02  0.8761121E-01
         -2   -1    0    0    0  501 -0.00000000000E+00  0.00000000000E+00  0.47830560225E+03  0.47830560226E+03  0.25500000000E-02 0. -1.
          2   -1    0    0  501    0  0.00000000000E+00 -0.00000000000E+00 -0.15113005172E+04  0.15113005172E+04  0.25500000000E-02 0.  1.
     200001    2    1    2    0    0  0.34890628327E+03 -0.17582174549E+03 -0.85242966363E+03  0.11678685149E+04  0.69615490805E+03 0.  0.
    5000001    2    3    3    0    0  0.14130448130E+03  0.20338964854E+01 -0.24506322754E+03  0.33502691818E+03  0.17948804206E+03 0.  0.
        -11    1    4    4    0    0 -0.37792627617E+02  0.15482613914E+02 -0.19846715308E+02  0.45407996483E+02  0.51100000000E-03 0. -1.
     200002    1    4    4    0    0  0.17909710892E+03 -0.13448717429E+02 -0.22521651223E+03  0.28961892170E+03  0.30000000000E+02 0. -1.
     200000    1    3    3    0    0  0.20760180197E+03 -0.17785564198E+03 -0.60736643609E+03  0.83284159674E+03  0.50000000000E+03 0. -1.
    -200001    1    1    2    0    0 -0.34890628327E+03  0.17582174549E+03 -0.18056525129E+03  0.82173760451E+03  0.70000000000E+03 0. -1.
<mgrwt>
<rscale>  0 0.17004276E+04</rscale>
<asrwt>0</asrwt>
<pdfrwt beam="1">  1        2 0.21590007E+00 0.17004276E+04</pdfrwt>
<pdfrwt beam="2">  1       -2 0.68329372E-01 0.17004276E+04</pdfrwt>
<totfact> 0.26948437E+01</totfact>
</mgrwt>
</event>
<event>
 8    1  0.2654897E-009  0.1585230E+04  0.7818608E-02  0.8829674E-01
         -2   -1    0    0    0  501 -0.00000000000E+00  0.00000000000E+00  0.19030528865E+03  0.19030528866E+03  0.25500000000E-02 0. -1.
          2   -1    0    0  501    0  0.00000000000E+00 -0.00000000000E+00 -0.33012139398E+04  0.33012139398E+04  0.25500000000E-02 0.  1.
     200001    2    1    2    0    0  0.83058318500E+02  0.33583729997E+03 -0.18557425227E+04  0.20133015901E+04  0.69994114459E+03 0.  0.
    5000001    2    3    3    0    0 -0.68040406110E+01  0.93235695770E+02 -0.44253727106E+03  0.49209158975E+03  0.19384454208E+03 0.  0.
        -11    1    4    4    0    0 -0.97054590102E+02  0.53371657165E+02 -0.25631400175E+03  0.27922212438E+03  0.51100000000E-03 0. -1.
     200002    1    4    4    0    0  0.90250549491E+02  0.39864038605E+02 -0.18622326931E+03  0.21286946538E+03  0.30000000000E+02 0. -1.
     200000    1    3    3    0    0  0.89862359111E+02  0.24260160420E+03 -0.14132052516E+04  0.15212100003E+04  0.50000000000E+03 0. -1.
    -200001    1    1    2    0    0 -0.83058318500E+02 -0.33583729997E+03 -0.12551661285E+04  0.14782176384E+04  0.70000000000E+03 0.  1.
<mgrwt>
<rscale>  0 0.15852299E+04</rscale>
<asrwt>0</asrwt>
<pdfrwt beam="1">  1        2 0.47160196E+00 0.15852299E+04</pdfrwt>
<pdfrwt beam="2">  1       -2 0.27186472E-01 0.15852299E+04</pdfrwt>
<totfact> 0.18862155E+01</totfact>
</mgrwt>
</event>
<event>
 8    1  0.2654897E-009  0.2060618E+04  0.7818608E-02  0.8578793E-01
          2   -1    0    0  501    0  0.00000000000E+00  0.00000000000E+00  0.21805541807E+04  0.21805541807E+04  0.25500000000E-02 0.  1.
         -2   -1    0    0    0  501 -0.00000000000E+00 -0.00000000000E+00 -0.48681964980E+03  0.48681964980E+03  0.25500000000E-02 0. -1.
     200001    2    1    2    0    0 -0.70312628822E+03  0.14845198875E+03  0.11514060198E+04  0.15269595268E+04  0.69960346186E+03 0.  0.
    5000001    2    3    3    0    0 -0.82668307963E+02  0.15577090126E+03  0.26864863879E+03  0.33772352603E+03  0.10385791300E+03 0.  0.
        -11    1    4    4    0    0 -0.57534523435E+02  0.14850222373E+03  0.24242081408E+03  0.29005341395E+03  0.51100000000E-03 0. -1.
     200002    1    4    4    0    0 -0.25133784527E+02  0.72686775312E+01  0.26227824701E+02  0.47670112086E+02  0.30000000000E+02 0.  1.
     200000    1    3    3    0    0 -0.62045798026E+03 -0.73189125074E+01  0.88275738102E+03  0.11892360008E+04  0.50000000000E+03 0.  1.
    -200001    1    1    2    0    0  0.70312628822E+03 -0.14845198875E+03  0.54232851108E+03  0.11404143037E+04  0.70000000000E+03 0. -1.
<mgrwt>
<rscale>  0 0.20606180E+04</rscale>
<asrwt>0</asrwt>
<pdfrwt beam="1">  1        2 0.31150774E+00 0.20606180E+04</pdfrwt>
<pdfrwt beam="2">  1       -2 0.69545664E-01 0.20606180E+04</pdfrwt>
<totfact> 0.11327349E+01</totfact>
</mgrwt>
</event>
<event>
 8    1  0.2654897E-009  0.2641959E+04  0.7818608E-02  0.8354087E-01
         -2   -1    0    0    0  501 -0.00000000000E+00  0.00000000000E+00  0.57000073786E+03  0.57000073787E+03  0.25500000000E-02 0. -1.
          2   -1    0    0  501    0  0.00000000000E+00 -0.00000000000E+00 -0.30613762297E+04  0.30613762297E+04  0.25500000000E-02 0.  1.
     200001    2    1    2    0    0  0.42369812541E+03  0.26309720240E+03  0.13204916837E+03  0.87074349187E+03  0.70143923926E+03 0.  0.
    5000001    2    3    3    0    0  0.63505399784E+02  0.12218796242E+03 -0.65044266714E+02  0.20859544524E+03  0.14254286786E+03 0.  0.
        -11    1    4    4    0    0  0.38839268295E+01  0.10753174502E+03 -0.85313042194E+02  0.13731888524E+03  0.51100000000E-03 0. -1.
     200002    1    4    4    0    0  0.59621472954E+02  0.14656217405E+02  0.20268775480E+02  0.71276559999E+02  0.30000000000E+02 0.  1.
     200000    1    3    3    0    0  0.36019272563E+03  0.14090923998E+03  0.19709343508E+03  0.66214804663E+03  0.50000000000E+03 0. -1.
    -200001    1    1    2    0    0 -0.42369812541E+03 -0.26309720240E+03 -0.26234246602E+04  0.27606334757E+04  0.70000000000E+03 0.  1.
<mgrwt>
<rscale>  0 0.26419589E+04</rscale>
<asrwt>0</asrwt>
<pdfrwt beam="1">  1        2 0.43733945E+00 0.26419589E+04</pdfrwt>
<pdfrwt beam="2">  1       -2 0.81428678E-01 0.26419589E+04</pdfrwt>
<totfact> 0.25639335E+00</totfact>
</mgrwt>
</event>
<event>
 8    1  0.2654897E-009  0.1689991E+04  0.7818608E-02  0.8767094E-01
         -2   -1    0    0    0  501 -0.00000000000E+00  0.00000000000E+00  0.22491830449E+03  0.22491830451E+03  0.25500000000E-02 0. -1.
          2   -1    0    0  501    0  0.00000000000E+00 -0.00000000000E+00 -0.31745629032E+04  0.31745629032E+04  0.25500000000E-02 0.  1.
     200001    2    1    2    0    0 -0.32951916368E+03  0.77578795154E+02 -0.81271105413E+03  0.11254789380E+04  0.70114351861E+03 0.  0.
    5000001    2    3    3    0    0 -0.17552145226E+02  0.15879650887E+02 -0.22158619901E+03  0.28848503161E+03  0.18320187978E+03 0.  0.
        -11    1    4    4    0    0 -0.54798086830E+02 -0.51688738686E+02 -0.18149401141E+03  0.19650606150E+03  0.51100000000E-03 0. -1.
     200002    1    4    4    0    0  0.37245941604E+02  0.67568389573E+02 -0.40092187598E+02  0.91978970107E+02  0.30000000000E+02 0. -1.
     200000    1    3    3    0    0 -0.31196701845E+03  0.61699144266E+02 -0.59112485512E+03  0.83699390640E+03  0.50000000000E+03 0. -1.
    -200001    1    1    2    0    0  0.32951916368E+03 -0.77578795154E+02 -0.21369335445E+04  0.22740022697E+04  0.70000000000E+03 0.  1.
<mgrwt>
<rscale>  0 0.16899909E+04</rscale>
<asrwt>0</asrwt>
<pdfrwt beam="1">  1        2 0.45350896E+00 0.16899909E+04</pdfrwt>
<pdfrwt beam="2">  1       -2 0.32131188E-01 0.16899909E+04</pdfrwt>
<totfact> 0.16212385E+01</totfact>
</mgrwt>
</event>
<event>
 8    1  0.2654897E-009  0.1507820E+04  0.7818608E-02  0.8879270E-01
          2   -1    0    0  501    0  0.00000000000E+00  0.00000000000E+00  0.22508107523E+04  0.22508107523E+04  0.25500000000E-02 0.  1.
         -2   -1    0    0    0  501 -0.00000000000E+00 -0.00000000000E+00 -0.25252231264E+03  0.25252231266E+03  0.25500000000E-02 0. -1.
     200001    2    1    2    0    0 -0.65122958918E+02 -0.11403426084E+03  0.59622157592E+03  0.93074402049E+03  0.70253786493E+03 0.  0.
    5000001    2    3    3    0    0 -0.11763826063E+02 -0.33708933158E+02  0.14464208128E+03  0.25013885205E+03  0.20093141578E+03 0.  0.
        -11    1    4    4    0    0  0.37351227781E+02 -0.87480155995E+02  0.12000086194E+02  0.95874365596E+02  0.51100000000E-03 0. -1.
     200002    1    4    4    0    0 -0.49115053844E+02  0.53771222837E+02  0.13264199509E+03  0.15426448645E+03  0.30000000000E+02 0. -1.
     200000    1    3    3    0    0 -0.53359132855E+02 -0.80325327686E+02  0.45157949464E+03  0.68060516844E+03  0.50000000000E+03 0. -1.
    -200001    1    1    2    0    0  0.65122958918E+02  0.11403426084E+03  0.14020668638E+04  0.15725890445E+04  0.70000000000E+03 0.  1.
<mgrwt>
<rscale>  0 0.15078195E+04</rscale>
<asrwt>0</asrwt>
<pdfrwt beam="1">  1        2 0.32154439E+00 0.15078195E+04</pdfrwt>
<pdfrwt beam="2">  1       -2 0.36074617E-01 0.15078195E+04</pdfrwt>
<totfact> 0.41629644E+01</totfact>
</mgrwt>
</event>
<event>
 8    1  0.2654897E-009  0.1508065E+04  0.7818608E-02  0.8879107E-01
          2   -1    0    0  501    0  0.00000000000E+00  0.00000000000E+00  0.90355427026E+03  0.90355427027E+03  0.25500000000E-02 0.  1.
         -2   -1    0    0    0  501 -0.00000000000E+00 -0.00000000000E+00 -0.62925403564E+03  0.62925403564E+03  0.25500000000E-02 0. -1.
     200001    2    1    2    0    0  0.17939895361E+03 -0.15480238658E+03  0.28882813978E+03  0.79364741445E+03  0.70021908049E+03 0.  0.
    5000001    2    3    3    0    0  0.86096977712E+02  0.36469565192E+02  0.23958351635E+02  0.18912593186E+03  0.16264039084E+03 0.  0.
        -11    1    4    4    0    0 -0.24341597788E+02  0.39370580048E+02  0.53652422317E+02  0.70859991370E+02  0.51100000000E-03 0. -1.
     200002    1    4    4    0    0  0.11043857550E+03 -0.29010148557E+01 -0.29694070682E+02  0.11826594049E+03  0.30000000000E+02 0. -1.
     200000    1    3    3    0    0  0.93301975894E+02 -0.19127195177E+03  0.26486978814E+03  0.60452148259E+03  0.50000000000E+03 0.  1.
    -200001    1    1    2    0    0 -0.17939895361E+03  0.15480238658E+03 -0.14527905152E+02  0.73916089147E+03  0.70000000000E+03 0. -1.
<mgrwt>
<rscale>  0 0.15080652E+04</rscale>
<asrwt>0</asrwt>
<pdfrwt beam="1">  1        2 0.12907918E+00 0.15080652E+04</pdfrwt>
<pdfrwt beam="2">  1       -2 0.89893433E-01 0.15080652E+04</pdfrwt>
<totfact> 0.33169839E+01</totfact>
</mgrwt>
</event>
<event>
 8    1  0.2654897E-009  0.2598857E+04  0.7818608E-02  0.8368590E-01
          2   -1    0    0  501    0  0.00000000000E+00  0.00000000000E+00  0.17231179627E+04  0.17231179627E+04  0.25500000000E-02 0.  1.
         -2   -1    0    0    0  501 -0.00000000000E+00 -0.00000000000E+00 -0.97991771840E+03  0.97991771840E+03  0.25500000000E-02 0. -1.
     200001    2    1    2    0    0 -0.32898999823E+03  0.88747887574E+03  0.94366560618E+03  0.15088667084E+04  0.70022910090E+03 0.  0.
    5000001    2    3    3    0    0 -0.16446427854E+03  0.23957146591E+03  0.29086049813E+03  0.44914635229E+03  0.18080273838E+03 0.  0.
        -11    1    4    4    0    0 -0.10683651774E+03  0.20879612117E+03  0.11931435711E+03  0.26314592444E+03  0.51100000000E-03 0. -1.
     200002    1    4    4    0    0 -0.57627760799E+02  0.30775344737E+02  0.17154614103E+03  0.18600042785E+03  0.30000000000E+02 0. -1.
     200000    1    3    3    0    0 -0.16452571969E+03  0.64790740984E+03  0.65280510805E+03  0.10597203562E+04  0.50000000000E+03 0.  1.
    -200001    1    1    2    0    0  0.32898999823E+03 -0.88747887574E+03 -0.20046536192E+03  0.11941689726E+04  0.70000000000E+03 0. -1.
<mgrwt>
<rscale>  0 0.25988565E+04</rscale>
<asrwt>0</asrwt>
<pdfrwt beam="1">  1        2 0.24615971E+00 0.25988565E+04</pdfrwt>
<pdfrwt beam="2">  1       -2 0.13998825E+00 0.25988565E+04</pdfrwt>
<totfact> 0.35692325E+00</totfact>
</mgrwt>
</event>
<event>
 8    1  0.2654897E-009  0.1712083E+04  0.7818608E-02  0.8754503E-01
          2   -1    0    0  501    0  0.00000000000E+00  0.00000000000E+00  0.21089806914E+04  0.21089806914E+04  0.25500000000E-02 0.  1.
         -2   -1    0    0    0  501 -0.00000000000E+00 -0.00000000000E+00 -0.34746986166E+03  0.34746986167E+03  0.25500000000E-02 0. -1.
     200001    2    1    2    0    0 -0.44395193961E+02 -0.35538440677E+03  0.39552556703E+03  0.88032087955E+03  0.70018238122E+03 0.  0.
    5000001    2    3    3    0    0 -0.86578634930E+02 -0.20068364940E+03  0.52318302134E+02  0.25302270986E+03  0.11624757977E+03 0.  0.
        -11    1    4    4    0    0 -0.81139056578E+02 -0.17250287556E+03  0.76002083968E+02  0.20522452423E+03  0.51100000000E-03 0. -1.
     200002    1    4    4    0    0 -0.54395783516E+01 -0.28180773843E+02 -0.23683781834E+02  0.47798185625E+02  0.30000000000E+02 0.  1.
     200000    1    3    3    0    0  0.42183440968E+02 -0.15470075737E+03  0.34320726489E+03  0.62729816969E+03  0.50000000000E+03 0. -1.
    -200001    1    1    2    0    0  0.44395193961E+02  0.35538440677E+03  0.13659852628E+04  0.15761296736E+04  0.70000000000E+03 0.  1.
<mgrwt>
<rscale>  0 0.17120832E+04</rscale>
<asrwt>0</asrwt>
<pdfrwt beam="1">  1        2 0.30128295E+00 0.17120832E+04</pdfrwt>
<pdfrwt beam="2">  1       -2 0.49638553E-01 0.17120832E+04</pdfrwt>
<totfact> 0.25798027E+01</totfact>
</mgrwt>
</event>
<event>
 8    1  0.2654897E-009  0.1949001E+04  0.7818608E-02  0.8630843E-01
          2   -1    0    0  501    0  0.00000000000E+00  0.00000000000E+00  0.18334095150E+04  0.18334095150E+04  0.25500000000E-02 0.  1.
         -2   -1    0    0    0  501 -0.00000000000E+00 -0.00000000000E+00 -0.51796985854E+03  0.51796985855E+03  0.25500000000E-02 0. -1.
     200001    2    1    2    0    0  0.62904034396E+03  0.25048160921E+03  0.69059053496E+03  0.11942842109E+04  0.70069015870E+03 0.  0.
    5000001    2    3    3    0    0  0.11620986554E+03  0.49955925689E+02  0.21231660055E+03  0.31000393536E+03  0.18714639646E+03 0.  0.
        -11    1    4    4    0    0  0.94873739743E+02  0.45797518702E+02  0.24108533812E+03  0.26309804155E+03  0.51100000000E-03 0. -1.
     200002    1    4    4    0    0  0.21336125801E+02  0.41584069874E+01 -0.28768737566E+02  0.46905893809E+02  0.30000000000E+02 0. -1.
     200000    1    3    3    0    0  0.51283047842E+03  0.20052568352E+03  0.47827393441E+03  0.88428027552E+03  0.50000000000E+03 0. -1.
    -200001    1    1    2    0    0 -0.62904034396E+03 -0.25048160921E+03  0.62484912154E+03  0.11570951627E+04  0.70000000000E+03 0.  1.
<mgrwt>
<rscale>  0 0.19490006E+04</rscale>
<asrwt>0</asrwt>
<pdfrwt beam="1">  1        2 0.26191565E+00 0.19490006E+04</pdfrwt>
<pdfrwt beam="2">  1       -2 0.73995694E-01 0.19490006E+04</pdfrwt>
<totfact> 0.15064060E+01</totfact>
</mgrwt>
</event>
<event>
 8    1  0.2654897E-009  0.1919942E+04  0.7818608E-02  0.8644993E-01
          2   -1    0    0  501    0  0.00000000000E+00  0.00000000000E+00  0.11514130819E+04  0.11514130819E+04  0.25500000000E-02 0.  1.
         -2   -1    0    0    0  501 -0.00000000000E+00 -0.00000000000E+00 -0.80035957110E+03  0.80035957110E+03  0.25500000000E-02 0. -1.
     200001    2    1    2    0    0  0.36016605359E+02 -0.35277329634E+03  0.73821731013E+03  0.10767629377E+04  0.69907612784E+03 0.  0.
    5000001    2    3    3    0    0  0.18845879640E+02 -0.42118498682E+02  0.28362743204E+03  0.33281858869E+03  0.16791235113E+03 0.  0.
        -11    1    4    4    0    0 -0.69083904303E+02 -0.12415011061E+02  0.76191774841E+02  0.10359490763E+03  0.51100000000E-03 0. -1.
     200002    1    4    4    0    0  0.87929783944E+02 -0.29703487621E+02  0.20743565720E+03  0.22922368106E+03  0.30000000000E+02 0. -1.
     200000    1    3    3    0    0  0.17170725719E+02 -0.31065479765E+03  0.45458987809E+03  0.74394434899E+03  0.50000000000E+03 0.  1.
    -200001    1    1    2    0    0 -0.36016605359E+02  0.35277329634E+03 -0.38716379930E+03  0.87500971535E+03  0.70000000000E+03 0. -1.
<mgrwt>
<rscale>  0 0.19199422E+04</rscale>
<asrwt>0</asrwt>
<pdfrwt beam="1">  1        2 0.16448758E+00 0.19199422E+04</pdfrwt>
<pdfrwt beam="2">  1       -2 0.11433708E+00 0.19199422E+04</pdfrwt>
<totfact> 0.12794559E+01</totfact>
</mgrwt>
</event>
<event>
 8    1  0.2654897E-009  0.1404584E+04  0.7818608E-02  0.8950507E-01
         -2   -1    0    0    0  501 -0.00000000000E+00  0.00000000000E+00  0.71795927322E+03  0.71795927322E+03  0.25500000000E-02 0. -1.
          2   -1    0    0  501    0  0.00000000000E+00 -0.00000000000E+00 -0.68696687731E+03  0.68696687731E+03  0.25500000000E-02 0.  1.
     200001    2    1    2    0    0 -0.20951159622E+02 -0.27314276245E+02 -0.22538641934E+02  0.70203882472E+03  0.70083200573E+03 0.  0.
    5000001    2    3    3    0    0 -0.50555897935E+02 -0.56130087787E+02 -0.83923315462E+02  0.19659360547E+03  0.16093302104E+03 0.  0.
        -11    1    4    4    0    0 -0.19231010956E+02 -0.10440025473E+03 -0.25274598844E+02  0.10912401348E+03  0.51100000000E-03 0. -1.
     200002    1    4    4    0    0 -0.31324886978E+02  0.48270166947E+02 -0.58648716618E+02  0.87469591986E+02  0.30000000000E+02 0. -1.
     200000    1    3    3    0    0  0.29604738313E+02  0.28815811542E+02  0.61384673528E+02  0.50544521926E+03  0.50000000000E+03 0. -1.
    -200001    1    1    2    0    0  0.20951159622E+02  0.27314276245E+02  0.53531037842E+02  0.70288732581E+03  0.70000000000E+03 0. -1.
<mgrwt>
<rscale>  0 0.14045843E+04</rscale>
<asrwt>0</asrwt>
<pdfrwt beam="1">  1        2 0.98138125E-01 0.14045843E+04</pdfrwt>
<pdfrwt beam="2">  1       -2 0.10256561E+00 0.14045843E+04</pdfrwt>
<totfact> 0.34917401E+01</totfact>
</mgrwt>
</event>
<event>
 8    1  0.2654897E-009  0.1442540E+04  0.7818608E-02  0.8923588E-01
          2   -1    0    0  501    0  0.00000000000E+00  0.00000000000E+00  0.22986171924E+04  0.22986171924E+04  0.25500000000E-02 0.  1.
         -2   -1    0    0    0  501 -0.00000000000E+00 -0.00000000000E+00 -0.22632331935E+03  0.22632331937E+03  0.25500000000E-02 0. -1.
     200001    2    1    2    0    0 -0.70152719366E+02 -0.81443731304E+02  0.12742843079E+04  0.14579945190E+04  0.70028068282E+03 0.  0.
    5000001    2    3    3    0    0 -0.11567308330E+02  0.36675702153E+02  0.28815817784E+03  0.34451834266E+03  0.18487520986E+03 0.  0.
        -11    1    4    4    0    0 -0.47532225241E+02  0.68713254990E+00  0.28103319747E+03  0.28502533688E+03  0.51100000000E-03 0. -1.
     200002    1    4    4    0    0  0.35964916911E+02  0.35988569603E+02  0.71249803738E+01  0.59493005772E+02  0.30000000000E+02 0. -1.
     200000    1    3    3    0    0 -0.58585411035E+02 -0.11811943346E+03  0.98612613002E+03  0.11134761763E+04  0.50000000000E+03 0. -1.
    -200001    1    1    2    0    0  0.70152719366E+02  0.81443731304E+02  0.79800956522E+03  0.10669459928E+04  0.70000000000E+03 0. -1.
<mgrwt>
<rscale>  0 0.14425404E+04</rscale>
<asrwt>0</asrwt>
<pdfrwt beam="1">  1        2 0.32837390E+00 0.14425404E+04</pdfrwt>
<pdfrwt beam="2">  1       -2 0.32331901E-01 0.14425404E+04</pdfrwt>
<totfact> 0.48691763E+01</totfact>
</mgrwt>
</event>
<event>
 8    1  0.2654897E-009  0.1884739E+04  0.7818608E-02  0.8662490E-01
          2   -1    0    0  501    0  0.00000000000E+00  0.00000000000E+00  0.10251376803E+04  0.10251376803E+04  0.25500000000E-02 0.  1.
         -2   -1    0    0    0  501 -0.00000000000E+00 -0.00000000000E+00 -0.86628362097E+03  0.86628362097E+03  0.25500000000E-02 0. -1.
     200001    2    1    2    0    0 -0.32370750254E+03  0.52654999316E+03 -0.45015660631E+02  0.93559479757E+03  0.70090639392E+03 0.  0.
    5000001    2    3    3    0    0  0.49133446827E+02  0.42697162578E+02  0.40618411019E+02  0.14158149200E+03  0.11898874011E+03 0.  0.
        -11    1    4    4    0    0  0.70895796538E+02  0.14608931688E+02 -0.97377835534E+01  0.73037382762E+02  0.51100000000E-03 0. -1.
     200002    1    4    4    0    0 -0.21762349712E+02  0.28088230889E+02  0.50356194572E+02  0.68544109238E+02  0.30000000000E+02 0. -1.
     200000    1    3    3    0    0 -0.37284094937E+03  0.48385283058E+03 -0.85634071650E+02  0.79401330557E+03  0.50000000000E+03 0. -1.
    -200001    1    1    2    0    0  0.32370750254E+03 -0.52654999316E+03  0.20386971999E+03  0.95582650373E+03  0.70000000000E+03 0.  1.
<mgrwt>
<rscale>  0 0.18847387E+04</rscale>
<asrwt>0</asrwt>
<pdfrwt beam="1">  1        2 0.14644824E+00 0.18847387E+04</pdfrwt>
<pdfrwt beam="2">  1       -2 0.12375480E+00 0.18847387E+04</pdfrwt>
<totfact> 0.12539654E+01</totfact>
</mgrwt>
</event>
<event>
 8    1  0.2654897E-009  0.1977674E+04  0.7818608E-02  0.8617131E-01
         -2   -1    0    0    0  501 -0.00000000000E+00  0.00000000000E+00  0.11923793335E+04  0.11923793335E+04  0.25500000000E-02 0. -1.
          2   -1    0    0  501    0  0.00000000000E+00 -0.00000000000E+00 -0.82003973271E+03  0.82003973271E+03  0.25500000000E-02 0.  1.
     200001    2    1    2    0    0 -0.36894653072E+03 -0.52486921402E+02 -0.41211316413E+03  0.89696285468E+03  0.70415103719E+03 0.  0.
    5000001    2    3    3    0    0 -0.91761560304E+02  0.11680085768E+03 -0.19766909674E+03  0.26334142353E+03  0.90625654409E+02 0.  0.
        -11    1    4    4    0    0 -0.25903672150E+02  0.57739873509E+02 -0.13980446430E+03  0.15346068377E+03  0.51100000000E-03 0. -1.
     200002    1    4    4    0    0 -0.65857888154E+02  0.59060984175E+02 -0.57864632437E+02  0.10988073976E+03  0.30000000000E+02 0. -1.
     200000    1    3    3    0    0 -0.27718497042E+03 -0.16928777909E+03 -0.21444406739E+03  0.63362143115E+03  0.50000000000E+03 0.  1.
    -200001    1    1    2    0    0  0.36894653072E+03  0.52486921402E+02  0.78445276490E+03  0.11154562115E+04  0.70000000000E+03 0. -1.
<mgrwt>
<rscale>  0 0.19776738E+04</rscale>
<asrwt>0</asrwt>
<pdfrwt beam="1">  1        2 0.11714853E+00 0.19776738E+04</pdfrwt>
<pdfrwt beam="2">  1       -2 0.17033990E+00 0.19776738E+04</pdfrwt>
<totfact> 0.72844575E+00</totfact>
</mgrwt>
</event>
<event>
 8    1  0.2654897E-009  0.1853426E+04  0.7818608E-02  0.8678393E-01
          2   -1    0    0  501    0  0.00000000000E+00  0.00000000000E+00  0.14063142791E+04  0.14063142791E+04  0.25500000000E-02 0.  1.
         -2   -1    0    0    0  501 -0.00000000000E+00 -0.00000000000E+00 -0.61067185641E+03  0.61067185642E+03  0.25500000000E-02 0. -1.
     200001    2    1    2    0    0  0.21673963428E+01 -0.46715176171E+03 -0.24627298096E+02  0.84179343604E+03  0.69983870933E+03 0.  0.
    5000001    2    3    3    0    0  0.24209420254E+02 -0.18093306871E+03 -0.44986875833E+02  0.26488659482E+03  0.18659640333E+03 0.  0.
        -11    1    4    4    0    0  0.51189606719E+02 -0.20248885682E+03 -0.13385093977E+02  0.20928753836E+03  0.51100000000E-03 0. -1.
     200002    1    4    4    0    0 -0.26980186465E+02  0.21555788110E+02 -0.31601781856E+02  0.55599056460E+02  0.30000000000E+02 0. -1.
     200000    1    3    3    0    0 -0.22042023912E+02 -0.28621869300E+03  0.20359577737E+02  0.57690684122E+03  0.50000000000E+03 0. -1.
    -200001    1    1    2    0    0 -0.21673963428E+01  0.46715176171E+03  0.82026972079E+03  0.11751926995E+04  0.70000000000E+03 0.  1.
<mgrwt>
<rscale>  0 0.18534255E+04</rscale>
<asrwt>0</asrwt>
<pdfrwt beam="1">  1        2 0.20090204E+00 0.18534255E+04</pdfrwt>
<pdfrwt beam="2">  1       -2 0.87238838E-01 0.18534255E+04</pdfrwt>
<totfact> 0.17580872E+01</totfact>
</mgrwt>
</event>
<event>
 8    1  0.2654897E-009  0.1506257E+04  0.7818608E-02  0.8880303E-01
          2   -1    0    0  501    0  0.00000000000E+00  0.00000000000E+00  0.50985286141E+03  0.50985286142E+03  0.25500000000E-02 0.  1.
         -2   -1    0    0    0  501 -0.00000000000E+00 -0.00000000000E+00 -0.11124826591E+04  0.11124826591E+04  0.25500000000E-02 0. -1.
     200001    2    1    2    0    0 -0.22061662971E+02 -0.26608750519E+03 -0.21882042207E+03  0.78055234524E+03  0.70006450356E+03 0.  0.
    5000001    2    3    3    0    0  0.78112715622E+02 -0.71445656215E+02 -0.42859269864E+02  0.20706940514E+03  0.17272736725E+03 0.  0.
        -11    1    4    4    0    0  0.42618594486E+02 -0.11739453977E+03  0.66676638288E+01  0.12506910212E+03  0.51100000000E-03 0. -1.
     200002    1    4    4    0    0  0.35494121136E+02  0.45948883552E+02 -0.49526933693E+02  0.82000303023E+02  0.30000000000E+02 0. -1.
     200000    1    3    3    0    0 -0.10017437859E+03 -0.19464184898E+03 -0.17596115221E+03  0.57348294010E+03  0.50000000000E+03 0. -1.
    -200001    1    1    2    0    0  0.22061662971E+02  0.26608750519E+03 -0.38380937563E+03  0.84178317530E+03  0.70000000000E+03 0.  1.
<mgrwt>
<rscale>  0 0.15062569E+04</rscale>
<asrwt>0</asrwt>
<pdfrwt beam="1">  1        2 0.72836123E-01 0.15062569E+04</pdfrwt>
<pdfrwt beam="2">  1       -2 0.15892609E+00 0.15062569E+04</pdfrwt>
<totfact> 0.16284479E+01</totfact>
</mgrwt>
</event>
<event>
 8    1  0.2654897E-009  0.1541322E+04  0.7818608E-02  0.8857430E-01
          2   -1    0    0  501    0  0.00000000000E+00  0.00000000000E+00  0.48348908100E+03  0.48348908101E+03  0.25500000000E-02 0.  1.
         -2   -1    0    0    0  501 -0.00000000000E+00 -0.00000000000E+00 -0.12284014971E+04  0.12284014971E+04  0.25500000000E-02 0. -1.
     200001    2    1    2    0    0 -0.15178395056E+03  0.15104668467E+02 -0.68874050821E+03  0.99326563981E+03  0.69924718442E+03 0.  0.
    5000001    2    3    3    0    0 -0.10945290049E+03 -0.86552802373E+02 -0.12856101011E+03  0.23436694481E+03  0.13758127225E+03 0.  0.
        -11    1    4    4    0    0 -0.76371531493E+02 -0.87482291657E+02 -0.14588036410E+03  0.18645868928E+03  0.51100000000E-03 0. -1.
     200002    1    4    4    0    0 -0.33081369001E+02  0.92948928411E+00  0.17319353992E+02  0.47908255531E+02  0.30000000000E+02 0. -1.
     200000    1    3    3    0    0 -0.42331050061E+02  0.10165747084E+03 -0.56017949810E+03  0.75889869500E+03  0.50000000000E+03 0. -1.
    -200001    1    1    2    0    0  0.15178395056E+03 -0.15104668467E+02 -0.56171907837E+02  0.71862493826E+03  0.70000000000E+03 0.  1.
<mgrwt>
<rscale>  0 0.15413224E+04</rscale>
<asrwt>0</asrwt>
<pdfrwt beam="1">  1        2 0.69069869E-01 0.15413224E+04</pdfrwt>
<pdfrwt beam="2">  1       -2 0.17548593E+00 0.15413224E+04</pdfrwt>
<totfact> 0.13116704E+01</totfact>
</mgrwt>
</event>
<event>
 8    1  0.2654897E-009  0.2346640E+04  0.7818608E-02  0.8459755E-01
          2   -1    0    0  501    0  0.00000000000E+00  0.00000000000E+00  0.23949764131E+04  0.23949764132E+04  0.25500000000E-02 0.  1.
         -2   -1    0    0    0  501 -0.00000000000E+00 -0.00000000000E+00 -0.57481991300E+03  0.57481991300E+03  0.25500000000E-02 0. -1.
     200001    2    1    2    0    0  0.78408211419E+03  0.35131835452E+03  0.42706899671E+03  0.11896552811E+04  0.70333662773E+03 0.  0.
    5000001    2    3    3    0    0  0.20522781343E+02  0.12443061115E+02  0.11381825551E+03  0.16692103111E+03  0.11971641915E+03 0.  0.
        -11    1    4    4    0    0 -0.17343611231E+02  0.54118115868E+02  0.40819272321E+02  0.69969881440E+02  0.51100000000E-03 0. -1.
     200002    1    4    4    0    0  0.37866392574E+02 -0.41675054753E+02  0.72998983192E+02  0.96951149669E+02  0.30000000000E+02 0. -1.
     200000    1    3    3    0    0  0.76355933285E+03  0.33887529340E+03  0.31325074119E+03  0.10227342500E+04  0.50000000000E+03 0.  1.
    -200001    1    1    2    0    0 -0.78408211419E+03 -0.35131835452E+03  0.13930875034E+04  0.17801410450E+04  0.70000000000E+03 0. -1.
<mgrwt>
<rscale>  0 0.23466403E+04</rscale>
<asrwt>0</asrwt>
<pdfrwt beam="1">  1        2 0.34213949E+00 0.23466403E+04</pdfrwt>
<pdfrwt beam="2">  1       -2 0.82117130E-01 0.23466403E+04</pdfrwt>
<totfact> 0.59210496E+00</totfact>
</mgrwt>
</event>
<event>
 8    1  0.2654897E-009  0.2115138E+04  0.7818608E-02  0.8554604E-01
         -2   -1    0    0    0  501 -0.00000000000E+00  0.00000000000E+00  0.21599896857E+04  0.21599896857E+04  0.25500000000E-02 0. -1.
          2   -1    0    0  501    0  0.00000000000E+00 -0.00000000000E+00 -0.51780426337E+03  0.51780426338E+03  0.25500000000E-02 0.  1.
     200001    2    1    2    0    0 -0.20205765545E+03  0.62307789797E+03  0.25461239439E+03  0.99125540195E+03  0.69907541614E+03 0.  0.
    5000001    2    3    3    0    0 -0.89682436304E+02  0.18694631958E+03  0.50106800335E+02  0.28793365371E+03  0.19339915127E+03 0.  0.
        -11    1    4    4    0    0  0.38607936450E+02  0.13669826229E+03  0.16715385526E+02  0.14302584307E+03  0.51100000000E-03 0. -1.
     200002    1    4    4    0    0 -0.12829037275E+03  0.50248057281E+02  0.33391414809E+02  0.14490781064E+03  0.30000000000E+02 0. -1.
     200000    1    3    3    0    0 -0.11237521915E+03  0.43613157839E+03  0.20450559406E+03  0.70332174824E+03  0.50000000000E+03 0.  1.
    -200001    1    1    2    0    0  0.20205765545E+03 -0.62307789797E+03  0.13875730279E+04  0.16865385471E+04  0.70000000000E+03 0. -1.
<mgrwt>
<rscale>  0 0.21151377E+04</rscale>
<asrwt>0</asrwt>
<pdfrwt beam="1">  1        2 0.73972038E-01 0.21151377E+04</pdfrwt>
<pdfrwt beam="2">  1       -2 0.30856995E+00 0.21151377E+04</pdfrwt>
<totfact> 0.16790162E+00</totfact>
</mgrwt>
</event>
<event>
 8    1  0.2654897E-009  0.1591783E+04  0.7818608E-02  0.8825612E-01
          2   -1    0    0  501    0  0.00000000000E+00  0.00000000000E+00  0.24076910452E+04  0.24076910452E+04  0.25500000000E-02 0.  1.
         -2   -1    0    0    0  501 -0.00000000000E+00 -0.00000000000E+00 -0.26309148333E+03  0.26309148334E+03  0.25500000000E-02 0. -1.
     200001    2    1    2    0    0  0.12858996091E+03 -0.34114641581E+03  0.12473409435E+04  0.14757974728E+04  0.69943012266E+03 0.  0.
    5000001    2    3    3    0    0  0.30462019123E+02 -0.28002365084E+02  0.46007683850E+03  0.48712510018E+03  0.15462243965E+03 0.  0.
        -11    1    4    4    0    0 -0.36063096760E+02 -0.12411362987E+01  0.22121379539E+02  0.42325439161E+02  0.51100000000E-03 0. -1.
     200002    1    4    4    0    0  0.66525115883E+02 -0.26761228786E+02  0.43795545896E+03  0.44479966102E+03  0.30000000000E+02 0. -1.
     200000    1    3    3    0    0  0.98127941782E+02 -0.31314405073E+03  0.78726410495E+03  0.98867237263E+03  0.50000000000E+03 0. -1.
    -200001    1    1    2    0    0 -0.12858996091E+03  0.34114641581E+03  0.89725861842E+03  0.11949850557E+04  0.70000000000E+03 0. -1.
<mgrwt>
<rscale>  0 0.15917827E+04</rscale>
<asrwt>0</asrwt>
<pdfrwt beam="1">  1        2 0.34395589E+00 0.15917827E+04</pdfrwt>
<pdfrwt beam="2">  1       -2 0.37584495E-01 0.15917827E+04</pdfrwt>
<totfact> 0.31673036E+01</totfact>
</mgrwt>
</event>
<event>
 8    1  0.2654897E-009  0.1486750E+04  0.7818608E-02  0.8893312E-01
          2   -1    0    0  501    0  0.00000000000E+00  0.00000000000E+00  0.20601823065E+04  0.20601823065E+04  0.25500000000E-02 0.  1.
         -2   -1    0    0    0  501 -0.00000000000E+00 -0.00000000000E+00 -0.26823193258E+03  0.26823193260E+03  0.25500000000E-02 0. -1.
     200001    2    1    2    0    0  0.18884804238E+03  0.15379782431E+03  0.97946173342E+03  0.12286619284E+04  0.70067645405E+03 0.  0.
    5000001    2    3    3    0    0  0.51302727711E+02  0.26301539822E+02  0.35542616078E+03  0.40732496221E+03  0.19042617522E+03 0.  0.
        -11    1    4    4    0    0 -0.25055472268E+02 -0.55247286011E+01  0.30465133305E+03  0.30572983833E+03  0.51100000000E-03 0. -1.
     200002    1    4    4    0    0  0.76358199980E+02  0.31826268423E+02  0.50774827726E+02  0.10159512388E+03  0.30000000000E+02 0. -1.
     200000    1    3    3    0    0  0.13754531466E+03  0.12749628449E+03  0.62403557265E+03  0.82133696622E+03  0.50000000000E+03 0.  1.
    -200001    1    1    2    0    0 -0.18884804238E+03 -0.15379782431E+03  0.81248864046E+03  0.10997523106E+04  0.70000000000E+03 0. -1.
<mgrwt>
<rscale>  0 0.14867504E+04</rscale>
<asrwt>0</asrwt>
<pdfrwt beam="1">  1        2 0.29431176E+00 0.14867504E+04</pdfrwt>
<pdfrwt beam="2">  1       -2 0.38318847E-01 0.14867504E+04</pdfrwt>
<totfact> 0.46530671E+01</totfact>
</mgrwt>
</event>
<event>
 8    1  0.2654897E-009  0.1574873E+04  0.7818608E-02  0.8836135E-01
          2   -1    0    0  501    0  0.00000000000E+00  0.00000000000E+00  0.10690025891E+04  0.10690025891E+04  0.25500000000E-02 0.  1.
         -2   -1    0    0    0  501 -0.00000000000E+00 -0.00000000000E+00 -0.58003267323E+03  0.58003267323E+03  0.25500000000E-02 0. -1.
     200001    2    1    2    0    0 -0.28123000756E+03 -0.13913356672E+03  0.42462506218E+03  0.87923741433E+03  0.70306722351E+03 0.  0.
    5000001    2    3    3    0    0 -0.15176939519E+03 -0.57143180257E+02  0.18002668557E+03  0.30190662573E+03  0.18010749782E+03 0.  0.
        -11    1    4    4    0    0 -0.17003110022E+03 -0.84165477851E+02  0.11078567115E+03  0.21969949394E+03  0.51100000000E-03 0. -1.
     200002    1    4    4    0    0  0.18261705035E+02  0.27022297594E+02  0.69241014424E+02  0.82207131786E+02  0.30000000000E+02 0. -1.
     200000    1    3    3    0    0 -0.12946061237E+03 -0.81990386462E+02  0.24459837661E+03  0.57733078860E+03  0.50000000000E+03 0.  1.
    -200001    1    1    2    0    0  0.28123000756E+03  0.13913356672E+03  0.64344853649E+02  0.76979784797E+03  0.70000000000E+03 0. -1.
<mgrwt>
<rscale>  0 0.15748732E+04</rscale>
<asrwt>0</asrwt>
<pdfrwt beam="1">  1        2 0.15271465E+00 0.15748732E+04</pdfrwt>
<pdfrwt beam="2">  1       -2 0.82861811E-01 0.15748732E+04</pdfrwt>
<totfact> 0.31345428E+01</totfact>
</mgrwt>
</event>
<event>
 8    1  0.2654897E-009  0.1503336E+04  0.7818608E-02  0.8882237E-01
         -2   -1    0    0    0  501 -0.00000000000E+00  0.00000000000E+00  0.15369102504E+03  0.15369102506E+03  0.25500000000E-02 0. -1.
          2   -1    0    0  501    0  0.00000000000E+00 -0.00000000000E+00 -0.36762388166E+04  0.36762388166E+04  0.25500000000E-02 0.  1.
     200001    2    1    2    0    0  0.20043774632E+03 -0.13705911531E+03 -0.21070634843E+04  0.22322576865E+04  0.69591476551E+03 0.  0.
    5000001    2    3    3    0    0 -0.63289884675E+01 -0.55996581565E+01 -0.72263393865E+03  0.74005152167E+03  0.15938956422E+03 0.  0.
        -11    1    4    4    0    0  0.44686133502E+01 -0.51372095365E+02 -0.62863849588E+03  0.63074988640E+03  0.51100000000E-03 0. -1.
     200002    1    4    4    0    0 -0.10797601818E+02  0.45772437209E+02 -0.93995442762E+02  0.10930163527E+03  0.30000000000E+02 0. -1.
     200000    1    3    3    0    0  0.20676673479E+03 -0.13145945715E+03 -0.13844295456E+04  0.14922061648E+04  0.50000000000E+03 0.  1.
    -200001    1    1    2    0    0 -0.20043774632E+03  0.13705911531E+03 -0.14154843072E+04  0.15976721551E+04  0.70000000000E+03 0. -1.
<mgrwt>
<rscale>  0 0.15033362E+04</rscale>
<asrwt>0</asrwt>
<pdfrwt beam="1">  1        2 0.52517692E+00 0.15033362E+04</pdfrwt>
<pdfrwt beam="2">  1       -2 0.21955863E-01 0.15033362E+04</pdfrwt>
<totfact> 0.16564095E+01</totfact>
</mgrwt>
</event>
<event>
 8    1  0.2654897E-009  0.1650237E+04  0.7818608E-02  0.8790267E-01
          2   -1    0    0  501    0  0.00000000000E+00  0.00000000000E+00  0.17045379090E+04  0.17045379090E+04  0.25500000000E-02 0.  1.
         -2   -1    0    0    0  501 -0.00000000000E+00 -0.00000000000E+00 -0.39941625421E+03  0.39941625421E+03  0.25500000000E-02 0. -1.
     200001    2    1    2    0    0  0.27138754620E+03 -0.15567178249E+03  0.26394719687E+03  0.81092316748E+03  0.70003096841E+03 0.  0.
    5000001    2    3    3    0    0 -0.60043954579E+01 -0.78124417031E+02  0.13414645443E+03  0.21947738305E+03  0.15503410313E+03 0.  0.
        -11    1    4    4    0    0  0.38734195433E+02 -0.10083495561E+03  0.55378176790E+02  0.12138685527E+03  0.51100000000E-03 0. -1.
     200002    1    4    4    0    0 -0.44738590891E+02  0.22710538577E+02  0.78768277636E+02  0.98090527775E+02  0.30000000000E+02 0. -1.
     200000    1    3    3    0    0  0.27739194166E+03 -0.77547365461E+02  0.12980074244E+03  0.59144578443E+03  0.50000000000E+03 0. -1.
    -200001    1    1    2    0    0 -0.27138754620E+03  0.15567178249E+03  0.10411744580E+04  0.12930309958E+04  0.70000000000E+03 0.  1.
<mgrwt>
<rscale>  0 0.16502365E+04</rscale>
<asrwt>0</asrwt>
<pdfrwt beam="1">  1        2 0.24350541E+00 0.16502365E+04</pdfrwt>
<pdfrwt beam="2">  1       -2 0.57059466E-01 0.16502365E+04</pdfrwt>
<totfact> 0.31441056E+01</totfact>
</mgrwt>
</event>
<event>
 8    1  0.2654897E-009  0.2287798E+04  0.7818608E-02  0.8482748E-01
         -2   -1    0    0    0  501 -0.00000000000E+00  0.00000000000E+00  0.57066574824E+03  0.57066574825E+03  0.25500000000E-02 0. -1.
          2   -1    0    0  501    0  0.00000000000E+00 -0.00000000000E+00 -0.22929452171E+04  0.22929452171E+04  0.25500000000E-02 0.  1.
     200001    2    1    2    0    0  0.16264733374E+03  0.88586697755E+03 -0.74256432588E+03  0.13599300755E+04  0.69770593747E+03 0.  0.
    5000001    2    3    3    0    0  0.74019253037E+02  0.24019950903E+03 -0.14534516184E+03  0.34434544268E+03  0.18513215243E+03 0.  0.
        -11    1    4    4    0    0 -0.49861088984E+02  0.27312293530E+02 -0.58200723595E+02  0.81359779988E+02  0.51100000000E-03 0. -1.
     200002    1    4    4    0    0  0.12388034202E+03  0.21288721550E+03 -0.87144438246E+02  0.26298566269E+03  0.30000000000E+02 0. -1.
     200000    1    3    3    0    0  0.88628080700E+02  0.64566746852E+03 -0.59721916403E+03  0.10155846329E+04  0.50000000000E+03 0.  1.
    -200001    1    1    2    0    0 -0.16264733374E+03 -0.88586697755E+03 -0.97971514302E+03  0.15036808899E+04  0.70000000000E+03 0. -1.
<mgrwt>
<rscale>  0 0.22877983E+04</rscale>
<asrwt>0</asrwt>
<pdfrwt beam="1">  1        2 0.32756360E+00 0.22877983E+04</pdfrwt>
<pdfrwt beam="2">  1       -2 0.81523680E-01 0.22877983E+04</pdfrwt>
<totfact> 0.68361395E+00</totfact>
</mgrwt>
</event>
<event>
 8    1  0.2654897E-009  0.1595284E+04  0.7818608E-02  0.8823451E-01
         -2   -1    0    0    0  501 -0.00000000000E+00  0.00000000000E+00  0.72707614076E+03  0.72707614076E+03  0.25500000000E-02 0. -1.
          2   -1    0    0  501    0  0.00000000000E+00 -0.00000000000E+00 -0.87505617856E+03  0.87505617856E+03  0.25500000000E-02 0.  1.
     200001    2    1    2    0    0 -0.33960185668E+03 -0.16087449907E+03 -0.12985467103E+03  0.80743831882E+03  0.70276907844E+03 0.  0.
    5000001    2    3    3    0    0 -0.21434470703E+03 -0.71991105958E+02 -0.27026347607E+02  0.27436864682E+03  0.15304038070E+03 0.  0.
        -11    1    4    4    0    0 -0.18705265588E+03 -0.78732681440E+02 -0.70205319683E+02  0.21474710269E+03  0.51100000000E-03 0. -1.
     200002    1    4    4    0    0 -0.27292051145E+02  0.67415754826E+01  0.43178972076E+02  0.59621544137E+02  0.30000000000E+02 0. -1.
     200000    1    3    3    0    0 -0.12525714965E+03 -0.88883393111E+02 -0.10282832342E+03  0.53306967200E+03  0.50000000000E+03 0.  1.
    -200001    1    1    2    0    0  0.33960185668E+03  0.16087449907E+03 -0.18125366776E+02  0.79469400050E+03  0.70000000000E+03 0.  1.
<mgrwt>
<rscale>  0 0.15952836E+04</rscale>
<asrwt>0</asrwt>
<pdfrwt beam="1">  1        2 0.12500802E+00 0.15952836E+04</pdfrwt>
<pdfrwt beam="2">  1       -2 0.10386802E+00 0.15952836E+04</pdfrwt>
<totfact> 0.24505153E+01</totfact>
</mgrwt>
</event>
<event>
 8    1  0.2654897E-009  0.2395550E+04  0.7818608E-02  0.8441172E-01
         -2   -1    0    0    0  501 -0.00000000000E+00  0.00000000000E+00  0.14809559794E+04  0.14809559794E+04  0.25500000000E-02 0. -1.
          2   -1    0    0  501    0  0.00000000000E+00 -0.00000000000E+00 -0.96874213462E+03  0.96874213462E+03  0.25500000000E-02 0.  1.
     200001    2    1    2    0    0 -0.46245188618E+03  0.73115315956E+03  0.70931436752E+03  0.13195232135E+04  0.69969132430E+03 0.  0.
    5000001    2    3    3    0    0 -0.10899452870E+03  0.27702934006E+03  0.26224621242E+03  0.43576392373E+03  0.18025553738E+03 0.  0.
        -11    1    4    4    0    0 -0.72081788073E+02  0.23102430652E+02  0.13029848413E+02  0.76806792823E+02  0.51100000000E-03 0. -1.
     200002    1    4    4    0    0 -0.36912740628E+02  0.25392690940E+03  0.24921636401E+03  0.35895713091E+03  0.30000000000E+02 0. -1.
     200000    1    3    3    0    0 -0.35345735748E+03  0.45412381950E+03  0.44706815510E+03  0.88375928979E+03  0.50000000000E+03 0. -1.
    -200001    1    1    2    0    0  0.46245188618E+03 -0.73115315956E+03 -0.19710052270E+03  0.11301749005E+04  0.70000000000E+03 0. -1.
<mgrwt>
<rscale>  0 0.23955496E+04</rscale>
<asrwt>0</asrwt>
<pdfrwt beam="1">  1        2 0.13839173E+00 0.23955496E+04</pdfrwt>
<pdfrwt beam="2">  1       -2 0.21156514E+00 0.23955496E+04</pdfrwt>
<totfact> 0.29706969E+00</totfact>
</mgrwt>
</event>
<event>
 8    1  0.2654897E-009  0.2243698E+04  0.7818608E-02  0.8500457E-01
         -2   -1    0    0    0  501 -0.00000000000E+00  0.00000000000E+00  0.10151338498E+04  0.10151338498E+04  0.25500000000E-02 0. -1.
          2   -1    0    0  501    0  0.00000000000E+00 -0.00000000000E+00 -0.12397824220E+04  0.12397824220E+04  0.25500000000E-02 0.  1.
     200001    2    1    2    0    0 -0.22722255189E+03 -0.75396618321E+03  0.26925008763E+03  0.10912879034E+04  0.70591683989E+03 0.  0.
    5000001    2    3    3    0    0  0.94348356187E+02 -0.22238961216E+02  0.10991464292E+02  0.11377570761E+03  0.58548404289E+02 0.  0.
        -11    1    4    4    0    0  0.46317156049E+02 -0.13366217725E+02  0.25654880046E+02  0.54608676886E+02  0.51100000000E-03 0. -1.
     200002    1    4    4    0    0  0.48031200138E+02 -0.88727434909E+01 -0.14663415754E+02  0.59167030729E+02  0.30000000000E+02 0.  1.
     200000    1    3    3    0    0 -0.32157090807E+03 -0.73172722199E+03  0.25825862334E+03  0.97751219576E+03  0.50000000000E+03 0.  1.
    -200001    1    1    2    0    0  0.22722255189E+03  0.75396618321E+03 -0.49389865988E+03  0.11636283684E+04  0.70000000000E+03 0.  1.
<mgrwt>
<rscale>  0 0.22436979E+04</rscale>
<asrwt>0</asrwt>
<pdfrwt beam="1">  1        2 0.17711177E+00 0.22436979E+04</pdfrwt>
<pdfrwt beam="2">  1       -2 0.14501912E+00 0.22436979E+04</pdfrwt>
<totfact> 0.60830860E+00</totfact>
</mgrwt>
</event>
<event>
 8    1  0.2654897E-009  0.2533733E+04  0.7818608E-02  0.8391065E-01
          2   -1    0    0  501    0  0.00000000000E+00  0.00000000000E+00  0.18272774485E+04  0.18272774485E+04  0.25500000000E-02 0.  1.
         -2   -1    0    0    0  501 -0.00000000000E+00 -0.00000000000E+00 -0.87832931102E+03  0.87832931103E+03  0.25500000000E-02 0. -1.
     200001    2    1    2    0    0 -0.91928230487E+03 -0.50158454913E+03  0.33076433575E+03  0.13024609265E+04  0.70023739069E+03 0.  0.
    5000001    2    3    3    0    0 -0.19014320196E+03 -0.15145312557E+03  0.11122369372E+01  0.29602843926E+03  0.16893523399E+03 0.  0.
        -11    1    4    4    0    0 -0.37005592486E+02  0.11474529365E+02  0.51913082722E+02  0.64776900646E+02  0.51100000000E-03 0. -1.
     200002    1    4    4    0    0 -0.15313760947E+03 -0.16292765493E+03 -0.50800845785E+02  0.23125153861E+03  0.30000000000E+02 0. -1.
     200000    1    3    3    0    0 -0.72913910291E+03 -0.35013142356E+03  0.32965209881E+03  0.10064324873E+04  0.50000000000E+03 0.  1.
    -200001    1    1    2    0    0  0.91928230487E+03  0.50158454913E+03  0.61818380173E+03  0.14031458330E+04  0.70000000000E+03 0. -1.
<mgrwt>
<rscale>  0 0.25337335E+04</rscale>
<asrwt>0</asrwt>
<pdfrwt beam="1">  1        2 0.26103963E+00 0.25337335E+04</pdfrwt>
<pdfrwt beam="2">  1       -2 0.12547562E+00 0.25337335E+04</pdfrwt>
<totfact> 0.41877949E+00</totfact>
</mgrwt>
</event>
<event>
 8    1  0.2654897E-009  0.2083327E+04  0.7818608E-02  0.8568624E-01
         -2   -1    0    0    0  501 -0.00000000000E+00  0.00000000000E+00  0.11989293745E+04  0.11989293745E+04  0.25500000000E-02 0. -1.
          2   -1    0    0  501    0  0.00000000000E+00 -0.00000000000E+00 -0.90502684166E+03  0.90502684167E+03  0.25500000000E-02 0.  1.
     200001    2    1    2    0    0  0.86682354180E+02 -0.68702613526E+03  0.48987427927E+03  0.11000022001E+04  0.70036368388E+03 0.  0.
    5000001    2    3    3    0    0 -0.35526128591E+02 -0.82512359790E+02  0.74569383741E+02  0.20398324147E+03  0.16726677637E+03 0.  0.
        -11    1    4    4    0    0 -0.78835174405E+02  0.13750827619E+02  0.28153607273E+02  0.84833340064E+02  0.51100000000E-03 0. -1.
     200002    1    4    4    0    0  0.43309045814E+02 -0.96263187408E+02  0.46415776467E+02  0.11914990140E+03  0.30000000000E+02 0. -1.
     200000    1    3    3    0    0  0.12220848277E+03 -0.60451377547E+03  0.41530489553E+03  0.89601895864E+03  0.50000000000E+03 0. -1.
    -200001    1    1    2    0    0 -0.86682354180E+02  0.68702613526E+03 -0.19597174640E+03  0.10039540161E+04  0.70000000000E+03 0.  1.
<mgrwt>
<rscale>  0 0.20833274E+04</rscale>
<asrwt>0</asrwt>
<pdfrwt beam="1">  1        2 0.12928955E+00 0.20833274E+04</pdfrwt>
<pdfrwt beam="2">  1       -2 0.17127562E+00 0.20833274E+04</pdfrwt>
<totfact> 0.62397003E+00</totfact>
</mgrwt>
</event>
<event>
 8    1  0.2654897E-009  0.1601218E+04  0.7818608E-02  0.8819800E-01
          2   -1    0    0  501    0  0.00000000000E+00  0.00000000000E+00  0.16403519389E+04  0.16403519389E+04  0.25500000000E-02 0. -1.
         -2   -1    0    0    0  501 -0.00000000000E+00 -0.00000000000E+00 -0.39075427490E+03  0.39075427491E+03  0.25500000000E-02 0.  1.
     200001    2    1    2    0    0 -0.30067690063E+03 -0.22924008525E+03  0.73930965119E+03  0.10859334935E+04  0.69979652515E+03 0.  0.
    5000001    2    3    3    0    0  0.41095426289E+01 -0.12320376702E+03  0.46878140583E+02  0.17291658581E+03  0.11183259380E+03 0.  0.
        -11    1    4    4    0    0 -0.84141794730E+01 -0.13708168286E+02  0.56066375772E+02  0.58327958874E+02  0.51100000000E-03 0. -1.
     200002    1    4    4    0    0  0.12523722102E+02 -0.10949559873E+03 -0.91882351893E+01  0.11458862693E+03  0.30000000000E+02 0. -1.
     200000    1    3    3    0    0 -0.30478644325E+03 -0.10603631824E+03  0.69243151061E+03  0.91301690765E+03  0.50000000000E+03 0. -1.
    -200001    1    1    2    0    0  0.30067690063E+03  0.22924008525E+03  0.51028801277E+03  0.94517272032E+03  0.70000000000E+03 0.  1.
<mgrwt>
<rscale>  0 0.16012177E+04</rscale>
<asrwt>0</asrwt>
<pdfrwt beam="1">  1        2 0.23433600E+00 0.16012177E+04</pdfrwt>
<pdfrwt beam="2">  1       -2 0.55822038E-01 0.16012177E+04</pdfrwt>
<totfact> 0.35685414E+01</totfact>
</mgrwt>
</event>
<event>
 8    1  0.2654897E-009  0.3414919E+04  0.7818608E-02  0.8134254E-01
         -2   -1    0    0    0  501 -0.00000000000E+00  0.00000000000E+00  0.93022058748E+03  0.93022058749E+03  0.25500000000E-02 0. -1.
          2   -1    0    0  501    0  0.00000000000E+00 -0.00000000000E+00 -0.31341139385E+04  0.31341139386E+04  0.25500000000E-02 0.  1.
     200001    2    1    2    0    0  0.13469688158E+04  0.77853937854E+03 -0.10268714371E+04  0.19916963182E+04  0.70138485930E+03 0.  0.
    5000001    2    3    3    0    0  0.36970027587E+03  0.23640279980E+03 -0.32099043685E+03  0.57846107391E+03  0.19752917695E+03 0.  0.
        -11    1    4    4    0    0  0.21234925167E+03  0.28455868176E+02 -0.18378419803E+03  0.28227393179E+03  0.51100000000E-03 0. -1.
     200002    1    4    4    0    0  0.15735102419E+03  0.20794693163E+03 -0.13720623882E+03  0.29618714212E+03  0.30000000000E+02 0. -1.
     200000    1    3    3    0    0  0.97726853994E+03  0.54213657873E+03 -0.70588100028E+03  0.14132352443E+04  0.50000000000E+03 0.  1.
    -200001    1    1    2    0    0 -0.13469688158E+04 -0.77853937854E+03 -0.11770219139E+04  0.20726382078E+04  0.70000000000E+03 0. -1.
<mgrwt>
<rscale>  0 0.34149186E+04</rscale>
<asrwt>0</asrwt>
<pdfrwt beam="1">  1        2 0.44773056E+00 0.34149186E+04</pdfrwt>
<pdfrwt beam="2">  1       -2 0.13288866E+00 0.34149186E+04</pdfrwt>
<totfact> 0.67824581E-01</totfact>
</mgrwt>
</event>
<event>
 8    1  0.2654897E-009  0.1879269E+04  0.7818608E-02  0.8665245E-01
         -2   -1    0    0    0  501 -0.00000000000E+00  0.00000000000E+00  0.14388622599E+04  0.14388622599E+04  0.25500000000E-02 0. -1.
          2   -1    0    0  501    0  0.00000000000E+00 -0.00000000000E+00 -0.61361908599E+03  0.61361908599E+03  0.25500000000E-02 0.  1.
     200001    2    1    2    0    0  0.56997371788E+03  0.33323556122E+02  0.12937308243E+03  0.91221134162E+03  0.69957961580E+03 0.  0.
    5000001    2    3    3    0    0  0.57464327825E+02  0.38716060081E+02  0.67409601271E+02  0.19350804610E+03  0.16763122406E+03 0.  0.
        -11    1    4    4    0    0  0.86267803960E+02 -0.37641181169E+02  0.29328485394E+02  0.98585762540E+02  0.51100000000E-03 0. -1.
     200002    1    4    4    0    0 -0.28803476135E+02  0.76357241250E+02  0.38081115878E+02  0.94922283555E+02  0.30000000000E+02 0. -1.
     200000    1    3    3    0    0  0.51250939006E+03 -0.53925039582E+01  0.61963481159E+02  0.71870329552E+03  0.50000000000E+03 0. -1.
    -200001    1    1    2    0    0 -0.56997371788E+03 -0.33323556122E+02  0.69587009151E+03  0.11402700043E+04  0.70000000000E+03 0.  1.
<mgrwt>
<rscale>  0 0.18792694E+04</rscale>
<asrwt>0</asrwt>
<pdfrwt beam="1">  1        2 0.87659870E-01 0.18792694E+04</pdfrwt>
<pdfrwt beam="2">  1       -2 0.20555175E+00 0.18792694E+04</pdfrwt>
<totfact> 0.60782108E+00</totfact>
</mgrwt>
</event>
<event>
 8    1  0.2654897E-009  0.1508100E+04  0.7818608E-02  0.8879084E-01
         -2   -1    0    0    0  501 -0.00000000000E+00  0.00000000000E+00  0.66342543092E+03  0.66342543093E+03  0.25500000000E-02 0. -1.
          2   -1    0    0  501    0  0.00000000000E+00 -0.00000000000E+00 -0.85705390497E+03  0.85705390497E+03  0.25500000000E-02 0.  1.
     200001    2    1    2    0    0 -0.42134537535E+02  0.14202649537E+03 -0.33598919492E+03  0.79094974809E+03  0.70054687228E+03 0.  0.
    5000001    2    3    3    0    0 -0.10091661844E+02  0.72425887468E+02 -0.47770542873E+02  0.20876336738E+03  0.18961215145E+03 0.  0.
        -11    1    4    4    0    0 -0.24713357219E+02  0.13173975252E+03 -0.41985896084E+02  0.14045970202E+03  0.51100000000E-03 0. -1.
     200002    1    4    4    0    0  0.14621695375E+02 -0.59313865056E+02 -0.57846467891E+01  0.68303665363E+02  0.30000000000E+02 0. -1.
     200000    1    3    3    0    0 -0.32042875691E+02  0.69600607905E+02 -0.28821865204E+03  0.58218638071E+03  0.50000000000E+03 0.  1.
    -200001    1    1    2    0    0  0.42134537535E+02 -0.14202649537E+03  0.14236072086E+03  0.72952958781E+03  0.70000000000E+03 0. -1.
<mgrwt>
<rscale>  0 0.15080999E+04</rscale>
<asrwt>0</asrwt>
<pdfrwt beam="1">  1        2 0.12243627E+00 0.15080999E+04</pdfrwt>
<pdfrwt beam="2">  1       -2 0.94775062E-01 0.15080999E+04</pdfrwt>
<totfact> 0.31495546E+01</totfact>
</mgrwt>
</event>
<event>
 8    1  0.2654897E-009  0.2059538E+04  0.7818608E-02  0.8579280E-01
          2   -1    0    0  501    0  0.00000000000E+00  0.00000000000E+00  0.98663714450E+03  0.98663714450E+03  0.25500000000E-02 0.  1.
         -2   -1    0    0    0  501 -0.00000000000E+00 -0.00000000000E+00 -0.10747864834E+04  0.10747864835E+04  0.25500000000E-02 0. -1.
     200001    2    1    2    0    0 -0.45789645760E+03 -0.60033711766E+03 -0.40744033054E+02  0.10307340123E+04  0.70048462312E+03 0.  0.
    5000001    2    3    3    0    0 -0.15417727266E+03 -0.13946934903E+03 -0.20173247437E+01  0.28498324874E+03  0.19490780318E+03 0.  0.
        -11    1    4    4    0    0 -0.12546384309E+03  0.13423018140E+02 -0.80556523348E+01  0.12643673072E+03  0.51100000000E-03 0. -1.
     200002    1    4    4    0    0 -0.28713429567E+02 -0.15289236717E+03  0.60383275911E+01  0.15854651802E+03  0.30000000000E+02 0. -1.
     200000    1    3    3    0    0 -0.30371918494E+03 -0.46086776862E+03 -0.38726708310E+02  0.74575076359E+03  0.50000000000E+03 0. -1.
    -200001    1    1    2    0    0  0.45789645760E+03  0.60033711766E+03 -0.47405305896E+02  0.10306896156E+04  0.70000000000E+03 0.  1.
<mgrwt>
<rscale>  0 0.20595381E+04</rscale>
<asrwt>0</asrwt>
<pdfrwt beam="1">  1        2 0.14094816E+00 0.20595381E+04</pdfrwt>
<pdfrwt beam="2">  1       -2 0.15354093E+00 0.20595381E+04</pdfrwt>
<totfact> 0.74820026E+00</totfact>
</mgrwt>
</event>
<event>
 8    1  0.2654897E-009  0.1698138E+04  0.7818608E-02  0.8762427E-01
          2   -1    0    0  501    0  0.00000000000E+00  0.00000000000E+00  0.95277005560E+03  0.95277005561E+03  0.25500000000E-02 0.  1.
         -2   -1    0    0    0  501 -0.00000000000E+00 -0.00000000000E+00 -0.75665514394E+03  0.75665514395E+03  0.25500000000E-02 0. -1.
     200001    2    1    2    0    0 -0.12028923804E+03 -0.21799996590E+03  0.51198946980E+03  0.90210232585E+03  0.69975846062E+03 0.  0.
    5000001    2    3    3    0    0  0.56980947995E+02 -0.11090026942E+02  0.14539356396E+03  0.22488079646E+03  0.16143812141E+03 0.  0.
        -11    1    4    4    0    0  0.68876116194E+02  0.24767860797E+02  0.16010750111E+01  0.73211541111E+02  0.51100000000E-03 0. -1.
     200002    1    4    4    0    0 -0.11895168199E+02 -0.35857887739E+02  0.14379248895E+03  0.15166925535E+03  0.30000000000E+02 0. -1.
     200000    1    3    3    0    0 -0.17727018603E+03 -0.20690993896E+03  0.36659590584E+03  0.67722152939E+03  0.50000000000E+03 0.  1.
    -200001    1    1    2    0    0  0.12028923804E+03  0.21799996590E+03 -0.31587455814E+03  0.80732287370E+03  0.70000000000E+03 0. -1.
<mgrwt>
<rscale>  0 0.16981382E+04</rscale>
<asrwt>0</asrwt>
<pdfrwt beam="1">  1        2 0.13611001E+00 0.16981382E+04</pdfrwt>
<pdfrwt beam="2">  1       -2 0.10809359E+00 0.16981382E+04</pdfrwt>
<totfact> 0.19669068E+01</totfact>
</mgrwt>
</event>
<event>
 8    1  0.2863229E-009  0.1586173E+04  0.7818608E-02  0.8829088E-01
          2   -1    0    0  501    0  0.00000000000E+00  0.00000000000E+00  0.13988984485E+04  0.13988984485E+04  0.25500000000E-02 0.  1.
         -2   -1    0    0    0  501 -0.00000000000E+00 -0.00000000000E+00 -0.44962954306E+03  0.44962954307E+03  0.25500000000E-02 0. -1.
     200001    2    1    2    0    0  0.36330080128E+03 -0.16248964410E+00  0.57112702247E+03  0.97389733682E+03  0.70021600114E+03 0.  0.
    5000001    2    3    3    0    0  0.50840516885E+02  0.80910243472E+00  0.83679576956E+02  0.20888924180E+03  0.18451837560E+03 0.  0.
        -11    1    4    4    0    0  0.62958183408E+02  0.38285961065E+02 -0.34049996349E+02  0.81172347043E+02  0.51100000000E-03 0. -1.
     200002    1    4    4    0    0 -0.12117666523E+02 -0.37476858630E+02  0.11772957331E+03  0.12771689475E+03  0.30000000000E+02 0. -1.
     200000    1    3    3    0    0  0.31246028439E+03 -0.97159207882E+00  0.48744744552E+03  0.76500809502E+03  0.50000000000E+03 0.  1.
    -200001    1    1    2    0    0 -0.36330080128E+03  0.16248964410E+00  0.37814188300E+03  0.87463065479E+03  0.70000000000E+03 0. -1.
<mgrwt>
<rscale>  0 0.15861728E+04</rscale>
<asrwt>0</asrwt>
<pdfrwt beam="1">  1        2 0.19984263E+00 0.15861728E+04</pdfrwt>
<pdfrwt beam="2">  1       -2 0.64232793E-01 0.15861728E+04</pdfrwt>
<totfact> 0.35690714E+01</totfact>
</mgrwt>
</event>
<event>
 8    1  0.2654897E-009  0.2380115E+04  0.7818608E-02  0.8446986E-01
         -2   -1    0    0    0  501 -0.00000000000E+00  0.00000000000E+00  0.14438559758E+04  0.14438559758E+04  0.25500000000E-02 0. -1.
          2   -1    0    0  501    0  0.00000000000E+00 -0.00000000000E+00 -0.98087150938E+03  0.98087150938E+03  0.25500000000E-02 0.  1.
     200001    2    1    2    0    0 -0.42503262619E+03  0.86301642714E+03  0.25345847844E+03  0.12166913820E+04  0.70046172771E+03 0.  0.
    5000001    2    3    3    0    0 -0.16612207034E+03  0.21613947562E+03  0.50221510814E+02  0.33533462604E+03  0.18871750341E+03 0.  0.
        -11    1    4    4    0    0 -0.51159472306E+02 -0.16071257298E+02 -0.31250289730E+02  0.62065751637E+02  0.51100000000E-03 0. -1.
     200002    1    4    4    0    0 -0.11496259804E+03  0.23221073292E+03  0.81471800544E+02  0.27326887440E+03  0.30000000000E+02 0. -1.
     200000    1    3    3    0    0 -0.25891055584E+03  0.64687695151E+03  0.20323696763E+03  0.88135675599E+03  0.50000000000E+03 0.  1.
    -200001    1    1    2    0    0  0.42503262619E+03 -0.86301642714E+03  0.20952598795E+03  0.12080361031E+04  0.70000000000E+03 0. -1.
<mgrwt>
<rscale>  0 0.23801153E+04</rscale>
<asrwt>0</asrwt>
<pdfrwt beam="1">  1        2 0.14012450E+00 0.23801153E+04</pdfrwt>
<pdfrwt beam="2">  1       -2 0.20626514E+00 0.23801153E+04</pdfrwt>
<totfact> 0.31621867E+00</totfact>
</mgrwt>
</event>
<event>
 8    1  0.2654897E-009  0.2045864E+04  0.7818608E-02  0.8585473E-01
          2   -1    0    0  501    0  0.00000000000E+00  0.00000000000E+00  0.10859500390E+04  0.10859500390E+04  0.25500000000E-02 0.  1.
         -2   -1    0    0    0  501 -0.00000000000E+00 -0.00000000000E+00 -0.96357083368E+03  0.96357083368E+03  0.25500000000E-02 0. -1.
     200001    2    1    2    0    0 -0.46576431155E+03  0.17902566360E+03  0.61642223854E+03  0.10580244779E+04  0.70032338067E+03 0.  0.
    5000001    2    3    3    0    0 -0.16591815182E+03  0.83088918330E+02  0.20380386590E+03  0.33735430365E+03  0.19452328648E+03 0.  0.
        -11    1    4    4    0    0 -0.18399835185E+02 -0.26411457979E+02  0.13517704286E+03  0.13895665499E+03  0.51100000000E-03 0. -1.
     200002    1    4    4    0    0 -0.14751831664E+03  0.10950037631E+03  0.68626823031E+02  0.19839764866E+03  0.30000000000E+02 0. -1.
     200000    1    3    3    0    0 -0.29984615973E+03  0.95936745273E+02  0.41261837264E+03  0.72067017424E+03  0.50000000000E+03 0.  1.
    -200001    1    1    2    0    0  0.46576431155E+03 -0.17902566360E+03 -0.49404303324E+03  0.99149639477E+03  0.70000000000E+03 0. -1.
<mgrwt>
<rscale>  0 0.20458639E+04</rscale>
<asrwt>0</asrwt>
<pdfrwt beam="1">  1        2 0.15513572E+00 0.20458639E+04</pdfrwt>
<pdfrwt beam="2">  1       -2 0.13765298E+00 0.20458639E+04</pdfrwt>
<totfact> 0.86868146E+00</totfact>
</mgrwt>
</event>
<event>
 8    1  0.2654897E-009  0.1810204E+04  0.7818608E-02  0.8700892E-01
         -2   -1    0    0    0  501 -0.00000000000E+00  0.00000000000E+00  0.42369812871E+03  0.42369812872E+03  0.25500000000E-02 0. -1.
          2   -1    0    0  501    0  0.00000000000E+00 -0.00000000000E+00 -0.19334744667E+04  0.19334744667E+04  0.25500000000E-02 0.  1.
     200001    2    1    2    0    0  0.44850348372E+03  0.19730845052E+03 -0.36742338695E+03  0.93061861316E+03  0.70068898830E+03 0.  0.
    5000001    2    3    3    0    0  0.28008218805E+03  0.11201215743E+03 -0.19144197128E+03  0.36793695439E+03  0.87947817280E+02 0.  0.
        -11    1    4    4    0    0  0.18962242052E+03  0.10527812552E+03 -0.11444194117E+03  0.24522867690E+03  0.51100000000E-03 0. -1.
     200002    1    4    4    0    0  0.90459767528E+02  0.67340319141E+01 -0.77000030113E+02  0.12270827749E+03  0.30000000000E+02 0.  1.
     200000    1    3    3    0    0  0.16842129568E+03  0.85296293087E+02 -0.17598141567E+03  0.56268165877E+03  0.50000000000E+03 0. -1.
    -200001    1    1    2    0    0 -0.44850348372E+03 -0.19730845052E+03 -0.11423529511E+04  0.14265539823E+04  0.70000000000E+03 0.  1.
<mgrwt>
<rscale>  0 0.18102039E+04</rscale>
<asrwt>0</asrwt>
<pdfrwt beam="1">  1        2 0.27621063E+00 0.18102039E+04</pdfrwt>
<pdfrwt beam="2">  1       -2 0.60528305E-01 0.18102039E+04</pdfrwt>
<totfact> 0.20880768E+01</totfact>
</mgrwt>
</event>
<event>
 8    1  0.2654897E-009  0.1799906E+04  0.7818608E-02  0.8706349E-01
         -2   -1    0    0    0  501 -0.00000000000E+00  0.00000000000E+00  0.28112424524E+03  0.28112424525E+03  0.25500000000E-02 0. -1.
          2   -1    0    0  501    0  0.00000000000E+00 -0.00000000000E+00 -0.28809878817E+04  0.28809878817E+04  0.25500000000E-02 0.  1.
     200001    2    1    2    0    0  0.52744531286E+03  0.12421659178E+03 -0.15815625168E+04  0.18128288024E+04  0.70098498726E+03 0.  0.
    5000001    2    3    3    0    0  0.11795032535E+03 -0.88155488988E+02 -0.36242808905E+03  0.41673539630E+03  0.14363356611E+03 0.  0.
        -11    1    4    4    0    0  0.19180824308E+02  0.37532847318E+02 -0.59662350923E+02  0.73049399497E+02  0.51100000000E-03 0. -1.
     200002    1    4    4    0    0  0.98769501046E+02 -0.12568833631E+03 -0.30276573812E+03  0.34368599681E+03  0.30000000000E+02 0. -1.
     200000    1    3    3    0    0  0.40949498751E+03  0.21237208077E+03 -0.12191344278E+04  0.13960934061E+04  0.50000000000E+03 0.  1.
    -200001    1    1    2    0    0 -0.52744531286E+03 -0.12421659178E+03 -0.10183011196E+04  0.13492833246E+04  0.70000000000E+03 0.  1.
<mgrwt>
<rscale>  0 0.17999062E+04</rscale>
<asrwt>0</asrwt>
<pdfrwt beam="1">  1        2 0.41156968E+00 0.17999062E+04</pdfrwt>
<pdfrwt beam="2">  1       -2 0.40160608E-01 0.17999062E+04</pdfrwt>
<totfact> 0.15284685E+01</totfact>
</mgrwt>
</event>
<event>
 8    1  0.2654897E-009  0.1694889E+04  0.7818608E-02  0.8764285E-01
          2   -1    0    0  501    0  0.00000000000E+00  0.00000000000E+00  0.68858138980E+03  0.68858138980E+03  0.25500000000E-02 0.  1.
         -2   -1    0    0    0  501 -0.00000000000E+00 -0.00000000000E+00 -0.10429588233E+04  0.10429588233E+04  0.25500000000E-02 0. -1.
     200001    2    1    2    0    0 -0.23060976793E+03  0.30998322277E+03  0.10869564254E+03  0.80757747725E+03  0.70078254515E+03 0.  0.
    5000001    2    3    3    0    0 -0.11403897277E+02  0.18163056770E+02  0.75166879003E+02  0.18763038192E+03  0.17057301961E+03 0.  0.
        -11    1    4    4    0    0  0.28520868766E+02 -0.28237400047E+02  0.10560526233E+03  0.11297460843E+03  0.51100000000E-03 0. -1.
     200002    1    4    4    0    0 -0.39924766044E+02  0.46400456817E+02 -0.30438383330E+02  0.74655773496E+02  0.30000000000E+02 0. -1.
     200000    1    3    3    0    0 -0.21920587065E+03  0.29182016600E+03  0.33528763540E+02  0.61994709532E+03  0.50000000000E+03 0.  1.
    -200001    1    1    2    0    0  0.23060976793E+03 -0.30998322277E+03 -0.46307307602E+03  0.92396273583E+03  0.70000000000E+03 0. -1.
<mgrwt>
<rscale>  0 0.16948888E+04</rscale>
<asrwt>0</asrwt>
<pdfrwt beam="1">  1        2 0.98368770E-01 0.16948888E+04</pdfrwt>
<pdfrwt beam="2">  1       -2 0.14899412E+00 0.16948888E+04</pdfrwt>
<totfact> 0.13365678E+01</totfact>
</mgrwt>
</event>
<event>
 8    1  0.2654897E-009  0.1504015E+04  0.7818608E-02  0.8881788E-01
          2   -1    0    0  501    0  0.00000000000E+00  0.00000000000E+00  0.12250503347E+04  0.12250503347E+04  0.25500000000E-02 0.  1.
         -2   -1    0    0    0  501 -0.00000000000E+00 -0.00000000000E+00 -0.46162592823E+03  0.46162592823E+03  0.25500000000E-02 0. -1.
     200001    2    1    2    0    0 -0.22533433839E+03 -0.19998904349E+01  0.21006403042E+03  0.76635715014E+03  0.70170992659E+03 0.  0.
    5000001    2    3    3    0    0 -0.18484154088E+02 -0.40815634026E+02  0.45824996365E+02  0.19955196226E+03  0.18898009265E+03 0.  0.
        -11    1    4    4    0    0  0.40069045766E+02 -0.61764560729E+02 -0.44372380020E+02  0.85961023142E+02  0.51100000000E-03 0. -1.
     200002    1    4    4    0    0 -0.58553199854E+02  0.20948926703E+02  0.90197376386E+02  0.11359093912E+03  0.30000000000E+02 0. -1.
     200000    1    3    3    0    0 -0.20685018430E+03  0.38815743591E+02  0.16423903406E+03  0.56680518788E+03  0.50000000000E+03 0. -1.
    -200001    1    1    2    0    0  0.22533433839E+03  0.19998904349E+01  0.55336037608E+03  0.92031911283E+03  0.70000000000E+03 0.  1.
<mgrwt>
<rscale>  0 0.15040146E+04</rscale>
<asrwt>0</asrwt>
<pdfrwt beam="1">  1        2 0.17500719E+00 0.15040146E+04</pdfrwt>
<pdfrwt beam="2">  1       -2 0.65946562E-01 0.15040146E+04</pdfrwt>
<totfact> 0.42346250E+01</totfact>
</mgrwt>
</event>
<event>
 8    1  0.2654897E-009  0.1789356E+04  0.7818608E-02  0.8711980E-01
          2   -1    0    0  501    0  0.00000000000E+00  0.00000000000E+00  0.27027148966E+04  0.27027148966E+04  0.25500000000E-02 0.  1.
         -2   -1    0    0    0  501 -0.00000000000E+00 -0.00000000000E+00 -0.29616470214E+03  0.29616470215E+03  0.25500000000E-02 0. -1.
     200001    2    1    2    0    0  0.38034877597E+03 -0.23621490366E+03  0.17586446400E+04  0.19451982998E+04  0.70035903933E+03 0.  0.
    5000001    2    3    3    0    0  0.40042552432E+01 -0.74229130752E+02  0.22031127250E+03  0.27656288780E+03  0.14974637292E+03 0.  0.
        -11    1    4    4    0    0 -0.90488832493E+01 -0.33564452794E+02 -0.13279135383E+02  0.37212769532E+02  0.51100000000E-03 0. -1.
     200002    1    4    4    0    0  0.13053138492E+02 -0.40664677958E+02  0.23359040789E+03  0.23935011827E+03  0.30000000000E+02 0. -1.
     200000    1    3    3    0    0  0.37634452072E+03 -0.16198577291E+03  0.15383333675E+04  0.16686354120E+04  0.50000000000E+03 0.  1.
    -200001    1    1    2    0    0 -0.38034877597E+03  0.23621490366E+03  0.64790555448E+03  0.10536812989E+04  0.70000000000E+03 0. -1.
<mgrwt>
<rscale>  0 0.17893560E+04</rscale>
<asrwt>0</asrwt>
<pdfrwt beam="1">  1        2 0.38610214E+00 0.17893560E+04</pdfrwt>
<pdfrwt beam="2">  1       -2 0.42309241E-01 0.17893560E+04</pdfrwt>
<totfact> 0.17256200E+01</totfact>
</mgrwt>
</event>
<event>
 8    1  0.2654897E-009  0.2292406E+04  0.7818608E-02  0.8480921E-01
          2   -1    0    0  501    0  0.00000000000E+00  0.00000000000E+00  0.24318538944E+04  0.24318538944E+04  0.25500000000E-02 0.  1.
         -2   -1    0    0    0  501 -0.00000000000E+00 -0.00000000000E+00 -0.54023867038E+03  0.54023867038E+03  0.25500000000E-02 0. -1.
     200001    2    1    2    0    0 -0.46187310377E+03 -0.23188218795E+02 -0.68308584635E+02  0.84015312071E+03  0.69808792141E+03 0.  0.
    5000001    2    3    3    0    0 -0.20847448859E+03 -0.38709838094E+02  0.14942638590E+02  0.27324700413E+03  0.17169909394E+03 0.  0.
        -11    1    4    4    0    0 -0.41160356174E+01  0.46838485711E+02  0.16041821753E+02  0.49680232873E+02  0.51100000000E-03 0. -1.
     200002    1    4    4    0    0 -0.20435845297E+03 -0.85548323804E+02 -0.10991831636E+01  0.22356677126E+03  0.30000000000E+02 0.  1.
     200000    1    3    3    0    0 -0.25339861519E+03  0.15521619298E+02 -0.83251223225E+02  0.56690611658E+03  0.50000000000E+03 0. -1.
    -200001    1    1    2    0    0  0.46187310377E+03  0.23188218795E+02  0.19599238086E+04  0.21319394441E+04  0.70000000000E+03 0.  1.
<mgrwt>
<rscale>  0 0.22924062E+04</rscale>
<asrwt>0</asrwt>
<pdfrwt beam="1">  1        2 0.34740770E+00 0.22924062E+04</pdfrwt>
<pdfrwt beam="2">  1       -2 0.77176952E-01 0.22924062E+04</pdfrwt>
<totfact> 0.65382562E+00</totfact>
</mgrwt>
</event>
<event>
 8    1  0.2654897E-009  0.2004611E+04  0.7818608E-02  0.8604468E-01
         -2   -1    0    0    0  501 -0.00000000000E+00  0.00000000000E+00  0.40790337323E+03  0.40790337323E+03  0.25500000000E-02 0. -1.
          2   -1    0    0  501    0  0.00000000000E+00 -0.00000000000E+00 -0.24628780176E+04  0.24628780176E+04  0.25500000000E-02 0.  1.
     200001    2    1    2    0    0  0.26877665865E+02  0.31559993163E+03 -0.10525399476E+03  0.77513439353E+03  0.69959216609E+03 0.  0.
    5000001    2    3    3    0    0  0.45710339851E+02  0.91816884274E+02 -0.89081957504E+02  0.22677770607E+03  0.18158402301E+03 0.  0.
        -11    1    4    4    0    0  0.26561830888E+02 -0.47441784348E+02  0.56022710078E+01  0.54659301156E+02  0.51100000000E-03 0. -1.
     200002    1    4    4    0    0  0.19148508963E+02  0.13925866862E+03 -0.94684228511E+02  0.17211840491E+03  0.30000000000E+02 0. -1.
     200000    1    3    3    0    0 -0.18832673986E+02  0.22378304736E+03 -0.16172037255E+02  0.54835668746E+03  0.50000000000E+03 0. -1.
    -200001    1    1    2    0    0 -0.26877665865E+02 -0.31559993163E+03 -0.19497206496E+04  0.20956469973E+04  0.70000000000E+03 0.  1.
<mgrwt>
<rscale>  0 0.20046109E+04</rscale>
<asrwt>0</asrwt>
<pdfrwt beam="1">  1        2 0.35183971E+00 0.20046109E+04</pdfrwt>
<pdfrwt beam="2">  1       -2 0.58271912E-01 0.20046109E+04</pdfrwt>
<totfact> 0.11841544E+01</totfact>
</mgrwt>
</event>
<event>
 8    1  0.2654897E-009  0.1884017E+04  0.7818608E-02  0.8662853E-01
          2   -1    0    0  501    0  0.00000000000E+00  0.00000000000E+00  0.14672715035E+04  0.14672715035E+04  0.25500000000E-02 0.  1.
         -2   -1    0    0    0  501 -0.00000000000E+00 -0.00000000000E+00 -0.60478214656E+03  0.60478214656E+03  0.25500000000E-02 0. -1.
     200001    2    1    2    0    0 -0.55929278432E+03  0.15182103047E+03  0.70341784019E+03  0.11494693497E+04  0.70044634631E+03 0.  0.
    5000001    2    3    3    0    0 -0.18736038990E+03 -0.28668430366E+02  0.30302807142E+03  0.38709010125E+03  0.14861675483E+03 0.  0.
        -11    1    4    4    0    0 -0.35112275420E+02 -0.70844630098E+02  0.83862318976E+02  0.11525936857E+03  0.51100000000E-03 0. -1.
     200002    1    4    4    0    0 -0.15224811448E+03  0.42176199732E+02  0.21916575244E+03  0.27183073268E+03  0.30000000000E+02 0. -1.
     200000    1    3    3    0    0 -0.37193239442E+03  0.18048946084E+03  0.40038976878E+03  0.76237924843E+03  0.50000000000E+03 0.  1.
    -200001    1    1    2    0    0  0.55929278432E+03 -0.15182103047E+03  0.15907151675E+03  0.92258430039E+03  0.70000000000E+03 0. -1.
<mgrwt>
<rscale>  0 0.18840166E+04</rscale>
<asrwt>0</asrwt>
<pdfrwt beam="1">  1        2 0.20961021E+00 0.18840166E+04</pdfrwt>
<pdfrwt beam="2">  1       -2 0.86397449E-01 0.18840166E+04</pdfrwt>
<totfact> 0.16627055E+01</totfact>
</mgrwt>
</event>
<event>
 8    1  0.2654897E-009  0.1622082E+04  0.7818608E-02  0.8807096E-01
          2   -1    0    0  501    0  0.00000000000E+00  0.00000000000E+00  0.29923597459E+04  0.29923597459E+04  0.25500000000E-02 0.  1.
         -2   -1    0    0    0  501 -0.00000000000E+00 -0.00000000000E+00 -0.21982234684E+03  0.21982234685E+03  0.25500000000E-02 0. -1.
     200001    2    1    2    0    0  0.29030591033E+03 -0.90632268715E+02  0.84802042903E+03  0.11418542690E+04  0.70157023452E+03 0.  0.
    5000001    2    3    3    0    0  0.17391507030E+03 -0.68879976725E+02  0.14979978099E+03  0.27494477942E+03  0.13477297382E+03 0.  0.
        -11    1    4    4    0    0  0.15761251532E+03 -0.16652114725E+02  0.14061113039E+03  0.21187375463E+03  0.51100000000E-03 0. -1.
     200002    1    4    4    0    0  0.16302554982E+02 -0.52227862000E+02  0.91886506042E+01  0.63071024789E+02  0.30000000000E+02 0. -1.
     200000    1    3    3    0    0  0.11639084003E+03 -0.21752291990E+02  0.69822064803E+03  0.86690948962E+03  0.50000000000E+03 0. -1.
    -200001    1    1    2    0    0 -0.29030591033E+03  0.90632268715E+02  0.19245169700E+04  0.20703278237E+04  0.70000000000E+03 0.  1.
<mgrwt>
<rscale>  0 0.16220820E+04</rscale>
<asrwt>0</asrwt>
<pdfrwt beam="1">  1        2 0.42747992E+00 0.16220820E+04</pdfrwt>
<pdfrwt beam="2">  1       -2 0.31403196E-01 0.16220820E+04</pdfrwt>
<totfact> 0.21581880E+01</totfact>
</mgrwt>
</event>
<event>
 8    1  0.2654897E-009  0.1566761E+04  0.7818608E-02  0.8841232E-01
          2   -1    0    0  501    0  0.00000000000E+00  0.00000000000E+00  0.69801699933E+03  0.69801699934E+03  0.25500000000E-02 0.  1.
         -2   -1    0    0    0  501 -0.00000000000E+00 -0.00000000000E+00 -0.87918321381E+03  0.87918321381E+03  0.25500000000E-02 0. -1.
     200001    2    1    2    0    0  0.51897306719E+02 -0.24119015246E+03 -0.34046770114E+03  0.81809351199E+03  0.70177825469E+03 0.  0.
    5000001    2    3    3    0    0  0.54851007015E+02  0.74094119119E+02 -0.14321278754E+03  0.19493831689E+03  0.94828652931E+02 0.  0.
        -11    1    4    4    0    0 -0.14420217817E+02 -0.15219649410E+01  0.20156030133E+01  0.14639730699E+02  0.51100000000E-03 0. -1.
     200002    1    4    4    0    0  0.69271224832E+02  0.75616084060E+02 -0.14522839056E+03  0.18029858619E+03  0.30000000000E+02 0. -1.
     200000    1    3    3    0    0 -0.29537002968E+01 -0.31528427158E+03 -0.19725491360E+03  0.62315519511E+03  0.50000000000E+03 0. -1.
    -200001    1    1    2    0    0 -0.51897306719E+02  0.24119015246E+03  0.15930148666E+03  0.75910670116E+03  0.70000000000E+03 0.  1.
<mgrwt>
<rscale>  0 0.15667608E+04</rscale>
<asrwt>0</asrwt>
<pdfrwt beam="1">  1        2 0.99716714E-01 0.15667608E+04</pdfrwt>
<pdfrwt beam="2">  1       -2 0.12559760E+00 0.15667608E+04</pdfrwt>
<totfact> 0.20614418E+01</totfact>
</mgrwt>
</event>
<event>
 8    1  0.2654897E-009  0.1896360E+04  0.7818608E-02  0.8656670E-01
         -2   -1    0    0    0  501 -0.00000000000E+00  0.00000000000E+00  0.82051763765E+03  0.82051763765E+03  0.25500000000E-02 0. -1.
          2   -1    0    0  501    0  0.00000000000E+00 -0.00000000000E+00 -0.10957048882E+04  0.10957048882E+04  0.25500000000E-02 0.  1.
     200001    2    1    2    0    0  0.55468202020E+03  0.26758968105E+03  0.36115689442E+02  0.93327496803E+03  0.70030096529E+03 0.  0.
    5000001    2    3    3    0    0  0.20539573548E+03  0.11927744044E+03  0.17514597771E+02  0.30530726980E+03  0.19102683557E+03 0.  0.
        -11    1    4    4    0    0  0.34650266344E+02  0.96587011911E+02 -0.54533131822E+02  0.11620479463E+03  0.51100000000E-03 0. -1.
     200002    1    4    4    0    0  0.17074546914E+03  0.22690428530E+02  0.72047729593E+02  0.18910247517E+03  0.30000000000E+02 0. -1.
     200000    1    3    3    0    0  0.34928628472E+03  0.14831224061E+03  0.18601091671E+02  0.62796769823E+03  0.50000000000E+03 0. -1.
    -200001    1    1    2    0    0 -0.55468202020E+03 -0.26758968105E+03 -0.31130293996E+03  0.98294755779E+03  0.70000000000E+03 0. -1.
<mgrwt>
<rscale>  0 0.18963599E+04</rscale>
<asrwt>0</asrwt>
<pdfrwt beam="1">  1        2 0.15652927E+00 0.18963599E+04</pdfrwt>
<pdfrwt beam="2">  1       -2 0.11721681E+00 0.18963599E+04</pdfrwt>
<totfact> 0.13003044E+01</totfact>
</mgrwt>
</event>
<event>
 8    1  0.2654897E-009  0.1634275E+04  0.7818608E-02  0.8799764E-01
          2   -1    0    0  501    0  0.00000000000E+00  0.00000000000E+00  0.25693040996E+04  0.25693040996E+04  0.25500000000E-02 0.  1.
         -2   -1    0    0    0  501 -0.00000000000E+00 -0.00000000000E+00 -0.25988099452E+03  0.25988099453E+03  0.25500000000E-02 0. -1.
     200001    2    1    2    0    0 -0.10232773025E+03  0.40864654516E+03  0.12053839672E+04  0.14557349198E+04  0.69910706277E+03 0.  0.
    5000001    2    3    3    0    0 -0.81118409802E+02  0.19602256260E+03  0.24934895862E+03  0.35588868930E+03  0.13955935849E+03 0.  0.
        -11    1    4    4    0    0  0.14636151868E+02  0.11779562547E+03  0.16489980475E+03  0.20317965432E+03  0.51100000000E-03 0. -1.
     200002    1    4    4    0    0 -0.95754561670E+02  0.78226937133E+02  0.84449153870E+02  0.15270903498E+03  0.30000000000E+02 0. -1.
     200000    1    3    3    0    0 -0.21209320448E+02  0.21262398255E+03  0.95603500854E+03  0.10998462305E+04  0.50000000000E+03 0.  1.
    -200001    1    1    2    0    0  0.10232773025E+03 -0.40864654516E+03  0.11040391379E+04  0.13734501743E+04  0.70000000000E+03 0. -1.
<mgrwt>
<rscale>  0 0.16342745E+04</rscale>
<asrwt>0</asrwt>
<pdfrwt beam="1">  1        2 0.36704343E+00 0.16342745E+04</pdfrwt>
<pdfrwt beam="2">  1       -2 0.37125857E-01 0.16342745E+04</pdfrwt>
<totfact> 0.26579735E+01</totfact>
</mgrwt>
</event>
<event>
 8    1  0.2654897E-009  0.2195558E+04  0.7818608E-02  0.8520279E-01
         -2   -1    0    0    0  501 -0.00000000000E+00  0.00000000000E+00  0.76087831042E+03  0.76087831042E+03  0.25500000000E-02 0. -1.
          2   -1    0    0  501    0  0.00000000000E+00 -0.00000000000E+00 -0.15838526741E+04  0.15838526742E+04  0.25500000000E-02 0.  1.
     200001    2    1    2    0    0 -0.61456748664E+03 -0.18407815441E+03  0.17692557621E+03  0.96582640033E+03  0.69995715118E+03 0.  0.
    5000001    2    3    3    0    0 -0.26807843169E+03 -0.42444827988E+02  0.10200288802E+03  0.33675718827E+03  0.17126939518E+03 0.  0.
        -11    1    4    4    0    0 -0.10787586354E+03 -0.89339057978E+02  0.90517172452E+02  0.16676938485E+03  0.51100000000E-03 0. -1.
     200002    1    4    4    0    0 -0.16020256815E+03  0.46894229990E+02  0.11485715572E+02  0.16998780341E+03  0.30000000000E+02 0. -1.
     200000    1    3    3    0    0 -0.34648905495E+03 -0.14163332642E+03  0.74922688184E+02  0.62906921206E+03  0.50000000000E+03 0. -1.
    -200001    1    1    2    0    0  0.61456748664E+03  0.18407815441E+03 -0.99989993994E+03  0.13789045842E+04  0.70000000000E+03 0.  1.
<mgrwt>
<rscale>  0 0.21955584E+04</rscale>
<asrwt>0</asrwt>
<pdfrwt beam="1">  1        2 0.22626467E+00 0.21955584E+04</pdfrwt>
<pdfrwt beam="2">  1       -2 0.10869690E+00 0.21955584E+04</pdfrwt>
<totfact> 0.82006564E+00</totfact>
</mgrwt>
</event>
<event>
 8    1  0.2654897E-009  0.1886883E+04  0.7818608E-02  0.8661413E-01
         -2   -1    0    0    0  501 -0.00000000000E+00  0.00000000000E+00  0.35303529732E+03  0.35303529733E+03  0.25500000000E-02 0. -1.
          2   -1    0    0  501    0  0.00000000000E+00 -0.00000000000E+00 -0.25212250610E+04  0.25212250610E+04  0.25500000000E-02 0.  1.
     200001    2    1    2    0    0  0.22747812452E+03 -0.52373595444E+03 -0.14985049111E+04  0.17497500432E+04  0.70004471134E+03 0.  0.
    5000001    2    3    3    0    0  0.14765230330E+03 -0.22391158018E+03 -0.65430940345E+03  0.72070540261E+03  0.13913261118E+03 0.  0.
        -11    1    4    4    0    0 -0.55130097142E+01 -0.35165060178E+02 -0.21331377759E+03  0.21626313242E+03  0.51100000000E-03 0. -1.
     200002    1    4    4    0    0  0.15316531302E+03 -0.18874652000E+03 -0.44099562586E+03  0.50444227018E+03  0.30000000000E+02 0. -1.
     200000    1    3    3    0    0  0.79825821222E+02 -0.29982437427E+03 -0.84419550764E+03  0.10290446406E+04  0.50000000000E+03 0. -1.
    -200001    1    1    2    0    0 -0.22747812452E+03  0.52373595444E+03 -0.66968485259E+03  0.11245103152E+04  0.70000000000E+03 0. -1.
<mgrwt>
<rscale>  0 0.18868825E+04</rscale>
<asrwt>0</asrwt>
<pdfrwt beam="1">  1        2 0.36017500E+00 0.18868825E+04</pdfrwt>
<pdfrwt beam="2">  1       -2 0.50433615E-01 0.18868825E+04</pdfrwt>
<totfact> 0.15025513E+01</totfact>
</mgrwt>
</event>
<event>
 8    1  0.2654897E-009  0.1784930E+04  0.7818608E-02  0.8714355E-01
          2   -1    0    0  501    0  0.00000000000E+00  0.00000000000E+00  0.19464020463E+04  0.19464020463E+04  0.25500000000E-02 0. -1.
         -2   -1    0    0    0  501 -0.00000000000E+00 -0.00000000000E+00 -0.40921338120E+03  0.40921338121E+03  0.25500000000E-02 0.  1.
     200001    2    1    2    0    0  0.51404921307E+03  0.12866804954E+03  0.98109816980E+03  0.13163663239E+04  0.69961748079E+03 0.  0.
    5000001    2    3    3    0    0  0.69620134922E+02  0.58089034488E+02  0.24887311705E+03  0.32205644726E+03  0.18319723720E+03 0.  0.
        -11    1    4    4    0    0  0.52505601586E+01  0.76262068385E+02  0.23542892381E+03  0.24752828045E+03  0.51100000000E-03 0. -1.
     200002    1    4    4    0    0  0.64369574764E+02 -0.18173033897E+02  0.13444193242E+02  0.74528166811E+02  0.30000000000E+02 0. -1.
     200000    1    3    3    0    0  0.44442907814E+03  0.70579015057E+02  0.73222505276E+03  0.99430987662E+03  0.50000000000E+03 0.  1.
    -200001    1    1    2    0    0 -0.51404921307E+03 -0.12866804954E+03  0.55609049527E+03  0.10392491036E+04  0.70000000000E+03 0.  1.
<mgrwt>
<rscale>  0 0.17849300E+04</rscale>
<asrwt>0</asrwt>
<pdfrwt beam="1">  1        2 0.27805743E+00 0.17849300E+04</pdfrwt>
<pdfrwt beam="2">  1       -2 0.58459055E-01 0.17849300E+04</pdfrwt>
<totfact> 0.22173070E+01</totfact>
</mgrwt>
</event>
<event>
 8    1  0.2654897E-009  0.1740408E+04  0.7818608E-02  0.8738648E-01
          2   -1    0    0  501    0  0.00000000000E+00  0.00000000000E+00  0.53340129821E+03  0.53340129821E+03  0.25500000000E-02 0.  1.
         -2   -1    0    0    0  501 -0.00000000000E+00 -0.00000000000E+00 -0.14196722397E+04  0.14196722397E+04  0.25500000000E-02 0. -1.
     200001    2    1    2    0    0 -0.11709306581E+03 -0.49284757469E+03 -0.56857125425E+03  0.10324527641E+04  0.69719145221E+03 0.  0.
    5000001    2    3    3    0    0 -0.11720716464E+03 -0.12258222958E+03 -0.18375008607E+03  0.30089021020E+03  0.16735262775E+03 0.  0.
        -11    1    4    4    0    0 -0.11778790033E+02 -0.74956246028E+00 -0.12686563231E+03  0.12741346240E+03  0.51100000000E-03 0. -1.
     200002    1    4    4    0    0 -0.10542837460E+03 -0.12183266712E+03 -0.56884453760E+02  0.17347674780E+03  0.30000000000E+02 0. -1.
     200000    1    3    3    0    0  0.11409882927E+00 -0.37026534511E+03 -0.38482116818E+03  0.73156255391E+03  0.50000000000E+03 0. -1.
    -200001    1    1    2    0    0  0.11709306581E+03  0.49284757469E+03 -0.31769968728E+03  0.92062077385E+03  0.70000000000E+03 0.  1.
<mgrwt>
<rscale>  0 0.17404080E+04</rscale>
<asrwt>0</asrwt>
<pdfrwt beam="1">  1        2 0.76200186E-01 0.17404080E+04</pdfrwt>
<pdfrwt beam="2">  1       -2 0.20281032E+00 0.17404080E+04</pdfrwt>
<totfact> 0.75482267E+00</totfact>
</mgrwt>
</event>
<event>
 8    1  0.2654897E-009  0.1555600E+04  0.7818608E-02  0.8848298E-01
          2   -1    0    0  501    0  0.00000000000E+00  0.00000000000E+00  0.63675908101E+03  0.63675908101E+03  0.25500000000E-02 0.  1.
         -2   -1    0    0    0  501 -0.00000000000E+00 -0.00000000000E+00 -0.95008164787E+03  0.95008164788E+03  0.25500000000E-02 0. -1.
     200001    2    1    2    0    0 -0.93825678946E+02 -0.30740062387E+03 -0.26450121965E+03  0.81503639777E+03  0.70073178386E+03 0.  0.
    5000001    2    3    3    0    0  0.13090591243E+03 -0.11833559081E+03 -0.45841480131E+02  0.19530907340E+03  0.70032298910E+02 0.  0.
        -11    1    4    4    0    0  0.47357033132E+02 -0.92669855028E+01 -0.20436011970E+02  0.52404161980E+02  0.51100000000E-03 0. -1.
     200002    1    4    4    0    0  0.83548879298E+02 -0.10906860531E+03 -0.25405468161E+02  0.14290491142E+03  0.30000000000E+02 0.  1.
     200000    1    3    3    0    0 -0.22473159138E+03 -0.18906503306E+03 -0.21865973952E+03  0.61972732437E+03  0.50000000000E+03 0. -1.
    -200001    1    1    2    0    0  0.93825678946E+02  0.30740062387E+03 -0.48821347216E+02  0.77180433111E+03  0.70000000000E+03 0. -1.
<mgrwt>
<rscale>  0 0.15556004E+04</rscale>
<asrwt>0</asrwt>
<pdfrwt beam="1">  1        2 0.90965583E-01 0.15556004E+04</pdfrwt>
<pdfrwt beam="2">  1       -2 0.13572595E+00 0.15556004E+04</pdfrwt>
<totfact> 0.18953676E+01</totfact>
</mgrwt>
</event>
<event>
 8    1  0.2654897E-009  0.1689094E+04  0.7818608E-02  0.8767609E-01
         -2   -1    0    0    0  501 -0.00000000000E+00  0.00000000000E+00  0.90813614111E+03  0.90813614111E+03  0.25500000000E-02 0. -1.
          2   -1    0    0  501    0  0.00000000000E+00 -0.00000000000E+00 -0.78541061542E+03  0.78541061542E+03  0.25500000000E-02 0.  1.
     200001    2    1    2    0    0 -0.79528769725E+02  0.25932765526E+03  0.44910496162E+03  0.87495088909E+03  0.70019149793E+03 0.  0.
    5000001    2    3    3    0    0 -0.25044608551E+02  0.15077097890E+02  0.14687045072E+03  0.23936253318E+03  0.18673227277E+03 0.  0.
        -11    1    4    4    0    0 -0.10901747136E+02 -0.42769834867E+02  0.16455931943E+03  0.17037569215E+03  0.51100000000E-03 0. -1.
     200002    1    4    4    0    0 -0.14142861415E+02  0.57846932757E+02 -0.17688868707E+02  0.68986841024E+02  0.30000000000E+02 0. -1.
     200000    1    3    3    0    0 -0.54484161174E+02  0.24425055737E+03  0.30223451089E+03  0.63558835591E+03  0.50000000000E+03 0. -1.
    -200001    1    1    2    0    0  0.79528769725E+02 -0.25932765526E+03 -0.32637943593E+03  0.81859586744E+03  0.70000000000E+03 0.  1.
<mgrwt>
<rscale>  0 0.16890942E+04</rscale>
<asrwt>0</asrwt>
<pdfrwt beam="1">  1        2 0.11220152E+00 0.16890942E+04</pdfrwt>
<pdfrwt beam="2">  1       -2 0.12973374E+00 0.16890942E+04</pdfrwt>
<totfact> 0.16224296E+01</totfact>
</mgrwt>
</event>
<event>
 8    1  0.2654897E-009  0.1591904E+04  0.7818608E-02  0.8825537E-01
          2   -1    0    0  501    0  0.00000000000E+00  0.00000000000E+00  0.35895062560E+04  0.35895062560E+04  0.25500000000E-02 0.  1.
         -2   -1    0    0    0  501 -0.00000000000E+00 -0.00000000000E+00 -0.17649779811E+03  0.17649779813E+03  0.25500000000E-02 0. -1.
     200001    2    1    2    0    0  0.17143445734E+02  0.26825540663E+03  0.23392617013E+04  0.24563525897E+04  0.69947685949E+03 0.  0.
    5000001    2    3    3    0    0 -0.58865246372E+02  0.18151724016E+03  0.40505438076E+03  0.45523820278E+03  0.82214014582E+02 0.  0.
        -11    1    4    4    0    0 -0.59256050435E+02  0.77501630457E+02  0.16100830096E+03  0.18825901098E+03  0.51100000000E-03 0. -1.
     200002    1    4    4    0    0  0.39080406364E+00  0.10401560970E+03  0.24404607980E+03  0.26697919181E+03  0.30000000000E+02 0. -1.
     200000    1    3    3    0    0  0.76008692105E+02  0.86738166472E+02  0.19342073206E+04  0.20011143870E+04  0.50000000000E+03 0.  1.
    -200001    1    1    2    0    0 -0.17143445734E+02 -0.26825540663E+03  0.10737467566E+04  0.13096514644E+04  0.70000000000E+03 0. -1.
<mgrwt>
<rscale>  0 0.15919045E+04</rscale>
<asrwt>0</asrwt>
<pdfrwt beam="1">  1        2 0.51278660E+00 0.15919045E+04</pdfrwt>
<pdfrwt beam="2">  1       -2 0.25213972E-01 0.15919045E+04</pdfrwt>
<totfact> 0.14507048E+01</totfact>
</mgrwt>
</event>
<event>
 8    1  0.2654897E-009  0.1473117E+04  0.7818608E-02  0.8902529E-01
          2   -1    0    0  501    0  0.00000000000E+00  0.00000000000E+00  0.81292709922E+03  0.81292709923E+03  0.25500000000E-02 0.  1.
         -2   -1    0    0    0  501 -0.00000000000E+00 -0.00000000000E+00 -0.66736384524E+03  0.66736384525E+03  0.25500000000E-02 0. -1.
     200001    2    1    2    0    0 -0.11608966038E+03  0.89930763216E+02 -0.86053085635E+02  0.72848612925E+03  0.70832376463E+03 0.  0.
    5000001    2    3    3    0    0 -0.61687920160E+02  0.65175434177E+02 -0.64696203489E+02  0.22447373648E+03  0.19531928453E+03 0.  0.
        -11    1    4    4    0    0  0.61224622231E+02 -0.17458399638E+02 -0.23251048830E+02  0.67778030048E+02  0.51100000000E-03 0. -1.
     200002    1    4    4    0    0 -0.12291254239E+03  0.82633833816E+02 -0.41445154659E+02  0.15669570643E+03  0.30000000000E+02 0. -1.
     200000    1    3    3    0    0 -0.54401740218E+02  0.24755329039E+02 -0.21356882147E+02  0.50401239277E+03  0.50000000000E+03 0. -1.
    -200001    1    1    2    0    0  0.11608966038E+03 -0.89930763216E+02  0.23161633962E+03  0.75180481523E+03  0.70000000000E+03 0.  1.
<mgrwt>
<rscale>  0 0.14731166E+04</rscale>
<asrwt>0</asrwt>
<pdfrwt beam="1">  1        2 0.11613244E+00 0.14731166E+04</pdfrwt>
<pdfrwt beam="2">  1       -2 0.95337693E-01 0.14731166E+04</pdfrwt>
<totfact> 0.33383319E+01</totfact>
</mgrwt>
</event>
<event>
 8    1  0.2654897E-009  0.1792768E+04  0.7818608E-02  0.8710155E-01
         -2   -1    0    0    0  501 -0.00000000000E+00  0.00000000000E+00  0.98538067872E+03  0.98538067873E+03  0.25500000000E-02 0. -1.
          2   -1    0    0  501    0  0.00000000000E+00 -0.00000000000E+00 -0.81542516813E+03  0.81542516814E+03  0.25500000000E-02 0.  1.
     200001    2    1    2    0    0 -0.49715776352E+02  0.56601530433E+02  0.64230624011E+03  0.95299065277E+03  0.69997034688E+03 0.  0.
    5000001    2    3    3    0    0  0.11398954289E+02  0.17871014700E+02  0.17736594727E+03  0.26640159150E+03  0.19764063190E+03 0.  0.
        -11    1    4    4    0    0 -0.57944865342E+02  0.64952214402E+02  0.14972128163E+03  0.17318446740E+03  0.51100000000E-03 0. -1.
     200002    1    4    4    0    0  0.69343819631E+02 -0.47081199702E+02  0.27644665637E+02  0.93217124095E+02  0.30000000000E+02 0. -1.
     200000    1    3    3    0    0 -0.61114730641E+02  0.38730515733E+02  0.46494029284E+03  0.68658906127E+03  0.50000000000E+03 0. -1.
    -200001    1    1    2    0    0  0.49715776352E+02 -0.56601530433E+02 -0.47235072952E+03  0.84781519410E+03  0.70000000000E+03 0.  1.
<mgrwt>
<rscale>  0 0.17927679E+04</rscale>
<asrwt>0</asrwt>
<pdfrwt beam="1">  1        2 0.11648931E+00 0.17927679E+04</pdfrwt>
<pdfrwt beam="2">  1       -2 0.14076867E+00 0.17927679E+04</pdfrwt>
<totfact> 0.12436739E+01</totfact>
</mgrwt>
</event>
<event>
 8    1  0.2654897E-009  0.2356458E+04  0.7818608E-02  0.8455987E-01
          2   -1    0    0  501    0  0.00000000000E+00  0.00000000000E+00  0.19589373652E+04  0.19589373652E+04  0.25500000000E-02 0.  1.
         -2   -1    0    0    0  501 -0.00000000000E+00 -0.00000000000E+00 -0.70866153806E+03  0.70866153806E+03  0.25500000000E-02 0. -1.
     200001    2    1    2    0    0 -0.52725013871E+03 -0.61765440518E+03  0.11777886516E+04  0.15930087193E+04  0.70071463435E+03 0.  0.
    5000001    2    3    3    0    0 -0.14864278061E+03 -0.15898011560E+03  0.37333838360E+03  0.47458756906E+03  0.19616946412E+03 0.  0.
        -11    1    4    4    0    0 -0.15664998380E+03 -0.75378179289E+02  0.13498215028E+03  0.22009377146E+03  0.51100000000E-03 0. -1.
     200002    1    4    4    0    0  0.80072031923E+01 -0.83601936310E+02  0.23835623332E+03  0.25449379761E+03  0.30000000000E+02 0. -1.
     200000    1    3    3    0    0 -0.37860735810E+03 -0.45867428958E+03  0.80445026798E+03  0.11184211502E+04  0.50000000000E+03 0.  1.
    -200001    1    1    2    0    0  0.52725013871E+03  0.61765440518E+03  0.72487175577E+02  0.10745901840E+04  0.70000000000E+03 0. -1.
<mgrwt>
<rscale>  0 0.23564580E+04</rscale>
<asrwt>0</asrwt>
<pdfrwt beam="1">  1        2 0.27984820E+00 0.23564580E+04</pdfrwt>
<pdfrwt beam="2">  1       -2 0.10123736E+00 0.23564580E+04</pdfrwt>
<totfact> 0.61314580E+00</totfact>
</mgrwt>
</event>
<event>
 8    1  0.2654897E-009  0.1630573E+04  0.7818608E-02  0.8801983E-01
          2   -1    0    0  501    0  0.00000000000E+00  0.00000000000E+00  0.13190148077E+04  0.13190148077E+04  0.25500000000E-02 0.  1.
         -2   -1    0    0    0  501 -0.00000000000E+00 -0.00000000000E+00 -0.50393082089E+03  0.50393082089E+03  0.25500000000E-02 0. -1.
     200001    2    1    2    0    0  0.66687760748E+02 -0.26205888665E+03  0.76361565463E+03  0.10707680520E+04  0.70022370401E+03 0.  0.
    5000001    2    3    3    0    0  0.14959281362E+02 -0.17538149308E+03  0.26206424935E+03  0.35540617274E+03  0.16325877809E+03 0.  0.
        -11    1    4    4    0    0 -0.24168394804E+02 -0.16203482155E+03  0.25604802173E+03  0.30397365697E+03  0.51100000000E-03 0. -1.
     200002    1    4    4    0    0  0.39127676167E+02 -0.13346671532E+02  0.60162276127E+01  0.51432515765E+02  0.30000000000E+02 0. -1.
     200000    1    3    3    0    0  0.51728479385E+02 -0.86677393573E+02  0.50155140529E+03  0.71536187925E+03  0.50000000000E+03 0.  1.
    -200001    1    1    2    0    0 -0.66687760748E+02  0.26205888665E+03  0.51468332164E+02  0.75217757659E+03  0.70000000000E+03 0. -1.
<mgrwt>
<rscale>  0 0.16305732E+04</rscale>
<asrwt>0</asrwt>
<pdfrwt beam="1">  1        2 0.18843068E+00 0.16305732E+04</pdfrwt>
<pdfrwt beam="2">  1       -2 0.71990119E-01 0.16305732E+04</pdfrwt>
<totfact> 0.30715401E+01</totfact>
</mgrwt>
</event>
<event>
 8    1  0.2654897E-009  0.1727983E+04  0.7818608E-02  0.8745563E-01
          2   -1    0    0  501    0  0.00000000000E+00  0.00000000000E+00  0.13964228265E+04  0.13964228265E+04  0.25500000000E-02 0.  1.
         -2   -1    0    0    0  501 -0.00000000000E+00 -0.00000000000E+00 -0.53456702818E+03  0.53456702818E+03  0.25500000000E-02 0. -1.
     200001    2    1    2    0    0 -0.24654656169E+02  0.15862784273E+03  0.96766697766E+03  0.12050651684E+04  0.70002288237E+03 0.  0.
    5000001    2    3    3    0    0  0.33395050150E+02  0.26458981820E+02  0.41387732238E+03  0.44511690798E+03  0.15817495597E+03 0.  0.
        -11    1    4    4    0    0  0.19411288587E+02  0.41773505043E+02  0.21127387040E+02  0.50677315750E+02  0.51100000000E-03 0. -1.
     200002    1    4    4    0    0  0.13983761564E+02 -0.15314523223E+02  0.39274993534E+03  0.39443959223E+03  0.30000000000E+02 0. -1.
     200000    1    3    3    0    0 -0.58049706319E+02  0.13216886091E+03  0.55378965528E+03  0.75994826040E+03  0.50000000000E+03 0.  1.
    -200001    1    1    2    0    0  0.24654656169E+02 -0.15862784273E+03 -0.10581117930E+03  0.72592468633E+03  0.70000000000E+03 0. -1.
<mgrwt>
<rscale>  0 0.17279833E+04</rscale>
<asrwt>0</asrwt>
<pdfrwt beam="1">  1        2 0.19948897E+00 0.17279833E+04</pdfrwt>
<pdfrwt beam="2">  1       -2 0.76366718E-01 0.17279833E+04</pdfrwt>
<totfact> 0.24272867E+01</totfact>
</mgrwt>
</event>
<event>
 8    1  0.2654897E-009  0.2066935E+04  0.7818608E-02  0.8575950E-01
          2   -1    0    0  501    0  0.00000000000E+00  0.00000000000E+00  0.21808523037E+04  0.21808523037E+04  0.25500000000E-02 0.  1.
         -2   -1    0    0    0  501 -0.00000000000E+00 -0.00000000000E+00 -0.48974221824E+03  0.48974221825E+03  0.25500000000E-02 0. -1.
     200001    2    1    2    0    0 -0.29761507107E+03 -0.61990240275E+03  0.12658005227E+04  0.16011358067E+04  0.69895006162E+03 0.  0.
    5000001    2    3    3    0    0  0.51533687546E+02 -0.16955441650E+02  0.56472010647E+02  0.11859564073E+03  0.89065313446E+02 0.  0.
        -11    1    4    4    0    0  0.53773048232E+02  0.48839747970E+01  0.38024007433E+01  0.54128108942E+02  0.51100000000E-03 0. -1.
     200002    1    4    4    0    0 -0.22393606854E+01 -0.21839416447E+02  0.52669609904E+02  0.64467531785E+02  0.30000000000E+02 0. -1.
     200000    1    3    3    0    0 -0.34914875861E+03 -0.60294696110E+03  0.12093285121E+04  0.14825401660E+04  0.50000000000E+03 0.  1.
    -200001    1    1    2    0    0  0.29761507107E+03  0.61990240275E+03  0.42530956269E+03  0.10694587152E+04  0.70000000000E+03 0. -1.
<mgrwt>
<rscale>  0 0.20669354E+04</rscale>
<asrwt>0</asrwt>
<pdfrwt beam="1">  1        2 0.31155033E+00 0.20669354E+04</pdfrwt>
<pdfrwt beam="2">  1       -2 0.69963173E-01 0.20669354E+04</pdfrwt>
<totfact> 0.11170761E+01</totfact>
</mgrwt>
</event>
<event>
 8    1  0.2654897E-009  0.1572921E+04  0.7818608E-02  0.8837358E-01
         -2   -1    0    0    0  501 -0.00000000000E+00  0.00000000000E+00  0.45379350094E+03  0.45379350095E+03  0.25500000000E-02 0. -1.
          2   -1    0    0  501    0  0.00000000000E+00 -0.00000000000E+00 -0.13629991879E+04  0.13629991879E+04  0.25500000000E-02 0.  1.
     200001    2    1    2    0    0  0.14363087678E+02 -0.35180371252E+03 -0.53228695005E+03  0.94728714851E+03  0.70003670912E+03 0.  0.
    5000001    2    3    3    0    0  0.11460070315E+02 -0.74184524450E+02 -0.59337770386E+02  0.20515389388E+03  0.18147306219E+03 0.  0.
        -11    1    4    4    0    0 -0.38888615493E+02  0.47125087871E+02 -0.11398414042E+02  0.62153215240E+02  0.51100000000E-03 0. -1.
     200002    1    4    4    0    0  0.50348685808E+02 -0.12130961232E+03 -0.47939356343E+02  0.14300067864E+03  0.30000000000E+02 0. -1.
     200000    1    3    3    0    0  0.29030173630E+01 -0.27761918807E+03 -0.47294917966E+03  0.74213325464E+03  0.50000000000E+03 0.  1.
    -200001    1    1    2    0    0 -0.14363087678E+02  0.35180371252E+03 -0.37691873691E+03  0.86950554033E+03  0.70000000000E+03 0. -1.
<mgrwt>
<rscale>  0 0.15729211E+04</rscale>
<asrwt>0</asrwt>
<pdfrwt beam="1">  1        2 0.19471417E+00 0.15729211E+04</pdfrwt>
<pdfrwt beam="2">  1       -2 0.64827644E-01 0.15729211E+04</pdfrwt>
<totfact> 0.36638051E+01</totfact>
</mgrwt>
</event>
<event>
 8    1  0.2654897E-009  0.3365005E+04  0.7818608E-02  0.8146549E-01
          2   -1    0    0  501    0  0.00000000000E+00  0.00000000000E+00  0.25870972026E+04  0.25870972026E+04  0.25500000000E-02 0.  1.
         -2   -1    0    0    0  501 -0.00000000000E+00 -0.00000000000E+00 -0.10942050278E+04  0.10942050278E+04  0.25500000000E-02 0. -1.
     200001    2    1    2    0    0  0.98348198802E+02 -0.13950323008E+04  0.14261781302E+04  0.21159785411E+04  0.69827905532E+03 0.  0.
    5000001    2    3    3    0    0  0.16080010777E+03 -0.36425916011E+03  0.38515909314E+03  0.56674836329E+03  0.11964434745E+03 0.  0.
        -11    1    4    4    0    0  0.13234653728E+03 -0.16223117805E+03  0.18577044511E+03  0.27990216029E+03  0.51100000000E-03 0. -1.
     200002    1    4    4    0    0  0.28453570499E+02 -0.20202798206E+03  0.19938864803E+03  0.28684620300E+03  0.30000000000E+02 0. -1.
     200000    1    3    3    0    0 -0.62451908973E+02 -0.10307731407E+04  0.10410190370E+04  0.15492301778E+04  0.50000000000E+03 0.  1.
    -200001    1    1    2    0    0 -0.98348198802E+02  0.13950323008E+04  0.66714044679E+02  0.15653236893E+04  0.70000000000E+03 0. -1.
<mgrwt>
<rscale>  0 0.33650051E+04</rscale>
<asrwt>0</asrwt>
<pdfrwt beam="1">  1        2 0.36958531E+00 0.33650051E+04</pdfrwt>
<pdfrwt beam="2">  1       -2 0.15631500E+00 0.33650051E+04</pdfrwt>
<totfact> 0.89148485E-01</totfact>
</mgrwt>
</event>
<event>
 8    1  0.2654897E-009  0.1687481E+04  0.7818608E-02  0.8768537E-01
         -2   -1    0    0    0  501 -0.00000000000E+00  0.00000000000E+00  0.63031456822E+03  0.63031456822E+03  0.25500000000E-02 0. -1.
          2   -1    0    0  501    0  0.00000000000E+00 -0.00000000000E+00 -0.11294328314E+04  0.11294328314E+04  0.25500000000E-02 0.  1.
     200001    2    1    2    0    0 -0.38117157030E+03 -0.84229645054E+02 -0.52408719799E+03  0.95786845192E+03  0.70032719566E+03 0.  0.
    5000001    2    3    3    0    0 -0.10855903413E+03 -0.44012700298E+01 -0.14007016479E+03  0.26637785464E+03  0.19882926171E+03 0.  0.
        -11    1    4    4    0    0 -0.83058935565E+02 -0.61289486942E+02 -0.16347869977E+03  0.19334030430E+03  0.51100000000E-03 0. -1.
     200002    1    4    4    0    0 -0.25500098560E+02  0.56888216913E+02  0.23408534983E+02  0.73037550343E+02  0.30000000000E+02 0. -1.
     200000    1    3    3    0    0 -0.27261253617E+03 -0.79828375024E+02 -0.38401703321E+03  0.69149059728E+03  0.50000000000E+03 0.  1.
    -200001    1    1    2    0    0  0.38117157030E+03  0.84229645054E+02  0.24968934782E+02  0.80187894773E+03  0.70000000000E+03 0.  1.
<mgrwt>
<rscale>  0 0.16874809E+04</rscale>
<asrwt>0</asrwt>
<pdfrwt beam="1">  1        2 0.16134755E+00 0.16874809E+04</pdfrwt>
<pdfrwt beam="2">  1       -2 0.90044939E-01 0.16874809E+04</pdfrwt>
<totfact> 0.23670244E+01</totfact>
</mgrwt>
</event>
<event>
 8    1  0.2654897E-009  0.1926925E+04  0.7818608E-02  0.8641569E-01
          2   -1    0    0  501    0  0.00000000000E+00  0.00000000000E+00  0.14392489353E+04  0.14392489353E+04  0.25500000000E-02 0.  1.
         -2   -1    0    0    0  501 -0.00000000000E+00 -0.00000000000E+00 -0.64496142664E+03  0.64496142665E+03  0.25500000000E-02 0. -1.
     200001    2    1    2    0    0 -0.21725853717E+03  0.24077492028E+03 -0.22712657303E+03  0.80418670574E+03  0.69996853022E+03 0.  0.
    5000001    2    3    3    0    0 -0.58819950571E+02  0.10609325764E+03 -0.50661139483E+02  0.23464128594E+03  0.19435641516E+03 0.  0.
        -11    1    4    4    0    0 -0.10305621364E+03  0.10118460902E+03  0.20108900585E+02  0.14581932710E+03  0.51100000000E-03 0. -1.
     200002    1    4    4    0    0  0.44236263073E+02  0.49086486273E+01 -0.70770040068E+02  0.88821958846E+02  0.30000000000E+02 0. -1.
     200000    1    3    3    0    0 -0.15843858660E+03  0.13468166263E+03 -0.17646543355E+03  0.56954541980E+03  0.50000000000E+03 0. -1.
    -200001    1    1    2    0    0  0.21725853717E+03 -0.24077492028E+03  0.10214140817E+04  0.12800236563E+04  0.70000000000E+03 0.  1.
<mgrwt>
<rscale>  0 0.19269251E+04</rscale>
<asrwt>0</asrwt>
<pdfrwt beam="1">  1        2 0.20560699E+00 0.19269251E+04</pdfrwt>
<pdfrwt beam="2">  1       -2 0.92137347E-01 0.19269251E+04</pdfrwt>
<totfact> 0.14794322E+01</totfact>
</mgrwt>
</event>
<event>
 8    1  0.2654897E-009  0.1691600E+04  0.7818608E-02  0.8766169E-01
          2   -1    0    0  501    0  0.00000000000E+00  0.00000000000E+00  0.13308327051E+04  0.13308327051E+04  0.25500000000E-02 0.  1.
         -2   -1    0    0    0  501 -0.00000000000E+00 -0.00000000000E+00 -0.53754163494E+03  0.53754163494E+03  0.25500000000E-02 0. -1.
     200001    2    1    2    0    0  0.37193611456E+03  0.10266568981E+03  0.70246934859E+03  0.10639333526E+04  0.69972442847E+03 0.  0.
    5000001    2    3    3    0    0 -0.25237226482E+02 -0.57593859559E+01  0.17478543046E+03  0.22849755171E+03  0.14488304355E+03 0.  0.
        -11    1    4    4    0    0  0.23770736436E+02 -0.53995259869E+02  0.31789032580E+02  0.67015510083E+02  0.51100000000E-03 0. -1.
     200002    1    4    4    0    0 -0.49007962918E+02  0.48235873913E+02  0.14299639788E+03  0.16148204162E+03  0.30000000000E+02 0. -1.
     200000    1    3    3    0    0  0.39717334104E+03  0.10842507577E+03  0.52768391814E+03  0.83543580085E+03  0.50000000000E+03 0.  1.
    -200001    1    1    2    0    0 -0.37193611456E+03 -0.10266568981E+03  0.90821721524E+02  0.80444098744E+03  0.70000000000E+03 0. -1.
<mgrwt>
<rscale>  0 0.16916004E+04</rscale>
<asrwt>0</asrwt>
<pdfrwt beam="1">  1        2 0.19011896E+00 0.16916004E+04</pdfrwt>
<pdfrwt beam="2">  1       -2 0.76791661E-01 0.16916004E+04</pdfrwt>
<totfact> 0.26109572E+01</totfact>
</mgrwt>
</event>
<event>
 8    1  0.2654897E-009  0.1708640E+04  0.7818608E-02  0.8756452E-01
         -2   -1    0    0    0  501 -0.00000000000E+00  0.00000000000E+00  0.40068841878E+03  0.40068841879E+03  0.25500000000E-02 0. -1.
          2   -1    0    0  501    0  0.00000000000E+00 -0.00000000000E+00 -0.18215224119E+04  0.18215224119E+04  0.25500000000E-02 0.  1.
     200001    2    1    2    0    0 -0.35258814586E+03 -0.18565085633E+03 -0.10806103708E+04  0.13478329065E+04  0.70010722706E+03 0.  0.
    5000001    2    3    3    0    0 -0.67674667304E+02 -0.73054822811E+02 -0.37567770944E+03  0.43089037066E+03  0.18605349346E+03 0.  0.
        -11    1    4    4    0    0  0.48969218540E+02 -0.27177171764E+02 -0.33533606847E+02  0.65276993022E+02  0.51100000000E-03 0. -1.
     200002    1    4    4    0    0 -0.11664388584E+03 -0.45877651046E+02 -0.34214410259E+03  0.36561337764E+03  0.30000000000E+02 0. -1.
     200000    1    3    3    0    0 -0.28491347855E+03 -0.11259603352E+03 -0.70493266134E+03  0.91694253585E+03  0.50000000000E+03 0.  1.
    -200001    1    1    2    0    0  0.35258814586E+03  0.18565085633E+03 -0.34022362230E+03  0.87437792414E+03  0.70000000000E+03 0. -1.
<mgrwt>
<rscale>  0 0.17086403E+04</rscale>
<asrwt>0</asrwt>
<pdfrwt beam="1">  1        2 0.26021748E+00 0.17086403E+04</pdfrwt>
<pdfrwt beam="2">  1       -2 0.57241203E-01 0.17086403E+04</pdfrwt>
<totfact> 0.27040120E+01</totfact>
</mgrwt>
</event>
<event>
 8    1  0.2654897E-009  0.1479165E+04  0.7818608E-02  0.8898427E-01
         -2   -1    0    0    0  501 -0.00000000000E+00  0.00000000000E+00  0.41816603248E+03  0.41816603249E+03  0.25500000000E-02 0. -1.
          2   -1    0    0  501    0  0.00000000000E+00 -0.00000000000E+00 -0.13080504654E+04  0.13080504654E+04  0.25500000000E-02 0.  1.
     200001    2    1    2    0    0 -0.19086874202E+03  0.52237466205E+02 -0.29791568606E+03  0.78835370047E+03  0.70255830469E+03 0.  0.
    5000001    2    3    3    0    0 -0.56577885146E+02 -0.50713893513E+02 -0.13925861112E+03  0.23716853727E+03  0.17630371016E+03 0.  0.
        -11    1    4    4    0    0  0.22128156177E+02  0.41125800087E+02 -0.93322496480E+02  0.10435552251E+03  0.51100000000E-03 0. -1.
     200002    1    4    4    0    0 -0.78706041322E+02 -0.91839693600E+02 -0.45936114643E+02  0.13281301476E+03  0.30000000000E+02 0. -1.
     200000    1    3    3    0    0 -0.13429085687E+03  0.10295135972E+03 -0.15865707494E+03  0.55118516320E+03  0.50000000000E+03 0. -1.
    -200001    1    1    2    0    0  0.19086874202E+03 -0.52237466205E+02 -0.59196874689E+03  0.93786279746E+03  0.70000000000E+03 0.  1.
<mgrwt>
<rscale>  0 0.14791650E+04</rscale>
<asrwt>0</asrwt>
<pdfrwt beam="1">  1        2 0.18686435E+00 0.14791650E+04</pdfrwt>
<pdfrwt beam="2">  1       -2 0.59738005E-01 0.14791650E+04</pdfrwt>
<totfact> 0.47072082E+01</totfact>
</mgrwt>
</event>
<event>
 8    1  0.2654897E-009  0.1627651E+04  0.7818608E-02  0.8803739E-01
          2   -1    0    0  501    0  0.00000000000E+00  0.00000000000E+00  0.25552664068E+04  0.25552664068E+04  0.25500000000E-02 0.  1.
         -2   -1    0    0    0  501 -0.00000000000E+00 -0.00000000000E+00 -0.25919498984E+03  0.25919498986E+03  0.25500000000E-02 0. -1.
     200001    2    1    2    0    0 -0.25812775291E+03  0.22834095852E+03  0.73456336182E+03  0.10688735483E+04  0.69580011462E+03 0.  0.
    5000001    2    3    3    0    0  0.28138239355E+02  0.50968235046E+02  0.15996518082E+03  0.23606362340E+03  0.16354709939E+03 0.  0.
        -11    1    4    4    0    0  0.89791551863E+02  0.24107321955E+02  0.12148217609E+03  0.15297583098E+03  0.51100000000E-03 0. -1.
     200002    1    4    4    0    0 -0.61653312508E+02  0.26860913091E+02  0.38483004730E+02  0.83087792415E+02  0.30000000000E+02 0. -1.
     200000    1    3    3    0    0 -0.28626599226E+03  0.17737272347E+03  0.57459818100E+03  0.83280992487E+03  0.50000000000E+03 0. -1.
    -200001    1    1    2    0    0  0.25812775291E+03 -0.22834095852E+03  0.15615080551E+04  0.17455878484E+04  0.70000000000E+03 0. -1.
<mgrwt>
<rscale>  0 0.16276514E+04</rscale>
<asrwt>0</asrwt>
<pdfrwt beam="1">  1        2 0.36503806E+00 0.16276514E+04</pdfrwt>
<pdfrwt beam="2">  1       -2 0.37027856E-01 0.16276514E+04</pdfrwt>
<totfact> 0.27191216E+01</totfact>
</mgrwt>
</event>
<event>
 8    1  0.2654897E-009  0.1727449E+04  0.7818608E-02  0.8745862E-01
          2   -1    0    0  501    0  0.00000000000E+00  0.00000000000E+00  0.20703443045E+04  0.20703443045E+04  0.25500000000E-02 0.  1.
         -2   -1    0    0    0  501 -0.00000000000E+00 -0.00000000000E+00 -0.36033605353E+03  0.36033605354E+03  0.25500000000E-02 0. -1.
     200001    2    1    2    0    0 -0.26297720582E+03  0.75850888789E+02  0.14533542145E+04  0.16364627162E+04  0.70061500186E+03 0.  0.
    5000001    2    3    3    0    0 -0.73362097139E+02  0.92744184852E+02  0.39326703380E+03  0.44901835817E+03  0.18159032183E+03 0.  0.
        -11    1    4    4    0    0 -0.12431691656E+03  0.25246901987E+02  0.23734725870E+03  0.26912046191E+03  0.51100000000E-03 0. -1.
     200002    1    4    4    0    0  0.50954819417E+02  0.67497282865E+02  0.15591977509E+03  0.17989789626E+03  0.30000000000E+02 0. -1.
     200000    1    3    3    0    0 -0.18961510868E+03 -0.16893296062E+02  0.10600871807E+04  0.11874443581E+04  0.50000000000E+03 0.  1.
    -200001    1    1    2    0    0  0.26297720582E+03 -0.75850888789E+02  0.25665403653E+03  0.79421764182E+03  0.70000000000E+03 0. -1.
<mgrwt>
<rscale>  0 0.17274486E+04</rscale>
<asrwt>0</asrwt>
<pdfrwt beam="1">  1        2 0.29576348E+00 0.17274486E+04</pdfrwt>
<pdfrwt beam="2">  1       -2 0.51476577E-01 0.17274486E+04</pdfrwt>
<totfact> 0.25043527E+01</totfact>
</mgrwt>
</event>
<event>
 8    1  0.2654897E-009  0.1829320E+04  0.7818608E-02  0.8690861E-01
          2   -1    0    0  501    0  0.00000000000E+00  0.00000000000E+00  0.31697661247E+03  0.31697661248E+03  0.25500000000E-02 0.  1.
         -2   -1    0    0    0  501 -0.00000000000E+00 -0.00000000000E+00 -0.26393197670E+04  0.26393197670E+04  0.25500000000E-02 0. -1.
     200001    2    1    2    0    0  0.32845399634E+02 -0.52539946157E+03 -0.73876781155E+03  0.11466460593E+04  0.70135290077E+03 0.  0.
    5000001    2    3    3    0    0  0.36089425413E+01 -0.58538721514E+02 -0.11060893577E+03  0.21745431684E+03  0.17779830386E+03 0.  0.
        -11    1    4    4    0    0  0.55584114116E+02 -0.53655430565E+02 -0.13250852176E+03  0.15338516001E+03  0.51100000000E-03 0. -1.
     200002    1    4    4    0    0 -0.51975171574E+02 -0.48832909497E+01  0.21899585990E+02  0.64069156832E+02  0.30000000000E+02 0. -1.
     200000    1    3    3    0    0  0.29236457093E+02 -0.46686074005E+03 -0.62815887578E+03  0.92919174246E+03  0.50000000000E+03 0.  1.
    -200001    1    1    2    0    0 -0.32845399634E+02  0.52539946157E+03 -0.15835753430E+04  0.18096503202E+04  0.70000000000E+03 0. -1.
<mgrwt>
<rscale>  0 0.18293197E+04</rscale>
<asrwt>0</asrwt>
<pdfrwt beam="1">  1        2 0.45282375E-01 0.18293197E+04</pdfrwt>
<pdfrwt beam="2">  1       -2 0.37704567E+00 0.18293197E+04</pdfrwt>
<totfact> 0.11128530E+00</totfact>
</mgrwt>
</event>
<event>
 8    1  0.2654897E-009  0.1591221E+04  0.7818608E-02  0.8825959E-01
          2   -1    0    0  501    0  0.00000000000E+00  0.00000000000E+00  0.16357817489E+04  0.16357817489E+04  0.25500000000E-02 0.  1.
         -2   -1    0    0    0  501 -0.00000000000E+00 -0.00000000000E+00 -0.38696871063E+03  0.38696871064E+03  0.25500000000E-02 0. -1.
     200001    2    1    2    0    0 -0.95886729459E+02 -0.35561269244E+03  0.51509024796E+03  0.94386038872E+03  0.69992843773E+03 0.  0.
    5000001    2    3    3    0    0 -0.25494930643E+02 -0.75813645732E+02  0.16499467144E+03  0.26872379174E+03  0.19644728117E+03 0.  0.
        -11    1    4    4    0    0 -0.13390930223E+02  0.14178202086E+02 -0.38901182715E+02  0.43515979175E+02  0.51100000000E-03 0. -1.
     200002    1    4    4    0    0 -0.12104000421E+02 -0.89991847818E+02  0.20389585416E+03  0.22520781257E+03  0.30000000000E+02 0. -1.
     200000    1    3    3    0    0 -0.70391798815E+02 -0.27979904671E+03  0.35009557652E+03  0.67513659698E+03  0.50000000000E+03 0. -1.
    -200001    1    1    2    0    0  0.95886729459E+02  0.35561269244E+03  0.73372279034E+03  0.10788900708E+04  0.70000000000E+03 0. -1.
<mgrwt>
<rscale>  0 0.15912214E+04</rscale>
<asrwt>0</asrwt>
<pdfrwt beam="1">  1        2 0.23368311E+00 0.15912214E+04</pdfrwt>
<pdfrwt beam="2">  1       -2 0.55281244E-01 0.15912214E+04</pdfrwt>
<totfact> 0.36644747E+01</totfact>
</mgrwt>
</event>
<event>
 8    1  0.2654897E-009  0.2138426E+04  0.7818608E-02  0.8544503E-01
         -2   -1    0    0    0  501 -0.00000000000E+00  0.00000000000E+00  0.86953508552E+03  0.86953508552E+03  0.25500000000E-02 0. -1.
          2   -1    0    0  501    0  0.00000000000E+00 -0.00000000000E+00 -0.13147443728E+04  0.13147443728E+04  0.25500000000E-02 0.  1.
     200001    2    1    2    0    0 -0.21721640808E+03 -0.16570968772E+03 -0.10000169363E+04  0.12502268923E+04  0.69884958393E+03 0.  0.
    5000001    2    3    3    0    0 -0.99360766186E+02 -0.48589867074E+02 -0.36041012923E+03  0.42155091687E+03  0.18861648184E+03 0.  0.
        -11    1    4    4    0    0 -0.66055518331E+02  0.34649972167E+02 -0.34460732102E+02  0.82167476111E+02  0.51100000000E-03 0. -1.
     200002    1    4    4    0    0 -0.33305247855E+02 -0.83239839242E+02 -0.32594939713E+03  0.33938344076E+03  0.30000000000E+02 0. -1.
     200000    1    3    3    0    0 -0.11785564189E+03 -0.11711982065E+03 -0.63960680702E+03  0.82867597546E+03  0.50000000000E+03 0.  1.
    -200001    1    1    2    0    0  0.21721640808E+03  0.16570968772E+03  0.55480764902E+03  0.93405256595E+03  0.70000000000E+03 0. -1.
<mgrwt>
<rscale>  0 0.21384259E+04</rscale>
<asrwt>0</asrwt>
<pdfrwt beam="1">  1        2 0.18782062E+00 0.21384259E+04</pdfrwt>
<pdfrwt beam="2">  1       -2 0.12421930E+00 0.21384259E+04</pdfrwt>
<totfact> 0.82829039E+00</totfact>
</mgrwt>
</event>
<event>
 8    1  0.2654897E-009  0.1598329E+04  0.7818608E-02  0.8821575E-01
         -2   -1    0    0    0  501 -0.00000000000E+00  0.00000000000E+00  0.18838189747E+03  0.18838189749E+03  0.25500000000E-02 0. -1.
          2   -1    0    0  501    0  0.00000000000E+00 -0.00000000000E+00 -0.33902598966E+04  0.33902598966E+04  0.25500000000E-02 0.  1.
     200001    2    1    2    0    0 -0.33720307667E+03 -0.18403673780E+03 -0.15594797230E+04  0.17524305431E+04  0.70104234265E+03 0.  0.
    5000001    2    3    3    0    0 -0.15657662705E+03 -0.10220894813E+03 -0.52125966131E+03  0.58314760132E+03  0.18271995293E+03 0.  0.
        -11    1    4    4    0    0 -0.11034032421E+03 -0.14969250309E+03 -0.33448435914E+03  0.38270434951E+03  0.51100000000E-03 0. -1.
     200002    1    4    4    0    0 -0.46236302832E+02  0.47483554963E+02 -0.18677530218E+03  0.20044325181E+03  0.30000000000E+02 0. -1.
     200000    1    3    3    0    0 -0.18062644962E+03 -0.81827789666E+02 -0.10382200617E+04  0.11692829418E+04  0.50000000000E+03 0. -1.
    -200001    1    1    2    0    0  0.33720307667E+03  0.18403673780E+03 -0.16423982760E+04  0.18262112509E+04  0.70000000000E+03 0.  1.
<mgrwt>
<rscale>  0 0.15983286E+04</rscale>
<asrwt>0</asrwt>
<pdfrwt beam="1">  1        2 0.48432280E+00 0.15983286E+04</pdfrwt>
<pdfrwt beam="2">  1       -2 0.26911702E-01 0.15983286E+04</pdfrwt>
<totfact> 0.17006428E+01</totfact>
</mgrwt>
</event>
<event>
 8    1  0.2654897E-009  0.1481069E+04  0.7818608E-02  0.8897141E-01
         -2   -1    0    0    0  501 -0.00000000000E+00  0.00000000000E+00  0.34717533892E+03  0.34717533893E+03  0.25500000000E-02 0. -1.
          2   -1    0    0  501    0  0.00000000000E+00 -0.00000000000E+00 -0.15795792929E+04  0.15795792929E+04  0.25500000000E-02 0.  1.
     200001    2    1    2    0    0  0.12291454370E+03  0.11589722600E+03 -0.39165118418E+03  0.81977433753E+03  0.70007082667E+03 0.  0.
    5000001    2    3    3    0    0  0.77228265171E+01  0.25493740621E+02 -0.14531782129E+03  0.24347402732E+03  0.19352715555E+03 0.  0.
        -11    1    4    4    0    0 -0.36729454660E+02 -0.67848636024E+02 -0.22950093082E+02  0.80493459502E+02  0.51100000000E-03 0. -1.
     200002    1    4    4    0    0  0.44452281177E+02  0.93342376645E+02 -0.12236772821E+03  0.16298056782E+03  0.30000000000E+02 0. -1.
     200000    1    3    3    0    0  0.11519171718E+03  0.90403485375E+02 -0.24633336289E+03  0.57630031021E+03  0.50000000000E+03 0. -1.
    -200001    1    1    2    0    0 -0.12291454370E+03 -0.11589722600E+03 -0.84075276981E+03  0.11069802943E+04  0.70000000000E+03 0.  1.
<mgrwt>
<rscale>  0 0.14810685E+04</rscale>
<asrwt>0</asrwt>
<pdfrwt beam="1">  1        2 0.22565418E+00 0.14810685E+04</pdfrwt>
<pdfrwt beam="2">  1       -2 0.49596478E-01 0.14810685E+04</pdfrwt>
<totfact> 0.49436524E+01</totfact>
</mgrwt>
</event>
<event>
 8    1  0.2654897E-009  0.2043738E+04  0.7818608E-02  0.8586440E-01
         -2   -1    0    0    0  501 -0.00000000000E+00  0.00000000000E+00  0.54568718526E+03  0.54568718526E+03  0.25500000000E-02 0. -1.
          2   -1    0    0  501    0  0.00000000000E+00 -0.00000000000E+00 -0.19135809969E+04  0.19135809969E+04  0.25500000000E-02 0.  1.
     200001    2    1    2    0    0 -0.27690815821E+03  0.42859969876E+03 -0.13364527944E+04  0.15924554184E+04  0.69959442397E+03 0.  0.
    5000001    2    3    3    0    0 -0.89657198402E+02  0.28469731412E+03 -0.46905565903E+03  0.56379191233E+03  0.93579566398E+02 0.  0.
        -11    1    4    4    0    0 -0.78931773893E+02  0.12011074980E+03 -0.18973789463E+03  0.23802790972E+03  0.51100000000E-03 0. -1.
     200002    1    4    4    0    0 -0.10725424509E+02  0.16458656432E+03 -0.27931776440E+03  0.32576400261E+03  0.30000000000E+02 0. -1.
     200000    1    3    3    0    0 -0.18725095981E+03  0.14390238464E+03 -0.86739713540E+03  0.10286635061E+04  0.50000000000E+03 0.  1.
    -200001    1    1    2    0    0  0.27690815821E+03 -0.42859969876E+03 -0.31441017227E+02  0.86681276376E+03  0.70000000000E+03 0. -1.
<mgrwt>
<rscale>  0 0.20437384E+04</rscale>
<asrwt>0</asrwt>
<pdfrwt beam="1">  1        2 0.27336871E+00 0.20437384E+04</pdfrwt>
<pdfrwt beam="2">  1       -2 0.77955313E-01 0.20437384E+04</pdfrwt>
<totfact> 0.12105669E+01</totfact>
</mgrwt>
</event>
<event>
 8    1  0.2654897E-009  0.1842098E+04  0.7818608E-02  0.8684227E-01
         -2   -1    0    0    0  501 -0.00000000000E+00  0.00000000000E+00  0.92009915509E+03  0.92009915510E+03  0.25500000000E-02 0. -1.
          2   -1    0    0  501    0  0.00000000000E+00 -0.00000000000E+00 -0.92199986389E+03  0.92199986389E+03  0.25500000000E-02 0.  1.
     200001    2    1    2    0    0 -0.39464736489E+03 -0.45196998481E+03 -0.10959486120E+02  0.92008737522E+03  0.69743620348E+03 0.  0.
    5000001    2    3    3    0    0 -0.72863122157E+02 -0.76311380396E+02 -0.23451814486E+02  0.21665255649E+03  0.18776549545E+03 0.  0.
        -11    1    4    4    0    0 -0.12238573864E+03 -0.63331388971E+02  0.24994621590E+02  0.14004950896E+03  0.51100000000E-03 0. -1.
     200002    1    4    4    0    0  0.49522616487E+02 -0.12979991425E+02 -0.48446436076E+02  0.76603047522E+02  0.30000000000E+02 0. -1.
     200000    1    3    3    0    0 -0.32178424274E+03 -0.37565860441E+03  0.12492328366E+02  0.70343481874E+03  0.50000000000E+03 0.  1.
    -200001    1    1    2    0    0  0.39464736489E+03  0.45196998481E+03  0.90587773272E+01  0.92201164376E+03  0.70000000000E+03 0. -1.
<mgrwt>
<rscale>  0 0.18420980E+04</rscale>
<asrwt>0</asrwt>
<pdfrwt beam="1">  1        2 0.13171426E+00 0.18420980E+04</pdfrwt>
<pdfrwt beam="2">  1       -2 0.13144274E+00 0.18420980E+04</pdfrwt>
<totfact> 0.12542257E+01</totfact>
</mgrwt>
</event>
<event>
 8    1  0.2654897E-009  0.2059960E+04  0.7818608E-02  0.8579089E-01
         -2   -1    0    0    0  501 -0.00000000000E+00  0.00000000000E+00  0.35983979889E+03  0.35983979889E+03  0.25500000000E-02 0. -1.
          2   -1    0    0  501    0  0.00000000000E+00 -0.00000000000E+00 -0.29481419020E+04  0.29481419020E+04  0.25500000000E-02 0.  1.
     200001    2    1    2    0    0 -0.39795689126E+03 -0.21927038589E+03 -0.32551672054E+03  0.89620914176E+03  0.70055727888E+03 0.  0.
    5000001    2    3    3    0    0 -0.18156994630E+03  0.60519882416E+02 -0.90110906259E+02  0.24006753998E+03  0.11349954518E+03 0.  0.
        -11    1    4    4    0    0 -0.14026576787E+02 -0.18031357977E+01  0.22572897107E+02  0.26637038859E+02  0.51100000000E-03 0. -1.
     200002    1    4    4    0    0 -0.16754336951E+03  0.62323018214E+02 -0.11268380337E+03  0.21343050112E+03  0.30000000000E+02 0. -1.
     200000    1    3    3    0    0 -0.21638694496E+03 -0.27979026830E+03 -0.23540581428E+03  0.65614160178E+03  0.50000000000E+03 0. -1.
    -200001    1    1    2    0    0  0.39795689126E+03  0.21927038589E+03 -0.22627853826E+04  0.24117725592E+04  0.70000000000E+03 0.  1.
<mgrwt>
<rscale>  0 0.20599600E+04</rscale>
<asrwt>0</asrwt>
<pdfrwt beam="1">  1        2 0.42116312E+00 0.20599600E+04</pdfrwt>
<pdfrwt beam="2">  1       -2 0.51405687E-01 0.20599600E+04</pdfrwt>
<totfact> 0.83723945E+00</totfact>
</mgrwt>
</event>
<event>
 8    1  0.2654897E-009  0.1825518E+04  0.7818608E-02  0.8692846E-01
          2   -1    0    0  501    0  0.00000000000E+00  0.00000000000E+00  0.14520127540E+04  0.14520127540E+04  0.25500000000E-02 0.  1.
         -2   -1    0    0    0  501 -0.00000000000E+00 -0.00000000000E+00 -0.57377549321E+03  0.57377549321E+03  0.25500000000E-02 0. -1.
     200001    2    1    2    0    0  0.51872557965E+02 -0.28158583910E+03  0.10063472527E+04  0.12587201166E+04  0.69975723776E+03 0.  0.
    5000001    2    3    3    0    0  0.39738068913E+02 -0.10048872253E+03  0.26456592765E+03  0.34593156184E+03  0.19492669886E+03 0.  0.
        -11    1    4    4    0    0 -0.67878416810E+02 -0.61142004005E+02  0.59210688231E+02  0.10886564988E+03  0.51100000000E-03 0. -1.
     200002    1    4    4    0    0  0.10761648572E+03 -0.39346718527E+02  0.20535523942E+03  0.23706591196E+03  0.30000000000E+02 0. -1.
     200000    1    3    3    0    0  0.12134489052E+02 -0.18109711657E+03  0.74178132506E+03  0.91278855474E+03  0.50000000000E+03 0.  1.
    -200001    1    1    2    0    0 -0.51872557965E+02  0.28158583910E+03 -0.12810999189E+03  0.76706813066E+03  0.70000000000E+03 0. -1.
<mgrwt>
<rscale>  0 0.18255184E+04</rscale>
<asrwt>0</asrwt>
<pdfrwt beam="1">  1        2 0.20743039E+00 0.18255184E+04</pdfrwt>
<pdfrwt beam="2">  1       -2 0.81967928E-01 0.18255184E+04</pdfrwt>
<totfact> 0.19182436E+01</totfact>
</mgrwt>
</event>
<event>
 8    1  0.2654897E-009  0.1429921E+04  0.7818608E-02  0.8932441E-01
         -2   -1    0    0    0  501 -0.00000000000E+00  0.00000000000E+00  0.46236176663E+03  0.46236176664E+03  0.25500000000E-02 0. -1.
          2   -1    0    0  501    0  0.00000000000E+00 -0.00000000000E+00 -0.11055590563E+04  0.11055590563E+04  0.25500000000E-02 0.  1.
     200001    2    1    2    0    0  0.13882437808E+03  0.36293019126E+02 -0.31446148927E+03  0.78137354679E+03  0.70076329827E+03 0.  0.
    5000001    2    3    3    0    0  0.42531625190E+02 -0.80386318629E+02 -0.16239639777E+03  0.23730539465E+03  0.14720856279E+03 0.  0.
        -11    1    4    4    0    0  0.40762017304E+02 -0.78332502864E+02 -0.18410464263E+02  0.90202373884E+02  0.51100000000E-03 0. -1.
     200002    1    4    4    0    0  0.17696078863E+01 -0.20538157651E+01 -0.14398593350E+03  0.14710302076E+03  0.30000000000E+02 0. -1.
     200000    1    3    3    0    0  0.96292752890E+02  0.11667933775E+03 -0.15206509151E+03  0.54406815214E+03  0.50000000000E+03 0. -1.
    -200001    1    1    2    0    0 -0.13882437808E+03 -0.36293019126E+02 -0.32873580041E+03  0.78654727618E+03  0.70000000000E+03 0.  1.
<mgrwt>
<rscale>  0 0.14299206E+04</rscale>
<asrwt>0</asrwt>
<pdfrwt beam="1">  1        2 0.15793701E+00 0.14299206E+04</pdfrwt>
<pdfrwt beam="2">  1       -2 0.66051681E-01 0.14299206E+04</pdfrwt>
<totfact> 0.49738839E+01</totfact>
</mgrwt>
</event>
<event>
 8    1  0.2654897E-009  0.1566074E+04  0.7818608E-02  0.8841666E-01
          2   -1    0    0  501    0  0.00000000000E+00  0.00000000000E+00  0.25153148151E+04  0.25153148151E+04  0.25500000000E-02 0.  1.
         -2   -1    0    0    0  501 -0.00000000000E+00 -0.00000000000E+00 -0.24376534918E+03  0.24376534919E+03  0.25500000000E-02 0. -1.
     200001    2    1    2    0    0 -0.12431626790E+03 -0.33204324629E+03  0.10579237845E+04  0.13138831028E+04  0.69381468867E+03 0.  0.
    5000001    2    3    3    0    0  0.30606431665E+01 -0.20983104359E+03  0.33932889499E+03  0.42083253585E+03  0.13385622832E+03 0.  0.
        -11    1    4    4    0    0  0.10420930762E+02  0.10679076888E+02  0.69068120763E+02  0.70661473146E+02  0.51100000000E-03 0. -1.
     200002    1    4    4    0    0 -0.73602875955E+01 -0.22051012048E+03  0.27026077423E+03  0.35017106270E+03  0.30000000000E+02 0. -1.
     200000    1    3    3    0    0 -0.12737691106E+03 -0.12221220270E+03  0.71859488951E+03  0.89305056698E+03  0.50000000000E+03 0. -1.
    -200001    1    1    2    0    0  0.12431626790E+03  0.33204324629E+03  0.12136256815E+04  0.14451970615E+04  0.70000000000E+03 0.  1.
<mgrwt>
<rscale>  0 0.15660736E+04</rscale>
<asrwt>0</asrwt>
<pdfrwt beam="1">  1        2 0.35933068E+00 0.15660736E+04</pdfrwt>
<pdfrwt beam="2">  1       -2 0.34823622E-01 0.15660736E+04</pdfrwt>
<totfact> 0.32274117E+01</totfact>
</mgrwt>
</event>
<event>
 8    1  0.2654897E-009  0.2081907E+04  0.7818608E-02  0.8569255E-01
          2   -1    0    0  501    0  0.00000000000E+00  0.00000000000E+00  0.78798667442E+03  0.78798667442E+03  0.25500000000E-02 0.  1.
         -2   -1    0    0    0  501 -0.00000000000E+00 -0.00000000000E+00 -0.13751305019E+04  0.13751305019E+04  0.25500000000E-02 0. -1.
     200001    2    1    2    0    0  0.27232521051E+03  0.28872111295E+03  0.39147532219E+03  0.89614585011E+03  0.70164346748E+03 0.  0.
    5000001    2    3    3    0    0  0.86019439650E+02  0.64154678619E+02  0.11477976415E+03  0.25450704555E+03  0.20021057712E+03 0.  0.
        -11    1    4    4    0    0  0.14118466856E+03  0.76059531573E+02  0.63185464190E+02  0.17236753135E+03  0.51100000000E-03 0. -1.
     200002    1    4    4    0    0 -0.55165228909E+02 -0.11904852954E+02  0.51594299957E+02  0.82139514196E+02  0.30000000000E+02 0. -1.
     200000    1    3    3    0    0  0.18630577086E+03  0.22456643433E+03  0.27669555804E+03  0.64163880456E+03  0.50000000000E+03 0.  1.
    -200001    1    1    2    0    0 -0.27232521051E+03 -0.28872111295E+03 -0.97861914966E+03  0.12669713262E+04  0.70000000000E+03 0. -1.
<mgrwt>
<rscale>  0 0.20819073E+04</rscale>
<asrwt>0</asrwt>
<pdfrwt beam="1">  1        2 0.11256953E+00 0.20819073E+04</pdfrwt>
<pdfrwt beam="2">  1       -2 0.19644721E+00 0.20819073E+04</pdfrwt>
<totfact> 0.50388664E+00</totfact>
</mgrwt>
</event>
<event>
 8    1  0.2654897E-009  0.1593777E+04  0.7818608E-02  0.8824380E-01
         -2   -1    0    0    0  501 -0.00000000000E+00  0.00000000000E+00  0.28347568434E+03  0.28347568435E+03  0.25500000000E-02 0. -1.
          2   -1    0    0  501    0  0.00000000000E+00 -0.00000000000E+00 -0.22401615305E+04  0.22401615305E+04  0.25500000000E-02 0.  1.
     200001    2    1    2    0    0  0.20520831623E+03 -0.12631206078E+03 -0.50979724727E+03  0.89835206837E+03  0.69934112970E+03 0.  0.
    5000001    2    3    3    0    0  0.77392672068E+02  0.58087319161E+02 -0.13820175511E+03  0.23621674987E+03  0.16533259046E+03 0.  0.
        -11    1    4    4    0    0  0.47955261030E+02 -0.53379055294E+02 -0.42407065258E+02  0.83351003524E+02  0.51100000000E-03 0. -1.
     200002    1    4    4    0    0  0.29437411039E+02  0.11146637446E+03 -0.95794689852E+02  0.15286574635E+03  0.30000000000E+02 0. -1.
     200000    1    3    3    0    0  0.12781564416E+03 -0.18439937994E+03 -0.37159549216E+03  0.66213531850E+03  0.50000000000E+03 0. -1.
    -200001    1    1    2    0    0 -0.20520831623E+03  0.12631206078E+03 -0.14468885989E+04  0.16252851465E+04  0.70000000000E+03 0.  1.
<mgrwt>
<rscale>  0 0.15937771E+04</rscale>
<asrwt>0</asrwt>
<pdfrwt beam="1">  1        2 0.32002307E+00 0.15937771E+04</pdfrwt>
<pdfrwt beam="2">  1       -2 0.40496527E-01 0.15937771E+04</pdfrwt>
<totfact> 0.33460531E+01</totfact>
</mgrwt>
</event>
<event>
 8    1  0.2654897E-009  0.1685266E+04  0.7818608E-02  0.8769813E-01
          2   -1    0    0  501    0  0.00000000000E+00  0.00000000000E+00  0.16421768403E+04  0.16421768403E+04  0.25500000000E-02 0. -1.
         -2   -1    0    0    0  501 -0.00000000000E+00 -0.00000000000E+00 -0.43237120160E+03  0.43237120161E+03  0.25500000000E-02 0.  1.
     200001    2    1    2    0    0 -0.41954807105E+03  0.99555040040E+02  0.37747273979E+03  0.90462930775E+03  0.69995480228E+03 0.  0.
    5000001    2    3    3    0    0 -0.13038314115E+03  0.11677167506E+03  0.14920200700E+02  0.22245842534E+03  0.13649084594E+03 0.  0.
        -11    1    4    4    0    0 -0.60771604476E+02  0.12338227040E+03  0.38457894178E+02  0.14281240207E+03  0.51100000000E-03 0. -1.
     200002    1    4    4    0    0 -0.69611536670E+02 -0.66105953465E+01 -0.23537693478E+02  0.79646023269E+02  0.30000000000E+02 0. -1.
     200000    1    3    3    0    0 -0.28916492990E+03 -0.17216635016E+02  0.36255253909E+03  0.68217088241E+03  0.50000000000E+03 0. -1.
    -200001    1    1    2    0    0  0.41954807105E+03 -0.99555040040E+02  0.83233289889E+03  0.11699187341E+04  0.70000000000E+03 0. -1.
<mgrwt>
<rscale>  0 0.16852655E+04</rscale>
<asrwt>0</asrwt>
<pdfrwt beam="1">  1        2 0.23459669E+00 0.16852655E+04</pdfrwt>
<pdfrwt beam="2">  1       -2 0.61767315E-01 0.16852655E+04</pdfrwt>
<totfact> 0.28592814E+01</totfact>
</mgrwt>
</event>
<event>
 8    1  0.2654897E-009  0.2702251E+04  0.7818608E-02  0.8334275E-01
          2   -1    0    0  501    0  0.00000000000E+00  0.00000000000E+00  0.23227424416E+04  0.23227424416E+04  0.25500000000E-02 0.  1.
         -2   -1    0    0    0  501 -0.00000000000E+00 -0.00000000000E+00 -0.78594196170E+03  0.78594196171E+03  0.25500000000E-02 0. -1.
     200001    2    1    2    0    0  0.96969621288E+03 -0.56873838995E+03  0.45990155774E+03  0.14017909122E+04  0.69981012939E+03 0.  0.
    5000001    2    3    3    0    0  0.21949497854E+03 -0.18787237844E+03  0.13867303810E+03  0.37171879211E+03  0.18833632875E+03 0.  0.
        -11    1    4    4    0    0  0.96837775811E+02 -0.19125723904E+03  0.58899096053E+02  0.22231956690E+03  0.51100000000E-03 0. -1.
     200002    1    4    4    0    0  0.12265720273E+03  0.33848606062E+01  0.79773942046E+02  0.14939922520E+03  0.30000000000E+02 0. -1.
     200000    1    3    3    0    0  0.75020123434E+03 -0.38086601151E+03  0.32122851965E+03  0.10300721201E+04  0.50000000000E+03 0.  1.
    -200001    1    1    2    0    0 -0.96969621288E+03  0.56873838995E+03  0.10768989221E+04  0.17068934911E+04  0.70000000000E+03 0.  1.
<mgrwt>
<rscale>  0 0.27022515E+04</rscale>
<asrwt>0</asrwt>
<pdfrwt beam="1">  1        2 0.33182035E+00 0.27022515E+04</pdfrwt>
<pdfrwt beam="2">  1       -2 0.11227742E+00 0.27022515E+04</pdfrwt>
<totfact> 0.30138840E+00</totfact>
</mgrwt>
</event>
<event>
 8    1  0.2654897E-009  0.1609513E+04  0.7818608E-02  0.8814725E-01
         -2   -1    0    0    0  501 -0.00000000000E+00  0.00000000000E+00  0.45233619299E+03  0.45233619299E+03  0.25500000000E-02 0. -1.
          2   -1    0    0  501    0  0.00000000000E+00 -0.00000000000E+00 -0.14317510962E+04  0.14317510962E+04  0.25500000000E-02 0.  1.
     200001    2    1    2    0    0  0.33723570587E+03 -0.62639964806E+02 -0.72158041816E+03  0.10630329011E+04  0.70121962500E+03 0.  0.
    5000001    2    3    3    0    0  0.11062821068E+03 -0.13012983970E+02 -0.26909979874E+03  0.34990422756E+03  0.19393382385E+03 0.  0.
        -11    1    4    4    0    0  0.16403172641E+02 -0.76894124411E+02 -0.19636954670E+03  0.21152486689E+03  0.51100000000E-03 0. -1.
     200002    1    4    4    0    0  0.94225038040E+02  0.63881140441E+02 -0.72730252043E+02  0.13837936067E+03  0.30000000000E+02 0. -1.
     200000    1    3    3    0    0  0.22660749519E+03 -0.49626980836E+02 -0.45248061942E+03  0.71312867356E+03  0.50000000000E+03 0. -1.
    -200001    1    1    2    0    0 -0.33723570587E+03  0.62639964806E+02 -0.25783448507E+03  0.82105438809E+03  0.70000000000E+03 0. -1.
<mgrwt>
<rscale>  0 0.16095128E+04</rscale>
<asrwt>0</asrwt>
<pdfrwt beam="1">  1        2 0.20453587E+00 0.16095128E+04</pdfrwt>
<pdfrwt beam="2">  1       -2 0.64619457E-01 0.16095128E+04</pdfrwt>
<totfact> 0.33763530E+01</totfact>
</mgrwt>
</event>
<event>
 8    1  0.2654897E-009  0.1566705E+04  0.7818608E-02  0.8841268E-01
         -2   -1    0    0    0  501 -0.00000000000E+00  0.00000000000E+00  0.83955214679E+03  0.83955214679E+03  0.25500000000E-02 0. -1.
          2   -1    0    0  501    0  0.00000000000E+00 -0.00000000000E+00 -0.73091463008E+03  0.73091463008E+03  0.25500000000E-02 0.  1.
     200001    2    1    2    0    0  0.26669667032E+03 -0.37977318395E+02 -0.17262447368E+03  0.76941890195E+03  0.69974055699E+03 0.  0.
    5000001    2    3    3    0    0  0.45437860585E+02 -0.26550624803E+02  0.10823364900E+03  0.15462843742E+03  0.97087053874E+02 0.  0.
        -11    1    4    4    0    0  0.56808518759E+02 -0.43525298642E+02  0.55281735347E+02  0.90430800553E+02  0.51100000000E-03 0. -1.
     200002    1    4    4    0    0 -0.11370658174E+02  0.16974673838E+02  0.52951913652E+02  0.64197636862E+02  0.30000000000E+02 0. -1.
     200000    1    3    3    0    0  0.22125880974E+03 -0.11426693592E+02 -0.28085812268E+03  0.61479046454E+03  0.50000000000E+03 0.  1.
    -200001    1    1    2    0    0 -0.26669667032E+03  0.37977318395E+02  0.28126199039E+03  0.80104787492E+03  0.70000000000E+03 0. -1.
<mgrwt>
<rscale>  0 0.15667048E+04</rscale>
<asrwt>0</asrwt>
<pdfrwt beam="1">  1        2 0.10441638E+00 0.15667048E+04</pdfrwt>
<pdfrwt beam="2">  1       -2 0.11993602E+00 0.15667048E+04</pdfrwt>
<totfact> 0.21847162E+01</totfact>
</mgrwt>
</event>
<event>
 8    1  0.2654897E-009  0.1744665E+04  0.7818608E-02  0.8736293E-01
          2   -1    0    0  501    0  0.00000000000E+00  0.00000000000E+00  0.48954973050E+03  0.48954973051E+03  0.25500000000E-02 0.  1.
         -2   -1    0    0    0  501 -0.00000000000E+00 -0.00000000000E+00 -0.15544157229E+04  0.15544157229E+04  0.25500000000E-02 0. -1.
     200001    2    1    2    0    0  0.34314973592E+03 -0.22708931070E+03 -0.15946414690E+03  0.82779367355E+03  0.70035152283E+03 0.  0.
    5000001    2    3    3    0    0  0.99577945524E+02 -0.67137376634E+02 -0.10321049769E+03  0.24635037336E+03  0.18871381784E+03 0.  0.
        -11    1    4    4    0    0  0.78961494838E+02  0.49217339928E+02 -0.11418839748E+02  0.93742488329E+02  0.51100000000E-03 0. -1.
     200002    1    4    4    0    0  0.20616450686E+02 -0.11635471656E+03 -0.91791657945E+02  0.15260788503E+03  0.30000000000E+02 0. -1.
     200000    1    3    3    0    0  0.24357179039E+03 -0.15995193406E+03 -0.56253649210E+02  0.58144330019E+03  0.50000000000E+03 0.  1.
    -200001    1    1    2    0    0 -0.34314973592E+03  0.22708931070E+03 -0.90540184545E+03  0.12161717798E+04  0.70000000000E+03 0. -1.
<mgrwt>
<rscale>  0 0.17446648E+04</rscale>
<asrwt>0</asrwt>
<pdfrwt beam="1">  1        2 0.69935677E-01 0.17446648E+04</pdfrwt>
<pdfrwt beam="2">  1       -2 0.22205939E+00 0.17446648E+04</pdfrwt>
<totfact> 0.62690270E+00</totfact>
</mgrwt>
</event>
<event>
 8    1  0.2654897E-009  0.1762440E+04  0.7818608E-02  0.8726532E-01
         -2   -1    0    0    0  501 -0.00000000000E+00  0.00000000000E+00  0.64465831316E+03  0.64465831317E+03  0.25500000000E-02 0. -1.
          2   -1    0    0  501    0  0.00000000000E+00 -0.00000000000E+00 -0.12045898379E+04  0.12045898379E+04  0.25500000000E-02 0.  1.
     200001    2    1    2    0    0  0.77041958967E+02 -0.44242189040E+03  0.25875526606E+02  0.83197606655E+03  0.69988716225E+03 0.  0.
    5000001    2    3    3    0    0  0.32751164143E+02 -0.81214005501E+02 -0.76933355713E+02  0.20507697028E+03  0.16872898114E+03 0.  0.
        -11    1    4    4    0    0  0.77006157190E+02 -0.12256760086E+02  0.13809230804E+02  0.79188832980E+02  0.51100000000E-03 0. -1.
     200002    1    4    4    0    0 -0.44254993048E+02 -0.68957245415E+02 -0.90742586517E+02  0.12588813730E+03  0.30000000000E+02 0. -1.
     200000    1    3    3    0    0  0.44290794824E+02 -0.36120788490E+03  0.10280888232E+03  0.62689909627E+03  0.50000000000E+03 0. -1.
    -200001    1    1    2    0    0 -0.77041958967E+02  0.44242189040E+03 -0.58580705134E+03  0.10172720845E+04  0.70000000000E+03 0.  1.
<mgrwt>
<rscale>  0 0.17624402E+04</rscale>
<asrwt>0</asrwt>
<pdfrwt beam="1">  1        2 0.17208426E+00 0.17624402E+04</pdfrwt>
<pdfrwt beam="2">  1       -2 0.92094046E-01 0.17624402E+04</pdfrwt>
<totfact> 0.20217470E+01</totfact>
</mgrwt>
</event>
<event>
 8    1  0.2654897E-009  0.1717933E+04  0.7818608E-02  0.8751202E-01
         -2   -1    0    0    0  501 -0.00000000000E+00  0.00000000000E+00  0.44016624007E+03  0.44016624008E+03  0.25500000000E-02 0. -1.
          2   -1    0    0  501    0  0.00000000000E+00 -0.00000000000E+00 -0.16762388793E+04  0.16762388793E+04  0.25500000000E-02 0.  1.
     200001    2    1    2    0    0  0.27234361896E+03  0.33289220581E+03 -0.92712835838E+03  0.12386609447E+04  0.69980402660E+03 0.  0.
    5000001    2    3    3    0    0  0.79760863286E+02  0.14052835115E+03 -0.23724386148E+03  0.34421553588E+03  0.18997282055E+03 0.  0.
        -11    1    4    4    0    0  0.12414176121E+03  0.31776678390E+02 -0.12434439256E+03  0.17855660763E+03  0.51100000000E-03 0. -1.
     200002    1    4    4    0    0 -0.44380897929E+02  0.10875167276E+03 -0.11289946891E+03  0.16565892825E+03  0.30000000000E+02 0. -1.
     200000    1    3    3    0    0  0.19258275568E+03  0.19236385466E+03 -0.68988449691E+03  0.89444540886E+03  0.50000000000E+03 0.  1.
    -200001    1    1    2    0    0 -0.27234361896E+03 -0.33289220581E+03 -0.30894428088E+03  0.87774417467E+03  0.70000000000E+03 0. -1.
<mgrwt>
<rscale>  0 0.17179334E+04</rscale>
<asrwt>0</asrwt>
<pdfrwt beam="1">  1        2 0.23946269E+00 0.17179334E+04</pdfrwt>
<pdfrwt beam="2">  1       -2 0.62880893E-01 0.17179334E+04</pdfrwt>
<totfact> 0.26353530E+01</totfact>
</mgrwt>
</event>
<event>
 8    1  0.2654897E-009  0.1528649E+04  0.7818608E-02  0.8865622E-01
          2   -1    0    0  501    0  0.00000000000E+00  0.00000000000E+00  0.94451853928E+03  0.94451853928E+03  0.25500000000E-02 0.  1.
         -2   -1    0    0    0  501 -0.00000000000E+00 -0.00000000000E+00 -0.61850792722E+03  0.61850792722E+03  0.25500000000E-02 0. -1.
     200001    2    1    2    0    0  0.10827982473E+03  0.28461317073E+03  0.19789447269E+03  0.78898323608E+03  0.70043068686E+03 0.  0.
    5000001    2    3    3    0    0 -0.57868121976E+02 -0.25938567186E+02 -0.19395104681E+02  0.13993602474E+03  0.12322496551E+03 0.  0.
        -11    1    4    4    0    0 -0.66223685936E+02 -0.40376763013E+02  0.27084700581E+02  0.82154979011E+02  0.51100000000E-03 0. -1.
     200002    1    4    4    0    0  0.83555639603E+01  0.14438195827E+02 -0.46479805262E+02  0.57781045725E+02  0.30000000000E+02 0. -1.
     200000    1    3    3    0    0  0.16614794671E+03  0.31055173792E+03  0.21728957737E+03  0.64904721134E+03  0.50000000000E+03 0. -1.
    -200001    1    1    2    0    0 -0.10827982473E+03 -0.28461317073E+03  0.12811613937E+03  0.77404323042E+03  0.70000000000E+03 0.  1.
<mgrwt>
<rscale>  0 0.15286493E+04</rscale>
<asrwt>0</asrwt>
<pdfrwt beam="1">  1        2 0.13493122E+00 0.15286493E+04</pdfrwt>
<pdfrwt beam="2">  1       -2 0.88358275E-01 0.15286493E+04</pdfrwt>
<totfact> 0.32425297E+01</totfact>
</mgrwt>
</event>
<event>
 8    1  0.2654897E-009  0.1486162E+04  0.7818608E-02  0.8893707E-01
         -2   -1    0    0    0  501 -0.00000000000E+00  0.00000000000E+00  0.73339294994E+03  0.73339294995E+03  0.25500000000E-02 0. -1.
          2   -1    0    0  501    0  0.00000000000E+00 -0.00000000000E+00 -0.75289726946E+03  0.75289726946E+03  0.25500000000E-02 0.  1.
     200001    2    1    2    0    0 -0.27462735290E+02 -0.18289884170E+03 -0.18227961513E+03  0.74419724344E+03  0.69742203215E+03 0.  0.
    5000001    2    3    3    0    0 -0.76352403678E+02 -0.61149588167E+02 -0.57443866659E+02  0.21241059026E+03  0.17958145605E+03 0.  0.
        -11    1    4    4    0    0 -0.92868548543E+02 -0.11042830489E+03 -0.36290264941E+02  0.14878158878E+03  0.51100000000E-03 0. -1.
     200002    1    4    4    0    0  0.16516144865E+02  0.49278716725E+02 -0.21153601717E+02  0.63629001476E+02  0.30000000000E+02 0. -1.
     200000    1    3    3    0    0  0.48889668388E+02 -0.12174925353E+03 -0.12483574847E+03  0.53178665319E+03  0.50000000000E+03 0.  1.
    -200001    1    1    2    0    0  0.27462735290E+02  0.18289884170E+03  0.16277529561E+03  0.74209297597E+03  0.70000000000E+03 0. -1.
<mgrwt>
<rscale>  0 0.14861622E+04</rscale>
<asrwt>0</asrwt>
<pdfrwt beam="1">  1        2 0.10755675E+00 0.14861622E+04</pdfrwt>
<pdfrwt beam="2">  1       -2 0.10477042E+00 0.14861622E+04</pdfrwt>
<totfact> 0.29424180E+01</totfact>
</mgrwt>
</event>
<event>
 8    1  0.2654897E-009  0.1714679E+04  0.7818608E-02  0.8753036E-01
          2   -1    0    0  501    0  0.00000000000E+00  0.00000000000E+00  0.16697445850E+04  0.16697445850E+04  0.25500000000E-02 0.  1.
         -2   -1    0    0    0  501 -0.00000000000E+00 -0.00000000000E+00 -0.44020578329E+03  0.44020578330E+03  0.25500000000E-02 0. -1.
     200001    2    1    2    0    0  0.33311503080E+03 -0.21571819915E+03  0.97694489978E+03  0.12665621751E+04  0.70161131757E+03 0.  0.
    5000001    2    3    3    0    0  0.98737252072E+02 -0.40648727384E+02  0.32989157977E+03  0.39808059091E+03  0.19554625660E+03 0.  0.
        -11    1    4    4    0    0  0.64228123164E+02 -0.47282993510E+02  0.34129445390E+03  0.35048942573E+03  0.51100000000E-03 0. -1.
     200002    1    4    4    0    0  0.34509128908E+02  0.66342661258E+01 -0.11402874132E+02  0.47591165183E+02  0.30000000000E+02 0. -1.
     200000    1    3    3    0    0  0.23437777873E+03 -0.17506947177E+03  0.64705332001E+03  0.86848158417E+03  0.50000000000E+03 0.  1.
    -200001    1    1    2    0    0 -0.33311503080E+03  0.21571819915E+03  0.25259390194E+03  0.84338819323E+03  0.70000000000E+03 0. -1.
<mgrwt>
<rscale>  0 0.17146792E+04</rscale>
<asrwt>0</asrwt>
<pdfrwt beam="1">  1        2 0.23853494E+00 0.17146792E+04</pdfrwt>
<pdfrwt beam="2">  1       -2 0.62886540E-01 0.17146792E+04</pdfrwt>
<totfact> 0.26561561E+01</totfact>
</mgrwt>
</event>
<event>
 8    1  0.2970336E-009  0.1872955E+04  0.7818608E-02  0.8668437E-01
         -2   -1    0    0    0  501 -0.00000000000E+00  0.00000000000E+00  0.34755639670E+03  0.34755639671E+03  0.25500000000E-02 0. -1.
          2   -1    0    0  501    0  0.00000000000E+00 -0.00000000000E+00 -0.25233017643E+04  0.25233017643E+04  0.25500000000E-02 0.  1.
     200001    2    1    2    0    0  0.55420735145E+03 -0.16287595214E+03 -0.14274469791E+04  0.16945823250E+04  0.70734009771E+03 0.  0.
    5000001    2    3    3    0    0  0.21597450154E+03 -0.14160522005E+03 -0.52338810822E+03  0.60730299252E+03  0.16788326073E+03 0.  0.
        -11    1    4    4    0    0 -0.18486251959E+02 -0.51763349170E+02 -0.85422766695E+02  0.10157871282E+03  0.51100000000E-03 0. -1.
     200002    1    4    4    0    0  0.23446075350E+03 -0.89841870877E+02 -0.43796534153E+03  0.50572427970E+03  0.30000000000E+02 0. -1.
     200000    1    3    3    0    0  0.33823284992E+03 -0.21270732095E+02 -0.90405887085E+03  0.10872793324E+04  0.50000000000E+03 0.  1.
    -200001    1    1    2    0    0 -0.55420735145E+03  0.16287595214E+03 -0.74829838851E+03  0.11762758360E+04  0.70000000000E+03 0. -1.
<mgrwt>
<rscale>  0 0.18729545E+04</rscale>
<asrwt>0</asrwt>
<pdfrwt beam="1">  1        2 0.36047167E+00 0.18729545E+04</pdfrwt>
<pdfrwt beam="2">  1       -2 0.49650915E-01 0.18729545E+04</pdfrwt>
<totfact> 0.15491036E+01</totfact>
</mgrwt>
</event>
<event>
 8    1  0.2654897E-009  0.1745753E+04  0.7818608E-02  0.8735691E-01
         -2   -1    0    0    0  501 -0.00000000000E+00  0.00000000000E+00  0.25358144374E+03  0.25358144375E+03  0.25500000000E-02 0. -1.
          2   -1    0    0  501    0  0.00000000000E+00 -0.00000000000E+00 -0.30046109706E+04  0.30046109706E+04  0.25500000000E-02 0.  1.
     200001    2    1    2    0    0 -0.27195558935E+03 -0.32706920614E+03 -0.19394063609E+04  0.21050808535E+04  0.69938134024E+03 0.  0.
    5000001    2    3    3    0    0 -0.72385338672E+02 -0.31707139892E+02 -0.39323849280E+03  0.44143963277E+03  0.18435687451E+03 0.  0.
        -11    1    4    4    0    0 -0.71010257923E+02 -0.95251949050E+02 -0.31289928837E+03  0.33469591452E+03  0.51100000000E-03 0. -1.
     200002    1    4    4    0    0 -0.13750807487E+01  0.63544809158E+02 -0.80339204430E+02  0.10674371825E+03  0.30000000000E+02 0. -1.
     200000    1    3    3    0    0 -0.19957025068E+03 -0.29536206625E+03 -0.15461678681E+04  0.16636412208E+04  0.50000000000E+03 0. -1.
    -200001    1    1    2    0    0  0.27195558935E+03  0.32706920614E+03 -0.81162316603E+03  0.11531115609E+04  0.70000000000E+03 0. -1.
<mgrwt>
<rscale>  0 0.17457532E+04</rscale>
<asrwt>0</asrwt>
<pdfrwt beam="1">  1        2 0.42923012E+00 0.17457532E+04</pdfrwt>
<pdfrwt beam="2">  1       -2 0.36225922E-01 0.17457532E+04</pdfrwt>
<totfact> 0.16021415E+01</totfact>
</mgrwt>
</event>
<event>
 8    1  0.2654897E-009  0.1643293E+04  0.7818608E-02  0.8794384E-01
          2   -1    0    0  501    0  0.00000000000E+00  0.00000000000E+00  0.11860603439E+04  0.11860603439E+04  0.25500000000E-02 0.  1.
         -2   -1    0    0    0  501 -0.00000000000E+00 -0.00000000000E+00 -0.56919793478E+03  0.56919793478E+03  0.25500000000E-02 0. -1.
     200001    2    1    2    0    0 -0.14832032919E+03  0.19997781314E+03 -0.66089445839E+02  0.74609363304E+03  0.70021271669E+03 0.  0.
    5000001    2    3    3    0    0  0.22087905067E+02  0.22308847590E+02 -0.38375822583E+02  0.18808532438E+03  0.18143270173E+03 0.  0.
        -11    1    4    4    0    0  0.31116069912E+02 -0.49328520637E+02  0.45088340488E+02  0.73718865992E+02  0.51100000000E-03 0. -1.
     200002    1    4    4    0    0 -0.90281648457E+01  0.71637368227E+02 -0.83464163071E+02  0.11436645839E+03  0.30000000000E+02 0. -1.
     200000    1    3    3    0    0 -0.17040823425E+03  0.17766896555E+03 -0.27713623257E+02  0.55800830866E+03  0.50000000000E+03 0. -1.
    -200001    1    1    2    0    0  0.14832032919E+03 -0.19997781314E+03  0.68295185493E+03  0.10091646456E+04  0.70000000000E+03 0.  1.
<mgrwt>
<rscale>  0 0.16432932E+04</rscale>
<asrwt>0</asrwt>
<pdfrwt beam="1">  1        2 0.16943719E+00 0.16432932E+04</pdfrwt>
<pdfrwt beam="2">  1       -2 0.81313991E-01 0.16432932E+04</pdfrwt>
<totfact> 0.27791334E+01</totfact>
</mgrwt>
</event>
<event>
 8    1  0.2654897E-009  0.1539351E+04  0.7818608E-02  0.8858699E-01
         -2   -1    0    0    0  501 -0.00000000000E+00  0.00000000000E+00  0.68609017649E+03  0.68609017650E+03  0.25500000000E-02 0. -1.
          2   -1    0    0  501    0  0.00000000000E+00 -0.00000000000E+00 -0.86344347866E+03  0.86344347866E+03  0.25500000000E-02 0.  1.
     200001    2    1    2    0    0  0.16111860866E+03  0.26022216128E+03  0.69802180804E+00  0.76507393456E+03  0.70118675032E+03 0.  0.
    5000001    2    3    3    0    0  0.98574703126E+02  0.46831432781E+02  0.14379078607E+02  0.21768511987E+03  0.18780281765E+03 0.  0.
        -11    1    4    4    0    0 -0.99533553276E+00  0.49706040144E+02 -0.68525198478E+02  0.84660403651E+02  0.51100000000E-03 0. -1.
     200002    1    4    4    0    0  0.99570038659E+02 -0.28746073624E+01  0.82904277086E+02  0.13302471622E+03  0.30000000000E+02 0. -1.
     200000    1    3    3    0    0  0.62543905531E+02  0.21339072850E+03 -0.13681056799E+02  0.54738881469E+03  0.50000000000E+03 0. -1.
    -200001    1    1    2    0    0 -0.16111860866E+03 -0.26022216128E+03 -0.17805132397E+03  0.78445972060E+03  0.70000000000E+03 0.  1.
<mgrwt>
<rscale>  0 0.15393506E+04</rscale>
<asrwt>0</asrwt>
<pdfrwt beam="1">  1        2 0.12334907E+00 0.15393506E+04</pdfrwt>
<pdfrwt beam="2">  1       -2 0.98012883E-01 0.15393506E+04</pdfrwt>
<totfact> 0.28756240E+01</totfact>
</mgrwt>
</event>
<event>
 8    1  0.2654897E-009  0.2129368E+04  0.7818608E-02  0.8548416E-01
          2   -1    0    0  501    0  0.00000000000E+00  0.00000000000E+00  0.21510071981E+04  0.21510071981E+04  0.25500000000E-02 0.  1.
         -2   -1    0    0    0  501 -0.00000000000E+00 -0.00000000000E+00 -0.52698674841E+03  0.52698674841E+03  0.25500000000E-02 0. -1.
     200001    2    1    2    0    0  0.66909013691E+03 -0.43748587936E+03  0.89773922743E+03  0.13909197763E+04  0.69974752419E+03 0.  0.
    5000001    2    3    3    0    0  0.18547084557E+03 -0.10652801823E+03  0.17586161064E+03  0.33520768559E+03  0.18891594203E+03 0.  0.
        -11    1    4    4    0    0  0.18881974471E+02  0.49854671588E+02  0.19716397431E+02  0.56839718217E+02  0.51100000000E-03 0. -1.
     200002    1    4    4    0    0  0.16658887110E+03 -0.15638268982E+03  0.15614521321E+03  0.27836796737E+03  0.30000000000E+02 0. -1.
     200000    1    3    3    0    0  0.48361929134E+03 -0.33095786113E+03  0.72187761679E+03  0.10557120907E+04  0.50000000000E+03 0. -1.
    -200001    1    1    2    0    0 -0.66909013691E+03  0.43748587936E+03  0.72628122230E+03  0.12870741703E+04  0.70000000000E+03 0.  1.
<mgrwt>
<rscale>  0 0.21293683E+04</rscale>
<asrwt>0</asrwt>
<pdfrwt beam="1">  1        2 0.30728674E+00 0.21293683E+04</pdfrwt>
<pdfrwt beam="2">  1       -2 0.75283822E-01 0.21293683E+04</pdfrwt>
<totfact> 0.98013857E+00</totfact>
</mgrwt>
</event>
<event>
 8    1  0.2654897E-009  0.1570798E+04  0.7818608E-02  0.8838691E-01
          2   -1    0    0  501    0  0.00000000000E+00  0.00000000000E+00  0.22680242050E+04  0.22680242050E+04  0.25500000000E-02 0.  1.
         -2   -1    0    0    0  501 -0.00000000000E+00 -0.00000000000E+00 -0.27197757992E+03  0.27197757993E+03  0.25500000000E-02 0. -1.
     200001    2    1    2    0    0  0.34018099757E+03  0.93046147499E+02  0.10802444110E+04  0.13345664313E+04  0.69982774680E+03 0.  0.
    5000001    2    3    3    0    0  0.18075569968E+03  0.52363082849E+02  0.38471129661E+03  0.46230623463E+03  0.17409697708E+03 0.  0.
        -11    1    4    4    0    0  0.10214602412E+03 -0.95298414196E+00  0.33646080219E+03  0.35162563876E+03  0.51100000000E-03 0. -1.
     200002    1    4    4    0    0  0.78609675560E+02  0.53316066991E+02  0.48250494421E+02  0.11068059587E+03  0.30000000000E+02 0. -1.
     200000    1    3    3    0    0  0.15942529789E+03  0.40683064650E+02  0.69553311442E+03  0.87226019662E+03  0.50000000000E+03 0. -1.
    -200001    1    1    2    0    0 -0.34018099757E+03 -0.93046147499E+02  0.91580221409E+03  0.12054353537E+04  0.70000000000E+03 0.  1.
<mgrwt>
<rscale>  0 0.15707982E+04</rscale>
<asrwt>0</asrwt>
<pdfrwt beam="1">  1        2 0.32400346E+00 0.15707982E+04</pdfrwt>
<pdfrwt beam="2">  1       -2 0.38853939E-01 0.15707982E+04</pdfrwt>
<totfact> 0.35158117E+01</totfact>
</mgrwt>
</event>
<event>
 8    1  0.2654897E-009  0.1940940E+04  0.7818608E-02  0.8634742E-01
          2   -1    0    0  501    0  0.00000000000E+00  0.00000000000E+00  0.16203406673E+04  0.16203406673E+04  0.25500000000E-02 0.  1.
         -2   -1    0    0    0  501 -0.00000000000E+00 -0.00000000000E+00 -0.58124341024E+03  0.58124341025E+03  0.25500000000E-02 0. -1.
     200001    2    1    2    0    0 -0.29808510687E+03  0.59297797587E+03  0.40862035552E+03  0.10492044812E+04  0.70241144461E+03 0.  0.
    5000001    2    3    3    0    0 -0.14031676392E+03  0.13966312115E+03  0.10602897232E+03  0.29293286808E+03  0.18807695389E+03 0.  0.
        -11    1    4    4    0    0 -0.60035018357E+02 -0.20106327894E+02  0.91200712098E+02  0.11102269019E+03  0.51100000000E-03 0. -1.
     200002    1    4    4    0    0 -0.80281745567E+02  0.15976944904E+03  0.14828260226E+02  0.18191017789E+03  0.30000000000E+02 0. -1.
     200000    1    3    3    0    0 -0.15776834295E+03  0.45331485472E+03  0.30259138320E+03  0.75627161307E+03  0.50000000000E+03 0.  1.
    -200001    1    1    2    0    0  0.29808510687E+03 -0.59297797587E+03  0.63047690153E+03  0.11523795964E+04  0.70000000000E+03 0.  1.
<mgrwt>
<rscale>  0 0.19409403E+04</rscale>
<asrwt>0</asrwt>
<pdfrwt beam="1">  1        2 0.23147724E+00 0.19409403E+04</pdfrwt>
<pdfrwt beam="2">  1       -2 0.83034772E-01 0.19409403E+04</pdfrwt>
<totfact> 0.15032392E+01</totfact>
</mgrwt>
</event>
<event>
 8    1  0.2654897E-009  0.1453625E+04  0.7818608E-02  0.8915891E-01
         -2   -1    0    0    0  501 -0.00000000000E+00  0.00000000000E+00  0.55933742794E+03  0.55933742794E+03  0.25500000000E-02 0. -1.
          2   -1    0    0  501    0  0.00000000000E+00 -0.00000000000E+00 -0.94443286998E+03  0.94443286998E+03  0.25500000000E-02 0.  1.
     200001    2    1    2    0    0  0.56197378747E+02 -0.18300918603E+03 -0.23592126859E+03  0.76289011761E+03  0.69977995044E+03 0.  0.
    5000001    2    3    3    0    0 -0.20351843978E+02 -0.11637100678E+03 -0.19151847456E+03  0.25076509523E+03  0.11066796337E+03 0.  0.
        -11    1    4    4    0    0 -0.27054810106E+02 -0.17897195781E+02  0.88501359075E+00  0.32450818418E+02  0.51100000000E-03 0. -1.
     200002    1    4    4    0    0  0.67029661281E+01 -0.98473810999E+02 -0.19240348815E+03  0.21831427681E+03  0.30000000000E+02 0. -1.
     200000    1    3    3    0    0  0.76549222726E+02 -0.66638179246E+02 -0.44402794031E+02  0.51212502238E+03  0.50000000000E+03 0. -1.
    -200001    1    1    2    0    0 -0.56197378747E+02  0.18300918603E+03 -0.14917417345E+03  0.74088018031E+03  0.70000000000E+03 0. -1.
<mgrwt>
<rscale>  0 0.14536253E+04</rscale>
<asrwt>0</asrwt>
<pdfrwt beam="1">  1        2 0.13491898E+00 0.14536253E+04</pdfrwt>
<pdfrwt beam="2">  1       -2 0.79905347E-01 0.14536253E+04</pdfrwt>
<totfact> 0.40978801E+01</totfact>
</mgrwt>
</event>
<event>
 8    1  0.2654897E-009  0.1819786E+04  0.7818608E-02  0.8695848E-01
         -2   -1    0    0    0  501 -0.00000000000E+00  0.00000000000E+00  0.49714582808E+03  0.49714582809E+03  0.25500000000E-02 0. -1.
          2   -1    0    0  501    0  0.00000000000E+00 -0.00000000000E+00 -0.16653168425E+04  0.16653168425E+04  0.25500000000E-02 0.  1.
     200001    2    1    2    0    0  0.19996023704E+03 -0.53514562097E+03 -0.71448861948E+03  0.11514272372E+04  0.69923226698E+03 0.  0.
    5000001    2    3    3    0    0  0.29603145407E+02 -0.12967331001E+03 -0.30123089516E+03  0.36771091076E+03  0.16364518982E+03 0.  0.
        -11    1    4    4    0    0  0.69368536326E+02 -0.92028011068E+02 -0.86523501629E+02  0.14410921201E+03  0.51100000000E-03 0. -1.
     200002    1    4    4    0    0 -0.39765390919E+02 -0.37645298940E+02 -0.21470739353E+03  0.22360169875E+03  0.30000000000E+02 0. -1.
     200000    1    3    3    0    0  0.17035709164E+03 -0.40547231096E+03 -0.41325772432E+03  0.78371632645E+03  0.50000000000E+03 0.  1.
    -200001    1    1    2    0    0 -0.19996023704E+03  0.53514562097E+03 -0.45368239491E+03  0.10110354334E+04  0.70000000000E+03 0. -1.
<mgrwt>
<rscale>  0 0.18197861E+04</rscale>
<asrwt>0</asrwt>
<pdfrwt beam="1">  1        2 0.23790240E+00 0.18197861E+04</pdfrwt>
<pdfrwt beam="2">  1       -2 0.71020833E-01 0.18197861E+04</pdfrwt>
<totfact> 0.20361652E+01</totfact>
</mgrwt>
</event>
<event>
 8    1  0.2654897E-009  0.2036190E+04  0.7818608E-02  0.8589885E-01
          2   -1    0    0  501    0  0.00000000000E+00  0.00000000000E+00  0.38645694609E+03  0.38645694610E+03  0.25500000000E-02 0.  1.
         -2   -1    0    0    0  501 -0.00000000000E+00 -0.00000000000E+00 -0.26821041225E+04  0.26821041225E+04  0.25500000000E-02 0. -1.
     200001    2    1    2    0    0  0.27856858783E+03 -0.10457424821E+03 -0.12893632581E+03  0.77222221260E+03  0.70083260341E+03 0.  0.
    5000001    2    3    3    0    0 -0.42141314522E+02  0.11124990242E+02  0.43496156589E+02  0.14295747004E+03  0.12901653694E+03 0.  0.
        -11    1    4    4    0    0 -0.73020476583E+02  0.25446437406E+02 -0.37953158658E+01  0.77420382328E+02  0.51100000000E-03 0. -1.
     200002    1    4    4    0    0  0.30879162060E+02 -0.14321447164E+02  0.47291472454E+02  0.65537087709E+02  0.30000000000E+02 0. -1.
     200000    1    3    3    0    0  0.32070990235E+03 -0.11569923846E+03 -0.17243248240E+03  0.62926474256E+03  0.50000000000E+03 0.  1.
    -200001    1    1    2    0    0 -0.27856858783E+03  0.10457424821E+03 -0.21667108506E+04  0.22963388560E+04  0.70000000000E+03 0. -1.
<mgrwt>
<rscale>  0 0.20361903E+04</rscale>
<asrwt>0</asrwt>
<pdfrwt beam="1">  1        2 0.55208137E-01 0.20361903E+04</pdfrwt>
<pdfrwt beam="2">  1       -2 0.38315772E+00 0.20361903E+04</pdfrwt>
<totfact> 0.80012921E-01</totfact>
</mgrwt>
</event>
<event>
 8    1  0.2654897E-009  0.1701639E+04  0.7818608E-02  0.8760430E-01
          2   -1    0    0  501    0  0.00000000000E+00  0.00000000000E+00  0.48767872211E+04  0.48767872211E+04  0.25500000000E-02 0.  1.
         -2   -1    0    0    0  501 -0.00000000000E+00 -0.00000000000E+00 -0.14843659774E+03  0.14843659776E+03  0.25500000000E-02 0. -1.
     200001    2    1    2    0    0 -0.44996225420E+03 -0.57043010736E+02  0.28612321102E+04  0.29802662454E+04  0.69972692490E+03 0.  0.
    5000001    2    3    3    0    0 -0.19601501245E+03 -0.39996988398E+02  0.67221401375E+03  0.72049192143E+03  0.16497055607E+03 0.  0.
        -11    1    4    4    0    0 -0.59374999608E+01  0.35023781686E+02  0.32085227758E+02  0.47868371916E+02  0.51100000000E-03 0. -1.
     200002    1    4    4    0    0 -0.19007751249E+03 -0.75020770084E+02  0.64012878599E+03  0.67262354951E+03  0.30000000000E+02 0. -1.
     200000    1    3    3    0    0 -0.25394724175E+03 -0.17046022338E+02  0.21890180965E+04  0.22597743239E+04  0.50000000000E+03 0.  1.
    -200001    1    1    2    0    0  0.44996225420E+03  0.57043010736E+02  0.18671185132E+04  0.20449575735E+04  0.70000000000E+03 0.  1.
<mgrwt>
<rscale>  0 0.17016389E+04</rscale>
<asrwt>0</asrwt>
<pdfrwt beam="1">  1        2 0.69668389E+00 0.17016389E+04</pdfrwt>
<pdfrwt beam="2">  1       -2 0.21205228E-01 0.17016389E+04</pdfrwt>
<totfact> 0.21780170E+00</totfact>
</mgrwt>
</event>
<event>
 8    1  0.2654897E-009  0.2378462E+04  0.7818608E-02  0.8447611E-01
         -2   -1    0    0    0  501 -0.00000000000E+00  0.00000000000E+00  0.95167541904E+03  0.95167541904E+03  0.25500000000E-02 0. -1.
          2   -1    0    0  501    0  0.00000000000E+00 -0.00000000000E+00 -0.14860848188E+04  0.14860848188E+04  0.25500000000E-02 0.  1.
     200001    2    1    2    0    0 -0.27566895827E+03  0.65857048520E+03 -0.92705259929E+03  0.13635735032E+04  0.70014121316E+03 0.  0.
    5000001    2    3    3    0    0 -0.10434233612E+03  0.26526385016E+03 -0.36629149245E+03  0.49841690495E+03  0.18165274672E+03 0.  0.
        -11    1    4    4    0    0 -0.10539584067E+03  0.84112761062E+02 -0.75610660944E+02  0.15459693352E+03  0.51100000000E-03 0. -1.
     200002    1    4    4    0    0  0.10535045450E+01  0.18115108910E+03 -0.29068083150E+03  0.34381997143E+03  0.30000000000E+02 0. -1.
     200000    1    3    3    0    0 -0.17132662215E+03  0.39330663505E+03 -0.56076110685E+03  0.86515659830E+03  0.50000000000E+03 0.  1.
    -200001    1    1    2    0    0  0.27566895827E+03 -0.65857048520E+03  0.39264319957E+03  0.10741867346E+04  0.70000000000E+03 0.  1.
<mgrwt>
<rscale>  0 0.23784620E+04</rscale>
<asrwt>0</asrwt>
<pdfrwt beam="1">  1        2 0.21229783E+00 0.23784620E+04</pdfrwt>
<pdfrwt beam="2">  1       -2 0.13595363E+00 0.23784620E+04</pdfrwt>
<totfact> 0.52202554E+00</totfact>
</mgrwt>
</event>
<event>
 8    1  0.2654897E-009  0.2015048E+04  0.7818608E-02  0.8599617E-01
          2   -1    0    0  501    0  0.00000000000E+00  0.00000000000E+00  0.15061596253E+04  0.15061596253E+04  0.25500000000E-02 0.  1.
         -2   -1    0    0    0  501 -0.00000000000E+00 -0.00000000000E+00 -0.67396899134E+03  0.67396899134E+03  0.25500000000E-02 0. -1.
     200001    2    1    2    0    0  0.14421912539E+03  0.56870363116E+03  0.87568553426E+03  0.12657354941E+04  0.70074118603E+03 0.  0.
    5000001    2    3    3    0    0  0.39062363310E+02  0.16217380062E+03  0.29270249018E+03  0.39041059586E+03  0.19728019609E+03 0.  0.
        -11    1    4    4    0    0 -0.54544578709E+02 -0.45684865165E+00  0.12724678230E+03  0.13844516381E+03  0.51100000000E-03 0. -1.
     200002    1    4    4    0    0  0.93606942019E+02  0.16263064927E+03  0.16545570788E+03  0.25196543205E+03  0.30000000000E+02 0. -1.
     200000    1    3    3    0    0  0.10515676208E+03  0.40652983054E+03  0.58298304408E+03  0.87532489820E+03  0.50000000000E+03 0. -1.
    -200001    1    1    2    0    0 -0.14421912539E+03 -0.56870363116E+03 -0.43494900324E+02  0.91439312255E+03  0.70000000000E+03 0. -1.
<mgrwt>
<rscale>  0 0.20150483E+04</rscale>
<asrwt>0</asrwt>
<pdfrwt beam="1">  1        2 0.21516566E+00 0.20150483E+04</pdfrwt>
<pdfrwt beam="2">  1       -2 0.96281284E-01 0.20150483E+04</pdfrwt>
<totfact> 0.12210661E+01</totfact>
</mgrwt>
</event>
<event>
 8    1  0.2654897E-009  0.1472154E+04  0.7818608E-02  0.8903184E-01
         -2   -1    0    0    0  501 -0.00000000000E+00  0.00000000000E+00  0.26395015651E+03  0.26395015652E+03  0.25500000000E-02 0. -1.
          2   -1    0    0  501    0  0.00000000000E+00 -0.00000000000E+00 -0.20526955929E+04  0.20526955929E+04  0.25500000000E-02 0.  1.
     200001    2    1    2    0    0 -0.12484961093E+03 -0.13408030561E+03 -0.69935019553E+03  0.10088434155E+04  0.70364009791E+03 0.  0.
    5000001    2    3    3    0    0 -0.78513014505E+02 -0.11464907832E+03 -0.16473438983E+03  0.27512772641E+03  0.17102380549E+03 0.  0.
        -11    1    4    4    0    0 -0.85656163915E+02  0.75655950453E+01 -0.10478752158E+03  0.13555309411E+03  0.51100000000E-03 0. -1.
     200002    1    4    4    0    0  0.71431494104E+01 -0.12221467336E+03 -0.59946868249E+02  0.13957463230E+03  0.30000000000E+02 0. -1.
     200000    1    3    3    0    0 -0.46336596426E+02 -0.19431227294E+02 -0.53461580570E+03  0.73371568912E+03  0.50000000000E+03 0.  1.
    -200001    1    1    2    0    0  0.12484961093E+03  0.13408030561E+03 -0.10893952409E+04  0.13078023339E+04  0.70000000000E+03 0.  1.
<mgrwt>
<rscale>  0 0.14721540E+04</rscale>
<asrwt>0</asrwt>
<pdfrwt beam="1">  1        2 0.29324222E+00 0.14721540E+04</pdfrwt>
<pdfrwt beam="2">  1       -2 0.37707167E-01 0.14721540E+04</pdfrwt>
<totfact> 0.48486580E+01</totfact>
</mgrwt>
</event>
<event>
 8    1  0.2654897E-009  0.1561081E+04  0.7818608E-02  0.8844821E-01
         -2   -1    0    0    0  501 -0.00000000000E+00  0.00000000000E+00  0.19374142503E+03  0.19374142504E+03  0.25500000000E-02 0. -1.
          2   -1    0    0  501    0  0.00000000000E+00 -0.00000000000E+00 -0.31446206794E+04  0.31446206794E+04  0.25500000000E-02 0.  1.
     200001    2    1    2    0    0  0.30911676511E+01  0.33886115943E+02 -0.22110323341E+04  0.23192785507E+04  0.69945063369E+03 0.  0.
    5000001    2    3    3    0    0 -0.74178895375E+02  0.65037240561E+02 -0.93154973034E+03  0.94304572569E+03  0.10871057665E+03 0.  0.
        -11    1    4    4    0    0 -0.85301385692E+02  0.13899190673E+02 -0.53628610695E+03  0.54320558025E+03  0.51100000000E-03 0. -1.
     200002    1    4    4    0    0  0.11122490317E+02  0.51138049888E+02 -0.39526362338E+03  0.39984014544E+03  0.30000000000E+02 0. -1.
     200000    1    3    3    0    0  0.77270063026E+02 -0.31151124618E+02 -0.12794826038E+04  0.13762328250E+04  0.50000000000E+03 0.  1.
    -200001    1    1    2    0    0 -0.30911676511E+01 -0.33886115943E+02 -0.73984692032E+03  0.10190835538E+04  0.70000000000E+03 0. -1.
<mgrwt>
<rscale>  0 0.15610808E+04</rscale>
<asrwt>0</asrwt>
<pdfrwt beam="1">  1        2 0.44923149E+00 0.15610808E+04</pdfrwt>
<pdfrwt beam="2">  1       -2 0.27677348E-01 0.15610808E+04</pdfrwt>
<totfact> 0.22524235E+01</totfact>
</mgrwt>
</event>
<event>
 8    1  0.2654897E-009  0.1449850E+04  0.7818608E-02  0.8918504E-01
          2   -1    0    0  501    0  0.00000000000E+00  0.00000000000E+00  0.10050430089E+04  0.10050430089E+04  0.25500000000E-02 0.  1.
         -2   -1    0    0    0  501 -0.00000000000E+00 -0.00000000000E+00 -0.52287948942E+03  0.52287948942E+03  0.25500000000E-02 0. -1.
     200001    2    1    2    0    0 -0.61141364421E+01 -0.99223051332E+02  0.72762283992E+02  0.71092068179E+03  0.70016517283E+03 0.  0.
    5000001    2    3    3    0    0  0.85031628287E+02 -0.17801199328E+02 -0.10777529288E+02  0.18946505682E+03  0.16802854552E+03 0.  0.
        -11    1    4    4    0    0  0.11529123072E+03  0.23034498415E+02  0.25343358038E+02  0.12027028642E+03  0.51100000000E-03 0. -1.
     200002    1    4    4    0    0 -0.30259602433E+02 -0.40835697743E+02 -0.36120887325E+02  0.69194770400E+02  0.30000000000E+02 0. -1.
     200000    1    3    3    0    0 -0.91145764729E+02 -0.81421852003E+02  0.83539813280E+02  0.52145562497E+03  0.50000000000E+03 0. -1.
    -200001    1    1    2    0    0  0.61141364421E+01  0.99223051332E+02  0.40940123547E+03  0.81700181651E+03  0.70000000000E+03 0.  1.
<mgrwt>
<rscale>  0 0.14498502E+04</rscale>
<asrwt>0</asrwt>
<pdfrwt beam="1">  1        2 0.14357757E+00 0.14498502E+04</pdfrwt>
<pdfrwt beam="2">  1       -2 0.74697070E-01 0.14498502E+04</pdfrwt>
<totfact> 0.43649677E+01</totfact>
</mgrwt>
</event>
<event>
 8    1  0.2654897E-009  0.1753717E+04  0.7818608E-02  0.8731307E-01
          2   -1    0    0  501    0  0.00000000000E+00  0.00000000000E+00  0.35187298210E+03  0.35187298211E+03  0.25500000000E-02 0.  1.
         -2   -1    0    0    0  501 -0.00000000000E+00 -0.00000000000E+00 -0.21851089332E+04  0.21851089332E+04  0.25500000000E-02 0. -1.
     200001    2    1    2    0    0  0.34676987296E+03  0.73958198880E+01 -0.34066181236E+03  0.85232123653E+03  0.70006926579E+03 0.  0.
    5000001    2    3    3    0    0  0.15532278238E+03 -0.10879435013E+03 -0.15944097906E+03  0.27526566337E+03  0.11995158305E+03 0.  0.
        -11    1    4    4    0    0  0.36636782378E+02 -0.78485781099E+02 -0.23315959828E+02  0.89698972350E+02  0.51100000000E-03 0. -1.
     200002    1    4    4    0    0  0.11868600000E+03 -0.30308569035E+02 -0.13612501923E+03  0.18556669102E+03  0.30000000000E+02 0. -1.
     200000    1    3    3    0    0  0.19144709058E+03  0.11619017002E+03 -0.18122083330E+03  0.57705557317E+03  0.50000000000E+03 0.  1.
    -200001    1    1    2    0    0 -0.34676987296E+03 -0.73958198880E+01 -0.14925741387E+04  0.16846606787E+04  0.70000000000E+03 0.  1.
<mgrwt>
<rscale>  0 0.17537170E+04</rscale>
<asrwt>0</asrwt>
<pdfrwt beam="1">  1        2 0.50267570E-01 0.17537170E+04</pdfrwt>
<pdfrwt beam="2">  1       -2 0.31215841E+00 0.17537170E+04</pdfrwt>
<totfact> 0.25446943E+00</totfact>
</mgrwt>
</event>
<event>
 8    1  0.2654897E-009  0.1667100E+04  0.7818608E-02  0.8780354E-01
         -2   -1    0    0    0  501 -0.00000000000E+00  0.00000000000E+00  0.22104290227E+03  0.22104290228E+03  0.25500000000E-02 0. -1.
          2   -1    0    0  501    0  0.00000000000E+00 -0.00000000000E+00 -0.31433052987E+04  0.31433052987E+04  0.25500000000E-02 0.  1.
     200001    2    1    2    0    0  0.31976939707E+03 -0.27780853743E+03 -0.11388844469E+04  0.14022404155E+04  0.69985023317E+03 0.  0.
    5000001    2    3    3    0    0  0.76674638527E+02 -0.87831320197E+02 -0.34737777839E+03  0.41650758614E+03  0.19802501708E+03 0.  0.
        -11    1    4    4    0    0 -0.14068452565E-01  0.55383577856E+02 -0.42733878074E+02  0.69953736352E+02  0.51100000000E-03 0. -1.
     200002    1    4    4    0    0  0.76688706980E+02 -0.14321489805E+03 -0.30464390031E+03  0.34655384979E+03  0.30000000000E+02 0. -1.
     200000    1    3    3    0    0  0.24309475854E+03 -0.18997721723E+03 -0.79150666848E+03  0.98573282940E+03  0.50000000000E+03 0.  1.
    -200001    1    1    2    0    0 -0.31976939707E+03  0.27780853743E+03 -0.17833779496E+04  0.19621077855E+04  0.70000000000E+03 0.  1.
<mgrwt>
<rscale>  0 0.16670997E+04</rscale>
<asrwt>0</asrwt>
<pdfrwt beam="1">  1        2 0.44904359E+00 0.16670997E+04</pdfrwt>
<pdfrwt beam="2">  1       -2 0.31577559E-01 0.16670997E+04</pdfrwt>
<totfact> 0.17490786E+01</totfact>
</mgrwt>
</event>
<event>
 8    1  0.2654897E-009  0.1923432E+04  0.7818608E-02  0.8643280E-01
          2   -1    0    0  501    0  0.00000000000E+00  0.00000000000E+00  0.23023472799E+04  0.23023472800E+04  0.25500000000E-02 0.  1.
         -2   -1    0    0    0  501 -0.00000000000E+00 -0.00000000000E+00 -0.40171962240E+03  0.40171962241E+03  0.25500000000E-02 0. -1.
     200001    2    1    2    0    0  0.63149724622E+03  0.18533650962E+03  0.10120970694E+04  0.13953939104E+04  0.69974659237E+03 0.  0.
    5000001    2    3    3    0    0  0.13232322771E+03 -0.31596948876E+02  0.37421955477E+03  0.41911395577E+03  0.13079919333E+03 0.  0.
        -11    1    4    4    0    0 -0.12906385716E+02  0.24110714379E+02  0.32599035085E+02  0.42551127234E+02  0.51100000000E-03 0. -1.
     200002    1    4    4    0    0  0.14522961342E+03 -0.55707663255E+02  0.34162051969E+03  0.37656282853E+03  0.30000000000E+02 0. -1.
     200000    1    3    3    0    0  0.49917401851E+03  0.21693345849E+03  0.63787751467E+03  0.97627995467E+03  0.50000000000E+03 0. -1.
    -200001    1    1    2    0    0 -0.63149724622E+03 -0.18533650962E+03  0.88853058811E+03  0.13086729919E+04  0.70000000000E+03 0.  1.
<mgrwt>
<rscale>  0 0.19234324E+04</rscale>
<asrwt>0</asrwt>
<pdfrwt beam="1">  1        2 0.32890676E+00 0.19234324E+04</pdfrwt>
<pdfrwt beam="2">  1       -2 0.57388516E-01 0.19234324E+04</pdfrwt>
<totfact> 0.14930458E+01</totfact>
</mgrwt>
</event>
<event>
 8    1  0.2654897E-009  0.1879090E+04  0.7818608E-02  0.8665335E-01
         -2   -1    0    0    0  501 -0.00000000000E+00  0.00000000000E+00  0.14204759384E+04  0.14204759384E+04  0.25500000000E-02 0. -1.
          2   -1    0    0  501    0  0.00000000000E+00 -0.00000000000E+00 -0.62144275434E+03  0.62144275435E+03  0.25500000000E-02 0.  1.
     200001    2    1    2    0    0 -0.23672757078E+03 -0.56208600125E+03  0.24367071595E+03  0.96006468848E+03  0.70026293111E+03 0.  0.
    5000001    2    3    3    0    0 -0.10802229321E+03 -0.20580581727E+03  0.97261962039E+02  0.31590931810E+03  0.19056221491E+03 0.  0.
        -11    1    4    4    0    0 -0.11807199112E+03 -0.55808220723E+02  0.96885185111E+02  0.16261085966E+03  0.51100000000E-03 0. -1.
     200002    1    4    4    0    0  0.10049697907E+02 -0.14999759654E+03  0.37677692739E+00  0.15329845843E+03  0.30000000000E+02 0. -1.
     200000    1    3    3    0    0 -0.12870527757E+03 -0.35628018398E+03  0.14640875392E+03  0.64415537039E+03  0.50000000000E+03 0. -1.
    -200001    1    1    2    0    0  0.23672757078E+03  0.56208600125E+03  0.55536246811E+03  0.10818540043E+04  0.70000000000E+03 0.  1.
<mgrwt>
<rscale>  0 0.18790897E+04</rscale>
<asrwt>0</asrwt>
<pdfrwt beam="1">  1        2 0.88777535E-01 0.18790897E+04</pdfrwt>
<pdfrwt beam="2">  1       -2 0.20292514E+00 0.18790897E+04</pdfrwt>
<totfact> 0.62272101E+00</totfact>
</mgrwt>
</event>
<event>
 8    1  0.2654897E-009  0.1559171E+04  0.7818608E-02  0.8846031E-01
          2   -1    0    0  501    0  0.00000000000E+00  0.00000000000E+00  0.26375433472E+04  0.26375433472E+04  0.25500000000E-02 0.  1.
         -2   -1    0    0    0  501 -0.00000000000E+00 -0.00000000000E+00 -0.23042420741E+03  0.23042420742E+03  0.25500000000E-02 0. -1.
     200001    2    1    2    0    0  0.13484666172E+03  0.19358869059E+03  0.74502861646E+03  0.10491203617E+04  0.69994691997E+03 0.  0.
    5000001    2    3    3    0    0 -0.75761307890E+01  0.47420350942E+02  0.18003243353E+03  0.26753855408E+03  0.19198727394E+03 0.  0.
        -11    1    4    4    0    0  0.45128519241E+02  0.80622728991E+02  0.21902262854E+02  0.94954287935E+02  0.51100000000E-03 0. -1.
     200002    1    4    4    0    0 -0.52704650030E+02 -0.33202378050E+02  0.15813017068E+03  0.17258426615E+03  0.30000000000E+02 0. -1.
     200000    1    3    3    0    0  0.14242279251E+03  0.14616833964E+03  0.56499618293E+03  0.78158180766E+03  0.50000000000E+03 0.  1.
    -200001    1    1    2    0    0 -0.13484666172E+03 -0.19358869059E+03  0.16620905233E+04  0.18188471928E+04  0.70000000000E+03 0. -1.
<mgrwt>
<rscale>  0 0.15591714E+04</rscale>
<asrwt>0</asrwt>
<pdfrwt beam="1">  1        2 0.37679188E+00 0.15591714E+04</pdfrwt>
<pdfrwt beam="2">  1       -2 0.32917746E-01 0.15591714E+04</pdfrwt>
<totfact> 0.30963467E+01</totfact>
</mgrwt>
</event>
<event>
 8    1  0.2654897E-009  0.1404485E+04  0.7818608E-02  0.8950579E-01
         -2   -1    0    0    0  501 -0.00000000000E+00  0.00000000000E+00  0.81612693761E+03  0.81612693761E+03  0.25500000000E-02 0. -1.
          2   -1    0    0  501    0  0.00000000000E+00 -0.00000000000E+00 -0.60424951176E+03  0.60424951177E+03  0.25500000000E-02 0.  1.
     200001    2    1    2    0    0  0.48915606385E+01 -0.54423653998E+02  0.82971650204E+02  0.70651192409E+03  0.69949191751E+03 0.  0.
    5000001    2    3    3    0    0 -0.13952114755E+02  0.48596352272E+02  0.79272110043E+02  0.19564805534E+03  0.17157455280E+03 0.  0.
        -11    1    4    4    0    0  0.36427612931E+02  0.17023938282E+02  0.11375668439E+03  0.12065392120E+03  0.51100000000E-03 0. -1.
     200002    1    4    4    0    0 -0.50379727686E+02  0.31572413990E+02 -0.34484574346E+02  0.74994134135E+02  0.30000000000E+02 0. -1.
     200000    1    3    3    0    0  0.18843675394E+02 -0.10302000627E+03  0.36995401610E+01  0.51086386875E+03  0.50000000000E+03 0.  1.
    -200001    1    1    2    0    0 -0.48915606385E+01  0.54423653998E+02  0.12890577564E+03  0.71386452529E+03  0.70000000000E+03 0.  1.
<mgrwt>
<rscale>  0 0.14044847E+04</rscale>
<asrwt>0</asrwt>
<pdfrwt beam="1">  1        2 0.86321359E-01 0.14044847E+04</pdfrwt>
<pdfrwt beam="2">  1       -2 0.11658956E+00 0.14044847E+04</pdfrwt>
<totfact> 0.29898616E+01</totfact>
</mgrwt>
</event>
<event>
 8    1  0.2654897E-009  0.1600086E+04  0.7818608E-02  0.8820495E-01
          2   -1    0    0  501    0  0.00000000000E+00  0.00000000000E+00  0.27620457993E+04  0.27620457993E+04  0.25500000000E-02 0.  1.
         -2   -1    0    0    0  501 -0.00000000000E+00 -0.00000000000E+00 -0.23173716038E+03  0.23173716039E+03  0.25500000000E-02 0. -1.
     200001    2    1    2    0    0 -0.31610754327E+02  0.36709159875E+02  0.54524034214E+03  0.88835118803E+03  0.69966706395E+03 0.  0.
    5000001    2    3    3    0    0  0.46634384524E+02 -0.38123223009E+02 -0.37234525044E+01  0.13796233210E+03  0.12406286724E+03 0.  0.
        -11    1    4    4    0    0 -0.26692880496E+02 -0.40292269412E+02  0.24044142699E+02  0.53982382700E+02  0.51100000000E-03 0. -1.
     200002    1    4    4    0    0  0.73327265020E+02  0.21690464033E+01 -0.27767595204E+02  0.83979949399E+02  0.30000000000E+02 0. -1.
     200000    1    3    3    0    0 -0.78245138851E+02  0.74832382885E+02  0.54896379464E+03  0.75038885593E+03  0.50000000000E+03 0. -1.
    -200001    1    1    2    0    0  0.31610754327E+02 -0.36709159875E+02  0.19850682968E+04  0.21054317716E+04  0.70000000000E+03 0.  1.
<mgrwt>
<rscale>  0 0.16000858E+04</rscale>
<asrwt>0</asrwt>
<pdfrwt beam="1">  1        2 0.39457794E+00 0.16000858E+04</pdfrwt>
<pdfrwt beam="2">  1       -2 0.33105312E-01 0.16000858E+04</pdfrwt>
<totfact> 0.26177817E+01</totfact>
</mgrwt>
</event>
<event>
 8    1  0.2654897E-009  0.1878796E+04  0.7818608E-02  0.8665483E-01
          2   -1    0    0  501    0  0.00000000000E+00  0.00000000000E+00  0.29770484941E+04  0.29770484941E+04  0.25500000000E-02 0.  1.
         -2   -1    0    0    0  501 -0.00000000000E+00 -0.00000000000E+00 -0.29642402962E+03  0.29642402963E+03  0.25500000000E-02 0. -1.
     200001    2    1    2    0    0  0.39544747053E+03  0.36639942940E+03  0.78324397208E+03  0.11804651237E+04  0.69957097178E+03 0.  0.
    5000001    2    3    3    0    0  0.22997970065E+03  0.13084621787E+03  0.15393117449E+03  0.32670901355E+03  0.11416031540E+03 0.  0.
        -11    1    4    4    0    0  0.40661960544E+02 -0.10674429615E+02 -0.17796720521E+01  0.42077377719E+02  0.51100000000E-03 0. -1.
     200002    1    4    4    0    0  0.18931774011E+03  0.14152064748E+03  0.15571084654E+03  0.28463163583E+03  0.30000000000E+02 0. -1.
     200000    1    3    3    0    0  0.16546776987E+03  0.23555321153E+03  0.62931279759E+03  0.85375611011E+03  0.50000000000E+03 0. -1.
    -200001    1    1    2    0    0 -0.39544747053E+03 -0.36639942940E+03  0.18973804924E+04  0.20930074000E+04  0.70000000000E+03 0.  1.
<mgrwt>
<rscale>  0 0.18787961E+04</rscale>
<asrwt>0</asrwt>
<pdfrwt beam="1">  1        2 0.42529264E+00 0.18787961E+04</pdfrwt>
<pdfrwt beam="2">  1       -2 0.42346290E-01 0.18787961E+04</pdfrwt>
<totfact> 0.12103954E+01</totfact>
</mgrwt>
</event>
<event>
 8    1  0.2654897E-009  0.1965956E+04  0.7818608E-02  0.8622705E-01
          2   -1    0    0  501    0  0.00000000000E+00  0.00000000000E+00  0.11422439611E+04  0.11422439611E+04  0.25500000000E-02 0.  1.
         -2   -1    0    0    0  501 -0.00000000000E+00 -0.00000000000E+00 -0.84591921197E+03  0.84591921198E+03  0.25500000000E-02 0. -1.
     200001    2    1    2    0    0 -0.30877063107E+03  0.39872988013E+03  0.62264074675E+03  0.10657712010E+04  0.70275310983E+03 0.  0.
    5000001    2    3    3    0    0  0.33225398743E+02  0.74433317827E+02  0.13881863796E+03  0.22540617451E+03  0.15777542058E+03 0.  0.
        -11    1    4    4    0    0  0.18543582653E+02  0.11965169026E+03  0.10072592792E+03  0.15749953649E+03  0.51100000000E-03 0. -1.
     200002    1    4    4    0    0  0.14681816090E+02 -0.45218372432E+02  0.38092710038E+02  0.67906638020E+02  0.30000000000E+02 0. -1.
     200000    1    3    3    0    0 -0.34199602981E+03  0.32429656230E+03  0.48382210879E+03  0.84036502645E+03  0.50000000000E+03 0.  1.
    -200001    1    1    2    0    0  0.30877063107E+03 -0.39872988013E+03 -0.32631599762E+03  0.92239197212E+03  0.70000000000E+03 0. -1.
<mgrwt>
<rscale>  0 0.19659564E+04</rscale>
<asrwt>0</asrwt>
<pdfrwt beam="1">  1        2 0.16317771E+00 0.19659564E+04</pdfrwt>
<pdfrwt beam="2">  1       -2 0.12084560E+00 0.19659564E+04</pdfrwt>
<totfact> 0.11261519E+01</totfact>
</mgrwt>
</event>
<event>
 8    1  0.2654897E-009  0.1945832E+04  0.7818608E-02  0.8632373E-01
          2   -1    0    0  501    0  0.00000000000E+00  0.00000000000E+00  0.14504007319E+04  0.14504007319E+04  0.25500000000E-02 0.  1.
         -2   -1    0    0    0  501 -0.00000000000E+00 -0.00000000000E+00 -0.65262328364E+03  0.65262328365E+03  0.25500000000E-02 0. -1.
     200001    2    1    2    0    0 -0.53283235915E+02  0.63446157864E+03  0.15937974011E+03  0.96156344605E+03  0.70272452727E+03 0.  0.
    5000001    2    3    3    0    0 -0.67474417690E+02  0.21350188002E+03  0.62957712552E+02  0.30072635198E+03  0.19062217969E+03 0.  0.
        -11    1    4    4    0    0  0.56123620154E+02  0.96684212813E+02  0.62407041552E+02  0.12803256063E+03  0.51100000000E-03 0. -1.
     200002    1    4    4    0    0 -0.12359803784E+03  0.11681766721E+03  0.55067099959E+00  0.17269379134E+03  0.30000000000E+02 0. -1.
     200000    1    3    3    0    0  0.14191181776E+02  0.42095969862E+03  0.96422027562E+02  0.66083709407E+03  0.50000000000E+03 0. -1.
    -200001    1    1    2    0    0  0.53283235915E+02 -0.63446157864E+03  0.63839770817E+03  0.11414605695E+04  0.70000000000E+03 0.  1.
<mgrwt>
<rscale>  0 0.19458317E+04</rscale>
<asrwt>0</asrwt>
<pdfrwt beam="1">  1        2 0.20720010E+00 0.19458317E+04</pdfrwt>
<pdfrwt beam="2">  1       -2 0.93231898E-01 0.19458317E+04</pdfrwt>
<totfact> 0.14175695E+01</totfact>
</mgrwt>
</event>
<event>
 8    1  0.2654897E-009  0.2468850E+04  0.7818608E-02  0.8414168E-01
          2   -1    0    0  501    0  0.00000000000E+00  0.00000000000E+00  0.16718524465E+04  0.16718524465E+04  0.25500000000E-02 0.  1.
         -2   -1    0    0    0  501 -0.00000000000E+00 -0.00000000000E+00 -0.91144725600E+03  0.91144725600E+03  0.25500000000E-02 0. -1.
     200001    2    1    2    0    0  0.20382633423E+02 -0.45125638193E+03  0.13319944155E+04  0.15729720249E+04  0.70426138204E+03 0.  0.
    5000001    2    3    3    0    0 -0.42599540423E+02 -0.12153328537E+03  0.53045809691E+03  0.57040305239E+03  0.16549558696E+03 0.  0.
        -11    1    4    4    0    0  0.18409372599E+02 -0.13745606026E+03  0.38048952667E+03  0.40497574422E+03  0.51100000000E-03 0. -1.
     200002    1    4    4    0    0 -0.61008913022E+02  0.15922774895E+02  0.14996857024E+03  0.16542730817E+03  0.30000000000E+02 0. -1.
     200000    1    3    3    0    0  0.62982173846E+02 -0.32972309656E+03  0.80153631863E+03  0.10025689725E+04  0.50000000000E+03 0.  1.
    -200001    1    1    2    0    0 -0.20382633423E+02  0.45125638193E+03 -0.57158922501E+03  0.10103276776E+04  0.70000000000E+03 0. -1.
<mgrwt>
<rscale>  0 0.24688502E+04</rscale>
<asrwt>0</asrwt>
<pdfrwt beam="1">  1        2 0.23883606E+00 0.24688502E+04</pdfrwt>
<pdfrwt beam="2">  1       -2 0.13020675E+00 0.24688502E+04</pdfrwt>
<totfact> 0.46173183E+00</totfact>
</mgrwt>
</event>
<event>
 8    1  0.2654897E-009  0.1452820E+04  0.7818608E-02  0.8916447E-01
          2   -1    0    0  501    0  0.00000000000E+00  0.00000000000E+00  0.20556332501E+04  0.20556332501E+04  0.25500000000E-02 0.  1.
         -2   -1    0    0    0  501 -0.00000000000E+00 -0.00000000000E+00 -0.25669550670E+03  0.25669550672E+03  0.25500000000E-02 0. -1.
     200001    2    1    2    0    0 -0.10469360494E+03  0.16323675577E+03  0.90204551643E+03  0.11581958979E+04  0.70008901916E+03 0.  0.
    5000001    2    3    3    0    0 -0.77679841790E+02  0.63400636638E+02  0.40649903283E+03  0.44667407001E+03  0.15563567260E+03 0.  0.
        -11    1    4    4    0    0 -0.10541394328E+03  0.76722307182E+01  0.31333704283E+03  0.33068272554E+03  0.51100000000E-03 0. -1.
     200002    1    4    4    0    0  0.27734101490E+02  0.55728405920E+02  0.93161990000E+02  0.11599134447E+03  0.30000000000E+02 0. -1.
     200000    1    3    3    0    0 -0.27013763153E+02  0.99836119135E+02  0.49554648360E+03  0.71152182784E+03  0.50000000000E+03 0. -1.
    -200001    1    1    2    0    0  0.10469360494E+03 -0.16323675577E+03  0.89689222696E+03  0.11541328590E+04  0.70000000000E+03 0. -1.
<mgrwt>
<rscale>  0 0.14528205E+04</rscale>
<asrwt>0</asrwt>
<pdfrwt beam="1">  1        2 0.29366189E+00 0.14528205E+04</pdfrwt>
<pdfrwt beam="2">  1       -2 0.36670786E-01 0.14528205E+04</pdfrwt>
<totfact> 0.51065248E+01</totfact>
</mgrwt>
</event>
<event>
 8    1  0.2654897E-009  0.1797822E+04  0.7818608E-02  0.8707459E-01
          2   -1    0    0  501    0  0.00000000000E+00  0.00000000000E+00  0.23898350510E+04  0.23898350510E+04  0.25500000000E-02 0.  1.
         -2   -1    0    0    0  501 -0.00000000000E+00 -0.00000000000E+00 -0.33811561898E+03  0.33811561899E+03  0.25500000000E-02 0. -1.
     200001    2    1    2    0    0  0.43164985690E+03  0.28339766550E+03  0.68330233839E+03  0.11064695021E+04  0.70052611486E+03 0.  0.
    5000001    2    3    3    0    0  0.17603747102E+03  0.45868599067E+02  0.23616368202E+03  0.35036717617E+03  0.18409441558E+03 0.  0.
        -11    1    4    4    0    0  0.38114585530E+02  0.42272518288E+01 -0.28338077040E+02  0.47682679232E+02  0.51100000000E-03 0. -1.
     200002    1    4    4    0    0  0.13792288549E+03  0.41641347238E+02  0.26450175906E+03  0.30268449694E+03  0.30000000000E+02 0. -1.
     200000    1    3    3    0    0  0.25561238587E+03  0.23752906643E+03  0.44713865638E+03  0.75610232590E+03  0.50000000000E+03 0.  1.
    -200001    1    1    2    0    0 -0.43164985690E+03 -0.28339766550E+03  0.13684170936E+04  0.16214811679E+04  0.70000000000E+03 0. -1.
<mgrwt>
<rscale>  0 0.17978215E+04</rscale>
<asrwt>0</asrwt>
<pdfrwt beam="1">  1        2 0.34140501E+00 0.17978215E+04</pdfrwt>
<pdfrwt beam="2">  1       -2 0.48302231E-01 0.17978215E+04</pdfrwt>
<totfact> 0.19369576E+01</totfact>
</mgrwt>
</event>
<event>
 8    1  0.2654897E-009  0.2032761E+04  0.7818608E-02  0.8591455E-01
          2   -1    0    0  501    0  0.00000000000E+00  0.00000000000E+00  0.31814575516E+04  0.31814575516E+04  0.25500000000E-02 0.  1.
         -2   -1    0    0    0  501 -0.00000000000E+00 -0.00000000000E+00 -0.32470315170E+03  0.32470315171E+03  0.25500000000E-02 0. -1.
     200001    2    1    2    0    0  0.66114426642E+03 -0.45075279216E+02  0.19838153892E+04  0.22057123044E+04  0.70035687300E+03 0.  0.
    5000001    2    3    3    0    0  0.37491422924E+02 -0.71718445183E+02  0.48109778801E+03  0.50341593878E+03  0.12419091601E+03 0.  0.
        -11    1    4    4    0    0  0.14035499418E+02 -0.41956312496E+02  0.43291485402E+03  0.43516962007E+03  0.51100000000E-03 0. -1.
     200002    1    4    4    0    0  0.23455923506E+02 -0.29762132687E+02  0.48182933990E+02  0.68246318710E+02  0.30000000000E+02 0. -1.
     200000    1    3    3    0    0  0.62365284349E+03  0.26643165967E+02  0.15027176012E+04  0.17022963656E+04  0.50000000000E+03 0.  1.
    -200001    1    1    2    0    0 -0.66114426642E+03  0.45075279216E+02  0.87293901066E+03  0.13004483989E+04  0.70000000000E+03 0. -1.
<mgrwt>
<rscale>  0 0.20327610E+04</rscale>
<asrwt>0</asrwt>
<pdfrwt beam="1">  1        2 0.45449392E+00 0.20327610E+04</pdfrwt>
<pdfrwt beam="2">  1       -2 0.46386166E-01 0.20327610E+04</pdfrwt>
<totfact> 0.76316026E+00</totfact>
</mgrwt>
</event>
<event>
 8    1  0.2654897E-009  0.1861382E+04  0.7818608E-02  0.8674321E-01
         -2   -1    0    0    0  501 -0.00000000000E+00  0.00000000000E+00  0.10085663997E+04  0.10085663997E+04  0.25500000000E-02 0. -1.
          2   -1    0    0  501    0  0.00000000000E+00 -0.00000000000E+00 -0.85882907228E+03  0.85882907228E+03  0.25500000000E-02 0.  1.
     200001    2    1    2    0    0 -0.58576362657E+03 -0.18122021311E+03  0.90728504641E+02  0.93495682361E+03  0.69996629105E+03 0.  0.
    5000001    2    3    3    0    0 -0.10058920453E+03 -0.31376249386E+02 -0.98744253862E+00  0.21644499473E+03  0.18906296202E+03 0.  0.
        -11    1    4    4    0    0 -0.14459797291E+03 -0.55011101765E+02 -0.17974840200E+02  0.15574944612E+03  0.51100000000E-03 0. -1.
     200002    1    4    4    0    0  0.44008768383E+02  0.23634852379E+02  0.16987397661E+02  0.60695548608E+02  0.30000000000E+02 0. -1.
     200000    1    3    3    0    0 -0.48517442204E+03 -0.14984396372E+03  0.91715947179E+02  0.71851182887E+03  0.50000000000E+03 0. -1.
    -200001    1    1    2    0    0  0.58576362657E+03  0.18122021311E+03  0.59008822792E+02  0.93243864839E+03  0.70000000000E+03 0. -1.
<mgrwt>
<rscale>  0 0.18613824E+04</rscale>
<asrwt>0</asrwt>
<pdfrwt beam="1">  1        2 0.12268987E+00 0.18613824E+04</pdfrwt>
<pdfrwt beam="2">  1       -2 0.14408091E+00 0.18613824E+04</pdfrwt>
<totfact> 0.10873720E+01</totfact>
</mgrwt>
</event>
<event>
 8    1  0.2654897E-009  0.1704401E+04  0.7818608E-02  0.8758858E-01
         -2   -1    0    0    0  501 -0.00000000000E+00  0.00000000000E+00  0.10393580835E+04  0.10393580835E+04  0.25500000000E-02 0. -1.
          2   -1    0    0  501    0  0.00000000000E+00 -0.00000000000E+00 -0.69874443675E+03  0.69874443675E+03  0.25500000000E-02 0.  1.
     200001    2    1    2    0    0  0.45340843703E+03 -0.10431017931E+03  0.31882017860E+03  0.89730838400E+03  0.69789412194E+03 0.  0.
    5000001    2    3    3    0    0  0.15823452957E+03 -0.15241574522E+02  0.20529000347E+03  0.29901919584E+03  0.14831730181E+03 0.  0.
        -11    1    4    4    0    0  0.10068580976E+03 -0.75126746849E+02  0.93728893591E+02  0.15673788908E+03  0.51100000000E-03 0. -1.
     200002    1    4    4    0    0  0.57548719808E+02  0.59885172327E+02  0.11156110988E+03  0.14228130676E+03  0.30000000000E+02 0. -1.
     200000    1    3    3    0    0  0.29517390746E+03 -0.89068604792E+02  0.11353017513E+03  0.59828918816E+03  0.50000000000E+03 0.  1.
    -200001    1    1    2    0    0 -0.45340843703E+03  0.10431017931E+03  0.21793468137E+02  0.84079413624E+03  0.70000000000E+03 0.  1.
<mgrwt>
<rscale>  0 0.17044010E+04</rscale>
<asrwt>0</asrwt>
<pdfrwt beam="1">  1        2 0.99820635E-01 0.17044010E+04</pdfrwt>
<pdfrwt beam="2">  1       -2 0.14847972E+00 0.17044010E+04</pdfrwt>
<totfact> 0.13237562E+01</totfact>
</mgrwt>
</event>
<event>
 8    1  0.2654897E-009  0.1971442E+04  0.7818608E-02  0.8620090E-01
          2   -1    0    0  501    0  0.00000000000E+00  0.00000000000E+00  0.26864667007E+04  0.26864667007E+04  0.25500000000E-02 0.  1.
         -2   -1    0    0    0  501 -0.00000000000E+00 -0.00000000000E+00 -0.36168166211E+03  0.36168166212E+03  0.25500000000E-02 0. -1.
     200001    2    1    2    0    0 -0.26481030456E+03  0.74369394654E+02  0.17732503448E+03  0.77279349523E+03  0.70007879139E+03 0.  0.
    5000001    2    3    3    0    0 -0.86267022729E+02  0.15326013290E+03  0.43585539298E+02  0.21963194140E+03  0.12412825181E+03 0.  0.
        -11    1    4    4    0    0 -0.39817694169E+02  0.39875513623E+02 -0.39288639734E+02  0.68695724525E+02  0.51100000000E-03 0. -1.
     200002    1    4    4    0    0 -0.46449328561E+02  0.11338461928E+03  0.82874179032E+02  0.15093621687E+03  0.30000000000E+02 0. -1.
     200000    1    3    3    0    0 -0.17854328183E+03 -0.78890738249E+02  0.13373949519E+03  0.55316155383E+03  0.50000000000E+03 0. -1.
    -200001    1    1    2    0    0  0.26481030456E+03 -0.74369394654E+02  0.21474600041E+04  0.22753548676E+04  0.70000000000E+03 0.  1.
<mgrwt>
<rscale>  0 0.19714418E+04</rscale>
<asrwt>0</asrwt>
<pdfrwt beam="1">  1        2 0.38378095E+00 0.19714418E+04</pdfrwt>
<pdfrwt beam="2">  1       -2 0.51668810E-01 0.19714418E+04</pdfrwt>
<totfact> 0.11596516E+01</totfact>
</mgrwt>
</event>
<event>
 8    1  0.2654897E-009  0.1473643E+04  0.7818608E-02  0.8902171E-01
         -2   -1    0    0    0  501 -0.00000000000E+00  0.00000000000E+00  0.12336761273E+03  0.12336761276E+03  0.25500000000E-02 0. -1.
          2   -1    0    0  501    0  0.00000000000E+00 -0.00000000000E+00 -0.44007186360E+04  0.44007186360E+04  0.25500000000E-02 0.  1.
     200001    2    1    2    0    0 -0.48416459840E+02  0.21951492342E+02 -0.28260676700E+04  0.29119294968E+04  0.69989206095E+03 0.  0.
    5000001    2    3    3    0    0 -0.89929273793E+02 -0.10127514963E+03 -0.90171673956E+03  0.91943492398E+03  0.11799818138E+03 0.  0.
        -11    1    4    4    0    0 -0.88427831387E+01 -0.36380317116E+02 -0.59434706534E+02  0.70243908121E+02  0.51100000000E-03 0. -1.
     200002    1    4    4    0    0 -0.81086490654E+02 -0.64894832518E+02 -0.84228203302E+03  0.84919101585E+03  0.30000000000E+02 0. -1.
     200000    1    3    3    0    0  0.41512813953E+02  0.12322664198E+03 -0.19243509305E+04  0.19924945728E+04  0.50000000000E+03 0. -1.
    -200001    1    1    2    0    0  0.48416459840E+02 -0.21951492342E+02 -0.14512833533E+04  0.16121567520E+04  0.70000000000E+03 0. -1.
<mgrwt>
<rscale>  0 0.14736433E+04</rscale>
<asrwt>0</asrwt>
<pdfrwt beam="1">  1        2 0.62867399E+00 0.14736433E+04</pdfrwt>
<pdfrwt beam="2">  1       -2 0.17623947E-01 0.14736433E+04</pdfrwt>
<totfact> 0.77118486E+00</totfact>
</mgrwt>
</event>
<event>
 8    1  0.2654897E-009  0.1564745E+04  0.7818608E-02  0.8842504E-01
          2   -1    0    0  501    0  0.00000000000E+00  0.00000000000E+00  0.85054271281E+03  0.85054271282E+03  0.25500000000E-02 0.  1.
         -2   -1    0    0    0  501 -0.00000000000E+00 -0.00000000000E+00 -0.71966585681E+03  0.71966585681E+03  0.25500000000E-02 0. -1.
     200001    2    1    2    0    0 -0.83316567737E+02 -0.97410699064E+02 -0.26077950166E+03  0.75791231994E+03  0.69999617248E+03 0.  0.
    5000001    2    3    3    0    0  0.28220530967E+01 -0.21210643414E+02 -0.10163518169E+03  0.22074081562E+03  0.19477921384E+03 0.  0.
        -11    1    4    4    0    0 -0.28287297171E+02 -0.94742851513E+02 -0.91733738723E+02  0.13487571284E+03  0.51100000000E-03 0. -1.
     200002    1    4    4    0    0  0.31109350268E+02  0.73532208099E+02 -0.99014429701E+01  0.85865102777E+02  0.30000000000E+02 0. -1.
     200000    1    3    3    0    0 -0.86138620834E+02 -0.76200055650E+02 -0.15914431997E+03  0.53717150432E+03  0.50000000000E+03 0. -1.
    -200001    1    1    2    0    0  0.83316567737E+02  0.97410699064E+02  0.39165635767E+03  0.81229624969E+03  0.70000000000E+03 0.  1.
<mgrwt>
<rscale>  0 0.15647448E+04</rscale>
<asrwt>0</asrwt>
<pdfrwt beam="1">  1        2 0.12150610E+00 0.15647448E+04</pdfrwt>
<pdfrwt beam="2">  1       -2 0.10280941E+00 0.15647448E+04</pdfrwt>
<totfact> 0.26141623E+01</totfact>
</mgrwt>
</event>
<event>
 8    1  0.2654897E-009  0.2149636E+04  0.7818608E-02  0.8539688E-01
         -2   -1    0    0    0  501 -0.00000000000E+00  0.00000000000E+00  0.24307942098E+04  0.24307942098E+04  0.25500000000E-02 0. -1.
          2   -1    0    0  501    0  0.00000000000E+00 -0.00000000000E+00 -0.47524956457E+03  0.47524956458E+03  0.25500000000E-02 0.  1.
     200001    2    1    2    0    0  0.26434111021E+03 -0.40044973430E+03  0.80408503716E+02  0.84779894894E+03  0.69430635753E+03 0.  0.
    5000001    2    3    3    0    0 -0.40784480591E+02 -0.20700374579E+02 -0.81476067177E+02  0.13119737438E+03  0.92100608882E+02 0.  0.
        -11    1    4    4    0    0 -0.62613807068E+02 -0.19261927298E+02 -0.48099588320E+02  0.81271649889E+02  0.51100000000E-03 0. -1.
     200002    1    4    4    0    0  0.21829326477E+02 -0.14384472815E+01 -0.33376478857E+02  0.49925724490E+02  0.30000000000E+02 0. -1.
     200000    1    3    3    0    0  0.30512559080E+03 -0.37974935972E+03  0.16188457089E+03  0.71660157456E+03  0.50000000000E+03 0. -1.
    -200001    1    1    2    0    0 -0.26434111021E+03  0.40044973430E+03  0.18751361415E+04  0.20582448254E+04  0.70000000000E+03 0. -1.
<mgrwt>
<rscale>  0 0.21496361E+04</rscale>
<asrwt>0</asrwt>
<pdfrwt beam="1">  1        2 0.67892793E-01 0.21496361E+04</pdfrwt>
<pdfrwt beam="2">  1       -2 0.34725632E+00 0.21496361E+04</pdfrwt>
<totfact> 0.10629497E+00</totfact>
</mgrwt>
</event>
<event>
 8    1  0.2654897E-009  0.2075876E+04  0.7818608E-02  0.8571945E-01
         -2   -1    0    0    0  501 -0.00000000000E+00  0.00000000000E+00  0.48609532862E+03  0.48609532862E+03  0.25500000000E-02 0. -1.
          2   -1    0    0  501    0  0.00000000000E+00 -0.00000000000E+00 -0.22162638652E+04  0.22162638652E+04  0.25500000000E-02 0.  1.
     200001    2    1    2    0    0 -0.14236131431E+03 -0.19035295249E+03 -0.18135174521E+04  0.19584183144E+04  0.70003982382E+03 0.  0.
    5000001    2    3    3    0    0  0.31961215978E+01 -0.59347283588E+02 -0.68885557226E+03  0.71213833129E+03  0.17054819906E+03 0.  0.
        -11    1    4    4    0    0  0.80745280405E+02 -0.54217048692E+02 -0.36349717951E+03  0.37628378677E+03  0.51100000000E-03 0. -1.
     200002    1    4    4    0    0 -0.77549158807E+02 -0.51302348961E+01 -0.32535839275E+03  0.33585454452E+03  0.30000000000E+02 0. -1.
     200000    1    3    3    0    0 -0.14555743591E+03 -0.13100566890E+03 -0.11246618798E+04  0.12462799832E+04  0.50000000000E+03 0.  1.
    -200001    1    1    2    0    0  0.14236131431E+03  0.19035295249E+03  0.83348915496E+02  0.74394087940E+03  0.70000000000E+03 0. -1.
<mgrwt>
<rscale>  0 0.20758762E+04</rscale>
<asrwt>0</asrwt>
<pdfrwt beam="1">  1        2 0.31660912E+00 0.20758762E+04</pdfrwt>
<pdfrwt beam="2">  1       -2 0.69442191E-01 0.20758762E+04</pdfrwt>
<totfact> 0.10877383E+01</totfact>
</mgrwt>
</event>
<event>
 8    1  0.2654897E-009  0.1432566E+04  0.7818608E-02  0.8930577E-01
         -2   -1    0    0    0  501 -0.00000000000E+00  0.00000000000E+00  0.52567443249E+03  0.52567443250E+03  0.25500000000E-02 0. -1.
          2   -1    0    0  501    0  0.00000000000E+00 -0.00000000000E+00 -0.97600623768E+03  0.97600623768E+03  0.25500000000E-02 0.  1.
     200001    2    1    2    0    0 -0.14063224543E+03  0.52651504458E+02 -0.20268783266E+03  0.74413387525E+03  0.70007375141E+03 0.  0.
    5000001    2    3    3    0    0  0.71347224404E+02  0.27835277671E+02  0.43300985958E+02  0.14742486775E+03  0.11829576127E+03 0.  0.
        -11    1    4    4    0    0  0.25101230092E+02 -0.19395307726E+02  0.64435125938E+02  0.71820158513E+02  0.51100000000E-03 0. -1.
     200002    1    4    4    0    0  0.46245994311E+02  0.47230585396E+02 -0.21134139981E+02  0.75604709241E+02  0.30000000000E+02 0.  1.
     200000    1    3    3    0    0 -0.21197946983E+03  0.24816226788E+02 -0.24598881861E+03  0.59670900749E+03  0.50000000000E+03 0. -1.
    -200001    1    1    2    0    0  0.14063224543E+03 -0.52651504458E+02 -0.24764397253E+03  0.75754679493E+03  0.70000000000E+03 0. -1.
<mgrwt>
<rscale>  0 0.14325663E+04</rscale>
<asrwt>0</asrwt>
<pdfrwt beam="1">  1        2 0.13942946E+00 0.14325663E+04</pdfrwt>
<pdfrwt beam="2">  1       -2 0.75096348E-01 0.14325663E+04</pdfrwt>
<totfact> 0.45024643E+01</totfact>
</mgrwt>
</event>
<event>
 8    1  0.2654897E-009  0.1570390E+04  0.7818608E-02  0.8838948E-01
         -2   -1    0    0    0  501 -0.00000000000E+00  0.00000000000E+00  0.67294226037E+03  0.67294226037E+03  0.25500000000E-02 0. -1.
          2   -1    0    0  501    0  0.00000000000E+00 -0.00000000000E+00 -0.91617223924E+03  0.91617223924E+03  0.25500000000E-02 0.  1.
     200001    2    1    2    0    0  0.17234382766E+03 -0.23479404151E+03 -0.33963865016E+03  0.82483361620E+03  0.69293971229E+03 0.  0.
    5000001    2    3    3    0    0  0.11375090966E+03  0.45913390342E+02 -0.15867993740E+03  0.22070130614E+03  0.92100136458E+02 0.  0.
        -11    1    4    4    0    0  0.97023821052E+02  0.42287895719E+02 -0.73701880528E+02  0.12897230388E+03  0.51100000000E-03 0. -1.
     200002    1    4    4    0    0  0.16727088613E+02  0.36254946232E+01 -0.84978056869E+02  0.91729002250E+02  0.30000000000E+02 0.  1.
     200000    1    3    3    0    0  0.58592917997E+02 -0.28070743185E+03 -0.18095871276E+03  0.60413231006E+03  0.50000000000E+03 0. -1.
    -200001    1    1    2    0    0 -0.17234382766E+03  0.23479404151E+03  0.96408671293E+02  0.76428088342E+03  0.70000000000E+03 0. -1.
<mgrwt>
<rscale>  0 0.15703898E+04</rscale>
<asrwt>0</asrwt>
<pdfrwt beam="1">  1        2 0.13088175E+00 0.15703898E+04</pdfrwt>
<pdfrwt beam="2">  1       -2 0.96134609E-01 0.15703898E+04</pdfrwt>
<totfact> 0.27716686E+01</totfact>
</mgrwt>
</event>
<event>
 8    1  0.2654897E-009  0.1704799E+04  0.7818608E-02  0.8758632E-01
          2   -1    0    0  501    0  0.00000000000E+00  0.00000000000E+00  0.13222771901E+04  0.13222771901E+04  0.25500000000E-02 0.  1.
         -2   -1    0    0    0  501 -0.00000000000E+00 -0.00000000000E+00 -0.54949534400E+03  0.54949534401E+03  0.25500000000E-02 0. -1.
     200001    2    1    2    0    0  0.59628396203E+01 -0.40785692629E+03  0.67632553594E+03  0.10558763106E+04  0.70076795372E+03 0.  0.
    5000001    2    3    3    0    0  0.56281258443E+02 -0.81478796945E+02  0.21021332478E+03  0.29672203118E+03  0.18452085917E+03 0.  0.
        -11    1    4    4    0    0  0.88732502463E+02 -0.11964340556E+03  0.16885676487E+03  0.22516795626E+03  0.51100000000E-03 0. -1.
     200002    1    4    4    0    0 -0.32451244020E+02  0.38164608613E+02  0.41356559916E+02  0.71554074916E+02  0.30000000000E+02 0. -1.
     200000    1    3    3    0    0 -0.50318418823E+02 -0.32637812935E+03  0.46611221115E+03  0.75915427943E+03  0.50000000000E+03 0.  1.
    -200001    1    1    2    0    0 -0.59628396203E+01  0.40785692629E+03  0.96456310179E+02  0.81589622352E+03  0.70000000000E+03 0. -1.
<mgrwt>
<rscale>  0 0.17047993E+04</rscale>
<asrwt>0</asrwt>
<pdfrwt beam="1">  1        2 0.18889674E+00 0.17047993E+04</pdfrwt>
<pdfrwt beam="2">  1       -2 0.78499336E-01 0.17047993E+04</pdfrwt>
<totfact> 0.25104019E+01</totfact>
</mgrwt>
</event>
<event>
 8    1  0.2654897E-009  0.2061480E+04  0.7818608E-02  0.8578404E-01
          2   -1    0    0  501    0  0.00000000000E+00  0.00000000000E+00  0.17551888526E+04  0.17551888526E+04  0.25500000000E-02 0.  1.
         -2   -1    0    0    0  501 -0.00000000000E+00 -0.00000000000E+00 -0.60530539040E+03  0.60530539040E+03  0.25500000000E-02 0. -1.
     200001    2    1    2    0    0  0.43098560013E+03  0.58426475702E+03  0.81978113079E+03  0.12993243965E+04  0.69934890521E+03 0.  0.
    5000001    2    3    3    0    0  0.16174709160E+03  0.20933982593E+03  0.20155459523E+03  0.37994301338E+03  0.18370398525E+03 0.  0.
        -11    1    4    4    0    0  0.21567447855E+02  0.60090482584E+02  0.15527457195E+03  0.16788750281E+03  0.51100000000E-03 0. -1.
     200002    1    4    4    0    0  0.14017964374E+03  0.14924934335E+03  0.46280023280E+02  0.21205551057E+03  0.30000000000E+02 0. -1.
     200000    1    3    3    0    0  0.26923850854E+03  0.37492493109E+03  0.61822653556E+03  0.91938138316E+03  0.50000000000E+03 0.  1.
    -200001    1    1    2    0    0 -0.43098560013E+03 -0.58426475702E+03  0.33010233139E+03  0.10611698464E+04  0.70000000000E+03 0. -1.
<mgrwt>
<rscale>  0 0.20614803E+04</rscale>
<asrwt>0</asrwt>
<pdfrwt beam="1">  1        2 0.25074127E+00 0.20614803E+04</pdfrwt>
<pdfrwt beam="2">  1       -2 0.86472198E-01 0.20614803E+04</pdfrwt>
<totfact> 0.11547782E+01</totfact>
</mgrwt>
</event>
<event>
 8    1  0.2654897E-009  0.1725863E+04  0.7818608E-02  0.8746750E-01
          2   -1    0    0  501    0  0.00000000000E+00  0.00000000000E+00  0.83625087535E+03  0.83625087535E+03  0.25500000000E-02 0.  1.
         -2   -1    0    0    0  501 -0.00000000000E+00 -0.00000000000E+00 -0.89046313756E+03  0.89046313757E+03  0.25500000000E-02 0. -1.
     200001    2    1    2    0    0 -0.18477598842E+03  0.61257909482E+01 -0.49834679248E+03  0.87734061318E+03  0.69799522545E+03 0.  0.
    5000001    2    3    3    0    0 -0.11735580342E+03  0.13654302390E+03 -0.93922542552E+02  0.21770957243E+03  0.78483322781E+02 0.  0.
        -11    1    4    4    0    0 -0.51024143468E+02  0.72638372267E+02 -0.80651563962E+02  0.11993527885E+03  0.51100000000E-03 0. -1.
     200002    1    4    4    0    0 -0.66331659953E+02  0.63904651632E+02 -0.13270978590E+02  0.97774293580E+02  0.30000000000E+02 0. -1.
     200000    1    3    3    0    0 -0.67420185004E+02 -0.13041723295E+03 -0.40442424993E+03  0.65963104075E+03  0.50000000000E+03 0. -1.
    -200001    1    1    2    0    0  0.18477598842E+03 -0.61257909482E+01  0.44413453026E+03  0.84937339974E+03  0.70000000000E+03 0.  1.
<mgrwt>
<rscale>  0 0.17258628E+04</rscale>
<asrwt>0</asrwt>
<pdfrwt beam="1">  1        2 0.11946441E+00 0.17258628E+04</pdfrwt>
<pdfrwt beam="2">  1       -2 0.12720902E+00 0.17258628E+04</pdfrwt>
<totfact> 0.15672620E+01</totfact>
</mgrwt>
</event>
<event>
 8    1  0.2654897E-009  0.2141599E+04  0.7818608E-02  0.8543137E-01
          2   -1    0    0  501    0  0.00000000000E+00  0.00000000000E+00  0.36499106027E+04  0.36499106027E+04  0.25500000000E-02 0.  1.
         -2   -1    0    0    0  501 -0.00000000000E+00 -0.00000000000E+00 -0.31414795943E+03  0.31414795944E+03  0.25500000000E-02 0. -1.
     200001    2    1    2    0    0  0.46946155339E+03 -0.98520356183E+02  0.45905939305E+03  0.96480498825E+03  0.70000909159E+03 0.  0.
    5000001    2    3    3    0    0  0.88203201627E+01 -0.11691360127E+03  0.24406237985E+02  0.15767920969E+03  0.10256939360E+03 0.  0.
        -11    1    4    4    0    0  0.11982112423E+02 -0.32649022811E+02  0.53288204024E+02  0.63633029136E+02  0.51100000000E-03 0. -1.
     200002    1    4    4    0    0 -0.31617922603E+01 -0.84264578462E+02 -0.28881966039E+02  0.94046180550E+02  0.30000000000E+02 0. -1.
     200000    1    3    3    0    0  0.46064123323E+03  0.18393245091E+02  0.43465315506E+03  0.80712577856E+03  0.50000000000E+03 0. -1.
    -200001    1    1    2    0    0 -0.46946155339E+03  0.98520356183E+02  0.28767032502E+04  0.29992535739E+04  0.70000000000E+03 0.  1.
<mgrwt>
<rscale>  0 0.21415994E+04</rscale>
<asrwt>0</asrwt>
<pdfrwt beam="1">  1        2 0.52141580E+00 0.21415994E+04</pdfrwt>
<pdfrwt beam="2">  1       -2 0.44878280E-01 0.21415994E+04</pdfrwt>
<totfact> 0.42216491E+00</totfact>
</mgrwt>
</event>
<event>
 8    1  0.2654897E-009  0.1639569E+04  0.7818608E-02  0.8796601E-01
          2   -1    0    0  501    0  0.00000000000E+00  0.00000000000E+00  0.18599759535E+04  0.18599759535E+04  0.25500000000E-02 0.  1.
         -2   -1    0    0    0  501 -0.00000000000E+00 -0.00000000000E+00 -0.36132019802E+03  0.36132019803E+03  0.25500000000E-02 0. -1.
     200001    2    1    2    0    0 -0.36757730110E+02  0.41526644623E+03  0.86879534144E+03  0.11914799090E+04  0.70072938875E+03 0.  0.
    5000001    2    3    3    0    0 -0.12545458392E+02  0.12256725889E+03  0.18084340994E+03  0.29173721893E+03  0.19294077980E+03 0.  0.
        -11    1    4    4    0    0  0.41670995381E+02  0.14961911131E+03  0.93510172023E+02  0.18129120938E+03  0.51100000000E-03 0. -1.
     200002    1    4    4    0    0 -0.54216453773E+02 -0.27051852425E+02  0.87333237921E+02  0.11044600955E+03  0.30000000000E+02 0. -1.
     200000    1    3    3    0    0 -0.24212271718E+02  0.29269918734E+03  0.68795193149E+03  0.89974269012E+03  0.50000000000E+03 0.  1.
    -200001    1    1    2    0    0  0.36757730110E+02 -0.41526644623E+03  0.62986041399E+03  0.10298162424E+04  0.70000000000E+03 0.  1.
<mgrwt>
<rscale>  0 0.16395693E+04</rscale>
<asrwt>0</asrwt>
<pdfrwt beam="1">  1        2 0.26571085E+00 0.16395693E+04</pdfrwt>
<pdfrwt beam="2">  1       -2 0.51617170E-01 0.16395693E+04</pdfrwt>
<totfact> 0.32179454E+01</totfact>
</mgrwt>
</event>
<event>
 8    1  0.2654897E-009  0.1701865E+04  0.7818608E-02  0.8760301E-01
         -2   -1    0    0    0  501 -0.00000000000E+00  0.00000000000E+00  0.41329487706E+03  0.41329487707E+03  0.25500000000E-02 0. -1.
          2   -1    0    0  501    0  0.00000000000E+00 -0.00000000000E+00 -0.17519848548E+04  0.17519848548E+04  0.25500000000E-02 0.  1.
     200001    2    1    2    0    0 -0.27389696470E+03  0.23743235489E+03 -0.10771277619E+04  0.13347326452E+04  0.69993810311E+03 0.  0.
    5000001    2    3    3    0    0 -0.36838973572E+02  0.96096501051E+02 -0.20921722271E+03  0.29577113539E+03  0.18198096265E+03 0.  0.
        -11    1    4    4    0    0 -0.38708303205E+02  0.14504536391E+03 -0.13477919481E+03  0.20174717267E+03  0.51100000000E-03 0. -1.
     200002    1    4    4    0    0  0.18693296334E+01 -0.48948862857E+02 -0.74438027901E+02  0.94023962723E+02  0.30000000000E+02 0. -1.
     200000    1    3    3    0    0 -0.23705799113E+03  0.14133585384E+03 -0.86791053920E+03  0.10389615098E+04  0.50000000000E+03 0.  1.
    -200001    1    1    2    0    0  0.27389696470E+03 -0.23743235489E+03 -0.26156221579E+03  0.83054708665E+03  0.70000000000E+03 0. -1.
<mgrwt>
<rscale>  0 0.17018653E+04</rscale>
<asrwt>0</asrwt>
<pdfrwt beam="1">  1        2 0.25028355E+00 0.17018653E+04</pdfrwt>
<pdfrwt beam="2">  1       -2 0.59042126E-01 0.17018653E+04</pdfrwt>
<totfact> 0.27541217E+01</totfact>
</mgrwt>
</event>
<event>
 8    1  0.2654897E-009  0.2009598E+04  0.7818608E-02  0.8602146E-01
         -2   -1    0    0    0  501 -0.00000000000E+00  0.00000000000E+00  0.95734338026E+03  0.95734338026E+03  0.25500000000E-02 0. -1.
          2   -1    0    0  501    0  0.00000000000E+00 -0.00000000000E+00 -0.10546070216E+04  0.10546070216E+04  0.25500000000E-02 0.  1.
     200001    2    1    2    0    0  0.14461847869E+03  0.64817562832E+03  0.23246370591E+03  0.99226109967E+03  0.69964031175E+03 0.  0.
    5000001    2    3    3    0    0  0.29061344227E+02  0.21180972389E+03  0.88993405615E+02  0.30352865457E+03  0.19621900274E+03 0.  0.
        -11    1    4    4    0    0 -0.46252668404E+02  0.10971327246E+03 -0.34493368613E+02  0.12396009021E+03  0.51100000000E-03 0. -1.
     200002    1    4    4    0    0  0.75314012631E+02  0.10209645143E+03  0.12348677423E+03  0.17956856435E+03  0.30000000000E+02 0.  1.
     200000    1    3    3    0    0  0.11555713446E+03  0.43636590443E+03  0.14347030030E+03  0.68873244511E+03  0.50000000000E+03 0. -1.
    -200001    1    1    2    0    0 -0.14461847869E+03 -0.64817562832E+03 -0.32972734728E+03  0.10196893022E+04  0.70000000000E+03 0.  1.
<mgrwt>
<rscale>  0 0.20095980E+04</rscale>
<asrwt>0</asrwt>
<pdfrwt beam="1">  1        2 0.15065814E+00 0.20095980E+04</pdfrwt>
<pdfrwt beam="2">  1       -2 0.13676334E+00 0.20095980E+04</pdfrwt>
<totfact> 0.92499162E+00</totfact>
</mgrwt>
</event>
<event>
 8    1  0.2654897E-009  0.1828541E+04  0.7818608E-02  0.8691267E-01
          2   -1    0    0  501    0  0.00000000000E+00  0.00000000000E+00  0.67743402452E+03  0.67743402453E+03  0.25500000000E-02 0.  1.
         -2   -1    0    0    0  501 -0.00000000000E+00 -0.00000000000E+00 -0.12339066515E+04  0.12339066515E+04  0.25500000000E-02 0. -1.
     200001    2    1    2    0    0 -0.32982030217E+03  0.36545266637E+03 -0.61488716595E+03  0.10535823526E+04  0.69972313364E+03 0.  0.
    5000001    2    3    3    0    0 -0.72471603079E+02  0.12344434004E+03 -0.12869334016E+03  0.27180180847E+03  0.19189478613E+03 0.  0.
        -11    1    4    4    0    0 -0.13539614841E+02  0.12795283629E+03 -0.18453153185E+01  0.12868043625E+03  0.51100000000E-03 0. -1.
     200002    1    4    4    0    0 -0.58931988238E+02 -0.45084962561E+01 -0.12684802485E+03  0.14312137221E+03  0.30000000000E+02 0. -1.
     200000    1    3    3    0    0 -0.25734869909E+03  0.24200832634E+03 -0.48619382578E+03  0.78178054412E+03  0.50000000000E+03 0.  1.
    -200001    1    1    2    0    0  0.32982030217E+03 -0.36545266637E+03  0.58414538967E+02  0.85775832345E+03  0.70000000000E+03 0.  1.
<mgrwt>
<rscale>  0 0.18285408E+04</rscale>
<asrwt>0</asrwt>
<pdfrwt beam="1">  1        2 0.96776290E-01 0.18285408E+04</pdfrwt>
<pdfrwt beam="2">  1       -2 0.17627238E+00 0.18285408E+04</pdfrwt>
<totfact> 0.85171309E+00</totfact>
</mgrwt>
</event>
<event>
 8    1  0.2654897E-009  0.1750133E+04  0.7818608E-02  0.8733277E-01
          2   -1    0    0  501    0  0.00000000000E+00  0.00000000000E+00  0.10222817381E+04  0.10222817381E+04  0.25500000000E-02 0.  1.
         -2   -1    0    0    0  501 -0.00000000000E+00 -0.00000000000E+00 -0.74905162922E+03  0.74905162923E+03  0.25500000000E-02 0. -1.
     200001    2    1    2    0    0 -0.49754439679E+03  0.72989072291E+02  0.29004655326E+03  0.90926572252E+03  0.69982806434E+03 0.  0.
    5000001    2    3    3    0    0 -0.15649192344E+03  0.61900394131E+01  0.14208461304E+03  0.28263055264E+03  0.18752054110E+03 0.  0.
        -11    1    4    4    0    0 -0.48513611494E+02 -0.51396281125E+01  0.16116452072E+03  0.16838642765E+03  0.51100000000E-03 0. -1.
     200002    1    4    4    0    0 -0.10797831195E+03  0.11329667526E+02 -0.19079907687E+02  0.11424412499E+03  0.30000000000E+02 0. -1.
     200000    1    3    3    0    0 -0.34105247334E+03  0.66799032878E+02  0.14796194023E+03  0.62663516987E+03  0.50000000000E+03 0.  1.
    -200001    1    1    2    0    0  0.49754439679E+03 -0.72989072291E+02 -0.16816444380E+02  0.86206764482E+03  0.70000000000E+03 0.  1.
<mgrwt>
<rscale>  0 0.17501335E+04</rscale>
<asrwt>0</asrwt>
<pdfrwt beam="1">  1        2 0.14604025E+00 0.17501335E+04</pdfrwt>
<pdfrwt beam="2">  1       -2 0.10700738E+00 0.17501335E+04</pdfrwt>
<totfact> 0.18169864E+01</totfact>
</mgrwt>
</event>
<event>
 8    1  0.2654897E-009  0.1856689E+04  0.7818608E-02  0.8676720E-01
          2   -1    0    0  501    0  0.00000000000E+00  0.00000000000E+00  0.16661970521E+04  0.16661970521E+04  0.25500000000E-02 0.  1.
         -2   -1    0    0    0  501 -0.00000000000E+00 -0.00000000000E+00 -0.51724001346E+03  0.51724001347E+03  0.25500000000E-02 0. -1.
     200001    2    1    2    0    0  0.45529362337E+03 -0.30006683186E+03  0.89710242588E+03  0.12610688457E+04  0.69869126513E+03 0.  0.
    5000001    2    3    3    0    0  0.12688230295E+01 -0.33783399133E+02  0.10357534632E+03  0.18555473054E+03  0.15019912680E+03 0.  0.
        -11    1    4    4    0    0  0.56630179332E+00 -0.52858887693E+02 -0.20338845771E+02  0.56639662371E+02  0.51100000000E-03 0. -1.
     200002    1    4    4    0    0  0.70252123620E+00  0.19075488561E+02  0.12391419209E+03  0.12891506817E+03  0.30000000000E+02 0. -1.
     200000    1    3    3    0    0  0.45402480034E+03 -0.26628343273E+03  0.79352707956E+03  0.10755141151E+04  0.50000000000E+03 0.  1.
    -200001    1    1    2    0    0 -0.45529362337E+03  0.30006683186E+03  0.25185461274E+03  0.92236821987E+03  0.70000000000E+03 0. -1.
<mgrwt>
<rscale>  0 0.18566893E+04</rscale>
<asrwt>0</asrwt>
<pdfrwt beam="1">  1        2 0.23802815E+00 0.18566893E+04</pdfrwt>
<pdfrwt beam="2">  1       -2 0.73891430E-01 0.18566893E+04</pdfrwt>
<totfact> 0.18588802E+01</totfact>
</mgrwt>
</event>
<event>
 8    1  0.2654897E-009  0.1650167E+04  0.7818608E-02  0.8790308E-01
         -2   -1    0    0    0  501 -0.00000000000E+00  0.00000000000E+00  0.37726372655E+03  0.37726372656E+03  0.25500000000E-02 0. -1.
          2   -1    0    0  501    0  0.00000000000E+00 -0.00000000000E+00 -0.18044736378E+04  0.18044736378E+04  0.25500000000E-02 0.  1.
     200001    2    1    2    0    0 -0.12141998294E+03 -0.13494021101E+02 -0.16017205134E+03  0.72904681257E+03  0.70066344847E+03 0.  0.
    5000001    2    3    3    0    0 -0.47332970661E+02 -0.61467709356E+02 -0.41167002955E+02  0.20755610153E+03  0.18805883055E+03 0.  0.
        -11    1    4    4    0    0 -0.89471050105E+02 -0.96838631413E+02  0.13140541361E+01  0.13185035487E+03  0.51100000000E-03 0. -1.
     200002    1    4    4    0    0  0.42138079443E+02  0.35370922057E+02 -0.42481057091E+02  0.75705746664E+02  0.30000000000E+02 0. -1.
     200000    1    3    3    0    0 -0.74087012276E+02  0.47973688256E+02 -0.11900504839E+03  0.52149071103E+03  0.50000000000E+03 0. -1.
    -200001    1    1    2    0    0  0.12141998294E+03  0.13494021101E+02 -0.12670378599E+04  0.14526905518E+04  0.70000000000E+03 0.  1.
<mgrwt>
<rscale>  0 0.16501666E+04</rscale>
<asrwt>0</asrwt>
<pdfrwt beam="1">  1        2 0.25778194E+00 0.16501666E+04</pdfrwt>
<pdfrwt beam="2">  1       -2 0.53894819E-01 0.16501666E+04</pdfrwt>
<totfact> 0.31423005E+01</totfact>
</mgrwt>
</event>
<event>
 8    1  0.2654897E-009  0.1630840E+04  0.7818608E-02  0.8801823E-01
          2   -1    0    0  501    0  0.00000000000E+00  0.00000000000E+00  0.70054799402E+03  0.70054799403E+03  0.25500000000E-02 0.  1.
         -2   -1    0    0    0  501 -0.00000000000E+00 -0.00000000000E+00 -0.94912818223E+03  0.94912818223E+03  0.25500000000E-02 0. -1.
     200001    2    1    2    0    0 -0.15849436814E+03 -0.30332407414E+03  0.12003410443E+03  0.78770027438E+03  0.69924071488E+03 0.  0.
    5000001    2    3    3    0    0  0.22424436525E+01 -0.27497634084E+02  0.13169958917E+03  0.19436004211E+03  0.14024940551E+03 0.  0.
        -11    1    4    4    0    0  0.18452751880E+01  0.32579430035E+02  0.12226946889E+03  0.12654899179E+03  0.51100000000E-03 0. -1.
     200002    1    4    4    0    0  0.39716846448E+00 -0.60077064119E+02  0.94301202849E+01  0.67811050313E+02  0.30000000000E+02 0. -1.
     200000    1    3    3    0    0 -0.16073681179E+03 -0.27582644006E+03 -0.11665484743E+02  0.59334023227E+03  0.50000000000E+03 0.  1.
    -200001    1    1    2    0    0  0.15849436814E+03  0.30332407414E+03 -0.36861429263E+03  0.86197590188E+03  0.70000000000E+03 0. -1.
<mgrwt>
<rscale>  0 0.16308401E+04</rscale>
<asrwt>0</asrwt>
<pdfrwt beam="1">  1        2 0.10007828E+00 0.16308401E+04</pdfrwt>
<pdfrwt beam="2">  1       -2 0.13558974E+00 0.16308401E+04</pdfrwt>
<totfact> 0.16818435E+01</totfact>
</mgrwt>
</event>
<event>
 8    1  0.2654897E-009  0.2011478E+04  0.7818608E-02  0.8601273E-01
          2   -1    0    0  501    0  0.00000000000E+00  0.00000000000E+00  0.10906640892E+04  0.10906640892E+04  0.25500000000E-02 0.  1.
         -2   -1    0    0    0  501 -0.00000000000E+00 -0.00000000000E+00 -0.92742709646E+03  0.92742709646E+03  0.25500000000E-02 0. -1.
     200001    2    1    2    0    0  0.83011284317E+02  0.70656275427E+03  0.20692922458E+03  0.10190762658E+04  0.69969631440E+03 0.  0.
    5000001    2    3    3    0    0  0.10263902805E+02  0.13667877585E+03  0.18756233122E+03  0.25721341265E+03  0.11042045139E+03 0.  0.
        -11    1    4    4    0    0  0.15474150612E+02  0.55116514874E+02  0.81913175348E+01  0.57830590799E+02  0.51100000000E-03 0. -1.
     200002    1    4    4    0    0 -0.52102478070E+01  0.81562260972E+02  0.17937101369E+03  0.19938282185E+03  0.30000000000E+02 0. -1.
     200000    1    3    3    0    0  0.72747381513E+02  0.56988397842E+03  0.19366893355E+02  0.76186285310E+03  0.50000000000E+03 0.  1.
    -200001    1    1    2    0    0 -0.83011284317E+02 -0.70656275427E+03 -0.43692231859E+02  0.99901491989E+03  0.70000000000E+03 0. -1.
<mgrwt>
<rscale>  0 0.20114785E+04</rscale>
<asrwt>0</asrwt>
<pdfrwt beam="1">  1        2 0.15580916E+00 0.20114785E+04</pdfrwt>
<pdfrwt beam="2">  1       -2 0.13248958E+00 0.20114785E+04</pdfrwt>
<totfact> 0.95444079E+00</totfact>
</mgrwt>
</event>
<event>
 8    1  0.2654897E-009  0.1554683E+04  0.7818608E-02  0.8848882E-01
         -2   -1    0    0    0  501 -0.00000000000E+00  0.00000000000E+00  0.11138972265E+04  0.11138972265E+04  0.25500000000E-02 0. -1.
          2   -1    0    0  501    0  0.00000000000E+00 -0.00000000000E+00 -0.54247336597E+03  0.54247336598E+03  0.25500000000E-02 0.  1.
     200001    2    1    2    0    0  0.25671956823E+03 -0.10565427080E+03  0.49219140565E+03  0.89917475017E+03  0.69942482791E+03 0.  0.
    5000001    2    3    3    0    0 -0.63710639873E+01 -0.31727324553E+01  0.13942036600E+03  0.22525594729E+03  0.17678106981E+03 0.  0.
        -11    1    4    4    0    0  0.31524742419E+02 -0.62376369933E+02  0.43046392897E+01  0.70022502313E+02  0.51100000000E-03 0. -1.
     200002    1    4    4    0    0 -0.37895806406E+02  0.59203637477E+02  0.13511572671E+03  0.15523344497E+03  0.30000000000E+02 0. -1.
     200000    1    3    3    0    0  0.26309063221E+03 -0.10248153835E+03  0.35277103965E+03  0.67391880288E+03  0.50000000000E+03 0.  1.
    -200001    1    1    2    0    0 -0.25671956823E+03  0.10565427080E+03  0.79232454838E+02  0.75719584227E+03  0.70000000000E+03 0.  1.
<mgrwt>
<rscale>  0 0.15546827E+04</rscale>
<asrwt>0</asrwt>
<pdfrwt beam="1">  1        2 0.77496196E-01 0.15546827E+04</pdfrwt>
<pdfrwt beam="2">  1       -2 0.15912817E+00 0.15546827E+04</pdfrwt>
<totfact> 0.15050963E+01</totfact>
</mgrwt>
</event>
<event>
 8    1  0.2654897E-009  0.1600166E+04  0.7818608E-02  0.8820446E-01
          2   -1    0    0  501    0  0.00000000000E+00  0.00000000000E+00  0.30509710479E+04  0.30509710479E+04  0.25500000000E-02 0.  1.
         -2   -1    0    0    0  501 -0.00000000000E+00 -0.00000000000E+00 -0.20981268002E+03  0.20981268003E+03  0.25500000000E-02 0. -1.
     200001    2    1    2    0    0  0.13455876396E+03  0.35146045202E+03  0.12306367098E+04  0.14648409333E+04  0.69975834270E+03 0.  0.
    5000001    2    3    3    0    0  0.17680961466E+02  0.13556342337E+03  0.34044789197E+03  0.41474185273E+03  0.19343210465E+03 0.  0.
        -11    1    4    4    0    0  0.14635680488E+02  0.92254926791E+02  0.27495622479E+02  0.97371371133E+02  0.51100000000E-03 0. -1.
     200002    1    4    4    0    0  0.30452809779E+01  0.43308496578E+02  0.31295226949E+03  0.31737048160E+03  0.30000000000E+02 0. -1.
     200000    1    3    3    0    0  0.11687780250E+03  0.21589702865E+03  0.89018881783E+03  0.10500990806E+04  0.50000000000E+03 0.  1.
    -200001    1    1    2    0    0 -0.13455876396E+03 -0.35146045202E+03  0.16105216581E+04  0.17959427946E+04  0.70000000000E+03 0. -1.
<mgrwt>
<rscale>  0 0.16001655E+04</rscale>
<asrwt>0</asrwt>
<pdfrwt beam="1">  1        2 0.43585300E+00 0.16001655E+04</pdfrwt>
<pdfrwt beam="2">  1       -2 0.29973241E-01 0.16001655E+04</pdfrwt>
<totfact> 0.21878019E+01</totfact>
</mgrwt>
</event>
<event>
 8    1  0.2654897E-009  0.1985513E+04  0.7818608E-02  0.8613424E-01
         -2   -1    0    0    0  501 -0.00000000000E+00  0.00000000000E+00  0.65485823145E+03  0.65485823145E+03  0.25500000000E-02 0.  1.
          2   -1    0    0  501    0  0.00000000000E+00 -0.00000000000E+00 -0.15050051439E+04  0.15050051439E+04  0.25500000000E-02 0. -1.
     200001    2    1    2    0    0 -0.11167270690E+03  0.16227010321E+03  0.31057693920E+03  0.79016186055E+03  0.69935352351E+03 0.  0.
    5000001    2    3    3    0    0 -0.14628684691E+03  0.28910651104E+02  0.12223003658E+03  0.23838524100E+03  0.14018442838E+03 0.  0.
        -11    1    4    4    0    0 -0.70180802540E+02  0.42788686217E+02  0.13131108091E+03  0.15491551467E+03  0.51100000000E-03 0. -1.
     200002    1    4    4    0    0 -0.76106044370E+02 -0.13878035113E+02 -0.90810443361E+01  0.83469726336E+02  0.30000000000E+02 0. -1.
     200000    1    3    3    0    0  0.34614140010E+02  0.13335945210E+03  0.18834690262E+03  0.55177661955E+03  0.50000000000E+03 0.  1.
    -200001    1    1    2    0    0  0.11167270690E+03 -0.16227010321E+03 -0.11607238516E+04  0.13697015148E+04  0.70000000000E+03 0. -1.
<mgrwt>
<rscale>  0 0.19855125E+04</rscale>
<asrwt>0</asrwt>
<pdfrwt beam="1">  1        2 0.21500073E+00 0.19855125E+04</pdfrwt>
<pdfrwt beam="2">  1       -2 0.93551176E-01 0.19855125E+04</pdfrwt>
<totfact> 0.13108231E+01</totfact>
</mgrwt>
</event>
<event>
 8    1  0.2654897E-009  0.1920312E+04  0.7818608E-02  0.8644811E-01
         -2   -1    0    0    0  501 -0.00000000000E+00  0.00000000000E+00  0.14380518371E+04  0.14380518371E+04  0.25500000000E-02 0.  1.
          2   -1    0    0  501    0  0.00000000000E+00 -0.00000000000E+00 -0.64107535417E+03  0.64107535417E+03  0.25500000000E-02 0. -1.
     200001    2    1    2    0    0  0.49368306967E+03  0.85183529732E+02  0.85800520946E+03  0.12161650181E+04  0.70135954024E+03 0.  0.
    5000001    2    3    3    0    0  0.91541718612E+02  0.84124564791E+02  0.29097067432E+03  0.35986661699E+03  0.17141534372E+03 0.  0.
        -11    1    4    4    0    0  0.22058096073E+02  0.19406972259E+01 -0.19749454962E+02  0.29670977059E+02  0.51100000000E-03 0. -1.
     200002    1    4    4    0    0  0.69483622539E+02  0.82183867565E+02  0.31072012928E+03  0.33019563993E+03  0.30000000000E+02 0. -1.
     200000    1    3    3    0    0  0.40214135105E+03  0.10589649404E+01  0.56703453515E+03  0.85629840107E+03  0.50000000000E+03 0.  1.
    -200001    1    1    2    0    0 -0.49368306967E+03 -0.85183529732E+02 -0.61028726487E+02  0.86296217325E+03  0.70000000000E+03 0. -1.
<mgrwt>
<rscale>  0 0.19203120E+04</rscale>
<asrwt>0</asrwt>
<pdfrwt beam="1">  1        2 0.91582194E-01 0.19203120E+04</pdfrwt>
<pdfrwt beam="2">  1       -2 0.20543598E+00 0.19203120E+04</pdfrwt>
<totfact> 0.57586905E+00</totfact>
</mgrwt>
</event>
<event>
 8    1  0.2654897E-009  0.2104401E+04  0.7818608E-02  0.8559307E-01
         -2   -1    0    0    0  501 -0.00000000000E+00  0.00000000000E+00  0.72777586825E+03  0.72777586825E+03  0.25500000000E-02 0. -1.
          2   -1    0    0  501    0  0.00000000000E+00 -0.00000000000E+00 -0.15212450275E+04  0.15212450275E+04  0.25500000000E-02 0.  1.
     200001    2    1    2    0    0 -0.10683582165E+03 -0.34480738462E+03  0.34899831487E+03  0.86138335133E+03  0.69991101499E+03 0.  0.
    5000001    2    3    3    0    0  0.23179154076E+02 -0.19972119941E+03  0.16986607373E+03  0.29566057924E+03  0.13466575078E+03 0.  0.
        -11    1    4    4    0    0 -0.78895736241E+01 -0.19167024731E+03  0.16188045486E+03  0.25100798940E+03  0.51100000000E-03 0. -1.
     200002    1    4    4    0    0  0.31068727701E+02 -0.80509520939E+01  0.79856188739E+01  0.44652589839E+02  0.30000000000E+02 0. -1.
     200000    1    3    3    0    0 -0.13001497573E+03 -0.14508618521E+03  0.17913224113E+03  0.56572277209E+03  0.50000000000E+03 0. -1.
    -200001    1    1    2    0    0  0.10683582165E+03  0.34480738462E+03 -0.11424674742E+04  0.13876375445E+04  0.70000000000E+03 0.  1.
<mgrwt>
<rscale>  0 0.21044006E+04</rscale>
<asrwt>0</asrwt>
<pdfrwt beam="1">  1        2 0.21732072E+00 0.21044006E+04</pdfrwt>
<pdfrwt beam="2">  1       -2 0.10396798E+00 0.21044006E+04</pdfrwt>
<totfact> 0.99216528E+00</totfact>
</mgrwt>
</event>
<event>
 8    1  0.2654897E-009  0.1658475E+04  0.7818608E-02  0.8785409E-01
          2   -1    0    0  501    0  0.00000000000E+00  0.00000000000E+00  0.20076772768E+04  0.20076772768E+04  0.25500000000E-02 0.  1.
         -2   -1    0    0    0  501 -0.00000000000E+00 -0.00000000000E+00 -0.34250266488E+03  0.34250266489E+03  0.25500000000E-02 0. -1.
     200001    2    1    2    0    0  0.39848491701E+03  0.90958657832E+02  0.10768738358E+04  0.13486004343E+04  0.70142866101E+03 0.  0.
    5000001    2    3    3    0    0  0.93194070170E+02  0.99709222918E+02  0.19033362660E+03  0.28594686130E+03  0.16404771935E+03 0.  0.
        -11    1    4    4    0    0  0.50407917719E+02  0.10042775911E+03  0.20313311895E+03  0.23214167438E+03  0.51100000000E-03 0. -1.
     200002    1    4    4    0    0  0.42786152452E+02 -0.71853619191E+00 -0.12799492347E+02  0.53805186927E+02  0.30000000000E+02 0. -1.
     200000    1    3    3    0    0  0.30529084684E+03 -0.87505650863E+01  0.88654020924E+03  0.10626535730E+04  0.50000000000E+03 0.  1.
    -200001    1    1    2    0    0 -0.39848491701E+03 -0.90958657832E+02  0.58830077604E+03  0.10015795074E+04  0.70000000000E+03 0. -1.
<mgrwt>
<rscale>  0 0.16584750E+04</rscale>
<asrwt>0</asrwt>
<pdfrwt beam="1">  1        2 0.28681103E+00 0.16584750E+04</pdfrwt>
<pdfrwt beam="2">  1       -2 0.48928954E-01 0.16584750E+04</pdfrwt>
<totfact> 0.30080750E+01</totfact>
</mgrwt>
</event>
<event>
 8    1  0.2654897E-009  0.2037197E+04  0.7818608E-02  0.8589425E-01
         -2   -1    0    0    0  501 -0.00000000000E+00  0.00000000000E+00  0.51227155779E+03  0.51227155780E+03  0.25500000000E-02 0. -1.
          2   -1    0    0  501    0  0.00000000000E+00 -0.00000000000E+00 -0.20253763710E+04  0.20253763710E+04  0.25500000000E-02 0.  1.
     200001    2    1    2    0    0 -0.45437418013E+03  0.45360682375E+03 -0.12151064110E+04  0.15421490118E+04  0.69966058792E+03 0.  0.
    5000001    2    3    3    0    0 -0.14694551851E+03  0.20730232636E+03 -0.42748662865E+03  0.52946781367E+03  0.18172536451E+03 0.  0.
        -11    1    4    4    0    0 -0.10619213078E+03  0.13407685606E+02 -0.10599476421E+03  0.15063673096E+03  0.51100000000E-03 0. -1.
     200002    1    4    4    0    0 -0.40753387729E+02  0.19389464075E+03 -0.32149186444E+03  0.37883108271E+03  0.30000000000E+02 0. -1.
     200000    1    3    3    0    0 -0.30742866162E+03  0.24630449739E+03 -0.78761978235E+03  0.10126811981E+04  0.50000000000E+03 0.  1.
    -200001    1    1    2    0    0  0.45437418013E+03 -0.45360682375E+03 -0.29799840222E+03  0.99549891705E+03  0.70000000000E+03 0. -1.
<mgrwt>
<rscale>  0 0.20371968E+04</rscale>
<asrwt>0</asrwt>
<pdfrwt beam="1">  1        2 0.28933948E+00 0.20371968E+04</pdfrwt>
<pdfrwt beam="2">  1       -2 0.73181652E-01 0.20371968E+04</pdfrwt>
<totfact> 0.12204084E+01</totfact>
</mgrwt>
</event>
<event>
 8    1  0.2654897E-009  0.1546095E+04  0.7818608E-02  0.8854366E-01
         -2   -1    0    0    0  501 -0.00000000000E+00  0.00000000000E+00  0.46929644871E+03  0.46929644872E+03  0.25500000000E-02 0. -1.
          2   -1    0    0  501    0  0.00000000000E+00 -0.00000000000E+00 -0.12734014890E+04  0.12734014890E+04  0.25500000000E-02 0.  1.
     200001    2    1    2    0    0  0.18563474934E+03  0.13005924635E+03 -0.66941136812E+03  0.99468854403E+03  0.69994146337E+03 0.  0.
    5000001    2    3    3    0    0  0.74086104854E+02  0.37956427157E+02 -0.12822532291E+03  0.24381680737E+03  0.18993541225E+03 0.  0.
        -11    1    4    4    0    0  0.80114380813E+02  0.37338011669E+02  0.21524691502E+02  0.90971168361E+02  0.51100000000E-03 0. -1.
     200002    1    4    4    0    0 -0.60282759591E+01  0.61841548810E+00 -0.14975001441E+03  0.15284563901E+03  0.30000000000E+02 0. -1.
     200000    1    3    3    0    0  0.11154864448E+03  0.92102819192E+02 -0.54118604521E+03  0.75087173667E+03  0.50000000000E+03 0.  1.
    -200001    1    1    2    0    0 -0.18563474934E+03 -0.13005924635E+03 -0.13469367216E+03  0.74800939369E+03  0.70000000000E+03 0.  1.
<mgrwt>
<rscale>  0 0.15460955E+04</rscale>
<asrwt>0</asrwt>
<pdfrwt beam="1">  1        2 0.18191450E+00 0.15460955E+04</pdfrwt>
<pdfrwt beam="2">  1       -2 0.67042350E-01 0.15460955E+04</pdfrwt>
<totfact> 0.38267040E+01</totfact>
</mgrwt>
</event>
<event>
 8    1  0.2654897E-009  0.1531941E+04  0.7818608E-02  0.8863486E-01
          2   -1    0    0  501    0  0.00000000000E+00  0.00000000000E+00  0.20064984430E+04  0.20064984430E+04  0.25500000000E-02 0.  1.
         -2   -1    0    0    0  501 -0.00000000000E+00 -0.00000000000E+00 -0.29240546545E+03  0.29240546546E+03  0.25500000000E-02 0. -1.
     200001    2    1    2    0    0  0.26752090948E+03  0.15683481584E+03  0.82376244712E+03  0.11246581719E+04  0.70007630855E+03 0.  0.
    5000001    2    3    3    0    0  0.87708270850E+02 -0.45444431475E+02  0.93401487266E+02  0.19908990827E+03  0.14544764220E+03 0.  0.
        -11    1    4    4    0    0  0.37513402503E+02 -0.92009178616E+02  0.39474999723E+02  0.10691688323E+03  0.51100000000E-03 0. -1.
     200002    1    4    4    0    0  0.50194868348E+02  0.46564747141E+02  0.53926487544E+02  0.92173025032E+02  0.30000000000E+02 0. -1.
     200000    1    3    3    0    0  0.17981263863E+03  0.20227924732E+03  0.73036095985E+03  0.92556826360E+03  0.50000000000E+03 0.  1.
    -200001    1    1    2    0    0 -0.26752090948E+03 -0.15683481584E+03  0.89033053038E+03  0.11742457365E+04  0.70000000000E+03 0. -1.
<mgrwt>
<rscale>  0 0.15319414E+04</rscale>
<asrwt>0</asrwt>
<pdfrwt beam="1">  1        2 0.28664264E+00 0.15319414E+04</pdfrwt>
<pdfrwt beam="2">  1       -2 0.41772209E-01 0.15319414E+04</pdfrwt>
<totfact> 0.41737354E+01</totfact>
</mgrwt>
</event>
<event>
 8    1  0.2654897E-009  0.1913658E+04  0.7818608E-02  0.8648088E-01
          2   -1    0    0  501    0  0.00000000000E+00  0.00000000000E+00  0.80303496078E+03  0.80303496079E+03  0.25500000000E-02 0.  1.
         -2   -1    0    0    0  501 -0.00000000000E+00 -0.00000000000E+00 -0.11400765204E+04  0.11400765204E+04  0.25500000000E-02 0. -1.
     200001    2    1    2    0    0 -0.40937200532E+03  0.45812043021E+03 -0.39100759060E+03  0.10101741307E+04  0.70007504681E+03 0.  0.
    5000001    2    3    3    0    0 -0.13612217349E+03  0.23665045534E+03 -0.20031609443E+03  0.36980106206E+03  0.14863917277E+03 0.  0.
        -11    1    4    4    0    0 -0.26737068759E+02 -0.17809796829E+02 -0.23997509336E+02  0.40099129211E+02  0.51100000000E-03 0. -1.
     200002    1    4    4    0    0 -0.10938510473E+03  0.25446025217E+03 -0.17631858509E+03  0.32970193284E+03  0.30000000000E+02 0. -1.
     200000    1    3    3    0    0 -0.27324983182E+03  0.22146997487E+03 -0.19069149617E+03  0.64037306867E+03  0.50000000000E+03 0. -1.
    -200001    1    1    2    0    0  0.40937200532E+03 -0.45812043021E+03  0.53966031026E+02  0.93293735042E+03  0.70000000000E+03 0.  1.
<mgrwt>
<rscale>  0 0.19136575E+04</rscale>
<asrwt>0</asrwt>
<pdfrwt beam="1">  1        2 0.11471928E+00 0.19136575E+04</pdfrwt>
<pdfrwt beam="2">  1       -2 0.16286807E+00 0.19136575E+04</pdfrwt>
<totfact> 0.85166934E+00</totfact>
</mgrwt>
</event>
<event>
 8    1  0.2654897E-009  0.1521531E+04  0.7818608E-02  0.8870260E-01
          2   -1    0    0  501    0  0.00000000000E+00  0.00000000000E+00  0.77206140150E+03  0.77206140151E+03  0.25500000000E-02 0.  1.
         -2   -1    0    0    0  501 -0.00000000000E+00 -0.00000000000E+00 -0.74963480053E+03  0.74963480053E+03  0.25500000000E-02 0. -1.
     200001    2    1    2    0    0  0.18642385645E+03  0.20172961974E+02  0.24381863611E+03  0.76395268615E+03  0.69929634399E+03 0.  0.
    5000001    2    3    3    0    0  0.61840398894E+02  0.18986822215E+02  0.15097302933E+03  0.24036625439E+03  0.17549457630E+03 0.  0.
        -11    1    4    4    0    0  0.49531443141E+02 -0.72508622696E+02  0.89958491998E+02  0.12571155280E+03  0.51100000000E-03 0. -1.
     200002    1    4    4    0    0  0.12308955753E+02  0.91495444910E+02  0.61014537330E+02  0.11465470159E+03  0.30000000000E+02 0. -1.
     200000    1    3    3    0    0  0.12458345756E+03  0.11861397596E+01  0.92845606784E+02  0.52358643176E+03  0.50000000000E+03 0.  1.
    -200001    1    1    2    0    0 -0.18642385645E+03 -0.20172961974E+02 -0.22139203514E+03  0.75774351589E+03  0.70000000000E+03 0. -1.
<mgrwt>
<rscale>  0 0.15215309E+04</rscale>
<asrwt>0</asrwt>
<pdfrwt beam="1">  1        2 0.11029449E+00 0.15215309E+04</pdfrwt>
<pdfrwt beam="2">  1       -2 0.10709069E+00 0.15215309E+04</pdfrwt>
<totfact> 0.26965594E+01</totfact>
</mgrwt>
</event>
<event>
 8    1  0.2654897E-009  0.1699115E+04  0.7818608E-02  0.8761869E-01
          2   -1    0    0  501    0  0.00000000000E+00  0.00000000000E+00  0.12371444742E+04  0.12371444742E+04  0.25500000000E-02 0.  1.
         -2   -1    0    0    0  501 -0.00000000000E+00 -0.00000000000E+00 -0.58339816015E+03  0.58339816016E+03  0.25500000000E-02 0. -1.
     200001    2    1    2    0    0 -0.40023623623E+03 -0.26773737204E+03  0.32223139468E+03  0.90852592021E+03  0.69979563502E+03 0.  0.
    5000001    2    3    3    0    0 -0.73204732974E+02 -0.10599821308E+02  0.48184678889E+02  0.20271367424E+03  0.18248227668E+03 0.  0.
        -11    1    4    4    0    0  0.45747433205E+02  0.15087341216E+01 -0.31827669689E+02  0.55750376516E+02  0.51100000000E-03 0. -1.
     200002    1    4    4    0    0 -0.11895216618E+03 -0.12108555430E+02  0.80012348578E+02  0.14696329773E+03  0.30000000000E+02 0. -1.
     200000    1    3    3    0    0 -0.32703150326E+03 -0.25713755073E+03  0.27404671579E+03  0.70581224596E+03  0.50000000000E+03 0.  1.
    -200001    1    1    2    0    0  0.40023623623E+03  0.26773737204E+03  0.33151491941E+03  0.91201671420E+03  0.70000000000E+03 0. -1.
<mgrwt>
<rscale>  0 0.16991148E+04</rscale>
<asrwt>0</asrwt>
<pdfrwt beam="1">  1        2 0.17673493E+00 0.16991148E+04</pdfrwt>
<pdfrwt beam="2">  1       -2 0.83342594E-01 0.16991148E+04</pdfrwt>
<totfact> 0.24479833E+01</totfact>
</mgrwt>
</event>
<event>
 8    1  0.2654897E-009  0.1671122E+04  0.7818608E-02  0.8778008E-01
          2   -1    0    0  501    0  0.00000000000E+00  0.00000000000E+00  0.66292650000E+03  0.66292650001E+03  0.25500000000E-02 0.  1.
         -2   -1    0    0    0  501 -0.00000000000E+00 -0.00000000000E+00 -0.10531520489E+04  0.10531520489E+04  0.25500000000E-02 0. -1.
     200001    2    1    2    0    0 -0.16264733549E+03 -0.60830788136E+02  0.23952858958E+03  0.75861063016E+03  0.69854248434E+03 0.  0.
    5000001    2    3    3    0    0 -0.37226344713E+02 -0.12481840074E+02  0.16147709444E+03  0.23500764926E+03  0.16616902874E+03 0.  0.
        -11    1    4    4    0    0 -0.71393620276E+02  0.25152726480E+02  0.15880645929E+03  0.17592384766E+03  0.51100000000E-03 0. -1.
     200002    1    4    4    0    0  0.34167275563E+02 -0.37634566555E+02  0.26706351518E+01  0.59083801598E+02  0.30000000000E+02 0. -1.
     200000    1    3    3    0    0 -0.12542099078E+03 -0.48348948062E+02  0.78051495137E+02  0.52360298089E+03  0.50000000000E+03 0.  1.
    -200001    1    1    2    0    0  0.16264733549E+03  0.60830788136E+02 -0.62975413848E+03  0.95746791876E+03  0.70000000000E+03 0. -1.
<mgrwt>
<rscale>  0 0.16711223E+04</rscale>
<asrwt>0</asrwt>
<pdfrwt beam="1">  1        2 0.94703786E-01 0.16711223E+04</pdfrwt>
<pdfrwt beam="2">  1       -2 0.15045029E+00 0.16711223E+04</pdfrwt>
<totfact> 0.13669322E+01</totfact>
</mgrwt>
</event>
<event>
 8    1  0.2654897E-009  0.1570621E+04  0.7818608E-02  0.8838803E-01
          2   -1    0    0  501    0  0.00000000000E+00  0.00000000000E+00  0.65206331615E+03  0.65206331615E+03  0.25500000000E-02 0.  1.
         -2   -1    0    0    0  501 -0.00000000000E+00 -0.00000000000E+00 -0.94578603148E+03  0.94578603149E+03  0.25500000000E-02 0. -1.
     200001    2    1    2    0    0  0.26556289223E+03  0.88792124150E+02  0.76860621916E+02  0.75776619646E+03  0.69992454040E+03 0.  0.
    5000001    2    3    3    0    0  0.10397835041E+03  0.14167920540E+02 -0.56776499894E+02  0.21046626384E+03  0.17337892014E+03 0.  0.
        -11    1    4    4    0    0  0.60198908445E+02 -0.73485323781E+02 -0.36979748502E+01  0.95066694523E+02  0.51100000000E-03 0. -1.
     200002    1    4    4    0    0  0.43779441962E+02  0.87653244322E+02 -0.53078525043E+02  0.11539956932E+03  0.30000000000E+02 0. -1.
     200000    1    3    3    0    0  0.16158454182E+03  0.74624203610E+02  0.13363712181E+03  0.54729993262E+03  0.50000000000E+03 0.  1.
    -200001    1    1    2    0    0 -0.26556289223E+03 -0.88792124150E+02 -0.37058333725E+03  0.84008315118E+03  0.70000000000E+03 0. -1.
<mgrwt>
<rscale>  0 0.15706207E+04</rscale>
<asrwt>0</asrwt>
<pdfrwt beam="1">  1        2 0.93151904E-01 0.15706207E+04</pdfrwt>
<pdfrwt beam="2">  1       -2 0.13511229E+00 0.15706207E+04</pdfrwt>
<totfact> 0.18611758E+01</totfact>
</mgrwt>
</event>
<event>
 8    1  0.2654897E-009  0.1787765E+04  0.7818608E-02  0.8712833E-01
         -2   -1    0    0    0  501 -0.00000000000E+00  0.00000000000E+00  0.43672904345E+03  0.43672904346E+03  0.25500000000E-02 0. -1.
          2   -1    0    0  501    0  0.00000000000E+00 -0.00000000000E+00 -0.18295684686E+04  0.18295684686E+04  0.25500000000E-02 0.  1.
     200001    2    1    2    0    0 -0.26831289608E+03  0.47340667735E+03 -0.84668649030E+03  0.12249576441E+04  0.69823887361E+03 0.  0.
    5000001    2    3    3    0    0  0.65202104415E+01  0.12964792209E+03 -0.33889512152E+03  0.38736860855E+03  0.13547486357E+03 0.  0.
        -11    1    4    4    0    0 -0.23986229785E+02  0.10443259259E+02 -0.62737638432E+00  0.26168578193E+02  0.51100000000E-03 0. -1.
     200002    1    4    4    0    0  0.30506440227E+02  0.11920466283E+03 -0.33826774513E+03  0.36120003036E+03  0.30000000000E+02 0. -1.
     200000    1    3    3    0    0 -0.27483310652E+03  0.34375875526E+03 -0.50779136878E+03  0.83758903555E+03  0.50000000000E+03 0. -1.
    -200001    1    1    2    0    0  0.26831289608E+03 -0.47340667735E+03 -0.54615293487E+03  0.10413398680E+04  0.70000000000E+03 0. -1.
<mgrwt>
<rscale>  0 0.17877647E+04</rscale>
<asrwt>0</asrwt>
<pdfrwt beam="1">  1        2 0.26136692E+00 0.17877647E+04</pdfrwt>
<pdfrwt beam="2">  1       -2 0.62389864E-01 0.17877647E+04</pdfrwt>
<totfact> 0.22190881E+01</totfact>
</mgrwt>
</event>
<event>
 8    1  0.2654897E-009  0.1475739E+04  0.7818608E-02  0.8900748E-01
          2   -1    0    0  501    0  0.00000000000E+00  0.00000000000E+00  0.18491225522E+04  0.18491225522E+04  0.25500000000E-02 0.  1.
         -2   -1    0    0    0  501 -0.00000000000E+00 -0.00000000000E+00 -0.29443786581E+03  0.29443786582E+03  0.25500000000E-02 0. -1.
     200001    2    1    2    0    0 -0.17404173729E+02  0.12686365222E+03  0.10621310743E+04  0.12781088871E+04  0.69931582057E+03 0.  0.
    5000001    2    3    3    0    0  0.77815843788E+02 -0.45745551108E+01  0.22684995847E+03  0.29117555782E+03  0.16506383527E+03 0.  0.
        -11    1    4    4    0    0  0.11159153536E+03 -0.24406490875E+02  0.89138507867E+02  0.14489313699E+03  0.51100000000E-03 0. -1.
     200002    1    4    4    0    0 -0.33775691572E+02  0.19831935764E+02  0.13771145060E+03  0.14628242083E+03  0.30000000000E+02 0. -1.
     200000    1    3    3    0    0 -0.95220017517E+02  0.13143820733E+03  0.83528111582E+03  0.98693332933E+03  0.50000000000E+03 0. -1.
    -200001    1    1    2    0    0  0.17404173729E+02 -0.12686365222E+03  0.49255361212E+03  0.86545153090E+03  0.70000000000E+03 0. -1.
<mgrwt>
<rscale>  0 0.14757394E+04</rscale>
<asrwt>0</asrwt>
<pdfrwt beam="1">  1        2 0.26416036E+00 0.14757394E+04</pdfrwt>
<pdfrwt beam="2">  1       -2 0.42062552E-01 0.14757394E+04</pdfrwt>
<totfact> 0.49824416E+01</totfact>
</mgrwt>
</event>
<event>
 8    1  0.2654897E-009  0.1875731E+04  0.7818608E-02  0.8667032E-01
         -2   -1    0    0    0  501 -0.00000000000E+00  0.00000000000E+00  0.26033028202E+03  0.26033028204E+03  0.25500000000E-02 0. -1.
          2   -1    0    0  501    0  0.00000000000E+00 -0.00000000000E+00 -0.33787521749E+04  0.33787521749E+04  0.25500000000E-02 0.  1.
     200001    2    1    2    0    0  0.24701200347E+03 -0.50394735451E+02 -0.45091677010E+03  0.86976157642E+03  0.69971759092E+03 0.  0.
    5000001    2    3    3    0    0  0.61640232785E+02  0.34486508092E+02 -0.15303498029E+03  0.25307601670E+03  0.18878275212E+03 0.  0.
        -11    1    4    4    0    0 -0.55069113300E+02 -0.31314696478E+02 -0.37369771388E+02  0.73550780207E+02  0.51100000000E-03 0. -1.
     200002    1    4    4    0    0  0.11670934609E+03  0.65801204570E+02 -0.11566520890E+03  0.17952523649E+03  0.30000000000E+02 0. -1.
     200000    1    3    3    0    0  0.18537177069E+03 -0.84881243543E+02 -0.29788178981E+03  0.61668555973E+03  0.50000000000E+03 0. -1.
    -200001    1    1    2    0    0 -0.24701200347E+03  0.50394735451E+02 -0.26675051228E+04  0.27693208806E+04  0.70000000000E+03 0.  1.
<mgrwt>
<rscale>  0 0.18757308E+04</rscale>
<asrwt>0</asrwt>
<pdfrwt beam="1">  1        2 0.48267886E+00 0.18757308E+04</pdfrwt>
<pdfrwt beam="2">  1       -2 0.37190042E-01 0.18757308E+04</pdfrwt>
<totfact> 0.91663923E+00</totfact>
</mgrwt>
</event>
<event>
 8    1  0.2654897E-009  0.1921821E+04  0.7818608E-02  0.8644070E-01
          2   -1    0    0  501    0  0.00000000000E+00  0.00000000000E+00  0.17051091047E+04  0.17051091047E+04  0.25500000000E-02 0.  1.
         -2   -1    0    0    0  501 -0.00000000000E+00 -0.00000000000E+00 -0.54151891160E+03  0.54151891161E+03  0.25500000000E-02 0. -1.
     200001    2    1    2    0    0  0.31344466072E+03 -0.55190083295E+03  0.37706477399E+03  0.10172117647E+04  0.69978557129E+03 0.  0.
    5000001    2    3    3    0    0  0.79772766177E+01 -0.13689137112E+03  0.10366881191E+03  0.24890939702E+03  0.18001605743E+03 0.  0.
        -11    1    4    4    0    0  0.83203180519E+02 -0.89655731223E+02  0.94768772664E+02  0.15473215458E+03  0.51100000000E-03 0. -1.
     200002    1    4    4    0    0 -0.75225903902E+02 -0.47235639901E+02  0.89000392439E+01  0.94177242438E+02  0.30000000000E+02 0. -1.
     200000    1    3    3    0    0  0.30546738410E+03 -0.41500946183E+03  0.27339596208E+03  0.76830236771E+03  0.50000000000E+03 0. -1.
    -200001    1    1    2    0    0 -0.31344466072E+03  0.55190083295E+03  0.78652541912E+03  0.12294162516E+04  0.70000000000E+03 0.  1.
<mgrwt>
<rscale>  0 0.19218208E+04</rscale>
<asrwt>0</asrwt>
<pdfrwt beam="1">  1        2 0.24358701E+00 0.19218208E+04</pdfrwt>
<pdfrwt beam="2">  1       -2 0.77359845E-01 0.19218208E+04</pdfrwt>
<totfact> 0.15941292E+01</totfact>
</mgrwt>
</event>
<event>
 8    1  0.2654897E-009  0.1937128E+04  0.7818608E-02  0.8636593E-01
         -2   -1    0    0    0  501 -0.00000000000E+00  0.00000000000E+00  0.48967304439E+03  0.48967304440E+03  0.25500000000E-02 0. -1.
          2   -1    0    0  501    0  0.00000000000E+00 -0.00000000000E+00 -0.19158009521E+04  0.19158009521E+04  0.25500000000E-02 0.  1.
     200001    2    1    2    0    0  0.60707218216E+03  0.87145721481E+02 -0.10566603604E+04  0.14041562249E+04  0.69209289521E+03 0.  0.
    5000001    2    3    3    0    0  0.25303913276E+03 -0.80881101181E+01 -0.32904146242E+03  0.44820740650E+03  0.16890048848E+03 0.  0.
        -11    1    4    4    0    0  0.11943747645E+03  0.33205802475E+02 -0.48127919096E+02  0.13298207659E+03  0.51100000000E-03 0. -1.
     200002    1    4    4    0    0  0.13360165631E+03 -0.41293912594E+02 -0.28091354333E+03  0.31522532990E+03  0.30000000000E+02 0. -1.
     200000    1    3    3    0    0  0.35403304940E+03  0.95233831599E+02 -0.72761889798E+03  0.95594881843E+03  0.50000000000E+03 0.  1.
    -200001    1    1    2    0    0 -0.60707218216E+03 -0.87145721481E+02 -0.36946754727E+03  0.10013177715E+04  0.70000000000E+03 0.  1.
<mgrwt>
<rscale>  0 0.19371279E+04</rscale>
<asrwt>0</asrwt>
<pdfrwt beam="1">  1        2 0.27368585E+00 0.19371279E+04</pdfrwt>
<pdfrwt beam="2">  1       -2 0.69953293E-01 0.19371279E+04</pdfrwt>
<totfact> 0.15467005E+01</totfact>
</mgrwt>
</event>
<event>
 8    1  0.2654897E-009  0.1691767E+04  0.7818608E-02  0.8766074E-01
         -2   -1    0    0    0  501 -0.00000000000E+00  0.00000000000E+00  0.36397113098E+03  0.36397113099E+03  0.25500000000E-02 0. -1.
          2   -1    0    0  501    0  0.00000000000E+00 -0.00000000000E+00 -0.19658672601E+04  0.19658672601E+04  0.25500000000E-02 0.  1.
     200001    2    1    2    0    0  0.33007747276E+03 -0.30953907379E+03 -0.10027031520E+04  0.13032918505E+04  0.69884938311E+03 0.  0.
    5000001    2    3    3    0    0  0.62432652838E+02 -0.12307560450E+03 -0.35416577325E+03  0.42181405345E+03  0.18288865516E+03 0.  0.
        -11    1    4    4    0    0 -0.50656746020E+02  0.72222732871E+01 -0.54686408699E+02  0.74892392440E+02  0.51100000000E-03 0. -1.
     200002    1    4    4    0    0  0.11308939886E+03 -0.13029787778E+03 -0.29947936455E+03  0.34692166101E+03  0.30000000000E+02 0. -1.
     200000    1    3    3    0    0  0.26764481992E+03 -0.18646346929E+03 -0.64853737878E+03  0.88147779705E+03  0.50000000000E+03 0. -1.
    -200001    1    1    2    0    0 -0.33007747276E+03  0.30953907379E+03 -0.59919297714E+03  0.10265465406E+04  0.70000000000E+03 0.  1.
<mgrwt>
<rscale>  0 0.16917670E+04</rscale>
<asrwt>0</asrwt>
<pdfrwt beam="1">  1        2 0.28083817E+00 0.16917670E+04</pdfrwt>
<pdfrwt beam="2">  1       -2 0.51995877E-01 0.16917670E+04</pdfrwt>
<totfact> 0.27845115E+01</totfact>
</mgrwt>
</event>
<event>
 8    1  0.2654897E-009  0.1575143E+04  0.7818608E-02  0.8835966E-01
         -2   -1    0    0    0  501 -0.00000000000E+00  0.00000000000E+00  0.66038172844E+03  0.66038172845E+03  0.25500000000E-02 0. -1.
          2   -1    0    0  501    0  0.00000000000E+00 -0.00000000000E+00 -0.93925826985E+03  0.93925826986E+03  0.25500000000E-02 0.  1.
     200001    2    1    2    0    0  0.33185114405E+03 -0.77117940123E+01  0.41515084388E+01  0.77484333817E+03  0.70012878109E+03 0.  0.
    5000001    2    3    3    0    0  0.15764825396E+02 -0.16696236230E+02 -0.70963273917E+02  0.17849317965E+03  0.16216268039E+03 0.  0.
        -11    1    4    4    0    0 -0.54969777491E+02  0.40159448882E+02 -0.32914048843E+02  0.75616085481E+02  0.51100000000E-03 0. -1.
     200002    1    4    4    0    0  0.70734602887E+02 -0.56855685112E+02 -0.38049225074E+02  0.10287709417E+03  0.30000000000E+02 0. -1.
     200000    1    3    3    0    0  0.31608631865E+03  0.89844422177E+01  0.75114782356E+02  0.59635015852E+03  0.50000000000E+03 0. -1.
    -200001    1    1    2    0    0 -0.33185114405E+03  0.77117940123E+01 -0.28302804985E+03  0.82479666014E+03  0.70000000000E+03 0. -1.
<mgrwt>
<rscale>  0 0.15751432E+04</rscale>
<asrwt>0</asrwt>
<pdfrwt beam="1">  1        2 0.13417975E+00 0.15751432E+04</pdfrwt>
<pdfrwt beam="2">  1       -2 0.94340248E-01 0.15751432E+04</pdfrwt>
<totfact> 0.27981443E+01</totfact>
</mgrwt>
</event>
<event>
 8    1  0.2654897E-009  0.1483161E+04  0.7818608E-02  0.8895728E-01
         -2   -1    0    0    0  501 -0.00000000000E+00  0.00000000000E+00  0.16204448863E+03  0.16204448865E+03  0.25500000000E-02 0. -1.
          2   -1    0    0  501    0  0.00000000000E+00 -0.00000000000E+00 -0.33937706426E+04  0.33937706426E+04  0.25500000000E-02 0.  1.
     200001    2    1    2    0    0 -0.23565217372E+02 -0.91980548934E+02 -0.21561818772E+04  0.22690318425E+04  0.70026386028E+03 0.  0.
    5000001    2    3    3    0    0 -0.38162105125E+02  0.30845389120E+01 -0.72217586276E+03  0.74731449377E+03  0.18834838785E+03 0.  0.
        -11    1    4    4    0    0 -0.29351634250E+02 -0.57379048855E+02 -0.62699031619E+03  0.63029416170E+03  0.51100000000E-03 0. -1.
     200002    1    4    4    0    0 -0.88104708748E+01  0.60463587767E+02 -0.95185546570E+02  0.11702033207E+03  0.30000000000E+02 0. -1.
     200000    1    3    3    0    0  0.14596887753E+02 -0.95065087846E+02 -0.14340060144E+04  0.15217173487E+04  0.50000000000E+03 0.  1.
    -200001    1    1    2    0    0  0.23565217372E+02  0.91980548934E+02 -0.10755442768E+04  0.12867832888E+04  0.70000000000E+03 0. -1.
<mgrwt>
<rscale>  0 0.14831613E+04</rscale>
<asrwt>0</asrwt>
<pdfrwt beam="1">  1        2 0.48482433E+00 0.14831613E+04</pdfrwt>
<pdfrwt beam="2">  1       -2 0.23149215E-01 0.14831613E+04</pdfrwt>
<totfact> 0.22478691E+01</totfact>
</mgrwt>
</event>
<event>
 8    1  0.2654897E-009  0.1455779E+04  0.7818608E-02  0.8914404E-01
         -2   -1    0    0    0  501 -0.00000000000E+00  0.00000000000E+00  0.67503095767E+03  0.67503095768E+03  0.25500000000E-02 0. -1.
          2   -1    0    0  501    0  0.00000000000E+00 -0.00000000000E+00 -0.78488699637E+03  0.78488699638E+03  0.25500000000E-02 0.  1.
     200001    2    1    2    0    0 -0.13816689232E+03 -0.13472980571E+03 -0.10210610275E+03  0.73376213594E+03  0.70052766200E+03 0.  0.
    5000001    2    3    3    0    0  0.30432353397E+01 -0.37423472584E+02 -0.26753869939E+02  0.19982695110E+03  0.19443575609E+03 0.  0.
        -11    1    4    4    0    0  0.39715451131E+02 -0.26098226140E+02  0.73981974993E+02  0.87930467360E+02  0.51100000000E-03 0. -1.
     200002    1    4    4    0    0 -0.36672215791E+02 -0.11325246444E+02 -0.10073584493E+03  0.11189648373E+03  0.30000000000E+02 0. -1.
     200000    1    3    3    0    0 -0.14121012766E+03 -0.97306333126E+02 -0.75352232811E+02  0.53393518484E+03  0.50000000000E+03 0.  1.
    -200001    1    1    2    0    0  0.13816689232E+03  0.13472980571E+03 -0.77499359519E+01  0.72615581812E+03  0.70000000000E+03 0. -1.
<mgrwt>
<rscale>  0 0.14557789E+04</rscale>
<asrwt>0</asrwt>
<pdfrwt beam="1">  1        2 0.11212671E+00 0.14557789E+04</pdfrwt>
<pdfrwt beam="2">  1       -2 0.96432993E-01 0.14557789E+04</pdfrwt>
<totfact> 0.34052978E+01</totfact>
</mgrwt>
</event>
<event>
 8    1  0.2654897E-009  0.1521544E+04  0.7818608E-02  0.8870251E-01
          2   -1    0    0  501    0  0.00000000000E+00  0.00000000000E+00  0.15571813249E+04  0.15571813249E+04  0.25500000000E-02 0.  1.
         -2   -1    0    0    0  501 -0.00000000000E+00 -0.00000000000E+00 -0.37168060381E+03  0.37168060382E+03  0.25500000000E-02 0. -1.
     200001    2    1    2    0    0 -0.89103979700E+02 -0.25275307826E+03  0.75753349635E+03  0.10657399309E+04  0.70008639778E+03 0.  0.
    5000001    2    3    3    0    0 -0.24008524619E+02 -0.13786937115E+02  0.21307019582E+03  0.28613585152E+03  0.18896647398E+03 0.  0.
        -11    1    4    4    0    0 -0.52301838157E+02  0.63441940461E+02  0.16940049567E+03  0.18830000004E+03  0.51100000000E-03 0. -1.
     200002    1    4    4    0    0  0.28293313539E+02 -0.77228877576E+02  0.43669700150E+02  0.97835851474E+02  0.30000000000E+02 0. -1.
     200000    1    3    3    0    0 -0.65095455082E+02 -0.23896614115E+03  0.54446330054E+03  0.77960407934E+03  0.50000000000E+03 0. -1.
    -200001    1    1    2    0    0  0.89103979700E+02  0.25275307826E+03  0.42796722475E+03  0.86312199788E+03  0.70000000000E+03 0. -1.
<mgrwt>
<rscale>  0 0.15215441E+04</rscale>
<asrwt>0</asrwt>
<pdfrwt beam="1">  1        2 0.22245448E+00 0.15215441E+04</pdfrwt>
<pdfrwt beam="2">  1       -2 0.53097229E-01 0.15215441E+04</pdfrwt>
<totfact> 0.44040842E+01</totfact>
</mgrwt>
</event>
